Title
42785
    1SAPS     N    1   2.773   2.089   6.838  0.0714  0.2632  0.0843
    1SAPS   HN1    2   2.671   2.074   6.854  0.5961 -1.4513  2.2279
    1SAPS   HN2    3   2.792   2.169   6.774 -1.8039  1.2841  0.7189
    1SAPS   HN3    4   2.817   2.006   6.794 -0.3383  0.4506 -0.7074
    1SAPS   C12    5   2.831   2.125   6.972 -0.2258  0.2630  0.5905
    1SAPS  H12A    6   2.879   2.222   6.965  4.4952 -1.5760  2.9544
    1SAPS   C13    7   2.721   2.137   7.080 -0.9358 -0.2634 -0.2887
    1SAPS  O13A    8   2.604   2.137   7.047 -0.2502  0.8925 -0.6834
    1SAPS  O13B    9   2.754   2.185   7.191 -0.2559  0.3744 -0.1671
    1SAPS   C11   10   2.946   2.025   7.011 -0.4277 -0.0212 -0.5510
    1SAPS  H11A   11   2.903   1.923   7.022  0.9022 -0.3844  2.0064
    1SAPS  H11B   12   3.002   2.053   7.103 -2.4345 -0.9625  1.0293
    1SAPS     P   13   3.173   2.097   6.891 -0.1328 -0.0301 -0.1462
    1SAPS   O13   14   3.153   2.225   6.961 -0.3891 -0.4495 -0.1204
    1SAPS   O14   15   3.298   2.014   6.927  0.7708 -0.3300 -0.6201
    1SAPS   O12   16   3.044   2.018   6.910  0.1084 -0.1365 -0.2477
    1SAPS   O11   17   3.167   2.124   6.732  0.0499  0.6590 -0.1991
    1SAPS    C1   18   3.126   2.019   6.642  0.7317  0.0577 -0.4589
    1SAPS    HA   19   3.115   1.918   6.688  0.7966  0.8116  1.2832
    1SAPS    HB   20   3.026   2.044   6.599  1.2580 -0.3601 -1.9883
    1SAPS    C2   21   3.232   1.996   6.523 -0.5546 -0.1010 -0.6823
    1SAPS    HS   22   3.318   1.951   6.576 -0.4398  1.7388  0.8053
    1SAPS   O21   23   3.263   2.132   6.465  0.1692  0.5449  0.4607
    1SAPS   C21   24   3.380   2.132   6.412  0.4662 -0.7317  0.1633
    1SAPS   O22   25   3.460   2.039   6.414 -0.2679  0.3864 -0.1320
    1SAPS   C22   26   3.405   2.266   6.341  0.5808  0.4598  0.0890
    1SAPS   H2R   27   3.307   2.304   6.302  1.0735  0.4176 -1.2461
    1SAPS   H2S   28   3.444   2.337   6.417 -0.3880 -1.2178  2.2769
    1SAPS    C3   29   3.174   1.899   6.419  0.0193  0.2806 -0.3412
    1SAPS    HX   30   3.087   1.948   6.371  0.0563 -0.2211 -0.9327
    1SAPS    HY   31   3.133   1.809   6.469 -0.5576  0.0999 -1.1275
    1SAPS   O31   32   3.264   1.873   6.307  0.0940  0.3346 -0.2488
    1SAPS   C31   33   3.338   1.759   6.332  0.3223 -0.7836 -0.4110
    1SAPS   O32   34   3.314   1.681   6.425  0.8299  0.3685  0.1194
    1SAPS   C32   35   3.433   1.728   6.207  0.7530  0.1404 -0.4290
    1SAPS   H2X   36   3.481   1.628   6.217  1.1560  0.3248 -0.4793
    1SAPS   H2Y   37   3.516   1.802   6.211 -0.5881  1.6778  0.9024
    1SAPS   C23   38   3.494   2.241   6.219 -0.3846 -0.6734 -0.5048
    1SAPS   H3R   39   3.584   2.187   6.258 -0.3406 -3.7706 -4.2242
    1SAPS   H3S   40   3.508   2.340   6.172 -2.5073 -0.9242 -1.7936
    1SAPS   C24   41   3.454   2.150   6.104 -0.1439 -1.3010 -0.1186
    1SAPS   H4R   42   3.353   2.176   6.067  1.4436  2.8628 -2.2151
    1SAPS   H4S   43   3.445   2.048   6.148  1.0578 -0.3976  2.4135
    1SAPS   C25   44   3.564   2.133   5.996  0.0352 -0.4750 -0.0975
    1SAPS   H5R   45   3.666   2.130   6.037  1.5422 -0.7250 -3.4951
    1SAPS   C26   46   3.552   2.116   5.863  0.4468  0.7017 -0.3594
    1SAPS   H6R   47   3.646   2.110   5.806  0.4697  3.0724 -0.6940
    1SAPS   C27   48   3.423   2.117   5.777 -0.7143  0.4166 -0.4497
    1SAPS   H7R   49   3.331   2.094   5.836 -1.4365  0.2829 -1.5944
    1SAPS   H7S   50   3.429   2.026   5.714 -0.3081 -0.7930  1.2531
    1SAPS   C28   51   3.419   2.242   5.691  0.1903  0.3571 -0.0462
    1SAPS   H8R   52   3.345   2.319   5.718  1.8510  2.2471 -0.6505
    1SAPS   C29   53   3.491   2.274   5.581 -0.0829 -0.5219 -0.0715
    1SAPS   H9R   54   3.484   2.375   5.536  2.7074 -1.1681 -2.2382
    1SAPS  C210   55   3.597   2.190   5.513  0.2068  0.0858 -0.5247
    1SAPS  H10R   56   3.582   2.083   5.541  0.4915 -0.1344 -1.1884
    1SAPS  H10S   57   3.699   2.208   5.554  0.3904 -2.7756  0.4902
    1SAPS  C211   58   3.612   2.219   5.364 -0.4074  0.8966 -0.0725
    1SAPS  H11R   59   3.572   2.146   5.292  0.5439  0.5515 -0.2645
    1SAPS  C212   60   3.669   2.327   5.311 -0.1805  0.2916 -0.2459
    1SAPS  H12R   61   3.686   2.331   5.202  1.2165  2.3417 -0.0138
    1SAPS  C213   62   3.739   2.440   5.380 -0.1123 -0.1033 -1.0526
    1SAPS  H13R   63   3.695   2.447   5.482  0.8230 -1.8600 -0.4802
    1SAPS  H13S   64   3.732   2.537   5.326 -1.8806  1.3393  1.4949
    1SAPS  C214   65   3.881   2.406   5.405  0.1489 -0.2158 -0.0699
    1SAPS  H14R   66   3.904   2.365   5.504  3.2517 -0.7806 -0.9271
    1SAPS  C215   67   3.987   2.411   5.321  0.0871 -0.0336 -0.7671
    1SAPS  H15R   68   4.084   2.379   5.359 -0.4945 -1.8597 -0.7190
    1SAPS  C216   69   3.996   2.456   5.180 -0.0320 -0.5387  0.1605
    1SAPS  H16R   70   4.048   2.553   5.165  1.1460 -1.1358  0.3074
    1SAPS  H16S   71   3.891   2.479   5.153  0.3236 -0.0613 -0.8681
    1SAPS  C217   72   4.050   2.336   5.102  0.2468 -0.2531 -0.1851
    1SAPS  H17R   73   4.009   2.340   4.999 -0.9975 -1.9659  0.1910
    1SAPS  H17S   74   4.040   2.233   5.143 -0.6981  0.1935  0.7446
    1SAPS  C218   75   4.204   2.356   5.091 -0.5869 -0.1666  0.9413
    1SAPS  H18R   76   4.255   2.348   5.189  0.1705  0.2363  0.5916
    1SAPS  H18S   77   4.215   2.458   5.047 -1.3229  0.6103  2.4973
    1SAPS  C219   78   4.268   2.245   5.006  0.1795 -0.2746  0.3374
    1SAPS  H19R   79   4.281   2.153   5.067 -1.5787  0.5915  2.1250
    1SAPS  H19S   80   4.374   2.269   4.980 -0.4174  0.9306 -1.1492
    1SAPS  C220   81   4.209   2.220   4.866  0.3597 -0.3176  0.5947
    1SAPS  H20R   82   4.253   2.132   4.815  0.5349  0.8226 -1.3008
    1SAPS  H20S   83   4.219   2.314   4.808 -0.4211  0.9381  2.3989
    1SAPS  H20T   84   4.103   2.193   4.884 -0.0754  1.3332  0.7129
    1SAPS   C33   85   3.359   1.754   6.075 -0.2661 -0.3759 -0.3583
    1SAPS   H3X   86   3.322   1.859   6.065 -0.4827 -0.2775  1.1895
    1SAPS   H3Y   87   3.264   1.698   6.088  0.0066 -0.6640  0.5051
    1SAPS   C34   88   3.432   1.716   5.950 -0.1363  0.4914 -0.2220
    1SAPS   H4X   89   3.473   1.612   5.955  0.0809  0.6205  0.8713
    1SAPS   H4Y   90   3.519   1.785   5.949 -0.4363  0.8810 -1.2168
    1SAPS   C35   91   3.350   1.738   5.821  0.0808 -0.1496  0.2298
    1SAPS   H5X   92   3.289   1.831   5.825 -1.5878 -1.1246 -1.2863
    1SAPS   H5Y   93   3.273   1.660   5.802 -1.5020  1.7234 -1.4271
    1SAPS   C36   94   3.439   1.735   5.704  0.1832  0.0206  1.0942
    1SAPS   H6X   95   3.480   1.633   5.690  0.8131  0.3662  0.2884
    1SAPS   H6Y   96   3.523   1.808   5.715 -1.3269  2.3650 -1.5739
    1SAPS   C37   97   3.373   1.773   5.574 -0.4336  0.4755  0.1902
    1SAPS   H7X   98   3.315   1.866   5.593 -0.5738  0.2106  1.1117
    1SAPS   H7Y   99   3.301   1.693   5.544  0.8897 -0.7224  0.1030
    1SAPS   C38  100   3.472   1.784   5.459 -0.2442 -0.1098  0.1078
    1SAPS   H8X  101   3.527   1.688   5.453 -0.2738 -0.0771 -0.8646
    1SAPS   H8Y  102   3.546   1.865   5.474 -2.8549  2.6979 -1.1209
    1SAPS   C39  103   3.406   1.812   5.322 -0.2913 -0.1327  0.3307
    1SAPS   H9X  104   3.353   1.909   5.327  0.5581  0.5172 -1.9028
    1SAPS   H9Y  105   3.333   1.729   5.310  2.4657 -2.6922  0.0721
    1SAPS  C310  106   3.512   1.801   5.208  0.1317 -0.0460  0.4072
    1SAPS  H10X  107   3.560   1.701   5.196  0.0293 -0.0835  0.3097
    1SAPS  H10Y  108   3.595   1.872   5.227  0.6703 -0.4468 -0.3914
    1SAPS  C311  109   3.454   1.829   5.070 -1.1585 -0.5007  0.0406
    1SAPS  H11X  110   3.409   1.931   5.068 -0.5266 -0.1981  0.7188
    1SAPS  H11Y  111   3.376   1.752   5.052  0.8197 -2.5261 -0.3510
    1SAPS  C312  112   3.544   1.796   4.954 -1.1673 -0.1029  0.0160
    1SAPS  H12X  113   3.497   1.814   4.856 -0.0033  0.3745 -0.4754
    1SAPS  H12Y  114   3.569   1.687   4.954  0.4041  0.2177  1.1028
    1SAPS  C313  115   3.665   1.886   4.952  0.6673 -0.2172  0.2948
    1SAPS  H13X  116   3.733   1.863   5.037  1.0692  0.6500  0.2118
    1SAPS  H13Y  117   3.639   1.994   4.947 -0.4101 -0.4787 -0.0159
    1SAPS  C314  118   3.746   1.849   4.827 -0.3655  0.8250 -0.7369
    1SAPS  H14X  119   3.688   1.880   4.737 -2.6288 -0.3182  0.2597
    1SAPS  H14Y  120   3.755   1.738   4.828  1.7355  0.9466 -1.0325
    1SAPS  C315  121   3.894   1.918   4.817  0.2770  0.4323 -0.2123
    1SAPS  H15X  122   3.966   1.872   4.888  0.4152 -0.1196 -0.6945
    1SAPS  H15Y  123   3.888   2.029   4.824  2.8366  0.5248  1.9825
    1SAPS  C316  124   3.945   1.886   4.676  0.0092  0.5915 -0.3274
    1SAPS  H16X  125   3.916   1.974   4.615 -0.7942 -0.5964 -1.7175
    1SAPS  H16Y  126   3.879   1.811   4.628 -1.0441  1.2509  0.0462
    1SAPS  C317  127   4.094   1.874   4.671  0.8435  0.6903 -0.4425
    1SAPS  H17X  128   4.143   1.966   4.708  0.6672  0.6223 -0.0340
    1SAPS  H17Y  129   4.122   1.871   4.563  3.9201  3.0061  0.1619
    1SAPS  C318  130   4.141   1.752   4.745  0.1731  0.3422 -0.2265
    1SAPS  H18X  131   4.109   1.749   4.851  0.2534 -2.4936 -0.2061
    1SAPS  H18Y  132   4.252   1.752   4.737  0.0743  0.6822 -1.9161
    1SAPS  H18Z  133   4.101   1.665   4.689 -0.3956 -0.9020  2.0156
    2SAPS     N  134   3.076   4.927   6.725 -0.3779  0.1642 -0.0657
    2SAPS   HN1  135   3.171   4.884   6.734 -1.6771 -3.8558 -2.6224
    2SAPS   HN2  136   3.055   4.906   6.625  0.8805 -1.8694  0.0347
    2SAPS   HN3  137   3.091   5.029   6.728  1.5167 -0.0827  0.0012
    2SAPS   C12  138   2.996   4.860   6.827  0.3948 -0.2256 -0.5509
    2SAPS  H12A  139   2.991   4.752   6.817 -1.1444 -0.0319 -2.4055
    2SAPS   C13  140   3.051   4.908   6.972 -0.1423  0.6285 -0.4415
    2SAPS  O13A  141   3.149   4.980   6.984 -0.2922 -0.4208  0.7953
    2SAPS  O13B  142   3.009   4.831   7.068  0.1907 -0.2489  0.0037
    2SAPS   C11  143   2.846   4.905   6.805  0.1197 -0.7774  0.5470
    2SAPS  H11A  144   2.854   5.015   6.816 -0.9524 -0.5713 -0.5167
    2SAPS  H11B  145   2.779   4.868   6.886 -2.9541  1.6001 -0.7053
    2SAPS     P  146   2.721   4.713   6.667 -0.0518  0.6876 -0.1263
    2SAPS   O13  147   2.817   4.603   6.697 -0.3378  0.0336  0.1518
    2SAPS   O14  148   2.591   4.715   6.740  0.0868 -0.1013  0.4279
    2SAPS   O12  149   2.798   4.852   6.675  0.2113  0.1726 -0.5801
    2SAPS   O11  150   2.683   4.703   6.515  0.1797 -0.2221 -0.0982
    2SAPS    C1  151   2.789   4.699   6.419 -0.2017 -0.1858 -0.2382
    2SAPS    HA  152   2.786   4.798   6.369 -1.8533 -1.0700 -2.0387
    2SAPS    HB  153   2.888   4.669   6.459  0.8198  1.0671 -1.7262
    2SAPS    C2  154   2.756   4.608   6.295  0.5649 -0.0526 -0.0394
    2SAPS    HS  155   2.837   4.620   6.219  1.5853 -0.4983  0.9641
    2SAPS   O21  156   2.628   4.647   6.236  0.1952  0.0247 -0.3368
    2SAPS   C21  157   2.626   4.728   6.143  0.1325  0.3747 -0.5671
    2SAPS   O22  158   2.721   4.805   6.113 -0.6785  0.7436 -0.5034
    2SAPS   C22  159   2.494   4.722   6.074  0.6629  0.2821 -0.1141
    2SAPS   H2R  160   2.416   4.672   6.136 -0.2357 -1.0411 -2.1782
    2SAPS   H2S  161   2.469   4.828   6.055  3.0289  1.0647  0.8013
    2SAPS    C3  162   2.740   4.453   6.337 -1.2754 -1.1736  0.2643
    2SAPS    HX  163   2.639   4.452   6.385 -1.5448 -2.3100 -0.2843
    2SAPS    HY  164   2.817   4.426   6.413  1.2297 -0.4328 -1.8817
    2SAPS   O31  165   2.736   4.364   6.227 -0.2194  0.2342  0.0331
    2SAPS   C31  166   2.620   4.333   6.166 -0.2277  0.3420 -1.1348
    2SAPS   O32  167   2.508   4.351   6.209 -0.0565  0.2511  0.1256
    2SAPS   C32  168   2.659   4.268   6.039  0.0935  0.0948  0.7573
    2SAPS   H2X  169   2.705   4.170   6.066  0.1000 -0.1954 -0.2384
    2SAPS   H2Y  170   2.730   4.333   5.983 -1.1348  1.4624  0.7224
    2SAPS   C23  171   2.497   4.643   5.937 -0.1637  0.0175 -0.6157
    2SAPS   H3R  172   2.394   4.632   5.897 -0.1946 -1.4348 -0.1826
    2SAPS   H3S  173   2.537   4.542   5.959 -0.5445  0.3420  1.8444
    2SAPS   C24  174   2.581   4.720   5.838  0.5201  0.4963 -0.2374
    2SAPS   H4R  175   2.609   4.637   5.769  0.0228 -1.1128  1.4145
    2SAPS   H4S  176   2.681   4.756   5.869  0.3044 -0.1293  1.2768
    2SAPS   C25  177   2.500   4.828   5.769 -0.4698  0.4391  0.3639
    2SAPS   H5R  178   2.484   4.918   5.831 -2.4242 -0.1301  0.7533
    2SAPS   C26  179   2.461   4.833   5.636 -0.0171 -0.3746 -1.0059
    2SAPS   H6R  180   2.390   4.911   5.603 -0.9323  0.0712  1.7542
    2SAPS   C27  181   2.474   4.718   5.535 -0.3494 -0.5507  0.1836
    2SAPS   H7R  182   2.580   4.686   5.529 -0.1119 -0.3120  2.2812
    2SAPS   H7S  183   2.461   4.773   5.440  0.3752  2.1816  1.5506
    2SAPS   C28  184   2.402   4.594   5.564 -0.3085  0.3497  0.0374
    2SAPS   H8R  185   2.382   4.579   5.671 -4.1270 -0.3916 -0.6221
    2SAPS   C29  186   2.347   4.524   5.466  0.1648 -0.4378  0.4535
    2SAPS   H9R  187   2.283   4.439   5.493  1.3143 -0.9048  1.8005
    2SAPS  C210  188   2.366   4.537   5.317  0.8147 -0.4790 -0.2664
    2SAPS  H10R  189   2.409   4.634   5.284  0.1582 -0.8626 -2.4200
    2SAPS  H10S  190   2.264   4.540   5.272 -0.0894 -1.2555  1.6696
    2SAPS  C211  191   2.440   4.425   5.239 -0.1360  0.1943 -0.8011
    2SAPS  H11R  192   2.378   4.337   5.215 -1.4833  0.8392  0.1507
    2SAPS  C212  193   2.576   4.415   5.214  0.4114 -0.2361  0.2162
    2SAPS  H12R  194   2.618   4.336   5.150  1.7461  2.3050 -2.3247
    2SAPS  C213  195   2.675   4.515   5.259  0.5072 -0.3363  0.3319
    2SAPS  H13R  196   2.666   4.526   5.369  0.1724 -0.3843  0.3090
    2SAPS  H13S  197   2.653   4.613   5.211 -1.4789 -0.8388  0.1301
    2SAPS  C214  198   2.822   4.476   5.231  0.0553 -0.1004  0.6108
    2SAPS  H14R  199   2.857   4.481   5.127  0.6494 -0.9866  0.7580
    2SAPS  C215  200   2.906   4.415   5.315 -0.3355  0.4820  0.3046
    2SAPS  H15R  201   3.010   4.392   5.286 -0.3706  0.6969  0.0112
    2SAPS  C216  202   2.869   4.364   5.451  0.2579  0.0954  0.7070
    2SAPS  H16R  203   2.900   4.259   5.472  2.5751  0.6854  0.4601
    2SAPS  H16S  204   2.758   4.359   5.452  0.2824 -0.7652  0.2799
    2SAPS  C217  205   2.921   4.475   5.546  0.3207  0.3471  0.3894
    2SAPS  H17R  206   2.904   4.576   5.503  1.2968 -0.0901 -1.0668
    2SAPS  H17S  207   3.028   4.451   5.558  0.5278 -0.0791 -1.9575
    2SAPS  C218  208   2.846   4.456   5.683 -0.1316  1.1054  0.2363
    2SAPS  H18R  209   2.852   4.346   5.696 -2.5114  1.1513  2.5030
    2SAPS  H18S  210   2.739   4.482   5.682 -1.2130 -2.6414 -2.3102
    2SAPS  C219  211   2.923   4.531   5.799 -0.3758  0.6238  0.2439
    2SAPS  H19R  212   2.844   4.538   5.878  0.0731  0.5423  0.7046
    2SAPS  H19S  213   2.954   4.627   5.753  0.4259 -0.0256 -0.5858
    2SAPS  C220  214   3.041   4.453   5.855 -0.1915  0.3288  0.1041
    2SAPS  H20R  215   3.076   4.500   5.949 -0.2861  1.5441 -0.4417
    2SAPS  H20S  216   3.121   4.457   5.778 -2.6925  0.3971 -2.6834
    2SAPS  H20T  217   3.012   4.349   5.880 -1.4466  0.3015 -1.3277
    2SAPS   C33  218   2.540   4.244   5.941  0.2152 -0.6817 -0.0884
    2SAPS   H3X  219   2.494   4.341   5.914  0.4694  0.5830  3.4986
    2SAPS   H3Y  220   2.466   4.186   6.000  2.0736 -0.8146  2.2566
    2SAPS   C34  221   2.577   4.185   5.808 -0.2903 -0.4478 -0.2237
    2SAPS   H4X  222   2.594   4.075   5.813  0.6408 -0.3194 -0.3784
    2SAPS   H4Y  223   2.670   4.233   5.771  0.3305 -0.9463  0.6546
    2SAPS   C35  224   2.466   4.184   5.699  0.8960  0.2336  0.0379
    2SAPS   H5X  225   2.430   4.287   5.675  1.8158  0.1262 -1.9486
    2SAPS   H5Y  226   2.379   4.132   5.744 -0.3690  0.6443 -1.8145
    2SAPS   C36  227   2.503   4.120   5.559  0.1280 -0.5740  0.4052
    2SAPS   H6X  228   2.530   4.013   5.566 -1.3467 -0.9609  0.5635
    2SAPS   H6Y  229   2.598   4.169   5.527 -0.5734 -0.6250 -1.9877
    2SAPS   C37  230   2.388   4.131   5.456 -0.2581 -0.1240  0.3984
    2SAPS   H7X  231   2.439   4.135   5.358  0.0415 -0.8849  0.5167
    2SAPS   H7Y  232   2.346   4.234   5.465  1.9589  0.6652  3.1431
    2SAPS   C38  233   2.277   4.028   5.473  0.5454  0.8746  0.3393
    2SAPS   H8X  234   2.248   4.022   5.580 -1.3346 -0.4592 -0.1962
    2SAPS   H8Y  235   2.320   3.929   5.449 -0.6698  0.3346  0.3185
    2SAPS   C39  236   2.149   4.065   5.391  0.4805  0.2260 -0.0907
    2SAPS   H9X  237   2.102   4.163   5.411 -1.7554  0.1625 -4.0672
    2SAPS   H9Y  238   2.067   3.997   5.423  0.3915 -0.8358 -2.3676
    2SAPS  C310  239   2.162   4.061   5.233 -0.8097 -0.5782 -0.6328
    2SAPS  H10X  240   2.218   4.151   5.199 -0.9773 -0.4131 -0.4732
    2SAPS  H10Y  241   2.057   4.063   5.197 -1.6342 -3.1783  1.3025
    2SAPS  C311  242   2.235   3.947   5.165 -0.2213 -0.6910  0.5705
    2SAPS  H11X  243   2.199   3.855   5.215 -0.7423 -0.7474  0.0936
    2SAPS  H11Y  244   2.346   3.954   5.166 -0.2610  0.1184  0.2603
    2SAPS  C312  245   2.194   3.946   5.011 -0.2562 -0.1257 -0.0036
    2SAPS  H12X  246   2.252   4.036   4.979  2.8649 -0.0751  4.7397
    2SAPS  H12Y  247   2.084   3.958   5.002 -0.4210 -1.4712  0.0520
    2SAPS  C313  248   2.240   3.826   4.936 -0.3932  0.3503 -0.2896
    2SAPS  H13X  249   2.178   3.790   4.851 -1.2049 -1.3426  0.9695
    2SAPS  H13Y  250   2.240   3.744   5.011 -1.9414  2.7136  2.4702
    2SAPS  C314  251   2.381   3.851   4.870 -0.1874 -0.2625 -0.2585
    2SAPS  H14X  252   2.456   3.891   4.941 -0.0214 -0.3685 -0.3702
    2SAPS  H14Y  253   2.373   3.933   4.795 -2.6087 -0.5569 -0.3889
    2SAPS  C315  254   2.432   3.721   4.794 -0.8603  0.1143  0.6888
    2SAPS  H15X  255   2.362   3.710   4.709 -0.6278 -3.4636  0.8258
    2SAPS  H15Y  256   2.443   3.630   4.856  0.0311 -0.1349  0.1899
    2SAPS  C316  257   2.579   3.718   4.740 -0.2514 -0.3509 -0.3729
    2SAPS  H16X  258   2.655   3.719   4.821 -0.7900  0.7443  0.1408
    2SAPS  H16Y  259   2.583   3.808   4.675 -0.6456  1.4521  1.9603
    2SAPS  C317  260   2.609   3.596   4.648 -0.1002 -0.0622 -0.8405
    2SAPS  H17X  261   2.595   3.499   4.700  1.7718 -0.0217 -0.1879
    2SAPS  H17Y  262   2.719   3.607   4.638  0.0053  1.7445  1.5025
    2SAPS  C318  263   2.534   3.600   4.510  0.1083  0.6348  0.8560
    2SAPS  H18X  264   2.427   3.589   4.536 -0.0602  1.5809  0.5689
    2SAPS  H18Y  265   2.568   3.522   4.439  2.2255  3.2119 -1.1472
    2SAPS  H18Z  266   2.550   3.694   4.454  1.6457 -0.6352 -0.9851
    3SAPS     N  267   3.099   1.174   6.998 -0.1100 -0.2024  0.3063
    3SAPS   HN1  268   3.042   1.244   7.049 -1.2797 -1.4078  0.6923
    3SAPS   HN2  269   3.201   1.189   7.012 -0.0111 -0.3305 -0.2509
    3SAPS   HN3  270   3.073   1.192   6.899 -1.4260  1.8710  0.9655
    3SAPS   C12  271   3.072   1.037   7.037  0.0788  0.1875 -0.3229
    3SAPS  H12A  272   3.126   1.017   7.128 -2.6767 -0.1083  1.3840
    3SAPS   C13  273   2.925   0.997   7.066  0.8430  0.1049 -0.2855
    3SAPS  O13A  274   2.844   1.085   7.065  0.0202 -0.7202  0.8632
    3SAPS  O13B  275   2.905   0.878   7.105 -0.5271 -0.0753  0.1707
    3SAPS   C11  276   3.109   0.947   6.912  0.8564 -0.5219  0.1767
    3SAPS  H11A  277   3.058   0.983   6.820  0.1726 -1.3196  0.2391
    3SAPS  H11B  278   3.071   0.845   6.931  0.1646 -0.4181 -0.5899
    3SAPS     P  279   3.349   1.030   6.848  0.2584  0.1450 -0.1788
    3SAPS   O13  280   3.359   1.140   6.944  0.0482 -0.5102  0.1323
    3SAPS   O14  281   3.475   0.956   6.820  0.4874 -0.1735  0.4043
    3SAPS   O12  282   3.250   0.927   6.907 -0.4047  1.0907 -0.2519
    3SAPS   O11  283   3.275   1.061   6.709 -0.3136 -0.1816 -0.5587
    3SAPS    C1  284   3.291   0.980   6.597  0.0414 -0.0305 -0.7851
    3SAPS    HA  285   3.314   0.874   6.620 -0.7440  0.2249  1.3830
    3SAPS    HB  286   3.194   0.987   6.542  0.5673  0.9080 -1.6308
    3SAPS    C2  287   3.391   1.023   6.487 -0.7712 -0.1708 -0.3344
    3SAPS    HS  288   3.491   1.031   6.535 -0.1736 -0.6203 -1.4635
    3SAPS   O21  289   3.343   1.148   6.417  0.3902 -0.0413  0.0882
    3SAPS   C21  290   3.361   1.265   6.482 -0.6092  0.5283  0.3851
    3SAPS   O22  291   3.418   1.281   6.586 -0.1880 -0.0406 -0.1341
    3SAPS   C22  292   3.288   1.372   6.407 -0.4676 -0.2091  0.2859
    3SAPS   H2R  293   3.234   1.428   6.487 -1.3686 -0.7732  0.0876
    3SAPS   H2S  294   3.354   1.433   6.341 -2.6378  0.2922 -1.5316
    3SAPS    C3  295   3.404   0.916   6.373  0.1592 -0.0512 -0.5559
    3SAPS    HX  296   3.310   0.932   6.315  0.6749 -1.4990 -1.8517
    3SAPS    HY  297   3.395   0.812   6.412 -2.8994 -0.8443 -2.9231
    3SAPS   O31  298   3.513   0.940   6.293  0.4718 -0.3779  0.2794
    3SAPS   C31  299   3.607   0.850   6.291 -0.1511 -1.0946  0.3533
    3SAPS   O32  300   3.598   0.739   6.339 -0.0883  0.6286 -0.2504
    3SAPS   C32  301   3.728   0.896   6.206  0.3925 -0.1357 -0.3119
    3SAPS   H2X  302   3.817   0.850   6.253  1.2289 -0.1461 -1.8671
    3SAPS   H2Y  303   3.729   1.007   6.211 -0.4219 -0.1748  1.1852
    3SAPS   C23  304   3.176   1.319   6.316 -0.2202  0.4205  0.6001
    3SAPS   H3R  305   3.119   1.246   6.377 -0.4221  0.4207  0.4122
    3SAPS   H3S  306   3.230   1.274   6.230  2.4678  1.9917  1.3373
    3SAPS   C24  307   3.084   1.429   6.259 -0.1261  0.8032 -0.5661
    3SAPS   H4R  308   3.142   1.494   6.190  0.6099  1.5641  0.7062
    3SAPS   H4S  309   3.060   1.494   6.346 -0.7379  0.0410 -0.1581
    3SAPS   C25  310   2.960   1.360   6.211 -0.1446  0.6253  0.2292
    3SAPS   H5R  311   2.923   1.271   6.265  0.4027  1.6469  2.3888
    3SAPS   C26  312   2.888   1.399   6.098 -0.0500  0.8128  0.3011
    3SAPS   H6R  313   2.801   1.346   6.060  0.5059 -0.0908  0.2675
    3SAPS   C27  314   2.940   1.514   6.003  0.0721  0.9899  0.0732
    3SAPS   H7R  315   3.020   1.468   5.942 -1.1606  0.1447 -0.9499
    3SAPS   H7S  316   2.980   1.594   6.070  1.1238  1.8312 -1.4898
    3SAPS   C28  317   2.821   1.558   5.924  0.1334  0.2476 -0.1125
    3SAPS   H8R  318   2.740   1.600   5.986  2.2528  2.7936  1.1767
    3SAPS   C29  319   2.802   1.540   5.797 -0.1775  0.5100  0.4864
    3SAPS   H9R  320   2.705   1.575   5.757 -0.1265  0.9332  0.7203
    3SAPS  C210  321   2.895   1.466   5.697  0.9446  0.1048 -0.1419
    3SAPS  H10R  322   2.842   1.405   5.621 -0.6759  2.3463 -0.9507
    3SAPS  H10S  323   2.949   1.386   5.751 -2.2673 -2.1924 -0.0523
    3SAPS  C211  324   2.996   1.559   5.633 -1.0809  0.6747 -0.4382
    3SAPS  H11R  325   3.098   1.561   5.674 -1.2853 -0.6401  0.2108
    3SAPS  C212  326   2.984   1.627   5.520 -0.1105 -0.3506 -1.0903
    3SAPS  H12R  327   3.079   1.658   5.473  0.8112 -0.7785  0.4216
    3SAPS  C213  328   2.857   1.634   5.440  0.3476 -0.0475 -0.4104
    3SAPS  H13R  329   2.792   1.545   5.456 -1.9453  1.6511  0.2074
    3SAPS  H13S  330   2.884   1.646   5.333  0.8745  1.0925 -0.1652
    3SAPS  C214  331   2.779   1.755   5.490 -0.2392  0.3143  0.3354
    3SAPS  H14R  332   2.798   1.804   5.587  1.1220  0.8577 -0.1906
    3SAPS  C215  333   2.695   1.821   5.405  0.1530 -0.2090 -0.1461
    3SAPS  H15R  334   2.643   1.911   5.441  0.9537  0.2726 -0.1703
    3SAPS  C216  335   2.661   1.776   5.267 -0.1204  0.5288 -0.7158
    3SAPS  H16R  336   2.552   1.774   5.246 -0.5455  2.1921  1.0807
    3SAPS  H16S  337   2.701   1.678   5.233  0.9451  1.1507 -1.3110
    3SAPS  C217  338   2.709   1.879   5.165 -0.9789 -0.2167  0.2746
    3SAPS  H17R  339   2.816   1.905   5.184 -1.4758  1.1473  1.3059
    3SAPS  H17S  340   2.653   1.974   5.178 -0.3262  0.5653 -2.0837
    3SAPS  C218  341   2.694   1.830   5.022  0.2454  0.3025 -0.1856
    3SAPS  H18R  342   2.588   1.840   4.993  0.1276 -0.0911  0.0909
    3SAPS  H18S  343   2.723   1.722   5.024  0.7387  0.3421 -2.3753
    3SAPS  C219  344   2.772   1.911   4.925 -0.3446 -1.0093  0.0664
    3SAPS  H19R  345   2.717   1.921   4.829 -2.1202 -0.4169  1.1063
    3SAPS  H19S  346   2.790   2.011   4.969 -0.4439 -1.3634  0.9343
    3SAPS  C220  347   2.908   1.844   4.887 -0.0343 -0.3835 -0.3839
    3SAPS  H20R  348   2.952   1.888   4.795 -2.3639  2.2575 -0.3861
    3SAPS  H20S  349   2.890   1.739   4.856  2.2136 -0.7664 -0.5133
    3SAPS  H20T  350   2.978   1.836   4.973 -2.9182 -1.1517  2.0892
    3SAPS   C33  351   3.717   0.843   6.062 -0.1607 -0.3520 -0.0585
    3SAPS   H3X  352   3.693   0.735   6.054  2.1388 -0.8485 -1.1188
    3SAPS   H3Y  353   3.817   0.864   6.017  0.2243 -1.7403  0.1179
    3SAPS   C34  354   3.610   0.916   5.989 -0.4617 -0.0776  0.5393
    3SAPS   H4X  355   3.633   1.024   5.981  1.7548 -0.5198  0.3662
    3SAPS   H4Y  356   3.507   0.909   6.030 -0.4630  2.1364  1.0581
    3SAPS   C35  357   3.595   0.872   5.839  0.4881  0.5291 -0.2007
    3SAPS   H5X  358   3.571   0.764   5.835  2.1775 -0.0489  2.4219
    3SAPS   H5Y  359   3.517   0.937   5.794 -0.9252 -1.0566 -0.1084
    3SAPS   C36  360   3.718   0.910   5.756  0.1417 -0.4931 -0.2197
    3SAPS   H6X  361   3.810   0.858   5.792 -0.3411 -0.8112  0.5975
    3SAPS   H6Y  362   3.745   1.018   5.763  0.5169 -0.5475 -0.7555
    3SAPS   C37  363   3.708   0.886   5.601  0.0080 -0.6798 -0.4940
    3SAPS   H7X  364   3.626   0.938   5.546  0.0611 -0.0076  0.0536
    3SAPS   H7Y  365   3.685   0.778   5.590  4.1040 -1.5441 -2.6179
    3SAPS   C38  366   3.838   0.916   5.522 -0.3556  0.2397  0.6050
    3SAPS   H8X  367   3.918   0.858   5.573 -1.3629 -1.9148 -0.1209
    3SAPS   H8Y  368   3.867   1.022   5.538  0.8030 -0.0735  0.7288
    3SAPS   C39  369   3.835   0.882   5.375 -0.5965 -0.3254 -0.3500
    3SAPS   H9X  370   3.902   0.945   5.313 -1.2318 -1.7113 -2.5543
    3SAPS   H9Y  371   3.732   0.901   5.337 -1.4630 -1.4514  1.2806
    3SAPS  C310  372   3.859   0.733   5.350 -0.3375 -0.0312  0.2063
    3SAPS  H10X  373   3.796   0.660   5.405 -0.5235 -0.6148 -0.7622
    3SAPS  H10Y  374   3.959   0.706   5.390 -0.3964  0.0499  0.4117
    3SAPS  C311  375   3.840   0.701   5.200  0.2682  0.0855  0.2367
    3SAPS  H11X  376   3.891   0.783   5.144  2.2918 -0.3584  1.2985
    3SAPS  H11Y  377   3.732   0.700   5.177  0.1411 -1.3357  0.8152
    3SAPS  C312  378   3.900   0.565   5.152  0.9013 -0.2693  0.6571
    3SAPS  H12X  379   3.882   0.477   5.218  0.7272  0.1149  1.1213
    3SAPS  H12Y  380   4.011   0.575   5.157  0.8508 -0.0910  1.4694
    3SAPS  C313  381   3.862   0.530   5.008  0.7515  0.1396  0.4532
    3SAPS  H13X  382   3.878   0.610   4.932  0.2829 -0.5692 -0.4072
    3SAPS  H13Y  383   3.751   0.526   5.006  0.7846 -0.7545 -0.0673
    3SAPS  C314  384   3.924   0.400   4.964  0.6187 -0.0238  0.0177
    3SAPS  H14X  385   4.034   0.411   4.953  1.0050 -0.6081  2.4817
    3SAPS  H14Y  386   3.879   0.370   4.867 -0.8958  2.4511 -0.1396
    3SAPS  C315  387   3.897   0.282   5.061  0.2382 -0.5104 -0.0025
    3SAPS  H15X  388   3.786   0.277   5.074 -0.0953  0.4431 -1.9772
    3SAPS  H15Y  389   3.947   0.298   5.159  0.7876 -1.4832 -0.1219
    3SAPS  C316  390   3.936   0.149   5.000  0.6898 -0.8095  0.8265
    3SAPS  H16X  391   4.046   0.133   5.003  0.8191 -0.4576 -1.0567
    3SAPS  H16Y  392   3.906   0.149   4.894 -0.1099 -2.4357  1.0126
    3SAPS  C317  393   3.867   0.034   5.073  0.7402 -0.0305  0.0592
    3SAPS  H17X  394   3.888   0.051   5.181  2.7058  2.7178 -0.6559
    3SAPS  H17Y  395   3.921  -0.057   5.038  1.4072 -0.5409  2.2711
    3SAPS  C318  396   3.709   0.007   5.056 -0.2997  0.6010  1.0197
    3SAPS  H18X  397   3.654   0.101   5.032  2.2300  2.3769  1.8357
    3SAPS  H18Y  398   3.664  -0.027   5.152  0.9278 -1.2411  0.9830
    3SAPS  H18Z  399   3.709  -0.064   4.970 -1.7924  2.6410 -0.7827
    4SAPS     N  400   6.337   0.840   6.571  0.4449  0.5278  0.3935
    4SAPS   HN1  401   6.413   0.850   6.501 -2.2594 -0.1147 -2.9022
    4SAPS   HN2  402   6.297   0.745   6.558 -1.0202  0.9803  1.3513
    4SAPS   HN3  403   6.255   0.904   6.565 -1.3043 -1.1329  3.7761
    4SAPS   C12  404   6.383   0.842   6.707  0.9503 -0.0072 -0.2347
    4SAPS  H12A  405   6.293   0.841   6.767  1.3292 -0.4345  0.3363
    4SAPS   C13  406   6.468   0.725   6.748  1.0497 -0.2364 -0.1915
    4SAPS  O13A  407   6.488   0.627   6.667 -0.2407 -0.4822  0.0804
    4SAPS  O13B  408   6.516   0.718   6.863  0.3847 -0.1118 -0.0598
    4SAPS   C11  409   6.459   0.964   6.740 -1.2629 -0.3397 -0.4035
    4SAPS  H11A  410   6.544   0.950   6.670 -0.2577 -2.6699  1.1530
    4SAPS  H11B  411   6.493   0.962   6.846  4.4079  0.1087 -1.8637
    4SAPS     P  412   6.479   1.223   6.716  0.3433 -0.3355  0.2105
    4SAPS   O13  413   6.390   1.328   6.770  0.1763  0.4813  0.8239
    4SAPS   O14  414   6.616   1.208   6.762 -0.1755  0.1840 -0.3137
    4SAPS   O12  415   6.389   1.090   6.718 -0.6431 -0.1914 -0.6729
    4SAPS   O11  416   6.486   1.230   6.558 -0.2557 -0.0589 -0.0607
    4SAPS    C1  417   6.539   1.351   6.495 -0.3649 -0.0510  0.7394
    4SAPS    HA  418   6.460   1.428   6.487  1.9001  2.3181 -0.2867
    4SAPS    HB  419   6.609   1.400   6.565 -1.1817  1.6952  0.3882
    4SAPS    C2  420   6.618   1.339   6.362 -0.0734 -0.5332  0.0885
    4SAPS    HS  421   6.680   1.424   6.329  0.1102 -1.1828 -1.3452
    4SAPS   O21  422   6.528   1.309   6.253 -0.1530 -0.0990 -0.1440
    4SAPS   C21  423   6.469   1.423   6.209 -0.2006 -0.3373 -0.1498
    4SAPS   O22  424   6.470   1.528   6.274  0.0891  0.0102 -0.1623
    4SAPS   C22  425   6.400   1.419   6.070 -0.1651  0.4077  0.2162
    4SAPS   H2R  426   6.289   1.419   6.075 -0.2223 -1.9961  0.4529
    4SAPS   H2S  427   6.437   1.513   6.023  1.4963  0.5560  1.7188
    4SAPS    C3  428   6.717   1.220   6.363 -0.4757  0.0290  0.1496
    4SAPS    HX  429   6.661   1.129   6.390  0.4586 -0.5326  0.2522
    4SAPS    HY  430   6.804   1.229   6.433 -0.4667  1.3924  0.0001
    4SAPS   O31  431   6.775   1.222   6.234 -0.2419  0.0369  0.4089
    4SAPS   C31  432   6.773   1.105   6.167 -0.3454  0.1521 -0.5156
    4SAPS   O32  433   6.736   0.997   6.213 -0.0243  0.1443  0.1231
    4SAPS   C32  434   6.792   1.143   6.025 -0.6385  0.1439  0.3165
    4SAPS   H2X  435   6.898   1.155   5.993 -1.2580  3.2063 -0.9502
    4SAPS   H2Y  436   6.757   1.245   5.998  0.6288  0.2654 -0.9969
    4SAPS   C23  437   6.429   1.291   5.984 -0.1768 -0.4498  0.2421
    4SAPS   H3R  438   6.414   1.196   6.041  1.6914 -0.5114  0.7197
    4SAPS   H3S  439   6.537   1.282   5.958 -0.5957  0.2498 -1.8757
    4SAPS   C24  440   6.348   1.285   5.853 -0.4196 -0.1051 -0.5937
    4SAPS   H4R  441   6.239   1.284   5.877 -0.5082  1.2264 -0.9035
    4SAPS   H4S  442   6.375   1.187   5.808  2.5503 -0.6027  1.9248
    4SAPS   C25  443   6.375   1.393   5.752 -0.1952  0.5082  0.3195
    4SAPS   H5R  444   6.445   1.470   5.787  0.5297  0.6191 -1.2846
    4SAPS   C26  445   6.314   1.410   5.630 -0.3032 -0.0613  0.0510
    4SAPS   H6R  446   6.339   1.501   5.574  1.9577 -0.4901  0.2861
    4SAPS   C27  447   6.207   1.321   5.581 -0.0460 -0.1672  0.5508
    4SAPS   H7R  448   6.116   1.373   5.544  0.7587  0.6073 -0.3859
    4SAPS   H7S  449   6.169   1.265   5.669 -2.2415  0.9608  0.3887
    4SAPS   C28  450   6.263   1.226   5.478 -0.1261  0.0617 -0.3649
    4SAPS   H8R  451   6.339   1.154   5.513 -1.1143 -0.7852  0.1132
    4SAPS   C29  452   6.230   1.212   5.349  0.5879  0.1940  0.2529
    4SAPS   H9R  453   6.292   1.140   5.292  1.1150  1.5585 -0.9854
    4SAPS  C210  454   6.120   1.289   5.278  0.1986  0.5395  0.8954
    4SAPS  H10R  455   6.147   1.392   5.245 -0.6541  1.0967  1.8885
    4SAPS  H10S  456   6.034   1.298   5.348 -0.5085  2.2666 -0.1221
    4SAPS  C211  457   6.077   1.209   5.150 -0.4461 -0.2355  0.1039
    4SAPS  H11R  458   6.013   1.123   5.176 -0.3534 -0.1691  0.5542
    4SAPS  C212  459   6.127   1.222   5.021  0.1314 -0.0606 -0.4331
    4SAPS  H12R  460   6.107   1.145   4.946  3.2338 -0.8177 -0.6262
    4SAPS  C213  461   6.214   1.334   4.978  0.1486 -0.1114 -0.4808
    4SAPS  H13R  462   6.200   1.423   5.042 -0.9333 -0.1970 -0.5810
    4SAPS  H13S  463   6.175   1.376   4.883 -1.3628  0.8504  0.5356
    4SAPS  C214  464   6.354   1.278   4.970 -0.4662 -0.4501 -0.2422
    4SAPS  H14R  465   6.405   1.309   5.062 -0.7620  0.7551 -0.4751
    4SAPS  C215  466   6.415   1.197   4.876  0.4317 -0.7848  0.1257
    4SAPS  H15R  467   6.514   1.152   4.889  0.4620 -0.5434  0.8113
    4SAPS  C216  468   6.350   1.142   4.748  0.5608 -0.0809 -0.4330
    4SAPS  H16R  469   6.422   1.124   4.665 -0.3408 -0.8546 -1.0739
    4SAPS  H16S  470   6.281   1.212   4.696 -0.9160 -1.3563 -0.2907
    4SAPS  C217  471   6.271   1.006   4.751  0.0577 -0.2537  0.3693
    4SAPS  H17R  472   6.174   1.032   4.799 -0.1064 -1.4907  0.7437
    4SAPS  H17S  473   6.319   0.924   4.808 -0.3874 -0.1041  0.9726
    4SAPS  C218  474   6.260   0.957   4.605 -0.0879 -0.7661 -0.4537
    4SAPS  H18R  475   6.262   1.044   4.536  0.6464 -1.6954 -1.6355
    4SAPS  H18S  476   6.158   0.916   4.585 -1.3846  1.8045  0.3142
    4SAPS  C219  477   6.361   0.859   4.560 -0.3391  0.7689 -0.1801
    4SAPS  H19R  478   6.365   0.778   4.636 -0.0472  1.9806  1.1443
    4SAPS  H19S  479   6.459   0.911   4.571 -0.2998  0.5503  0.5389
    4SAPS  C220  480   6.342   0.814   4.411  0.3944 -0.0340 -0.3207
    4SAPS  H20R  481   6.417   0.739   4.380  2.2322  1.3640  0.5730
    4SAPS  H20S  482   6.344   0.907   4.351  1.3909  0.0467 -0.1817
    4SAPS  H20T  483   6.241   0.768   4.402  0.7291 -1.1113  1.0192
    4SAPS   C33  484   6.711   1.053   5.932 -0.2339 -0.1398 -0.5835
    4SAPS   H3X  485   6.605   1.058   5.967  0.6691  0.0860  2.4001
    4SAPS   H3Y  486   6.747   0.949   5.937  2.2188  0.6716 -0.1879
    4SAPS   C34  487   6.736   1.092   5.779 -0.3815  0.1152 -1.1307
    4SAPS   H4X  488   6.838   1.071   5.743 -0.0094  1.7918 -1.1524
    4SAPS   H4Y  489   6.723   1.201   5.763  1.7408  0.4403 -0.8606
    4SAPS   C35  490   6.641   1.016   5.678 -0.2718 -0.3149 -0.2175
    4SAPS   H5X  491   6.555   0.971   5.731  0.2914 -1.5323 -0.3161
    4SAPS   H5Y  492   6.697   0.939   5.622  0.0187  0.3829 -0.9150
    4SAPS   C36  493   6.597   1.104   5.567 -0.0765  0.5024  0.3516
    4SAPS   H6X  494   6.537   1.191   5.599 -0.6069  1.2362 -2.3943
    4SAPS   H6Y  495   6.521   1.046   5.510 -2.1769  1.2086  2.3366
    4SAPS   C37  496   6.708   1.156   5.475 -0.0575  1.0491  0.2397
    4SAPS   H7X  497   6.774   1.072   5.446  0.5488  1.7113 -0.3020
    4SAPS   H7Y  498   6.771   1.222   5.539  0.2049 -0.0799  1.1819
    4SAPS   C38  499   6.651   1.232   5.356  0.1047 -0.1030 -0.4795
    4SAPS   H8X  500   6.604   1.327   5.388  0.5544  0.0587 -0.2828
    4SAPS   H8Y  501   6.570   1.175   5.305  2.2974 -2.2266 -1.8406
    4SAPS   C39  502   6.753   1.250   5.249 -0.7033  0.0093  0.1299
    4SAPS   H9X  503   6.808   1.155   5.232  1.0617  1.0882 -0.5059
    4SAPS   H9Y  504   6.822   1.324   5.293 -0.6310  0.7292 -1.1475
    4SAPS  C310  505   6.703   1.301   5.116 -0.0555 -0.1137 -0.8989
    4SAPS  H10X  506   6.638   1.386   5.143 -0.0414  0.0213 -1.2787
    4SAPS  H10Y  507   6.652   1.219   5.060  0.2731  0.2973 -1.8325
    4SAPS  C311  508   6.805   1.356   5.018  0.5415 -0.5414 -0.2735
    4SAPS  H11X  509   6.893   1.289   5.019 -0.2972 -1.6685 -0.1165
    4SAPS  H11Y  510   6.840   1.457   5.050  2.1365 -1.3028  0.4792
    4SAPS  C312  511   6.747   1.367   4.870  0.3283  0.3632 -0.7434
    4SAPS  H12X  512   6.640   1.396   4.877 -0.1666 -1.4183 -0.2285
    4SAPS  H12Y  513   6.743   1.263   4.832 -2.2105  0.0846  0.0560
    4SAPS  C313  514   6.820   1.449   4.771 -0.1493  0.1477  0.6792
    4SAPS  H13X  515   6.919   1.407   4.741  1.0198  1.3097  2.6797
    4SAPS  H13Y  516   6.848   1.545   4.819  1.3694  0.8089 -1.3542
    4SAPS  C314  517   6.736   1.483   4.643  0.1373 -0.4584  0.4260
    4SAPS  H14X  518   6.645   1.541   4.670  0.4669  0.6157 -0.6571
    4SAPS  H14Y  519   6.705   1.384   4.603 -0.0116 -0.0623 -0.4666
    4SAPS  C315  520   6.811   1.553   4.528  0.3313  0.6977  0.2406
    4SAPS  H15X  521   6.875   1.618   4.590 -0.3741  1.3564  0.2912
    4SAPS  H15Y  522   6.743   1.615   4.466 -0.0358 -0.7597 -0.8679
    4SAPS  C316  523   6.896   1.458   4.430 -0.5961  0.2730  0.6813
    4SAPS  H16X  524   6.824   1.407   4.363  0.2179  1.1242 -0.8926
    4SAPS  H16Y  525   6.949   1.380   4.489  2.8571 -1.0639 -3.6223
    4SAPS  C317  526   6.994   1.538   4.350 -0.1037 -0.8266  0.3676
    4SAPS  H17X  527   7.077   1.476   4.312  1.7986  1.3853  0.6853
    4SAPS  H17Y  528   7.043   1.602   4.427 -1.9335 -1.2156  1.9521
    4SAPS  C318  529   6.923   1.616   4.236 -0.3286  0.3550  0.3050
    4SAPS  H18X  530   6.876   1.536   4.175  0.9912 -1.2449  1.2864
    4SAPS  H18Y  531   6.993   1.680   4.177  0.2905 -0.6118 -0.0376
    4SAPS  H18Z  532   6.833   1.673   4.265 -1.8075  0.0468 -3.2191
    5SAPS     N  533   4.732   1.936   6.696  0.1185  0.8193  0.2998
    5SAPS   HN1  534   4.818   1.994   6.705  0.1151  0.8450  0.1668
    5SAPS   HN2  535   4.742   1.852   6.636 -0.9812  1.2739 -0.5671
    5SAPS   HN3  536   4.661   1.991   6.643  1.0580  0.5026 -1.3477
    5SAPS   C12  537   4.697   1.888   6.835 -0.7506  0.2871 -0.5181
    5SAPS  H12A  538   4.640   1.797   6.825  0.0962 -0.1868 -1.1097
    5SAPS   C13  539   4.821   1.847   6.917 -0.1429  0.4475  0.4488
    5SAPS  O13A  540   4.933   1.859   6.874  0.3368 -0.6850  0.5062
    5SAPS  O13B  541   4.803   1.797   7.035 -0.1578  0.2023 -0.1274
    5SAPS   C11  542   4.622   1.996   6.915  0.2811  0.3527  0.4522
    5SAPS  H11A  543   4.663   2.098   6.901 -0.9944  0.9017  0.5391
    5SAPS  H11B  544   4.621   1.966   7.022 -3.7223 -0.9974  0.2034
    5SAPS     P  545   4.349   2.022   6.946  0.3143 -0.1759  0.0600
    5SAPS   O13  546   4.289   1.888   6.981 -0.1396 -0.4070 -0.0048
    5SAPS   O14  547   4.380   2.110   7.062  0.7473 -0.5010  0.1782
    5SAPS   O12  548   4.489   1.999   6.865 -0.0564 -0.0798  0.2652
    5SAPS   O11  549   4.263   2.098   6.844  0.4792 -0.0542  0.3772
    5SAPS    C1  550   4.278   2.082   6.703 -0.2591  0.0703  0.2889
    5SAPS    HA  551   4.306   1.977   6.678  0.4719  0.2307  0.4062
    5SAPS    HB  552   4.177   2.087   6.658 -0.6135  1.0388  1.1613
    5SAPS    C2  553   4.369   2.184   6.642  0.5071  1.0267  0.5496
    5SAPS    HS  554   4.469   2.150   6.677  0.0972 -0.1424  0.6143
    5SAPS   O21  555   4.340   2.312   6.690  0.5099  0.0420  0.0345
    5SAPS   C21  556   4.433   2.400   6.706  0.2410 -1.0893 -0.4759
    5SAPS   O22  557   4.551   2.382   6.684 -0.2303 -0.3994  0.1016
    5SAPS   C22  558   4.371   2.541   6.740 -0.3598  0.3783  0.4160
    5SAPS   H2R  559   4.269   2.549   6.697 -1.0039  0.0933  1.8106
    5SAPS   H2S  560   4.364   2.547   6.851 -1.0846  1.1393  0.3362
    5SAPS    C3  561   4.362   2.187   6.481 -0.2600 -0.0349 -0.2497
    5SAPS    HX  562   4.278   2.254   6.454  0.4089  0.7938 -0.3201
    5SAPS    HY  563   4.349   2.081   6.450 -0.9193  0.4480 -1.7134
    5SAPS   O31  564   4.480   2.239   6.418 -0.0092  0.2187 -0.1489
    5SAPS   C31  565   4.594   2.172   6.426 -0.0701  1.1751 -1.1460
    5SAPS   O32  566   4.616   2.063   6.480  0.4883 -0.7036  0.1849
    5SAPS   C32  567   4.702   2.259   6.355 -0.4762 -0.3504 -0.1254
    5SAPS   H2X  568   4.720   2.333   6.435  0.2031 -1.2180  0.5389
    5SAPS   H2Y  569   4.653   2.304   6.266  0.9563  3.0816  0.6636
    5SAPS   C23  570   4.466   2.659   6.700  0.0137 -0.0554  0.0288
    5SAPS   H3R  571   4.567   2.648   6.745  1.0045  0.9283 -1.8764
    5SAPS   H3S  572   4.427   2.746   6.757  1.6078 -0.6408  2.1780
    5SAPS   C24  573   4.479   2.688   6.552  0.4433 -0.1050  0.1112
    5SAPS   H4R  574   4.533   2.605   6.501  0.0864 -0.6466  0.6005
    5SAPS   H4S  575   4.537   2.782   6.543 -3.2132  2.3345 -0.0569
    5SAPS   C25  576   4.345   2.717   6.484 -0.4348  0.0572 -0.0089
    5SAPS   H5R  577   4.270   2.772   6.544 -0.7378 -1.0057  0.6057
    5SAPS   C26  578   4.299   2.666   6.366 -0.0987  0.1568 -0.1612
    5SAPS   H6R  579   4.202   2.690   6.322  0.6474  0.1834 -1.8963
    5SAPS   C27  580   4.373   2.570   6.277 -0.7878  0.0022  0.8054
    5SAPS   H7R  581   4.423   2.493   6.340  1.2569 -1.8867 -2.8200
    5SAPS   H7S  582   4.443   2.628   6.213 -0.3062 -0.1942  1.1472
    5SAPS   C28  583   4.289   2.488   6.185 -0.4397 -0.2292  0.3996
    5SAPS   H8R  584   4.193   2.459   6.232 -0.3364 -0.1634  0.6565
    5SAPS   C29  585   4.311   2.459   6.054 -0.6554 -0.0140 -0.2768
    5SAPS   H9R  586   4.230   2.411   5.997 -2.0870  0.0162  1.6411
    5SAPS  C210  587   4.440   2.483   5.981  0.3961  0.3665 -0.4523
    5SAPS  H10R  588   4.524   2.493   6.052  0.2037  0.5369 -0.2435
    5SAPS  H10S  589   4.415   2.584   5.940 -2.3336 -0.0010  0.0602
    5SAPS  C211  590   4.483   2.393   5.874 -0.1231  0.5400  0.4488
    5SAPS  H11R  591   4.493   2.451   5.781  1.7517 -0.8499 -0.2852
    5SAPS  C212  592   4.501   2.255   5.872  0.4582  0.7702 -0.0199
    5SAPS  H12R  593   4.532   2.210   5.777 -0.2405  2.0960 -0.8998
    5SAPS  C213  594   4.484   2.168   5.997  0.5537  0.0062  0.0310
    5SAPS  H13R  595   4.381   2.180   6.037 -0.4312  2.2944 -2.7781
    5SAPS  H13S  596   4.544   2.222   6.073  3.0736 -0.3097 -1.6139
    5SAPS  C214  597   4.525   2.016   5.989  1.1672  0.3357  0.6223
    5SAPS  H14R  598   4.607   1.993   6.059  1.9018  2.1329  0.3977
    5SAPS  C215  599   4.485   1.930   5.893  0.3512  0.1271 -0.0848
    5SAPS  H15R  600   4.515   1.825   5.904 -0.0510  0.1655  1.6512
    5SAPS  C216  601   4.376   1.953   5.799  0.5651 -0.5453 -0.5284
    5SAPS  H16R  602   4.336   2.056   5.814  1.3357 -0.0248 -1.9298
    5SAPS  H16S  603   4.301   1.874   5.820  2.1169 -1.5745  1.5351
    5SAPS  C217  604   4.413   1.947   5.642 -0.1444  0.2514 -0.7003
    5SAPS  H17R  605   4.485   1.864   5.628 -1.1966 -0.8406  0.1834
    5SAPS  H17S  606   4.478   2.035   5.622  0.3514 -0.1933 -1.0589
    5SAPS  C218  607   4.298   1.927   5.539 -0.5947  0.5703  0.1074
    5SAPS  H18R  608   4.232   1.853   5.589 -0.9569 -0.3221 -1.6190
    5SAPS  H18S  609   4.336   1.876   5.448 -0.4942  1.8379 -0.5891
    5SAPS  C219  610   4.219   2.050   5.491  0.0976  0.9517 -0.8134
    5SAPS  H19R  611   4.171   2.088   5.584 -0.2663  2.0146 -1.4123
    5SAPS  H19S  612   4.146   2.025   5.411 -1.6200 -1.8747  1.4413
    5SAPS  C220  613   4.316   2.159   5.445 -0.1736 -0.6986  0.0341
    5SAPS  H20R  614   4.270   2.250   5.400  2.0084 -0.0571 -1.0253
    5SAPS  H20S  615   4.383   2.110   5.372  0.5623 -0.5555  0.6058
    5SAPS  H20T  616   4.376   2.196   5.531 -0.1013 -0.6194 -0.0507
    5SAPS   C33  617   4.830   2.182   6.308 -0.4761 -0.5415 -0.3024
    5SAPS   H3X  618   4.818   2.105   6.229  2.0112 -1.1271 -0.2008
    5SAPS   H3Y  619   4.861   2.133   6.403 -0.4430 -0.6805 -0.3853
    5SAPS   C34  620   4.947   2.280   6.271 -0.4518  0.4687 -0.4361
    5SAPS   H4X  621   5.033   2.211   6.255 -1.4916 -1.1587  0.6015
    5SAPS   H4Y  622   4.971   2.327   6.369 -0.4230  0.4857 -0.4511
    5SAPS   C35  623   4.931   2.368   6.155 -0.0286 -0.0979 -0.8087
    5SAPS   H5X  624   5.027   2.422   6.143  1.0783 -1.7478  0.3281
    5SAPS   H5Y  625   4.854   2.445   6.177 -2.3401 -1.9025 -2.1506
    5SAPS   C36  626   4.891   2.304   6.020  0.1207  0.0704  0.2403
    5SAPS   H6X  627   4.782   2.281   6.012  0.4651 -1.9741  0.8492
    5SAPS   H6Y  628   4.937   2.204   6.006  0.0669  0.0658  0.0969
    5SAPS   C37  629   4.927   2.401   5.911 -0.0293 -0.3507 -0.0672
    5SAPS   H7X  630   5.036   2.424   5.913 -0.1312  0.2695 -0.9058
    5SAPS   H7Y  631   4.869   2.493   5.935  0.7997  0.9870 -2.8055
    5SAPS   C38  632   4.888   2.341   5.778  0.2003 -0.7045  0.5928
    5SAPS   H8X  633   4.777   2.327   5.776 -0.0882  1.0983  1.5052
    5SAPS   H8Y  634   4.943   2.250   5.745 -0.0268 -0.7296  0.2703
    5SAPS   C39  635   4.917   2.444   5.673  0.1710  0.0215  0.3460
    5SAPS   H9X  636   5.028   2.442   5.665  0.3930 -0.7965  2.6694
    5SAPS   H9Y  637   4.871   2.541   5.703 -2.3219 -0.4193 -1.7006
    5SAPS  C310  638   4.855   2.430   5.538  0.8210  0.5767 -0.1016
    5SAPS  H10X  639   4.745   2.423   5.552  0.7356  0.0339 -0.9666
    5SAPS  H10Y  640   4.885   2.338   5.483 -0.6618 -0.3579  0.5775
    5SAPS  C311  641   4.887   2.551   5.452  0.2239 -0.3436 -0.4460
    5SAPS  H11X  642   4.999   2.552   5.452  0.2531 -1.0801  0.9986
    5SAPS  H11Y  643   4.865   2.653   5.491  1.2708 -0.4625  0.5295
    5SAPS  C312  644   4.822   2.550   5.314 -0.2111 -0.1042  0.0691
    5SAPS  H12X  645   4.714   2.576   5.308  0.1117  0.9807 -1.6200
    5SAPS  H12Y  646   4.820   2.445   5.277 -0.3643 -0.6980  1.7007
    5SAPS  C313  647   4.899   2.622   5.213 -0.1336 -0.3240 -0.0553
    5SAPS  H13X  648   4.993   2.564   5.206 -1.6736 -2.8263 -1.2158
    5SAPS  H13Y  649   4.904   2.720   5.265 -3.5973 -1.1904  2.2607
    5SAPS  C314  650   4.831   2.628   5.072  0.1167  0.3263 -0.6988
    5SAPS  H14X  651   4.744   2.698   5.068  0.0044  0.1105 -3.0347
    5SAPS  H14Y  652   4.794   2.528   5.041 -1.9936 -0.1651  2.8004
    5SAPS  C315  653   4.920   2.677   4.957 -0.1682  0.2743 -0.0333
    5SAPS  H15X  654   4.875   2.637   4.864  0.6598 -2.3157  0.5934
    5SAPS  H15Y  655   5.018   2.626   4.972 -0.5577 -0.4756 -0.0078
    5SAPS  C316  656   4.930   2.827   4.952 -0.6657  0.0163  0.7094
    5SAPS  H16X  657   4.996   2.866   5.032 -4.5737  3.2545  2.6989
    5SAPS  H16Y  658   4.825   2.863   4.959 -1.1407 -1.0815 -0.2878
    5SAPS  C317  659   4.982   2.869   4.810  0.0419 -0.1994 -0.7197
    5SAPS  H17X  660   4.965   2.979   4.809  1.0708  0.0148  0.9968
    5SAPS  H17Y  661   4.902   2.830   4.744 -0.9571 -0.4629  0.6143
    5SAPS  C318  662   5.124   2.819   4.778 -0.0669  0.2717  0.1817
    5SAPS  H18X  663   5.152   2.830   4.671  1.6187 -0.5487  0.5052
    5SAPS  H18Y  664   5.124   2.710   4.797 -0.5784 -0.0558 -1.5883
    5SAPS  H18Z  665   5.198   2.875   4.839  1.3417 -0.4289 -0.8198
    6SAPS     N  666   0.472   2.126   6.836  0.1135 -0.2794 -0.1177
    6SAPS   HN1  667   0.548   2.181   6.790 -1.9609  0.8140 -2.4785
    6SAPS   HN2  668   0.527   2.082   6.912  2.8484  4.0635  0.8014
    6SAPS   HN3  669   0.427   2.058   6.772 -0.8559 -0.4115  0.6757
    6SAPS   C12  670   0.375   2.220   6.904  0.0828 -0.2712 -0.0704
    6SAPS  H12A  671   0.305   2.257   6.831 -0.9148  0.2969  1.1371
    6SAPS   C13  672   0.294   2.139   7.007  0.5271  0.1238  0.2216
    6SAPS  O13A  673   0.355   2.053   7.074 -0.1161 -0.7044  0.1150
    6SAPS  O13B  674   0.186   2.195   7.039 -0.3546 -0.1333  0.4188
    6SAPS   C11  675   0.453   2.333   6.975  0.2229 -0.1815 -0.2187
    6SAPS  H11A  676   0.527   2.292   7.047 -0.2350 -1.5703 -0.5141
    6SAPS  H11B  677   0.372   2.385   7.031 -0.6414 -1.0633 -0.6173
    6SAPS     P  678   0.647   2.428   6.813 -0.2134 -0.2523  0.5550
    6SAPS   O13  679   0.743   2.477   6.911  0.6396 -0.6426  0.3385
    6SAPS   O14  680   0.675   2.295   6.749  0.0219 -0.1944  0.0421
    6SAPS   O12  681   0.507   2.428   6.877  0.1861  0.2014 -0.5526
    6SAPS   O11  682   0.629   2.552   6.711 -0.4488 -0.4278  0.3741
    6SAPS    C1  683   0.586   2.517   6.580  0.4770 -0.0444 -0.0909
    6SAPS    HA  684   0.629   2.594   6.513 -0.2550 -0.5571 -1.1712
    6SAPS    HB  685   0.609   2.411   6.553 -2.8623 -0.8426 -0.1825
    6SAPS    C2  686   0.438   2.528   6.565  0.2237  0.1213  0.7570
    6SAPS    HS  687   0.391   2.444   6.621 -4.5336  1.6186 -0.5318
    6SAPS   O21  688   0.409   2.520   6.426  0.1524 -0.2165 -0.2210
    6SAPS   C21  689   0.290   2.480   6.401 -0.0411 -0.5954 -0.1401
    6SAPS   O22  690   0.194   2.475   6.478 -0.4774  0.0474 -0.5184
    6SAPS   C22  691   0.280   2.444   6.250  0.1410 -0.1252  0.0344
    6SAPS   H2R  692   0.381   2.423   6.209  0.4205 -1.3395  1.2958
    6SAPS   H2S  693   0.213   2.356   6.235  0.9213 -0.6898 -0.1878
    6SAPS    C3  694   0.378   2.654   6.635 -0.0081  0.6556  0.1735
    6SAPS    HX  695   0.406   2.652   6.743  0.8792  1.0999 -0.0398
    6SAPS    HY  696   0.267   2.643   6.633 -0.2157  1.8446  2.1640
    6SAPS   O31  697   0.438   2.777   6.580 -0.2459  0.5869  0.5960
    6SAPS   C31  698   0.352   2.865   6.530  0.0075 -0.5842 -0.0024
    6SAPS   O32  699   0.229   2.859   6.536 -0.0012 -0.1884 -0.4670
    6SAPS   C32  700   0.433   2.970   6.461  0.3279 -0.6772 -0.9152
    6SAPS   H2X  701   0.500   3.025   6.530 -1.2203 -0.0671  0.1728
    6SAPS   H2Y  702   0.372   3.056   6.426  0.1785 -0.3203  0.1585
    6SAPS   C23  703   0.240   2.570   6.166  0.4416 -0.3663 -0.0680
    6SAPS   H3R  704   0.234   2.534   6.061 -0.2106 -1.7408  0.4140
    6SAPS   H3S  705   0.313   2.654   6.167  0.9686 -0.8262  0.4932
    6SAPS   C24  706   0.097   2.628   6.197 -0.9248 -0.4603 -0.1252
    6SAPS   H4R  707   0.086   2.649   6.306  1.2146  1.4263 -0.2141
    6SAPS   H4S  708   0.021   2.560   6.153 -1.4265 -0.1419  0.2424
    6SAPS   C25  709   0.081   2.760   6.124 -0.8747  0.0856 -0.9378
    6SAPS   H5R  710   0.114   2.843   6.188  2.5673 -2.8293  1.4971
    6SAPS   C26  711   0.053   2.786   5.996  0.2241 -0.2375  0.2404
    6SAPS   H6R  712   0.059   2.888   5.955  1.5405 -0.7408 -0.8969
    6SAPS   C27  713   0.032   2.681   5.888 -0.0873 -0.7354  0.0268
    6SAPS   H7R  714  -0.077   2.670   5.868  0.2467 -3.3222 -0.7726
    6SAPS   H7S  715   0.064   2.578   5.915  0.4265 -0.5624  0.0850
    6SAPS   C28  716   0.103   2.714   5.756 -0.2212 -0.2498  0.2103
    6SAPS   H8R  717   0.208   2.684   5.741 -0.2651 -0.6825  0.7101
    6SAPS   C29  718   0.052   2.782   5.646  0.4153  0.7547 -0.8463
    6SAPS   H9R  719   0.110   2.799   5.554 -3.2399 -0.1974 -3.5438
    6SAPS  C210  720  -0.088   2.834   5.639  0.1787  0.5824 -0.2802
    6SAPS  H10R  721  -0.141   2.831   5.737 -2.6553  1.0963 -1.6952
    6SAPS  H10S  722  -0.155   2.782   5.568  2.1050  0.5096 -2.1590
    6SAPS  C211  723  -0.079   2.980   5.611  0.1088 -0.4480 -0.3712
    6SAPS  H11R  724  -0.054   3.040   5.699 -0.6640 -0.5467 -0.0715
    6SAPS  C212  725  -0.071   3.033   5.483  0.1333  0.3369 -0.2553
    6SAPS  H12R  726  -0.048   3.140   5.469 -0.7757  0.3419 -1.9291
    6SAPS  C213  727  -0.101   2.947   5.364  0.3526 -0.6206  0.1287
    6SAPS  H13R  728  -0.206   2.920   5.391 -0.8988  1.8005 -1.8961
    6SAPS  H13S  729  -0.047   2.850   5.369 -3.2551 -2.7552  2.4096
    6SAPS  C214  730  -0.102   3.022   5.230  0.5196  0.5454  0.2939
    6SAPS  H14R  731  -0.164   3.113   5.236 -0.6667 -0.0713 -1.6511
    6SAPS  C215  732  -0.045   2.987   5.114 -0.2339 -0.0250 -0.1120
    6SAPS  H15R  733  -0.065   3.043   5.021 -0.2009  0.1502 -0.0143
    6SAPS  C216  734   0.040   2.862   5.092  0.0783  0.0261  0.3206
    6SAPS  H16R  735  -0.021   2.790   5.033  2.5007  0.7835 -3.4240
    6SAPS  H16S  736   0.050   2.814   5.192  2.3573  0.9018  0.5678
    6SAPS  C217  737   0.168   2.881   5.017 -1.3821  0.4130  0.8843
    6SAPS  H17R  738   0.243   2.816   5.068  1.2739  0.5134 -2.5199
    6SAPS  H17S  739   0.216   2.980   5.035  1.6801 -1.0299  1.3987
    6SAPS  C218  740   0.151   2.850   4.867  0.3591 -0.0778  0.7106
    6SAPS  H18R  741   0.105   2.749   4.854  0.2598 -0.0425  0.7886
    6SAPS  H18S  742   0.252   2.852   4.821 -1.1029 -1.2537 -2.9759
    6SAPS  C219  743   0.057   2.951   4.795 -0.2139 -0.2080 -0.2694
    6SAPS  H19R  744   0.072   3.049   4.845 -0.8338  0.3883 -1.2200
    6SAPS  H19S  745  -0.049   2.919   4.803  0.1503 -2.3313 -2.4921
    6SAPS  C220  746   0.089   2.968   4.648  0.5071 -0.2388  0.1417
    6SAPS  H20R  747   0.067   3.069   4.605 -2.2043 -0.6065  0.5022
    6SAPS  H20S  748   0.032   2.893   4.590  1.9844 -1.3292  0.0286
    6SAPS  H20T  749   0.198   2.958   4.628  0.0939  0.0298 -2.5250
    6SAPS   C33  750   0.516   2.911   6.344  0.2453  0.1931 -0.3422
    6SAPS   H3X  751   0.537   2.803   6.361 -0.3590  0.2925  1.2042
    6SAPS   H3Y  752   0.613   2.965   6.343  0.7176 -0.6356 -1.0913
    6SAPS   C34  753   0.438   2.950   6.214  0.1268 -0.3100 -0.2608
    6SAPS   H4X  754   0.412   3.058   6.218 -1.3317 -0.5077 -2.7296
    6SAPS   H4Y  755   0.337   2.906   6.226  0.6238 -1.3945  0.0040
    6SAPS   C35  756   0.505   2.914   6.087  0.7376  0.2022 -0.8073
    6SAPS   H5X  757   0.528   2.808   6.067 -0.2959 -0.2435  0.2510
    6SAPS   H5Y  758   0.595   2.979   6.094  0.0536  1.3153 -1.8454
    6SAPS   C36  759   0.418   2.965   5.968  0.2290 -0.8621  1.0972
    6SAPS   H6X  760   0.389   3.070   5.986 -0.2487 -0.5140 -1.3481
    6SAPS   H6Y  761   0.328   2.900   5.977  0.0260 -0.8169 -0.3364
    6SAPS   C37  762   0.474   2.941   5.826  0.1338  0.2798  0.6886
    6SAPS   H7X  763   0.459   2.837   5.791  0.1523  0.8104 -0.9903
    6SAPS   H7Y  764   0.580   2.976   5.825  0.0692  0.5084  1.3241
    6SAPS   C38  765   0.398   3.028   5.723  0.3297 -0.0373 -0.3629
    6SAPS   H8X  766   0.397   3.135   5.751  2.7320  0.0991 -0.5528
    6SAPS   H8Y  767   0.290   3.003   5.732  0.2210  1.0671  1.8207
    6SAPS   C39  768   0.424   3.003   5.578  0.8688 -0.6855 -0.2241
    6SAPS   H9X  769   0.402   2.898   5.548  0.5331 -0.7260  0.1558
    6SAPS   H9Y  770   0.535   3.012   5.578  0.8970 -0.5662  1.8527
    6SAPS  C310  771   0.344   3.099   5.482  0.4940 -0.7885 -0.4898
    6SAPS  H10X  772   0.382   3.198   5.515 -1.3000 -0.5798  1.0817
    6SAPS  H10Y  773   0.237   3.080   5.502  0.3228  1.2564  0.8461
    6SAPS  C311  774   0.389   3.077   5.339 -0.1604  0.3777 -0.1522
    6SAPS  H11X  775   0.352   2.984   5.290  0.0781 -0.3671  1.0321
    6SAPS  H11Y  776   0.500   3.080   5.342 -0.1789  0.8841  0.0908
    6SAPS  C312  777   0.353   3.187   5.233  0.0327 -0.2388  0.2573
    6SAPS  H12X  778   0.379   3.285   5.278  2.7697 -0.6663 -0.2160
    6SAPS  H12Y  779   0.244   3.165   5.233  0.2523 -1.5921  2.0529
    6SAPS  C313  780   0.428   3.187   5.096  0.6394 -0.5893 -0.2969
    6SAPS  H13X  781   0.410   3.095   5.037  1.5719 -1.0366  0.0934
    6SAPS  H13Y  782   0.538   3.188   5.113  0.6654  0.7201 -0.4762
    6SAPS  C314  783   0.389   3.305   5.011  0.1719  0.3080  0.8035
    6SAPS  H14X  784   0.447   3.307   4.916 -1.0691 -2.8211 -0.1602
    6SAPS  H14Y  785   0.423   3.401   5.054  3.3826  1.0109 -2.7223
    6SAPS  C315  786   0.237   3.310   4.986  0.5738  0.4235  0.0460
    6SAPS  H15X  787   0.185   3.328   5.083 -1.3771  1.1796 -1.0805
    6SAPS  H15Y  788   0.196   3.220   4.935 -0.2981  1.7556 -1.7427
    6SAPS  C316  789   0.212   3.433   4.898  0.9957  0.3160  0.1275
    6SAPS  H16X  790   0.255   3.524   4.943  0.1266  0.0655  1.5171
    6SAPS  H16Y  791   0.103   3.456   4.896  1.4173  2.4106 -0.7074
    6SAPS  C317  792   0.242   3.417   4.747 -0.4503 -0.6352 -0.2821
    6SAPS  H17X  793   0.166   3.346   4.707  0.1834 -2.3141  1.3617
    6SAPS  H17Y  794   0.343   3.372   4.746  0.2936  0.9450  0.6913
    6SAPS  C318  795   0.242   3.552   4.669 -0.6404 -0.0566  0.4436
    6SAPS  H18X  796   0.263   3.519   4.565 -0.6365 -0.2728  0.5131
    6SAPS  H18Y  797   0.336   3.604   4.693 -0.1724 -1.3515  1.4999
    6SAPS  H18Z  798   0.155   3.622   4.676  0.7456  1.7288  0.4631
    7SAPS     N  799   0.904   5.495   7.135 -0.4793  0.7833 -0.2352
    7SAPS   HN1  800   0.804   5.489   7.106 -0.5126  1.4039 -0.2656
    7SAPS   HN2  801   0.908   5.457   7.231 -0.2105 -1.2524 -0.9915
    7SAPS   HN3  802   0.934   5.595   7.129 -0.0136  0.5938 -1.4113
    7SAPS   C12  803   0.998   5.403   7.048 -0.3095 -0.5033 -0.2286
    7SAPS  H12A  804   1.010   5.453   6.953 -0.8042  1.0038  0.4629
    7SAPS   C13  805   1.148   5.389   7.102  0.0862  0.3167 -0.5761
    7SAPS  O13A  806   1.181   5.457   7.202 -0.3591  0.1632 -0.0229
    7SAPS  O13B  807   1.231   5.334   7.023  0.6174 -0.1954 -0.0989
    7SAPS   C11  808   0.924   5.268   7.018  0.3518 -0.1874 -0.3422
    7SAPS  H11A  809   0.897   5.216   7.113  0.5390 -1.6318 -1.0488
    7SAPS  H11B  810   0.990   5.201   6.959 -0.9759 -1.5609 -0.3270
    7SAPS     P  811   0.708   5.162   6.897  0.2212 -0.3655 -0.2439
    7SAPS   O13  812   0.763   5.034   6.936  0.3430 -0.4340  0.4010
    7SAPS   O14  813   0.569   5.191   6.945 -0.6161 -0.6880  0.0546
    7SAPS   O12  814   0.805   5.289   6.945  0.0566  0.1594 -0.2794
    7SAPS   O11  815   0.718   5.183   6.745  0.1834  0.6780  0.3146
    7SAPS    C1  816   0.855   5.169   6.690  0.0290  0.3311  0.1079
    7SAPS    HA  817   0.925   5.251   6.717  0.3784 -0.8514  3.1560
    7SAPS    HB  818   0.907   5.077   6.725  3.2414  0.4895 -3.5398
    7SAPS    C2  819   0.844   5.153   6.535  1.0361  0.3551  0.0895
    7SAPS    HS  820   0.938   5.115   6.489  0.0299 -1.5159 -0.5280
    7SAPS   O21  821   0.789   5.268   6.460 -0.6526 -0.2846 -0.4456
    7SAPS   C21  822   0.864   5.367   6.435 -0.2163 -0.2222  0.3473
    7SAPS   O22  823   0.984   5.379   6.471  0.0232 -0.1067 -0.3577
    7SAPS   C22  824   0.788   5.477   6.352 -0.2378  0.3240 -0.3917
    7SAPS   H2R  825   0.685   5.441   6.330 -0.7325 -0.3126  2.5763
    7SAPS   H2S  826   0.777   5.557   6.429 -1.2809  0.0973 -0.2863
    7SAPS    C3  827   0.754   5.030   6.491  0.5015 -0.3091  0.1999
    7SAPS    HX  828   0.650   5.046   6.525  0.6928  0.4233  0.4676
    7SAPS    HY  829   0.791   4.940   6.544  3.3408  0.5650 -0.1375
    7SAPS   O31  830   0.764   5.009   6.348 -0.4917  0.1992  0.2665
    7SAPS   C31  831   0.675   5.057   6.262 -0.0743  0.2326  0.1444
    7SAPS   O32  832   0.584   5.130   6.287  0.1190 -0.1864  0.4502
    7SAPS   C32  833   0.712   5.014   6.126 -0.7808 -0.6168  0.0907
    7SAPS   H2X  834   0.722   4.904   6.122  0.4023 -0.5256  0.0463
    7SAPS   H2Y  835   0.806   5.072   6.108 -0.8952  0.2302  1.9514
    7SAPS   C23  836   0.868   5.532   6.233  0.0256 -0.0629 -0.1533
    7SAPS   H3R  837   0.959   5.582   6.274  1.8157 -2.4851 -0.9371
    7SAPS   H3S  838   0.805   5.616   6.198 -0.6518 -0.5973 -0.2260
    7SAPS   C24  839   0.920   5.438   6.119  0.1617  0.3532  0.0430
    7SAPS   H4R  840   0.958   5.347   6.170 -1.7824 -0.8264 -0.4931
    7SAPS   H4S  841   1.005   5.489   6.070  1.5426 -1.4181  0.4972
    7SAPS   C25  842   0.825   5.393   6.016 -0.2080 -0.2675  0.2518
    7SAPS   H5R  843   0.722   5.390   6.055 -0.6550 -1.6025 -0.9606
    7SAPS   C26  844   0.848   5.361   5.888  0.0924 -0.0917 -0.5221
    7SAPS   H6R  845   0.761   5.346   5.823  0.7537 -1.3582 -1.1597
    7SAPS   C27  846   0.978   5.344   5.817 -0.4885  0.2418  0.6851
    7SAPS   H7R  847   0.962   5.263   5.743  0.6612  0.5675  0.0527
    7SAPS   H7S  848   1.062   5.304   5.877 -0.1062  1.5801  1.0872
    7SAPS   C28  849   1.023   5.476   5.751  0.0376 -0.0355 -0.9259
    7SAPS   H8R  850   1.102   5.522   5.813 -1.1267  1.1706 -0.2664
    7SAPS   C29  851   1.010   5.522   5.628  0.0211 -0.0729  0.2091
    7SAPS   H9R  852   1.047   5.623   5.606  2.7170 -0.6764  1.5936
    7SAPS  C210  853   0.928   5.463   5.517  0.4789 -0.7155  1.0509
    7SAPS  H10R  854   0.833   5.415   5.550 -0.4257  0.9660  1.0194
    7SAPS  H10S  855   0.990   5.385   5.468  0.2436  0.0853 -0.5819
    7SAPS  C211  856   0.880   5.568   5.417  0.8248  0.1566  0.6414
    7SAPS  H11R  857   0.860   5.668   5.459  2.7607  0.2773  1.3739
    7SAPS  C212  858   0.863   5.562   5.284 -0.5403  0.3554 -0.1485
    7SAPS  H12R  859   0.813   5.649   5.241 -0.0824  0.3502 -0.6931
    7SAPS  C213  860   0.894   5.440   5.200  0.7781 -0.3259 -0.0906
    7SAPS  H13R  861   0.831   5.356   5.237 -0.3537  1.2264  1.6967
    7SAPS  H13S  862   0.997   5.401   5.218 -0.0434 -2.3778  0.5316
    7SAPS  C214  863   0.879   5.479   5.056  0.6764 -0.8028 -0.0169
    7SAPS  H14R  864   0.798   5.549   5.033  1.8016  0.8035  0.7058
    7SAPS  C215  865   0.962   5.451   4.957  0.6795  0.1136 -0.2351
    7SAPS  H15R  866   0.938   5.495   4.860 -0.6831 -0.2064 -0.0634
    7SAPS  C216  867   1.090   5.365   4.954  0.1096 -0.1155 -0.4727
    7SAPS  H16R  868   1.055   5.272   5.004  1.6498 -1.6096 -2.0211
    7SAPS  H16S  869   1.168   5.413   5.017 -2.3861 -1.1312  3.7765
    7SAPS  C217  870   1.149   5.319   4.820  0.4160 -0.3629 -0.0629
    7SAPS  H17R  871   1.064   5.287   4.756 -1.6972  0.8923  1.9527
    7SAPS  H17S  872   1.216   5.232   4.838  0.4560 -0.2221  0.4828
    7SAPS  C218  873   1.229   5.429   4.754  0.5330 -0.0717  0.3302
    7SAPS  H18R  874   1.314   5.470   4.812  1.5554 -0.0732 -1.1156
    7SAPS  H18S  875   1.161   5.515   4.736 -0.1781 -0.4770  0.9783
    7SAPS  C219  876   1.259   5.386   4.611  1.0766  0.7766 -0.4381
    7SAPS  H19R  877   1.167   5.371   4.550  1.9489 -0.6990 -1.4481
    7SAPS  H19S  878   1.320   5.293   4.615  2.6362  1.7703 -0.0101
    7SAPS  C220  879   1.331   5.489   4.545 -0.0471 -0.4843  0.5060
    7SAPS  H20R  880   1.416   5.529   4.605  0.8724 -1.3457 -0.2025
    7SAPS  H20S  881   1.268   5.577   4.519  0.1407 -1.2250 -2.9065
    7SAPS  H20T  882   1.377   5.455   4.450  0.0796 -1.0995  0.7878
    7SAPS   C33  883   0.610   5.068   6.029 -0.4204 -0.1777 -0.0945
    7SAPS   H3X  884   0.568   5.169   6.047 -2.7904 -1.0326 -0.4323
    7SAPS   H3Y  885   0.526   4.996   6.041 -0.4301  0.0148  1.0322
    7SAPS   C34  886   0.661   5.059   5.876  0.8083 -0.8045  0.2533
    7SAPS   H4X  887   0.652   4.951   5.853  0.7118 -0.6432 -0.4775
    7SAPS   H4Y  888   0.767   5.094   5.878  0.9078 -0.9656 -1.4783
    7SAPS   C35  889   0.568   5.137   5.783  1.0386  0.2716 -0.5897
    7SAPS   H5X  890   0.577   5.240   5.824 -0.5980 -0.0340  0.6512
    7SAPS   H5Y  891   0.462   5.110   5.802  1.4945 -2.3547 -1.3254
    7SAPS   C36  892   0.623   5.122   5.644  0.2725  0.0586  0.2415
    7SAPS   H6X  893   0.578   5.024   5.618 -0.4159  0.3056  0.4745
    7SAPS   H6Y  894   0.734   5.121   5.649  0.2731 -1.1300  0.2165
    7SAPS   C37  895   0.575   5.227   5.542  0.3693  0.7624 -0.6192
    7SAPS   H7X  896   0.627   5.322   5.565  0.5333  0.4296  0.4227
    7SAPS   H7Y  897   0.468   5.235   5.570  0.5595  1.7745 -0.1481
    7SAPS   C38  898   0.592   5.184   5.392 -0.1195  0.5031  0.4262
    7SAPS   H8X  899   0.540   5.088   5.372  2.4094 -0.7287 -0.6386
    7SAPS   H8Y  900   0.701   5.180   5.371  0.1334  0.9690  1.5403
    7SAPS   C39  901   0.539   5.295   5.296  0.1166  0.4278  0.1605
    7SAPS   H9X  902   0.579   5.392   5.332 -0.2645 -0.2484  2.5830
    7SAPS   H9Y  903   0.431   5.291   5.319  0.1911 -1.7394  0.3378
    7SAPS  C310  904   0.564   5.270   5.144  0.0256 -0.4807  0.0012
    7SAPS  H10X  905   0.532   5.167   5.117 -1.8232 -0.4517  1.7898
    7SAPS  H10Y  906   0.672   5.287   5.125 -0.3146  2.0137 -0.0003
    7SAPS  C311  907   0.492   5.380   5.052 -0.1578  0.4307  0.1043
    7SAPS  H11X  908   0.498   5.484   5.092 -1.6242  0.3080  0.6689
    7SAPS  H11Y  909   0.384   5.356   5.059 -0.4956  1.1912 -1.7980
    7SAPS  C312  910   0.538   5.382   4.901  0.3636  0.0968  0.0446
    7SAPS  H12X  911   0.494   5.293   4.851  2.6695 -0.9859 -0.2200
    7SAPS  H12Y  912   0.649   5.377   4.906  0.5032 -1.2292 -2.6621
    7SAPS  C313  913   0.498   5.516   4.836  0.9454 -0.2961  0.2071
    7SAPS  H13X  914   0.543   5.592   4.904  0.8305  1.2539 -1.3855
    7SAPS  H13Y  915   0.390   5.537   4.820  1.4851  3.1416  0.2647
    7SAPS  C314  916   0.546   5.532   4.693  0.0775  0.5903 -0.1858
    7SAPS  H14X  917   0.510   5.628   4.648  1.5933  0.9205 -0.7497
    7SAPS  H14Y  918   0.503   5.448   4.634 -1.0246 -0.6571  2.2382
    7SAPS  C315  919   0.696   5.541   4.663  0.4314 -0.0499 -0.1750
    7SAPS  H15X  920   0.708   5.510   4.557 -1.6081 -1.6462  0.0132
    7SAPS  H15Y  921   0.753   5.486   4.742 -0.0982  1.1529  1.0862
    7SAPS  C316  922   0.756   5.687   4.673  0.6208 -0.6609  0.0334
    7SAPS  H16X  923   0.759   5.720   4.779  2.3498  0.1344 -0.2289
    7SAPS  H16Y  924   0.694   5.763   4.622  0.4920  0.7988  2.2146
    7SAPS  C317  925   0.900   5.696   4.625  0.5926  0.6882 -0.3562
    7SAPS  H17X  926   0.953   5.602   4.647 -2.2725 -0.9198  0.2667
    7SAPS  H17Y  927   0.935   5.780   4.689 -0.7388  0.1460  1.1383
    7SAPS  C318  928   0.915   5.717   4.471  0.5553 -0.2590  0.2129
    7SAPS  H18X  929   1.023   5.710   4.449  0.6413  1.1108  0.1030
    7SAPS  H18Y  930   0.879   5.814   4.432  1.5061 -0.9280 -2.5067
    7SAPS  H18Z  931   0.863   5.637   4.414 -0.1905  0.5154 -0.2119
    8SAPS     N  932   1.810   6.288   6.475 -0.6402 -0.0279 -0.1448
    8SAPS   HN1  933   1.750   6.316   6.395 -1.1826 -1.8005 -0.4086
    8SAPS   HN2  934   1.909   6.313   6.456 -0.1573  0.5371  2.6459
    8SAPS   HN3  935   1.798   6.185   6.474  1.1189 -0.3553  2.5073
    8SAPS   C12  936   1.775   6.346   6.605 -0.5561  0.0352 -0.3824
    8SAPS  H12A  937   1.690   6.285   6.634  1.4441 -2.0425  1.6246
    8SAPS   C13  938   1.869   6.318   6.723 -0.4973 -0.7744  0.0568
    8SAPS  O13A  939   1.973   6.252   6.705  0.6091 -0.3878  0.5936
    8SAPS  O13B  940   1.832   6.347   6.840  0.9029 -0.3635 -0.0953
    8SAPS   C11  941   1.745   6.497   6.588 -0.4351 -0.0391 -0.7872
    8SAPS  H11A  942   1.704   6.539   6.683  0.3949  0.3699 -0.5951
    8SAPS  H11B  943   1.665   6.511   6.513 -1.1477 -0.1424 -0.0664
    8SAPS     P  944   1.862   6.721   6.530 -0.1305 -0.3967 -0.3061
    8SAPS   O13  945   1.848   6.780   6.664 -0.3302  0.5938 -0.2066
    8SAPS   O14  946   1.987   6.760   6.456  0.3687  0.9227  0.5407
    8SAPS   O12  947   1.862   6.566   6.553  0.4613 -0.2446  0.4781
    8SAPS   O11  948   1.725   6.731   6.450  0.6794 -0.3644  0.3180
    8SAPS    C1  949   1.643   6.846   6.466 -0.6412 -0.3387  0.4817
    8SAPS    HA  950   1.675   6.913   6.549 -0.3746 -0.8890  0.8242
    8SAPS    HB  951   1.665   6.914   6.381 -1.2705  0.3526  0.8598
    8SAPS    C2  952   1.491   6.821   6.467 -0.2866 -0.4185 -0.3458
    8SAPS    HS  953   1.453   6.780   6.563 -3.6812  1.6558 -0.6362
    8SAPS   O21  954   1.465   6.733   6.359 -0.0465 -0.1612 -0.2988
    8SAPS   C21  955   1.344   6.683   6.355  0.4818  0.2334 -0.3206
    8SAPS   O22  956   1.250   6.709   6.433  0.1424  0.1873  0.0844
    8SAPS   C22  957   1.326   6.586   6.237 -0.4639 -0.3217  0.1981
    8SAPS   H2R  958   1.422   6.535   6.215 -0.1716  0.9194 -1.6669
    8SAPS   H2S  959   1.246   6.517   6.271 -1.5301  0.6694 -0.2521
    8SAPS    C3  960   1.410   6.950   6.462 -0.5852  0.4888 -0.2047
    8SAPS    HX  961   1.457   7.000   6.549 -0.4625 -0.2015  0.1293
    8SAPS    HY  962   1.300   6.936   6.473 -0.6080  1.4701  0.9473
    8SAPS   O31  963   1.447   7.022   6.338 -0.1737  0.5584 -0.3560
    8SAPS   C31  964   1.358   7.034   6.245 -0.2850 -0.2483  0.2765
    8SAPS   O32  965   1.234   7.021   6.260 -0.2819 -0.5175  0.4457
    8SAPS   C32  966   1.421   7.075   6.109 -0.5279  0.1126  0.0104
    8SAPS   H2X  967   1.468   7.172   6.135  2.4636 -1.7736  2.2273
    8SAPS   H2Y  968   1.334   7.086   6.041 -1.6330 -0.6287  1.2655
    8SAPS   C23  969   1.273   6.654   6.109 -0.4338  0.2681  0.2671
    8SAPS   H3R  970   1.348   6.727   6.071  1.1094 -1.3144  0.1658
    8SAPS   H3S  971   1.179   6.708   6.134  0.2986  1.2604  0.9590
    8SAPS   C24  972   1.229   6.551   6.002  1.2515 -0.9227 -0.0205
    8SAPS   H4R  973   1.160   6.607   5.936  1.1285  1.2437  1.8433
    8SAPS   H4S  974   1.161   6.473   6.044  1.9590 -2.5334 -1.7300
    8SAPS   C25  975   1.336   6.504   5.926  0.1963  0.3972  0.4634
    8SAPS   H5R  976   1.420   6.487   5.996  0.8545  1.1003 -0.1379
    8SAPS   C26  977   1.360   6.481   5.796 -0.0238 -0.4007  0.4486
    8SAPS   H6R  978   1.450   6.420   5.777  0.2700 -0.2113  1.1830
    8SAPS   C27  979   1.265   6.496   5.683  0.1100 -0.1352 -0.6717
    8SAPS   H7R  980   1.173   6.550   5.714 -0.1955 -2.0467  2.1598
    8SAPS   H7S  981   1.236   6.391   5.663 -1.5846  0.3050 -0.6141
    8SAPS   C28  982   1.319   6.562   5.559  0.3806 -0.1808  0.4910
    8SAPS   H8R  983   1.296   6.670   5.550  0.7298 -0.2714 -2.2354
    8SAPS   C29  984   1.371   6.502   5.450 -0.0642 -0.0283 -0.1465
    8SAPS   H9R  985   1.395   6.564   5.362  1.6697  1.2430  1.1556
    8SAPS  C210  986   1.381   6.359   5.426 -0.3841  0.4664 -0.7173
    8SAPS  H10R  987   1.370   6.318   5.528  3.9259  0.1402 -0.2262
    8SAPS  H10S  988   1.484   6.343   5.389 -0.4134  2.0932 -1.6099
    8SAPS  C211  989   1.269   6.321   5.331 -0.2065  0.6068  0.4244
    8SAPS  H11R  990   1.184   6.285   5.391 -0.0230 -0.2689  0.1574
    8SAPS  C212  991   1.284   6.322   5.192 -0.0335  0.3856 -0.0684
    8SAPS  H12R  992   1.198   6.299   5.127  0.5272 -0.9852 -0.3679
    8SAPS  C213  993   1.402   6.373   5.115 -0.2197  0.2375 -0.4379
    8SAPS  H13R  994   1.498   6.373   5.171 -0.3119 -0.4277 -0.2704
    8SAPS  H13S  995   1.374   6.479   5.097 -1.7078  0.1832  1.2574
    8SAPS  C214  996   1.427   6.297   4.987  0.3586 -0.5068 -0.1251
    8SAPS  H14R  997   1.505   6.222   5.009  0.8576 -0.0850 -0.4503
    8SAPS  C215  998   1.384   6.321   4.857  0.7873 -0.2904  0.8037
    8SAPS  H15R  999   1.421   6.263   4.772 -1.4443  2.3077 -2.1781
    8SAPS  C216 1000   1.282   6.431   4.827 -0.3822 -0.3885  0.3369
    8SAPS  H16R 1001   1.306   6.521   4.887 -1.5348 -0.8289  1.5075
    8SAPS  H16S 1002   1.180   6.410   4.867 -0.5847  1.7891  1.0962
    8SAPS  C217 1003   1.268   6.468   4.678 -0.5029 -0.3066  0.4895
    8SAPS  H17R 1004   1.225   6.383   4.621 -1.7720 -1.8380  3.4756
    8SAPS  H17S 1005   1.371   6.480   4.640  0.6715  0.6806  3.6177
    8SAPS  C218 1006   1.165   6.586   4.652  0.1542  0.2633 -0.6906
    8SAPS  H18R 1007   1.210   6.684   4.678  1.8901 -0.9664  1.3123
    8SAPS  H18S 1008   1.074   6.574   4.716 -0.5641  0.9919 -1.5391
    8SAPS  C219 1009   1.126   6.586   4.501  0.1930 -0.2195  0.0496
    8SAPS  H19R 1010   1.037   6.652   4.509  0.5457  0.0483  2.4189
    8SAPS  H19S 1011   1.097   6.481   4.483 -0.0352 -0.2566  0.6102
    8SAPS  C220 1012   1.224   6.643   4.395  0.7043  0.0863 -0.0551
    8SAPS  H20R 1013   1.247   6.750   4.414 -0.7889  0.2846  0.8160
    8SAPS  H20S 1014   1.186   6.628   4.292  0.8120  1.2502 -0.2832
    8SAPS  H20T 1015   1.325   6.599   4.411  0.8790  0.7101  0.6556
    8SAPS   C33 1016   1.531   6.978   6.050  0.2431  0.6850  0.3565
    8SAPS   H3X 1017   1.495   6.873   6.055 -0.2208  0.8492  0.5094
    8SAPS   H3Y 1018   1.624   6.983   6.111 -0.1760 -2.8468  1.5283
    8SAPS   C34 1019   1.547   7.020   5.910 -0.2612 -0.1752  0.8303
    8SAPS   H4X 1020   1.648   7.064   5.899  2.0115 -4.6834  1.1933
    8SAPS   H4Y 1021   1.463   7.088   5.884 -1.6773 -1.6437  1.3184
    8SAPS   C35 1022   1.554   6.901   5.807 -0.4640  0.4550  0.0691
    8SAPS   H5X 1023   1.483   6.818   5.824  0.0780  0.3543  2.1584
    8SAPS   H5Y 1024   1.652   6.857   5.837  1.3332  2.4623 -2.3508
    8SAPS   C36 1025   1.573   6.942   5.660  0.7879 -0.4243 -0.0688
    8SAPS   H6X 1026   1.596   6.857   5.592 -1.4349  0.0781 -1.5281
    8SAPS   H6Y 1027   1.643   7.026   5.641 -0.5233  0.5837 -0.5124
    8SAPS   C37 1028   1.437   6.976   5.604  0.2573  0.1207  0.0580
    8SAPS   H7X 1029   1.388   7.053   5.667 -0.7440 -1.4908  1.3102
    8SAPS   H7Y 1030   1.379   6.881   5.607  1.4540 -0.6067  0.8642
    8SAPS   C38 1031   1.432   7.036   5.462  0.3990  0.0809 -0.3141
    8SAPS   H8X 1032   1.498   7.124   5.446 -1.8340  1.5405 -1.9179
    8SAPS   H8Y 1033   1.330   7.063   5.430  1.0060  0.9897 -1.5378
    8SAPS   C39 1034   1.479   6.933   5.356 -0.0041  0.0935 -0.1583
    8SAPS   H9X 1035   1.439   6.834   5.386  0.7727 -0.3439 -0.5691
    8SAPS   H9Y 1036   1.588   6.917   5.362 -0.1939 -1.2136  0.0060
    8SAPS  C310 1037   1.445   6.974   5.216  0.9930  0.8813 -0.0690
    8SAPS  H10X 1038   1.468   7.080   5.193  1.8277  0.9471  1.0100
    8SAPS  H10Y 1039   1.337   6.962   5.195  1.1381  0.3945 -0.5706
    8SAPS  C311 1040   1.528   6.913   5.110 -0.4562  0.3969 -0.4281
    8SAPS  H11X 1041   1.636   6.911   5.137  0.0469  2.7561 -1.9215
    8SAPS  H11Y 1042   1.511   6.981   5.023 -1.0363  0.4480 -0.2751
    8SAPS  C312 1043   1.476   6.776   5.075  0.8354  0.2188  0.2547
    8SAPS  H12X 1044   1.369   6.781   5.047  0.9607 -0.7962 -0.4634
    8SAPS  H12Y 1045   1.512   6.720   5.164  0.8186  0.1171  0.1967
    8SAPS  C313 1046   1.555   6.725   4.953 -0.2233  0.1628  0.5127
    8SAPS  H13X 1047   1.546   6.616   4.933  0.2610  0.4599 -1.5678
    8SAPS  H13Y 1048   1.664   6.741   4.961 -0.3649  2.4256 -1.2194
    8SAPS  C314 1049   1.520   6.796   4.823  0.3002 -0.5145  0.3387
    8SAPS  H14X 1050   1.579   6.890   4.807  0.5624 -0.8925 -1.0660
    8SAPS  H14Y 1051   1.412   6.816   4.807  0.8985  1.0532 -2.4178
    8SAPS  C315 1052   1.564   6.717   4.701 -0.0383  0.2439  0.5062
    8SAPS  H15X 1053   1.517   6.618   4.682 -0.5057  0.5259  0.1772
    8SAPS  H15Y 1054   1.674   6.697   4.703 -0.1036 -1.0196 -2.5846
    8SAPS  C316 1055   1.546   6.799   4.567 -0.1669  0.3679  0.8271
    8SAPS  H16X 1056   1.587   6.902   4.571  0.1951  0.2637 -0.0057
    8SAPS  H16Y 1057   1.435   6.799   4.556 -0.1244  2.8226 -0.0584
    8SAPS  C317 1058   1.583   6.728   4.434  0.0891  0.0536  0.5662
    8SAPS  H17X 1059   1.520   6.638   4.419 -1.6976  1.3487 -0.0862
    8SAPS  H17Y 1060   1.685   6.685   4.434 -0.5984 -2.1071 -3.8162
    8SAPS  C318 1061   1.573   6.820   4.310 -0.0575  0.3051 -0.0046
    8SAPS  H18X 1062   1.550   6.754   4.224 -2.4205 -1.2383  1.6613
    8SAPS  H18Y 1063   1.673   6.867   4.296  1.9037 -3.4649 -0.1412
    8SAPS  H18Z 1064   1.485   6.886   4.298 -0.2853 -0.1224 -0.7288
    9SAPS     N 1065   0.848   4.537   7.015  0.2398 -0.6834  0.0637
    9SAPS   HN1 1066   0.926   4.552   6.947  1.7865  2.6573  2.3075
    9SAPS   HN2 1067   0.756   4.528   6.969 -0.6908  1.1660  1.4616
    9SAPS   HN3 1068   0.856   4.625   7.069  1.2103 -0.6440 -0.1254
    9SAPS   C12 1069   0.872   4.423   7.099  0.3714 -0.6907  0.4388
    9SAPS  H12A 1070   0.977   4.400   7.096  0.4393 -0.4780  0.9814
    9SAPS   C13 1071   0.847   4.452   7.251  0.0668  0.6829  0.5237
    9SAPS  O13A 1072   0.796   4.560   7.285 -0.0427  0.3503 -0.4478
    9SAPS  O13B 1073   0.844   4.352   7.324  0.3479 -0.4274 -0.8386
    9SAPS   C11 1074   0.799   4.293   7.048 -0.3538 -0.5395 -0.0411
    9SAPS  H11A 1075   0.695   4.325   7.026  0.0644 -1.4548 -4.2274
    9SAPS  H11B 1076   0.797   4.213   7.125 -2.7176 -1.3160 -0.8378
    9SAPS     P 1077   0.875   4.112   6.889 -0.0786  0.0342  0.4345
    9SAPS   O13 1078   0.956   4.062   7.011  0.3326  0.5154  0.0106
    9SAPS   O14 1079   0.743   4.056   6.854 -0.1124  0.7915 -0.9009
    9SAPS   O12 1080   0.846   4.260   6.916 -0.0410 -0.1220 -0.6418
    9SAPS   O11 1081   0.959   4.103   6.764 -0.7062  0.4634  0.1694
    9SAPS    C1 1082   0.981   4.211   6.664  0.9520 -0.2404 -0.2498
    9SAPS    HA 1083   0.885   4.254   6.630  1.6911  0.0492 -2.0953
    9SAPS    HB 1084   1.049   4.297   6.681 -1.0660  1.8518 -2.0136
    9SAPS    C2 1085   1.056   4.153   6.544 -0.3064  0.2297  0.0077
    9SAPS    HS 1086   1.104   4.057   6.570  1.9897  1.0211 -1.0807
    9SAPS   O21 1087   1.157   4.243   6.496 -0.4448 -0.4827  1.3170
    9SAPS   C21 1088   1.250   4.188   6.420 -0.1218  0.5856 -0.1214
    9SAPS   O22 1089   1.270   4.065   6.416  0.4369 -0.1054 -0.4625
    9SAPS   C22 1090   1.337   4.290   6.353 -0.5324 -0.1253 -0.2565
    9SAPS   H2R 1091   1.292   4.389   6.376  0.0515 -0.1632  1.1022
    9SAPS   H2S 1092   1.439   4.294   6.397 -0.1799  0.7029 -1.1142
    9SAPS    C3 1093   0.942   4.137   6.436 -0.0622  0.5221 -0.3018
    9SAPS    HX 1094   0.899   4.238   6.419 -0.5433  0.2874 -0.4983
    9SAPS    HY 1095   0.864   4.073   6.482 -0.0530  0.8583  0.1899
    9SAPS   O31 1096   0.985   4.093   6.307 -0.2292 -0.3877  0.0746
    9SAPS   C31 1097   0.990   3.969   6.277  0.1521 -0.3355  0.0021
    9SAPS   O32 1098   0.973   3.880   6.358  0.2418 -0.6275  0.1070
    9SAPS   C32 1099   1.031   3.956   6.126  0.1730 -0.0580  0.2422
    9SAPS   H2X 1100   1.114   4.028   6.114  1.5819 -1.5486  0.6899
    9SAPS   H2Y 1101   0.943   3.987   6.066 -1.7411  1.0233  3.3520
    9SAPS   C23 1102   1.338   4.265   6.200  0.8694 -0.2294  0.4691
    9SAPS   H3R 1103   1.357   4.362   6.151 -0.7613 -0.9107 -1.6347
    9SAPS   H3S 1104   1.236   4.236   6.167  1.2050 -0.4286 -0.3953
    9SAPS   C24 1105   1.434   4.152   6.158 -0.3173 -0.4296  0.0298
    9SAPS   H4R 1106   1.389   4.057   6.193 -2.6181  0.7551  0.4939
    9SAPS   H4S 1107   1.529   4.171   6.214  0.6935 -2.0386 -1.0512
    9SAPS   C25 1108   1.450   4.140   6.007  0.1500 -0.1805 -0.1054
    9SAPS   H5R 1109   1.357   4.159   5.952 -0.1429  2.1798  1.0823
    9SAPS   C26 1110   1.571   4.145   5.949 -0.1128  0.5778  0.5016
    9SAPS   H6R 1111   1.571   4.135   5.839  0.2730 -0.6613  0.6013
    9SAPS   C27 1112   1.709   4.158   6.012 -0.7054  0.0605  1.2110
    9SAPS   H7R 1113   1.705   4.173   6.122  0.3431 -0.8442  1.3995
    9SAPS   H7S 1114   1.770   4.246   5.984  2.7593 -2.1107  1.3257
    9SAPS   C28 1115   1.777   4.031   5.976 -0.4192  0.2963  0.2166
    9SAPS   H8R 1116   1.750   3.941   6.032  1.5186  0.0567  0.8111
    9SAPS   C29 1117   1.860   4.004   5.871 -0.1918 -0.2381 -0.0549
    9SAPS   H9R 1118   1.901   3.903   5.862  2.2598  0.7167 -0.3098
    9SAPS  C210 1119   1.917   4.102   5.763 -0.2728 -0.1096  0.3678
    9SAPS  H10R 1120   2.028   4.109   5.772 -0.4578  0.7306  2.4473
    9SAPS  H10S 1121   1.881   4.207   5.773  2.1452  0.9348 -0.8324
    9SAPS  C211 1122   1.893   4.053   5.625  0.1767 -0.2483  0.5912
    9SAPS  H11R 1123   1.951   3.967   5.589  0.1995  0.2424 -0.5759
    9SAPS  C212 1124   1.813   4.109   5.532  0.3248 -0.9208 -0.1836
    9SAPS  H12R 1125   1.810   4.059   5.434  0.1307 -1.2137 -0.0314
    9SAPS  C213 1126   1.715   4.230   5.543  0.5611 -0.0538  0.2016
    9SAPS  H13R 1127   1.733   4.294   5.454 -1.0358 -1.0533 -0.8844
    9SAPS  H13S 1128   1.744   4.286   5.635  1.1864  1.2819 -0.7645
    9SAPS  C214 1129   1.575   4.189   5.552  1.0618  0.4345 -0.4355
    9SAPS  H14R 1130   1.558   4.130   5.644  0.7604  1.4216  0.1572
    9SAPS  C215 1131   1.471   4.216   5.461 -0.4579  0.0605 -0.0434
    9SAPS  H15R 1132   1.377   4.165   5.489  0.1037 -1.3519 -0.6500
    9SAPS  C216 1133   1.458   4.294   5.330 -0.1153  0.5619  0.0031
    9SAPS  H16R 1134   1.557   4.343   5.320  0.5764 -0.3401  1.8515
    9SAPS  H16S 1135   1.370   4.361   5.335  0.5766  1.5486 -0.7868
    9SAPS  C217 1136   1.473   4.201   5.203  0.2413  0.8601 -0.1209
    9SAPS  H17R 1137   1.449   4.263   5.114  0.9652  0.3658 -0.6696
    9SAPS  H17S 1138   1.401   4.117   5.196  5.0540 -3.6891 -1.5406
    9SAPS  C218 1139   1.615   4.142   5.182  0.0453 -1.0596  0.4945
    9SAPS  H18R 1140   1.649   4.089   5.273 -0.8279 -0.1573  1.3752
    9SAPS  H18S 1141   1.671   4.236   5.170 -1.2633 -0.4142 -0.8514
    9SAPS  C219 1142   1.629   4.049   5.066  1.0703 -0.2489 -0.2478
    9SAPS  H19R 1143   1.591   4.088   4.969  0.8203 -0.2518 -0.1505
    9SAPS  H19S 1144   1.571   3.959   5.096  2.8715 -1.1486  0.7054
    9SAPS  C220 1145   1.771   3.995   5.040 -0.1804 -0.1687 -0.3810
    9SAPS  H20R 1146   1.841   4.071   5.000 -1.2509 -0.1664 -2.3789
    9SAPS  H20S 1147   1.763   3.913   4.965 -1.5039 -0.0574 -0.3896
    9SAPS  H20T 1148   1.809   3.957   5.137  0.4005  0.4863 -0.3463
    9SAPS   C33 1149   1.077   3.819   6.082 -0.0237  0.3648  0.2276
    9SAPS   H3X 1150   0.984   3.761   6.065  0.2545  0.1117 -0.4843
    9SAPS   H3Y 1151   1.141   3.776   6.162  0.5677 -1.6382 -1.2276
    9SAPS   C34 1152   1.160   3.818   5.954  0.0865  0.0584 -0.1029
    9SAPS   H4X 1153   1.182   3.713   5.927 -1.0826  0.0006 -0.9176
    9SAPS   H4Y 1154   1.251   3.878   5.972 -0.0389  0.0995  0.3941
    9SAPS   C35 1155   1.102   3.875   5.824 -0.0428 -0.1180  0.5540
    9SAPS   H5X 1156   1.076   3.982   5.829  0.2357  0.0988 -1.7993
    9SAPS   H5Y 1157   1.006   3.822   5.806 -0.1754 -0.1583  1.3391
    9SAPS   C36 1158   1.193   3.841   5.698  0.6636 -0.1891 -0.6260
    9SAPS   H6X 1159   1.212   3.731   5.701 -2.2656 -0.8014  3.2574
    9SAPS   H6Y 1160   1.294   3.888   5.704 -0.7454  3.2866 -1.5862
    9SAPS   C37 1161   1.128   3.892   5.570 -0.3857  0.3599  0.4076
    9SAPS   H7X 1162   1.129   4.002   5.583  1.4318  0.1739  2.3847
    9SAPS   H7Y 1163   1.024   3.854   5.562  0.2429 -1.8636  1.7363
    9SAPS   C38 1164   1.206   3.856   5.448  0.7070 -0.3613 -0.2142
    9SAPS   H8X 1165   1.255   3.756   5.453  0.4583 -0.5201 -0.9183
    9SAPS   H8Y 1166   1.291   3.927   5.441  1.1603 -0.8633  0.1052
    9SAPS   C39 1167   1.114   3.851   5.326  0.0719 -0.4005 -0.1998
    9SAPS   H9X 1168   1.065   3.951   5.330  0.4626 -0.1692 -1.0398
    9SAPS   H9Y 1169   1.036   3.774   5.349 -0.6542  0.2099 -0.5585
    9SAPS  C310 1170   1.191   3.823   5.193 -0.7422  0.7017 -0.3004
    9SAPS  H10X 1171   1.217   3.714   5.190  1.1246  1.1070 -0.3206
    9SAPS  H10Y 1172   1.291   3.872   5.191  0.0279 -0.7886 -1.6338
    9SAPS  C311 1173   1.110   3.851   5.069 -0.1356 -0.7096 -0.4730
    9SAPS  H11X 1174   1.097   3.962   5.071  0.8269 -0.5933  0.5603
    9SAPS  H11Y 1175   1.012   3.802   5.086 -0.9951  1.8776  3.3606
    9SAPS  C312 1176   1.173   3.820   4.931  0.4724  0.4082 -0.5401
    9SAPS  H12X 1177   1.086   3.849   4.868  2.0294  2.0523 -2.0434
    9SAPS  H12Y 1178   1.184   3.710   4.920  0.7511  0.3045  0.6084
    9SAPS  C313 1179   1.303   3.896   4.903  0.1664 -0.2163  0.2426
    9SAPS  H13X 1180   1.389   3.857   4.961  0.9659  1.2712  0.1263
    9SAPS  H13Y 1181   1.288   3.999   4.942 -0.1859 -0.1388 -0.0863
    9SAPS  C314 1182   1.331   3.890   4.753  0.3186  0.2146  0.2491
    9SAPS  H14X 1183   1.241   3.935   4.706  1.0250  0.1086 -1.3011
    9SAPS  H14Y 1184   1.335   3.786   4.716  1.1954  0.7309 -1.2177
    9SAPS  C315 1185   1.466   3.949   4.716 -0.1313  0.0011  0.3021
    9SAPS  H15X 1186   1.488   4.036   4.782 -2.7144  0.3907  0.7451
    9SAPS  H15Y 1187   1.468   3.983   4.611 -0.3457  0.7908  0.5461
    9SAPS  C316 1188   1.582   3.846   4.736  0.5535  0.4763  0.3583
    9SAPS  H16X 1189   1.560   3.760   4.670  0.2538  1.4950 -0.9213
    9SAPS  H16Y 1190   1.578   3.825   4.845  2.1976  1.4438  0.6347
    9SAPS  C317 1191   1.719   3.905   4.706  0.0719  0.4453  0.2211
    9SAPS  H17X 1192   1.725   3.993   4.773 -2.0605  1.6915 -1.1070
    9SAPS  H17Y 1193   1.734   3.951   4.607  0.1489 -0.2713 -0.1069
    9SAPS  C318 1194   1.844   3.814   4.712 -0.1600 -0.3177 -0.4304
    9SAPS  H18X 1195   1.851   3.761   4.809 -1.9309  1.4250  0.7207
    9SAPS  H18Y 1196   1.944   3.862   4.696  0.5636 -2.2175 -2.0460
    9SAPS  H18Z 1197   1.839   3.730   4.639  3.1198  1.5797 -3.1695
   10SAPS     N 1198   0.928   2.358   7.078 -0.1223  0.0803  0.3715
   10SAPS   HN1 1199   0.891   2.301   7.157  1.3523  0.0330  1.0611
   10SAPS   HN2 1200   0.852   2.404   7.023 -0.0772 -0.1193  0.1383
   10SAPS   HN3 1201   0.984   2.305   7.008  0.2997 -1.5871  1.8768
   10SAPS   C12 1202   1.019   2.449   7.145  0.1882  0.6008 -0.0279
   10SAPS  H12A 1203   0.953   2.513   7.201 -2.4116 -2.6653  1.0222
   10SAPS   C13 1204   1.126   2.392   7.242 -0.4433  0.0757 -0.4742
   10SAPS  O13A 1205   1.132   2.272   7.276  0.2588 -0.0485  0.0545
   10SAPS  O13B 1206   1.191   2.484   7.302 -0.3120  0.4717  0.4263
   10SAPS   C11 1207   1.095   2.529   7.030  0.2905 -0.1080  0.8078
   10SAPS  H11A 1208   1.171   2.593   7.080 -0.3271 -1.1072  3.1942
   10SAPS  H11B 1209   1.016   2.582   6.973  0.3227 -0.4413  0.4507
   10SAPS     P 1210   1.276   2.495   6.852  0.3852  0.4430  0.2055
   10SAPS   O13 1211   1.377   2.573   6.920 -0.6372  0.1956 -0.0775
   10SAPS   O14 1212   1.330   2.377   6.780  0.1364  0.5103 -0.6180
   10SAPS   O12 1213   1.164   2.437   6.948 -0.2623  0.5640  0.1501
   10SAPS   O11 1214   1.189   2.577   6.757 -0.0153  0.4153  0.2151
   10SAPS    C1 1215   1.087   2.514   6.676  0.2983 -0.8219  0.1488
   10SAPS    HA 1216   1.108   2.406   6.667 -0.0305 -0.8115 -0.9544
   10SAPS    HB 1217   0.994   2.516   6.737  0.4617 -0.0648  0.3847
   10SAPS    C2 1218   1.050   2.579   6.542  0.5106 -0.6085  0.4995
   10SAPS    HS 1219   0.974   2.511   6.499  1.4649 -1.1520 -0.3773
   10SAPS   O21 1220   1.154   2.564   6.446  0.1311 -0.4977  0.0601
   10SAPS   C21 1221   1.177   2.455   6.380 -0.2563  0.0621 -0.1587
   10SAPS   O22 1222   1.100   2.362   6.372 -0.2307  0.7345 -0.2046
   10SAPS   C22 1223   1.310   2.471   6.299 -0.0766 -0.3290  0.6499
   10SAPS   H2R 1224   1.387   2.516   6.365  0.6361 -1.3074  0.5008
   10SAPS   H2S 1225   1.351   2.373   6.267 -0.5457 -0.1075 -0.7157
   10SAPS    C3 1226   1.004   2.731   6.553  0.0196 -0.2559  0.4936
   10SAPS    HX 1227   1.098   2.791   6.550 -1.8048  2.7600 -1.6847
   10SAPS    HY 1228   0.939   2.733   6.643 -1.8714 -3.1472 -0.6921
   10SAPS   O31 1229   0.924   2.759   6.434 -0.0311  0.0568 -0.6611
   10SAPS   C31 1230   0.991   2.818   6.338 -0.5084 -0.0382  0.1486
   10SAPS   O32 1231   1.111   2.847   6.338 -0.0723 -0.4283  0.5962
   10SAPS   C32 1232   0.886   2.842   6.225 -0.6672  0.1114 -0.4982
   10SAPS   H2X 1233   0.817   2.923   6.256 -2.1155 -1.2985  0.0693
   10SAPS   H2Y 1234   0.820   2.753   6.220 -0.7831  0.2390 -1.9727
   10SAPS   C23 1235   1.301   2.576   6.188 -0.2517  0.3185  0.7737
   10SAPS   H3R 1236   1.404   2.595   6.152 -0.6338  1.2008  0.0899
   10SAPS   H3S 1237   1.260   2.665   6.242 -1.0984  0.4129  0.0041
   10SAPS   C24 1238   1.217   2.511   6.067 -0.0848 -0.5686 -0.9275
   10SAPS   H4R 1239   1.183   2.598   6.007 -0.0632 -1.8598 -2.9210
   10SAPS   H4S 1240   1.126   2.462   6.108 -1.2758  0.7009 -1.9543
   10SAPS   C25 1241   1.298   2.415   5.979 -0.9449  0.7057 -0.0094
   10SAPS   H5R 1242   1.276   2.309   6.001 -0.8859  0.2316 -2.0757
   10SAPS   C26 1243   1.380   2.445   5.882 -1.0042  0.2163 -0.1600
   10SAPS   H6R 1244   1.414   2.357   5.825 -3.5663 -0.8272 -0.2011
   10SAPS   C27 1245   1.414   2.585   5.834  0.3284 -0.2799  0.2259
   10SAPS   H7R 1246   1.442   2.653   5.917 -2.3529  2.8598 -1.2011
   10SAPS   H7S 1247   1.333   2.644   5.786  1.8621  1.0895 -0.7854
   10SAPS   C28 1248   1.528   2.579   5.743  0.2643  0.3071  0.2374
   10SAPS   H8R 1249   1.619   2.551   5.798 -0.0981  0.6903  1.0379
   10SAPS   C29 1250   1.520   2.595   5.604  0.4410  0.4101  0.0456
   10SAPS   H9R 1251   1.614   2.589   5.547  1.0901 -0.3167  1.1533
   10SAPS  C210 1252   1.398   2.648   5.524 -0.1550 -0.0051 -0.5453
   10SAPS  H10R 1253   1.431   2.698   5.431 -0.1841 -0.5882 -0.8773
   10SAPS  H10S 1254   1.353   2.729   5.585  0.3882  1.2298 -1.7421
   10SAPS  C211 1255   1.291   2.555   5.472 -0.1124  0.1548  0.1827
   10SAPS  H11R 1256   1.237   2.506   5.555  1.7459 -2.1464  0.1559
   10SAPS  C212 1257   1.257   2.522   5.346 -0.3753 -0.1050 -0.1990
   10SAPS  H12R 1258   1.203   2.428   5.328  0.3420 -0.8243  1.2332
   10SAPS  C213 1259   1.322   2.581   5.223  1.0740 -0.0852  0.2946
   10SAPS  H13R 1260   1.431   2.569   5.237  0.7681 -1.3315  1.7638
   10SAPS  H13S 1261   1.300   2.690   5.230 -0.1570 -0.3043  0.1597
   10SAPS  C214 1262   1.267   2.518   5.096 -0.7038  0.0469 -0.6801
   10SAPS  H14R 1263   1.341   2.444   5.061  0.8804  1.3464 -0.2125
   10SAPS  C215 1264   1.152   2.536   5.025 -0.4601  0.0311  0.4422
   10SAPS  H15R 1265   1.140   2.473   4.935 -2.1897  2.3067 -1.0539
   10SAPS  C216 1266   1.044   2.634   5.050 -0.0858 -0.5843 -0.3504
   10SAPS  H16R 1267   1.038   2.634   5.161 -2.0059 -1.5011 -0.4032
   10SAPS  H16S 1268   0.948   2.584   5.026 -1.2604  0.4001  2.0232
   10SAPS  C217 1269   1.055   2.770   4.984 -0.3982  0.3002 -0.4649
   10SAPS  H17R 1270   1.164   2.787   4.984  0.0143 -1.3641  2.9953
   10SAPS  H17S 1271   1.005   2.852   5.040  0.2693 -0.1614  0.8687
   10SAPS  C218 1272   1.002   2.765   4.839  0.3620 -0.5250  0.3061
   10SAPS  H18R 1273   0.891   2.768   4.841  0.3242 -1.1214 -0.3674
   10SAPS  H18S 1274   1.028   2.670   4.787 -4.1994 -2.6553  1.4478
   10SAPS  C219 1275   1.064   2.879   4.757  0.0555  0.0641  0.8373
   10SAPS  H19R 1276   1.172   2.854   4.747 -0.1975 -0.2563 -1.9095
   10SAPS  H19S 1277   1.060   2.983   4.797  2.2099  0.9145 -0.9173
   10SAPS  C220 1278   1.024   2.886   4.607  0.2537  0.7077  0.9293
   10SAPS  H20R 1279   0.916   2.915   4.604  0.0644  0.0064 -2.4168
   10SAPS  H20S 1280   1.022   2.785   4.561 -0.1518  0.3224  1.7791
   10SAPS  H20T 1281   1.076   2.968   4.553 -0.8621  0.0876 -1.2320
   10SAPS   C33 1282   0.955   2.873   6.090  0.1380  0.5994 -0.6954
   10SAPS   H3X 1283   1.036   2.801   6.068  3.0816  3.3451  0.4268
   10SAPS   H3Y 1284   1.000   2.975   6.089  1.3648  0.1178  0.7034
   10SAPS   C34 1285   0.850   2.875   5.974 -0.6412 -0.2532  0.3716
   10SAPS   H4X 1286   0.782   2.963   5.981 -1.5991 -0.7079 -2.2240
   10SAPS   H4Y 1287   0.790   2.782   5.981  0.6833 -1.1446  0.1106
   10SAPS   C35 1288   0.926   2.891   5.839  0.0946  0.1285 -0.7343
   10SAPS   H5X 1289   1.020   2.946   5.864 -1.2772  1.3756  2.1866
   10SAPS   H5Y 1290   0.852   2.944   5.775 -3.0076 -0.3172  2.2061
   10SAPS   C36 1291   0.983   2.756   5.787  0.5306  0.0931 -0.0889
   10SAPS   H6X 1292   1.005   2.689   5.873  0.2010  1.2931  0.9558
   10SAPS   H6Y 1293   1.077   2.765   5.727  1.6215  0.8411  1.6636
   10SAPS   C37 1294   0.882   2.695   5.696 -0.8609 -0.0568  0.3484
   10SAPS   H7X 1295   0.777   2.710   5.728 -1.1213  0.2377 -0.6205
   10SAPS   H7Y 1296   0.901   2.588   5.675 -0.7842  0.2227 -1.1619
   10SAPS   C38 1297   0.896   2.762   5.558 -0.5676  1.0603  0.4225
   10SAPS   H8X 1298   0.988   2.729   5.504 -0.9056  0.1159  0.4057
   10SAPS   H8Y 1299   0.900   2.871   5.579  0.0460  0.9274  1.0336
   10SAPS   C39 1300   0.764   2.744   5.472 -0.3362  0.0278  0.1251
   10SAPS   H9X 1301   0.681   2.804   5.515  0.1453  0.4828  0.4279
   10SAPS   H9Y 1302   0.734   2.637   5.472 -1.0801  0.2100  1.5428
   10SAPS  C310 1303   0.785   2.784   5.323 -0.2023 -0.7342 -0.0294
   10SAPS  H10X 1304   0.870   2.723   5.286 -0.9979 -0.4332 -2.5519
   10SAPS  H10Y 1305   0.814   2.891   5.318 -1.7693 -0.0882  2.7184
   10SAPS  C311 1306   0.661   2.746   5.244  0.6280 -0.1521 -0.4044
   10SAPS  H11X 1307   0.571   2.805   5.271  0.0142 -0.7279 -1.1314
   10SAPS  H11Y 1308   0.632   2.640   5.264  1.0420  0.0542  1.5215
   10SAPS  C312 1309   0.678   2.766   5.089  0.2562 -0.0682 -0.3129
   10SAPS  H12X 1310   0.617   2.688   5.038  0.1877  0.2496 -0.7283
   10SAPS  H12Y 1311   0.784   2.734   5.074 -0.0579 -0.3092 -2.3449
   10SAPS  C313 1312   0.647   2.914   5.054 -0.1085  0.6235  0.2818
   10SAPS  H13X 1313   0.709   2.978   5.120  1.1823 -0.7367  0.4359
   10SAPS  H13Y 1314   0.538   2.928   5.070 -0.6662 -0.2846 -2.2348
   10SAPS  C314 1315   0.660   2.961   4.916 -0.2276  0.1323  0.3082
   10SAPS  H14X 1316   0.768   2.955   4.888 -0.3611  0.9949 -0.4329
   10SAPS  H14Y 1317   0.629   3.067   4.919 -2.2434 -0.3985 -0.1910
   10SAPS  C315 1318   0.575   2.876   4.813  0.3098  0.3527  0.0807
   10SAPS  H15X 1319   0.472   2.876   4.855  0.1500  2.8524 -0.1411
   10SAPS  H15Y 1320   0.610   2.772   4.802 -0.1934  0.3687 -2.0593
   10SAPS  C316 1321   0.571   2.930   4.667  0.1842  0.5164  0.2803
   10SAPS  H16X 1322   0.496   2.868   4.614  2.3663 -1.4595 -0.7102
   10SAPS  H16Y 1323   0.672   2.903   4.628  0.3201  0.2881  0.7821
   10SAPS  C317 1324   0.546   3.078   4.651  0.1429 -0.2084 -0.4375
   10SAPS  H17X 1325   0.639   3.129   4.684  0.0151  1.2235 -2.1679
   10SAPS  H17Y 1326   0.465   3.113   4.718 -0.0658 -1.0472 -0.2344
   10SAPS  C318 1327   0.531   3.130   4.516 -1.0283 -0.4124 -0.7222
   10SAPS  H18X 1328   0.611   3.092   4.449 -0.9565 -0.9743 -0.3345
   10SAPS  H18Y 1329   0.526   3.240   4.510 -2.8890 -0.4313 -0.1396
   10SAPS  H18Z 1330   0.437   3.096   4.466 -1.8908  1.2666 -0.3066
   11SAPS     N 1331   3.860   1.720   2.476 -0.1616  0.1241 -0.2844
   11SAPS   HN1 1332   3.768   1.761   2.500 -0.7682 -1.3009 -0.0903
   11SAPS   HN2 1333   3.903   1.672   2.557 -0.0214  1.6118  0.5668
   11SAPS   HN3 1334   3.920   1.794   2.434  2.4052 -0.9169  1.3591
   11SAPS   C12 1335   3.848   1.609   2.371  0.2134  0.3152  0.8086
   11SAPS  H12A 1336   3.810   1.524   2.426 -1.6519  0.8174  0.3581
   11SAPS   C13 1337   3.751   1.635   2.255  0.4786  0.4064 -0.0211
   11SAPS  O13A 1338   3.707   1.751   2.246  0.0667 -0.1590 -0.2828
   11SAPS  O13B 1339   3.735   1.554   2.156 -0.3063 -0.4273  0.0491
   11SAPS   C11 1340   3.989   1.576   2.317  0.3573 -0.0081 -0.5418
   11SAPS  H11A 1341   4.047   1.661   2.274  0.0749 -0.2044 -1.3182
   11SAPS  H11B 1342   3.981   1.508   2.231  1.3781 -0.3090 -0.4200
   11SAPS     P 1343   4.216   1.477   2.383 -0.0052 -0.1104 -0.6505
   11SAPS   O13 1344   4.208   1.367   2.297  0.0846 -0.0984  0.0525
   11SAPS   O14 1345   4.289   1.595   2.339 -0.8168  0.1984  0.0610
   11SAPS   O12 1346   4.065   1.515   2.425 -0.1105 -0.2061  0.0664
   11SAPS   O11 1347   4.269   1.433   2.525  0.0809 -0.3340 -0.1813
   11SAPS    C1 1348   4.236   1.511   2.646  0.1735 -0.3651  0.2377
   11SAPS    HA 1349   4.326   1.537   2.705  0.9861 -2.4951  0.0239
   11SAPS    HB 1350   4.177   1.604   2.636 -0.0871 -0.4838  0.6309
   11SAPS    C2 1351   4.144   1.421   2.728 -0.3339 -0.0144 -0.0897
   11SAPS    HS 1352   4.067   1.389   2.655  0.3487 -0.1497 -0.7642
   11SAPS   O21 1353   4.083   1.490   2.841  0.1602  0.1627 -0.1957
   11SAPS   C21 1354   3.983   1.567   2.809  0.1018  0.5212  0.2483
   11SAPS   O22 1355   3.938   1.585   2.696  0.7320 -0.0069 -0.2091
   11SAPS   C22 1356   3.913   1.623   2.932  0.2259 -0.0043 -0.0636
   11SAPS   H2R 1357   3.870   1.528   2.970  1.6246 -0.0486  1.5606
   11SAPS   H2S 1358   3.978   1.658   3.016  1.0757 -1.5427 -0.0389
   11SAPS    C3 1359   4.217   1.293   2.775  0.3324  0.4506 -0.3956
   11SAPS    HX 1360   4.245   1.225   2.692  1.4202 -2.0714  1.8886
   11SAPS    HY 1361   4.132   1.243   2.826 -0.6525 -0.8352 -3.0961
   11SAPS   O31 1362   4.332   1.315   2.861 -0.0426  0.2187 -0.0888
   11SAPS   C31 1363   4.356   1.236   2.962  0.5682 -0.0605  0.2806
   11SAPS   O32 1364   4.303   1.127   2.978  0.2067  0.3863  0.4849
   11SAPS   C32 1365   4.465   1.295   3.047 -0.2358 -0.4408 -0.2402
   11SAPS   H2X 1366   4.461   1.403   3.019 -1.0900 -0.3419  0.2482
   11SAPS   H2Y 1367   4.564   1.256   3.014 -0.9679 -1.5062 -1.2654
   11SAPS   C23 1368   3.791   1.718   2.933  0.1875 -0.3953 -0.2338
   11SAPS   H3R 1369   3.716   1.688   3.009  1.1905 -1.2240  0.4509
   11SAPS   H3S 1370   3.742   1.704   2.834  0.0922  0.4959 -0.3219
   11SAPS   C24 1371   3.829   1.866   2.934  0.1368  0.2325  0.5397
   11SAPS   H4R 1372   3.897   1.886   3.019 -0.0395  0.3627  0.6515
   11SAPS   H4S 1373   3.740   1.930   2.950 -0.5178 -0.6177  0.3668
   11SAPS   C25 1374   3.888   1.908   2.801 -0.2574 -0.2334 -0.2508
   11SAPS   H5R 1375   3.830   1.874   2.714  0.0618 -0.1941 -0.4768
   11SAPS   C26 1376   4.014   1.940   2.788  0.3974 -0.8926  0.4868
   11SAPS   H6R 1377   4.050   1.961   2.686  0.2341 -0.5933  0.4908
   11SAPS   C27 1378   4.112   1.976   2.894 -0.3876 -0.7201  0.3286
   11SAPS   H7R 1379   4.065   2.000   2.992  3.9421  0.6931  2.3002
   11SAPS   H7S 1380   4.157   2.072   2.862 -2.2891 -0.4384 -1.7361
   11SAPS   C28 1381   4.218   1.865   2.891 -0.2233  0.8471  0.4612
   11SAPS   H8R 1382   4.250   1.824   2.793  1.6704  0.4114  1.2125
   11SAPS   C29 1383   4.259   1.805   3.002  0.4728  0.7503  0.2950
   11SAPS   H9R 1384   4.341   1.733   2.995  1.3421  1.7032  0.5456
   11SAPS  C210 1385   4.227   1.836   3.144  0.0602  0.7900 -0.2006
   11SAPS  H10R 1386   4.166   1.926   3.170 -0.8520 -0.2094  1.2779
   11SAPS  H10S 1387   4.323   1.852   3.196 -0.6974 -0.8874  1.8402
   11SAPS  C211 1388   4.174   1.714   3.209  0.2225  0.2391 -0.4497
   11SAPS  H11R 1389   4.136   1.633   3.146 -0.0371 -2.5552  3.0198
   11SAPS  C212 1390   4.174   1.687   3.343 -0.1910 -0.1988 -0.8247
   11SAPS  H12R 1391   4.136   1.589   3.376 -1.7103  0.3920 -0.7254
   11SAPS  C213 1392   4.229   1.785   3.444  0.2470  0.0301 -0.3473
   11SAPS  H13R 1393   4.194   1.890   3.440 -0.4269 -0.1588  0.3784
   11SAPS  H13S 1394   4.340   1.793   3.456  0.3145 -1.9192  0.7730
   11SAPS  C214 1395   4.171   1.732   3.578  0.1064  0.1940 -0.2867
   11SAPS  H14R 1396   4.104   1.645   3.579  0.9676 -0.4794 -0.8679
   11SAPS  C215 1397   4.181   1.786   3.704  1.1119  0.2647  0.1006
   11SAPS  H15R 1398   4.120   1.739   3.783  0.5881  0.1555 -0.3623
   11SAPS  C216 1399   4.261   1.907   3.745 -0.3937 -0.1110 -0.0606
   11SAPS  H16R 1400   4.252   1.982   3.664  1.6646  0.9548  0.6257
   11SAPS  H16S 1401   4.365   1.882   3.776 -0.3112  0.2363 -0.0581
   11SAPS  C217 1402   4.189   1.955   3.874 -0.3828  0.3257 -0.4368
   11SAPS  H17R 1403   4.081   1.971   3.853 -0.4620 -0.7881 -0.9737
   11SAPS  H17S 1404   4.247   2.041   3.913  0.5355 -1.6480  3.0124
   11SAPS  C218 1405   4.200   1.859   3.989  0.6709  0.1157 -0.5374
   11SAPS  H18R 1406   4.295   1.804   4.006  0.2843 -0.3753  0.0509
   11SAPS  H18S 1407   4.128   1.775   3.983 -0.6317  1.2400 -1.4675
   11SAPS  C219 1408   4.171   1.926   4.127 -1.1633 -0.2953  0.1998
   11SAPS  H19R 1409   4.068   1.965   4.128 -1.5559 -1.3007  0.2586
   11SAPS  H19S 1410   4.244   2.010   4.129  0.0900 -1.3541  1.2397
   11SAPS  C220 1411   4.191   1.831   4.248 -0.2680  1.0853 -0.5885
   11SAPS  H20R 1412   4.180   1.888   4.342  1.0093  0.7719 -0.2309
   11SAPS  H20S 1413   4.298   1.801   4.248 -0.6139 -0.2412 -0.4395
   11SAPS  H20T 1414   4.130   1.740   4.225  0.3260  1.3697 -3.6708
   11SAPS   C33 1415   4.478   1.262   3.203 -0.1583 -0.1800 -0.3317
   11SAPS   H3X 1416   4.582   1.292   3.228  0.7914 -2.6562 -1.0032
   11SAPS   H3Y 1417   4.462   1.154   3.223  0.1380 -0.0548  0.6336
   11SAPS   C34 1418   4.377   1.353   3.274 -0.7744 -0.2798 -0.9002
   11SAPS   H4X 1419   4.280   1.338   3.222  0.6811 -1.5317 -3.4234
   11SAPS   H4Y 1420   4.409   1.459   3.267  0.2055 -0.5308 -0.3983
   11SAPS   C35 1421   4.355   1.319   3.421  0.3071 -0.6679  0.3517
   11SAPS   H5X 1422   4.384   1.214   3.438 -1.0628 -1.0082  0.7262
   11SAPS   H5Y 1423   4.253   1.347   3.455  1.3705  1.7576  1.8250
   11SAPS   C36 1424   4.441   1.417   3.512  0.7079  0.5441  0.2916
   11SAPS   H6X 1425   4.414   1.522   3.491  0.9558  0.5262 -0.1196
   11SAPS   H6Y 1426   4.550   1.404   3.496  0.9085 -0.1983  1.9959
   11SAPS   C37 1427   4.433   1.383   3.658 -0.1263 -0.0723 -0.0491
   11SAPS   H7X 1428   4.523   1.431   3.702 -0.8295  1.9388 -0.6743
   11SAPS   H7Y 1429   4.450   1.274   3.665 -1.7960 -0.4810 -1.6039
   11SAPS   C38 1430   4.315   1.437   3.735 -0.1173  0.3615  0.5328
   11SAPS   H8X 1431   4.228   1.415   3.669 -0.7221 -0.4315  1.5541
   11SAPS   H8Y 1432   4.324   1.548   3.743 -1.2529  0.6250 -1.2121
   11SAPS   C39 1433   4.289   1.381   3.875 -0.1518 -0.4215  0.2047
   11SAPS   H9X 1434   4.276   1.271   3.873 -0.7630 -0.4917  3.3344
   11SAPS   H9Y 1435   4.198   1.433   3.912  1.0089  1.4576  0.5806
   11SAPS  C310 1436   4.395   1.416   3.974 -0.6709 -0.5964 -0.1215
   11SAPS  H10X 1437   4.408   1.526   3.986 -3.0017 -0.1757 -0.7874
   11SAPS  H10Y 1438   4.489   1.362   3.953  1.3157  2.6109 -0.1993
   11SAPS  C311 1439   4.364   1.361   4.120  0.0184  0.0695 -0.0248
   11SAPS  H11X 1440   4.359   1.251   4.108  0.2280  0.1664 -1.0306
   11SAPS  H11Y 1441   4.261   1.390   4.150  0.4145  1.9356 -0.3581
   11SAPS  C312 1442   4.458   1.409   4.239  0.3005 -1.0492 -0.1529
   11SAPS  H12X 1443   4.499   1.510   4.215 -3.9189  1.2181  1.1572
   11SAPS  H12Y 1444   4.552   1.350   4.239  2.5588  2.2528  0.5580
   11SAPS  C313 1445   4.378   1.398   4.375 -0.4376  0.1751 -0.0133
   11SAPS  H13X 1446   4.354   1.292   4.395  1.6934 -0.1040  1.3468
   11SAPS  H13Y 1447   4.291   1.465   4.359 -0.2992 -0.1988 -2.8725
   11SAPS  C314 1448   4.468   1.439   4.494  0.7618 -0.1308  0.5333
   11SAPS  H14X 1449   4.503   1.542   4.475  0.2758 -0.3283 -1.7874
   11SAPS  H14Y 1450   4.563   1.382   4.500  1.3732  0.9888  1.8216
   11SAPS  C315 1451   4.390   1.443   4.623 -0.2865  0.4397  0.3015
   11SAPS  H15X 1452   4.348   1.342   4.644  0.5381 -0.0127 -0.1815
   11SAPS  H15Y 1453   4.308   1.514   4.597 -0.0964  0.0429 -1.4919
   11SAPS  C316 1454   4.460   1.508   4.748  0.1620 -0.3644 -0.4729
   11SAPS  H16X 1455   4.486   1.615   4.731 -1.1924 -0.0446 -0.6300
   11SAPS  H16Y 1456   4.547   1.446   4.777  3.3520  3.0992 -1.7917
   11SAPS  C317 1457   4.363   1.508   4.861 -0.4035 -0.2758  0.6041
   11SAPS  H17X 1458   4.328   1.407   4.891 -1.6683 -0.1298 -0.2692
   11SAPS  H17Y 1459   4.265   1.555   4.835  0.2744  0.2313 -1.1782
   11SAPS  C318 1460   4.416   1.574   4.983  0.1165  0.2612 -0.7779
   11SAPS  H18X 1461   4.395   1.684   4.983  0.1232  0.3126  1.7453
   11SAPS  H18Y 1462   4.523   1.549   4.999  1.0801  3.0260 -2.1710
   11SAPS  H18Z 1463   4.354   1.537   5.067  1.5984  1.7212  1.0353
   12SAPS     N 1464   3.888   0.846   2.117  0.7754 -0.0378  0.0923
   12SAPS   HN1 1465   3.874   0.856   2.014  1.5039 -0.6631 -0.0750
   12SAPS   HN2 1466   3.990   0.835   2.136  0.5824 -0.5394  0.8299
   12SAPS   HN3 1467   3.829   0.763   2.135 -1.3022  1.0854 -1.0609
   12SAPS   C12 1468   3.843   0.982   2.170 -0.6385  0.5101  0.4326
   12SAPS  H12A 1469   3.879   0.990   2.271  1.5374 -1.3782 -0.1149
   12SAPS   C13 1470   3.910   1.100   2.092  0.5462 -0.2754  0.2839
   12SAPS  O13A 1471   4.006   1.077   2.014  0.0403  0.2167  0.1308
   12SAPS  O13B 1472   3.898   1.211   2.151 -0.3040 -0.5614  0.1535
   12SAPS   C11 1473   3.687   0.994   2.157  0.6716 -0.0103 -0.0314
   12SAPS  H11A 1474   3.657   0.981   2.051  2.5051 -0.0613 -0.5695
   12SAPS  H11B 1475   3.669   1.094   2.202  1.2445  0.8895 -1.7340
   12SAPS     P 1476   3.483   0.844   2.219 -0.4044  0.1763 -0.2612
   12SAPS   O13 1477   3.423   0.900   2.097  0.2734  0.6642 -0.2697
   12SAPS   O14 1478   3.494   0.701   2.227 -0.1482 -0.4516 -0.5805
   12SAPS   O12 1479   3.628   0.903   2.246  0.2110  0.0893 -0.5360
   12SAPS   O11 1480   3.398   0.897   2.344 -0.2168 -0.7464  0.2419
   12SAPS    C1 1481   3.257   0.896   2.341 -0.5941  0.8486  0.3685
   12SAPS    HA 1482   3.222   1.001   2.330  0.8829  1.4472  1.1462
   12SAPS    HB 1483   3.213   0.829   2.265  0.7355 -1.7144  1.7183
   12SAPS    C2 1484   3.190   0.832   2.471 -0.6094  1.1223  0.0488
   12SAPS    HS 1485   3.082   0.812   2.456 -0.2971 -1.6864  0.8371
   12SAPS   O21 1486   3.228   0.898   2.587  0.1586  0.3024 -0.3848
   12SAPS   C21 1487   3.127   0.930   2.669 -0.3352 -0.6898  0.7123
   12SAPS   O22 1488   3.006   0.913   2.654  0.5967 -1.0369 -0.2321
   12SAPS   C22 1489   3.184   1.021   2.779 -0.2547 -0.0265 -0.1556
   12SAPS   H2R 1490   3.282   0.976   2.805  0.9922  1.8962 -1.2915
   12SAPS   H2S 1491   3.201   1.121   2.735  0.5421 -0.3097 -0.5229
   12SAPS    C3 1492   3.246   0.679   2.488 -0.0521  0.1229 -0.6627
   12SAPS    HX 1493   3.355   0.684   2.468  0.1489  1.5978  0.6110
   12SAPS    HY 1494   3.191   0.624   2.409  1.2871  0.3834 -1.8161
   12SAPS   O31 1495   3.216   0.638   2.625  0.4230 -0.3816 -0.7629
   12SAPS   C31 1496   3.267   0.525   2.662 -0.4993  0.8703  0.0392
   12SAPS   O32 1497   3.338   0.451   2.598 -0.5782  0.1648 -0.1962
   12SAPS   C32 1498   3.218   0.498   2.807  0.4742  1.0997 -0.2729
   12SAPS   H2X 1499   3.109   0.521   2.812  0.4035  0.7886 -0.3649
   12SAPS   H2Y 1500   3.275   0.563   2.877  0.0664  0.2869  0.8476
   12SAPS   C23 1501   3.097   1.032   2.906  0.7221 -0.8294  0.3764
   12SAPS   H3R 1502   2.998   1.064   2.869  1.1245 -1.6339 -1.4969
   12SAPS   H3S 1503   3.146   1.104   2.975 -1.8932  2.1625 -0.6753
   12SAPS   C24 1504   3.098   0.907   2.996 -0.4580  0.4220  0.8239
   12SAPS   H4R 1505   3.195   0.896   3.048 -0.8150  2.2792  1.9938
   12SAPS   H4S 1506   3.080   0.809   2.947  2.4124  1.4981 -2.8162
   12SAPS   C25 1507   2.995   0.935   3.096  0.2617  0.1215 -0.0511
   12SAPS   H5R 1508   2.895   0.941   3.050 -0.0660  2.4311  0.8213
   12SAPS   C26 1509   2.999   0.926   3.229  0.1922  0.5758  0.2133
   12SAPS   H6R 1510   2.905   0.949   3.280 -0.7111 -1.7061 -0.3097
   12SAPS   C27 1511   3.129   0.912   3.301 -0.2027  0.1842  0.0933
   12SAPS   H7R 1512   3.118   0.953   3.404 -3.5206 -1.1167  0.3719
   12SAPS   H7S 1513   3.204   0.974   3.246  0.9392 -2.9942 -2.1874
   12SAPS   C28 1514   3.179   0.768   3.304  0.3023 -1.0744 -0.1227
   12SAPS   H8R 1515   3.230   0.745   3.209  2.7912  0.3158  0.7954
   12SAPS   C29 1516   3.162   0.678   3.403 -0.2510  0.1557 -0.4341
   12SAPS   H9R 1517   3.197   0.576   3.382 -2.0773 -0.2456 -1.6950
   12SAPS  C210 1518   3.102   0.694   3.539  0.5874  0.3520 -0.7053
   12SAPS  H10R 1519   3.026   0.614   3.555  0.5957  0.4921  0.1066
   12SAPS  H10S 1520   3.044   0.789   3.546 -0.7190 -0.4986  0.8959
   12SAPS  C211 1521   3.205   0.708   3.654 -0.5047  0.4488  0.0031
   12SAPS  H11R 1522   3.269   0.796   3.635  1.0086 -0.8716 -1.3608
   12SAPS  C212 1523   3.215   0.633   3.764  0.3661 -0.2151 -0.0026
   12SAPS  H12R 1524   3.287   0.656   3.844  0.4577  1.4923 -0.5301
   12SAPS  C213 1525   3.142   0.505   3.785 -0.0039  0.2981  0.0006
   12SAPS  H13R 1526   3.108   0.466   3.687  0.7875 -0.3310 -0.0342
   12SAPS  H13S 1527   3.050   0.523   3.845  1.2620 -0.7663  2.4004
   12SAPS  C214 1528   3.236   0.399   3.845 -0.0778 -0.8225  0.1293
   12SAPS  H14R 1529   3.298   0.351   3.767 -1.3928  1.7560 -2.7013
   12SAPS  C215 1530   3.237   0.354   3.964  0.4480  0.0337 -0.6160
   12SAPS  H15R 1531   3.307   0.272   3.986 -0.0699 -0.1239  0.5478
   12SAPS  C216 1532   3.146   0.386   4.089  0.0122  0.1726  0.5871
   12SAPS  H16R 1533   3.059   0.451   4.066  1.1327  1.1434 -1.0657
   12SAPS  H16S 1534   3.205   0.431   4.171 -1.0971  2.3257  0.2688
   12SAPS  C217 1535   3.086   0.253   4.149  0.2442 -0.4888  0.2569
   12SAPS  H17R 1536   3.015   0.218   4.070 -1.6899 -0.8296  2.0536
   12SAPS  H17S 1537   3.032   0.292   4.238 -0.3794 -2.9719  1.0238
   12SAPS  C218 1538   3.179   0.132   4.168  0.3020 -0.1539 -0.6403
   12SAPS  H18R 1539   3.255   0.174   4.238 -0.8289  0.9425 -0.0291
   12SAPS  H18S 1540   3.239   0.094   4.083  0.4224  0.5762 -0.8905
   12SAPS  C219 1541   3.119   0.012   4.241  0.0789  0.4858  0.1908
   12SAPS  H19R 1542   3.061   0.045   4.330 -0.3193 -1.9841  0.8997
   12SAPS  H19S 1543   3.206  -0.046   4.276  0.7144  1.3554  0.1010
   12SAPS  C220 1544   3.025  -0.075   4.155 -0.5502  0.4771  0.3312
   12SAPS  H20R 1545   2.988  -0.141   4.236  0.9952  1.0739  1.5535
   12SAPS  H20S 1546   3.073  -0.123   4.067  1.4750  0.9455  1.1268
   12SAPS  H20T 1547   2.937  -0.016   4.119  1.3528  2.9557 -0.5248
   12SAPS   C33 1548   3.234   0.355   2.856 -0.1707 -0.4122 -1.4365
   12SAPS   H3X 1549   3.213   0.281   2.776 -1.0279 -0.9418 -0.7546
   12SAPS   H3Y 1550   3.161   0.332   2.937  1.0825 -0.2114 -0.2029
   12SAPS   C34 1551   3.373   0.322   2.919  0.5519  0.1841  0.0266
   12SAPS   H4X 1552   3.458   0.352   2.854  0.6328  1.2308  0.5952
   12SAPS   H4Y 1553   3.379   0.211   2.930 -0.7350  0.1160  0.2605
   12SAPS   C35 1554   3.406   0.388   3.056 -0.3922  0.2766  0.2773
   12SAPS   H5X 1555   3.380   0.496   3.051  1.8495  0.8525  0.0027
   12SAPS   H5Y 1556   3.513   0.369   3.078 -0.3537  0.2032  0.0297
   12SAPS   C36 1557   3.328   0.319   3.165  0.4535  0.9918 -0.4861
   12SAPS   H6X 1558   3.322   0.212   3.136 -3.9248  1.1919 -0.9949
   12SAPS   H6Y 1559   3.223   0.354   3.175  0.4327  1.4700 -2.1125
   12SAPS   C37 1560   3.396   0.329   3.304  0.4104  0.3622 -0.2070
   12SAPS   H7X 1561   3.382   0.438   3.321 -1.0291  0.1502  0.0965
   12SAPS   H7Y 1562   3.503   0.309   3.279  0.1447  0.7921 -1.7915
   12SAPS   C38 1563   3.353   0.245   3.419 -0.3879  0.7825  0.2006
   12SAPS   H8X 1564   3.248   0.269   3.445 -0.8755 -1.7281  0.8156
   12SAPS   H8Y 1565   3.402   0.285   3.510  0.6872 -2.7429  1.3322
   12SAPS   C39 1566   3.370   0.091   3.410  0.3752  0.4840 -0.0977
   12SAPS   H9X 1567   3.470   0.052   3.381  0.9648  1.4833  0.5142
   12SAPS   H9Y 1568   3.303   0.058   3.329  0.2026 -1.4789  0.7985
   12SAPS  C310 1569   3.336   0.017   3.545  0.1835  0.2754  0.1387
   12SAPS  H10X 1570   3.362  -0.088   3.520  0.9965  0.4890  0.0590
   12SAPS  H10Y 1571   3.228   0.032   3.564  0.3630  1.1605  0.5394
   12SAPS  C311 1572   3.423   0.060   3.659  0.1944 -0.1986 -0.3749
   12SAPS  H11X 1573   3.382   0.150   3.710 -1.5946 -0.9392 -0.4297
   12SAPS  H11Y 1574   3.532   0.073   3.640  0.6521  0.6535  2.4220
   12SAPS  C312 1575   3.426  -0.048   3.769  0.1344  0.3008  0.2592
   12SAPS  H12X 1576   3.436  -0.149   3.724 -1.4980 -0.2460  1.0173
   12SAPS  H12Y 1577   3.327  -0.045   3.820  1.0624  0.9973  2.1277
   12SAPS  C313 1578   3.530  -0.012   3.877  0.6599  0.2098  0.1729
   12SAPS  H13X 1579   3.502   0.088   3.916 -0.8394  0.1215 -0.5962
   12SAPS  H13Y 1580   3.629   0.002   3.828  0.0223 -0.2863 -1.2969
   12SAPS  C314 1581   3.517  -0.120   3.988  0.2856 -0.2335 -0.6624
   12SAPS  H14X 1582   3.544  -0.214   3.935 -0.6771 -0.9950  0.1621
   12SAPS  H14Y 1583   3.413  -0.131   4.026  0.6589  2.2613  1.2961
   12SAPS  C315 1584   3.605  -0.094   4.109 -0.1992  0.3508 -1.0333
   12SAPS  H15X 1585   3.566  -0.002   4.159 -1.9751 -0.7829 -0.2035
   12SAPS  H15Y 1586   3.705  -0.071   4.067  0.2067 -2.6983 -2.0098
   12SAPS  C316 1587   3.609  -0.206   4.208  0.8301 -0.4317  0.5532
   12SAPS  H16X 1588   3.685  -0.197   4.289 -1.2639  1.8550  2.4046
   12SAPS  H16Y 1589   3.622  -0.304   4.158  0.4835  0.0296 -0.4672
   12SAPS  C317 1590   3.478  -0.210   4.300 -0.7970  0.3715 -0.7389
   12SAPS  H17X 1591   3.389  -0.218   4.234 -0.6177 -2.2759 -0.7561
   12SAPS  H17Y 1592   3.490  -0.108   4.343  1.2569  0.3449 -1.1208
   12SAPS  C318 1593   3.470  -0.318   4.402  0.0616  0.5612 -0.6465
   12SAPS  H18X 1594   3.364  -0.309   4.436 -0.0279  0.8551 -0.9985
   12SAPS  H18Y 1595   3.537  -0.305   4.490 -2.6102  0.8259  1.5193
   12SAPS  H18Z 1596   3.485  -0.414   4.349 -1.8916  0.6936 -1.5469
   13SAPS     N 1597   5.515   0.020   1.976 -0.1726  0.1190  0.2061
   13SAPS   HN1 1598   5.608   0.062   1.996  0.0374 -0.7027  1.0578
   13SAPS   HN2 1599   5.542  -0.058   1.914  0.2346  0.7274 -0.3894
   13SAPS   HN3 1600   5.458   0.091   1.925 -0.5210  0.1020  0.5613
   13SAPS   C12 1601   5.443  -0.039   2.084 -0.6834  0.0763  0.3304
   13SAPS  H12A 1602   5.429   0.042   2.154 -0.0328  0.9484 -0.5243
   13SAPS   C13 1603   5.310  -0.121   2.040  0.2489 -0.5299 -0.4917
   13SAPS  O13A 1604   5.289  -0.138   1.916 -0.5778  0.4654  0.5562
   13SAPS  O13B 1605   5.249  -0.188   2.128  0.5550 -0.1400  0.1370
   13SAPS   C11 1606   5.528  -0.147   2.153 -0.7082 -0.1198  0.4125
   13SAPS  H11A 1607   5.567  -0.215   2.073  0.7309  0.0231  0.9631
   13SAPS  H11B 1608   5.474  -0.199   2.234 -3.0111  3.5235  1.4500
   13SAPS     P 1609   5.738  -0.146   2.323 -0.1707 -0.2136 -0.1311
   13SAPS   O13 1610   5.810  -0.263   2.275  0.4217  0.1860  0.2712
   13SAPS   O14 1611   5.812  -0.020   2.367  0.7765 -0.1801  0.5774
   13SAPS   O12 1612   5.657  -0.097   2.198 -0.0222 -0.2916  0.2572
   13SAPS   O11 1613   5.628  -0.188   2.430 -0.4333 -0.3866  0.1450
   13SAPS    C1 1614   5.541  -0.087   2.498 -0.3445  0.3704  0.4392
   13SAPS    HA 1615   5.529   0.011   2.447 -0.2709  1.1722  1.9207
   13SAPS    HB 1616   5.443  -0.136   2.516 -0.5148  1.1268  1.7592
   13SAPS    C2 1617   5.596  -0.071   2.647  0.2073 -0.7236 -0.1004
   13SAPS    HS 1618   5.695  -0.023   2.635 -0.3020  0.5983  0.7905
   13SAPS   O21 1619   5.602  -0.197   2.708  0.6225  0.3414  0.1244
   13SAPS   C21 1620   5.718  -0.260   2.720 -0.8586  0.3827  0.0676
   13SAPS   O22 1621   5.828  -0.216   2.709 -0.0125  0.8283 -0.0117
   13SAPS   C22 1622   5.694  -0.399   2.765 -0.2667  0.0343  0.1860
   13SAPS   H2R 1623   5.623  -0.392   2.850  0.8108 -1.2006  1.2448
   13SAPS   H2S 1624   5.651  -0.464   2.685 -0.7960 -1.0360  1.3098
   13SAPS    C3 1625   5.507   0.027   2.734  0.5028 -0.0026  0.6793
   13SAPS    HX 1626   5.417  -0.028   2.768  0.7847 -0.8368  0.1024
   13SAPS    HY 1627   5.466   0.105   2.666  2.5977  1.2145  0.7215
   13SAPS   O31 1628   5.580   0.089   2.843 -0.0409  0.4295  0.5529
   13SAPS   C31 1629   5.546   0.048   2.964  0.1849  0.0852 -0.2881
   13SAPS   O32 1630   5.461  -0.031   2.998  0.1431  0.4810 -0.0984
   13SAPS   C32 1631   5.656   0.111   3.057 -0.3300 -1.0636 -0.9136
   13SAPS   H2X 1632   5.687   0.204   3.006 -2.5967  1.0278  1.2354
   13SAPS   H2Y 1633   5.739   0.037   3.051 -0.0489 -1.1663  2.3083
   13SAPS   C23 1634   5.813  -0.491   2.817  0.3163  0.0754  0.2881
   13SAPS   H3R 1635   5.876  -0.434   2.888  2.5055 -2.4184  0.5062
   13SAPS   H3S 1636   5.865  -0.527   2.726 -0.1573  1.2885 -0.4789
   13SAPS   C24 1637   5.763  -0.615   2.893 -0.8761  0.0883  1.0414
   13SAPS   H4R 1638   5.681  -0.661   2.833 -0.5308 -0.3190  0.8784
   13SAPS   H4S 1639   5.726  -0.579   2.991 -0.9576  0.1802  0.9775
   13SAPS   C25 1640   5.865  -0.724   2.914 -0.4193 -0.3440 -0.4502
   13SAPS   H5R 1641   5.949  -0.723   2.843 -0.6151 -3.1864 -0.8418
   13SAPS   C26 1642   5.874  -0.808   3.018  0.6141 -0.0702 -0.3776
   13SAPS   H6R 1643   5.970  -0.858   3.040  1.2034  1.2219  0.0694
   13SAPS   C27 1644   5.767  -0.830   3.124  0.2497  0.4504  0.2937
   13SAPS   H7R 1645   5.684  -0.755   3.120  1.0433  1.2960 -0.8117
   13SAPS   H7S 1646   5.806  -0.802   3.225 -2.0825  2.0515  0.8455
   13SAPS   C28 1647   5.721  -0.971   3.109  0.0265 -0.0932  0.7651
   13SAPS   H8R 1648   5.638  -0.978   3.038  1.1861 -0.9463 -0.5673
   13SAPS   C29 1649   5.768  -1.083   3.171 -0.3769  0.0592  0.8439
   13SAPS   H9R 1650   5.721  -1.179   3.145  1.1970 -0.4509 -0.2327
   13SAPS  C210 1651   5.891  -1.100   3.260  0.6446 -1.0452 -0.6403
   13SAPS  H10R 1652   5.942  -1.003   3.282  2.1254 -2.1318  0.9416
   13SAPS  H10S 1653   5.965  -1.161   3.204  3.8054  1.4409  0.4945
   13SAPS  C211 1654   5.858  -1.168   3.390  0.0765 -0.5823 -1.0243
   13SAPS  H11R 1655   5.879  -1.276   3.396  1.4677 -0.3692 -1.6426
   13SAPS  C212 1656   5.817  -1.099   3.507 -0.5247  0.0883  0.1842
   13SAPS  H12R 1657   5.776  -1.149   3.596  1.1592 -0.5077  0.6761
   13SAPS  C213 1658   5.783  -0.953   3.514 -0.2460  0.3371 -0.5401
   13SAPS  H13R 1659   5.673  -0.943   3.521 -0.0686  0.9764  2.9624
   13SAPS  H13S 1660   5.808  -0.897   3.422 -0.2185  2.1848  0.5502
   13SAPS  C214 1661   5.848  -0.893   3.633  0.5650  0.2424 -0.6800
   13SAPS  H14R 1662   5.955  -0.872   3.618  0.2945  0.2650 -2.8221
   13SAPS  C215 1663   5.785  -0.871   3.753 -0.3331  0.5573 -0.0515
   13SAPS  H15R 1664   5.841  -0.832   3.838 -0.6353  1.0382 -0.0680
   13SAPS  C216 1665   5.643  -0.903   3.778 -0.4274  0.3906  0.3667
   13SAPS  H16R 1666   5.635  -0.989   3.848 -0.6462 -0.2130 -0.3842
   13SAPS  H16S 1667   5.590  -0.941   3.688  3.8503 -3.2801 -0.9994
   13SAPS  C217 1668   5.580  -0.771   3.833 -0.4541 -0.1774 -0.1445
   13SAPS  H17R 1669   5.473  -0.801   3.834 -0.5448  0.1336  1.0160
   13SAPS  H17S 1670   5.586  -0.676   3.777 -0.4351 -0.0881  0.0074
   13SAPS  C218 1671   5.625  -0.730   3.977  0.3455 -0.5767  0.1617
   13SAPS  H18R 1672   5.732  -0.706   3.993 -0.1501  0.6991  1.8317
   13SAPS  H18S 1673   5.597  -0.812   4.047 -3.0387  0.8337  0.6804
   13SAPS  C219 1674   5.563  -0.599   4.028 -0.0791  0.7126  0.2161
   13SAPS  H19R 1675   5.452  -0.607   4.037 -0.0393 -1.5024 -0.6177
   13SAPS  H19S 1676   5.571  -0.519   3.951 -0.0192 -0.0536 -0.5852
   13SAPS  C220 1677   5.636  -0.552   4.151  0.8438 -0.0403 -0.4751
   13SAPS  H20R 1678   5.747  -0.564   4.157  0.9289  0.9326  0.0491
   13SAPS  H20S 1679   5.604  -0.613   4.238  1.8081  2.7064  1.9489
   13SAPS  H20T 1680   5.615  -0.444   4.162 -1.7297 -0.3798 -1.3283
   13SAPS   C33 1681   5.596   0.139   3.196  0.0717 -0.4870 -0.4253
   13SAPS   H3X 1682   5.551   0.046   3.235  2.1469 -1.8025 -0.9954
   13SAPS   H3Y 1683   5.507   0.204   3.184  0.1274  0.1234  1.9381
   13SAPS   C34 1684   5.683   0.189   3.311 -0.4515  0.2501  1.0346
   13SAPS   H4X 1685   5.707   0.295   3.293  1.3650 -0.1685  0.8209
   13SAPS   H4Y 1686   5.770   0.120   3.307 -0.7374 -0.1198  1.0721
   13SAPS   C35 1687   5.610   0.177   3.445 -0.8369  0.2513  0.6421
   13SAPS   H5X 1688   5.682   0.182   3.529 -1.5645  0.1374  1.2733
   13SAPS   H5Y 1689   5.571   0.074   3.456 -1.1189  0.2430 -0.3175
   13SAPS   C36 1690   5.505   0.284   3.475 -0.1208  0.3358  0.7434
   13SAPS   H6X 1691   5.411   0.244   3.430 -0.3100  1.2101  0.3394
   13SAPS   H6Y 1692   5.525   0.381   3.424  1.4311 -0.8804 -1.1357
   13SAPS   C37 1693   5.480   0.303   3.626  0.1252  0.5347 -0.1610
   13SAPS   H7X 1694   5.473   0.202   3.671 -0.6827 -0.0174 -1.4673
   13SAPS   H7Y 1695   5.381   0.351   3.640 -0.0945 -0.0470  0.3078
   13SAPS   C38 1696   5.587   0.380   3.703 -0.6894 -0.7032 -0.6567
   13SAPS   H8X 1697   5.605   0.483   3.665  1.9518 -1.4864 -1.7873
   13SAPS   H8Y 1698   5.685   0.329   3.689 -0.2282 -1.0543  2.9327
   13SAPS   C39 1699   5.559   0.387   3.854  0.3036  0.0725 -0.9289
   13SAPS   H9X 1700   5.548   0.283   3.893 -0.2638  0.6804  0.6260
   13SAPS   H9Y 1701   5.455   0.421   3.872  0.2473  0.4695 -1.9541
   13SAPS  C310 1702   5.664   0.469   3.938 -0.1581  0.5158 -0.1275
   13SAPS  H10X 1703   5.683   0.568   3.892  0.6777  0.2203 -0.4446
   13SAPS  H10Y 1704   5.761   0.415   3.942  0.0857  0.9993  1.3737
   13SAPS  C311 1705   5.625   0.472   4.086  0.2930  0.1456  0.2638
   13SAPS  H11X 1706   5.540   0.542   4.098  1.8971  2.7298 -2.1665
   13SAPS  H11Y 1707   5.699   0.530   4.144  1.3701 -0.1892 -0.7359
   13SAPS  C312 1708   5.617   0.329   4.154 -0.2409  0.0505  0.6213
   13SAPS  H12X 1709   5.698   0.257   4.128  1.0502  1.0596  1.7265
   13SAPS  H12Y 1710   5.524   0.275   4.130  1.0767 -1.3146 -1.8810
   13SAPS  C313 1711   5.615   0.342   4.312  0.0801 -0.8658 -0.0996
   13SAPS  H13X 1712   5.566   0.248   4.344 -1.3658  0.1425  0.8123
   13SAPS  H13Y 1713   5.556   0.429   4.349  2.2038  0.3841  0.5308
   13SAPS  C314 1714   5.756   0.359   4.375  0.2833  0.0301 -0.0516
   13SAPS  H14X 1715   5.787   0.462   4.349  0.1322  0.5664  1.7793
   13SAPS  H14Y 1716   5.824   0.293   4.317 -0.7277 -0.0843 -1.1501
   13SAPS  C315 1717   5.759   0.335   4.526  0.7216  0.4435 -0.8680
   13SAPS  H15X 1718   5.861   0.324   4.571  0.5429 -0.0419 -0.5775
   13SAPS  H15Y 1719   5.699   0.244   4.546 -1.0747  1.8893  0.6173
   13SAPS  C316 1720   5.699   0.448   4.614 -0.1070  0.2034  1.1324
   13SAPS  H16X 1721   5.599   0.482   4.581  0.7849  2.0389  0.1772
   13SAPS  H16Y 1722   5.765   0.532   4.584 -2.5667  2.0709  0.5978
   13SAPS  C317 1723   5.708   0.406   4.759 -0.1349 -0.2822  0.3487
   13SAPS  H17X 1724   5.717   0.501   4.816  0.0645  1.2008 -1.9949
   13SAPS  H17Y 1725   5.795   0.340   4.778  0.8072 -0.0971 -2.6753
   13SAPS  C318 1726   5.574   0.325   4.792 -0.6385  0.3369  0.0358
   13SAPS  H18X 1727   5.549   0.252   4.712 -0.5492  0.6310 -0.2638
   13SAPS  H18Y 1728   5.495   0.400   4.811  3.2308  4.8751  0.0506
   13SAPS  H18Z 1729   5.603   0.268   4.883  2.7289  0.4336 -0.8192
   14SAPS     N 1730   6.039   1.392   2.106  0.2112 -0.0735 -0.3509
   14SAPS   HN1 1731   6.078   1.297   2.089  0.3400 -0.1046  0.0992
   14SAPS   HN2 1732   6.037   1.392   2.210 -1.7866 -3.5222 -0.2143
   14SAPS   HN3 1733   5.938   1.395   2.079 -0.8824 -2.5170  2.8492
   14SAPS   C12 1734   6.120   1.507   2.052 -0.2743 -0.2755  0.0575
   14SAPS  H12A 1735   6.215   1.498   2.103  0.0673 -0.8423 -0.6583
   14SAPS   C13 1736   6.131   1.516   1.894  0.2405  0.5485  0.5981
   14SAPS  O13A 1737   6.080   1.428   1.824 -0.2775  0.0860  0.0315
   14SAPS  O13B 1738   6.183   1.621   1.840  1.0143 -0.0938 -0.3605
   14SAPS   C11 1739   6.062   1.640   2.098  0.3196 -0.7665 -0.1993
   14SAPS  H11A 1740   5.953   1.636   2.075 -0.7500 -2.0514  4.2034
   14SAPS  H11B 1741   6.116   1.720   2.043 -0.6312 -1.4270 -2.2066
   14SAPS     P 1742   6.027   1.784   2.318 -0.1491  0.3392 -0.1213
   14SAPS   O13 1743   6.042   1.758   2.469  0.3180 -0.9876  0.1883
   14SAPS   O14 1744   6.100   1.896   2.268 -0.3721 -0.9688 -0.2673
   14SAPS   O12 1745   6.077   1.656   2.240  0.3892 -0.0491 -0.4414
   14SAPS   O11 1746   5.880   1.807   2.258 -0.4792  0.3851  0.1317
   14SAPS    C1 1747   5.778   1.699   2.259 -0.6376  0.1930  0.0547
   14SAPS    HA 1748   5.724   1.704   2.162 -2.0350  0.1473  0.8062
   14SAPS    HB 1749   5.821   1.597   2.259 -1.1394 -0.0773 -2.0086
   14SAPS    C2 1750   5.671   1.704   2.369 -0.2650  0.1470 -0.5816
   14SAPS    HS 1751   5.626   1.804   2.352  0.1211  0.3742 -0.3037
   14SAPS   O21 1752   5.738   1.684   2.496 -0.6982 -0.3830  0.0792
   14SAPS   C21 1753   5.687   1.753   2.593 -0.3360  0.0519 -0.6225
   14SAPS   O22 1754   5.579   1.818   2.577 -0.6905 -0.4429 -0.3088
   14SAPS   C22 1755   5.774   1.724   2.722  0.0513 -0.2947  0.0609
   14SAPS   H2R 1756   5.756   1.618   2.749 -0.8299 -0.1665  0.0155
   14SAPS   H2S 1757   5.880   1.745   2.696 -0.4230 -0.1924 -2.0420
   14SAPS    C3 1758   5.565   1.585   2.355  0.1966 -0.0459  0.1784
   14SAPS    HX 1759   5.612   1.486   2.371 -0.1470 -0.2552 -0.1000
   14SAPS    HY 1760   5.545   1.589   2.246  1.1374 -1.5871 -0.0768
   14SAPS   O31 1761   5.457   1.592   2.442 -0.0502 -0.5281  0.3719
   14SAPS   C31 1762   5.366   1.680   2.400 -0.5574  0.1372 -0.1244
   14SAPS   O32 1763   5.370   1.748   2.300  0.1893  0.0127  0.2803
   14SAPS   C32 1764   5.260   1.690   2.510  0.0940  0.3774  0.0174
   14SAPS   H2X 1765   5.310   1.675   2.608  1.2358 -0.3129 -0.6539
   14SAPS   H2Y 1766   5.200   1.597   2.498  2.0267 -0.7155 -1.7260
   14SAPS   C23 1767   5.734   1.818   2.838 -0.0499 -0.8062 -0.4230
   14SAPS   H3R 1768   5.748   1.917   2.788  3.7206 -2.6920 -3.7018
   14SAPS   H3S 1769   5.820   1.805   2.907  0.4361  1.0399 -0.6221
   14SAPS   C24 1770   5.612   1.794   2.924 -0.2172  0.1220 -0.3559
   14SAPS   H4R 1771   5.610   1.695   2.974  0.0383  0.8999  1.2707
   14SAPS   H4S 1772   5.516   1.794   2.868 -0.8093  0.5870  0.6311
   14SAPS   C25 1773   5.606   1.897   3.027  0.0668  0.0824 -0.0491
   14SAPS   H5R 1774   5.632   1.867   3.130 -1.4585  0.5817  0.5108
   14SAPS   C26 1775   5.537   2.012   3.019  0.2172 -0.6774  0.2855
   14SAPS   H6R 1776   5.548   2.087   3.099 -1.3098 -0.1866  0.0706
   14SAPS   C27 1777   5.455   2.058   2.907 -0.4515 -0.1467  0.7959
   14SAPS   H7R 1778   5.360   2.094   2.952 -1.6468 -2.3389  0.1599
   14SAPS   H7S 1779   5.428   1.973   2.841  1.5073 -0.0509 -0.2109
   14SAPS   C28 1780   5.520   2.162   2.814 -0.0581 -0.3372 -0.1266
   14SAPS   H8R 1781   5.620   2.137   2.774  1.5107  0.7025  2.8127
   14SAPS   C29 1782   5.480   2.281   2.774  0.3552 -0.3513  0.1531
   14SAPS   H9R 1783   5.540   2.346   2.709  0.3018 -0.4525  0.0024
   14SAPS  C210 1784   5.351   2.347   2.816  0.0598 -0.7618 -1.8552
   14SAPS  H10R 1785   5.292   2.285   2.887 -1.5973  0.7786 -1.7934
   14SAPS  H10S 1786   5.284   2.357   2.728 -0.8339  0.1673 -1.1094
   14SAPS  C211 1787   5.382   2.481   2.879 -0.3721 -0.1193  0.0823
   14SAPS  H11R 1788   5.403   2.566   2.812  2.4018 -0.7406  0.0710
   14SAPS  C212 1789   5.420   2.506   3.004 -0.3330  0.5237  0.2545
   14SAPS  H12R 1790   5.429   2.614   3.021  0.3988  0.5406 -0.2098
   14SAPS  C213 1791   5.428   2.413   3.124 -0.5252 -0.2425  0.0491
   14SAPS  H13R 1792   5.478   2.473   3.203  1.4296  2.7129 -3.1362
   14SAPS  H13S 1793   5.508   2.338   3.106  1.9754  1.9645  1.1665
   14SAPS  C214 1794   5.294   2.357   3.169 -0.2865 -0.5041  0.1155
   14SAPS  H14R 1795   5.268   2.266   3.114 -0.3237 -1.4132  1.5763
   14SAPS  C215 1796   5.225   2.396   3.277  0.3608 -0.4328  0.2231
   14SAPS  H15R 1797   5.131   2.342   3.301 -0.3363  0.1027 -1.2013
   14SAPS  C216 1798   5.245   2.527   3.344  0.1788  0.5790 -0.6500
   14SAPS  H16R 1799   5.298   2.605   3.285 -1.5404  0.5607 -2.3349
   14SAPS  H16S 1800   5.306   2.520   3.436  0.3617 -1.3627 -0.8791
   14SAPS  C217 1801   5.114   2.595   3.382 -0.4936  0.0739  0.1342
   14SAPS  H17R 1802   5.036   2.519   3.406 -0.7688 -0.2078 -1.5182
   14SAPS  H17S 1803   5.061   2.643   3.297 -2.9105  1.8255  2.4312
   14SAPS  C218 1804   5.105   2.705   3.489  0.1666  0.6035  0.3013
   14SAPS  H18R 1805   5.015   2.762   3.458  1.4513  1.4057 -2.1992
   14SAPS  H18S 1806   5.191   2.776   3.483 -0.8096  1.8773  0.9332
   14SAPS  C219 1807   5.105   2.647   3.631 -0.1478  0.6970 -0.7837
   14SAPS  H19R 1808   5.202   2.613   3.672 -1.4492 -0.5102  1.5660
   14SAPS  H19S 1809   5.038   2.558   3.627 -0.1349  0.7383 -3.8284
   14SAPS  C220 1810   5.053   2.752   3.731  0.3301 -0.2181  0.3778
   14SAPS  H20R 1811   5.105   2.850   3.717  0.3927 -0.4704 -1.3418
   14SAPS  H20S 1812   5.069   2.726   3.838  1.4434 -0.8008  0.0783
   14SAPS  H20T 1813   4.943   2.764   3.718  0.0631  0.6336  2.7629
   14SAPS   C33 1814   5.189   1.822   2.507 -0.1947 -0.3692  0.7601
   14SAPS   H3X 1815   5.137   1.833   2.410  2.5285 -0.6883 -0.8250
   14SAPS   H3Y 1816   5.268   1.899   2.522  1.7582 -2.5035  2.2642
   14SAPS   C34 1817   5.083   1.831   2.618 -0.2420  0.3706  1.1552
   14SAPS   H4X 1818   5.048   1.727   2.635  0.5237 -0.4919 -1.9794
   14SAPS   H4Y 1819   4.995   1.895   2.594 -0.3826  1.1453  3.4156
   14SAPS   C35 1820   5.149   1.870   2.747 -0.7780 -0.1630 -0.0520
   14SAPS   H5X 1821   5.189   1.974   2.742  3.1085 -1.4460  0.9797
   14SAPS   H5Y 1822   5.232   1.804   2.782 -0.3747  0.9645  1.1993
   14SAPS   C36 1823   5.042   1.849   2.861 -0.8807  0.3501 -0.4476
   14SAPS   H6X 1824   5.010   1.744   2.848  0.6186  0.1856 -3.4089
   14SAPS   H6Y 1825   4.951   1.911   2.843 -0.7520  0.8045  0.3856
   14SAPS   C37 1826   5.109   1.866   2.996 -0.2855  0.1869 -0.0609
   14SAPS   H7X 1827   5.024   1.872   3.067 -0.9908  1.2131 -0.9707
   14SAPS   H7Y 1828   5.166   1.961   3.009 -0.8136  0.2000  2.7854
   14SAPS   C38 1829   5.202   1.744   3.049  0.2385 -0.8808  0.7915
   14SAPS   H8X 1830   5.289   1.730   2.981 -0.2076 -0.9196  0.2181
   14SAPS   H8Y 1831   5.145   1.652   3.024  0.7198 -1.0860  0.4233
   14SAPS   C39 1832   5.253   1.737   3.186  0.4090 -0.0907 -0.2996
   14SAPS   H9X 1833   5.317   1.827   3.200 -0.3234  0.5098 -0.7228
   14SAPS   H9Y 1834   5.312   1.643   3.185  1.2403  0.3835 -2.8113
   14SAPS  C310 1835   5.147   1.739   3.293 -0.1640 -0.0209  0.5907
   14SAPS  H10X 1836   5.077   1.654   3.274 -1.5831  0.8174  1.8018
   14SAPS  H10Y 1837   5.081   1.828   3.293  0.1100  0.1816  0.0287
   14SAPS  C311 1838   5.197   1.690   3.433  0.3373 -0.4330 -0.6888
   14SAPS  H11X 1839   5.239   1.587   3.430 -0.6668 -0.8570 -0.4448
   14SAPS  H11Y 1840   5.112   1.683   3.504  0.3887 -0.8179 -0.6657
   14SAPS  C312 1841   5.318   1.763   3.499  0.6870 -0.0164  0.5447
   14SAPS  H12X 1842   5.290   1.866   3.530 -0.7351 -0.3162  0.3480
   14SAPS  H12Y 1843   5.394   1.784   3.421 -0.4315  0.1451 -0.5329
   14SAPS  C313 1844   5.382   1.692   3.620 -0.2562  0.1890 -0.3150
   14SAPS  H13X 1845   5.443   1.764   3.679  0.6497  0.9919 -2.1691
   14SAPS  H13Y 1846   5.447   1.615   3.574  0.8527 -0.4708  2.1940
   14SAPS  C314 1847   5.288   1.617   3.729 -0.3997 -0.1503 -0.5894
   14SAPS  H14X 1848   5.351   1.582   3.814 -1.9249 -1.3577  0.0894
   14SAPS  H14Y 1849   5.240   1.525   3.691 -1.9990 -1.2227  3.4984
   14SAPS  C315 1850   5.181   1.709   3.786 -0.1177  0.1696  0.4386
   14SAPS  H15X 1851   5.112   1.647   3.847  1.7871 -0.9032  1.5850
   14SAPS  H15Y 1852   5.136   1.764   3.700 -1.2820 -0.9691  0.2842
   14SAPS  C316 1853   5.242   1.812   3.883 -0.5086  0.2143  0.4580
   14SAPS  H16X 1854   5.310   1.877   3.825  1.6488 -0.7779  1.7585
   14SAPS  H16Y 1855   5.306   1.760   3.958 -0.0739 -1.7295 -1.1862
   14SAPS  C317 1856   5.140   1.900   3.961  0.3635  0.5918  0.8862
   14SAPS  H17X 1857   5.065   1.835   4.009  0.5531 -0.5067 -0.2396
   14SAPS  H17Y 1858   5.083   1.963   3.889  1.1191  1.5385  1.0820
   14SAPS  C318 1859   5.205   1.997   4.060  0.7025 -0.4182 -0.1592
   14SAPS  H18X 1860   5.150   2.093   4.060 -0.1131 -0.8689 -0.7549
   14SAPS  H18Y 1861   5.307   2.018   4.021  0.7867  0.8934  0.7092
   14SAPS  H18Z 1862   5.214   1.952   4.161  2.7531  2.4576  1.0830
   15SAPS     N 1863   3.844   1.753   1.968  0.1218 -0.0088  0.4396
   15SAPS   HN1 1864   3.764   1.774   1.906  1.0724 -1.2608 -1.3029
   15SAPS   HN2 1865   3.887   1.662   1.940 -0.9636  0.0430 -1.5843
   15SAPS   HN3 1866   3.801   1.739   2.062  0.2719 -0.9932  0.3704
   15SAPS   C12 1867   3.947   1.863   1.967  0.2047  0.1681  0.0690
   15SAPS  H12A 1868   4.034   1.830   2.023 -0.1590  0.5163  0.8658
   15SAPS   C13 1869   3.989   1.902   1.820  0.1730 -0.7307 -0.2955
   15SAPS  O13A 1870   3.934   1.852   1.726  0.2584  0.3234  0.5742
   15SAPS  O13B 1871   4.063   2.004   1.808 -0.7331  0.7160  0.3368
   15SAPS   C11 1872   3.896   1.997   2.024 -0.1236 -0.6066 -0.7238
   15SAPS  H11A 1873   3.800   2.024   1.974 -0.1774 -1.0943 -0.8862
   15SAPS  H11B 1874   3.969   2.078   2.003  1.0720 -1.3090  0.5161
   15SAPS     P 1875   3.990   2.032   2.272  0.2743  0.0766  0.1577
   15SAPS   O13 1876   4.002   1.929   2.377 -0.4944 -0.2457  0.0475
   15SAPS   O14 1877   4.113   2.066   2.197 -0.6389  0.0656  0.0833
   15SAPS   O12 1878   3.875   2.002   2.164  0.5658  0.5795  0.1135
   15SAPS   O11 1879   3.938   2.170   2.327 -0.3019  0.3219  0.9523
   15SAPS    C1 1880   3.933   2.203   2.463  0.1410 -0.0111  0.5570
   15SAPS    HA 1881   3.847   2.268   2.488  1.1938  2.2245 -1.2733
   15SAPS    HB 1882   3.932   2.114   2.530  3.7159  0.9598  2.1524
   15SAPS    C2 1883   4.062   2.286   2.519 -0.2512  0.8572  0.0811
   15SAPS    HS 1884   4.080   2.335   2.420  0.5969 -0.1969 -0.2963
   15SAPS   O21 1885   4.175   2.203   2.545  0.3756 -0.0734  0.5467
   15SAPS   C21 1886   4.282   2.270   2.583 -0.0432 -0.2730  0.2201
   15SAPS   O22 1887   4.294   2.392   2.568  0.4010 -0.0829  0.0420
   15SAPS   C22 1888   4.386   2.184   2.650  0.2316 -0.0174 -0.1903
   15SAPS   H2R 1889   4.344   2.097   2.705 -3.2906  0.9864 -1.0389
   15SAPS   H2S 1890   4.446   2.147   2.564  0.0737  0.8595 -0.6919
   15SAPS    C3 1891   4.018   2.379   2.631  0.6443  0.3747  0.1931
   15SAPS    HX 1892   3.926   2.432   2.602  0.8924  0.6700 -0.0537
   15SAPS    HY 1893   4.096   2.453   2.660 -0.2437  0.5287  2.4458
   15SAPS   O31 1894   3.984   2.303   2.743 -0.5778 -0.3267 -0.7707
   15SAPS   C31 1895   3.957   2.384   2.851 -0.4910  0.4365 -0.1250
   15SAPS   O32 1896   3.984   2.502   2.859 -0.2778  0.0556  0.0689
   15SAPS   C32 1897   3.886   2.306   2.963  0.3629  0.6348 -0.8862
   15SAPS   H2X 1898   3.847   2.208   2.929  0.6961 -0.2653  1.2155
   15SAPS   H2Y 1899   3.795   2.361   2.994 -1.1534 -2.4445  0.5538
   15SAPS   C23 1900   4.485   2.262   2.744  0.5981  0.6429  0.2197
   15SAPS   H3R 1901   4.533   2.358   2.715  1.7505  1.0490  3.1078
   15SAPS   H3S 1902   4.571   2.193   2.757  1.1955  0.9550 -1.8315
   15SAPS   C24 1903   4.407   2.291   2.873  1.0406  0.3246  0.6159
   15SAPS   H4R 1904   4.357   2.196   2.902 -0.4857  0.6253 -0.8785
   15SAPS   H4S 1905   4.326   2.365   2.859  0.8508  0.4186  2.0853
   15SAPS   C25 1906   4.498   2.341   2.982  0.3278  0.1748  1.2087
   15SAPS   H5R 1907   4.559   2.428   2.954 -1.2925  0.7054 -1.0644
   15SAPS   C26 1908   4.513   2.296   3.105  0.0975  0.2361 -0.5326
   15SAPS   H6R 1909   4.590   2.340   3.170  0.0727 -0.2679 -0.1549
   15SAPS   C27 1910   4.428   2.180   3.158  0.1515 -0.7459  0.0637
   15SAPS   H7R 1911   4.371   2.118   3.086 -0.8819 -0.9699  1.0548
   15SAPS   H7S 1912   4.348   2.203   3.231 -0.1157 -1.6001  0.0458
   15SAPS   C28 1913   4.526   2.093   3.223  0.4652 -0.0557 -0.0306
   15SAPS   H8R 1914   4.598   2.046   3.153  0.1163  0.5169 -0.7877
   15SAPS   C29 1915   4.536   2.068   3.354  0.3449 -0.4546  0.0142
   15SAPS   H9R 1916   4.626   2.008   3.375  1.4961  1.1737 -0.0835
   15SAPS  C210 1917   4.464   2.130   3.467 -0.0656  0.6915  0.2822
   15SAPS  H10R 1918   4.447   2.048   3.540 -0.8916 -1.1082 -1.8295
   15SAPS  H10S 1919   4.365   2.163   3.431  0.2961 -0.8298 -2.3541
   15SAPS  C211 1920   4.538   2.245   3.531 -0.0294  0.4759 -0.5588
   15SAPS  H11R 1921   4.569   2.324   3.461 -2.0150  0.2885 -1.7465
   15SAPS  C212 1922   4.563   2.253   3.664  0.0773 -0.1205 -0.1204
   15SAPS  H12R 1923   4.611   2.344   3.701 -1.0340 -0.2527  1.7855
   15SAPS  C213 1924   4.527   2.161   3.775 -0.0975  1.0498  0.2644
   15SAPS  H13R 1925   4.452   2.087   3.740 -1.1177  0.9634  2.4523
   15SAPS  H13S 1926   4.469   2.221   3.849 -2.5809 -1.7283  0.7508
   15SAPS  C214 1927   4.647   2.080   3.827 -0.2290  0.3081 -0.1058
   15SAPS  H14R 1928   4.731   2.079   3.756  1.7954 -0.9624  2.1560
   15SAPS  C215 1929   4.653   2.008   3.942  0.0055 -0.4006  0.0719
   15SAPS  H15R 1930   4.738   1.942   3.964  0.4392 -0.8347 -2.5273
   15SAPS  C216 1931   4.545   2.008   4.042 -0.1153  0.0808 -0.4969
   15SAPS  H16R 1932   4.504   1.906   4.056 -1.1669  0.5134 -0.2636
   15SAPS  H16S 1933   4.457   2.076   4.035  0.8587  1.6034  1.0963
   15SAPS  C217 1934   4.612   2.048   4.180 -0.5234 -0.2865 -0.3348
   15SAPS  H17R 1935   4.692   1.976   4.209 -1.0567  0.1821  2.5815
   15SAPS  H17S 1936   4.528   2.044   4.254 -0.3982 -3.8023 -0.1973
   15SAPS  C218 1937   4.670   2.188   4.176 -0.1731 -0.9603 -0.1123
   15SAPS  H18R 1938   4.617   2.252   4.103 -3.6050 -0.8590  2.2099
   15SAPS  H18S 1939   4.780   2.190   4.158 -0.0778  0.1300  0.5003
   15SAPS  C219 1940   4.660   2.265   4.310 -0.0704 -0.2320  0.8360
   15SAPS  H19R 1941   4.580   2.217   4.371  2.5526 -3.0217  2.3650
   15SAPS  H19S 1942   4.636   2.368   4.278  0.3246 -0.1810  0.7034
   15SAPS  C220 1943   4.789   2.265   4.396  0.0226 -0.1666  0.0082
   15SAPS  H20R 1944   4.793   2.186   4.474  1.3598  2.3798  2.7279
   15SAPS  H20S 1945   4.798   2.359   4.454  1.8566 -0.0585 -0.3832
   15SAPS  H20T 1946   4.879   2.263   4.330 -0.4912  2.6548 -0.9059
   15SAPS   C33 1947   3.977   2.290   3.089  0.0337  0.0727 -0.2738
   15SAPS   H3X 1948   4.024   2.387   3.117  1.0733 -0.4553 -0.1323
   15SAPS   H3Y 1949   4.063   2.222   3.069  1.1952  1.1877  0.7536
   15SAPS   C34 1950   3.908   2.225   3.213 -0.0835  0.5404  0.3963
   15SAPS   H4X 1951   3.861   2.135   3.168  0.1366  0.0223  1.1742
   15SAPS   H4Y 1952   3.832   2.295   3.255 -0.4950  0.4570 -0.1985
   15SAPS   C35 1953   3.996   2.176   3.326 -0.6741 -0.2397  0.1053
   15SAPS   H5X 1954   4.075   2.104   3.295 -1.0451 -0.4833 -0.2794
   15SAPS   H5Y 1955   3.941   2.101   3.387  0.0008 -1.1935 -0.4377
   15SAPS   C36 1956   4.044   2.288   3.414 -0.3964 -0.1457  0.2451
   15SAPS   H6X 1957   3.962   2.358   3.440 -1.3697 -1.3033  0.3600
   15SAPS   H6Y 1958   4.121   2.355   3.369 -2.9798  2.6523 -0.3178
   15SAPS   C37 1959   4.103   2.238   3.548  0.6907 -0.3870  0.2606
   15SAPS   H7X 1960   4.196   2.179   3.534  1.2635  0.8491 -1.4773
   15SAPS   H7Y 1961   4.026   2.161   3.573 -0.2863 -0.3532 -2.3344
   15SAPS   C38 1962   4.105   2.346   3.653 -0.1475  0.5835  0.8322
   15SAPS   H8X 1963   4.009   2.403   3.658  0.6535  1.9311  1.5916
   15SAPS   H8Y 1964   4.177   2.422   3.616  0.9460 -0.8617 -0.0910
   15SAPS   C39 1965   4.141   2.298   3.794 -0.1359  0.1174  0.5320
   15SAPS   H9X 1966   4.233   2.235   3.788 -1.4914 -1.8989 -0.3009
   15SAPS   H9Y 1967   4.058   2.232   3.827  0.4427  0.4653  2.9003
   15SAPS  C310 1968   4.173   2.417   3.881 -0.3736  0.2069 -0.1527
   15SAPS  H10X 1969   4.086   2.482   3.904 -1.2568 -0.5922 -1.1409
   15SAPS  H10Y 1970   4.245   2.473   3.817 -0.4945  0.7402  0.1666
   15SAPS  C311 1971   4.243   2.379   4.013 -0.4716 -0.5562 -0.1230
   15SAPS  H11X 1972   4.354   2.371   4.002 -0.0364 -0.0405  2.9463
   15SAPS  H11Y 1973   4.195   2.294   4.065  1.3279 -1.5354  0.0084
   15SAPS  C312 1974   4.234   2.497   4.117 -0.9190 -0.1127  0.0118
   15SAPS  H12X 1975   4.133   2.527   4.153 -0.8862  1.5890 -1.2059
   15SAPS  H12Y 1976   4.277   2.586   4.067 -0.7332  0.2343  0.7711
   15SAPS  C313 1977   4.309   2.462   4.251 -0.2149 -0.1107  0.0578
   15SAPS  H13X 1978   4.409   2.418   4.229 -0.8083 -2.2540  1.3753
   15SAPS  H13Y 1979   4.257   2.373   4.294  0.2209 -1.5810 -2.2508
   15SAPS  C314 1980   4.323   2.576   4.346 -0.5981 -0.7259  0.1306
   15SAPS  H14X 1981   4.278   2.550   4.445  1.6984  1.3034  1.8304
   15SAPS  H14Y 1982   4.258   2.661   4.318 -0.4910 -0.3184  1.0788
   15SAPS  C315 1983   4.469   2.629   4.358 -0.0965 -0.3590  0.2798
   15SAPS  H15X 1984   4.516   2.665   4.264 -0.7585 -1.5604 -0.5519
   15SAPS  H15Y 1985   4.534   2.553   4.404 -0.9967 -1.3905 -0.0913
   15SAPS  C316 1986   4.470   2.735   4.472  0.6586 -0.0969 -0.4612
   15SAPS  H16X 1987   4.456   2.686   4.571 -0.1095 -1.0092 -0.9946
   15SAPS  H16Y 1988   4.382   2.801   4.460  0.2765 -0.8049 -1.8676
   15SAPS  C317 1989   4.593   2.820   4.471 -0.0412 -0.0637  0.2146
   15SAPS  H17X 1990   4.604   2.869   4.372  0.4601 -1.1805 -0.2942
   15SAPS  H17Y 1991   4.679   2.750   4.462 -0.0419 -0.1022  0.4889
   15SAPS  C318 1992   4.607   2.929   4.580  0.0124  0.4006  0.7920
   15SAPS  H18X 1993   4.518   2.989   4.609  0.0166  0.1972  1.2472
   15SAPS  H18Y 1994   4.696   2.992   4.556  0.9454 -1.9433 -2.6746
   15SAPS  H18Z 1995   4.622   2.879   4.679  0.9749  1.8095  1.3905
   16SAPS     N 1996   6.401   2.476   2.244 -0.4117  0.2076 -0.0049
   16SAPS   HN1 1997   6.460   2.527   2.175  0.9209 -1.9896 -0.5863
   16SAPS   HN2 1998   6.479   2.456   2.310 -0.6156  0.0214  0.1804
   16SAPS   HN3 1999   6.366   2.393   2.194  0.3860  0.2678 -0.6926
   16SAPS   C12 2000   6.284   2.547   2.299 -0.1672  0.5482  0.4703
   16SAPS  H12A 2001   6.311   2.648   2.327  1.0666  0.3992 -0.1505
   16SAPS   C13 2002   6.165   2.548   2.202  0.4520 -0.0921 -0.7947
   16SAPS  O13A 2003   6.171   2.508   2.086  0.6585  0.4968  0.4115
   16SAPS  O13B 2004   6.054   2.595   2.248  0.0395 -0.4762  0.1722
   16SAPS   C11 2005   6.246   2.474   2.426  0.0098  0.5722 -0.8247
   16SAPS  H11A 2006   6.237   2.366   2.402 -2.1941  1.0578 -2.5500
   16SAPS  H11B 2007   6.147   2.514   2.458  0.5522  0.6439  0.8901
   16SAPS     P 2008   6.329   2.606   2.643 -0.0404 -0.5268 -0.2218
   16SAPS   O13 2009   6.453   2.618   2.708 -0.1415 -0.0706  0.0109
   16SAPS   O14 2010   6.277   2.727   2.574  0.6245 -0.2496 -0.4358
   16SAPS   O12 2011   6.341   2.493   2.535 -0.0655 -0.1305 -0.4191
   16SAPS   O11 2012   6.220   2.553   2.741 -0.0504 -0.0431  0.2285
   16SAPS    C1 2013   6.255   2.437   2.817 -0.1550  0.1823 -0.0147
   16SAPS    HA 2014   6.209   2.351   2.764  0.8650 -0.5371  0.2419
   16SAPS    HB 2015   6.364   2.416   2.814 -0.2248 -0.1121 -1.4801
   16SAPS    C2 2016   6.222   2.452   2.966  0.2489 -0.1645  0.1205
   16SAPS    HS 2017   6.267   2.361   3.012  2.1071 -1.0523 -3.1439
   16SAPS   O21 2018   6.082   2.454   2.983  0.0745 -0.2436 -0.2925
   16SAPS   C21 2019   6.019   2.334   2.960 -0.6773  0.9439  0.6117
   16SAPS   O22 2020   6.082   2.232   2.930  0.5059  0.1952 -0.5939
   16SAPS   C22 2021   5.872   2.333   2.976  0.0598  0.0944 -0.2961
   16SAPS   H2R 2022   5.834   2.413   2.909  0.5628  1.0534  0.5264
   16SAPS   H2S 2023   5.829   2.235   2.946 -0.8856  0.4104 -0.0326
   16SAPS    C3 2024   6.283   2.571   3.039  0.2099 -0.3270 -0.6604
   16SAPS    HX 2025   6.235   2.659   2.990  1.0223  0.5359  0.0645
   16SAPS    HY 2026   6.392   2.579   3.018  0.0980  0.9654 -0.8718
   16SAPS   O31 2027   6.258   2.564   3.180 -0.5575 -0.4847  0.6417
   16SAPS   C31 2028   6.170   2.655   3.232  0.3758  0.1687 -0.2061
   16SAPS   O32 2029   6.116   2.741   3.172  0.0265  0.0299 -0.8266
   16SAPS   C32 2030   6.148   2.611   3.374 -0.6677 -0.4811  0.0147
   16SAPS   H2X 2031   6.240   2.622   3.436 -1.0228 -0.5958  0.5758
   16SAPS   H2Y 2032   6.125   2.503   3.363  1.5317 -0.8543 -1.5953
   16SAPS   C23 2033   5.818   2.375   3.116 -0.0494  0.0514 -0.4144
   16SAPS   H3R 2034   5.712   2.392   3.089  0.4664  1.2042 -1.7924
   16SAPS   H3S 2035   5.862   2.469   3.156  0.6396  0.3109 -1.7396
   16SAPS   C24 2036   5.835   2.266   3.224  0.2430  0.6814  0.1310
   16SAPS   H4R 2037   5.789   2.172   3.185  1.7835 -0.3278  0.6753
   16SAPS   H4S 2038   5.759   2.290   3.301  0.0307  2.5961 -0.6244
   16SAPS   C25 2039   5.975   2.239   3.273  0.2398 -0.3692  0.0841
   16SAPS   H5R 2040   6.030   2.176   3.201 -0.3945  0.6214 -1.3270
   16SAPS   C26 2041   6.028   2.266   3.392  0.0622 -0.4198 -0.7241
   16SAPS   H6R 2042   6.135   2.245   3.410  0.8073  1.8694 -2.1255
   16SAPS   C27 2043   5.946   2.328   3.506  0.1387 -0.7054 -0.1431
   16SAPS   H7R 2044   5.857   2.380   3.465  1.3751  0.8996 -0.8855
   16SAPS   H7S 2045   5.997   2.413   3.557  1.0602 -0.0357 -2.0738
   16SAPS   C28 2046   5.894   2.229   3.608 -0.0523 -0.6551  0.6692
   16SAPS   H8R 2047   5.858   2.136   3.562  0.3326 -0.8035  0.6683
   16SAPS   C29 2048   5.879   2.238   3.743  0.3544 -0.6192  0.8538
   16SAPS   H9R 2049   5.843   2.145   3.791 -2.2487  0.6226  1.4814
   16SAPS  C210 2050   5.926   2.346   3.837  0.1405  0.2053  0.3704
   16SAPS  H10R 2051   5.862   2.362   3.927 -1.3756 -3.3847  0.0721
   16SAPS  H10S 2052   5.933   2.447   3.790  0.3628  0.9116  1.8438
   16SAPS  C211 2053   6.067   2.308   3.880 -0.4284 -0.8259 -0.5406
   16SAPS  H11R 2054   6.130   2.245   3.816  1.8100 -0.9351  1.6399
   16SAPS  C212 2055   6.140   2.349   3.987  0.4833 -0.3107  0.4771
   16SAPS  H12R 2056   6.239   2.305   4.002 -0.0878 -1.9787 -0.3506
   16SAPS  C213 2057   6.098   2.445   4.097  0.7619  0.0483  0.3021
   16SAPS  H13R 2058   6.003   2.495   4.070  1.1857  1.2234  0.9249
   16SAPS  H13S 2059   6.179   2.521   4.091  0.1847  0.5978 -0.6760
   16SAPS  C214 2060   6.080   2.388   4.239  0.5809 -0.5067 -0.2749
   16SAPS  H14R 2061   6.173   2.382   4.298 -1.4160  3.8047  3.9627
   16SAPS  C215 2062   5.973   2.342   4.298  0.0391 -0.4533  0.0467
   16SAPS  H15R 2063   5.997   2.303   4.399  3.1482  0.1413 -0.3465
   16SAPS  C216 2064   5.835   2.359   4.253 -0.1306  0.6882 -0.5917
   16SAPS  H16R 2065   5.786   2.261   4.270 -0.6066  0.6404 -2.1050
   16SAPS  H16S 2066   5.810   2.376   4.146  0.8186 -0.4675 -1.0083
   16SAPS  C217 2067   5.776   2.467   4.341 -0.4203 -1.1518  0.0204
   16SAPS  H17R 2068   5.844   2.547   4.308  1.1859 -2.0521  1.0024
   16SAPS  H17S 2069   5.793   2.446   4.449 -1.2772 -1.3603  0.1289
   16SAPS  C218 2070   5.627   2.497   4.310  0.6654 -0.4409 -0.6294
   16SAPS  H18R 2071   5.567   2.404   4.304  1.2553 -0.8219 -0.7714
   16SAPS  H18S 2072   5.623   2.536   4.206 -1.3561  0.1686 -0.3563
   16SAPS  C219 2073   5.568   2.599   4.413 -0.1752 -0.4663 -0.3669
   16SAPS  H19R 2074   5.484   2.649   4.362  0.7095  1.8588  0.3489
   16SAPS  H19S 2075   5.645   2.674   4.439  1.1853 -0.9747 -2.6189
   16SAPS  C220 2076   5.529   2.541   4.554 -0.3198 -0.9591  0.7177
   16SAPS  H20R 2077   5.523   2.620   4.631 -0.4491  0.9921 -1.2135
   16SAPS  H20S 2078   5.610   2.473   4.589 -0.9445 -1.1342  1.8609
   16SAPS  H20T 2079   5.434   2.485   4.537 -0.4561  0.0960 -2.5717
   16SAPS   C33 2080   6.037   2.693   3.453  0.5546  0.1148 -0.2794
   16SAPS   H3X 2081   5.942   2.654   3.411  1.4599 -0.4541 -1.8875
   16SAPS   H3Y 2082   6.039   2.801   3.424 -2.3813  0.1575 -0.6555
   16SAPS   C34 2083   6.045   2.692   3.608 -0.4020  0.1068  0.4931
   16SAPS   H4X 2084   6.154   2.697   3.629 -0.3718  0.5868  0.2336
   16SAPS   H4Y 2085   6.021   2.594   3.655 -1.0532  1.6980  3.7372
   16SAPS   C35 2086   5.959   2.803   3.668 -0.6585  0.7004  0.0201
   16SAPS   H5X 2087   5.854   2.791   3.633 -0.8624 -0.3510  0.9474
   16SAPS   H5Y 2088   5.981   2.902   3.623 -0.8472  0.4838 -0.5442
   16SAPS   C36 2089   5.965   2.831   3.819  0.1101 -0.0501 -0.1964
   16SAPS   H6X 2090   5.923   2.932   3.839 -1.2132 -0.7726  0.8140
   16SAPS   H6Y 2091   6.068   2.825   3.859  0.7831  3.9519 -0.9147
   16SAPS   C37 2092   5.881   2.727   3.895  0.2455  0.4670 -0.4267
   16SAPS   H7X 2093   5.944   2.636   3.893  1.7735  1.4947 -1.9477
   16SAPS   H7Y 2094   5.788   2.694   3.843  0.1653 -1.2583  0.7357
   16SAPS   C38 2095   5.844   2.756   4.045  0.4409 -0.0982  0.5068
   16SAPS   H8X 2096   5.938   2.749   4.104  0.6636  0.7785  0.2831
   16SAPS   H8Y 2097   5.768   2.687   4.087  0.4043 -0.1369  0.3796
   16SAPS   C39 2098   5.807   2.906   4.074 -0.1707 -0.8061 -0.0073
   16SAPS   H9X 2099   5.718   2.940   4.016 -1.3960 -2.3679  0.8610
   16SAPS   H9Y 2100   5.893   2.970   4.048 -0.8708 -0.0349 -0.4904
   16SAPS  C310 2101   5.774   2.929   4.224  0.1672 -0.7136 -1.0595
   16SAPS  H10X 2102   5.854   2.901   4.296  0.6787  0.1390 -1.2832
   16SAPS  H10Y 2103   5.687   2.864   4.250  1.8821 -1.9130  2.2885
   16SAPS  C311 2104   5.726   3.076   4.260 -1.0061  0.1275  0.0052
   16SAPS  H11X 2105   5.628   3.093   4.209 -0.1301 -0.2969 -1.8909
   16SAPS  H11Y 2106   5.803   3.142   4.213  1.4876 -1.0039  2.2683
   16SAPS  C312 2107   5.720   3.102   4.410  0.5475  0.0384  0.0130
   16SAPS  H12X 2108   5.687   3.207   4.420  0.0329 -0.2379  1.5816
   16SAPS  H12Y 2109   5.825   3.095   4.445  0.2517  1.1593  1.1922
   16SAPS  C313 2110   5.630   3.021   4.506  0.1908  0.2933  0.2946
   16SAPS  H13X 2111   5.668   2.917   4.516 -2.0260 -0.7337 -1.1846
   16SAPS  H13Y 2112   5.532   3.004   4.457 -0.0102  1.6949  0.1486
   16SAPS  C314 2113   5.614   3.090   4.645 -0.3301  0.2700  0.3775
   16SAPS  H14X 2114   5.565   3.190   4.634  0.0767  0.4727  0.3903
   16SAPS  H14Y 2115   5.708   3.091   4.705  1.1105  1.3143 -1.7815
   16SAPS  C315 2116   5.515   3.008   4.732 -0.6621  0.2538 -0.8943
   16SAPS  H15X 2117   5.548   2.902   4.739 -0.5054  0.2840 -1.1702
   16SAPS  H15Y 2118   5.413   3.003   4.688 -1.2375 -0.1039  0.4441
   16SAPS  C316 2119   5.512   3.059   4.879  0.0062 -0.0418 -0.6994
   16SAPS  H16X 2120   5.424   3.015   4.931 -1.7135  2.4160 -1.3788
   16SAPS  H16Y 2121   5.497   3.169   4.873  1.3260  0.1296 -1.0200
   16SAPS  C317 2122   5.627   3.006   4.959 -0.1097 -0.6085  0.5314
   16SAPS  H17X 2123   5.724   3.034   4.913  0.2882 -2.2954  0.2634
   16SAPS  H17Y 2124   5.628   2.895   4.961 -0.8749 -0.6983 -1.8168
   16SAPS  C318 2125   5.615   3.065   5.100  0.5310  0.5305  0.6250
   16SAPS  H18X 2126   5.586   3.171   5.108 -0.5587  0.4918 -1.8732
   16SAPS  H18Y 2127   5.720   3.056   5.136 -0.0155  0.5438  2.3219
   16SAPS  H18Z 2128   5.553   3.004   5.170 -0.5619  0.3928 -0.4281
   17SAPS     N 2129   1.556   0.725   1.839  0.2253 -0.4260  0.0851
   17SAPS   HN1 2130   1.592   0.821   1.825  0.9608 -0.8936 -1.4089
   17SAPS   HN2 2131   1.452   0.713   1.841  0.0862  0.5876 -0.5888
   17SAPS   HN3 2132   1.584   0.694   1.935 -0.1946 -2.3294 -0.3629
   17SAPS   C12 2133   1.607   0.623   1.740  0.1084 -0.0376  0.3950
   17SAPS  H12A 2134   1.567   0.527   1.769  0.5316 -0.4484 -0.3397
   17SAPS   C13 2135   1.565   0.644   1.598 -0.0775  0.4448 -0.3612
   17SAPS  O13A 2136   1.506   0.747   1.561  0.1472  0.0746 -0.7137
   17SAPS  O13B 2137   1.590   0.551   1.513  0.2496 -0.7024 -0.4279
   17SAPS   C11 2138   1.767   0.621   1.747  0.3629 -0.2837 -0.1403
   17SAPS  H11A 2139   1.801   0.726   1.756  0.6329 -0.4136  0.3739
   17SAPS  H11B 2140   1.811   0.573   1.657  2.0988 -0.4568  0.7758
   17SAPS     P 2141   1.939   0.590   1.944  0.4120  0.5808 -0.2767
   17SAPS   O13 2142   1.961   0.491   2.052  0.4929  0.2996  0.0877
   17SAPS   O14 2143   2.056   0.608   1.855  0.1801  0.4858 -0.5419
   17SAPS   O12 2144   1.812   0.544   1.859  0.6566 -0.4666 -0.5164
   17SAPS   O11 2145   1.909   0.729   2.008 -0.5357  0.0003  0.1580
   17SAPS    C1 2146   2.017   0.807   2.057  0.1938 -0.0583 -0.5599
   17SAPS    HA 2147   2.094   0.739   2.098 -1.3782 -2.3990 -1.2256
   17SAPS    HB 2148   2.052   0.869   1.971 -0.1374  0.1782 -0.5263
   17SAPS    C2 2149   1.974   0.898   2.174  0.2019  0.1536 -0.3572
   17SAPS    HS 2150   2.065   0.935   2.227  0.5676 -0.5738 -0.4740
   17SAPS   O21 2151   1.879   0.837   2.258  0.0360  0.7341 -1.0467
   17SAPS   C21 2152   1.923   0.785   2.366  0.2566  0.5759 -0.5262
   17SAPS   O22 2153   2.037   0.765   2.397  0.6238  1.0388  0.4498
   17SAPS   C22 2154   1.798   0.752   2.457  0.1788  0.3954 -0.2433
   17SAPS   H2R 2155   1.705   0.793   2.411 -1.0134 -1.4484  0.3905
   17SAPS   H2S 2156   1.795   0.641   2.460 -0.9049  0.4280  2.2618
   17SAPS    C3 2157   1.912   1.022   2.118 -0.3349  0.8086 -0.4549
   17SAPS    HX 2158   1.828   0.985   2.055 -0.1818 -3.4572  1.5135
   17SAPS    HY 2159   1.983   1.082   2.058  2.1169 -1.7180 -0.2922
   17SAPS   O31 2160   1.856   1.104   2.222  0.3426  0.3459  0.7968
   17SAPS   C31 2161   1.946   1.195   2.276 -0.3162  0.3562 -0.6631
   17SAPS   O32 2162   2.062   1.196   2.246  0.1567 -0.1997 -0.3936
   17SAPS   C32 2163   1.887   1.276   2.393  0.0267 -0.3850  0.0868
   17SAPS   H2X 2164   1.865   1.197   2.468  1.8127 -2.0494 -1.0402
   17SAPS   H2Y 2165   1.789   1.310   2.353 -0.2645 -3.4381 -2.1942
   17SAPS   C23 2166   1.821   0.776   2.617  0.3083 -0.1846 -0.1723
   17SAPS   H3R 2167   1.912   0.716   2.635 -0.3001 -0.9098  0.5924
   17SAPS   H3S 2168   1.738   0.726   2.672 -1.3355  0.4101 -2.0076
   17SAPS   C24 2169   1.844   0.920   2.663 -0.3051 -0.2886  0.5369
   17SAPS   H4R 2170   1.926   0.953   2.596 -0.8026 -1.4225 -0.6797
   17SAPS   H4S 2171   1.886   0.920   2.766  0.5495  1.8335  0.2406
   17SAPS   C25 2172   1.724   1.012   2.638  0.7322  0.6977 -0.1652
   17SAPS   H5R 2173   1.701   1.032   2.532 -0.1408 -0.1515 -0.1454
   17SAPS   C26 2174   1.641   1.059   2.730 -0.1544 -0.1431 -0.5233
   17SAPS   H6R 2175   1.559   1.124   2.699 -0.3135 -0.3583 -0.5508
   17SAPS   C27 2176   1.656   1.043   2.880 -0.1229 -0.4247  0.4515
   17SAPS   H7R 2177   1.760   1.017   2.910  0.4300  1.0594 -0.0525
   17SAPS   H7S 2178   1.602   0.952   2.913 -0.4223 -0.6410 -0.6082
   17SAPS   C28 2179   1.606   1.165   2.953 -0.5170 -0.6668 -0.3664
   17SAPS   H8R 2180   1.553   1.239   2.891 -0.6072  1.1768  1.7689
   17SAPS   C29 2181   1.637   1.208   3.078  0.2031  0.3270  0.3299
   17SAPS   H9R 2182   1.573   1.291   3.111 -0.5547 -0.6342  1.3877
   17SAPS  C210 2183   1.731   1.138   3.171  0.2069 -0.1114  0.0409
   17SAPS  H10R 2184   1.775   1.216   3.238  0.8008 -0.8788  0.5653
   17SAPS  H10S 2185   1.815   1.096   3.112 -0.8995 -0.9411 -0.9810
   17SAPS  C211 2186   1.656   1.037   3.252 -0.1324  0.3796 -0.0087
   17SAPS  H11R 2187   1.650   0.935   3.213 -1.6976  1.4954 -3.0034
   17SAPS  C212 2188   1.602   1.062   3.372  0.7163 -0.1665 -0.5665
   17SAPS  H12R 2189   1.554   0.979   3.426  2.1757  0.2743  1.4949
   17SAPS  C213 2190   1.587   1.194   3.442  0.2264  0.0117  0.3781
   17SAPS  H13R 2191   1.584   1.269   3.360 -1.6563 -1.0763 -0.6092
   17SAPS  H13S 2192   1.677   1.216   3.504 -0.6110  0.5924  1.4317
   17SAPS  C214 2193   1.470   1.212   3.535 -0.1104 -1.0040 -1.1011
   17SAPS  H14R 2194   1.375   1.202   3.482  1.2663  0.5357 -4.0946
   17SAPS  C215 2195   1.480   1.240   3.671  0.4956  0.6564  0.4747
   17SAPS  H15R 2196   1.385   1.264   3.720 -0.5063  0.7565 -1.4144
   17SAPS  C216 2197   1.603   1.251   3.756 -0.3220  0.3734  0.2664
   17SAPS  H16R 2198   1.640   1.356   3.758  1.0823 -0.0092 -2.2581
   17SAPS  H16S 2199   1.685   1.201   3.702  1.1391 -0.1476  2.7980
   17SAPS  C217 2200   1.601   1.193   3.899 -0.0205  0.8303  0.3511
   17SAPS  H17R 2201   1.695   1.170   3.953  1.4755  1.2325 -1.9653
   17SAPS  H17S 2202   1.540   1.100   3.889  0.7460  0.4512 -1.0514
   17SAPS  C218 2203   1.512   1.274   3.993  0.2721  0.2618 -0.1344
   17SAPS  H18R 2204   1.415   1.284   3.940 -0.3173 -0.5779  0.7584
   17SAPS  H18S 2205   1.554   1.377   3.999 -0.5970  0.5505  1.4807
   17SAPS  C219 2206   1.496   1.213   4.130 -0.3750  0.5444 -0.2295
   17SAPS  H19R 2207   1.592   1.173   4.168 -2.4439 -3.8343  0.9948
   17SAPS  H19S 2208   1.428   1.126   4.125  1.9604 -1.6128  2.6449
   17SAPS  C220 2209   1.445   1.320   4.225  0.6795 -0.1154  0.4112
   17SAPS  H20R 2210   1.344   1.354   4.192  1.2114  0.0582 -1.0973
   17SAPS  H20S 2211   1.515   1.406   4.221 -0.4366  0.8947  1.6834
   17SAPS  H20T 2212   1.449   1.294   4.333  0.2160 -0.0165  0.4567
   17SAPS   C33 2213   1.980   1.371   2.457  0.0206 -0.9122 -0.0605
   17SAPS   H3X 2214   2.035   1.426   2.377  0.4106 -0.3409  0.5848
   17SAPS   H3Y 2215   2.047   1.309   2.520 -0.0401  0.7987  1.8164
   17SAPS   C34 2216   1.914   1.470   2.548  0.5266  0.5552 -0.2622
   17SAPS   H4X 2217   1.835   1.516   2.484 -0.4873  0.3329  0.8149
   17SAPS   H4Y 2218   1.982   1.553   2.576  1.0119 -0.2561  1.0312
   17SAPS   C35 2219   1.844   1.406   2.675 -0.4137  0.8906  0.6131
   17SAPS   H5X 2220   1.926   1.381   2.746  0.3619 -1.5928 -1.0336
   17SAPS   H5Y 2221   1.795   1.308   2.656  0.4970  0.6522 -0.6618
   17SAPS   C36 2222   1.736   1.498   2.737 -0.1959 -0.0509 -0.7746
   17SAPS   H6X 2223   1.677   1.426   2.798 -1.2893  1.1102 -0.4262
   17SAPS   H6Y 2224   1.672   1.524   2.650 -0.0692 -0.6921 -1.0664
   17SAPS   C37 2225   1.789   1.621   2.813  0.7634  0.6197  1.0997
   17SAPS   H7X 2226   1.742   1.705   2.757 -0.4260 -0.3494  0.5942
   17SAPS   H7Y 2227   1.900   1.626   2.814  0.8374 -0.3214 -0.0609
   17SAPS   C38 2228   1.739   1.639   2.957 -0.1921 -0.4455 -0.4422
   17SAPS   H8X 2229   1.630   1.616   2.961 -0.3952  0.5885  0.8386
   17SAPS   H8Y 2230   1.747   1.747   2.982 -1.9305 -0.3598 -0.1589
   17SAPS   C39 2231   1.828   1.573   3.063 -0.6919  0.0247  0.0848
   17SAPS   H9X 2232   1.935   1.593   3.045 -0.8235 -0.8194 -1.8375
   17SAPS   H9Y 2233   1.820   1.462   3.060 -1.8921  0.1031 -2.4459
   17SAPS  C310 2234   1.788   1.615   3.205  0.9270  0.5548  0.2958
   17SAPS  H10X 2235   1.679   1.606   3.225  0.9970  0.9723  0.9253
   17SAPS  H10Y 2236   1.809   1.724   3.196 -2.5421  1.2321 -1.0840
   17SAPS  C311 2237   1.866   1.556   3.319 -0.7118 -0.1793  0.3240
   17SAPS  H11X 2238   1.972   1.581   3.299 -0.6464 -1.4703 -1.1682
   17SAPS  H11Y 2239   1.859   1.445   3.308  0.1597 -0.0053 -2.7829
   17SAPS  C312 2240   1.835   1.606   3.456 -0.1548  0.4727 -0.9772
   17SAPS  H12X 2241   1.726   1.590   3.468 -0.2975  1.7829 -0.3357
   17SAPS  H12Y 2242   1.857   1.714   3.474 -0.5572  0.1411  2.0377
   17SAPS  C313 2243   1.904   1.519   3.564  0.1759  0.1588 -0.0676
   17SAPS  H13X 2244   2.010   1.496   3.539 -0.2603 -1.0439 -0.9392
   17SAPS  H13Y 2245   1.863   1.416   3.554 -0.9575  0.7383 -1.8121
   17SAPS  C314 2246   1.881   1.563   3.714  0.3387 -0.4072  0.3605
   17SAPS  H14X 2247   1.775   1.558   3.747 -0.7275  2.2040 -2.2064
   17SAPS  H14Y 2248   1.919   1.668   3.721 -0.7468  0.3930 -3.3769
   17SAPS  C315 2249   1.970   1.486   3.810 -0.5192  0.1738 -0.1238
   17SAPS  H15X 2250   2.074   1.515   3.782 -0.7413 -0.1448 -1.3394
   17SAPS  H15Y 2251   1.960   1.381   3.776  0.9396 -0.2348  0.5961
   17SAPS  C316 2252   1.916   1.500   3.949  0.2939 -0.0371 -0.3257
   17SAPS  H16X 2253   1.813   1.459   3.948  0.0390  0.4456  1.5644
   17SAPS  H16Y 2254   1.915   1.606   3.984  2.0347  0.1281 -0.6671
   17SAPS  C317 2255   1.984   1.408   4.050  0.0642  0.2878 -0.3659
   17SAPS  H17X 2256   1.956   1.306   4.015 -1.2152  0.3228  0.5093
   17SAPS  H17Y 2257   1.924   1.434   4.139  1.1468 -0.7359  0.7056
   17SAPS  C318 2258   2.127   1.438   4.076  0.0780 -0.6417 -0.4524
   17SAPS  H18X 2259   2.131   1.519   4.152 -1.1709  1.3400 -2.3804
   17SAPS  H18Y 2260   2.191   1.465   3.989  1.5831 -2.1066  0.1409
   17SAPS  H18Z 2261   2.169   1.364   4.148 -1.7750  0.4571  1.9395
   18SAPS     N 2262   4.199   1.095   2.278 -0.4946 -0.2767 -0.0871
   18SAPS   HN1 2263   4.159   1.074   2.371  1.3227  1.1183  1.0900
   18SAPS   HN2 2264   4.225   1.196   2.278  0.6804 -0.5580  0.1069
   18SAPS   HN3 2265   4.133   1.065   2.204 -0.1295  1.6798 -1.2929
   18SAPS   C12 2266   4.306   0.988   2.271  0.1840 -0.3532 -0.0322
   18SAPS  H12A 2267   4.358   0.989   2.366  1.4325  0.9960 -0.6996
   18SAPS   C13 2268   4.247   0.845   2.251  0.6699  0.9126  0.7494
   18SAPS  O13A 2269   4.126   0.840   2.233 -0.2538  0.5288  0.5954
   18SAPS  O13B 2270   4.321   0.747   2.267 -0.0438  0.1098  0.0652
   18SAPS   C11 2271   4.414   1.026   2.165  0.3773 -0.3306  0.8880
   18SAPS  H11A 2272   4.359   1.022   2.068  2.4168  1.2059 -0.3959
   18SAPS  H11B 2273   4.492   0.948   2.162  1.3571  0.6623 -0.4002
   18SAPS     P 2274   4.598   1.175   2.264  0.5098  0.4567 -0.2043
   18SAPS   O13 2275   4.694   1.072   2.212 -0.2832 -0.4234 -0.0915
   18SAPS   O14 2276   4.641   1.317   2.256  0.8154 -0.5176 -0.0046
   18SAPS   O12 2277   4.454   1.156   2.189  0.2723 -0.1138 -0.2177
   18SAPS   O11 2278   4.558   1.137   2.417 -0.0795 -0.5101  0.0566
   18SAPS    C1 2279   4.503   1.236   2.504  0.2964 -0.2083 -0.3454
   18SAPS    HA 2280   4.478   1.332   2.454 -1.1462  0.4387  1.5088
   18SAPS    HB 2281   4.413   1.191   2.551 -0.6641  1.1721 -0.7792
   18SAPS    C2 2282   4.600   1.262   2.616  0.8880 -0.2004  0.0766
   18SAPS    HS 2283   4.705   1.252   2.581  0.2820 -4.3527 -1.1497
   18SAPS   O21 2284   4.586   1.167   2.725  0.5304  0.4080 -0.0597
   18SAPS   C21 2285   4.634   1.045   2.708  0.4543 -0.2806  0.1280
   18SAPS   O22 2286   4.710   1.004   2.620 -0.2348 -0.2366  0.5830
   18SAPS   C22 2287   4.588   0.968   2.832 -0.0738  1.2083  1.2703
   18SAPS   H2R 2288   4.678   0.923   2.878 -1.9270 -1.3033  2.6659
   18SAPS   H2S 2289   4.542   1.039   2.904 -1.9498 -0.0834  1.4221
   18SAPS    C3 2290   4.587   1.412   2.663 -0.2706  0.1345  0.1384
   18SAPS    HX 2291   4.483   1.416   2.702 -1.5081 -2.8824 -2.3935
   18SAPS    HY 2292   4.613   1.474   2.574 -3.0706  0.3695 -0.6262
   18SAPS   O31 2293   4.664   1.443   2.774  0.1609  0.0255  0.3747
   18SAPS   C31 2294   4.797   1.451   2.754  0.4758 -0.4130 -0.3661
   18SAPS   O32 2295   4.855   1.446   2.645  0.2178  0.4965 -0.0333
   18SAPS   C32 2296   4.864   1.459   2.889  0.4249  0.6608 -0.0517
   18SAPS   H2X 2297   4.783   1.476   2.963 -0.1829  1.0856 -0.7951
   18SAPS   H2Y 2298   4.939   1.540   2.896  0.7322  0.2475  1.9663
   18SAPS   C23 2299   4.484   0.859   2.810  0.1157  0.1799  0.0593
   18SAPS   H3R 2300   4.390   0.900   2.767 -0.7349  0.6704  2.2490
   18SAPS   H3S 2301   4.459   0.817   2.911  2.0031  0.3017  0.6061
   18SAPS   C24 2302   4.550   0.747   2.729 -0.2574  0.2247  0.4616
   18SAPS   H4R 2303   4.651   0.729   2.773 -0.1546  0.4287  0.3125
   18SAPS   H4S 2304   4.569   0.789   2.628 -1.1666  0.2236  0.2861
   18SAPS   C25 2305   4.479   0.618   2.730 -0.0632  0.3056 -0.3271
   18SAPS   H5R 2306   4.400   0.591   2.658 -0.2627 -0.9527  0.3250
   18SAPS   C26 2307   4.490   0.519   2.823 -0.0702 -0.3349 -0.4293
   18SAPS   H6R 2308   4.428   0.432   2.798 -0.5971  0.3578 -1.6532
   18SAPS   C27 2309   4.579   0.523   2.947  0.3141 -0.0674 -0.6218
   18SAPS   H7R 2310   4.517   0.502   3.037  1.1052 -2.9198 -0.6603
   18SAPS   H7S 2311   4.613   0.624   2.978  0.1020 -0.6189  1.5782
   18SAPS   C28 2312   4.699   0.437   2.949  1.0572  0.1418  0.2255
   18SAPS   H8R 2313   4.755   0.430   2.854  0.4407  0.9391 -0.2068
   18SAPS   C29 2314   4.756   0.381   3.059 -0.3338 -0.0811  0.4151
   18SAPS   H9R 2315   4.849   0.325   3.041 -0.3287 -0.7969  2.4475
   18SAPS  C210 2316   4.705   0.377   3.205  0.6411 -1.0707  0.4127
   18SAPS  H10R 2317   4.700   0.268   3.228  1.2490 -1.1289  0.3030
   18SAPS  H10S 2318   4.600   0.406   3.225  1.1718  1.3099  0.0133
   18SAPS  C211 2319   4.788   0.434   3.312  0.5631 -0.6215  0.0201
   18SAPS  H11R 2320   4.859   0.514   3.286 -0.5869  0.1322 -0.9040
   18SAPS  C212 2321   4.783   0.395   3.439  0.2909 -0.5044 -0.0438
   18SAPS  H12R 2322   4.857   0.434   3.510 -0.2784 -0.6926  0.6758
   18SAPS  C213 2323   4.694   0.289   3.505 -0.3307 -0.3365 -0.2069
   18SAPS  H13R 2324   4.734   0.253   3.602  0.2597 -1.1754 -0.7448
   18SAPS  H13S 2325   4.704   0.204   3.434 -1.5880  1.3276 -2.5081
   18SAPS  C214 2326   4.551   0.342   3.518 -0.9519 -0.0650 -0.7803
   18SAPS  H14R 2327   4.509   0.376   3.422 -3.2813  1.5842  0.7256
   18SAPS  C215 2328   4.481   0.364   3.629  1.0109  0.3729  0.0020
   18SAPS  H15R 2329   4.379   0.404   3.619  1.1138  0.3595 -1.3113
   18SAPS  C216 2330   4.523   0.313   3.771  0.3048 -0.1885  1.0859
   18SAPS  H16R 2331   4.611   0.245   3.762 -1.0835 -1.7497 -2.5986
   18SAPS  H16S 2332   4.434   0.259   3.807 -2.1735  2.4986 -0.5618
   18SAPS  C217 2333   4.562   0.431   3.864 -0.2990  0.0185  0.0566
   18SAPS  H17R 2334   4.554   0.384   3.964 -1.2999 -0.8580 -0.4038
   18SAPS  H17S 2335   4.488   0.514   3.856  0.1243  0.4162  0.2615
   18SAPS  C218 2336   4.702   0.492   3.860  0.7533  0.2181 -0.1813
   18SAPS  H18R 2337   4.681   0.598   3.887 -0.9898  0.0060 -0.5908
   18SAPS  H18S 2338   4.737   0.500   3.755  1.2244  0.9261  0.0192
   18SAPS  C219 2339   4.801   0.419   3.959  0.1228 -0.0423 -0.5126
   18SAPS  H19R 2340   4.808   0.313   3.928  2.3123  0.0627 -0.5356
   18SAPS  H19S 2341   4.746   0.423   4.055 -0.9407 -0.1291 -1.0960
   18SAPS  C220 2342   4.933   0.499   3.972 -0.4529 -0.5237  0.0821
   18SAPS  H20R 2343   4.991   0.487   3.878 -0.7702 -1.5373  0.0043
   18SAPS  H20S 2344   4.985   0.450   4.057 -2.9058 -2.7313  0.4755
   18SAPS  H20T 2345   4.908   0.605   3.993 -0.1273  0.2532 -3.0205
   18SAPS   C33 2346   4.944   1.333   2.899 -0.4554  1.0275 -0.4785
   18SAPS   H3X 2347   5.029   1.361   2.965 -0.1241 -0.9557  0.0039
   18SAPS   H3Y 2348   5.002   1.305   2.808 -0.0797  0.9266 -0.2126
   18SAPS   C34 2349   4.876   1.209   2.972  0.8850 -0.2586 -0.5714
   18SAPS   H4X 2350   4.937   1.116   2.959  1.1150 -0.1139 -0.5326
   18SAPS   H4Y 2351   4.779   1.184   2.923 -0.6761  1.1696  1.6172
   18SAPS   C35 2352   4.841   1.237   3.120 -0.6574 -0.8267  0.4051
   18SAPS   H5X 2353   4.803   1.151   3.179  0.4027 -1.3523  0.3348
   18SAPS   H5Y 2354   4.760   1.313   3.115 -1.4497 -1.7298 -0.9024
   18SAPS   C36 2355   4.955   1.301   3.203 -0.1738 -0.3980 -0.5421
   18SAPS   H6X 2356   4.980   1.404   3.171  0.5740 -1.3355 -3.2930
   18SAPS   H6Y 2357   5.047   1.243   3.178 -1.0888 -0.9267 -2.9229
   18SAPS   C37 2358   4.931   1.301   3.357 -0.6871  0.3262 -0.1521
   18SAPS   H7X 2359   4.850   1.366   3.397 -2.2744 -1.4657 -0.3394
   18SAPS   H7Y 2360   5.021   1.336   3.412 -1.1505 -0.4995  1.1707
   18SAPS   C38 2361   4.921   1.160   3.422  0.2289 -1.0344  0.7934
   18SAPS   H8X 2362   5.011   1.098   3.400  0.7261  0.1002 -0.5544
   18SAPS   H8Y 2363   4.821   1.122   3.392 -0.8980  1.9671  0.4446
   18SAPS   C39 2364   4.907   1.169   3.575 -0.1061 -0.0631  0.4727
   18SAPS   H9X 2365   4.898   1.063   3.608 -0.6053 -0.5831 -1.1890
   18SAPS   H9Y 2366   4.814   1.224   3.598  0.0872  0.0136  1.0846
   18SAPS  C310 2367   5.028   1.227   3.647  0.1339  0.3432  0.1156
   18SAPS  H10X 2368   5.038   1.336   3.624  3.9432 -0.5751 -4.2777
   18SAPS  H10Y 2369   5.117   1.178   3.601 -1.1771 -2.1195  0.0518
   18SAPS  C311 2370   5.041   1.193   3.799 -0.0822 -0.5185 -1.0229
   18SAPS  H11X 2371   5.044   1.083   3.815  0.3573 -0.4188 -0.3781
   18SAPS  H11Y 2372   4.951   1.240   3.844  0.9556 -1.8350  2.8382
   18SAPS  C312 2373   5.158   1.261   3.871 -0.0535 -0.3693  0.5046
   18SAPS  H12X 2374   5.165   1.364   3.830  2.1536 -0.9085 -0.6271
   18SAPS  H12Y 2375   5.254   1.210   3.849  0.7304  1.4516 -0.5491
   18SAPS  C313 2376   5.125   1.275   4.022  0.4025  0.7770  0.6837
   18SAPS  H13X 2377   5.149   1.182   4.077 -1.1805 -2.1538 -3.1377
   18SAPS  H13Y 2378   5.015   1.288   4.020 -0.2075 -3.1468 -1.9807
   18SAPS  C314 2379   5.192   1.400   4.094  0.4191 -0.7050 -0.1303
   18SAPS  H14X 2380   5.124   1.417   4.180 -1.0580  0.2111 -1.4210
   18SAPS  H14Y 2381   5.177   1.494   4.038  0.3790 -0.7176 -0.1413
   18SAPS  C315 2382   5.332   1.363   4.151  0.2947  0.0572  0.3914
   18SAPS  H15X 2383   5.383   1.315   4.064 -0.1367 -0.3041  0.3291
   18SAPS  H15Y 2384   5.328   1.282   4.228 -1.4189 -0.3935 -0.1249
   18SAPS  C316 2385   5.420   1.478   4.203 -0.1282 -0.0789  0.1208
   18SAPS  H16X 2386   5.371   1.528   4.289  0.4220  2.3305 -0.8946
   18SAPS  H16Y 2387   5.432   1.554   4.123 -1.4023 -0.6691 -0.6612
   18SAPS  C317 2388   5.555   1.411   4.252 -0.1835 -0.2466 -0.1070
   18SAPS  H17X 2389   5.625   1.394   4.167  0.3685 -1.4095  0.5491
   18SAPS  H17Y 2390   5.528   1.314   4.299  1.4553 -0.9300 -0.4944
   18SAPS  C318 2391   5.616   1.489   4.366 -0.3207 -0.4892  0.1918
   18SAPS  H18X 2392   5.628   1.596   4.339 -1.6044 -0.9515 -2.6203
   18SAPS  H18Y 2393   5.708   1.436   4.400  0.2743 -0.9477 -1.9528
   18SAPS  H18Z 2394   5.546   1.495   4.452  0.8754  1.3128  1.0888
   19SAPS     N 2395   3.119   4.697   2.075  0.5552 -0.5143  0.0064
   19SAPS   HN1 2396   3.145   4.738   1.983  1.9477  2.6519  1.6887
   19SAPS   HN2 2397   3.018   4.706   2.099 -0.0082 -1.9088 -1.6357
   19SAPS   HN3 2398   3.172   4.747   2.149  0.5898 -0.2496 -0.1940
   19SAPS   C12 2399   3.139   4.551   2.053  0.3601 -0.3286 -0.1965
   19SAPS  H12A 2400   3.064   4.500   2.110  0.9681 -0.3225  0.6228
   19SAPS   C13 2401   3.113   4.511   1.900 -0.2316 -0.6368 -0.0191
   19SAPS  O13A 2402   3.079   4.601   1.822  0.1073 -0.2670  0.2112
   19SAPS  O13B 2403   3.116   4.394   1.866 -0.2419 -0.3221 -0.4270
   19SAPS   C11 2404   3.283   4.511   2.094  0.5193 -0.2402 -0.0651
   19SAPS  H11A 2405   3.361   4.540   2.020 -1.4125  1.5006 -1.5407
   19SAPS  H11B 2406   3.279   4.400   2.096 -0.8992 -0.2637 -1.4614
   19SAPS     P 2407   3.418   4.486   2.304  0.0234  0.5919  0.3533
   19SAPS   O13 2408   3.402   4.343   2.327 -0.5299 -0.0724  0.1382
   19SAPS   O14 2409   3.552   4.520   2.249  0.2706  0.3197  0.3485
   19SAPS   O12 2410   3.309   4.562   2.223 -0.2714 -0.2693  0.0119
   19SAPS   O11 2411   3.420   4.555   2.446  0.2435 -0.3520  0.8573
   19SAPS    C1 2412   3.375   4.691   2.462 -0.1141 -0.3493  0.2883
   19SAPS    HA 2413   3.392   4.742   2.365 -0.6106 -1.0743 -0.1940
   19SAPS    HB 2414   3.268   4.710   2.486  0.7831  1.5908  3.4186
   19SAPS    C2 2415   3.457   4.754   2.577  0.4222 -0.1141 -0.1860
   19SAPS    HS 2416   3.565   4.769   2.553  0.5712  0.1561  0.6139
   19SAPS   O21 2417   3.426   4.678   2.693 -0.2781  0.3404  0.0419
   19SAPS   C21 2418   3.537   4.616   2.741 -0.6143  0.4230 -0.6252
   19SAPS   O22 2419   3.650   4.623   2.707 -0.0273  0.3642  0.0121
   19SAPS   C22 2420   3.482   4.530   2.862  0.1523 -0.6571  0.2894
   19SAPS   H2R 2421   3.426   4.596   2.932 -2.5994 -1.3054 -1.1694
   19SAPS   H2S 2422   3.411   4.454   2.823  0.2099 -0.3366 -0.4441
   19SAPS    C3 2423   3.411   4.897   2.612  0.0384 -0.4798  0.2077
   19SAPS    HX 2424   3.307   4.903   2.653 -1.0920 -1.3419 -2.3385
   19SAPS    HY 2425   3.419   4.956   2.518  1.0015 -1.0167 -0.0609
   19SAPS   O31 2426   3.517   4.951   2.696  1.0552  0.6067 -0.0394
   19SAPS   C31 2427   3.484   5.058   2.766 -0.2455  0.0411  0.4110
   19SAPS   O32 2428   3.375   5.116   2.755 -0.1628  0.2184  0.1320
   19SAPS   C32 2429   3.596   5.077   2.860  0.4483 -0.0412  0.1593
   19SAPS   H2X 2430   3.560   5.146   2.939  0.5798 -1.2571  1.3140
   19SAPS   H2Y 2431   3.683   5.130   2.814  0.7506  0.1743  0.9511
   19SAPS   C23 2432   3.601   4.476   2.939  0.3237  0.1953 -0.8644
   19SAPS   H3R 2433   3.657   4.559   2.989 -3.1211  1.7779  0.7511
   19SAPS   H3S 2434   3.668   4.434   2.862 -0.5432  1.6148 -2.4563
   19SAPS   C24 2435   3.559   4.368   3.043  0.2912  0.3359  0.0667
   19SAPS   H4R 2436   3.654   4.348   3.096 -0.1245 -0.3401  0.5608
   19SAPS   H4S 2437   3.523   4.276   2.993 -1.8583  1.2348 -0.1495
   19SAPS   C25 2438   3.451   4.413   3.140  0.2472  0.8544 -0.3742
   19SAPS   H5R 2439   3.355   4.425   3.089 -0.6854  1.3965  1.4169
   19SAPS   C26 2440   3.466   4.450   3.270  0.1668 -1.1125 -0.0070
   19SAPS   H6R 2441   3.378   4.485   3.326 -0.2114 -1.1599 -0.5665
   19SAPS   C27 2442   3.595   4.450   3.354  0.2326 -0.3335  1.0043
   19SAPS   H7R 2443   3.616   4.544   3.409  1.4642 -0.7934  1.3581
   19SAPS   H7S 2444   3.680   4.455   3.283 -2.4901  0.7034 -2.4429
   19SAPS   C28 2445   3.594   4.325   3.437  0.1929  0.5548  0.0247
   19SAPS   H8R 2446   3.595   4.231   3.380 -2.2614  0.2162  0.4047
   19SAPS   C29 2447   3.590   4.315   3.570 -0.1561 -0.0223 -0.1069
   19SAPS   H9R 2448   3.581   4.217   3.619 -0.9091  0.4054  0.6320
   19SAPS  C210 2449   3.612   4.427   3.669 -0.2227 -0.6850  0.1824
   19SAPS  H10R 2450   3.624   4.521   3.611  0.0750 -1.5302 -1.2037
   19SAPS  H10S 2451   3.701   4.405   3.731 -0.1932 -1.0206  0.0244
   19SAPS  C211 2452   3.499   4.454   3.758 -0.4356  0.3112 -0.3182
   19SAPS  H11R 2453   3.401   4.454   3.708  0.4099 -4.3935 -2.5367
   19SAPS  C212 2454   3.510   4.477   3.889  0.2860 -0.5432 -0.2686
   19SAPS  H12R 2455   3.415   4.490   3.942  0.3425  0.4686 -0.3880
   19SAPS  C213 2456   3.638   4.483   3.970  0.3784 -0.6290 -0.3448
   19SAPS  H13R 2457   3.605   4.528   4.066 -0.1102  1.0818 -1.2695
   19SAPS  H13S 2458   3.704   4.564   3.932 -1.3388  0.5664 -0.8628
   19SAPS  C214 2459   3.706   4.354   3.999  0.2557 -0.1086  0.0307
   19SAPS  H14R 2460   3.653   4.258   3.981  3.9490 -2.3013 -0.1117
   19SAPS  C215 2461   3.829   4.352   4.048  0.3204 -0.2491  1.0251
   19SAPS  H15R 2462   3.877   4.256   4.072  1.6969 -0.1255 -1.0463
   19SAPS  C216 2463   3.910   4.479   4.065  0.0510 -0.4591 -0.3867
   19SAPS  H16R 2464   3.851   4.568   4.094  0.9016  0.1036 -0.3774
   19SAPS  H16S 2465   3.942   4.514   3.965  2.0144 -0.4590  0.1998
   19SAPS  C217 2466   4.042   4.468   4.150  0.4394 -0.1721  0.2927
   19SAPS  H17R 2467   4.097   4.564   4.141  0.8877 -0.5266 -0.9349
   19SAPS  H17S 2468   4.100   4.391   4.096 -0.5011  0.2740 -1.4094
   19SAPS  C218 2469   4.022   4.423   4.300  0.1384 -0.8231  0.1993
   19SAPS  H18R 2470   4.125   4.422   4.341  1.3184 -1.0874 -2.5338
   19SAPS  H18S 2471   3.992   4.316   4.313 -0.9341 -0.4407  1.0064
   19SAPS  C219 2472   3.930   4.512   4.372 -0.1948  0.3502 -0.0209
   19SAPS  H19R 2473   3.831   4.515   4.320 -0.7005 -0.4438  0.8582
   19SAPS  H19S 2474   3.982   4.609   4.385 -0.4853  0.6915 -1.2104
   19SAPS  C220 2475   3.908   4.458   4.514  0.1301 -0.5825  0.4387
   19SAPS  H20R 2476   3.850   4.364   4.525  1.1809 -1.0870  2.1661
   19SAPS  H20S 2477   3.852   4.539   4.565 -0.1935  2.0275 -3.6358
   19SAPS  H20T 2478   4.005   4.457   4.569  0.5256  1.1154 -0.1713
   19SAPS   C33 2479   3.639   4.942   2.936 -0.1861 -0.3463 -0.4655
   19SAPS   H3X 2480   3.720   4.983   3.000  1.3225  2.2711 -3.7658
   19SAPS   H3Y 2481   3.698   4.864   2.884  3.1674  0.5393  1.6657
   19SAPS   C34 2482   3.523   4.872   3.007 -0.4490 -0.2906  0.1597
   19SAPS   H4X 2483   3.481   4.803   2.932  0.8721 -0.7016 -0.2326
   19SAPS   H4Y 2484   3.449   4.952   3.028 -0.1353 -0.2627  1.2532
   19SAPS   C35 2485   3.557   4.802   3.145 -0.4289 -0.5790 -0.2932
   19SAPS   H5X 2486   3.628   4.721   3.119 -0.7516 -0.8349 -0.3851
   19SAPS   H5Y 2487   3.462   4.768   3.191  0.2076 -1.7920  0.1513
   19SAPS   C36 2488   3.612   4.896   3.251  0.0684 -0.0410  0.1805
   19SAPS   H6X 2489   3.546   4.983   3.270  2.1995  1.1800  2.6254
   19SAPS   H6Y 2490   3.715   4.930   3.226 -0.1156  0.9299  0.7009
   19SAPS   C37 2491   3.615   4.830   3.394 -0.8454  0.4957 -0.2472
   19SAPS   H7X 2492   3.698   4.756   3.397  0.6418  2.1196 -0.1609
   19SAPS   H7Y 2493   3.521   4.776   3.422 -0.6219  0.8516  1.2306
   19SAPS   C38 2494   3.657   4.916   3.508  0.2575 -0.3584  0.8096
   19SAPS   H8X 2495   3.583   4.998   3.521  1.7184  1.1811 -0.0813
   19SAPS   H8Y 2496   3.758   4.961   3.501 -0.0036  0.1430  0.1468
   19SAPS   C39 2497   3.668   4.834   3.634  0.4394 -0.4726 -0.1097
   19SAPS   H9X 2498   3.735   4.747   3.619 -1.4438 -2.0307 -0.0240
   19SAPS   H9Y 2499   3.567   4.794   3.659 -0.6380  1.4184 -1.2597
   19SAPS  C310 2500   3.721   4.925   3.742 -0.5803 -0.3394  0.2771
   19SAPS  H10X 2501   3.650   5.010   3.744  0.4314  0.5171  0.1322
   19SAPS  H10Y 2502   3.818   4.974   3.723 -0.4642 -0.3499  0.8141
   19SAPS  C311 2503   3.724   4.856   3.874  0.2627 -0.2886 -0.3740
   19SAPS  H11X 2504   3.792   4.769   3.877  0.1320 -0.3812  2.0333
   19SAPS  H11Y 2505   3.624   4.813   3.897  0.9205 -1.5706  0.1544
   19SAPS  C312 2506   3.754   4.955   3.993 -0.2329  0.0841 -0.4833
   19SAPS  H12X 2507   3.681   5.038   3.985 -2.6056 -1.7327  1.0693
   19SAPS  H12Y 2508   3.860   4.988   3.980 -0.1687 -0.5551 -1.7253
   19SAPS  C313 2509   3.738   4.875   4.122  0.2251  0.3881 -0.0344
   19SAPS  H13X 2510   3.828   4.814   4.145  0.0188  0.5892  1.4002
   19SAPS  H13Y 2511   3.653   4.804   4.108 -0.2987  0.7514  1.1114
   19SAPS  C314 2512   3.707   4.950   4.255  0.0714  0.1615  0.2197
   19SAPS  H14X 2513   3.602   4.984   4.269 -0.1462 -0.9067  1.2736
   19SAPS  H14Y 2514   3.772   5.040   4.247  2.2954 -1.4961 -1.4157
   19SAPS  C315 2515   3.739   4.869   4.383  0.6397 -0.4271 -0.0704
   19SAPS  H15X 2516   3.845   4.837   4.386  0.1361 -2.1925  0.1598
   19SAPS  H15Y 2517   3.678   4.776   4.383  0.1798 -0.1331 -0.3719
   19SAPS  C316 2518   3.712   4.948   4.515 -0.2563  0.4816 -0.3105
   19SAPS  H16X 2519   3.607   4.983   4.520  0.4182  2.6252 -0.0216
   19SAPS  H16Y 2520   3.769   5.044   4.523  1.8658 -0.6731 -0.7389
   19SAPS  C317 2521   3.739   4.856   4.633  0.4858 -0.6196 -0.0046
   19SAPS  H17X 2522   3.848   4.836   4.624  0.1420 -2.0605 -1.5362
   19SAPS  H17Y 2523   3.688   4.759   4.613 -1.1051 -0.3259  2.2781
   19SAPS  C318 2524   3.701   4.917   4.769  0.4223 -0.1098 -0.1992
   19SAPS  H18X 2525   3.592   4.938   4.779  0.0762 -1.8291 -0.0397
   19SAPS  H18Y 2526   3.744   5.019   4.771 -1.3717  0.6760  0.5051
   19SAPS  H18Z 2527   3.747   4.862   4.854  3.2251  1.9587 -0.2614
   20SAPS     N 2528   5.313   5.085   2.483  0.2071 -0.5901  0.2005
   20SAPS   HN1 2529   5.406   5.088   2.530  0.0244  0.2433  0.5161
   20SAPS   HN2 2530   5.282   5.181   2.508 -1.3517 -0.8997 -0.4255
   20SAPS   HN3 2531   5.262   5.016   2.542  1.6048 -0.9799  0.9857
   20SAPS   C12 2532   5.315   5.068   2.336  0.5830  1.0001 -0.1349
   20SAPS  H12A 2533   5.223   5.023   2.303  0.1083  0.0605  2.2665
   20SAPS   C13 2534   5.332   5.196   2.240 -0.6555  0.8462 -0.1909
   20SAPS  O13A 2535   5.313   5.308   2.305 -0.7095  0.1529 -0.1213
   20SAPS  O13B 2536   5.334   5.176   2.118  0.5705 -0.2628  0.3286
   20SAPS   C11 2537   5.422   4.963   2.303  0.3053 -0.5697  0.2223
   20SAPS  H11A 2538   5.521   5.011   2.320  0.3880 -0.9437  0.8245
   20SAPS  H11B 2539   5.407   4.938   2.196 -1.8368 -0.8809  0.5593
   20SAPS     P 2540   5.518   4.728   2.370 -0.0679  0.2304 -0.2129
   20SAPS   O13 2541   5.525   4.683   2.225 -0.7812  0.1254 -0.3806
   20SAPS   O14 2542   5.653   4.765   2.429 -0.5758  0.2304  0.0188
   20SAPS   O12 2543   5.404   4.842   2.378 -0.0962  0.2578 -0.1578
   20SAPS   O11 2544   5.455   4.620   2.464 -0.2499  0.2098 -0.0762
   20SAPS    C1 2545   5.339   4.640   2.543  0.5048  0.5654  0.4458
   20SAPS    HA 2546   5.255   4.670   2.477  1.3223 -2.7782 -2.4054
   20SAPS    HB 2547   5.318   4.543   2.593  2.1218  0.0228  0.1332
   20SAPS    C2 2548   5.359   4.737   2.662 -0.4342  0.4826 -0.1941
   20SAPS    HS 2549   5.388   4.836   2.621  0.9704 -0.6336 -2.1172
   20SAPS   O21 2550   5.459   4.686   2.761 -0.3401  0.1652  0.4257
   20SAPS   C21 2551   5.550   4.763   2.798 -0.4863 -0.1403 -0.5795
   20SAPS   O22 2552   5.562   4.883   2.776  0.1505  0.4910  0.4523
   20SAPS   C22 2553   5.652   4.686   2.881  0.7296  0.6731 -0.1542
   20SAPS   H2R 2554   5.596   4.636   2.963 -0.8248 -0.0602 -1.5790
   20SAPS   H2S 2555   5.700   4.611   2.815 -0.2654  0.0751 -0.2222
   20SAPS    C3 2556   5.222   4.755   2.738 -0.4805  0.8670  0.8442
   20SAPS    HX 2557   5.183   4.651   2.748  2.5014 -0.5840 -1.0395
   20SAPS    HY 2558   5.149   4.808   2.673  0.4424  0.4543 -0.5595
   20SAPS   O31 2559   5.235   4.815   2.865 -1.2566  0.1275 -0.4196
   20SAPS   C31 2560   5.256   4.951   2.846 -0.1104 -0.3122  0.0421
   20SAPS   O32 2561   5.258   5.009   2.736 -0.0652 -0.5464  0.0447
   20SAPS   C32 2562   5.292   5.016   2.984  0.8196 -0.2941  1.0577
   20SAPS   H2X 2563   5.217   5.094   3.007  0.9171 -0.3321  1.5048
   20SAPS   H2Y 2564   5.391   5.062   2.964  1.1996 -1.2612  0.6233
   20SAPS   C23 2565   5.769   4.773   2.936  0.3806 -0.4512 -0.4673
   20SAPS   H3R 2566   5.736   4.824   3.029  1.0740  0.2764 -0.6019
   20SAPS   H3S 2567   5.800   4.858   2.871 -0.4190  2.1397  2.3212
   20SAPS   C24 2568   5.884   4.675   2.977 -0.2746  0.8682 -0.1018
   20SAPS   H4R 2569   5.905   4.594   2.904  0.6057 -0.3657  1.4635
   20SAPS   H4S 2570   5.845   4.624   3.068  2.2779 -2.1349 -0.5283
   20SAPS   C25 2571   6.008   4.754   2.995  0.4154 -0.1051  0.3371
   20SAPS   H5R 2572   6.042   4.790   2.897 -0.0084 -1.9594 -0.5240
   20SAPS   C26 2573   6.072   4.784   3.111  0.1435  0.9412  0.5575
   20SAPS   H6R 2574   6.162   4.848   3.112  1.9405 -1.4452  1.9139
   20SAPS   C27 2575   6.048   4.727   3.250 -0.6191  0.3343  0.0808
   20SAPS   H7R 2576   6.138   4.734   3.316 -0.8604  0.5444  0.3901
   20SAPS   H7S 2577   6.038   4.617   3.244  2.9836 -0.1792  0.8472
   20SAPS   C28 2578   5.938   4.803   3.321  0.3639 -0.1807 -0.1417
   20SAPS   H8R 2579   5.853   4.825   3.255  1.9880  1.2718 -1.8414
   20SAPS   C29 2580   5.932   4.840   3.454  0.3911  0.9321  0.7605
   20SAPS   H9R 2581   5.839   4.882   3.496 -0.1121  1.6481 -0.9868
   20SAPS  C210 2582   6.040   4.821   3.558 -0.9492  0.1837  0.2340
   20SAPS  H10R 2583   6.141   4.851   3.523 -0.2500 -1.9669  0.2068
   20SAPS  H10S 2584   6.044   4.710   3.567  0.8725 -0.1129 -2.7969
   20SAPS  C211 2585   6.020   4.897   3.683 -0.7228  0.1315  0.1406
   20SAPS  H11R 2586   6.064   4.998   3.680  0.1965 -0.2761 -2.2566
   20SAPS  C212 2587   5.955   4.860   3.802  0.3411 -0.3506  0.1229
   20SAPS  H12R 2588   5.957   4.932   3.885 -1.3780 -0.7633  0.5566
   20SAPS  C213 2589   5.883   4.727   3.821 -0.5724  0.0114 -0.2784
   20SAPS  H13R 2590   5.925   4.652   3.751  1.2871 -0.5365  1.3358
   20SAPS  H13S 2591   5.777   4.745   3.792 -0.6614 -1.3372 -0.8531
   20SAPS  C214 2592   5.907   4.674   3.956  0.1671  0.2509 -0.5290
   20SAPS  H14R 2593   5.983   4.723   4.019 -0.4106  0.6498 -0.1380
   20SAPS  C215 2594   5.833   4.574   4.016  0.0730 -0.3655  0.1909
   20SAPS  H15R 2595   5.892   4.521   4.092  0.0073 -0.5596  0.1078
   20SAPS  C216 2596   5.713   4.502   3.961 -0.0848 -0.0257 -0.1621
   20SAPS  H16R 2597   5.743   4.459   3.863  1.6222 -0.7507  0.6376
   20SAPS  H16S 2598   5.640   4.583   3.943  1.6669  1.3042 -1.6989
   20SAPS  C217 2599   5.648   4.389   4.046 -0.9109 -0.0763 -0.1429
   20SAPS  H17R 2600   5.732   4.322   4.074 -0.5283  0.1886 -0.6482
   20SAPS  H17S 2601   5.575   4.328   3.988 -0.9488 -2.2432  2.0188
   20SAPS  C218 2602   5.573   4.432   4.172 -0.4034 -0.2517 -0.1855
   20SAPS  H18R 2603   5.469   4.397   4.160  0.2206 -1.2432 -4.4406
   20SAPS  H18S 2604   5.565   4.543   4.175  0.1154 -0.2260  1.1367
   20SAPS  C219 2605   5.628   4.377   4.305 -0.4013  0.2487  0.6000
   20SAPS  H19R 2606   5.664   4.274   4.285  1.1436  0.7831  0.4937
   20SAPS  H19S 2607   5.549   4.372   4.383 -1.3426 -0.5832 -0.3853
   20SAPS  C220 2608   5.745   4.461   4.353 -0.0315 -0.4151 -0.8432
   20SAPS  H20R 2609   5.827   4.453   4.278  0.7311 -0.0877 -0.0512
   20SAPS  H20S 2610   5.788   4.428   4.449  0.5198  3.6873  0.5199
   20SAPS  H20T 2611   5.712   4.566   4.368  0.8906  0.1846 -2.6679
   20SAPS   C33 2612   5.313   4.905   3.087 -0.3680 -0.8685 -0.3714
   20SAPS   H3X 2613   5.383   4.822   3.066  0.8926 -0.1781  0.9291
   20SAPS   H3Y 2614   5.215   4.854   3.101 -0.9594  0.0969 -0.8734
   20SAPS   C34 2615   5.376   4.961   3.216 -0.5299  0.5196  0.0741
   20SAPS   H4X 2616   5.466   5.016   3.182  1.5243 -2.6437  0.0045
   20SAPS   H4Y 2617   5.401   4.875   3.281 -1.9954 -0.3340 -0.4214
   20SAPS   C35 2618   5.279   5.053   3.288 -0.3919  0.5256  0.2334
   20SAPS   H5X 2619   5.195   4.987   3.318  0.2153 -1.1451 -1.5522
   20SAPS   H5Y 2620   5.236   5.128   3.218  0.0639  1.5368  0.9960
   20SAPS   C36 2621   5.340   5.131   3.400 -0.0594 -0.0156 -0.4980
   20SAPS   H6X 2622   5.407   5.203   3.349 -0.3064 -0.2072 -1.1059
   20SAPS   H6Y 2623   5.395   5.068   3.473 -1.2310 -0.9781 -0.4034
   20SAPS   C37 2624   5.243   5.211   3.491 -0.4316 -0.0271  0.0912
   20SAPS   H7X 2625   5.171   5.136   3.531  2.1841 -1.8431  1.6897
   20SAPS   H7Y 2626   5.191   5.288   3.430  3.5317  1.1410 -2.1603
   20SAPS   C38 2627   5.325   5.279   3.613  0.6197 -0.2415  0.1829
   20SAPS   H8X 2628   5.397   5.356   3.578  0.7409  0.0999  1.1336
   20SAPS   H8Y 2629   5.379   5.197   3.665  4.8897  3.3333  2.0880
   20SAPS   C39 2630   5.240   5.357   3.710  0.1373 -0.0675 -0.1583
   20SAPS   H9X 2631   5.151   5.302   3.747  1.2599 -1.4132  0.6325
   20SAPS   H9Y 2632   5.205   5.456   3.674 -0.5112  0.1113  0.9266
   20SAPS  C310 2633   5.328   5.400   3.836 -0.0761  0.0286 -0.0428
   20SAPS  H10X 2634   5.296   5.504   3.862  1.0510  0.1440  0.9703
   20SAPS  H10Y 2635   5.430   5.405   3.792  0.9702  1.4521  2.3203
   20SAPS  C311 2636   5.319   5.299   3.949 -0.3062  0.5130  0.3382
   20SAPS  H11X 2637   5.419   5.311   3.998  0.3960  0.5077 -1.0484
   20SAPS  H11Y 2638   5.315   5.193   3.916 -1.2561  0.9402 -1.0028
   20SAPS  C312 2639   5.203   5.327   4.041 -0.1690  0.2942 -0.7162
   20SAPS  H12X 2640   5.127   5.252   4.012  0.8467 -0.6597 -0.9866
   20SAPS  H12Y 2641   5.164   5.430   4.031 -0.7431  0.0333 -1.2511
   20SAPS  C313 2642   5.225   5.301   4.195 -0.2958 -0.5630 -0.1582
   20SAPS  H13X 2643   5.294   5.218   4.219 -0.6539 -0.6979  0.4019
   20SAPS  H13Y 2644   5.129   5.281   4.246 -1.2565 -1.8077 -2.3212
   20SAPS  C314 2645   5.291   5.419   4.266  0.4143 -0.0260  0.2911
   20SAPS  H14X 2646   5.217   5.501   4.252 -0.9854 -1.2593  0.2493
   20SAPS  H14Y 2647   5.381   5.464   4.218 -0.0888  1.5029  0.7366
   20SAPS  C315 2648   5.301   5.395   4.415  0.2817  0.5570 -0.3987
   20SAPS  H15X 2649   5.392   5.337   4.443 -0.8728 -0.5094  1.3763
   20SAPS  H15Y 2650   5.213   5.342   4.457  1.0893 -2.0684 -1.7671
   20SAPS  C316 2651   5.327   5.527   4.486  0.5539 -0.7257 -1.3155
   20SAPS  H16X 2652   5.335   5.496   4.592 -0.9849 -0.3898 -1.0759
   20SAPS  H16Y 2653   5.243   5.599   4.489 -0.3972 -1.8364 -0.0332
   20SAPS  C317 2654   5.454   5.606   4.443  0.3436 -0.0615  0.9503
   20SAPS  H17X 2655   5.423   5.647   4.344 -2.0000 -1.8121  0.8640
   20SAPS  H17Y 2656   5.538   5.534   4.439  0.5402  0.2124 -0.2515
   20SAPS  C318 2657   5.501   5.718   4.541 -0.1213  0.4381 -0.3321
   20SAPS  H18X 2658   5.551   5.662   4.624  0.4682 -0.7903 -1.4769
   20SAPS  H18Y 2659   5.418   5.777   4.586  0.7271  0.9017  0.6739
   20SAPS  H18Z 2660   5.575   5.789   4.500 -0.6520  1.3598  0.2743
   21CHL1    C3 2661   1.551   3.538   6.073  0.1651 -0.1264 -0.1553
   21CHL1    H3 2662   1.662   3.551   6.071  0.3355 -1.3519  0.5567
   21CHL1    O3 2663   1.501   3.538   6.209  0.3289 -0.1169  0.3626
   21CHL1   H3' 2664   1.564   3.484   6.258  2.1094  1.5220 -0.0233
   21CHL1    C4 2665   1.487   3.653   5.986  0.2219 -0.4309 -0.1744
   21CHL1   H4A 2666   1.377   3.637   5.989 -0.2688  2.5864  1.7543
   21CHL1   H4B 2667   1.502   3.754   6.028 -1.4102  0.7814 -2.3038
   21CHL1    C5 2668   1.514   3.650   5.844 -0.4246  0.3519  0.3767
   21CHL1    C6 2669   1.554   3.757   5.781  0.3516 -0.5766 -0.2745
   21CHL1    H6 2670   1.554   3.850   5.840 -1.9061 -1.2727  0.9344
   21CHL1    C7 2671   1.584   3.765   5.635 -0.6567 -0.4716  0.3552
   21CHL1   H7A 2672   1.523   3.851   5.597  3.0202  2.4397  0.4666
   21CHL1   H7B 2673   1.694   3.770   5.622 -0.7133 -0.2744 -0.0946
   21CHL1    C8 2674   1.536   3.639   5.560  0.2904 -0.0056 -0.4822
   21CHL1    H8 2675   1.425   3.648   5.549  0.4712  1.6746 -1.1500
   21CHL1   C14 2676   1.608   3.621   5.426 -0.1955  1.0794  0.1325
   21CHL1   H14 2677   1.715   3.603   5.450  0.2319 -1.2001 -2.9338
   21CHL1   C15 2678   1.599   3.741   5.327 -0.5919  0.1015 -0.0445
   21CHL1  H15A 2679   1.504   3.799   5.334 -0.7319 -0.2391  1.1313
   21CHL1  H15B 2680   1.684   3.809   5.350  2.6797 -4.1607  1.9314
   21CHL1   C16 2681   1.625   3.671   5.194  0.5220  0.4725 -0.0902
   21CHL1  H16A 2682   1.540   3.693   5.126  1.3973  1.4733 -0.8980
   21CHL1  H16B 2683   1.714   3.696   5.132  3.0263 -3.2589  1.6122
   21CHL1   C17 2684   1.651   3.518   5.218  0.3627  0.2442 -0.0576
   21CHL1   H17 2685   1.754   3.493   5.249  0.2208  0.1974  0.3875
   21CHL1   C13 2686   1.564   3.499   5.348  0.0130 -0.5173 -0.3903
   21CHL1   C18 2687   1.408   3.488   5.314 -0.7856 -0.2650 -0.4189
   21CHL1  H18A 2688   1.386   3.380   5.303  0.7914 -0.5329 -1.2379
   21CHL1  H18B 2689   1.347   3.533   5.396  0.4036 -1.4565  1.1840
   21CHL1  H18C 2690   1.387   3.551   5.225  0.5549  0.5673 -0.1678
   21CHL1   C12 2691   1.608   3.381   5.438 -0.4499 -0.6203 -0.8849
   21CHL1  H12A 2692   1.581   3.290   5.381 -1.1046  1.4635 -4.1601
   21CHL1  H12B 2693   1.718   3.373   5.450 -0.6343  0.3140  2.6445
   21CHL1   C11 2694   1.528   3.379   5.565 -0.3926  0.5879  0.7098
   21CHL1  H11A 2695   1.421   3.364   5.538 -0.0427 -1.3738  0.2970
   21CHL1  H11B 2696   1.571   3.294   5.622  1.3454 -0.6114 -2.2045
   21CHL1    C9 2697   1.568   3.509   5.641  0.0828 -0.4728 -0.6529
   21CHL1    H9 2698   1.678   3.508   5.656 -0.0936  0.3319  0.9245
   21CHL1   C10 2699   1.507   3.512   5.781  1.3212 -0.7545  0.6485
   21CHL1   C19 2700   1.357   3.489   5.763 -0.3665 -0.1664 -0.4042
   21CHL1  H19A 2701   1.345   3.391   5.712  2.4318  0.1794 -1.9099
   21CHL1  H19B 2702   1.294   3.479   5.854  0.7477 -0.2222  0.3704
   21CHL1  H19C 2703   1.310   3.557   5.689 -0.2752  0.9213  0.5265
   21CHL1    C1 2704   1.572   3.400   5.867  0.7907 -0.6920  0.3643
   21CHL1   H1A 2705   1.567   3.302   5.817 -1.9674  0.3869 -1.7402
   21CHL1   H1B 2706   1.681   3.417   5.885  0.7497 -0.8925  0.8270
   21CHL1    C2 2707   1.523   3.399   6.011  1.1175  0.0494  0.3368
   21CHL1   H2A 2708   1.578   3.316   6.061  2.0345  1.6399  2.0890
   21CHL1   H2B 2709   1.414   3.375   6.009  1.2650 -0.6550  0.6777
   21CHL1   C20 2710   1.610   3.440   5.102  0.0966  0.2750 -0.3410
   21CHL1   H20 2711   1.503   3.448   5.074 -0.2827 -2.3908  0.0364
   21CHL1   C21 2712   1.635   3.288   5.137 -0.3564 -0.4674 -0.3886
   21CHL1  H21A 2713   1.546   3.262   5.199 -0.6578  1.7534  0.2048
   21CHL1  H21B 2714   1.714   3.274   5.214 -2.1138 -1.8833  1.2901
   21CHL1  H21C 2715   1.633   3.216   5.053  0.2391 -1.6388  0.5586
   21CHL1   C22 2716   1.683   3.482   4.965 -0.0114 -0.4932  0.2742
   21CHL1  H22A 2717   1.655   3.588   4.944 -0.3077 -0.8556 -1.2532
   21CHL1  H22B 2718   1.789   3.476   4.998 -0.3452 -1.0437  1.3142
   21CHL1   C23 2719   1.664   3.411   4.832  0.2780  0.6287 -0.1657
   21CHL1  H23A 2720   1.666   3.302   4.854 -1.4467  1.1973  3.6507
   21CHL1  H23B 2721   1.565   3.425   4.783  0.3743 -0.8833 -0.8279
   21CHL1   C24 2722   1.767   3.459   4.730  0.4156  0.5278  0.2683
   21CHL1  H24A 2723   1.751   3.569   4.721 -0.5006  0.3437 -0.5776
   21CHL1  H24B 2724   1.866   3.417   4.757  0.3409  0.5346  0.5614
   21CHL1   C25 2725   1.751   3.391   4.585  0.1061 -0.2129 -0.0583
   21CHL1   H25 2726   1.827   3.431   4.515 -2.0625  0.8072 -1.9733
   21CHL1   C26 2727   1.763   3.240   4.593  0.1448  0.1887  0.0525
   21CHL1  H26A 2728   1.851   3.196   4.644  0.6226  1.3015  0.2156
   21CHL1  H26B 2729   1.689   3.205   4.668  0.7413 -2.1480 -0.3930
   21CHL1  H26C 2730   1.735   3.184   4.501 -1.1581 -0.1545  0.6426
   21CHL1   C27 2731   1.609   3.427   4.528  0.1928  0.2145  0.6843
   21CHL1  H27A 2732   1.530   3.354   4.555 -0.5498  0.7151 -0.0964
   21CHL1  H27B 2733   1.570   3.525   4.564  0.4316 -0.3214  2.5269
   21CHL1  H27C 2734   1.609   3.421   4.417  1.6137  1.5404  0.5770
   22CHL1    C3 2735   0.617   1.795   6.289  0.0747 -0.7203 -0.6518
   22CHL1    H3 2736   0.575   1.896   6.272  1.6226 -0.1461 -1.1969
   22CHL1    O3 2737   0.649   1.761   6.424 -0.2066  0.4404 -0.8236
   22CHL1   H3' 2738   0.728   1.706   6.420  0.3847  1.0966  0.9604
   22CHL1    C4 2739   0.529   1.692   6.217 -0.0167  0.2054  0.1511
   22CHL1   H4A 2740   0.570   1.589   6.231 -2.6369 -0.7106  2.1514
   22CHL1   H4B 2741   0.428   1.702   6.264  0.1935 -1.2243  0.9774
   22CHL1    C5 2742   0.506   1.724   6.070  0.7856 -0.5083 -0.1546
   22CHL1    C6 2743   0.383   1.747   6.024  0.6168  0.3545  0.6074
   22CHL1    H6 2744   0.300   1.709   6.086 -0.4129 -0.2498 -1.0898
   22CHL1    C7 2745   0.348   1.792   5.876  0.7149 -0.4302 -0.5484
   22CHL1   H7A 2746   0.266   1.731   5.834 -0.7062  0.6968  0.4867
   22CHL1   H7B 2747   0.316   1.897   5.862  2.6260  0.8049  2.9432
   22CHL1    C8 2748   0.477   1.774   5.791  0.6277 -0.3850  0.2770
   22CHL1    H8 2749   0.466   1.665   5.771  0.5972 -0.3103 -0.1169
   22CHL1   C14 2750   0.466   1.848   5.661 -0.0018 -0.8103  0.6128
   22CHL1   H14 2751   0.466   1.957   5.683 -0.8638 -0.4036 -1.1992
   22CHL1   C15 2752   0.333   1.828   5.584  0.6759  0.3924 -0.3625
   22CHL1  H15A 2753   0.290   1.726   5.600  1.4020  0.0973 -0.2698
   22CHL1  H15B 2754   0.255   1.903   5.607  2.0264  1.9862 -0.8109
   22CHL1   C16 2755   0.372   1.849   5.437 -0.0362  0.7384 -0.3033
   22CHL1  H16A 2756   0.354   1.753   5.385  0.2191  0.2152  0.5537
   22CHL1  H16B 2757   0.309   1.923   5.383 -0.2806  0.9808  0.3025
   22CHL1   C17 2758   0.515   1.899   5.448  0.3314  0.2446  0.0318
   22CHL1   H17 2759   0.521   2.005   5.479 -1.4654  0.3985 -0.0185
   22CHL1   C13 2760   0.583   1.826   5.564  0.5661 -0.9885 -0.2106
   22CHL1   C18 2761   0.611   1.682   5.538  0.5511 -0.0972  0.8080
   22CHL1  H18A 2762   0.534   1.628   5.479  1.4953  0.0645 -0.6152
   22CHL1  H18B 2763   0.702   1.668   5.475 -0.9744  0.5066 -1.6558
   22CHL1  H18C 2764   0.623   1.617   5.628  1.2367 -1.5083 -0.2579
   22CHL1   C12 2765   0.702   1.897   5.626  0.0886  0.5643 -0.1353
   22CHL1  H12A 2766   0.790   1.887   5.559 -0.8557 -0.1453 -1.3254
   22CHL1  H12B 2767   0.685   2.004   5.648 -0.0429  0.3166  1.0527
   22CHL1   C11 2768   0.732   1.836   5.763 -0.1275 -0.0739  1.1418
   22CHL1  H11A 2769   0.770   1.734   5.739 -3.5383 -0.8720 -1.7443
   22CHL1  H11B 2770   0.819   1.886   5.810 -0.5295  1.0162  0.7538
   22CHL1    C9 2771   0.611   1.830   5.857  0.4162 -0.4803  0.3480
   22CHL1    H9 2772   0.586   1.933   5.892 -1.7798 -0.6896 -0.3954
   22CHL1   C10 2773   0.636   1.759   5.992  0.2074 -0.2103  0.5837
   22CHL1   C19 2774   0.697   1.622   5.951  0.3145 -0.1864 -0.1025
   22CHL1  H19A 2775   0.720   1.574   6.048 -1.3026  0.6976  0.7608
   22CHL1  H19B 2776   0.624   1.558   5.897  2.5687 -1.1659 -2.1601
   22CHL1  H19C 2777   0.796   1.630   5.902 -0.0529  1.5636 -0.6086
   22CHL1    C1 2778   0.748   1.835   6.075 -0.1575 -0.1238  1.1831
   22CHL1   H1A 2779   0.840   1.828   6.013 -0.7137 -0.2084  0.3564
   22CHL1   H1B 2780   0.722   1.943   6.067  2.7126  0.5874  0.0101
   22CHL1    C2 2781   0.754   1.797   6.221 -0.2379  0.7377 -0.2237
   22CHL1   H2A 2782   0.826   1.863   6.274  0.8382  3.2696 -4.3743
   22CHL1   H2B 2783   0.804   1.699   6.219  0.5850  1.1672 -1.6984
   22CHL1   C20 2784   0.598   1.892   5.322  0.5095 -0.3094 -0.1877
   22CHL1   H20 2785   0.702   1.862   5.348 -0.2816 -0.6498  3.0845
   22CHL1   C21 2786   0.591   2.034   5.264 -0.0781  0.3017 -0.2342
   22CHL1  H21A 2787   0.486   2.068   5.249 -1.3499 -3.0450  0.2898
   22CHL1  H21B 2788   0.640   2.030   5.164  1.6091  1.4119  0.5036
   22CHL1  H21C 2789   0.653   2.108   5.319 -0.2600 -0.3803  0.9277
   22CHL1   C22 2790   0.571   1.780   5.224 -0.1761 -0.0310 -0.7183
   22CHL1  H22A 2791   0.541   1.685   5.274 -1.4455  0.1618 -1.0818
   22CHL1  H22B 2792   0.475   1.797   5.171 -0.8062 -0.0615  0.3770
   22CHL1   C23 2793   0.685   1.741   5.137 -0.1987 -0.3516  0.0699
   22CHL1  H23A 2794   0.709   1.837   5.086  0.3096 -0.8411 -0.6403
   22CHL1  H23B 2795   0.773   1.702   5.192 -0.0372 -3.0762 -1.8892
   22CHL1   C24 2796   0.661   1.636   5.022  0.4906 -0.2081  0.4674
   22CHL1  H24A 2797   0.623   1.544   5.072 -0.3939 -1.7164 -2.6940
   22CHL1  H24B 2798   0.570   1.671   4.967 -0.4998 -3.6394 -0.3602
   22CHL1   C25 2799   0.786   1.596   4.935 -0.0012  0.1967 -0.1889
   22CHL1   H25 2800   0.750   1.522   4.860 -0.9423 -1.0711  1.4692
   22CHL1   C26 2801   0.855   1.696   4.850 -0.3686 -0.9519 -1.1147
   22CHL1  H26A 2802   0.922   1.643   4.779  1.0163 -2.1526  0.9818
   22CHL1  H26B 2803   0.788   1.761   4.789  0.6261  0.7989 -0.4054
   22CHL1  H26C 2804   0.919   1.767   4.907 -2.0451 -0.2046 -0.0790
   22CHL1   C27 2805   0.887   1.525   5.034 -0.3868  0.7855 -0.1872
   22CHL1  H27A 2806   0.925   1.580   5.123 -1.6492  1.4328 -0.0176
   22CHL1  H27B 2807   0.839   1.443   5.092  1.5817 -1.1453 -1.1430
   22CHL1  H27C 2808   0.970   1.483   4.973 -0.4974 -1.3461  1.0317
   23CHL1    C3 2809   5.899   1.417   6.095 -0.2638  0.1872 -0.4733
   23CHL1    H3 2810   5.919   1.520   6.131 -0.2785  0.2200 -0.5600
   23CHL1    O3 2811   5.935   1.326   6.199  0.1799  0.4886 -0.4731
   23CHL1   H3' 2812   5.881   1.249   6.179 -0.3010 -0.4724  3.6277
   23CHL1    C4 2813   5.746   1.412   6.081  0.0496  0.3085 -0.8947
   23CHL1   H4A 2814   5.718   1.305   6.066 -0.1564  0.3436 -0.7571
   23CHL1   H4B 2815   5.704   1.440   6.180 -2.0146  1.8786 -2.1304
   23CHL1    C5 2816   5.696   1.493   5.964 -0.0966  1.1195  0.4128
   23CHL1    C6 2817   5.601   1.580   5.983  0.8494 -0.4883  0.1679
   23CHL1    H6 2818   5.559   1.605   6.081 -1.3437 -0.6715 -0.6775
   23CHL1    C7 2819   5.533   1.658   5.873 -0.1495  0.4769 -0.0518
   23CHL1   H7A 2820   5.424   1.652   5.892 -0.1096 -3.1370 -0.3379
   23CHL1   H7B 2821   5.573   1.762   5.873  2.6898 -0.4990  1.9875
   23CHL1    C8 2822   5.567   1.603   5.726 -0.8053  0.1770 -0.1135
   23CHL1    H8 2823   5.503   1.512   5.725 -3.3433  1.8395  1.2127
   23CHL1   C14 2824   5.525   1.695   5.616  0.6118  0.8935 -0.4859
   23CHL1   H14 2825   5.592   1.783   5.628  3.5804 -0.9272 -2.2751
   23CHL1   C15 2826   5.373   1.748   5.622  0.1028  0.7050  0.3346
   23CHL1  H15A 2827   5.324   1.657   5.661 -1.0774  0.8972 -0.6472
   23CHL1  H15B 2828   5.353   1.828   5.697  0.6145 -0.3321  1.6109
   23CHL1   C16 2829   5.339   1.782   5.477  0.9270 -0.0096 -0.1951
   23CHL1  H16A 2830   5.251   1.725   5.440 -0.1147  0.3063  1.6783
   23CHL1  H16B 2831   5.297   1.885   5.470  0.9736  0.1349  1.3425
   23CHL1   C17 2832   5.468   1.748   5.391 -0.5545 -0.1500  0.8211
   23CHL1   H17 2833   5.535   1.836   5.392  0.3187 -0.7566 -0.4232
   23CHL1   C13 2834   5.549   1.646   5.475 -0.1362  0.1325 -0.1346
   23CHL1   C18 2835   5.488   1.505   5.460  0.1640  0.4537 -0.1872
   23CHL1  H18A 2836   5.378   1.516   5.450 -0.0571  3.6539  3.3153
   23CHL1  H18B 2837   5.529   1.469   5.363 -2.4227  0.7249 -1.4697
   23CHL1  H18C 2838   5.517   1.424   5.530  0.2784 -0.0702 -0.8261
   23CHL1   C12 2839   5.705   1.640   5.467  0.5531  0.1661  0.3170
   23CHL1  H12A 2840   5.750   1.612   5.369  1.4415 -2.1501  1.2910
   23CHL1  H12B 2841   5.757   1.736   5.482  3.5892 -1.3562  0.2688
   23CHL1   C11 2842   5.764   1.546   5.575 -0.1825 -0.3754  0.4002
   23CHL1  H11A 2843   5.751   1.447   5.528  0.0788  0.4544 -1.4860
   23CHL1  H11B 2844   5.874   1.559   5.582  0.0121 -1.8786  0.4619
   23CHL1    C9 2845   5.721   1.568   5.721  0.2716 -0.7056 -0.1403
   23CHL1    H9 2846   5.767   1.668   5.739 -4.1172  1.2122  2.1266
   23CHL1   C10 2847   5.763   1.466   5.824  0.8048 -0.0425  0.0420
   23CHL1   C19 2848   5.727   1.325   5.768 -0.5754  0.8502 -0.5705
   23CHL1  H19A 2849   5.623   1.299   5.741 -0.8621 -1.5923  2.2608
   23CHL1  H19B 2850   5.795   1.301   5.684  0.8193 -0.3534  0.8296
   23CHL1  H19C 2851   5.745   1.251   5.850  0.6308 -0.8868 -2.3053
   23CHL1    C1 2852   5.920   1.477   5.855  0.5352  0.1913  0.0715
   23CHL1   H1A 2853   5.984   1.466   5.765 -0.5300 -0.1211 -0.6598
   23CHL1   H1B 2854   5.940   1.582   5.885 -1.8264  1.0362 -1.1041
   23CHL1    C2 2855   5.977   1.387   5.972 -0.7541 -0.5322  0.0198
   23CHL1   H2A 2856   6.083   1.415   5.987  0.0227 -2.5456 -1.2571
   23CHL1   H2B 2857   5.974   1.278   5.949 -1.8580 -0.5603  0.2560
   23CHL1   C20 2858   5.437   1.715   5.247  0.1581 -0.0753 -0.2204
   23CHL1   H20 2859   5.388   1.616   5.237 -2.6228  1.2063  0.0037
   23CHL1   C21 2860   5.582   1.708   5.172  1.3858  0.1178  0.0566
   23CHL1  H21A 2861   5.620   1.604   5.188  0.6882  0.2337  3.1351
   23CHL1  H21B 2862   5.659   1.783   5.203  0.9038  0.6841 -0.1086
   23CHL1  H21C 2863   5.569   1.727   5.064  0.3449  0.9116  0.3068
   23CHL1   C22 2864   5.344   1.819   5.179 -0.5631  0.0101  0.0470
   23CHL1  H22A 2865   5.250   1.827   5.237 -0.6953  0.8086 -0.2727
   23CHL1  H22B 2866   5.405   1.912   5.176  1.3386 -1.1398  0.9746
   23CHL1   C23 2867   5.309   1.785   5.035 -0.0756 -0.3489  0.4311
   23CHL1  H23A 2868   5.402   1.786   4.974  0.2905  2.4699  0.9042
   23CHL1  H23B 2869   5.266   1.684   5.018 -1.8894  0.4516  0.0597
   23CHL1   C24 2870   5.206   1.887   4.974  0.2469  0.5438 -0.0327
   23CHL1  H24A 2871   5.108   1.853   5.013 -0.2568 -0.2840 -1.9334
   23CHL1  H24B 2872   5.234   1.994   4.985 -3.3196  1.9597 -2.7552
   23CHL1   C25 2873   5.199   1.863   4.818 -0.1476 -0.4314 -0.0763
   23CHL1   H25 2874   5.196   1.755   4.792 -0.9227  0.1326 -2.6811
   23CHL1   C26 2875   5.070   1.916   4.754  0.1961 -0.2144 -0.2336
   23CHL1  H26A 2876   5.064   2.027   4.761 -1.2862 -0.2581 -0.4556
   23CHL1  H26B 2877   5.070   1.887   4.647  1.3865  0.3096 -0.3844
   23CHL1  H26C 2878   4.976   1.875   4.798  1.1101  0.0833  2.1808
   23CHL1   C27 2879   5.320   1.931   4.740 -0.2250 -0.1422 -0.4314
   23CHL1  H27A 2880   5.332   2.039   4.762  2.5596 -0.3988 -0.3087
   23CHL1  H27B 2881   5.412   1.877   4.771 -0.5918 -1.6301 -1.8011
   23CHL1  H27C 2882   5.313   1.900   4.633 -0.6575 -1.4546 -0.0399
   24CHL1    C3 2883   2.364   0.589   5.756 -0.4694  0.1329  0.3801
   24CHL1    H3 2884   2.469   0.625   5.757 -0.5308  0.3072  1.1645
   24CHL1    O3 2885   2.317   0.570   5.887 -0.9489  0.4135  0.3156
   24CHL1   H3' 2886   2.237   0.518   5.873 -0.9016  0.5498 -0.4941
   24CHL1    C4 2887   2.281   0.687   5.682 -0.0313 -0.2382  0.4883
   24CHL1   H4A 2888   2.174   0.659   5.686 -0.5474  1.4695 -0.2338
   24CHL1   H4B 2889   2.281   0.783   5.739 -0.7520 -1.7530  3.1892
   24CHL1    C5 2890   2.320   0.700   5.534 -0.2845 -0.0803  0.0043
   24CHL1    C6 2891   2.359   0.818   5.483  0.0629  0.3230  0.0862
   24CHL1    H6 2892   2.355   0.905   5.550 -0.9938 -1.2111  2.1357
   24CHL1    C7 2893   2.391   0.839   5.336 -0.1437 -0.0759 -0.1022
   24CHL1   H7A 2894   2.344   0.934   5.304  1.1682 -0.1802 -2.5419
   24CHL1   H7B 2895   2.499   0.857   5.318 -0.1021 -0.4054 -0.1954
   24CHL1    C8 2896   2.348   0.719   5.252  0.1390 -0.0538 -0.0767
   24CHL1    H8 2897   2.238   0.722   5.239  0.2751 -2.7404 -3.3538
   24CHL1   C14 2898   2.407   0.726   5.116 -0.1200 -1.0642 -0.1840
   24CHL1   H14 2899   2.516   0.740   5.131 -0.5504  3.4971  0.2291
   24CHL1   C15 2900   2.375   0.850   5.029 -0.0813 -0.5518  0.1573
   24CHL1  H15A 2901   2.268   0.879   5.026 -0.5778 -2.1051  1.2819
   24CHL1  H15B 2902   2.429   0.940   5.067  3.3495 -1.6602 -1.6680
   24CHL1   C16 2903   2.418   0.813   4.891  0.3544 -0.0084 -0.4771
   24CHL1  H16A 2904   2.333   0.832   4.822  0.3330  0.1676 -0.4019
   24CHL1  H16B 2905   2.510   0.864   4.857  0.5842 -0.3102 -0.3079
   24CHL1   C17 2906   2.449   0.663   4.893 -0.5013 -0.5362 -0.2950
   24CHL1   H17 2907   2.554   0.656   4.929 -0.6959 -0.3320  0.3253
   24CHL1   C13 2908   2.384   0.607   5.025  0.4374 -0.1529  0.8776
   24CHL1   C18 2909   2.234   0.591   4.988 -0.1083  0.2901 -0.4034
   24CHL1  H18A 2910   2.188   0.687   4.957 -3.2276 -0.2331  2.0075
   24CHL1  H18B 2911   2.211   0.515   4.911 -1.0504 -1.2495  1.3057
   24CHL1  H18C 2912   2.169   0.552   5.070 -0.4425  1.7257  0.0374
   24CHL1   C12 2913   2.447   0.480   5.084 -0.2100 -0.0555  0.1602
   24CHL1  H12A 2914   2.426   0.389   5.025  1.4459 -0.0249 -0.5183
   24CHL1  H12B 2915   2.556   0.498   5.094 -0.2134  0.0346  0.0383
   24CHL1   C11 2916   2.389   0.462   5.229  0.6162  0.6955 -0.1628
   24CHL1  H11A 2917   2.285   0.424   5.218  0.4851  1.2786 -1.0630
   24CHL1  H11B 2918   2.447   0.382   5.280  0.4617 -1.5398 -3.2355
   24CHL1    C9 2919   2.388   0.586   5.317 -0.2839  0.3239  0.1111
   24CHL1    H9 2920   2.496   0.607   5.334  0.2122 -0.4224 -1.8290
   24CHL1   C10 2921   2.322   0.570   5.459  0.2558  0.0150  0.8849
   24CHL1   C19 2922   2.182   0.519   5.437 -0.0874  0.2767 -0.3922
   24CHL1  H19A 2923   2.181   0.415   5.398  1.5108 -0.1475  0.6329
   24CHL1  H19B 2924   2.138   0.518   5.539 -1.0680 -3.8250 -0.6874
   24CHL1  H19C 2925   2.115   0.587   5.380 -0.5610 -0.2090 -0.4245
   24CHL1    C1 2926   2.404   0.464   5.538 -0.3163 -0.5393 -0.4124
   24CHL1   H1A 2927   2.392   0.365   5.489  0.0996  0.6483 -3.1259
   24CHL1   H1B 2928   2.511   0.491   5.544 -0.3556 -0.4015 -0.3325
   24CHL1    C2 2929   2.356   0.458   5.685  0.2018 -0.1413  0.5605
   24CHL1   H2A 2930   2.396   0.374   5.746 -1.3069 -3.1603 -2.2808
   24CHL1   H2B 2931   2.251   0.428   5.706  0.0484  0.2221  0.3120
   24CHL1   C20 2932   2.446   0.588   4.757  0.4011 -0.5040 -0.0680
   24CHL1   H20 2933   2.358   0.523   4.737  1.8085 -2.5139  0.0596
   24CHL1   C21 2934   2.559   0.492   4.767 -0.5733 -0.0450  1.1716
   24CHL1  H21A 2935   2.658   0.543   4.770 -0.5156 -0.2089  2.6982
   24CHL1  H21B 2936   2.565   0.433   4.673  0.1587 -0.8230  1.7027
   24CHL1  H21C 2937   2.558   0.426   4.856 -0.3628  0.2377  1.3852
   24CHL1   C22 2938   2.459   0.687   4.630 -0.0877 -0.3937  0.3160
   24CHL1  H22A 2939   2.367   0.749   4.643 -0.1811 -0.5273  0.2908
   24CHL1  H22B 2940   2.558   0.737   4.631  0.5288 -1.5581 -0.4156
   24CHL1   C23 2941   2.433   0.632   4.491 -0.7611  0.2018  0.0921
   24CHL1  H23A 2942   2.509   0.552   4.479 -1.5030 -0.2637 -2.0858
   24CHL1  H23B 2943   2.335   0.583   4.474  0.2153 -1.8965  0.1945
   24CHL1   C24 2944   2.460   0.742   4.384  0.3764  0.4092  0.5350
   24CHL1  H24A 2945   2.379   0.819   4.383  1.7227  1.8802 -0.1838
   24CHL1  H24B 2946   2.550   0.803   4.403  1.2748  0.0863 -2.2091
   24CHL1   C25 2947   2.454   0.690   4.236  0.5582 -0.6720  0.2039
   24CHL1   H25 2948   2.555   0.646   4.220  0.0803 -2.4180  1.6986
   24CHL1   C26 2949   2.350   0.578   4.212  0.1768 -0.0297 -0.0508
   24CHL1  H26A 2950   2.352   0.555   4.104  3.4289  0.5926 -0.2291
   24CHL1  H26B 2951   2.383   0.492   4.275 -1.8685  0.1066  1.3309
   24CHL1  H26C 2952   2.246   0.604   4.239  0.3666  0.8413 -0.1489
   24CHL1   C27 2953   2.425   0.806   4.141  0.0832  0.5805 -0.9583
   24CHL1  H27A 2954   2.438   0.788   4.032 -0.6657 -1.0349 -0.8092
   24CHL1  H27B 2955   2.326   0.855   4.151  0.6687  2.1658 -2.3897
   24CHL1  H27C 2956   2.505   0.881   4.162 -0.5784  0.7619  1.1072
   25CHL1    C3 2957   3.078   3.196   5.923 -0.1942  0.7460  0.2567
   25CHL1    H3 2958   3.006   3.113   5.909  2.0374 -1.6756  2.0332
   25CHL1    O3 2959   3.103   3.199   6.061  0.1468 -0.3271  0.5644
   25CHL1   H3' 2960   3.157   3.123   6.085  1.6432  0.7881  0.8476
   25CHL1    C4 2961   3.213   3.180   5.852  0.3128 -0.0671  0.1750
   25CHL1   H4A 2962   3.282   3.257   5.893 -1.1597  1.4744 -0.1176
   25CHL1   H4B 2963   3.256   3.083   5.885 -1.4586 -0.6082  1.0275
   25CHL1    C5 2964   3.210   3.193   5.704  0.0026  0.1387 -0.1566
   25CHL1    C6 2965   3.253   3.093   5.623  0.8931 -0.1534  1.2832
   25CHL1    H6 2966   3.309   3.010   5.668 -2.6117 -3.0514  0.7613
   25CHL1    C7 2967   3.252   3.096   5.478  0.2962 -0.5963 -0.6517
   25CHL1   H7A 2968   3.353   3.073   5.437  0.8025  0.7183 -0.2219
   25CHL1   H7B 2969   3.180   3.018   5.445 -1.5348  0.1323  1.4014
   25CHL1    C8 2970   3.202   3.233   5.427 -0.1205  0.4127  0.2318
   25CHL1    H8 2971   3.276   3.316   5.437  1.3507 -0.3889 -2.7951
   25CHL1   C14 2972   3.162   3.223   5.280  0.6550  0.1497  0.2491
   25CHL1   H14 2973   3.080   3.149   5.270 -2.4749  3.6566 -2.8362
   25CHL1   C15 2974   3.267   3.157   5.181  0.4464  0.4134  0.1045
   25CHL1  H15A 2975   3.360   3.217   5.192 -0.7157  2.2430  0.4619
   25CHL1  H15B 2976   3.274   3.049   5.204  1.9554  0.7078  1.1934
   25CHL1   C16 2977   3.204   3.186   5.041 -0.0266 -0.2459 -0.3595
   25CHL1  H16A 2978   3.274   3.247   4.980 -0.4104 -1.2164 -1.8097
   25CHL1  H16B 2979   3.173   3.093   4.989  2.0606 -1.4257  0.3965
   25CHL1   C17 2980   3.070   3.266   5.080 -0.3276  0.5512  0.4526
   25CHL1   H17 2981   2.982   3.202   5.100  0.4478 -0.9224 -0.6337
   25CHL1   C13 2982   3.097   3.338   5.208  0.4969  0.3761  0.2387
   25CHL1   C18 2983   3.193   3.458   5.186 -0.1100  0.4779 -0.5694
   25CHL1  H18A 2984   3.160   3.526   5.104 -0.1302  0.7740 -0.3185
   25CHL1  H18B 2985   3.200   3.518   5.279  0.9183  1.9147 -1.5361
   25CHL1  H18C 2986   3.295   3.420   5.167 -0.3117  0.1587 -1.0485
   25CHL1   C12 2987   2.974   3.378   5.292 -0.1071 -0.9898 -0.0652
   25CHL1  H12A 2988   2.949   3.478   5.252  0.3572  0.4525  2.9754
   25CHL1  H12B 2989   2.901   3.294   5.282 -0.3235 -0.9753  1.2200
   25CHL1   C11 2990   3.008   3.403   5.436 -0.2542 -0.4549 -0.2295
   25CHL1  H11A 2991   3.079   3.488   5.446  1.4412 -1.8696  0.2513
   25CHL1  H11B 2992   2.918   3.434   5.492  0.2208  4.2248 -1.6716
   25CHL1    C9 2993   3.085   3.281   5.508  0.2086 -0.5471  0.4655
   25CHL1    H9 2994   3.013   3.196   5.509  0.6646 -0.9733 -0.6551
   25CHL1   C10 2995   3.129   3.309   5.654  0.5175  0.1285  0.1418
   25CHL1   C19 2996   3.222   3.437   5.673  0.7512  0.4276  0.4056
   25CHL1  H19A 2997   3.166   3.532   5.662  2.5592  1.5239  0.2745
   25CHL1  H19B 2998   3.265   3.439   5.775 -0.6561  0.9363  1.0049
   25CHL1  H19C 2999   3.310   3.424   5.607  0.0022 -1.4298 -0.3009
   25CHL1    C1 3000   3.000   3.329   5.735 -0.5106 -0.0167  0.3043
   25CHL1   H1A 3001   2.955   3.429   5.715 -1.2151 -0.8385 -2.6151
   25CHL1   H1B 3002   2.932   3.251   5.696  0.8827  1.1401 -5.2717
   25CHL1    C2 3003   3.024   3.330   5.890 -0.4599 -0.1377 -0.5965
   25CHL1   H2A 3004   2.935   3.348   5.955 -2.1684 -0.4155 -2.7194
   25CHL1   H2B 3005   3.098   3.404   5.926  0.3784 -1.1438 -0.1924
   25CHL1   C20 3006   3.034   3.361   4.964 -0.6195  0.3190 -0.3391
   25CHL1   H20 3007   3.116   3.429   4.932  1.0405 -1.8942 -1.0169
   25CHL1   C21 3008   2.917   3.457   4.996  0.8168 -0.1886  0.0190
   25CHL1  H21A 3009   2.849   3.393   5.056  3.1665 -0.0622  3.0354
   25CHL1  H21B 3010   2.866   3.491   4.904 -0.6458 -2.5648 -0.1244
   25CHL1  H21C 3011   2.958   3.543   5.053  1.3857  0.5674 -1.4699
   25CHL1   C22 3012   3.002   3.285   4.832 -0.1672 -0.7049  0.4137
   25CHL1  H22A 3013   3.092   3.233   4.795 -0.1078 -0.2453 -0.1051
   25CHL1  H22B 3014   2.926   3.205   4.846 -1.3771  0.8026  3.8225
   25CHL1   C23 3015   2.957   3.382   4.717  0.3815 -0.6366  0.3483
   25CHL1  H23A 3016   2.848   3.399   4.725  0.2215 -2.1962  2.2400
   25CHL1  H23B 3017   3.011   3.479   4.723 -0.2477 -0.2748  0.2669
   25CHL1   C24 3018   2.978   3.313   4.575 -0.1689 -0.1887  0.0263
   25CHL1  H24A 3019   3.089   3.301   4.566 -0.3440 -1.6551 -0.5167
   25CHL1  H24B 3020   2.940   3.209   4.565  2.0771 -1.0888  0.1072
   25CHL1   C25 3021   2.919   3.403   4.478  0.0087  0.2072  0.2016
   25CHL1   H25 3022   2.816   3.404   4.521  0.1520 -2.0977  0.7034
   25CHL1   C26 3023   2.998   3.539   4.465  0.0702 -0.5217 -0.1951
   25CHL1  H26A 3024   2.957   3.588   4.374  0.5923 -1.1945 -0.8069
   25CHL1  H26B 3025   2.988   3.601   4.556 -2.3960  0.1571 -0.8655
   25CHL1  H26C 3026   3.105   3.521   4.441 -0.0005 -2.0535  0.5494
   25CHL1   C27 3027   2.920   3.339   4.332  0.1734  0.3085  0.5322
   25CHL1  H27A 3028   2.889   3.414   4.257  1.3756  1.5299  1.2172
   25CHL1  H27B 3029   3.023   3.305   4.310  0.4417  1.9843 -1.0019
   25CHL1  H27C 3030   2.850   3.254   4.350 -1.6982  1.8119  0.6748
   26CHL1    C3 3031   2.775   0.212   6.090  0.9968 -0.0215 -0.5619
   26CHL1    H3 3032   2.684   0.150   6.074 -0.1148  1.1296  1.0203
   26CHL1    O3 3033   2.785   0.235   6.232  0.3053  0.3585 -0.0379
   26CHL1   H3' 3034   2.735   0.163   6.271  2.3673 -1.6405 -0.9141
   26CHL1    C4 3035   2.897   0.128   6.047 -0.5947  0.2752 -0.1222
   26CHL1   H4A 3036   2.991   0.174   6.081 -0.2595 -0.5214  0.0461
   26CHL1   H4B 3037   2.877   0.032   6.099 -0.7573  0.4837  0.1995
   26CHL1    C5 3038   2.900   0.117   5.895  0.3682 -0.1911  0.2154
   26CHL1    C6 3039   2.908   0.001   5.834 -0.0938 -0.1017  0.0964
   26CHL1    H6 3040   2.897  -0.088   5.898 -1.7230  1.6759  2.4157
   26CHL1    C7 3041   2.914  -0.019   5.690  0.0835 -0.4651  1.0318
   26CHL1   H7A 3042   2.992  -0.094   5.663  0.2787 -0.6763  2.1432
   26CHL1   H7B 3043   2.818  -0.057   5.650  2.1726 -2.2058 -2.9633
   26CHL1    C8 3044   2.938   0.105   5.604  0.1279 -1.0354  0.0792
   26CHL1    H8 3045   3.046   0.128   5.611 -0.4023  1.2671  2.2324
   26CHL1   C14 3046   2.901   0.094   5.459  0.1730  0.5147 -0.2382
   26CHL1   H14 3047   2.790   0.089   5.459  0.1896  0.1159 -0.8190
   26CHL1   C15 3048   2.929  -0.034   5.384 -0.1708  0.2999 -0.7283
   26CHL1  H15A 3049   3.031  -0.072   5.405 -0.1704  0.1671 -0.9631
   26CHL1  H15B 3050   2.853  -0.108   5.415 -0.8493  0.8736 -0.9959
   26CHL1   C16 3051   2.934  -0.006   5.234 -0.2689 -0.0533 -0.0206
   26CHL1  H16A 3052   3.040  -0.012   5.202 -0.1809  1.0647  0.0294
   26CHL1  H16B 3053   2.867  -0.081   5.186  0.8287 -1.8094  1.0712
   26CHL1   C17 3054   2.891   0.146   5.226 -0.8972  0.1644  0.5456
   26CHL1   H17 3055   2.782   0.124   5.228 -0.1563 -4.6067  1.2887
   26CHL1   C13 3056   2.926   0.215   5.366  0.2957 -0.5707  0.2523
   26CHL1   C18 3057   3.078   0.257   5.377  0.3066  0.6233 -0.1749
   26CHL1  H18A 3058   3.093   0.352   5.321 -0.7980  1.6505  1.2148
   26CHL1  H18B 3059   3.106   0.284   5.481 -2.5833 -0.6961  1.0685
   26CHL1  H18C 3060   3.144   0.179   5.333 -0.9105  0.1509 -1.2324
   26CHL1   C12 3061   2.838   0.328   5.421  0.8342 -0.4050 -0.7533
   26CHL1  H12A 3062   2.869   0.430   5.388  1.1488  0.2872  1.4635
   26CHL1  H12B 3063   2.733   0.314   5.388  0.0948  1.5582  0.5727
   26CHL1   C11 3064   2.857   0.351   5.574 -0.1160  0.6441 -0.4215
   26CHL1  H11A 3065   2.957   0.393   5.597 -0.5824  1.2157  0.6435
   26CHL1  H11B 3066   2.774   0.408   5.621 -0.6708 -1.7238  1.6599
   26CHL1    C9 3067   2.851   0.219   5.662 -0.3000 -0.2096 -0.4069
   26CHL1    H9 3068   2.747   0.184   5.646  0.0632 -0.7792 -1.6807
   26CHL1   C10 3069   2.878   0.246   5.816  0.2997 -0.0072 -0.1241
   26CHL1   C19 3070   3.006   0.334   5.836  0.8347  0.7610 -0.0322
   26CHL1  H19A 3071   3.102   0.299   5.792  0.4843  0.7250 -0.7747
   26CHL1  H19B 3072   2.980   0.439   5.812 -0.1917  1.3923  3.2534
   26CHL1  H19C 3073   3.020   0.330   5.946 -0.4843 -0.5985  0.1119
   26CHL1    C1 3074   2.756   0.328   5.876 -0.0048  0.3537  0.3948
   26CHL1   H1A 3075   2.738   0.426   5.827  0.8123  0.1917 -0.2509
   26CHL1   H1B 3076   2.663   0.276   5.847  0.5794  0.2985 -1.5709
   26CHL1    C2 3077   2.771   0.344   6.025 -0.2196  0.0082 -0.4493
   26CHL1   H2A 3078   2.685   0.402   6.063  0.4985  0.0575  1.1603
   26CHL1   H2B 3079   2.861   0.404   6.048  1.3118 -2.4341  0.4205
   26CHL1   C20 3080   2.928   0.213   5.099  0.2305 -0.4681  0.7466
   26CHL1   H20 3081   3.034   0.244   5.094  0.8246 -2.4477  0.2978
   26CHL1   C21 3082   2.850   0.348   5.088  0.3354  0.2476 -0.2581
   26CHL1  H21A 3083   2.883   0.402   4.997  0.1940  0.9977  0.1256
   26CHL1  H21B 3084   2.875   0.418   5.171  0.6981 -1.0059  0.7173
   26CHL1  H21C 3085   2.742   0.324   5.081  0.6863 -1.4763 -0.1575
   26CHL1   C22 3086   2.890   0.124   4.978 -0.0625  0.0096  1.2623
   26CHL1  H22A 3087   2.971   0.050   4.960  0.4444  1.2663 -2.4999
   26CHL1  H22B 3088   2.796   0.069   4.997 -0.3605  0.8129  2.2291
   26CHL1   C23 3089   2.879   0.193   4.843  0.4739  0.0983  0.1979
   26CHL1  H23A 3090   2.798   0.269   4.834  0.8351  0.3332 -1.5787
   26CHL1  H23B 3091   2.970   0.252   4.819  0.1990  0.3757 -0.1877
   26CHL1   C24 3092   2.847   0.098   4.724 -0.7050  0.8344 -0.4427
   26CHL1  H24A 3093   2.941   0.044   4.701 -0.2920  0.9030  0.9944
   26CHL1  H24B 3094   2.771   0.023   4.755  2.2894 -2.2021  0.1540
   26CHL1   C25 3095   2.809   0.173   4.594  0.1960  0.3426 -0.3892
   26CHL1   H25 3096   2.713   0.223   4.622 -0.0669 -0.3065 -0.1176
   26CHL1   C26 3097   2.906   0.278   4.542  0.0644 -0.2729 -0.1553
   26CHL1  H26A 3098   3.000   0.229   4.509 -0.6700 -2.3110  0.6226
   26CHL1  H26B 3099   2.852   0.330   4.460 -3.7524 -1.4269  1.3664
   26CHL1  H26C 3100   2.935   0.354   4.617 -0.8165 -0.0492 -0.0299
   26CHL1   C27 3101   2.773   0.082   4.476 -0.2720 -0.5591 -0.1449
   26CHL1  H27A 3102   2.725   0.135   4.391 -0.4024 -1.7744 -0.8560
   26CHL1  H27B 3103   2.867   0.033   4.441  1.1908  1.8647  0.1792
   26CHL1  H27C 3104   2.696   0.010   4.512 -1.1750  0.9970  1.1345
   27CHL1    C3 3105   5.554   0.363   6.071 -0.4523  0.7597  0.1874
   27CHL1    H3 3106   5.508   0.449   6.019 -2.4564 -0.5905 -0.4023
   27CHL1    O3 3107   5.456   0.303   6.152  0.2563 -0.3203 -0.1480
   27CHL1   H3' 3108   5.459   0.352   6.235 -0.4473 -0.6595  0.0815
   27CHL1    C4 3109   5.607   0.268   5.965  0.2999 -0.1117 -0.4097
   27CHL1   H4A 3110   5.647   0.177   6.015 -0.1129  0.9108  1.9163
   27CHL1   H4B 3111   5.517   0.237   5.908  0.0512 -1.1009  0.4971
   27CHL1    C5 3112   5.721   0.332   5.887 -0.0824  0.0400 -0.1912
   27CHL1    C6 3113   5.712   0.343   5.754 -0.0816 -0.4629 -0.3316
   27CHL1    H6 3114   5.614   0.323   5.708  0.7413 -1.7628 -1.6006
   27CHL1    C7 3115   5.827   0.377   5.661 -0.7261  0.2036  0.6695
   27CHL1   H7A 3116   5.829   0.316   5.569 -0.7979 -0.3629  1.0370
   27CHL1   H7B 3117   5.824   0.485   5.632  1.1308  0.1735  0.2406
   27CHL1    C8 3118   5.961   0.354   5.734 -0.1262  0.3982 -0.3564
   27CHL1    H8 3119   5.980   0.247   5.754  0.1825  0.4867 -0.1701
   27CHL1   C14 3120   6.069   0.418   5.640 -0.0120 -0.0146 -0.7924
   27CHL1   H14 3121   6.039   0.525   5.635  2.7194  0.8190 -1.3783
   27CHL1   C15 3122   6.083   0.387   5.497  0.1210  0.2009  0.1605
   27CHL1  H15A 3123   6.080   0.277   5.487  1.4560  0.0761  0.8862
   27CHL1  H15B 3124   6.005   0.418   5.424  1.2797 -0.1666 -1.2582
   27CHL1   C16 3125   6.229   0.443   5.465 -0.1760  0.4928 -0.3524
   27CHL1  H16A 3126   6.286   0.364   5.411  0.0553  1.2669 -1.2937
   27CHL1  H16B 3127   6.220   0.531   5.397 -0.6824  1.4091  0.8578
   27CHL1   C17 3128   6.287   0.497   5.594  0.0050  0.2439  0.3111
   27CHL1   H17 3129   6.233   0.594   5.599  0.6886  0.6692 -0.3933
   27CHL1   C13 3130   6.207   0.431   5.705 -0.0214  0.1199 -0.2090
   27CHL1   C18 3131   6.270   0.288   5.730  0.0394 -0.3543  0.4170
   27CHL1  H18A 3132   6.379   0.289   5.753 -0.4511 -0.8896  3.2091
   27CHL1  H18B 3133   6.222   0.223   5.806 -1.4123  0.3405  0.1257
   27CHL1  H18C 3134   6.262   0.230   5.636 -0.6762  1.0004 -0.3839
   27CHL1   C12 3135   6.193   0.500   5.839 -0.5277 -0.4083  0.3096
   27CHL1  H12A 3136   6.288   0.489   5.896 -0.9624 -0.2970  1.0782
   27CHL1  H12B 3137   6.165   0.607   5.827  0.5876  0.0318  1.4020
   27CHL1   C11 3138   6.091   0.440   5.935  0.1519 -0.2857 -0.4339
   27CHL1  H11A 3139   6.131   0.342   5.969  1.0993 -0.6418 -2.4374
   27CHL1  H11B 3140   6.091   0.513   6.019 -1.3614 -0.0679 -0.5930
   27CHL1    C9 3141   5.957   0.429   5.872 -0.1134 -0.1548  0.3676
   27CHL1    H9 3142   5.930   0.533   5.844  2.7137  0.3838 -0.7065
   27CHL1   C10 3143   5.848   0.366   5.966  0.5717  0.2635 -0.6465
   27CHL1   C19 3144   5.905   0.245   6.043 -0.3673  0.1788 -0.7926
   27CHL1  H19A 3145   5.957   0.179   5.971  2.1196  2.6763 -1.4980
   27CHL1  H19B 3146   5.991   0.282   6.103 -0.9143  1.6022 -0.8306
   27CHL1  H19C 3147   5.830   0.194   6.107  0.4129 -0.7926 -0.6450
   27CHL1    C1 3148   5.789   0.467   6.071  0.0585  0.0605  0.4555
   27CHL1   H1A 3149   5.886   0.483   6.124  0.6990  1.6119 -1.0705
   27CHL1   H1B 3150   5.762   0.563   6.023  0.2893 -0.1616 -0.1291
   27CHL1    C2 3151   5.669   0.416   6.157 -0.4056  0.5921 -0.2930
   27CHL1   H2A 3152   5.638   0.497   6.226  1.4223  0.2594  0.9859
   27CHL1   H2B 3153   5.703   0.334   6.223  0.1177  1.8183  1.0090
   27CHL1   C20 3154   6.441   0.533   5.591  0.3863  0.2594  0.1734
   27CHL1   H20 3155   6.489   0.437   5.619  0.0404  0.5339  1.8471
   27CHL1   C21 3156   6.486   0.622   5.713 -0.6134 -0.0606  0.1143
   27CHL1  H21A 3157   6.596   0.633   5.717 -0.3822 -1.0087 -1.9562
   27CHL1  H21B 3158   6.446   0.580   5.808 -1.4942 -2.3410 -1.1811
   27CHL1  H21C 3159   6.437   0.720   5.701 -2.9056 -1.1378  0.1501
   27CHL1   C22 3160   6.489   0.586   5.456  0.1161 -0.4396  0.1179
   27CHL1  H22A 3161   6.599   0.592   5.468  0.1985 -0.1746 -0.6667
   27CHL1  H22B 3162   6.470   0.512   5.374 -1.9557  1.0486 -0.8321
   27CHL1   C23 3163   6.453   0.728   5.420  0.0258 -0.0745  0.1625
   27CHL1  H23A 3164   6.345   0.749   5.403 -0.0991  1.4028  2.3481
   27CHL1  H23B 3165   6.465   0.790   5.512  1.2257  2.2599 -1.4503
   27CHL1   C24 3166   6.532   0.797   5.312  0.4293  0.2498  0.2556
   27CHL1  H24A 3167   6.513   0.907   5.308 -1.2115 -0.0444 -1.6117
   27CHL1  H24B 3168   6.640   0.773   5.327  0.5805  1.4615  1.2632
   27CHL1   C25 3169   6.491   0.750   5.169 -0.3010 -0.2300  0.1883
   27CHL1   H25 3170   6.526   0.646   5.152  0.3257  0.2342 -1.6410
   27CHL1   C26 3171   6.344   0.751   5.139  0.5574  0.0452 -0.0440
   27CHL1  H26A 3172   6.320   0.692   5.049  1.4628  0.4198 -0.5355
   27CHL1  H26B 3173   6.276   0.708   5.216  0.0537  2.2995  0.8631
   27CHL1  H26C 3174   6.311   0.855   5.117  2.8027  0.3037 -2.5667
   27CHL1   C27 3175   6.556   0.841   5.059  0.3512 -0.2904  0.5656
   27CHL1  H27A 3176   6.529   0.948   5.077  1.1018  0.2441 -1.2280
   27CHL1  H27B 3177   6.515   0.803   4.963 -2.6106  1.9373  0.7920
   27CHL1  H27C 3178   6.667   0.835   5.064  0.3698  0.5801  1.4872
   28CHL1    C3 3179   4.435   0.154   6.043 -0.1605 -0.1776 -0.7711
   28CHL1    H3 3180   4.432   0.259   6.007 -0.1908 -0.0185 -0.3142
   28CHL1    O3 3181   4.436   0.158   6.184 -0.5421  0.1537  0.2884
   28CHL1   H3' 3182   4.531   0.166   6.198 -0.6729  0.6506  0.9883
   28CHL1    C4 3183   4.309   0.080   6.002  0.3761 -0.6503 -0.8968
   28CHL1   H4A 3184   4.324  -0.021   6.046  1.1143  0.1265  0.6796
   28CHL1   H4B 3185   4.214   0.113   6.050  0.5647 -0.7296 -0.4667
   28CHL1    C5 3186   4.303   0.081   5.852  0.1892  0.2456 -0.0088
   28CHL1    C6 3187   4.199   0.126   5.779 -0.1294 -0.2738  0.7538
   28CHL1    H6 3188   4.113   0.169   5.832 -0.1344  0.8785 -0.1487
   28CHL1    C7 3189   4.190   0.110   5.628 -0.0288  0.4812  0.0649
   28CHL1   H7A 3190   4.087   0.070   5.621  0.5943 -1.2872  0.6257
   28CHL1   H7B 3191   4.203   0.209   5.578 -0.4278  0.1436 -0.7194
   28CHL1    C8 3192   4.286  -0.006   5.575  0.5860  0.5634 -0.0904
   28CHL1    H8 3193   4.241  -0.103   5.607  1.2564 -0.1056 -1.0895
   28CHL1   C14 3194   4.294  -0.005   5.424 -0.1577 -0.1990  0.0483
   28CHL1   H14 3195   4.343   0.095   5.414  1.5352 -0.9927  0.1441
   28CHL1   C15 3196   4.159  -0.005   5.343 -0.2386  0.3733  0.3127
   28CHL1  H15A 3197   4.088  -0.076   5.391  0.3078 -0.3874  0.0122
   28CHL1  H15B 3198   4.107   0.093   5.345 -1.4555 -0.1633 -1.8155
   28CHL1   C16 3199   4.211  -0.056   5.208  0.3672  0.4496  0.8588
   28CHL1  H16A 3200   4.159  -0.154   5.199 -1.9544  1.6532  0.4456
   28CHL1  H16B 3201   4.193   0.023   5.132  1.8713 -1.5489 -1.7382
   28CHL1   C17 3202   4.360  -0.086   5.210 -0.6711 -0.1934  0.1388
   28CHL1   H17 3203   4.413   0.009   5.184  1.1398 -1.2693 -0.2745
   28CHL1   C13 3204   4.393  -0.106   5.357  0.2428  0.3043 -0.3053
   28CHL1   C18 3205   4.363  -0.254   5.396  0.3163 -0.1157 -0.3476
   28CHL1  H18A 3206   4.345  -0.264   5.505 -0.2798 -0.8426 -0.5006
   28CHL1  H18B 3207   4.268  -0.288   5.347  0.6320 -1.0683 -0.3255
   28CHL1  H18C 3208   4.446  -0.322   5.365  0.7379  0.5271 -0.6339
   28CHL1   C12 3209   4.535  -0.076   5.409  0.0972 -0.2697  0.3703
   28CHL1  H12A 3210   4.603  -0.159   5.380 -1.1247 -0.5753 -1.7989
   28CHL1  H12B 3211   4.571   0.017   5.360  2.8184 -1.5760 -0.3258
   28CHL1   C11 3212   4.537  -0.062   5.559  0.1832  0.5522  0.6718
   28CHL1  H11A 3213   4.529  -0.163   5.604 -1.4556 -0.2490 -1.2972
   28CHL1  H11B 3214   4.639  -0.024   5.584  0.5782  1.3631 -1.9334
   28CHL1    C9 3215   4.427   0.028   5.634  0.1302 -0.7644  0.1521
   28CHL1    H9 3216   4.445   0.136   5.616 -0.6910 -0.4610  1.0827
   28CHL1   C10 3217   4.419   0.012   5.782 -0.3655 -0.8007  0.4544
   28CHL1   C19 3218   4.406  -0.140   5.817 -0.0465  0.3600 -0.3924
   28CHL1  H19A 3219   4.402  -0.156   5.927 -0.1688  3.3680  0.1314
   28CHL1  H19B 3220   4.317  -0.184   5.769 -0.5314 -0.8286  1.5049
   28CHL1  H19C 3221   4.489  -0.210   5.794 -0.9221 -1.6489  2.1217
   28CHL1    C1 3222   4.554   0.068   5.841 -0.2741 -0.4816  0.1096
   28CHL1   H1A 3223   4.641   0.007   5.807  2.7844  0.7451  4.8448
   28CHL1   H1B 3224   4.574   0.172   5.809 -1.5559  0.3240  1.7939
   28CHL1    C2 3225   4.554   0.077   5.990 -0.3280 -0.1779  0.1132
   28CHL1   H2A 3226   4.646   0.133   6.018 -0.1034 -0.1488 -0.6543
   28CHL1   H2B 3227   4.571  -0.026   6.029  1.5861 -0.9672 -2.4755
   28CHL1   C20 3228   4.409  -0.184   5.111 -0.2521 -0.2992 -0.1661
   28CHL1   H20 3229   4.371  -0.282   5.146  0.2007 -0.5007 -0.2276
   28CHL1   C21 3230   4.562  -0.184   5.097 -0.4564  0.4995 -0.1292
   28CHL1  H21A 3231   4.591  -0.261   5.021  0.1475 -0.4545  1.0227
   28CHL1  H21B 3232   4.608  -0.217   5.192 -1.9563  1.7559  1.0739
   28CHL1  H21C 3233   4.606  -0.084   5.079  0.3315  0.4709  1.4621
   28CHL1   C22 3234   4.350  -0.156   4.973  0.1505 -0.0939 -0.4232
   28CHL1  H22A 3235   4.364  -0.237   4.898 -2.3702 -0.2962 -0.7635
   28CHL1  H22B 3236   4.240  -0.169   4.987  0.4587 -2.0279  0.4955
   28CHL1   C23 3237   4.377  -0.013   4.919 -0.1018  0.3223  0.3887
   28CHL1  H23A 3238   4.338   0.060   4.994  1.7147 -0.1988  1.9098
   28CHL1  H23B 3239   4.487  -0.002   4.905 -0.3546  0.4860 -1.8368
   28CHL1   C24 3240   4.313   0.019   4.784  0.1182 -0.3053 -0.0678
   28CHL1  H24A 3241   4.353  -0.043   4.701 -1.3931 -2.5578  0.7877
   28CHL1  H24B 3242   4.205  -0.007   4.790  0.3878 -2.0726 -2.0578
   28CHL1   C25 3243   4.317   0.172   4.759  0.4235  0.4737 -0.6483
   28CHL1   H25 3244   4.300   0.229   4.852 -4.2449 -1.6909  0.1226
   28CHL1   C26 3245   4.445   0.227   4.694  1.0976  0.5237  0.1113
   28CHL1  H26A 3246   4.481   0.160   4.614 -0.1816 -0.0542 -0.0014
   28CHL1  H26B 3247   4.422   0.330   4.657  0.3680  0.7191  1.0562
   28CHL1  H26C 3248   4.533   0.234   4.761  0.6119 -0.8050  0.9168
   28CHL1   C27 3249   4.192   0.209   4.673 -0.1042  0.1734 -0.8170
   28CHL1  H27A 3250   4.204   0.173   4.569 -1.2579  1.8922 -1.5912
   28CHL1  H27B 3251   4.097   0.166   4.713 -0.9636  0.7230 -2.2052
   28CHL1  H27C 3252   4.191   0.320   4.675  2.8118  0.2707  0.3724
   29CHL1    C3 3253   0.749   2.330   6.294 -0.2828  0.5993  0.5088
   29CHL1    H3 3254   0.658   2.370   6.343 -2.1198 -0.4222 -1.8328
   29CHL1    O3 3255   0.832   2.300   6.404 -0.3716 -0.8828 -0.0722
   29CHL1   H3' 3256   0.920   2.320   6.373  0.2260 -2.6466  0.3945
   29CHL1    C4 3257   0.719   2.204   6.209 -0.2205 -0.1188 -0.6890
   29CHL1   H4A 3258   0.819   2.172   6.174 -1.2855 -3.8742 -0.6924
   29CHL1   H4B 3259   0.692   2.128   6.285  0.1042  0.2344 -0.2141
   29CHL1    C5 3260   0.622   2.236   6.094 -0.5416 -0.4955  0.1748
   29CHL1    C6 3261   0.506   2.172   6.078  0.0636 -0.2379 -0.5958
   29CHL1    H6 3262   0.473   2.099   6.154  0.6685 -1.2099 -1.2421
   29CHL1    C7 3263   0.415   2.197   5.960 -0.7104  0.2117  0.7711
   29CHL1   H7A 3264   0.372   2.105   5.914 -0.6659 -0.2664  1.6635
   29CHL1   H7B 3265   0.325   2.255   5.989 -2.0522 -1.1696 -0.4243
   29CHL1    C8 3266   0.481   2.279   5.841 -0.3311  0.8163  0.5865
   29CHL1    H8 3267   0.552   2.213   5.788 -1.4271  1.4812 -1.9038
   29CHL1   C14 3268   0.383   2.321   5.734  0.5880 -0.3399 -0.2220
   29CHL1   H14 3269   0.314   2.393   5.783  1.9018  1.3132 -0.7151
   29CHL1   C15 3270   0.305   2.206   5.668 -0.7296 -0.8560 -0.7139
   29CHL1  H15A 3271   0.365   2.116   5.641 -1.1702 -1.4695  0.2874
   29CHL1  H15B 3272   0.221   2.178   5.735 -0.6708  0.0755 -0.2353
   29CHL1   C16 3273   0.255   2.267   5.532 -0.1535 -0.2222 -0.6467
   29CHL1  H16A 3274   0.289   2.202   5.448  1.3387 -1.1119  0.5875
   29CHL1  H16B 3275   0.144   2.276   5.530  0.0272  3.1600 -1.9645
   29CHL1   C17 3276   0.321   2.409   5.527 -0.5284  0.6052  0.5309
   29CHL1   H17 3277   0.249   2.476   5.578 -0.0393  0.4566  1.4365
   29CHL1   C13 3278   0.445   2.398   5.614  0.1297  0.0328 -0.5325
   29CHL1   C18 3279   0.559   2.318   5.554 -0.4183 -0.5237 -0.2178
   29CHL1  H18A 3280   0.520   2.225   5.508  2.2525 -1.7631 -0.1749
   29CHL1  H18B 3281   0.605   2.378   5.473 -1.5650  0.7209  0.0290
   29CHL1  H18C 3282   0.642   2.286   5.620  0.1241 -1.9846 -1.5464
   29CHL1   C12 3283   0.493   2.525   5.677 -0.2969 -0.1826 -0.6220
   29CHL1  H12A 3284   0.540   2.593   5.603 -1.5269 -0.6186 -1.8507
   29CHL1  H12B 3285   0.399   2.568   5.716  0.3594  0.1801  0.6019
   29CHL1   C11 3286   0.599   2.496   5.791  0.5293 -0.3740  0.2208
   29CHL1  H11A 3287   0.687   2.457   5.735 -0.7489 -1.5516 -1.0555
   29CHL1  H11B 3288   0.637   2.587   5.842  1.8417 -1.1535  0.6926
   29CHL1    C9 3289   0.557   2.396   5.901 -0.2575 -0.1135 -0.3154
   29CHL1    H9 3290   0.472   2.446   5.952 -0.0143 -0.8115  0.8115
   29CHL1   C10 3291   0.670   2.354   5.996  0.3627  0.8109 -0.6833
   29CHL1   C19 3292   0.800   2.311   5.915 -0.5926 -0.9323  0.4402
   29CHL1  H19A 3293   0.881   2.289   5.987 -1.3766  0.7732  1.9248
   29CHL1  H19B 3294   0.773   2.228   5.845 -0.9760 -0.0715 -0.4539
   29CHL1  H19C 3295   0.836   2.399   5.857 -0.4525 -0.7737  0.7680
   29CHL1    C1 3296   0.710   2.477   6.090  0.0454  0.6703 -0.4570
   29CHL1   H1A 3297   0.749   2.552   6.019  0.1458 -0.8713 -2.1159
   29CHL1   H1B 3298   0.618   2.523   6.132 -0.1927  0.8045 -1.1091
   29CHL1    C2 3299   0.809   2.443   6.208  0.1220  0.5859 -0.0547
   29CHL1   H2A 3300   0.837   2.536   6.262 -1.9969  1.2516  0.0185
   29CHL1   H2B 3301   0.901   2.405   6.160  1.1301 -0.7183  2.6963
   29CHL1   C20 3302   0.338   2.470   5.384  0.2207  0.9402 -0.6883
   29CHL1   H20 3303   0.436   2.458   5.333 -0.6469 -1.7104 -1.8690
   29CHL1   C21 3304   0.336   2.629   5.406 -0.0736  0.1738 -0.1354
   29CHL1  H21A 3305   0.332   2.679   5.306  0.4705 -0.9040 -0.7236
   29CHL1  H21B 3306   0.433   2.658   5.452 -1.3064  2.2237  1.3341
   29CHL1  H21C 3307   0.258   2.670   5.473 -0.0377 -2.4805  1.6865
   29CHL1   C22 3308   0.227   2.423   5.281 -0.1514 -0.5384  0.3460
   29CHL1  H22A 3309   0.231   2.312   5.275  1.6065 -0.4876  0.2571
   29CHL1  H22B 3310   0.123   2.449   5.313 -0.7308 -2.4174  0.1240
   29CHL1   C23 3311   0.242   2.483   5.137 -0.1621  0.0632 -0.4523
   29CHL1  H23A 3312   0.205   2.587   5.152  2.8343  0.9979  1.4976
   29CHL1  H23B 3313   0.353   2.480   5.126 -0.1027 -0.4953  0.1982
   29CHL1   C24 3314   0.172   2.409   5.029 -0.3408  0.1299  0.9322
   29CHL1  H24A 3315   0.202   2.302   5.038  0.5395  0.3998  1.2742
   29CHL1  H24B 3316   0.064   2.411   5.054 -0.9000  1.7442 -1.3942
   29CHL1   C25 3317   0.177   2.475   4.889 -0.6982  0.2434  0.3717
   29CHL1   H25 3318   0.116   2.568   4.895  0.6084  1.1699 -0.3542
   29CHL1   C26 3319   0.316   2.515   4.855  0.0379 -0.3050 -0.3885
   29CHL1  H26A 3320   0.333   2.549   4.751 -1.7250  0.5686 -0.4404
   29CHL1  H26B 3321   0.367   2.583   4.926  1.4243 -1.8589  0.1807
   29CHL1  H26C 3322   0.383   2.427   4.859 -1.9252 -1.8550  0.5718
   29CHL1   C27 3323   0.127   2.384   4.773 -0.2617 -0.1091 -0.4738
   29CHL1  H27A 3324   0.193   2.295   4.767 -1.7997 -1.2635 -1.0295
   29CHL1  H27B 3325   0.020   2.353   4.773  0.4475 -2.8916  1.0954
   29CHL1  H27C 3326   0.148   2.426   4.672  0.1503 -0.0023 -0.3439
   30CHL1    C3 3327   1.604   2.004   5.842  0.3922  0.1344 -0.6209
   30CHL1    H3 3328   1.695   1.940   5.843  0.2299 -0.1106  0.7027
   30CHL1    O3 3329   1.536   1.992   5.975 -0.0538  0.4185  0.1661
   30CHL1   H3' 3330   1.452   2.036   5.958  1.4011  3.7159  0.5736
   30CHL1    C4 3331   1.639   2.150   5.825  0.2934  0.3917  0.6441
   30CHL1   H4A 3332   1.548   2.211   5.841  0.4744  0.5336  1.1547
   30CHL1   H4B 3333   1.708   2.168   5.910  0.4983 -1.5709  0.9196
   30CHL1    C5 3334   1.685   2.186   5.687  0.3675 -0.1519 -0.0006
   30CHL1    C6 3335   1.789   2.262   5.669 -0.9659  0.1337 -0.1157
   30CHL1    H6 3336   1.850   2.295   5.754  0.6001 -0.0951 -1.0993
   30CHL1    C7 3337   1.840   2.309   5.533 -0.2375  0.8629 -0.0223
   30CHL1   H7A 3338   1.876   2.413   5.548  0.5629  0.4244  1.2568
   30CHL1   H7B 3339   1.937   2.257   5.519 -0.3175  0.0891  1.9197
   30CHL1    C8 3340   1.751   2.291   5.420  0.8561  0.2477  0.3293
   30CHL1    H8 3341   1.678   2.374   5.426  1.9483  1.2043  0.7126
   30CHL1   C14 3342   1.822   2.304   5.283  0.3137 -0.0061 -0.1806
   30CHL1   H14 3343   1.905   2.231   5.276  1.6596  1.6100 -3.6871
   30CHL1   C15 3344   1.898   2.430   5.247 -0.2555  0.8734  0.0473
   30CHL1  H15A 3345   1.847   2.521   5.286 -1.8437 -0.2483  0.6914
   30CHL1  H15B 3346   1.999   2.431   5.292 -0.4676 -1.5119  0.7184
   30CHL1   C16 3347   1.906   2.435   5.087 -0.9803  0.2430 -0.1855
   30CHL1  H16A 3348   1.865   2.531   5.049  1.2319  1.1650 -0.4182
   30CHL1  H16B 3349   2.010   2.438   5.047 -0.9186  2.4205  0.0537
   30CHL1   C17 3350   1.832   2.301   5.044 -0.8624  0.6336 -0.0753
   30CHL1   H17 3351   1.899   2.213   5.055 -2.5525 -0.6883  0.0115
   30CHL1   C13 3352   1.735   2.279   5.161  0.7300  1.0224  0.7057
   30CHL1   C18 3353   1.619   2.380   5.149 -0.6086 -0.6014 -0.7683
   30CHL1  H18A 3354   1.653   2.484   5.128 -0.4883 -0.5067 -0.1237
   30CHL1  H18B 3355   1.552   2.343   5.069 -0.1044 -1.3548 -0.8445
   30CHL1  H18C 3356   1.558   2.399   5.239 -0.4604  2.1968 -1.1532
   30CHL1   C12 3357   1.685   2.131   5.178 -0.3946 -0.3359 -0.3849
   30CHL1  H12A 3358   1.626   2.086   5.095  0.4419  0.3258 -1.3735
   30CHL1  H12B 3359   1.775   2.066   5.191 -0.3587 -0.5185 -1.4196
   30CHL1   C11 3360   1.596   2.113   5.299 -0.5359  0.3915  0.0007
   30CHL1  H11A 3361   1.505   2.177   5.286 -0.1279  0.6887 -1.6348
   30CHL1  H11B 3362   1.570   2.007   5.319 -1.0938  0.3813 -0.7537
   30CHL1    C9 3363   1.674   2.153   5.434 -0.0129 -0.2356  0.6500
   30CHL1    H9 3364   1.768   2.093   5.431  1.1624  1.5756 -1.0722
   30CHL1   C10 3365   1.606   2.132   5.565  0.3596 -0.5222 -0.4332
   30CHL1   C19 3366   1.469   2.208   5.554  0.5937  0.0280  0.3447
   30CHL1  H19A 3367   1.489   2.314   5.526  1.0374 -0.0494  0.3672
   30CHL1  H19B 3368   1.404   2.162   5.476 -0.9489  2.7263 -0.0750
   30CHL1  H19C 3369   1.406   2.190   5.643 -0.3377 -1.0722 -0.5065
   30CHL1    C1 3370   1.556   1.988   5.601 -1.1390 -0.5157  0.9408
   30CHL1   H1A 3371   1.485   1.959   5.520 -0.3025 -0.1834  0.0738
   30CHL1   H1B 3372   1.642   1.922   5.580 -0.4852  0.9514 -1.4102
   30CHL1    C2 3373   1.503   1.958   5.736 -0.0886 -0.4802  0.2962
   30CHL1   H2A 3374   1.477   1.850   5.735 -0.9618 -0.2799 -1.5392
   30CHL1   H2B 3375   1.410   2.015   5.756  1.0097  1.7896 -0.7703
   30CHL1   C20 3376   1.784   2.296   4.903  0.1594  0.0831  0.7484
   30CHL1   H20 3377   1.708   2.216   4.889 -0.8945  0.7717  2.1644
   30CHL1   C21 3378   1.915   2.269   4.828  0.3823 -0.4105 -0.4917
   30CHL1  H21A 3379   1.887   2.260   4.721  1.3767 -0.5308 -0.7497
   30CHL1  H21B 3380   1.958   2.170   4.856  0.2091 -0.6431 -1.0244
   30CHL1  H21C 3381   1.991   2.349   4.841  0.7377 -0.8447  0.1560
   30CHL1   C22 3382   1.713   2.431   4.848 -0.3845  0.5073  0.3351
   30CHL1  H22A 3383   1.669   2.491   4.930  2.3679 -0.4983  2.7425
   30CHL1  H22B 3384   1.802   2.489   4.816 -1.4935  3.5472  2.3654
   30CHL1   C23 3385   1.609   2.400   4.734  0.1409 -0.1893  0.9354
   30CHL1  H23A 3386   1.658   2.337   4.657 -0.4362  0.3789  0.0915
   30CHL1  H23B 3387   1.526   2.346   4.784 -0.4445  0.8765  1.1370
   30CHL1   C24 3388   1.554   2.527   4.657  0.7630  0.0139 -0.9609
   30CHL1  H24A 3389   1.534   2.613   4.725  1.0973 -0.7280  0.0960
   30CHL1  H24B 3390   1.643   2.557   4.598  0.9496  1.1158 -0.1640
   30CHL1   C25 3391   1.441   2.493   4.565 -0.0846  0.2935  0.6913
   30CHL1   H25 3392   1.450   2.568   4.484  0.9283  0.4111  0.8925
   30CHL1   C26 3393   1.463   2.353   4.492  0.0017  0.4917  0.1691
   30CHL1  H26A 3394   1.460   2.263   4.557  0.2056 -0.6257 -1.3126
   30CHL1  H26B 3395   1.389   2.346   4.410 -0.3864  0.9960  0.4679
   30CHL1  H26C 3396   1.567   2.358   4.453  0.9477  3.9123  2.5833
   30CHL1   C27 3397   1.307   2.497   4.635  0.4415 -0.3900  0.8150
   30CHL1  H27A 3398   1.226   2.490   4.559  1.5411  0.4321 -0.4809
   30CHL1  H27B 3399   1.291   2.415   4.708 -2.1887  0.1242  0.9087
   30CHL1  H27C 3400   1.299   2.598   4.682  0.7976  0.1313 -0.1967
   31CHL1    C3 3401   0.952   3.406   6.548 -0.0935  0.1956  0.1903
   31CHL1    H3 3402   0.868   3.476   6.566 -0.7146 -0.4555 -0.1446
   31CHL1    O3 3403   1.000   3.371   6.677  0.2008  0.3190  0.0324
   31CHL1   H3' 3404   1.081   3.320   6.666  0.4742  0.4844  1.1833
   31CHL1    C4 3405   0.904   3.279   6.474  0.2529 -0.6460  0.1165
   31CHL1   H4A 3406   0.989   3.207   6.479  1.1838  0.5302  2.8045
   31CHL1   H4B 3407   0.824   3.228   6.530 -1.5597 -0.0472 -1.7828
   31CHL1    C5 3408   0.873   3.316   6.332 -0.1095 -0.6240 -0.4173
   31CHL1    C6 3409   0.753   3.292   6.275 -0.2860  0.7700  0.0792
   31CHL1    H6 3410   0.679   3.233   6.331 -1.2480  2.3112  0.5262
   31CHL1    C7 3411   0.707   3.320   6.139 -0.5504 -0.5325  0.2679
   31CHL1   H7A 3412   0.641   3.236   6.109  0.1576 -0.8411 -0.4687
   31CHL1   H7B 3413   0.649   3.414   6.150  2.6017  1.2326  5.3838
   31CHL1    C8 3414   0.828   3.333   6.046  0.4415  0.0792  0.2589
   31CHL1    H8 3415   0.879   3.235   6.035  1.5206  0.5791  0.5716
   31CHL1   C14 3416   0.783   3.392   5.911  0.4399  0.0884  0.2650
   31CHL1   H14 3417   0.736   3.491   5.933  1.4825  0.7278 -0.3194
   31CHL1   C15 3418   0.663   3.315   5.841  0.4691 -0.4989  0.3044
   31CHL1  H15A 3419   0.680   3.205   5.848 -0.0224 -0.6127 -0.1905
   31CHL1  H15B 3420   0.564   3.344   5.883  0.2537 -0.0035 -0.5153
   31CHL1   C16 3421   0.668   3.368   5.696 -0.2262  0.7355 -0.9448
   31CHL1  H16A 3422   0.674   3.288   5.619 -3.2468 -0.8755  0.3201
   31CHL1  H16B 3423   0.576   3.425   5.673 -1.4383 -0.7046  0.1219
   31CHL1   C17 3424   0.795   3.453   5.688  0.0210  0.0230 -0.0909
   31CHL1   H17 3425   0.764   3.554   5.720 -0.6560 -0.8591  2.2035
   31CHL1   C13 3426   0.886   3.411   5.805  0.0603 -0.7804 -0.0305
   31CHL1   C18 3427   0.960   3.279   5.768  0.8322  0.7444  0.6793
   31CHL1  H18A 3428   1.027   3.286   5.680  1.1776 -1.1811  0.7346
   31CHL1  H18B 3429   1.023   3.237   5.849 -1.7464 -2.6841  1.1686
   31CHL1  H18C 3430   0.879   3.205   5.746  0.8611  1.4124 -1.9876
   31CHL1   C12 3431   0.982   3.515   5.858 -0.2579 -0.2967 -0.4985
   31CHL1  H12A 3432   1.076   3.537   5.802 -0.1605 -1.8008 -0.9654
   31CHL1  H12B 3433   0.934   3.608   5.894  0.9236  0.2828 -0.3489
   31CHL1   C11 3434   1.041   3.469   6.004 -0.7988  0.0033 -0.0760
   31CHL1  H11A 3435   1.110   3.387   5.975  0.5950  1.4429 -0.9519
   31CHL1  H11B 3436   1.111   3.544   6.046 -0.9558 -1.2493  2.6350
   31CHL1    C9 3437   0.933   3.434   6.109 -0.3619 -0.2592 -0.2715
   31CHL1    H9 3438   0.874   3.527   6.123  1.7550  1.1112  0.0934
   31CHL1   C10 3439   0.986   3.389   6.253 -0.1638 -0.0136  0.5416
   31CHL1   C19 3440   1.092   3.281   6.234  0.2123 -0.7519 -0.5643
   31CHL1  H19A 3441   1.182   3.325   6.186 -0.0771 -1.6134 -1.9728
   31CHL1  H19B 3442   1.127   3.242   6.332 -1.0673  1.0847  0.6697
   31CHL1  H19C 3443   1.051   3.197   6.174 -2.1859  0.1664 -0.2918
   31CHL1    C1 3444   1.039   3.512   6.324 -0.0853 -0.0676  0.2181
   31CHL1   H1A 3445   1.134   3.551   6.282  0.2812 -1.7741 -0.6328
   31CHL1   H1B 3446   0.966   3.595   6.328 -1.3064 -0.9023 -2.2781
   31CHL1    C2 3447   1.066   3.481   6.474 -0.6576 -0.1941 -0.2330
   31CHL1   H2A 3448   1.082   3.574   6.531 -0.4611 -1.2716  1.5299
   31CHL1   H2B 3449   1.157   3.418   6.476 -0.7602 -0.3288  1.5224
   31CHL1   C20 3450   0.852   3.462   5.554 -0.8245 -0.4250  0.7532
   31CHL1   H20 3451   0.893   3.368   5.512 -0.2380 -0.2270  0.8748
   31CHL1   C21 3452   0.977   3.555   5.552 -0.0300 -0.5053  0.2290
   31CHL1  H21A 3453   0.955   3.652   5.603 -0.9340 -0.2404 -0.6272
   31CHL1  H21B 3454   1.011   3.574   5.448 -2.4769  0.6166 -0.4373
   31CHL1  H21C 3455   1.058   3.493   5.595 -0.5611 -1.7449 -0.5170
   31CHL1   C22 3456   0.746   3.523   5.454 -0.4192 -0.5295 -0.0372
   31CHL1  H22A 3457   0.661   3.455   5.434  0.4923 -1.5598 -0.5190
   31CHL1  H22B 3458   0.704   3.617   5.497  0.7349 -0.3284  0.6943
   31CHL1   C23 3459   0.799   3.545   5.311  0.1544 -0.0055 -0.9128
   31CHL1  H23A 3460   0.853   3.641   5.298  1.1888 -0.7316 -2.1256
   31CHL1  H23B 3461   0.876   3.470   5.286 -0.1621 -0.6491 -0.0242
   31CHL1   C24 3462   0.696   3.530   5.195 -0.2430 -0.6306  0.3773
   31CHL1  H24A 3463   0.704   3.421   5.173  0.8677 -0.0777 -2.3560
   31CHL1  H24B 3464   0.594   3.565   5.219  0.1041  2.4095 -2.0083
   31CHL1   C25 3465   0.738   3.609   5.062  1.2468 -0.1005 -0.8058
   31CHL1   H25 3466   0.845   3.595   5.037  1.1500 -2.5433 -0.0806
   31CHL1   C26 3467   0.662   3.557   4.948  0.0614  0.3634  0.6233
   31CHL1  H26A 3468   0.560   3.600   4.944 -0.2177 -0.2184  1.3408
   31CHL1  H26B 3469   0.717   3.560   4.851  1.2211  0.6150  1.2734
   31CHL1  H26C 3470   0.655   3.448   4.964  1.1038  0.3985  1.3670
   31CHL1   C27 3471   0.706   3.759   5.076 -0.6018 -0.0130 -0.3522
   31CHL1  H27A 3472   0.747   3.816   4.990  1.9046 -0.2372  0.5871
   31CHL1  H27B 3473   0.598   3.782   5.084 -0.8360 -1.1048 -0.1600
   31CHL1  H27C 3474   0.772   3.794   5.158 -1.0017  2.0382 -0.8724
   32CHL1    C3 3475   1.184   0.503   6.161  0.7513 -0.3580 -0.1568
   32CHL1    H3 3476   1.191   0.394   6.139 -1.8552 -0.2989 -1.6791
   32CHL1    O3 3477   1.174   0.512   6.306 -0.1097 -0.0737 -0.1593
   32CHL1   H3' 3478   1.168   0.606   6.321 -1.2528 -0.1808  0.1444
   32CHL1    C4 3479   1.307   0.573   6.114 -0.3869 -0.5137  0.2637
   32CHL1   H4A 3480   1.308   0.677   6.152 -2.6451  0.0271 -0.9722
   32CHL1   H4B 3481   1.389   0.511   6.155 -1.2701 -1.1303  1.1450
   32CHL1    C5 3482   1.326   0.575   5.957  0.6027  0.2442 -0.7203
   32CHL1    C6 3483   1.448   0.545   5.899 -0.2312 -0.0161 -0.3289
   32CHL1    H6 3484   1.537   0.514   5.956  0.8122 -0.2810 -2.0424
   32CHL1    C7 3485   1.461   0.552   5.754  0.3102  0.3723 -0.7819
   32CHL1   H7A 3486   1.556   0.607   5.733  0.5224  0.0479 -0.6846
   32CHL1   H7B 3487   1.472   0.447   5.717 -0.7258 -0.8082  1.9582
   32CHL1    C8 3488   1.347   0.619   5.675 -0.6464  0.4326  0.5045
   32CHL1    H8 3489   1.359   0.729   5.685  0.4643  0.3756 -0.0312
   32CHL1   C14 3490   1.358   0.584   5.532  0.2841  0.1240  0.2401
   32CHL1   H14 3491   1.348   0.473   5.521 -2.4436  0.3187  0.1880
   32CHL1   C15 3492   1.489   0.602   5.447  0.0292 -0.3555 -0.5083
   32CHL1  H15A 3493   1.524   0.706   5.466 -0.3730 -0.1575 -0.8209
   32CHL1  H15B 3494   1.582   0.550   5.479  1.3639  2.2186  0.0700
   32CHL1   C16 3495   1.454   0.589   5.304 -0.8406 -0.5431  1.2781
   32CHL1  H16A 3496   1.513   0.666   5.249 -0.5588 -1.5340  0.1662
   32CHL1  H16B 3497   1.499   0.495   5.266  2.6393  1.6524 -0.5165
   32CHL1   C17 3498   1.301   0.601   5.296  0.3846  0.1955 -0.9155
   32CHL1   H17 3499   1.261   0.498   5.304 -0.4943  0.6717  2.5143
   32CHL1   C13 3500   1.251   0.648   5.441  0.3157  0.3143 -0.4692
   32CHL1   C18 3501   1.260   0.798   5.443 -0.5392 -0.2032  0.2131
   32CHL1  H18A 3502   1.352   0.836   5.394 -0.0662 -2.1328 -0.5178
   32CHL1  H18B 3503   1.171   0.840   5.392 -0.4058  1.2195  1.1065
   32CHL1  H18C 3504   1.260   0.832   5.548  0.5007  2.7136 -0.6390
   32CHL1   C12 3505   1.116   0.611   5.493 -0.4213  1.2550  0.1862
   32CHL1  H12A 3506   1.033   0.665   5.442 -2.1163 -1.8034 -0.5723
   32CHL1  H12B 3507   1.095   0.505   5.466 -1.1583  1.2576  0.7296
   32CHL1   C11 3508   1.099   0.637   5.640 -0.1248 -0.1338 -0.4410
   32CHL1  H11A 3509   1.078   0.746   5.645  0.5549  0.0912 -1.8460
   32CHL1  H11B 3510   1.004   0.584   5.661 -0.0473 -1.1134 -2.3281
   32CHL1    C9 3511   1.211   0.580   5.731 -0.4467 -0.1127  0.0285
   32CHL1    H9 3512   1.208   0.469   5.722 -2.4636 -0.1807  0.9441
   32CHL1   C10 3513   1.192   0.614   5.882 -1.0339  0.4822 -0.4015
   32CHL1   C19 3514   1.157   0.766   5.894 -0.0816 -0.0999  0.7458
   32CHL1  H19A 3515   1.212   0.832   5.824 -0.7901 -0.2204  0.0559
   32CHL1  H19B 3516   1.053   0.789   5.860  0.5582  0.7246 -0.7235
   32CHL1  H19C 3517   1.169   0.798   6.000  1.3969 -1.2281  0.9371
   32CHL1    C1 3518   1.072   0.544   5.944  0.0238 -0.0830  0.3065
   32CHL1   H1A 3519   0.975   0.576   5.899 -0.5358 -0.3778  1.2661
   32CHL1   H1B 3520   1.089   0.436   5.923  0.9789  0.4429 -1.8674
   32CHL1    C2 3521   1.061   0.561   6.101 -0.3574 -0.4628 -0.1263
   32CHL1   H2A 3522   0.981   0.491   6.133 -0.7836  0.7020  1.4267
   32CHL1   H2B 3523   1.056   0.669   6.128 -1.3932 -0.6174  0.3417
   32CHL1   C20 3524   1.256   0.669   5.166 -0.1064  0.4480  0.1056
   32CHL1   H20 3525   1.283   0.775   5.182  2.3692  0.0753 -1.1155
   32CHL1   C21 3526   1.102   0.643   5.156  0.6979  0.3051  0.0351
   32CHL1  H21A 3527   1.032   0.669   5.239  0.3580 -0.0609 -0.1302
   32CHL1  H21B 3528   1.100   0.532   5.150  2.4713  0.3153 -2.5293
   32CHL1  H21C 3529   1.059   0.694   5.067 -0.4375 -0.9596 -0.1758
   32CHL1   C22 3530   1.325   0.626   5.032  0.6741 -0.3776  0.3803
   32CHL1  H22A 3531   1.262   0.664   4.949  1.2819  0.9135  0.4811
   32CHL1  H22B 3532   1.418   0.686   5.031  0.1292  0.4782 -0.1295
   32CHL1   C23 3533   1.329   0.470   5.003 -0.9518 -0.0786 -0.0213
   32CHL1  H23A 3534   1.400   0.429   5.078 -2.2350 -1.1472  0.6660
   32CHL1  H23B 3535   1.226   0.427   5.001 -0.8587 -0.2946 -0.2670
   32CHL1   C24 3536   1.395   0.431   4.867 -0.5932  0.3955  0.2642
   32CHL1  H24A 3537   1.399   0.321   4.855  0.6367  0.4221  0.3303
   32CHL1  H24B 3538   1.339   0.471   4.780  0.4976  2.6327  0.5080
   32CHL1   C25 3539   1.546   0.477   4.858  0.6354 -0.2825  0.1969
   32CHL1   H25 3540   1.540   0.586   4.877  0.8163 -0.4754  1.3905
   32CHL1   C26 3541   1.644   0.408   4.945  0.0226 -0.1310 -0.4083
   32CHL1  H26A 3542   1.617   0.399   5.052 -0.8846  0.0422 -0.6156
   32CHL1  H26B 3543   1.658   0.304   4.908 -0.5075 -0.8299  1.2686
   32CHL1  H26C 3544   1.740   0.464   4.939  0.6141 -1.0945 -0.1296
   32CHL1   C27 3545   1.589   0.465   4.718  0.2273 -0.4924  0.5708
   32CHL1  H27A 3546   1.596   0.359   4.686 -1.1995  0.0598 -1.9065
   32CHL1  H27B 3547   1.520   0.515   4.646  0.3744 -2.4248 -1.0060
   32CHL1  H27C 3548   1.693   0.502   4.708 -0.0954  0.5822  1.0855
   33CHL1    C3 3549   6.622   6.514   5.974  0.9771 -0.0624 -0.4940
   33CHL1    H3 3550   6.545   6.589   5.948  0.5532 -0.5528 -0.6747
   33CHL1    O3 3551   6.610   6.476   6.109 -0.3459 -0.1177  0.3001
   33CHL1   H3' 3552   6.633   6.562   6.147 -0.2614 -0.3628  0.8206
   33CHL1    C4 3553   6.611   6.403   5.873 -0.5587  0.2333 -0.8779
   33CHL1   H4A 3554   6.680   6.324   5.910 -1.7059 -0.2103  0.4104
   33CHL1   H4B 3555   6.510   6.357   5.865  0.5843 -3.0718  1.5324
   33CHL1    C5 3556   6.646   6.440   5.727  0.0380 -0.1261 -0.6614
   33CHL1    C6 3557   6.563   6.416   5.626  0.0036 -0.3561  0.4376
   33CHL1    H6 3558   6.463   6.371   5.632 -0.0008 -0.2976  0.8399
   33CHL1    C7 3559   6.591   6.459   5.481 -0.0241  0.5580  0.6534
   33CHL1   H7A 3560   6.565   6.383   5.404 -0.8421  2.9150 -1.5390
   33CHL1   H7B 3561   6.521   6.541   5.455 -0.6891 -0.3771 -0.6326
   33CHL1    C8 3562   6.735   6.493   5.461  0.8103  0.3538 -0.0508
   33CHL1    H8 3563   6.794   6.399   5.461  1.2298  0.6080  0.7530
   33CHL1   C14 3564   6.744   6.562   5.320 -0.0446 -0.3283 -0.0167
   33CHL1   H14 3565   6.682   6.653   5.331 -0.6328 -0.7534  0.2690
   33CHL1   C15 3566   6.677   6.488   5.196  0.3804 -0.1610  0.1571
   33CHL1  H15A 3567   6.684   6.378   5.211  0.8240 -0.2763 -0.8451
   33CHL1  H15B 3568   6.570   6.516   5.186  0.0269 -1.5929 -0.3928
   33CHL1   C16 3569   6.750   6.539   5.078 -0.7203 -0.3888  0.7256
   33CHL1  H16A 3570   6.829   6.462   5.064 -1.2834 -1.1853  1.7528
   33CHL1  H16B 3571   6.698   6.562   4.982  2.3278  2.4281 -0.4608
   33CHL1   C17 3572   6.843   6.652   5.133 -0.3151  0.0460  0.1732
   33CHL1   H17 3573   6.785   6.747   5.140  1.7867  1.5573 -1.4512
   33CHL1   C13 3574   6.883   6.608   5.275  0.7582  0.4083  0.1046
   33CHL1   C18 3575   6.980   6.488   5.283  0.3951 -0.1327  0.1154
   33CHL1  H18A 3576   6.941   6.407   5.217  0.8152  0.3029 -0.6902
   33CHL1  H18B 3577   7.085   6.504   5.249  0.9924  1.2006  2.3397
   33CHL1  H18C 3578   6.986   6.447   5.386  1.3594  1.9066  0.9241
   33CHL1   C12 3579   6.927   6.711   5.387  0.3861  0.4533 -0.4097
   33CHL1  H12A 3580   7.032   6.745   5.371  0.7511  0.3860  1.5484
   33CHL1  H12B 3581   6.862   6.801   5.380  1.8427  1.6044  0.2077
   33CHL1   C11 3582   6.926   6.655   5.530  0.3155  0.2105  0.5781
   33CHL1  H11A 3583   7.011   6.584   5.543  0.1967 -0.2378 -0.9108
   33CHL1  H11B 3584   6.932   6.747   5.592 -2.1556  2.5180 -2.3508
   33CHL1    C9 3585   6.791   6.578   5.567 -0.2328 -0.6495  0.0987
   33CHL1    H9 3586   6.717   6.661   5.572 -0.2116 -0.6420  0.2987
   33CHL1   C10 3587   6.780   6.510   5.705 -0.4474  0.4055 -0.0946
   33CHL1   C19 3588   6.899   6.416   5.736  0.2305  0.4651  0.0331
   33CHL1  H19A 3589   6.897   6.367   5.836  1.4180  1.2523  0.4620
   33CHL1  H19B 3590   6.905   6.342   5.653 -1.9577  0.3511 -0.0909
   33CHL1  H19C 3591   6.985   6.486   5.735 -0.5848  1.5095  0.9513
   33CHL1    C1 3592   6.782   6.630   5.817  0.4039  0.5587  0.3166
   33CHL1   H1A 3593   6.878   6.684   5.810  0.4704  0.2084 -3.2781
   33CHL1   H1B 3594   6.688   6.685   5.792 -1.4182 -2.1915  0.6606
   33CHL1    C2 3595   6.761   6.574   5.960 -0.6826 -0.3312 -0.8993
   33CHL1   H2A 3596   6.778   6.642   6.046 -0.3733 -0.9951 -0.4286
   33CHL1   H2B 3597   6.841   6.503   5.988 -0.3360  0.8335  1.3523
   33CHL1   C20 3598   6.961   6.674   5.032  0.6226  0.9046 -0.4254
   33CHL1   H20 3599   7.019   6.579   5.034  1.9682  1.6414  2.7055
   33CHL1   C21 3600   7.061   6.783   5.081  0.3374  1.1475  0.3827
   33CHL1  H21A 3601   7.109   6.763   5.179  2.2507 -0.8240 -0.8638
   33CHL1  H21B 3602   7.011   6.882   5.075 -0.0015  0.9033 -1.5451
   33CHL1  H21C 3603   7.148   6.790   5.012 -0.0682  0.8379 -0.1674
   33CHL1   C22 3604   6.913   6.710   4.884  0.3414  0.4533  0.7840
   33CHL1  H22A 3605   6.875   6.610   4.856  2.0294  0.2988 -1.1109
   33CHL1  H22B 3606   6.820   6.772   4.891 -1.2970 -1.4653 -1.9867
   33CHL1   C23 3607   7.007   6.757   4.768 -0.2952 -0.3756 -0.3208
   33CHL1  H23A 3608   7.047   6.859   4.785 -0.3632 -0.7262  2.2143
   33CHL1  H23B 3609   7.102   6.700   4.764  0.9219  1.5570 -0.4013
   33CHL1   C24 3610   6.942   6.741   4.626 -0.2818  0.0150  0.5293
   33CHL1  H24A 3611   6.931   6.631   4.612  1.0197  0.2192 -3.4209
   33CHL1  H24B 3612   6.839   6.783   4.624 -0.4741 -0.4289 -1.4983
   33CHL1   C25 3613   7.026   6.806   4.518  0.4601 -0.2658 -0.1355
   33CHL1   H25 3614   7.067   6.903   4.554  0.3445 -0.2952  0.0748
   33CHL1   C26 3615   7.151   6.723   4.464  0.7140  0.5244 -0.2165
   33CHL1  H26A 3616   7.216   6.697   4.550  0.7053 -0.5853 -0.5292
   33CHL1  H26B 3617   7.130   6.624   4.417  5.2382 -0.5569 -0.4336
   33CHL1  H26C 3618   7.199   6.789   4.389 -0.0842  0.3419 -0.8992
   33CHL1   C27 3619   6.933   6.848   4.394 -0.1130  0.1408 -0.1114
   33CHL1  H27A 3620   6.876   6.933   4.438 -1.1807 -0.5654 -0.0954
   33CHL1  H27B 3621   7.004   6.872   4.313  0.5601 -0.5865  0.2523
   33CHL1  H27C 3622   6.863   6.765   4.374  0.5376 -0.4548  0.0470
   34CHL1    C3 3623   1.763   0.924   5.992  0.0002 -0.0863 -1.0481
   34CHL1    H3 3624   1.762   0.813   6.002  1.5400 -0.1374 -1.1788
   34CHL1    O3 3625   1.779   0.985   6.122  0.7293 -0.0905  0.4598
   34CHL1   H3' 3626   1.737   1.069   6.104 -0.2071 -0.5587  0.4109
   34CHL1    C4 3627   1.887   0.959   5.901  0.0744 -1.3842 -0.5964
   34CHL1   H4A 3628   1.903   1.066   5.927 -2.7291 -1.0085 -0.1529
   34CHL1   H4B 3629   1.986   0.926   5.939  1.2101  0.6671 -1.5718
   34CHL1    C5 3630   1.872   0.939   5.754  0.2991 -0.3970 -0.4100
   34CHL1    C6 3631   1.969   0.862   5.693 -0.1040 -0.3488  0.3620
   34CHL1    H6 3632   2.057   0.830   5.750  0.0949  0.2700  0.4138
   34CHL1    C7 3633   1.973   0.837   5.548  0.1312 -0.7366 -0.3633
   34CHL1   H7A 3634   2.069   0.862   5.498  0.6263 -1.5555  0.1551
   34CHL1   H7B 3635   1.937   0.736   5.520 -0.5616 -0.3628 -0.8706
   34CHL1    C8 3636   1.872   0.937   5.476  0.0473  0.3805 -0.6582
   34CHL1    H8 3637   1.929   1.033   5.479  0.8176 -0.0084 -1.9233
   34CHL1   C14 3638   1.858   0.901   5.323  0.8385  0.0704  0.1987
   34CHL1   H14 3639   1.791   0.812   5.331 -1.4737  1.8409  2.6690
   34CHL1   C15 3640   1.980   0.858   5.232 -0.5245 -0.4860  0.7976
   34CHL1  H15A 3641   2.071   0.915   5.262 -1.0706  0.8148  0.0841
   34CHL1  H15B 3642   1.987   0.755   5.272 -0.6475 -0.2899  1.3414
   34CHL1   C16 3643   1.936   0.870   5.083  0.3239 -0.0478  0.3142
   34CHL1  H16A 3644   2.000   0.948   5.037 -1.4081  0.2976 -1.6164
   34CHL1  H16B 3645   1.950   0.780   5.020 -1.1586  0.5324 -0.8985
   34CHL1   C17 3646   1.786   0.912   5.095  0.8304  0.5219 -0.7186
   34CHL1   H17 3647   1.742   0.811   5.105 -0.6032  1.1259 -0.5422
   34CHL1   C13 3648   1.758   0.979   5.240  0.0234 -0.2086  0.0421
   34CHL1   C18 3649   1.794   1.127   5.227  0.0602  0.1967 -0.3710
   34CHL1  H18A 3650   1.836   1.172   5.319  0.4555 -1.6435  0.3983
   34CHL1  H18B 3651   1.869   1.150   5.148  0.0392  2.6347  0.2631
   34CHL1  H18C 3652   1.709   1.193   5.202 -0.4705 -0.5823 -0.6894
   34CHL1   C12 3653   1.621   0.978   5.315 -0.0862  1.1531 -0.0816
   34CHL1  H12A 3654   1.546   1.043   5.266  0.2181  1.6585  0.1153
   34CHL1  H12B 3655   1.587   0.872   5.313  4.3540 -0.5002  0.2361
   34CHL1   C11 3656   1.635   1.022   5.456  0.3137  0.1133 -1.2888
   34CHL1  H11A 3657   1.640   1.133   5.456  0.5931  0.2701  2.9384
   34CHL1  H11B 3658   1.541   0.989   5.505  2.7444 -1.1781  3.0656
   34CHL1    C9 3659   1.741   0.950   5.543  0.1316 -0.2100 -0.0276
   34CHL1    H9 3660   1.698   0.849   5.554 -0.3393 -0.1913 -1.4778
   34CHL1   C10 3661   1.747   0.994   5.691 -0.0260 -0.7824 -0.4857
   34CHL1   C19 3662   1.748   1.151   5.692  0.8510  0.1375 -0.6670
   34CHL1  H19A 3663   1.746   1.189   5.796 -0.3599 -1.1156 -0.2064
   34CHL1  H19B 3664   1.835   1.198   5.640  0.9878  2.2339  1.3146
   34CHL1  H19C 3665   1.649   1.186   5.657  0.9014  1.2815  0.2724
   34CHL1    C1 3666   1.630   0.932   5.779  0.3257 -0.4425  0.3048
   34CHL1   H1A 3667   1.532   0.965   5.738  1.0180  0.3040 -0.8101
   34CHL1   H1B 3668   1.636   0.821   5.771  1.3686 -0.4177  0.5531
   34CHL1    C2 3669   1.627   0.967   5.928 -0.6160  0.7398  0.4082
   34CHL1   H2A 3670   1.542   0.909   5.969 -1.1193  0.4421 -1.0207
   34CHL1   H2B 3671   1.607   1.076   5.940 -1.1707  0.5472  1.2908
   34CHL1   C20 3672   1.734   0.972   4.959 -0.0051 -0.4498 -0.0986
   34CHL1   H20 3673   1.776   1.074   4.944 -0.9309 -0.4563 -3.7773
   34CHL1   C21 3674   1.578   0.982   4.969 -0.5033 -0.3114 -0.2120
   34CHL1  H21A 3675   1.538   0.984   4.865 -0.7892 -0.5092 -0.1073
   34CHL1  H21B 3676   1.542   1.079   5.009 -2.0945 -0.3808 -1.3626
   34CHL1  H21C 3677   1.531   0.898   5.025 -2.0296  0.4093 -0.3378
   34CHL1   C22 3678   1.771   0.884   4.841 -0.1803  0.1356 -0.2245
   34CHL1  H22A 3679   1.879   0.858   4.844  0.1740  1.5584  0.6492
   34CHL1  H22B 3680   1.712   0.790   4.842  0.4333 -0.2560 -0.5486
   34CHL1   C23 3681   1.742   0.946   4.707  0.4919  0.3503  0.2698
   34CHL1  H23A 3682   1.716   0.861   4.639  0.4377 -0.2473  1.0232
   34CHL1  H23B 3683   1.650   1.008   4.707 -0.2014 -0.6250 -0.9031
   34CHL1   C24 3684   1.845   1.041   4.649 -0.9354  0.3540 -0.0031
   34CHL1  H24A 3685   1.857   1.135   4.707  0.1222 -0.0898  0.5217
   34CHL1  H24B 3686   1.945   0.997   4.631 -2.6970 -2.7119 -3.9102
   34CHL1   C25 3687   1.809   1.093   4.505 -0.3125 -0.1948 -0.0030
   34CHL1   H25 3688   1.731   1.169   4.525 -0.0564  0.5098 -1.5559
   34CHL1   C26 3689   1.924   1.172   4.444 -0.4500  0.7311 -0.3920
   34CHL1  H26A 3690   1.976   1.238   4.517 -0.2562 -0.5549  0.6744
   34CHL1  H26B 3691   2.004   1.106   4.403 -2.2059 -1.5975 -0.2625
   34CHL1  H26C 3692   1.898   1.237   4.358 -1.3306  0.2138 -0.5274
   34CHL1   C27 3693   1.750   0.982   4.411  0.6458 -0.2532 -0.8423
   34CHL1  H27A 3694   1.830   0.907   4.388 -0.9312 -1.8312 -1.4264
   34CHL1  H27B 3695   1.664   0.931   4.460  1.1277  1.5647  2.0840
   34CHL1  H27C 3696   1.720   1.035   4.318  2.1967 -0.8079 -1.6942
   35CHL1    C3 3697   2.292   2.464   6.194 -0.1136 -0.5820  0.3347
   35CHL1    H3 3698   2.209   2.415   6.138  1.9067 -2.2322 -1.3760
   35CHL1    O3 3699   2.248   2.485   6.325  0.0967 -0.7753  0.3611
   35CHL1   H3' 3700   2.304   2.556   6.357  0.6599 -0.1175 -1.8835
   35CHL1    C4 3701   2.417   2.383   6.198  0.2909  0.3649 -0.4357
   35CHL1   H4A 3702   2.486   2.434   6.268  0.4409  0.5186 -0.6953
   35CHL1   H4B 3703   2.390   2.282   6.237 -0.5676  0.1265 -1.5936
   35CHL1    C5 3704   2.480   2.367   6.069  0.1821 -0.5881 -0.1922
   35CHL1    C6 3705   2.499   2.248   6.008  0.1088  0.6065 -0.2914
   35CHL1    H6 3706   2.459   2.157   6.055  2.8217 -0.1013  0.8278
   35CHL1    C7 3707   2.557   2.222   5.870  0.2418 -0.0051  0.0597
   35CHL1   H7A 3708   2.630   2.139   5.874  0.8868  0.5667  0.3189
   35CHL1   H7B 3709   2.468   2.195   5.809  0.6785  0.3825 -0.7724
   35CHL1    C8 3710   2.618   2.347   5.803 -0.4707 -0.0892  0.1694
   35CHL1    H8 3711   2.726   2.362   5.826 -0.5349 -0.1070  0.4840
   35CHL1   C14 3712   2.620   2.341   5.649 -0.2779  0.2886  0.2777
   35CHL1   H14 3713   2.511   2.347   5.625  0.0313  2.6380 -0.8111
   35CHL1   C15 3714   2.679   2.213   5.591 -1.2537 -0.2149 -0.1730
   35CHL1  H15A 3715   2.778   2.197   5.640 -1.7082  0.0733  0.8718
   35CHL1  H15B 3716   2.608   2.128   5.584 -3.3746  1.5024 -0.4347
   35CHL1   C16 3717   2.700   2.250   5.437 -0.3022 -0.3446 -0.3602
   35CHL1  H16A 3718   2.809   2.236   5.420  0.2495  2.0111  0.8448
   35CHL1  H16B 3719   2.643   2.183   5.369 -2.0009  1.8441 -1.2037
   35CHL1   C17 3720   2.662   2.402   5.425  0.7266 -0.4101 -0.0527
   35CHL1   H17 3721   2.553   2.385   5.412  0.1197 -0.0152  3.4561
   35CHL1   C13 3722   2.674   2.459   5.565  0.8137 -0.3970 -0.0007
   35CHL1   C18 3723   2.820   2.488   5.586  0.2984 -0.0795  0.0737
   35CHL1  H18A 3724   2.884   2.397   5.580 -2.1012 -1.8598 -0.3681
   35CHL1  H18B 3725   2.863   2.562   5.514  1.6407  0.8093  1.7275
   35CHL1  H18C 3726   2.834   2.539   5.683  0.9494 -0.7722  0.3520
   35CHL1   C12 3727   2.585   2.588   5.607 -0.5847  0.8003 -0.3505
   35CHL1  H12A 3728   2.636   2.677   5.563  0.0577  1.1502  1.0621
   35CHL1  H12B 3729   2.483   2.583   5.562 -2.7170 -0.2487  4.0925
   35CHL1   C11 3730   2.575   2.602   5.759 -0.7829  0.0366 -0.5620
   35CHL1  H11A 3731   2.677   2.636   5.786 -1.6950  2.6757 -0.0541
   35CHL1  H11B 3732   2.518   2.696   5.779 -0.0840 -0.1473  2.9951
   35CHL1    C9 3733   2.536   2.474   5.841 -0.4769 -0.2264 -0.0391
   35CHL1    H9 3734   2.440   2.444   5.794  0.3303 -1.6324 -0.8538
   35CHL1   C10 3735   2.508   2.502   5.992  0.0124 -0.0350 -0.5827
   35CHL1   C19 3736   2.633   2.574   6.057  0.2882  0.1464  0.0775
   35CHL1  H19A 3737   2.730   2.522   6.037  0.0685 -0.9647  1.6465
   35CHL1  H19B 3738   2.656   2.673   6.013  1.0651  0.3424  0.8856
   35CHL1  H19C 3739   2.612   2.582   6.166  0.0039 -1.0711  0.1283
   35CHL1    C1 3740   2.382   2.597   5.996  0.7635  0.0647 -0.0913
   35CHL1   H1A 3741   2.418   2.698   5.967 -1.5131  0.8182 -0.4879
   35CHL1   H1B 3742   2.308   2.560   5.921 -2.4066  0.6125  2.5374
   35CHL1    C2 3743   2.316   2.607   6.132 -0.0361  0.3283 -0.5221
   35CHL1   H2A 3744   2.223   2.668   6.132  0.1247  0.5801  0.1304
   35CHL1   H2B 3745   2.395   2.667   6.182  0.4408  0.0571 -0.9326
   35CHL1   C20 3746   2.724   2.470   5.303 -0.5823 -0.1559 -1.0718
   35CHL1   H20 3747   2.826   2.507   5.328 -0.6929 -1.1416  1.1048
   35CHL1   C21 3748   2.629   2.583   5.255  0.2536 -0.3242 -0.1274
   35CHL1  H21A 3749   2.534   2.536   5.220 -1.2440  2.0017  0.5668
   35CHL1  H21B 3750   2.671   2.634   5.166 -1.8067  1.4456 -0.1599
   35CHL1  H21C 3751   2.598   2.662   5.327 -1.6697  0.9879 -2.2446
   35CHL1   C22 3752   2.755   2.381   5.181 -0.3856 -0.7391  0.1733
   35CHL1  H22A 3753   2.823   2.297   5.209  0.9651  0.0675 -0.5535
   35CHL1  H22B 3754   2.663   2.338   5.138  0.0807 -1.4539 -0.1358
   35CHL1   C23 3755   2.826   2.455   5.064 -0.5181 -0.1550  0.4473
   35CHL1  H23A 3756   2.762   2.531   5.013  1.1953  0.5854 -0.6691
   35CHL1  H23B 3757   2.926   2.498   5.084  0.5438 -1.6926 -1.2573
   35CHL1   C24 3758   2.855   2.353   4.951  0.0614 -0.1267 -0.0044
   35CHL1  H24A 3759   2.931   2.282   4.992 -0.2847  0.0053  0.8799
   35CHL1  H24B 3760   2.760   2.297   4.941  0.2140 -0.1241 -1.8474
   35CHL1   C25 3761   2.887   2.409   4.810 -0.1266 -0.0173 -0.2108
   35CHL1   H25 3762   2.986   2.459   4.799  0.3103 -0.8584 -0.1598
   35CHL1   C26 3763   2.894   2.284   4.726 -0.1990  0.5325 -0.7923
   35CHL1  H26A 3764   2.807   2.216   4.742 -0.7859  1.0595 -1.6853
   35CHL1  H26B 3765   2.886   2.304   4.617  0.7256 -0.9677 -1.1607
   35CHL1  H26C 3766   2.986   2.226   4.748 -0.6905  0.1324  0.3185
   35CHL1   C27 3767   2.777   2.510   4.756  0.6348  0.5390  0.5850
   35CHL1  H27A 3768   2.810   2.556   4.661  1.3750 -0.5195  0.3125
   35CHL1  H27B 3769   2.685   2.449   4.738  1.1098 -0.8652  2.5639
   35CHL1  H27C 3770   2.768   2.596   4.826 -0.5834 -0.3220  1.5627
   36CHL1    C3 3771   6.023   2.780   6.477 -0.1940  0.0392 -0.4632
   36CHL1    H3 3772   5.926   2.763   6.529 -2.0256 -0.0366 -3.6140
   36CHL1    O3 3773   6.121   2.801   6.573 -0.3647  0.8012  0.3922
   36CHL1   H3' 3774   6.095   2.747   6.647 -2.6865  3.6688  1.8850
   36CHL1    C4 3775   6.058   2.654   6.392 -0.1041  0.2130 -0.1767
   36CHL1   H4A 3776   6.166   2.659   6.363 -0.0022 -1.5508 -0.1719
   36CHL1   H4B 3777   6.074   2.567   6.459  2.5586  0.9410  0.2794
   36CHL1    C5 3778   5.977   2.628   6.267  1.1602  0.0875  0.4825
   36CHL1    C6 3779   5.912   2.509   6.235 -0.3102  0.5622  1.1852
   36CHL1    H6 3780   5.929   2.417   6.292  1.4671  0.2506  0.2037
   36CHL1    C7 3781   5.843   2.484   6.098 -0.0418  0.3415 -0.7079
   36CHL1   H7A 3782   5.877   2.387   6.056 -0.4900 -0.8294  1.4887
   36CHL1   H7B 3783   5.733   2.480   6.115  0.0277  0.4733 -0.2192
   36CHL1    C8 3784   5.870   2.602   5.996  0.3068  0.5757  0.2632
   36CHL1    H8 3785   5.976   2.604   5.963 -0.9092  0.2116 -4.3515
   36CHL1   C14 3786   5.783   2.587   5.874  0.1044  0.2113  0.6273
   36CHL1   H14 3787   5.679   2.589   5.912  0.1853  0.8546  0.8226
   36CHL1   C15 3788   5.787   2.459   5.798  0.4083  0.0976 -0.1683
   36CHL1  H15A 3789   5.890   2.419   5.781  1.0306  1.6362 -0.1300
   36CHL1  H15B 3790   5.741   2.376   5.856 -0.5327  1.7345  1.5173
   36CHL1   C16 3791   5.708   2.501   5.663  0.0149  0.4382 -0.8422
   36CHL1  H16A 3792   5.776   2.474   5.579  1.9122  0.3324  0.6460
   36CHL1  H16B 3793   5.604   2.462   5.662 -0.0042  0.2384  1.5661
   36CHL1   C17 3794   5.679   2.654   5.667 -0.2507 -0.8786 -0.5136
   36CHL1   H17 3795   5.582   2.667   5.720 -0.1566 -2.2200  0.0210
   36CHL1   C13 3796   5.788   2.700   5.764  0.0532  0.2730 -0.5804
   36CHL1   C18 3797   5.926   2.706   5.704  0.3839  0.7946  0.3671
   36CHL1  H18A 3798   6.012   2.701   5.774  3.0341  1.0636 -2.6552
   36CHL1  H18B 3799   5.952   2.617   5.642  1.0533  1.1602  0.1079
   36CHL1  H18C 3800   5.928   2.796   5.639  0.1333  0.2493 -0.4097
   36CHL1   C12 3801   5.759   2.826   5.840 -0.1267  0.3534 -0.0688
   36CHL1  H12A 3802   5.759   2.915   5.774 -0.1947  0.0181 -0.5255
   36CHL1  H12B 3803   5.661   2.818   5.892  0.0434 -1.3201  0.0654
   36CHL1   C11 3804   5.852   2.850   5.958 -0.0902 -0.0763  0.3245
   36CHL1  H11A 3805   5.957   2.851   5.921 -0.3266  1.2583 -0.3953
   36CHL1  H11B 3806   5.835   2.947   6.009 -0.6074 -0.9709  1.9359
   36CHL1    C9 3807   5.858   2.739   6.069  0.5369 -0.0790  1.3757
   36CHL1    H9 3808   5.759   2.746   6.118 -0.7728  0.7418 -1.1705
   36CHL1   C10 3809   5.959   2.755   6.182 -0.5242 -0.6349  0.0481
   36CHL1   C19 3810   6.101   2.791   6.136  0.8114 -0.5831  0.2013
   36CHL1  H19A 3811   6.173   2.818   6.216 -1.1133  0.9186  1.5097
   36CHL1  H19B 3812   6.145   2.704   6.083  3.2402  0.7333 -0.0945
   36CHL1  H19C 3813   6.096   2.885   6.077  2.2383  3.3544  5.6015
   36CHL1    C1 3814   5.911   2.874   6.267  0.3370 -0.1528  0.0046
   36CHL1   H1A 3815   5.896   2.967   6.208 -1.9571 -0.7989 -0.5345
   36CHL1   H1B 3816   5.811   2.843   6.306 -0.4068 -1.4515 -2.6885
   36CHL1    C2 3817   6.005   2.902   6.392  0.0234 -0.8632  0.0065
   36CHL1   H2A 3818   5.963   2.989   6.447  1.4155  0.2778 -0.6668
   36CHL1   H2B 3819   6.104   2.940   6.359 -0.7084  1.3993  0.2292
   36CHL1   C20 3820   5.668   2.723   5.526 -0.9655  0.4157 -0.3037
   36CHL1   H20 3821   5.769   2.719   5.479 -0.8933  4.5360 -0.8513
   36CHL1   C21 3822   5.639   2.874   5.539 -0.1057  0.0397 -0.4647
   36CHL1  H21A 3823   5.731   2.929   5.567  0.6352 -0.8091 -1.1615
   36CHL1  H21B 3824   5.562   2.897   5.616 -1.4132 -2.3436 -0.9715
   36CHL1  H21C 3825   5.606   2.914   5.442  1.4683  0.1209 -0.9921
   36CHL1   C22 3826   5.566   2.661   5.435  0.0764  0.1751  0.3510
   36CHL1  H22A 3827   5.577   2.551   5.437  2.5594  0.3011 -1.2625
   36CHL1  H22B 3828   5.461   2.693   5.456  0.2200  0.0345  1.3198
   36CHL1   C23 3829   5.591   2.694   5.285  0.6593  0.3016  0.1156
   36CHL1  H23A 3830   5.573   2.800   5.259  3.2265  0.1821 -2.6782
   36CHL1  H23B 3831   5.699   2.677   5.264  0.6625 -1.5878  1.3656
   36CHL1   C24 3832   5.501   2.603   5.196 -0.4459  0.5916 -0.0380
   36CHL1  H24A 3833   5.539   2.499   5.211 -2.9275 -0.5513 -1.0735
   36CHL1  H24B 3834   5.393   2.606   5.219 -0.6495  1.6517 -1.0483
   36CHL1   C25 3835   5.520   2.641   5.048  0.3178  0.0451  0.3673
   36CHL1   H25 3836   5.478   2.744   5.041 -0.2318  0.0584  3.1021
   36CHL1   C26 3837   5.672   2.625   5.005  0.2524 -0.1575  0.3025
   36CHL1  H26A 3838   5.716   2.526   5.028 -0.7881 -0.4505  1.1167
   36CHL1  H26B 3839   5.679   2.665   4.901  1.4216 -0.0392  0.4162
   36CHL1  H26C 3840   5.739   2.691   5.064 -0.4294  0.0490  0.8543
   36CHL1   C27 3841   5.441   2.546   4.953 -0.3656 -0.1978 -0.1091
   36CHL1  H27A 3842   5.428   2.442   4.989 -3.0985  0.7843  2.1271
   36CHL1  H27B 3843   5.342   2.594   4.939 -0.4082 -0.6839 -1.5419
   36CHL1  H27C 3844   5.495   2.547   4.856 -1.5932  2.4713 -0.8727
   37CHL1    C3 3845   6.738   5.119   6.111  0.0947  0.0016  0.5277
   37CHL1    H3 3846   6.809   5.038   6.084 -2.1102 -1.4460 -1.3342
   37CHL1    O3 3847   6.710   5.126   6.251 -0.2371  0.4822  0.4295
   37CHL1   H3' 3848   6.793   5.145   6.294 -0.3298  0.4792  0.6077
   37CHL1    C4 3849   6.801   5.259   6.077 -0.3427 -0.1036 -0.1709
   37CHL1   H4A 3850   6.725   5.333   6.110 -0.5344  0.2235 -1.2921
   37CHL1   H4B 3851   6.885   5.293   6.142 -0.0724  0.7239 -0.9353
   37CHL1    C5 3852   6.829   5.274   5.924 -0.1915  0.1589  0.0913
   37CHL1    C6 3853   6.955   5.307   5.878  0.3371 -0.0128  1.2555
   37CHL1    H6 3854   7.040   5.321   5.946  2.5593 -0.8977 -1.1758
   37CHL1    C7 3855   6.983   5.314   5.729 -0.2334 -0.2875  0.2120
   37CHL1   H7A 3856   7.031   5.413   5.711  0.4392  0.0161  3.1060
   37CHL1   H7B 3857   7.052   5.234   5.692  0.3609  0.3610 -0.1007
   37CHL1    C8 3858   6.858   5.324   5.644  0.3399 -0.1578  0.6147
   37CHL1    H8 3859   6.810   5.424   5.645  0.2987 -0.1790  0.7879
   37CHL1   C14 3860   6.901   5.305   5.498  0.8387  0.1277 -0.6723
   37CHL1   H14 3861   6.957   5.209   5.503 -1.0874 -1.0174 -0.1942
   37CHL1   C15 3862   6.997   5.405   5.439 -0.0820  0.6687  0.2958
   37CHL1  H15A 3863   6.972   5.512   5.455  1.3387  0.8135  1.8092
   37CHL1  H15B 3864   7.102   5.398   5.473  0.1061  0.1811 -0.3636
   37CHL1   C16 3865   6.995   5.368   5.298 -0.2278  0.7726  1.2707
   37CHL1  H16A 3866   6.979   5.455   5.230 -0.1818 -0.7389 -0.7810
   37CHL1  H16B 3867   7.087   5.318   5.262 -0.7845 -0.1203  1.0534
   37CHL1   C17 3868   6.870   5.269   5.268  0.1533 -0.4998  0.0751
   37CHL1   H17 3869   6.920   5.170   5.281  2.4018  0.2745 -1.9643
   37CHL1   C13 3870   6.786   5.290   5.394 -0.3302  0.1450  0.1730
   37CHL1   C18 3871   6.714   5.423   5.385  0.4645 -0.5267 -0.3647
   37CHL1  H18A 3872   6.632   5.412   5.311  0.8180 -0.5273 -0.7617
   37CHL1  H18B 3873   6.656   5.458   5.473 -1.5937 -0.7888 -1.5469
   37CHL1  H18C 3874   6.782   5.503   5.350  2.2060 -0.9223  1.8777
   37CHL1   C12 3875   6.702   5.173   5.436 -0.5209  0.1779 -0.2015
   37CHL1  H12A 3876   6.610   5.157   5.377 -3.7345  1.4595  3.9890
   37CHL1  H12B 3877   6.756   5.076   5.435  0.0278  0.4222  1.7547
   37CHL1   C11 3878   6.647   5.179   5.575  0.4143 -0.6354 -0.0329
   37CHL1  H11A 3879   6.572   5.261   5.581  2.6388  1.5557 -0.5455
   37CHL1  H11B 3880   6.582   5.091   5.596 -1.1050  0.3023 -0.6118
   37CHL1    C9 3881   6.757   5.215   5.682 -0.7796 -0.3255 -1.0515
   37CHL1    H9 3882   6.816   5.121   5.674  1.8836  0.9758  1.5146
   37CHL1   C10 3883   6.705   5.239   5.829 -0.2653  0.2064  0.2298
   37CHL1   C19 3884   6.612   5.361   5.832  0.4112 -0.4643  0.3877
   37CHL1  H19A 3885   6.521   5.347   5.771  0.4573 -0.5282  0.3321
   37CHL1  H19B 3886   6.570   5.373   5.934 -2.3136 -2.0661 -0.4417
   37CHL1  H19C 3887   6.654   5.457   5.794 -1.7124  0.1579 -0.5487
   37CHL1    C1 3888   6.634   5.112   5.883  0.1140  0.2870  0.0152
   37CHL1   H1A 3889   6.539   5.099   5.828 -1.1330 -0.1475  2.1907
   37CHL1   H1B 3890   6.707   5.032   5.855 -0.6531 -0.7274  0.8497
   37CHL1    C2 3891   6.611   5.101   6.034  0.1050 -0.4061  0.0327
   37CHL1   H2A 3892   6.561   5.003   6.054 -2.2987 -0.2205 -3.8282
   37CHL1   H2B 3893   6.549   5.177   6.086  0.4336 -0.6892  0.8525
   37CHL1   C20 3894   6.819   5.278   5.122 -0.5899 -0.5285 -0.3693
   37CHL1   H20 3895   6.768   5.377   5.120  0.3265  0.2327  3.7941
   37CHL1   C21 3896   6.714   5.174   5.101 -0.6595 -1.1034  0.3084
   37CHL1  H21A 3897   6.621   5.203   5.154  0.0052  0.5388  0.6377
   37CHL1  H21B 3898   6.747   5.074   5.137  0.0522  0.0724  3.2178
   37CHL1  H21C 3899   6.691   5.167   4.992  0.2171  1.4961 -0.1209
   37CHL1   C22 3900   6.928   5.279   5.009  0.3734 -0.3856  0.3644
   37CHL1  H22A 3901   7.016   5.344   5.025 -1.0141  1.4711  0.8308
   37CHL1  H22B 3902   6.964   5.174   4.994  1.9721  0.4535 -2.5187
   37CHL1   C23 3903   6.870   5.314   4.872  0.5521  0.0652  0.1451
   37CHL1  H23A 3904   6.844   5.221   4.816 -0.7705  1.2617 -1.3229
   37CHL1  H23B 3905   6.781   5.379   4.883  0.0851 -0.3640 -0.9208
   37CHL1   C24 3906   6.977   5.378   4.772  0.0385 -0.0182 -0.6104
   37CHL1  H24A 3907   6.992   5.481   4.809 -0.4204  1.0860 -3.2853
   37CHL1  H24B 3908   7.073   5.327   4.791  0.9419  1.0867 -2.0322
   37CHL1   C25 3909   6.927   5.390   4.628 -0.2999  0.0354 -0.1108
   37CHL1   H25 3910   6.903   5.285   4.600 -0.2114  0.0773 -0.3454
   37CHL1   C26 3911   6.808   5.484   4.621 -0.2404 -0.0511 -0.1596
   37CHL1  H26A 3912   6.726   5.446   4.685 -0.0460  2.5959  1.8220
   37CHL1  H26B 3913   6.839   5.584   4.657 -0.0845  0.2462 -1.1141
   37CHL1  H26C 3914   6.790   5.495   4.512  1.7519  0.7122 -0.4471
   37CHL1   C27 3915   7.034   5.452   4.534 -0.7134  0.3660  0.7988
   37CHL1  H27A 3916   7.121   5.384   4.527 -0.9306 -0.2346  3.1957
   37CHL1  H27B 3917   6.984   5.457   4.434 -2.5715 -0.0507  1.6639
   37CHL1  H27C 3918   7.052   5.558   4.563 -0.9038  0.0022  2.3082
   38CHL1    C3 3919   0.894   5.891   5.928 -0.7354  0.0437 -0.1956
   38CHL1    H3 3920   0.998   5.870   5.897 -0.1912  0.6243  1.1496
   38CHL1    O3 3921   0.890   5.855   6.068 -0.4092 -0.8236  0.2424
   38CHL1   H3' 3922   0.807   5.896   6.096 -0.8427 -1.2080 -0.4556
   38CHL1    C4 3923   0.865   6.037   5.911  0.0895  0.7901 -0.1254
   38CHL1   H4A 3924   0.762   6.039   5.953 -0.2643 -0.3825 -0.8848
   38CHL1   H4B 3925   0.926   6.105   5.975 -0.5415  2.1826 -0.9625
   38CHL1    C5 3926   0.855   6.073   5.765 -0.7668  0.0683  0.5160
   38CHL1    C6 3927   0.919   6.182   5.713  0.3284  0.9709  0.0913
   38CHL1    H6 3928   0.980   6.238   5.786  0.6889 -0.8984  1.2888
   38CHL1    C7 3929   0.923   6.232   5.570  1.2691 -0.0102 -0.0218
   38CHL1   H7A 3930   0.907   6.342   5.565  0.7528 -0.1383 -2.2965
   38CHL1   H7B 3931   1.021   6.199   5.529  2.6182  2.9104  0.6005
   38CHL1    C8 3932   0.813   6.159   5.495  0.0969  0.3753 -0.0857
   38CHL1    H8 3933   0.716   6.214   5.503 -0.4302 -0.4353 -0.7732
   38CHL1   C14 3934   0.848   6.167   5.345 -0.0148  0.7582  0.0659
   38CHL1   H14 3935   0.949   6.120   5.342 -0.3713  0.0029 -0.3600
   38CHL1   C15 3936   0.877   6.303   5.283 -0.1494  0.9416  0.2593
   38CHL1  H15A 3937   0.788   6.363   5.312 -2.6098 -1.6122 -1.3990
   38CHL1  H15B 3938   0.971   6.340   5.328 -0.3003 -0.8783  2.1973
   38CHL1   C16 3939   0.876   6.283   5.129  0.3771 -0.5887  0.3548
   38CHL1  H16A 3940   0.809   6.362   5.088  0.0463 -1.7611 -1.4916
   38CHL1  H16B 3941   0.982   6.307   5.103  0.9068 -1.6938  1.3813
   38CHL1   C17 3942   0.825   6.138   5.112  0.3379  0.6257  0.9037
   38CHL1   H17 3943   0.921   6.083   5.106 -0.1937 -0.1800 -1.1099
   38CHL1   C13 3944   0.759   6.099   5.246  0.4124 -0.0683  0.0544
   38CHL1   C18 3945   0.628   6.164   5.247 -0.5436 -0.3481  0.5224
   38CHL1  H18A 3946   0.630   6.271   5.214 -1.6136 -0.8826 -1.4364
   38CHL1  H18B 3947   0.569   6.099   5.178  1.2315 -1.5259  0.0695
   38CHL1  H18C 3948   0.582   6.163   5.349  2.2096  1.1577  1.8781
   38CHL1   C12 3949   0.755   5.952   5.282 -0.0132  0.3096  0.6307
   38CHL1  H12A 3950   0.673   5.905   5.224  1.2850 -1.4074  0.1172
   38CHL1  H12B 3951   0.850   5.900   5.256  0.1629  0.5862  0.7115
   38CHL1   C11 3952   0.719   5.930   5.430 -0.5068  0.5532 -0.2747
   38CHL1  H11A 3953   0.614   5.966   5.441 -1.4100 -2.0572  0.3790
   38CHL1  H11B 3954   0.720   5.820   5.447 -1.6837  0.8430  2.1953
   38CHL1    C9 3955   0.804   6.003   5.531 -0.3937 -0.0018 -0.3079
   38CHL1    H9 3956   0.908   5.966   5.518 -0.0443  1.0187 -0.5014
   38CHL1   C10 3957   0.776   5.977   5.679 -0.2524 -0.0646  0.3170
   38CHL1   C19 3958   0.623   6.011   5.694  0.1866 -0.7307  0.8146
   38CHL1  H19A 3959   0.567   5.935   5.636 -0.2502  0.7543 -0.7790
   38CHL1  H19B 3960   0.584   6.007   5.798 -1.7267  2.6734  0.3531
   38CHL1  H19C 3961   0.590   6.104   5.644 -3.5053 -1.3644  1.7230
   38CHL1    C1 3962   0.797   5.824   5.701  0.4149 -0.6381 -0.4027
   38CHL1   H1A 3963   0.717   5.764   5.650  3.0319 -4.8246 -0.0656
   38CHL1   H1B 3964   0.895   5.791   5.660  0.8169 -0.7017  0.5953
   38CHL1    C2 3965   0.800   5.802   5.852 -0.1002  0.4709 -0.1995
   38CHL1   H2A 3966   0.833   5.698   5.874 -0.1573  0.7891  1.4631
   38CHL1   H2B 3967   0.697   5.808   5.892  0.3268 -0.7486  1.1681
   38CHL1   C20 3968   0.758   6.117   4.977  0.4952  0.3888  0.1202
   38CHL1   H20 3969   0.663   6.172   4.991  1.3220  2.2577 -1.1194
   38CHL1   C21 3970   0.746   5.965   4.954 -0.3802 -0.0144 -0.0324
   38CHL1  H21A 3971   0.694   5.947   4.858 -0.5848  2.5484 -0.4728
   38CHL1  H21B 3972   0.676   5.916   5.024 -1.2724  0.5683 -0.5030
   38CHL1  H21C 3973   0.842   5.910   4.965 -0.4372 -0.2968 -0.8644
   38CHL1   C22 3974   0.828   6.184   4.856  0.0365 -0.8661  0.3277
   38CHL1  H22A 3975   0.841   6.288   4.893  1.4672 -1.8746  2.9762
   38CHL1  H22B 3976   0.927   6.134   4.855 -0.6909 -2.3591 -0.2951
   38CHL1   C23 3977   0.757   6.186   4.718 -0.8284  0.2802 -0.1994
   38CHL1  H23A 3978   0.755   6.078   4.693 -1.6913 -0.1943  1.7316
   38CHL1  H23B 3979   0.655   6.226   4.735 -0.6807  0.8249 -0.5625
   38CHL1   C24 3980   0.832   6.276   4.617 -0.0879  0.1333 -0.0797
   38CHL1  H24A 3981   0.831   6.381   4.653 -0.8622  0.9828 -2.3734
   38CHL1  H24B 3982   0.933   6.236   4.593  0.4852  0.7523  1.2163
   38CHL1   C25 3983   0.750   6.270   4.491 -0.6291  0.0902 -0.1620
   38CHL1   H25 3984   0.650   6.308   4.520 -0.7313 -0.0414 -0.3363
   38CHL1   C26 3985   0.804   6.360   4.384 -0.1983 -0.2597  0.8885
   38CHL1  H26A 3986   0.735   6.348   4.297  1.1163 -2.2330  0.0494
   38CHL1  H26B 3987   0.807   6.464   4.422 -1.6697 -0.4625  1.6099
   38CHL1  H26C 3988   0.904   6.322   4.354  0.3700  1.0105  1.1436
   38CHL1   C27 3989   0.723   6.132   4.430 -0.7968  0.2201 -0.1241
   38CHL1  H27A 3990   0.683   6.146   4.326  0.2956  0.7398 -0.4831
   38CHL1  H27B 3991   0.820   6.085   4.406 -0.0580  1.0833  1.0988
   38CHL1  H27C 3992   0.669   6.071   4.505  0.9535 -0.4755  0.6129
   39CHL1    C3 3993   1.965   6.439   6.022  0.3060  0.4831 -0.0477
   39CHL1    H3 3994   2.041   6.360   6.005  0.8385  0.4047  2.3526
   39CHL1    O3 3995   1.946   6.452   6.165 -0.1295  0.2626 -0.1287
   39CHL1   H3' 3996   1.853   6.464   6.183 -0.2830  2.6305 -1.9762
   39CHL1    C4 3997   2.023   6.567   5.963 -0.0062  1.1753 -0.1968
   39CHL1   H4A 3998   1.944   6.637   5.996 -2.8110 -1.6442 -0.4153
   39CHL1   H4B 3999   2.116   6.593   6.018  0.1710 -2.1434  1.3126
   39CHL1    C5 4000   2.026   6.556   5.812 -0.3801  0.4605  0.8719
   39CHL1    C6 4001   2.144   6.576   5.747 -0.3977  0.0660  0.7938
   39CHL1    H6 4002   2.235   6.606   5.802  0.0532  1.0766 -0.4767
   39CHL1    C7 4003   2.164   6.570   5.599  0.5664 -0.3311 -0.1680
   39CHL1   H7A 4004   2.228   6.650   5.557  0.0041  0.2714  0.1128
   39CHL1   H7B 4005   2.212   6.471   5.586 -0.0335 -0.5216 -1.0341
   39CHL1    C8 4006   2.030   6.577   5.521 -0.0275 -0.3022  1.0306
   39CHL1    H8 4007   1.982   6.677   5.526  1.4148  0.4489  0.4402
   39CHL1   C14 4008   2.054   6.536   5.375 -0.7209  0.2192 -0.0428
   39CHL1   H14 4009   2.084   6.429   5.382  1.0085  0.7177  0.6760
   39CHL1   C15 4010   2.162   6.607   5.294  0.2028 -0.1222 -0.3911
   39CHL1  H15A 4011   2.163   6.719   5.297  3.6487 -0.0113 -1.4656
   39CHL1  H15B 4012   2.263   6.576   5.329  0.6035  2.0561  0.5634
   39CHL1   C16 4013   2.145   6.565   5.151  0.4005  0.1125 -0.2281
   39CHL1  H16A 4014   2.159   6.651   5.082  0.5712  1.9312  1.9870
   39CHL1  H16B 4015   2.212   6.476   5.141 -0.5470 -0.6354 -0.0711
   39CHL1   C17 4016   1.997   6.510   5.139  0.6767  0.1342  0.8875
   39CHL1   H17 4017   2.009   6.399   5.141  0.7539  0.1535  1.9246
   39CHL1   C13 4018   1.932   6.537   5.278 -0.6499 -0.1074 -0.7985
   39CHL1   C18 4019   1.871   6.679   5.272 -0.0902  0.0221 -0.1285
   39CHL1  H18A 4020   1.853   6.726   5.372  1.4621 -1.8447  1.1008
   39CHL1  H18B 4021   1.938   6.749   5.219  0.8610 -2.2445 -2.1009
   39CHL1  H18C 4022   1.774   6.679   5.219 -1.1744 -1.1757  1.7321
   39CHL1   C12 4023   1.839   6.433   5.346 -0.8419 -0.4922  0.0753
   39CHL1  H12A 4024   1.749   6.431   5.281 -1.2906  0.8723  0.6323
   39CHL1  H12B 4025   1.895   6.337   5.349  0.2210  0.1334  1.6978
   39CHL1   C11 4026   1.803   6.457   5.496 -0.3014 -0.1248 -0.5619
   39CHL1  H11A 4027   1.740   6.548   5.499 -0.4984 -0.2368 -1.2108
   39CHL1  H11B 4028   1.743   6.366   5.519  1.3221 -0.9831  0.5313
   39CHL1    C9 4029   1.928   6.478   5.588  0.2491  0.9640 -0.2587
   39CHL1    H9 4030   1.981   6.380   5.595  0.2027  1.0549  2.5102
   39CHL1   C10 4031   1.898   6.512   5.730 -0.3435  0.6563 -0.5518
   39CHL1   C19 4032   1.800   6.636   5.742 -0.4785  0.0634 -0.0623
   39CHL1  H19A 4033   1.702   6.618   5.693 -0.1321 -1.1215 -0.3511
   39CHL1  H19B 4034   1.780   6.677   5.844 -0.7272  3.2792 -1.2990
   39CHL1  H19C 4035   1.852   6.722   5.695 -1.2410  1.9819  2.3879
   39CHL1    C1 4036   1.830   6.395   5.803  0.0285  0.2141 -0.0067
   39CHL1   H1A 4037   1.725   6.388   5.766  0.0294  1.8410 -0.4177
   39CHL1   H1B 4038   1.886   6.301   5.787  1.2897  1.1355 -1.3222
   39CHL1    C2 4039   1.822   6.409   5.964  0.1298  0.6056  0.2218
   39CHL1   H2A 4040   1.790   6.310   6.003 -3.7956  0.9767 -1.6517
   39CHL1   H2B 4041   1.744   6.484   5.988  2.3316  4.0268 -2.3123
   39CHL1   C20 4042   1.935   6.548   4.993 -0.9435 -0.5791  0.3169
   39CHL1   H20 4043   1.917   6.658   4.990 -0.4755 -0.5213 -2.1696
   39CHL1   C21 4044   1.800   6.474   4.981 -0.0589 -0.5103  0.4928
   39CHL1  H21A 4045   1.736   6.501   5.068  0.3904  1.4412  0.2749
   39CHL1  H21B 4046   1.830   6.367   4.980  0.0402 -0.5180  1.8629
   39CHL1  H21C 4047   1.749   6.492   4.884 -0.3010  0.2387  0.7497
   39CHL1   C22 4048   2.031   6.512   4.877  0.0710  0.1003  1.0769
   39CHL1  H22A 4049   2.130   6.562   4.873  0.2024 -0.2127 -2.6999
   39CHL1  H22B 4050   2.044   6.402   4.885 -2.5818 -0.3877 -0.3397
   39CHL1   C23 4051   1.971   6.545   4.736  0.6396  0.5813  0.2498
   39CHL1  H23A 4052   1.918   6.451   4.708  1.8391 -0.0858  0.1198
   39CHL1  H23B 4053   1.899   6.629   4.727  1.7851  1.5741  0.0571
   39CHL1   C24 4054   2.080   6.570   4.632 -0.7188 -1.2769 -0.7248
   39CHL1  H24A 4055   2.117   6.675   4.631 -1.4817 -0.9394  1.7486
   39CHL1  H24B 4056   2.166   6.507   4.664  1.2476  1.7270  0.3514
   39CHL1   C25 4057   2.057   6.542   4.476 -0.0593  0.6512  0.0531
   39CHL1   H25 4058   2.011   6.441   4.468 -0.7935  1.0645 -1.3010
   39CHL1   C26 4059   1.959   6.639   4.420  0.1664  0.8386 -0.4440
   39CHL1  H26A 4060   2.003   6.741   4.420 -1.1491  1.4450 -1.8485
   39CHL1  H26B 4061   1.929   6.616   4.316 -1.4164 -1.0793  0.3801
   39CHL1  H26C 4062   1.870   6.644   4.487  0.0961  2.8727 -0.6126
   39CHL1   C27 4063   2.185   6.550   4.402 -0.9233  0.6013 -0.1594
   39CHL1  H27A 4064   2.243   6.455   4.410  1.3893  1.6597 -2.6750
   39CHL1  H27B 4065   2.178   6.560   4.291  0.5310  2.2149 -0.1551
   39CHL1  H27C 4066   2.255   6.627   4.441 -0.5357  0.4523 -0.5462
   40CHL1    C3 4067   2.212   1.382   5.906 -0.3744 -0.1800  0.6187
   40CHL1    H3 4068   2.322   1.363   5.907 -0.5591 -1.2612  1.7981
   40CHL1    O3 4069   2.167   1.401   6.039  0.4002  0.3466 -0.7726
   40CHL1   H3' 4070   2.189   1.322   6.089  0.4128  0.0912 -1.1805
   40CHL1    C4 4071   2.201   1.519   5.824  0.1019 -0.2830  0.5396
   40CHL1   H4A 4072   2.095   1.547   5.836  0.0718 -0.6403  1.1450
   40CHL1   H4B 4073   2.267   1.589   5.879 -2.4286 -0.0311  3.4939
   40CHL1    C5 4074   2.235   1.502   5.674 -0.1431  1.1526 -0.0681
   40CHL1    C6 4075   2.334   1.574   5.614  0.5672  0.0027  0.2255
   40CHL1    H6 4076   2.388   1.654   5.666  0.9275  0.9615 -1.5482
   40CHL1    C7 4077   2.357   1.561   5.469  0.4322 -0.1971 -0.3605
   40CHL1   H7A 4078   2.360   1.662   5.422  0.5115 -0.4924 -1.0114
   40CHL1   H7B 4079   2.457   1.516   5.452  0.1395 -0.6744 -0.8321
   40CHL1    C8 4080   2.243   1.483   5.385 -0.2997  0.1199  0.4316
   40CHL1    H8 4081   2.159   1.556   5.383 -0.0251  0.4326  0.1295
   40CHL1   C14 4082   2.290   1.459   5.244 -0.2812  0.5136 -0.1380
   40CHL1   H14 4083   2.373   1.385   5.232 -1.9843 -1.3526 -1.0516
   40CHL1   C15 4084   2.330   1.578   5.152 -0.3323 -0.1383 -0.5836
   40CHL1  H15A 4085   2.254   1.659   5.156  0.5896  0.7227 -0.4340
   40CHL1  H15B 4086   2.427   1.622   5.184 -0.7248  0.7252 -0.5494
   40CHL1   C16 4087   2.329   1.517   5.014  0.4047 -0.1689  0.0885
   40CHL1  H16A 4088   2.258   1.578   4.953  0.2131 -0.9710 -0.5009
   40CHL1  H16B 4089   2.420   1.514   4.950 -0.1198  1.3924 -0.7909
   40CHL1   C17 4090   2.261   1.376   5.025  0.0060  0.5530 -0.5361
   40CHL1   H17 4091   2.340   1.299   5.042 -2.0138 -1.8813 -1.5296
   40CHL1   C13 4092   2.189   1.372   5.161  0.7525  0.3519  0.0053
   40CHL1   C18 4093   2.062   1.449   5.152 -0.7219  1.6836  0.1395
   40CHL1  H18A 4094   2.080   1.552   5.117  1.4982  1.3626  0.1738
   40CHL1  H18B 4095   1.995   1.402   5.077 -1.4007 -1.0281  2.2486
   40CHL1  H18C 4096   1.996   1.443   5.241  0.7786  0.5705  1.2428
   40CHL1   C12 4097   2.171   1.236   5.233 -0.4924  0.4163 -0.0300
   40CHL1  H12A 4098   2.094   1.165   5.196  1.4794 -1.6784 -0.3703
   40CHL1  H12B 4099   2.266   1.178   5.233 -1.0735 -0.7093  2.7584
   40CHL1   C11 4100   2.124   1.259   5.379 -0.1729  0.1620 -0.1030
   40CHL1  H11A 4101   2.017   1.290   5.374 -0.2783 -0.1552  0.1633
   40CHL1  H11B 4102   2.130   1.160   5.428 -1.5764  0.6923  1.2325
   40CHL1    C9 4103   2.204   1.356   5.461 -0.0385  0.0210  0.3482
   40CHL1    H9 4104   2.303   1.307   5.462 -0.9212 -1.8895 -0.4443
   40CHL1   C10 4105   2.158   1.384   5.605  0.0293 -0.0196 -0.0378
   40CHL1   C19 4106   2.014   1.441   5.594 -0.2356 -0.3088  0.0639
   40CHL1  H19A 4107   1.954   1.360   5.546  0.6794 -0.2412 -1.2453
   40CHL1  H19B 4108   1.970   1.474   5.691 -1.2901 -1.8126  0.1508
   40CHL1  H19C 4109   2.005   1.524   5.521  2.5110  0.5108  0.5492
   40CHL1    C1 4110   2.164   1.253   5.692 -0.3370 -0.6480  0.6140
   40CHL1   H1A 4111   2.089   1.178   5.659 -0.8603 -0.8818  2.2038
   40CHL1   H1B 4112   2.267   1.213   5.683 -1.3876 -3.5298  0.2414
   40CHL1    C2 4113   2.131   1.271   5.841 -0.6086 -0.0082  0.2036
   40CHL1   H2A 4114   2.146   1.181   5.904  1.9882 -0.5202 -1.0403
   40CHL1   H2B 4115   2.025   1.303   5.852 -0.6406 -0.1598  0.3396
   40CHL1   C20 4116   2.187   1.338   4.897 -0.8244  0.0981  0.9440
   40CHL1   H20 4117   2.111   1.416   4.873 -0.9229 -0.6144 -1.2254
   40CHL1   C21 4118   2.111   1.203   4.905 -0.3465 -0.0337 -0.4725
   40CHL1  H21A 4119   2.070   1.175   4.806 -2.9911 -2.6248  1.1921
   40CHL1  H21B 4120   2.027   1.198   4.977 -0.5481  0.0276 -0.7011
   40CHL1  H21C 4121   2.182   1.125   4.937  0.3552  1.0620  0.7584
   40CHL1   C22 4122   2.264   1.338   4.762 -0.1158 -0.0609  0.6177
   40CHL1  H22A 4123   2.187   1.355   4.683  0.2368  2.2683  0.7121
   40CHL1  H22B 4124   2.335   1.423   4.771 -0.5387  0.5666 -1.3937
   40CHL1   C23 4125   2.361   1.218   4.730  0.3410  0.0853  0.2246
   40CHL1  H23A 4126   2.446   1.229   4.800 -0.3146 -0.4121  1.1170
   40CHL1  H23B 4127   2.308   1.123   4.754 -0.8200  0.6669  0.0314
   40CHL1   C24 4128   2.420   1.240   4.586  0.2403  0.0283  0.3392
   40CHL1  H24A 4129   2.342   1.233   4.508  0.0763 -5.2670  0.5819
   40CHL1  H24B 4130   2.475   1.336   4.589 -1.6432  1.1228  2.0455
   40CHL1   C25 4131   2.538   1.139   4.552 -0.2638 -0.3629 -0.2614
   40CHL1   H25 4132   2.488   1.040   4.558  1.5851 -1.3154  0.1502
   40CHL1   C26 4133   2.588   1.158   4.409  0.4055 -0.5032  0.2462
   40CHL1  H26A 4134   2.513   1.116   4.340  0.0483  0.0892  0.2737
   40CHL1  H26B 4135   2.608   1.266   4.394  1.8219 -0.6100  1.1167
   40CHL1  H26C 4136   2.682   1.099   4.399  0.0811 -1.7114  3.2619
   40CHL1   C27 4137   2.657   1.161   4.646 -0.5307 -0.3203 -0.0768
   40CHL1  H27A 4138   2.702   1.262   4.635 -0.7705 -0.3643 -1.6428
   40CHL1  H27B 4139   2.624   1.150   4.752 -1.7318  0.2921 -0.3776
   40CHL1  H27C 4140   2.738   1.087   4.626 -0.7615 -0.7933  0.6680
   41CHL1    C3 4141   0.147   3.337   6.369 -0.3893 -1.1294  0.5357
   41CHL1    H3 4142   0.038   3.336   6.352 -0.9944  1.1988  3.4128
   41CHL1    O3 4143   0.183   3.282   6.497 -0.3171 -0.0239  0.1787
   41CHL1   H3' 4144   0.275   3.307   6.505 -0.2256  0.2841 -1.4575
   41CHL1    C4 4145   0.224   3.271   6.249  0.3995 -0.1024 -0.6692
   41CHL1   H4A 4146   0.334   3.284   6.258  0.2453  0.4847  0.5435
   41CHL1   H4B 4147   0.196   3.163   6.241 -0.7381 -0.0135  1.6099
   41CHL1    C5 4148   0.192   3.333   6.112 -0.4429  0.2074  0.3395
   41CHL1    C6 4149   0.150   3.258   6.006 -0.3676 -0.2106 -0.3028
   41CHL1    H6 4150   0.134   3.151   6.025 -0.4219 -0.4780 -1.7537
   41CHL1    C7 4151   0.135   3.314   5.869 -0.6797  0.4943  0.0202
   41CHL1   H7A 4152   0.180   3.236   5.804  1.3755  1.6830 -0.0995
   41CHL1   H7B 4153   0.026   3.325   5.851 -0.5252  0.7513 -0.8125
   41CHL1    C8 4154   0.202   3.455   5.849 -0.2933 -0.8605 -0.8776
   41CHL1    H8 4155   0.312   3.443   5.845 -0.2787 -1.4185  0.6124
   41CHL1   C14 4156   0.154   3.512   5.716  0.2302 -0.2944 -0.1292
   41CHL1   H14 4157   0.044   3.531   5.721  0.5201  1.3841  0.4264
   41CHL1   C15 4158   0.163   3.426   5.593  0.4780  0.0480 -0.0144
   41CHL1  H15A 4159   0.256   3.366   5.581 -0.7589 -1.8218 -0.6444
   41CHL1  H15B 4160   0.085   3.347   5.602  0.3689  0.2755  1.3271
   41CHL1   C16 4161   0.158   3.525   5.478 -0.4099 -0.3063 -0.6464
   41CHL1  H16A 4162   0.242   3.497   5.410  0.5735 -3.2030  1.5536
   41CHL1  H16B 4163   0.063   3.534   5.421  0.1120  2.4339 -1.2264
   41CHL1   C17 4164   0.167   3.671   5.540 -0.2125  0.4147 -0.6079
   41CHL1   H17 4165   0.062   3.705   5.546  0.3400  2.5290 -1.9637
   41CHL1   C13 4166   0.226   3.644   5.683 -0.1991 -0.1860  0.0759
   41CHL1   C18 4167   0.373   3.641   5.671 -0.6032  0.5864  0.5781
   41CHL1  H18A 4168   0.417   3.741   5.649  4.9333 -1.7326 -0.7945
   41CHL1  H18B 4169   0.417   3.612   5.769 -0.9126 -1.7810  0.0872
   41CHL1  H18C 4170   0.421   3.574   5.596  0.8299  1.9362  0.2361
   41CHL1   C12 4171   0.182   3.756   5.796  0.0504 -0.5708  0.3396
   41CHL1  H12A 4172   0.220   3.857   5.769 -1.4470 -0.7820 -3.1540
   41CHL1  H12B 4173   0.073   3.765   5.779  0.2872 -1.4620 -1.9809
   41CHL1   C11 4174   0.223   3.702   5.938 -0.3391 -0.3415  0.1337
   41CHL1  H11A 4175   0.334   3.711   5.945 -0.3156 -1.3613  1.3398
   41CHL1  H11B 4176   0.178   3.775   6.009  0.4349  0.6729 -0.3809
   41CHL1    C9 4177   0.178   3.554   5.973 -0.0486  0.6378  0.0562
   41CHL1    H9 4178   0.067   3.564   5.970 -0.1626  0.1176  1.8612
   41CHL1   C10 4179   0.218   3.488   6.112 -0.4170  0.0381  0.3752
   41CHL1   C19 4180   0.375   3.514   6.116  0.3927  0.6628  0.3831
   41CHL1  H19A 4181   0.426   3.479   6.023 -1.0572 -0.1686 -0.1370
   41CHL1  H19B 4182   0.396   3.622   6.127  0.7336  0.7513 -0.9009
   41CHL1  H19C 4183   0.428   3.456   6.195  1.1342 -0.0090 -0.5716
   41CHL1    C1 4184   0.139   3.546   6.227  0.2248  0.3735 -0.0287
   41CHL1   H1A 4185   0.162   3.654   6.238 -0.1112  0.4718 -0.2447
   41CHL1   H1B 4186   0.030   3.537   6.206  0.3372 -1.5891  0.1087
   41CHL1    C2 4187   0.175   3.486   6.367  0.0617 -0.2300  0.1063
   41CHL1   H2A 4188   0.095   3.532   6.429 -0.2377 -0.8266  0.1739
   41CHL1   H2B 4189   0.277   3.519   6.395 -0.5370  1.7047  0.1598
   41CHL1   C20 4190   0.229   3.773   5.441 -0.1365 -0.7012  0.2631
   41CHL1   H20 4191   0.334   3.742   5.423 -0.2753 -0.9088 -0.2019
   41CHL1   C21 4192   0.224   3.914   5.502  0.1122  0.8337 -0.0574
   41CHL1  H21A 4193   0.305   3.927   5.578  1.3692 -0.0518 -1.2023
   41CHL1  H21B 4194   0.127   3.948   5.545 -0.1408  1.2554 -0.9389
   41CHL1  H21C 4195   0.244   3.987   5.421  0.5294  1.3830  0.5242
   41CHL1   C22 4196   0.154   3.767   5.303 -0.2295  0.6958  0.4215
   41CHL1  H22A 4197   0.159   3.662   5.265  0.6531  0.6187  0.7156
   41CHL1  H22B 4198   0.055   3.810   5.327  0.1249  1.2155  0.9811
   41CHL1   C23 4199   0.216   3.856   5.190 -0.8066 -0.4887  0.4564
   41CHL1  H23A 4200   0.192   3.961   5.216 -0.2228 -0.5783  1.4246
   41CHL1  H23B 4201   0.326   3.849   5.188 -0.8410 -0.8983 -0.4363
   41CHL1   C24 4202   0.156   3.817   5.053  0.2714  0.5655 -0.5741
   41CHL1  H24A 4203   0.192   3.712   5.052 -1.0193  0.1011 -0.4318
   41CHL1  H24B 4204   0.045   3.818   5.049  0.1577 -2.6400 -1.2471
   41CHL1   C25 4205   0.210   3.880   4.933 -0.5831 -0.0401 -0.5936
   41CHL1   H25 4206   0.178   3.828   4.839  0.1747 -1.7012  0.0311
   41CHL1   C26 4207   0.156   4.024   4.920 -0.1989 -0.0067 -0.1037
   41CHL1  H26A 4208   0.180   4.074   5.016 -0.0489  1.6000 -0.9396
   41CHL1  H26B 4209   0.217   4.068   4.838  1.3638  0.0814  1.0568
   41CHL1  H26C 4210   0.046   4.014   4.913 -0.4015 -0.4288  2.5871
   41CHL1   C27 4211   0.361   3.881   4.925 -0.0275 -0.2646 -0.2818
   41CHL1  H27A 4212   0.405   3.967   4.981 -1.9658 -0.0470  0.9744
   41CHL1  H27B 4213   0.406   3.788   4.967 -1.2104 -0.3897  0.7552
   41CHL1  H27C 4214   0.402   3.891   4.822 -1.0466 -0.1695 -0.6845
   42CHL1    C3 4215   4.909   1.670   6.233 -0.0075  0.1388 -1.0296
   42CHL1    H3 4216   4.799   1.685   6.229  0.2958  2.3907 -2.3200
   42CHL1    O3 4217   4.962   1.636   6.362 -0.3797 -0.0429  0.1706
   42CHL1   H3' 4218   5.051   1.607   6.345 -0.0189  1.6906 -1.1508
   42CHL1    C4 4219   4.954   1.561   6.140 -0.0640  0.2687  1.1248
   42CHL1   H4A 4220   5.065   1.553   6.139 -0.1105 -0.5539 -0.8590
   42CHL1   H4B 4221   4.914   1.464   6.175 -2.1473  0.8121  0.3626
   42CHL1    C5 4222   4.914   1.587   5.997  0.0470 -0.2214  0.1205
   42CHL1    C6 4223   4.863   1.491   5.924  0.0915  0.6430 -0.2410
   42CHL1    H6 4224   4.829   1.392   5.958 -1.7840  1.4195  0.2850
   42CHL1    C7 4225   4.836   1.521   5.780  0.0745  0.2802  0.2987
   42CHL1   H7A 4226   4.865   1.436   5.714  1.0937  1.1554 -0.4177
   42CHL1   H7B 4227   4.726   1.525   5.766  0.0324 -1.1441  0.0375
   42CHL1    C8 4228   4.882   1.654   5.716  1.0653 -0.2278  0.2362
   42CHL1    H8 4229   4.981   1.638   5.668  0.9488  2.0074 -0.9165
   42CHL1   C14 4230   4.788   1.694   5.600 -0.2927  0.2280 -0.8547
   42CHL1   H14 4231   4.689   1.694   5.651  0.5355  0.1370  0.8051
   42CHL1   C15 4232   4.779   1.587   5.490  0.2524 -0.0102  1.2155
   42CHL1  H15A 4233   4.882   1.556   5.464 -0.6427 -1.5758 -0.7593
   42CHL1  H15B 4234   4.721   1.497   5.521 -1.3628  1.0511  1.3710
   42CHL1   C16 4235   4.725   1.665   5.367 -0.4188  0.6506 -0.2361
   42CHL1  H16A 4236   4.795   1.654   5.281  2.2516  0.9276  1.7760
   42CHL1  H16B 4237   4.626   1.624   5.336  0.5046 -0.7525 -1.4619
   42CHL1   C17 4238   4.718   1.815   5.408  0.2392 -0.3142 -0.0730
   42CHL1   H17 4239   4.615   1.830   5.449 -0.5459 -0.9691 -1.7417
   42CHL1   C13 4240   4.822   1.823   5.527  0.3964 -0.1588  0.2157
   42CHL1   C18 4241   4.967   1.834   5.469 -0.1493  0.3147 -0.1290
   42CHL1  H18A 4242   5.036   1.803   5.550  0.7860  1.5955 -0.4039
   42CHL1  H18B 4243   4.984   1.764   5.384 -1.7452 -1.3728  0.8642
   42CHL1  H18C 4244   4.974   1.933   5.418  0.7331 -1.1091 -2.9479
   42CHL1   C12 4245   4.800   1.927   5.636 -0.1798 -0.4717 -0.7273
   42CHL1  H12A 4246   4.829   2.030   5.604  1.9117 -0.4490  1.0284
   42CHL1  H12B 4247   4.695   1.928   5.671  0.3008  1.0510  0.8069
   42CHL1   C11 4248   4.884   1.907   5.763  0.1668 -0.0992 -0.6424
   42CHL1  H11A 4249   4.990   1.924   5.732 -0.1575 -0.1255 -1.8170
   42CHL1  H11B 4250   4.854   1.977   5.843  0.3773 -0.7254 -0.0034
   42CHL1    C9 4251   4.866   1.766   5.820  0.1036 -0.0607  0.2920
   42CHL1    H9 4252   4.758   1.770   5.844  0.2445 -0.6584  1.0911
   42CHL1   C10 4253   4.943   1.733   5.947  0.6954 -0.0636 -0.1099
   42CHL1   C19 4254   5.095   1.738   5.907  0.4123  0.0971  0.1984
   42CHL1  H19A 4255   5.120   1.667   5.826 -0.8231 -0.4293  0.2734
   42CHL1  H19B 4256   5.123   1.840   5.872 -0.5524  0.0309 -0.8160
   42CHL1  H19C 4257   5.163   1.728   5.995  1.8244  0.3272 -0.8241
   42CHL1    C1 4258   4.931   1.847   6.055 -0.6181  0.1408  0.2409
   42CHL1   H1A 4259   4.985   1.938   6.021 -1.9260 -0.2064 -3.1461
   42CHL1   H1B 4260   4.826   1.880   6.070  0.1212  1.9840  1.7447
   42CHL1    C2 4261   4.969   1.803   6.199 -0.1613  0.0099 -0.0914
   42CHL1   H2A 4262   4.960   1.883   6.276  0.7164  1.0555 -1.0305
   42CHL1   H2B 4263   5.079   1.793   6.190 -0.2004  0.2904 -0.9746
   42CHL1   C20 4264   4.740   1.918   5.289 -0.1070 -0.2005  0.3120
   42CHL1   H20 4265   4.845   1.924   5.252 -0.4465 -0.5053 -0.7316
   42CHL1   C21 4266   4.689   2.055   5.337  0.2213  0.8264 -0.3063
   42CHL1  H21A 4267   4.768   2.119   5.383  1.2486 -0.2920 -0.4674
   42CHL1  H21B 4268   4.604   2.037   5.405  0.7398 -2.0388 -0.3201
   42CHL1  H21C 4269   4.654   2.114   5.250 -1.2007  1.2413  0.5264
   42CHL1   C22 4270   4.655   1.880   5.161  0.1798  0.3223 -0.2798
   42CHL1  H22A 4271   4.645   1.771   5.142  2.7920 -0.0575  0.1039
   42CHL1  H22B 4272   4.550   1.907   5.184 -0.3505 -1.3637 -0.5901
   42CHL1   C23 4273   4.689   1.954   5.036 -0.1810  0.8189 -0.2252
   42CHL1  H23A 4274   4.696   2.060   5.069 -3.5033  0.3740  2.4893
   42CHL1  H23B 4275   4.790   1.929   4.998 -0.9274 -1.5651 -0.8008
   42CHL1   C24 4276   4.592   1.938   4.925  0.1612 -1.0026  0.5334
   42CHL1  H24A 4277   4.579   1.829   4.908  1.8515 -1.1681  0.0696
   42CHL1  H24B 4278   4.493   1.984   4.943  0.7249  0.6860 -0.4389
   42CHL1   C25 4279   4.646   2.006   4.797 -0.3772  0.2943 -0.1487
   42CHL1   H25 4280   4.756   1.993   4.786 -0.5748 -1.9494  0.1542
   42CHL1   C26 4281   4.579   1.943   4.675  0.4912 -0.5424 -0.1240
   42CHL1  H26A 4282   4.565   1.833   4.685 -0.6037 -0.3209  1.0891
   42CHL1  H26B 4283   4.475   1.984   4.677  1.1654  1.3065 -0.9873
   42CHL1  H26C 4284   4.622   1.974   4.578  0.6294  0.4967  0.2576
   42CHL1   C27 4285   4.612   2.155   4.806 -0.1874 -0.4994  0.2900
   42CHL1  H27A 4286   4.649   2.209   4.717  0.3395  0.4941  1.0889
   42CHL1  H27B 4287   4.501   2.167   4.809 -0.5300 -3.0495 -0.0143
   42CHL1  H27C 4288   4.641   2.215   4.895 -0.0572 -1.5830  0.9901
   43CHL1    C3 4289   4.727   6.571   6.056  0.6209  0.4536 -0.2333
   43CHL1    H3 4290   4.652   6.645   6.019 -0.6812 -0.7597 -0.1016
   43CHL1    O3 4291   4.694   6.549   6.196  0.3048  0.7446  0.0328
   43CHL1   H3' 4292   4.772   6.507   6.232 -1.2934 -1.6350  1.0181
   43CHL1    C4 4293   4.716   6.439   5.977  0.0041 -0.1832 -0.4869
   43CHL1   H4A 4294   4.798   6.373   6.011  1.0323  0.8358 -0.9287
   43CHL1   H4B 4295   4.620   6.394   6.011 -0.7498  2.0402  0.4663
   43CHL1    C5 4296   4.744   6.458   5.833  0.0927 -0.2505 -0.9262
   43CHL1    C6 4297   4.658   6.429   5.735  0.3024  0.0455 -0.0637
   43CHL1    H6 4298   4.558   6.385   5.751  0.0190 -1.0150 -3.8945
   43CHL1    C7 4299   4.685   6.432   5.587  0.5464 -0.0846 -0.2456
   43CHL1   H7A 4300   4.646   6.339   5.542  0.9591 -0.2753 -0.2171
   43CHL1   H7B 4301   4.612   6.512   5.563  0.7124 -0.2492 -1.3446
   43CHL1    C8 4302   4.833   6.462   5.555 -0.6552 -0.7830  0.2299
   43CHL1    H8 4303   4.884   6.365   5.574 -0.6762 -0.5130  1.7866
   43CHL1   C14 4304   4.855   6.498   5.409  0.2432  0.7380 -0.4283
   43CHL1   H14 4305   4.801   6.594   5.399 -0.0799  0.6506  0.4503
   43CHL1   C15 4306   4.794   6.405   5.302 -0.5955 -0.5754 -0.5892
   43CHL1  H15A 4307   4.817   6.304   5.341  1.7033  0.2994  0.5003
   43CHL1  H15B 4308   4.685   6.425   5.291 -0.8564 -1.6616 -0.0474
   43CHL1   C16 4309   4.863   6.455   5.174 -0.6947 -0.1873 -0.3607
   43CHL1  H16A 4310   4.903   6.360   5.132  2.4066  1.1171 -0.6802
   43CHL1  H16B 4311   4.799   6.505   5.098 -0.1288  0.1471 -0.6347
   43CHL1   C17 4312   4.977   6.559   5.213  0.3005  0.3051 -0.0621
   43CHL1   H17 4313   4.926   6.657   5.198 -0.9923 -0.6501 -2.3650
   43CHL1   C13 4314   4.996   6.527   5.371 -0.2625 -0.3763  1.3064
   43CHL1   C18 4315   5.092   6.404   5.383 -0.1230  0.0699 -0.3743
   43CHL1  H18A 4316   5.054   6.326   5.314  1.9546 -1.4229  0.0596
   43CHL1  H18B 4317   5.193   6.436   5.352 -0.2785  0.4136 -0.5306
   43CHL1  H18C 4318   5.106   6.370   5.488 -0.1410  0.3656 -0.2759
   43CHL1   C12 4319   5.041   6.643   5.458 -0.0583  0.2033 -0.6839
   43CHL1  H12A 4320   5.143   6.668   5.423  0.8012 -0.7577  0.9871
   43CHL1  H12B 4321   4.976   6.732   5.443 -0.4037  0.1276  0.2874
   43CHL1   C11 4322   5.029   6.626   5.608  0.5340  1.1492  0.1747
   43CHL1  H11A 4323   5.115   6.564   5.639  0.2385  0.5763 -0.1238
   43CHL1  H11B 4324   5.033   6.728   5.653  0.9127  1.4184 -0.4542
   43CHL1    C9 4325   4.891   6.572   5.645 -0.5152  0.2520 -0.1876
   43CHL1    H9 4326   4.829   6.663   5.628  2.7515  2.4513 -1.0905
   43CHL1   C10 4327   4.878   6.529   5.797  0.4207  0.5115 -0.5509
   43CHL1   C19 4328   4.994   6.431   5.833  0.1535 -0.1903  0.6406
   43CHL1  H19A 4329   5.091   6.482   5.812 -1.4355  1.9791 -2.1200
   43CHL1  H19B 4330   4.993   6.413   5.942  0.8684 -1.1666  0.4990
   43CHL1  H19C 4331   4.979   6.329   5.793 -0.8828  0.1176  0.2164
   43CHL1    C1 4332   4.890   6.649   5.892 -0.1541  0.4258  0.6518
   43CHL1   H1A 4333   4.986   6.696   5.864  0.2425 -1.8464 -2.2049
   43CHL1   H1B 4334   4.813   6.719   5.852  2.1187  2.1173 -1.0526
   43CHL1    C2 4335   4.871   6.635   6.040  0.3786 -0.2314 -0.5280
   43CHL1   H2A 4336   4.884   6.729   6.096  2.1261 -1.4032  1.1296
   43CHL1   H2B 4337   4.941   6.571   6.097  0.1795  1.3445  1.6317
   43CHL1   C20 4338   5.104   6.548   5.126 -0.1489  0.0716 -0.1115
   43CHL1   H20 4339   5.164   6.460   5.157 -0.5423  0.3950  1.6676
   43CHL1   C21 4340   5.187   6.684   5.146  0.2625 -0.1032 -0.5201
   43CHL1  H21A 4341   5.223   6.707   5.248 -2.6013 -0.7066  0.7195
   43CHL1  H21B 4342   5.111   6.762   5.123 -0.2244  0.1382  1.6803
   43CHL1  H21C 4343   5.268   6.689   5.070  1.7786  1.8571  1.1411
   43CHL1   C22 4344   5.079   6.526   4.974  0.0966 -0.5039 -0.0077
   43CHL1  H22A 4345   5.177   6.505   4.925  0.9493 -0.7231  1.7012
   43CHL1  H22B 4346   5.021   6.433   4.958  0.6508 -0.6813 -1.0869
   43CHL1   C23 4347   5.009   6.642   4.900  0.4887  0.1258  0.2886
   43CHL1  H23A 4348   4.923   6.675   4.963 -0.4028 -2.2038  0.3706
   43CHL1  H23B 4349   5.086   6.719   4.878  0.8405 -0.5861 -1.0674
   43CHL1   C24 4350   4.951   6.584   4.769 -0.5638  0.4363 -0.6063
   43CHL1  H24A 4351   5.032   6.543   4.705  0.5468 -1.4507  1.8077
   43CHL1  H24B 4352   4.876   6.505   4.792  0.6992 -0.3569  1.0219
   43CHL1   C25 4353   4.877   6.681   4.673 -0.3594 -0.5315  0.6972
   43CHL1   H25 4354   4.942   6.769   4.693 -0.2070 -0.6008  0.5052
   43CHL1   C26 4355   4.880   6.627   4.530 -0.6772  0.1786 -0.9057
   43CHL1  H26A 4356   4.838   6.524   4.526  1.8320 -1.1606  2.2942
   43CHL1  H26B 4357   4.827   6.700   4.465 -1.2487 -0.1905 -0.8619
   43CHL1  H26C 4358   4.983   6.629   4.489  1.1723 -2.0175  3.0246
   43CHL1   C27 4359   4.745   6.735   4.712  0.2020  0.0818  0.2256
   43CHL1  H27A 4360   4.681   6.644   4.713 -0.6313  0.5891 -1.8784
   43CHL1  H27B 4361   4.746   6.771   4.818  0.0842  1.4754 -0.2302
   43CHL1  H27C 4362   4.713   6.815   4.642 -0.2396 -1.4618 -1.4207
   44CHL1    C3 4363   6.083   6.728   6.309 -0.0451 -0.0538  1.1753
   44CHL1    H3 4364   6.076   6.839   6.309  0.7472  0.0106  0.3896
   44CHL1    O3 4365   6.064   6.669   6.436  0.0876 -0.0551 -0.4350
   44CHL1   H3' 4366   6.048   6.576   6.417 -1.7541  0.7151 -3.2701
   44CHL1    C4 4367   5.992   6.651   6.204 -0.7496 -0.0788 -0.3902
   44CHL1   H4A 4368   6.016   6.545   6.224  1.1647  0.5055  0.6680
   44CHL1   H4B 4369   5.887   6.651   6.237 -0.5879 -0.5757  0.1259
   44CHL1    C5 4370   6.006   6.681   6.055  0.0920 -0.3324 -1.0461
   44CHL1    C6 4371   5.902   6.723   5.984 -0.1158  0.1574 -0.3919
   44CHL1    H6 4372   5.804   6.726   6.035 -0.6887 -1.2327 -1.3246
   44CHL1    C7 4373   5.914   6.764   5.838  0.0175 -0.1139  0.6753
   44CHL1   H7A 4374   5.837   6.713   5.776  0.7802 -0.9684  0.3969
   44CHL1   H7B 4375   5.903   6.873   5.822 -0.4590 -0.3539 -0.8485
   44CHL1    C8 4376   6.048   6.716   5.777 -0.1518 -0.1251  0.7900
   44CHL1    H8 4377   6.034   6.606   5.775 -3.4395  0.1817  1.0888
   44CHL1   C14 4378   6.077   6.772   5.639  0.3386  0.0120 -0.0388
   44CHL1   H14 4379   6.084   6.883   5.649  2.2377  0.3535 -3.6745
   44CHL1   C15 4380   5.965   6.757   5.523 -0.0933  0.4544 -0.3809
   44CHL1  H15A 4381   5.919   6.656   5.534  0.7454 -0.1571 -2.1356
   44CHL1  H15B 4382   5.876   6.822   5.536 -1.7833 -1.8247  0.0758
   44CHL1   C16 4383   6.039   6.784   5.391 -0.0589  0.4863  0.1690
   44CHL1  H16A 4384   6.035   6.684   5.343 -1.1483 -0.2034  1.6322
   44CHL1  H16B 4385   5.986   6.853   5.323 -1.4236 -1.7112 -1.1328
   44CHL1   C17 4386   6.192   6.806   5.433  0.7157 -1.1297 -0.5639
   44CHL1   H17 4387   6.195   6.916   5.450 -1.2647 -0.8579 -1.6808
   44CHL1   C13 4388   6.204   6.726   5.564  0.1058  0.7443 -0.3324
   44CHL1   C18 4389   6.209   6.571   5.540  0.3854  0.2762 -0.4892
   44CHL1  H18A 4390   6.311   6.539   5.509  0.4016 -0.5004  0.3462
   44CHL1  H18B 4391   6.182   6.511   5.629 -0.6310 -1.4094 -1.8633
   44CHL1  H18C 4392   6.129   6.538   5.470 -2.8934  1.6352  2.3529
   44CHL1   C12 4393   6.320   6.761   5.668 -0.4549  0.0099 -0.0971
   44CHL1  H12A 4394   6.420   6.728   5.632 -0.3614 -0.5064  0.6007
   44CHL1  H12B 4395   6.326   6.871   5.682 -4.8713  0.7931 -2.6770
   44CHL1   C11 4396   6.297   6.692   5.807 -0.0311 -0.2652  0.4677
   44CHL1  H11A 4397   6.308   6.584   5.785  0.6196 -0.1156  0.0259
   44CHL1  H11B 4398   6.383   6.706   5.876  1.4905 -3.5722 -0.5472
   44CHL1    C9 4399   6.167   6.740   5.869  0.6833 -0.3506 -0.3031
   44CHL1    H9 4400   6.172   6.851   5.870 -0.5992 -0.2574  1.4217
   44CHL1   C10 4401   6.151   6.678   6.007 -0.2204  0.8726 -0.6193
   44CHL1   C19 4402   6.183   6.530   6.005 -0.1526  0.4247  0.0238
   44CHL1  H19A 4403   6.129   6.479   5.923  0.4687 -0.4758  0.1601
   44CHL1  H19B 4404   6.291   6.505   5.996 -0.4584 -0.8346 -0.3475
   44CHL1  H19C 4405   6.165   6.480   6.103  2.2949 -2.4935 -0.8449
   44CHL1    C1 4406   6.251   6.747   6.110  0.2159 -0.5536  0.8019
   44CHL1   H1A 4407   6.360   6.734   6.096  0.2805  0.9587 -0.3990
   44CHL1   H1B 4408   6.244   6.857   6.110 -0.0678 -0.5623  0.1535
   44CHL1    C2 4409   6.226   6.702   6.264 -0.2930 -0.4672  0.1586
   44CHL1   H2A 4410   6.274   6.774   6.334 -2.3053  0.1448  0.9667
   44CHL1   H2B 4411   6.260   6.597   6.277  1.1904 -0.0709 -0.2465
   44CHL1   C20 4412   6.290   6.770   5.326 -0.0585  0.0870 -0.4323
   44CHL1   H20 4413   6.320   6.663   5.331 -1.1736 -0.1699  2.2167
   44CHL1   C21 4414   6.422   6.852   5.355 -0.0740 -0.1968 -0.5235
   44CHL1  H21A 4415   6.478   6.830   5.448  0.4046  0.6486 -0.5983
   44CHL1  H21B 4416   6.388   6.958   5.347 -1.7267 -0.3933  2.4750
   44CHL1  H21C 4417   6.491   6.826   5.273 -1.9056 -0.1806 -2.1411
   44CHL1   C22 4418   6.245   6.802   5.184 -0.2773 -0.3043 -0.7042
   44CHL1  H22A 4419   6.143   6.768   5.154 -0.6431 -2.9873  2.9050
   44CHL1  H22B 4420   6.250   6.913   5.182  1.1083 -0.3352  0.0046
   44CHL1   C23 4421   6.345   6.749   5.073 -0.0825 -0.6993 -0.0731
   44CHL1  H23A 4422   6.445   6.795   5.066 -0.5072  0.1816 -0.5728
   44CHL1  H23B 4423   6.365   6.642   5.096  0.9506 -0.2121  1.3833
   44CHL1   C24 4424   6.275   6.743   4.935 -0.6478 -0.4663 -0.1249
   44CHL1  H24A 4425   6.173   6.700   4.947 -0.4707 -1.0323 -0.5678
   44CHL1  H24B 4426   6.254   6.846   4.899  0.8620  0.3599  1.2405
   44CHL1   C25 4427   6.351   6.662   4.824 -0.5351  0.1779 -0.0789
   44CHL1   H25 4428   6.298   6.691   4.730  1.3603 -0.1840 -1.3178
   44CHL1   C26 4429   6.492   6.695   4.803 -0.3053 -0.2103  0.6705
   44CHL1  H26A 4430   6.537   6.649   4.713 -0.2646 -0.2727  0.7227
   44CHL1  H26B 4431   6.490   6.801   4.771  0.3742 -0.2778  0.3759
   44CHL1  H26C 4432   6.548   6.684   4.899  0.4488  0.7330  0.3588
   44CHL1   C27 4433   6.343   6.508   4.855 -0.0977 -0.3650 -0.4240
   44CHL1  H27A 4434   6.401   6.481   4.946 -1.7268 -0.1240  0.7354
   44CHL1  H27B 4435   6.235   6.493   4.876 -0.2346 -0.0084 -0.8464
   44CHL1  H27C 4436   6.375   6.459   4.760  0.3529 -2.2218  0.6403
   45CHL1    C3 4437   4.826   3.526   6.328 -0.2515 -0.1953 -0.4243
   45CHL1    H3 4438   4.910   3.456   6.308  1.4080  1.2868  1.0412
   45CHL1    O3 4439   4.785   3.519   6.466 -0.6122  0.2008 -0.3400
   45CHL1   H3' 4440   4.712   3.581   6.472 -0.4934  0.5474 -2.0642
   45CHL1    C4 4441   4.878   3.669   6.312 -0.8294 -0.4252  0.0608
   45CHL1   H4A 4442   4.807   3.741   6.358 -2.1969 -1.1760 -0.8235
   45CHL1   H4B 4443   4.974   3.667   6.368  1.9199 -0.5927 -4.2241
   45CHL1    C5 4444   4.908   3.693   6.162  0.4476 -0.6007 -0.1729
   45CHL1    C6 4445   5.026   3.742   6.116  0.1738  0.5543 -0.3214
   45CHL1    H6 4446   5.113   3.760   6.181  0.1490  1.2223 -0.4685
   45CHL1    C7 4447   5.049   3.774   5.974  0.6557 -0.5171  0.4606
   45CHL1   H7A 4448   5.095   3.874   5.955 -1.4043  0.2918 -0.5216
   45CHL1   H7B 4449   5.128   3.709   5.930  1.7361  1.6275 -0.9538
   45CHL1    C8 4450   4.918   3.786   5.886  0.0098 -0.3361 -0.1772
   45CHL1    H8 4451   4.861   3.880   5.901  0.2506 -0.0142 -1.1584
   45CHL1   C14 4452   4.968   3.776   5.738 -0.0172 -0.4682 -0.4093
   45CHL1   H14 4453   5.023   3.680   5.726  0.1604 -0.3289 -0.7159
   45CHL1   C15 4454   5.064   3.891   5.683 -0.0632 -0.2654 -0.1785
   45CHL1  H15A 4455   5.031   3.991   5.720 -2.1817 -1.0524  0.1932
   45CHL1  H15B 4456   5.170   3.872   5.713  0.0587  0.3130 -0.2322
   45CHL1   C16 4457   5.058   3.881   5.528  0.2731  0.0752 -0.5358
   45CHL1  H16A 4458   5.047   3.984   5.487 -1.2016  0.0954 -0.1575
   45CHL1  H16B 4459   5.153   3.841   5.487  0.8689  1.7111 -0.7975
   45CHL1   C17 4460   4.933   3.788   5.510 -0.0903  0.1552  0.0292
   45CHL1   H17 4461   4.985   3.690   5.515  1.8228  1.1549  1.1231
   45CHL1   C13 4462   4.851   3.779   5.644 -0.7114 -0.4730  0.3356
   45CHL1   C18 4463   4.761   3.910   5.648 -0.4347 -0.3599  0.3935
   45CHL1  H18A 4464   4.684   3.901   5.569 -0.1372  0.7189 -0.0313
   45CHL1  H18B 4465   4.704   3.918   5.743 -1.3964  0.7625 -0.2498
   45CHL1  H18C 4466   4.822   4.001   5.627  0.6437 -1.8187 -3.8668
   45CHL1   C12 4467   4.772   3.653   5.665 -0.1085  0.1371 -0.8836
   45CHL1  H12A 4468   4.694   3.644   5.587 -2.3534  1.4650  1.0844
   45CHL1  H12B 4469   4.836   3.562   5.677  0.1943  0.4016 -0.4497
   45CHL1   C11 4470   4.706   3.665   5.804 -0.2119 -0.0607  0.1086
   45CHL1  H11A 4471   4.637   3.750   5.824 -0.6202 -0.4635  0.4467
   45CHL1  H11B 4472   4.650   3.570   5.820 -2.0511  0.8267 -0.7826
   45CHL1    C9 4473   4.824   3.668   5.915  0.1773 -0.4418 -0.3394
   45CHL1    H9 4474   4.875   3.576   5.879 -0.3688 -1.0373  0.3594
   45CHL1   C10 4475   4.794   3.660   6.069 -0.0484  0.2286  0.5119
   45CHL1   C19 4476   4.678   3.766   6.094 -0.7026 -0.3694 -0.4008
   45CHL1  H19A 4477   4.582   3.747   6.043 -2.1215 -2.1232  2.6268
   45CHL1  H19B 4478   4.657   3.798   6.198  0.7254  0.4743 -0.3426
   45CHL1  H19C 4479   4.696   3.857   6.034 -0.7710  0.5506  0.9361
   45CHL1    C1 4480   4.731   3.514   6.103  0.3039 -0.4285  0.2140
   45CHL1   H1A 4481   4.645   3.504   6.034  0.4283  0.7438 -0.1330
   45CHL1   H1B 4482   4.811   3.439   6.083  0.8126  0.1010  0.2182
   45CHL1    C2 4483   4.698   3.495   6.249  1.4043  0.2171  0.5012
   45CHL1   H2A 4484   4.659   3.395   6.275  0.7121  0.9830  2.6885
   45CHL1   H2B 4485   4.611   3.559   6.274  0.7647  0.1726 -1.4580
   45CHL1   C20 4486   4.862   3.780   5.373  0.5214 -0.1770 -0.2951
   45CHL1   H20 4487   4.757   3.753   5.395  0.3820  2.6160  3.4701
   45CHL1   C21 4488   4.925   3.666   5.285 -0.3222  0.0420  0.5044
   45CHL1  H21A 4489   4.891   3.666   5.179  0.1780  1.9930  0.3022
   45CHL1  H21B 4490   4.910   3.567   5.333  2.1271 -0.7663 -0.2629
   45CHL1  H21C 4491   5.035   3.679   5.279 -0.2972  0.2140  1.3173
   45CHL1   C22 4492   4.873   3.916   5.294  0.7541  0.3507  0.4995
   45CHL1  H22A 4493   4.829   4.001   5.350  1.0287  0.1737  0.9902
   45CHL1  H22B 4494   4.976   3.949   5.270 -0.7663  4.7166 -0.9219
   45CHL1   C23 4495   4.800   3.924   5.158  0.3622  0.9713  0.4716
   45CHL1  H23A 4496   4.833   3.847   5.085  2.1090  2.2586 -0.1732
   45CHL1  H23B 4497   4.689   3.926   5.164  0.4351  2.6366  2.4186
   45CHL1   C24 4498   4.830   4.059   5.095 -0.2631  0.5306  0.2398
   45CHL1  H24A 4499   4.771   4.141   5.140  0.6410  1.7677 -0.7660
   45CHL1  H24B 4500   4.933   4.096   5.112 -0.0459  0.2185 -0.3652
   45CHL1   C25 4501   4.804   4.048   4.942  0.0958 -0.8331 -0.0987
   45CHL1   H25 4502   4.874   3.974   4.897  0.0130 -0.2367 -1.2554
   45CHL1   C26 4503   4.657   4.012   4.899  0.5472 -0.5556  0.0726
   45CHL1  H26A 4504   4.583   4.080   4.945 -0.4048 -0.0847 -2.0476
   45CHL1  H26B 4505   4.640   4.015   4.790 -1.2107 -1.4321  0.2897
   45CHL1  H26C 4506   4.628   3.911   4.936  1.2985 -0.9362 -0.3515
   45CHL1   C27 4507   4.835   4.178   4.876 -0.8436  0.5960  0.0561
   45CHL1  H27A 4508   4.933   4.208   4.919 -0.3283 -0.7189 -0.1490
   45CHL1  H27B 4509   4.851   4.164   4.767 -0.9907  2.8941 -0.2968
   45CHL1  H27C 4510   4.756   4.252   4.901 -1.3003 -0.0857  0.6701
   46CHL1    C3 4511   0.034   5.658   6.137 -0.1400 -0.1011  0.4968
   46CHL1    H3 4512   0.110   5.603   6.079  0.6207  1.4302 -0.0103
   46CHL1    O3 4513   0.018   5.609   6.268  0.1553 -0.0378 -0.5736
   46CHL1   H3' 4514  -0.042   5.668   6.314  0.1481  0.1479 -0.8128
   46CHL1    C4 4515   0.078   5.809   6.128 -0.1591  0.1913  0.4833
   46CHL1   H4A 4516  -0.002   5.872   6.173 -0.7722 -0.5390  0.4499
   46CHL1   H4B 4517   0.178   5.832   6.171  1.0223 -1.1427 -1.4000
   46CHL1    C5 4518   0.086   5.844   5.982 -1.3098  0.1907  0.2204
   46CHL1    C6 4519   0.206   5.888   5.930  0.8550 -0.7572 -0.5882
   46CHL1    H6 4520   0.283   5.920   6.002 -0.6787  1.4560  0.2184
   46CHL1    C7 4521   0.230   5.938   5.790 -0.8022 -0.3565  0.2965
   46CHL1   H7A 4522   0.283   6.035   5.792 -0.7387 -0.2960 -2.0065
   46CHL1   H7B 4523   0.296   5.872   5.730  0.8690  0.0676  1.5861
   46CHL1    C8 4524   0.091   5.952   5.715  0.5527  0.1876 -0.1938
   46CHL1    H8 4525   0.037   6.044   5.745 -3.6288 -1.4538 -1.8939
   46CHL1   C14 4526   0.117   5.967   5.563  0.0328  0.1902  0.1346
   46CHL1   H14 4527   0.176   5.878   5.534  0.8182 -0.0504  2.3438
   46CHL1   C15 4528   0.199   6.087   5.514  0.9381 -0.1370  0.0422
   46CHL1  H15A 4529   0.178   6.175   5.579 -1.7929 -0.1470 -0.6837
   46CHL1  H15B 4530   0.307   6.062   5.512  0.4902 -2.1737 -1.0755
   46CHL1   C16 4531   0.158   6.108   5.367 -0.2690 -0.0444  0.2468
   46CHL1  H16A 4532   0.130   6.212   5.341  0.2836  0.6255  2.1356
   46CHL1  H16B 4533   0.235   6.086   5.290  0.8808  2.3676  0.6087
   46CHL1   C17 4534   0.043   6.013   5.339 -0.3554  0.5997 -0.0576
   46CHL1   H17 4535   0.083   5.922   5.289  0.5261  0.2754  1.1725
   46CHL1   C13 4536  -0.012   5.966   5.476  0.1600  0.1719 -0.7710
   46CHL1   C18 4537  -0.104   6.074   5.532  0.4448  0.0724  0.2501
   46CHL1  H18A 4538  -0.053   6.173   5.527  0.2179  0.3137  2.1086
   46CHL1  H18B 4539  -0.196   6.087   5.472 -1.1603 -0.0414  2.5506
   46CHL1  H18C 4540  -0.149   6.065   5.633 -2.4538 -0.4786 -1.0009
   46CHL1   C12 4541  -0.077   5.826   5.489 -0.6766 -0.6954 -0.5077
   46CHL1  H12A 4542  -0.178   5.829   5.441 -1.0837  0.5434  0.3828
   46CHL1  H12B 4543  -0.007   5.749   5.451 -1.2547 -0.9125 -1.1595
   46CHL1   C11 4544  -0.110   5.800   5.642  0.2789 -0.2619  0.1832
   46CHL1  H11A 4545  -0.202   5.853   5.676  0.7598  0.2974  0.6395
   46CHL1  H11B 4546  -0.139   5.693   5.648  2.5442 -0.9274  0.3270
   46CHL1    C9 4547   0.009   5.824   5.740 -0.7734  0.1176  0.0472
   46CHL1    H9 4548   0.083   5.742   5.732 -0.6101  0.2734 -0.0341
   46CHL1   C10 4549  -0.026   5.816   5.890  0.1345 -0.1527 -0.3314
   46CHL1   C19 4550  -0.145   5.916   5.921  0.0919  0.4739  0.2716
   46CHL1  H19A 4551  -0.120   6.022   5.900  0.0415  0.8330  1.9229
   46CHL1  H19B 4552  -0.240   5.886   5.872 -0.6929  1.4678  1.1403
   46CHL1  H19C 4553  -0.174   5.909   6.028  0.1410  1.3062  0.3506
   46CHL1    C1 4554  -0.088   5.672   5.921 -0.0281  0.6928  0.2272
   46CHL1   H1A 4555  -0.188   5.671   5.873 -0.6173  0.2839  1.4306
   46CHL1   H1B 4556  -0.028   5.591   5.873  0.4104 -0.4872  2.6195
   46CHL1    C2 4557  -0.105   5.645   6.068  0.7216 -0.2947 -0.4077
   46CHL1   H2A 4558  -0.152   5.545   6.079 -1.1934  0.7904  2.3367
   46CHL1   H2B 4559  -0.170   5.717   6.122  1.0053 -1.6041  1.7477
   46CHL1   C20 4560  -0.054   6.076   5.234 -0.4334 -0.4778  0.3341
   46CHL1   H20 4561  -0.104   6.166   5.275  0.6752  0.9030 -1.2223
   46CHL1   C21 4562  -0.171   5.980   5.212 -0.5338  0.2703  0.0711
   46CHL1  H21A 4563  -0.135   5.882   5.172  0.8542  0.6949  0.2067
   46CHL1  H21B 4564  -0.252   6.025   5.150 -0.4720  0.3413  0.0418
   46CHL1  H21C 4565  -0.225   5.961   5.307 -1.5023 -2.2373 -0.9109
   46CHL1   C22 4566   0.010   6.095   5.095  0.0888  0.3029 -0.5120
   46CHL1  H22A 4567   0.086   6.176   5.097 -0.9351  1.2932 -0.7486
   46CHL1  H22B 4568   0.049   6.005   5.044  2.1401  0.9331 -0.1301
   46CHL1   C23 4569  -0.088   6.148   4.981 -0.8606  0.3485  0.0050
   46CHL1  H23A 4570  -0.164   6.077   4.942 -2.6531  2.3726 -0.3754
   46CHL1  H23B 4571  -0.152   6.223   5.033 -1.6621 -1.6065  2.0843
   46CHL1   C24 4572  -0.019   6.212   4.862 -0.4572 -0.7613  0.4059
   46CHL1  H24A 4573   0.063   6.280   4.894 -1.3689  0.9950 -0.7941
   46CHL1  H24B 4574   0.019   6.123   4.807  0.1834  1.4383 -2.9775
   46CHL1   C25 4575  -0.104   6.305   4.774 -0.4962 -0.4881 -0.3441
   46CHL1   H25 4576  -0.134   6.398   4.827  0.7273 -0.0694 -0.3535
   46CHL1   C26 4577  -0.026   6.338   4.652  0.3394 -0.3666  0.4459
   46CHL1  H26A 4578   0.003   6.249   4.591  0.8212  0.3908 -0.4602
   46CHL1  H26B 4579  -0.084   6.405   4.585 -1.1571 -0.9546  1.1126
   46CHL1  H26C 4580   0.068   6.390   4.679  0.3640  0.4682 -1.0996
   46CHL1   C27 4581  -0.239   6.237   4.736  0.5715  0.8993 -0.0855
   46CHL1  H27A 4582  -0.216   6.152   4.668 -0.1489  0.8565 -0.2881
   46CHL1  H27B 4583  -0.291   6.210   4.830 -3.0957  1.0610 -1.9004
   46CHL1  H27C 4584  -0.309   6.305   4.684  2.0873  2.1544 -0.5621
   47CHL1    C3 4585   1.966   2.009   6.054  0.7891  0.5151  0.2060
   47CHL1    H3 4586   1.892   2.074   6.001  2.0163  1.1830 -0.7583
   47CHL1    O3 4587   1.936   1.978   6.190 -0.7856 -0.5269  0.2068
   47CHL1   H3' 4588   2.011   1.926   6.219 -1.5112 -0.7793  1.7295
   47CHL1    C4 4589   1.983   1.879   5.978  0.1736 -0.0498  0.1968
   47CHL1   H4A 4590   2.048   1.806   6.031 -0.8371 -0.2720  1.1961
   47CHL1   H4B 4591   1.881   1.835   5.974 -0.7462  2.0382 -1.4951
   47CHL1    C5 4592   2.034   1.897   5.836  0.7408 -0.0767  0.4909
   47CHL1    C6 4593   1.960   1.834   5.743  0.7555  0.1154  0.4439
   47CHL1    H6 4594   1.875   1.774   5.780  1.9698 -1.0407  1.4518
   47CHL1    C7 4595   1.993   1.841   5.599 -0.0633 -0.3433 -0.0893
   47CHL1   H7A 4596   1.996   1.740   5.552  1.4587  0.4432 -1.7881
   47CHL1   H7B 4597   1.911   1.893   5.545  1.1828  1.4138 -0.3452
   47CHL1    C8 4598   2.126   1.910   5.576  0.8363 -0.7120 -0.1360
   47CHL1    H8 4599   2.198   1.826   5.578  0.0769 -1.4036 -0.7467
   47CHL1   C14 4600   2.120   1.964   5.436  0.2431  0.5310 -0.5148
   47CHL1   H14 4601   2.033   2.032   5.444 -2.0145 -2.3078  1.6758
   47CHL1   C15 4602   2.073   1.874   5.325  0.2861 -0.2316  0.2380
   47CHL1  H15A 4603   2.133   1.781   5.321  0.0054 -0.5587  2.4188
   47CHL1  H15B 4604   1.970   1.841   5.346  0.8926 -1.6650  1.0701
   47CHL1   C16 4605   2.094   1.965   5.205  0.4037  0.9742  1.1347
   47CHL1  H16A 4606   2.143   1.903   5.127  3.1594  1.2083  2.5720
   47CHL1  H16B 4607   1.996   1.994   5.162  0.7276 -1.3583 -1.4863
   47CHL1   C17 4608   2.194   2.080   5.244  0.4720  0.3069  0.2940
   47CHL1   H17 4609   2.133   2.173   5.257 -0.9847 -0.5254 -0.3115
   47CHL1   C13 4610   2.245   2.039   5.384 -0.3519 -0.4521  0.3859
   47CHL1   C18 4611   2.371   1.952   5.381  0.6087 -0.2540 -0.0924
   47CHL1  H18A 4612   2.464   2.003   5.348  1.7658 -1.1367  1.6507
   47CHL1  H18B 4613   2.386   1.909   5.483  1.2408  1.8653  0.7580
   47CHL1  H18C 4614   2.353   1.863   5.317 -0.9702 -0.9924  1.2862
   47CHL1   C12 4615   2.277   2.153   5.483 -0.4744  0.0821 -1.1864
   47CHL1  H12A 4616   2.378   2.196   5.464 -0.4163  0.2106 -0.6148
   47CHL1  H12B 4617   2.196   2.229   5.476 -0.7401 -0.0131  0.4858
   47CHL1   C11 4618   2.277   2.101   5.626 -0.3003 -0.4295  0.4182
   47CHL1  H11A 4619   2.370   2.041   5.637  0.6803  0.8523 -0.5119
   47CHL1  H11B 4620   2.301   2.185   5.694 -1.1969  1.4379 -1.4451
   47CHL1    C9 4621   2.150   2.029   5.667  0.5618 -0.4226  0.1263
   47CHL1    H9 4622   2.066   2.101   5.665  1.4179  0.5992  0.0137
   47CHL1   C10 4623   2.151   1.994   5.821 -0.1889 -0.1929  0.1531
   47CHL1   C19 4624   2.292   1.927   5.854 -0.4437 -0.3668 -0.1928
   47CHL1  H19A 4625   2.373   2.003   5.854  0.6234 -1.4635 -0.9251
   47CHL1  H19B 4626   2.279   1.882   5.955  1.5935 -3.6438 -1.2549
   47CHL1  H19C 4627   2.316   1.845   5.783 -0.9035 -0.2903 -0.4452
   47CHL1    C1 4628   2.137   2.128   5.906 -0.1412  0.1612  0.2636
   47CHL1   H1A 4629   2.230   2.188   5.892  1.1702 -1.5105  1.4215
   47CHL1   H1B 4630   2.054   2.178   5.851 -2.2921 -2.8015  0.6240
   47CHL1    C2 4631   2.094   2.095   6.054  0.1374 -0.0739 -0.2153
   47CHL1   H2A 4632   2.083   2.195   6.101 -0.7201 -0.5653  0.6860
   47CHL1   H2B 4633   2.176   2.041   6.107 -1.4521 -0.7064  1.7388
   47CHL1   C20 4634   2.293   2.120   5.132  0.7088 -0.2460 -0.1632
   47CHL1   H20 4635   2.366   2.036   5.127 -0.0396 -0.9807  0.8350
   47CHL1   C21 4636   2.363   2.253   5.173  0.2441  0.4955  0.4890
   47CHL1  H21A 4637   2.434   2.237   5.257  2.3661  0.4070 -1.2356
   47CHL1  H21B 4638   2.296   2.340   5.185 -0.5753  0.4937 -2.9094
   47CHL1  H21C 4639   2.424   2.283   5.085  0.8090  0.9302  1.0176
   47CHL1   C22 4640   2.224   2.140   4.995 -0.7724 -0.6250 -0.1333
   47CHL1  H22A 4641   2.138   2.071   4.985 -0.9033 -0.5019  0.1471
   47CHL1  H22B 4642   2.192   2.245   4.980  2.6220  0.3919 -1.4479
   47CHL1   C23 4643   2.318   2.104   4.878  0.3928 -0.1421  0.1392
   47CHL1  H23A 4644   2.421   2.131   4.909  0.0918  1.5944 -0.2359
   47CHL1  H23B 4645   2.312   1.994   4.867  1.6643 -0.6825  3.6707
   47CHL1   C24 4646   2.277   2.185   4.749 -0.9214  0.1349  0.6997
   47CHL1  H24A 4647   2.173   2.157   4.720 -1.7359  3.3334  0.1037
   47CHL1  H24B 4648   2.281   2.293   4.777  0.3224  0.4036 -0.4092
   47CHL1   C25 4649   2.366   2.140   4.626  1.2806  0.1687  0.2411
   47CHL1   H25 4650   2.348   2.033   4.604 -0.1537  0.7432 -1.5957
   47CHL1   C26 4651   2.315   2.211   4.505 -0.2344 -0.8127  0.2171
   47CHL1  H26A 4652   2.298   2.317   4.532  1.3588  0.1610 -2.2725
   47CHL1  H26B 4653   2.380   2.214   4.416  0.1788  0.9140  0.5366
   47CHL1  H26C 4654   2.217   2.167   4.476 -1.4346  1.4339  0.6218
   47CHL1   C27 4655   2.513   2.158   4.652  0.1193  0.3416  0.2316
   47CHL1  H27A 4656   2.548   2.083   4.726 -2.0428 -1.8410 -0.8557
   47CHL1  H27B 4657   2.560   2.140   4.554 -0.2186 -2.3230  0.4923
   47CHL1  H27C 4658   2.531   2.262   4.689  1.2725  0.0414  0.5719
   48CHL1    C3 4659   0.424   3.845   6.320  0.1609 -0.1309  0.0634
   48CHL1    H3 4660   0.359   3.776   6.261  2.1297 -0.2106 -2.1809
   48CHL1    O3 4661   0.417   3.812   6.455 -0.3624 -0.4462 -0.2948
   48CHL1   H3' 4662   0.493   3.855   6.495 -1.7086 -0.0364  2.0128
   48CHL1    C4 4663   0.566   3.826   6.269  0.2447 -0.2128  0.5441
   48CHL1   H4A 4664   0.632   3.895   6.325 -0.1498  1.1317 -0.5905
   48CHL1   H4B 4665   0.597   3.724   6.302 -1.3935 -0.2617  2.0403
   48CHL1    C5 4666   0.581   3.859   6.121  0.2177  0.0729 -0.0785
   48CHL1    C6 4667   0.636   3.765   6.039  0.1635 -0.3133  0.1803
   48CHL1    H6 4668   0.677   3.673   6.082  1.9328 -0.2374 -1.2404
   48CHL1    C7 4669   0.664   3.788   5.892 -0.2580  0.3266 -0.4795
   48CHL1   H7A 4670   0.769   3.757   5.871 -0.3260 -0.8203  0.7253
   48CHL1   H7B 4671   0.605   3.714   5.834 -0.4659 -2.0137  2.4302
   48CHL1    C8 4672   0.659   3.939   5.855  0.4315  0.2193 -0.0815
   48CHL1    H8 4673   0.755   3.986   5.884  0.7261 -1.1765  1.4321
   48CHL1   C14 4674   0.639   3.958   5.708 -0.1242  0.2484  1.0568
   48CHL1   H14 4675   0.546   3.904   5.680  0.3640 -0.3976  0.6385
   48CHL1   C15 4676   0.746   3.900   5.620  0.6261 -0.5739  0.6681
   48CHL1  H15A 4677   0.836   3.929   5.677 -0.4608  0.3056  2.0055
   48CHL1  H15B 4678   0.755   3.791   5.600  1.9774 -0.1209 -1.5504
   48CHL1   C16 4679   0.730   3.966   5.483  0.4184  0.0194  0.0246
   48CHL1  H16A 4680   0.824   4.004   5.438  0.7007 -0.2820  0.3569
   48CHL1  H16B 4681   0.687   3.889   5.416 -0.6598  1.2094 -0.7095
   48CHL1   C17 4682   0.615   4.077   5.503 -0.1102  1.1421  0.0404
   48CHL1   H17 4683   0.518   4.028   5.480 -0.1648  0.5348  1.4873
   48CHL1   C13 4684   0.614   4.102   5.658  0.3892  0.3731 -0.4376
   48CHL1   C18 4685   0.742   4.183   5.693  0.1639  0.2508  0.2631
   48CHL1  H18A 4686   0.728   4.289   5.665  0.3471  0.7827  2.0151
   48CHL1  H18B 4687   0.771   4.179   5.801 -1.7806 -0.7939  0.7876
   48CHL1  H18C 4688   0.823   4.143   5.628  1.0308  0.1843  1.3421
   48CHL1   C12 4689   0.486   4.148   5.718 -0.1450  0.0485 -0.3432
   48CHL1  H12A 4690   0.468   4.256   5.696  0.4986  1.2386  3.8896
   48CHL1  H12B 4691   0.391   4.099   5.689  0.2275  0.2667 -2.0519
   48CHL1   C11 4692   0.507   4.143   5.871 -0.0996 -0.9292  0.9970
   48CHL1  H11A 4693   0.594   4.207   5.900 -0.5683 -0.3510  1.1543
   48CHL1  H11B 4694   0.411   4.184   5.910 -2.1074 -2.7630 -1.6889
   48CHL1    C9 4695   0.536   4.003   5.927 -0.2079 -0.6915 -0.3986
   48CHL1    H9 4696   0.447   3.948   5.890 -1.1979  1.1165 -0.8184
   48CHL1   C10 4697   0.531   3.996   6.078  0.2584 -0.1871 -0.4630
   48CHL1   C19 4698   0.617   4.115   6.134 -0.5376  0.7699 -0.0128
   48CHL1  H19A 4699   0.578   4.213   6.099  0.4078  1.0679 -0.2684
   48CHL1  H19B 4700   0.632   4.121   6.244  3.1466 -0.6308 -0.2740
   48CHL1  H19C 4701   0.717   4.103   6.086 -0.4779  0.2749  0.2264
   48CHL1    C1 4702   0.388   4.016   6.139  0.8203 -0.2871 -0.4251
   48CHL1   H1A 4703   0.357   4.122   6.129 -0.1312 -0.6518 -1.4568
   48CHL1   H1B 4704   0.315   3.956   6.080  0.5622 -0.1702 -0.2283
   48CHL1    C2 4705   0.382   3.989   6.287  0.4491 -0.1824 -0.6194
   48CHL1   H2A 4706   0.280   4.004   6.329  0.0056  0.1874 -1.7847
   48CHL1   H2B 4707   0.441   4.058   6.351 -0.6138 -1.1507  1.5113
   48CHL1   C20 4708   0.630   4.199   5.410  0.6869  0.4548  0.6378
   48CHL1   H20 4709   0.720   4.257   5.442  1.2460  0.1903 -0.3938
   48CHL1   C21 4710   0.501   4.275   5.411  0.5282 -0.2213 -0.4209
   48CHL1  H21A 4711   0.416   4.207   5.388  1.0298 -0.8023 -0.5901
   48CHL1  H21B 4712   0.485   4.334   5.503 -0.4233  1.5845 -1.6934
   48CHL1  H21C 4713   0.512   4.350   5.330 -1.8870  1.4092  0.6727
   48CHL1   C22 4714   0.663   4.142   5.270 -0.5192  0.7236 -0.1003
   48CHL1  H22A 4715   0.764   4.097   5.265 -1.2768 -1.0027 -0.4467
   48CHL1  H22B 4716   0.592   4.064   5.235 -0.8122  0.0842  1.7961
   48CHL1   C23 4717   0.687   4.242   5.144  0.4648 -0.2551 -0.2888
   48CHL1  H23A 4718   0.591   4.291   5.114  0.4292 -0.5789 -0.7012
   48CHL1  H23B 4719   0.761   4.317   5.179 -0.1483  0.3714 -0.3153
   48CHL1   C24 4720   0.742   4.162   5.022 -0.1733 -0.8678  0.4763
   48CHL1  H24A 4721   0.847   4.140   5.050  0.0531  0.8605  1.0924
   48CHL1  H24B 4722   0.682   4.070   5.003 -0.0837 -0.5094 -1.7358
   48CHL1   C25 4723   0.756   4.239   4.894  0.6316  0.3765 -0.2410
   48CHL1   H25 4724   0.801   4.341   4.891  1.1286  0.1421 -1.1222
   48CHL1   C26 4725   0.862   4.167   4.805 -0.7012  0.3355  0.1705
   48CHL1  H26A 4726   0.877   4.208   4.703  0.0129 -1.1710 -0.3584
   48CHL1  H26B 4727   0.963   4.151   4.849 -0.4106 -0.2693 -0.7032
   48CHL1  H26C 4728   0.815   4.068   4.789  1.8648 -0.7507 -1.2816
   48CHL1   C27 4729   0.618   4.243   4.822  0.2032 -0.2240 -0.3991
   48CHL1  H27A 4730   0.540   4.290   4.885  0.3589  0.9745 -1.0561
   48CHL1  H27B 4731   0.619   4.291   4.721  1.7909  2.1099  0.6450
   48CHL1  H27C 4732   0.594   4.135   4.809  0.9325 -0.3055 -1.1609
   49CHL1    C3 4733   4.921   4.808   2.966 -0.0121 -0.0156  0.0531
   49CHL1    H3 4734   5.027   4.789   2.994 -0.5656 -1.0183  1.5914
   49CHL1    O3 4735   4.914   4.794   2.826 -0.4366 -0.8896 -0.0308
   49CHL1   H3' 4736   4.944   4.704   2.818  0.0817 -0.9435  1.9840
   49CHL1    C4 4737   4.839   4.693   3.030 -0.2950 -0.3040 -0.0347
   49CHL1   H4A 4738   4.731   4.698   3.007 -0.8401 -3.0577  1.4788
   49CHL1   H4B 4739   4.880   4.598   2.989  0.6768  0.5839 -1.2200
   49CHL1    C5 4740   4.857   4.711   3.183  0.2997 -0.3299  0.3148
   49CHL1    C6 4741   4.917   4.608   3.247 -0.7662  0.1624 -0.2844
   49CHL1    H6 4742   4.946   4.511   3.203  1.5283  0.7721 -0.2445
   49CHL1    C7 4743   4.947   4.617   3.396 -0.6445 -0.0168  0.3667
   49CHL1   H7A 4744   4.918   4.524   3.450  0.0368 -1.3262 -1.4139
   49CHL1   H7B 4745   5.058   4.622   3.405 -0.5119 -1.8482  0.2143
   49CHL1    C8 4746   4.885   4.731   3.471 -0.0795  0.2627 -0.5553
   49CHL1    H8 4747   4.777   4.715   3.493 -0.0029 -0.3279 -0.5805
   49CHL1   C14 4748   4.961   4.746   3.602  0.3082 -1.1580 -0.2270
   49CHL1   H14 4749   5.061   4.778   3.566  0.7420  0.2052  1.9599
   49CHL1   C15 4750   4.985   4.628   3.692 -0.0198 -0.1018  0.3063
   49CHL1  H15A 4751   4.885   4.586   3.714 -0.7511  1.9638  1.2240
   49CHL1  H15B 4752   5.051   4.555   3.641 -0.4700  0.5601 -1.2920
   49CHL1   C16 4753   5.046   4.684   3.821  0.1669 -0.4755 -0.1252
   49CHL1  H16A 4754   5.024   4.626   3.913  2.7671 -0.0237  0.8496
   49CHL1  H16B 4755   5.157   4.683   3.825  0.3497  3.1785 -1.2311
   49CHL1   C17 4756   4.995   4.835   3.825  0.0408  0.2871  1.1599
   49CHL1   H17 4757   5.078   4.904   3.800  0.5997 -0.8673 -0.2738
   49CHL1   C13 4758   4.909   4.859   3.692  0.3555 -0.4390 -0.5585
   49CHL1   C18 4759   4.754   4.850   3.716  0.0977 -0.4189 -0.5725
   49CHL1  H18A 4760   4.687   4.882   3.633  0.1730 -0.7314 -0.7537
   49CHL1  H18B 4761   4.734   4.744   3.740  1.6876 -0.8157 -0.9020
   49CHL1  H18C 4762   4.728   4.912   3.804 -3.2563 -2.4303 -0.0114
   49CHL1   C12 4763   4.936   4.995   3.626 -0.2399  1.1049  0.4732
   49CHL1  H12A 4764   4.920   5.091   3.679 -3.0034  0.9095  0.1620
   49CHL1  H12B 4765   5.045   4.989   3.610  0.2154  0.3373  3.3622
   49CHL1   C11 4766   4.866   4.992   3.479  0.1798 -0.2114 -0.2581
   49CHL1  H11A 4767   4.758   5.011   3.496  0.6373  1.9790  0.6130
   49CHL1  H11B 4768   4.908   5.085   3.434 -3.0021  0.9315 -1.1275
   49CHL1    C9 4769   4.902   4.861   3.390  0.6260 -0.3450 -0.6156
   49CHL1    H9 4770   5.010   4.866   3.364  0.0315 -0.7444 -3.5769
   49CHL1   C10 4771   4.831   4.854   3.252 -0.8427  0.2325 -0.5609
   49CHL1   C19 4772   4.685   4.871   3.258  0.5761  0.6185  0.3857
   49CHL1  H19A 4773   4.652   4.974   3.283  0.1312  0.5862 -0.0529
   49CHL1  H19B 4774   4.643   4.859   3.156  1.4005  0.8583  0.0134
   49CHL1  H19C 4775   4.639   4.799   3.329  2.1731 -1.0329 -0.1912
   49CHL1    C1 4776   4.897   4.963   3.161  0.4941  0.3765  0.2684
   49CHL1   H1A 4777   4.866   5.054   3.216 -1.2926  1.3470 -2.1700
   49CHL1   H1B 4778   5.007   4.948   3.172  0.0325 -2.0750  2.7942
   49CHL1    C2 4779   4.876   4.951   3.014 -0.0901  0.5418  0.2312
   49CHL1   H2A 4780   4.937   5.025   2.958 -1.0652  1.9684  0.9925
   49CHL1   H2B 4781   4.769   4.964   2.988 -1.0086 -2.3441  2.0562
   49CHL1   C20 4782   4.937   4.892   3.958 -0.3709  0.6143  0.9227
   49CHL1   H20 4783   4.870   4.974   3.925  0.3726 -0.0903 -2.8547
   49CHL1   C21 4784   5.056   4.947   4.043  0.3860  0.3524 -0.6156
   49CHL1  H21A 4785   5.127   4.995   3.973 -0.6894  2.2848 -0.4725
   49CHL1  H21B 4786   5.098   4.861   4.099  1.4482  0.4636 -1.2132
   49CHL1  H21C 4787   5.033   5.015   4.128  0.8874  1.1024 -1.0665
   49CHL1   C22 4788   4.863   4.786   4.052  0.5801 -0.0033 -0.5356
   49CHL1  H22A 4789   4.784   4.748   3.983 -1.4022  3.5833 -0.4590
   49CHL1  H22B 4790   4.938   4.709   4.083  1.0515  1.1364  1.3325
   49CHL1   C23 4791   4.799   4.849   4.177  0.5918 -0.0583 -0.0114
   49CHL1  H23A 4792   4.878   4.892   4.241 -0.1647  1.5501 -0.1097
   49CHL1  H23B 4793   4.734   4.935   4.151 -0.8357 -0.8715  0.7558
   49CHL1   C24 4794   4.722   4.759   4.278 -0.1823 -0.2227 -0.0394
   49CHL1  H24A 4795   4.615   4.741   4.252 -0.0695 -0.5785 -0.2726
   49CHL1  H24B 4796   4.773   4.660   4.281  1.7295  0.7302  1.3893
   49CHL1   C25 4797   4.731   4.820   4.424  0.6154  0.1185 -0.7381
   49CHL1   H25 4798   4.835   4.826   4.462  0.0164  0.6894  0.9211
   49CHL1   C26 4799   4.659   4.952   4.431  0.8232  0.5447 -0.1465
   49CHL1  H26A 4800   4.643   4.988   4.535 -1.5606  0.3977 -0.4172
   49CHL1  H26B 4801   4.708   5.027   4.364 -1.0922 -1.1350 -3.6518
   49CHL1  H26C 4802   4.558   4.951   4.386  0.2446  1.2381  1.0635
   49CHL1   C27 4803   4.682   4.713   4.522  0.4416  0.5521  0.0344
   49CHL1  H27A 4804   4.748   4.624   4.517 -0.8448 -0.5048  1.0032
   49CHL1  H27B 4805   4.661   4.752   4.624  1.6079 -0.1228  0.5587
   49CHL1  H27C 4806   4.587   4.677   4.475  1.0505 -0.0413 -0.7780
   50CHL1    C3 4807   6.176   0.147   2.702  0.3814 -0.3461  0.5205
   50CHL1    H3 4808   6.249   0.229   2.718 -0.4357  0.5620 -0.2476
   50CHL1    O3 4809   6.155   0.149   2.561 -0.5842 -0.1819 -0.7906
   50CHL1   H3' 4810   6.063   0.173   2.546 -1.0921 -2.2829 -1.3761
   50CHL1    C4 4811   6.236   0.015   2.747  0.9524 -0.1793  0.0589
   50CHL1   H4A 4812   6.164  -0.066   2.724  0.5042  0.7330 -2.0089
   50CHL1   H4B 4813   6.328  -0.002   2.687 -1.1566 -0.4995 -3.3268
   50CHL1    C5 4814   6.258   0.003   2.894  0.0581 -0.4180  0.3293
   50CHL1    C6 4815   6.381  -0.036   2.942  0.1851 -0.1075 -0.3533
   50CHL1    H6 4816   6.464  -0.061   2.875 -0.3660 -1.6769 -0.5129
   50CHL1    C7 4817   6.408  -0.053   3.086  0.2315 -0.5596  0.2963
   50CHL1   H7A 4818   6.459  -0.151   3.095  1.6558  0.0983 -0.2251
   50CHL1   H7B 4819   6.485   0.018   3.123  1.6120 -1.0847 -1.4473
   50CHL1    C8 4820   6.278  -0.043   3.183 -0.5379 -0.5147  0.2637
   50CHL1    H8 4821   6.238  -0.146   3.174 -0.3851 -0.5226 -0.3581
   50CHL1   C14 4822   6.324  -0.015   3.326 -0.1830 -0.4311  0.3467
   50CHL1   H14 4823   6.387   0.077   3.328  1.4507 -1.5121  0.9657
   50CHL1   C15 4824   6.421  -0.115   3.393  0.2751  0.7916 -0.6068
   50CHL1  H15A 4825   6.402  -0.220   3.364 -0.0818  0.4469  0.8036
   50CHL1  H15B 4826   6.528  -0.101   3.370  0.9534 -2.8279 -0.1248
   50CHL1   C16 4827   6.402  -0.095   3.541 -0.3291  0.3495  0.0025
   50CHL1  H16A 4828   6.391  -0.187   3.601 -1.6709  1.2735  1.2275
   50CHL1  H16B 4829   6.495  -0.048   3.579  0.4574 -0.3044 -1.0507
   50CHL1   C17 4830   6.284   0.008   3.565 -0.4271  0.1814  0.1693
   50CHL1   H17 4831   6.334   0.107   3.562 -2.8885  1.4857 -0.4088
   50CHL1   C13 4832   6.205  -0.005   3.427 -0.7948  1.1647  0.6494
   50CHL1   C18 4833   6.108  -0.133   3.434 -0.5474  0.0312  0.2202
   50CHL1  H18A 4834   6.164  -0.225   3.461 -2.2745 -1.1056  0.1334
   50CHL1  H18B 4835   6.029  -0.124   3.512 -1.3612 -3.7634  0.0397
   50CHL1  H18C 4836   6.062  -0.167   3.339  0.2995 -0.6599  0.0396
   50CHL1   C12 4837   6.130   0.113   3.374  0.5377  0.9372  0.1456
   50CHL1  H12A 4838   6.046   0.151   3.436 -0.3961 -0.5023 -0.1911
   50CHL1  H12B 4839   6.206   0.194   3.369  0.1828  1.3499  1.0837
   50CHL1   C11 4840   6.063   0.089   3.233  0.0101 -0.1852 -0.5192
   50CHL1  H11A 4841   5.993   0.004   3.245  0.8950 -0.9416 -0.5539
   50CHL1  H11B 4842   6.005   0.175   3.192  2.1729  0.7998 -1.6949
   50CHL1    C9 4843   6.179   0.062   3.135 -0.9218 -0.4275 -0.7719
   50CHL1    H9 4844   6.243   0.152   3.143 -2.1759  0.3673  1.0614
   50CHL1   C10 4845   6.141   0.041   2.982  0.3729 -0.2166 -0.4047
   50CHL1   C19 4846   6.033  -0.073   2.988  0.4426 -0.7718  0.2541
   50CHL1  H19A 4847   6.005  -0.102   2.884  0.4693  2.0861 -0.6319
   50CHL1  H19B 4848   6.073  -0.160   3.045  2.6174 -0.1217 -0.1665
   50CHL1  H19C 4849   5.942  -0.030   3.034 -0.4377 -0.3476 -1.7622
   50CHL1    C1 4850   6.076   0.173   2.922 -0.2463  0.8183  0.1021
   50CHL1   H1A 4851   5.990   0.202   2.987  0.4807 -0.7171  1.8620
   50CHL1   H1B 4852   6.150   0.255   2.933 -0.6794  1.3645 -0.9451
   50CHL1    C2 4853   6.047   0.182   2.774 -0.5524  0.1150  0.6013
   50CHL1   H2A 4854   6.014   0.285   2.750 -1.5480 -0.3780 -0.2232
   50CHL1   H2B 4855   5.967   0.110   2.747  0.0105 -0.8194  1.3610
   50CHL1   C20 4856   6.213  -0.007   3.699 -0.3276 -0.2483  0.6450
   50CHL1   H20 4857   6.141  -0.092   3.700 -0.6154 -0.0042  2.1400
   50CHL1   C21 4858   6.135   0.131   3.709 -0.4387  0.4879 -0.2953
   50CHL1  H21A 4859   6.196   0.223   3.694 -1.0338  1.0801  0.7808
   50CHL1  H21B 4860   6.086   0.138   3.809 -1.1066 -0.1786 -0.5719
   50CHL1  H21C 4861   6.055   0.134   3.632  0.8831  0.9985 -1.7016
   50CHL1   C22 4862   6.323  -0.004   3.811 -0.2117  0.6848  0.5939
   50CHL1  H22A 4863   6.397  -0.087   3.818  0.8584  1.6274  0.8185
   50CHL1  H22B 4864   6.389   0.084   3.794 -0.0042  0.5469  0.6799
   50CHL1   C23 4865   6.263  -0.001   3.952  0.3716 -0.1298  0.1909
   50CHL1  H23A 4866   6.244   0.107   3.972  1.0193  0.1373 -0.5822
   50CHL1  H23B 4867   6.167  -0.057   3.962  0.2035  0.3763  1.6399
   50CHL1   C24 4868   6.360  -0.058   4.057  0.3861  0.4210  0.8244
   50CHL1  H24A 4869   6.315  -0.082   4.156 -1.1898 -1.9163 -0.3821
   50CHL1  H24B 4870   6.403  -0.152   4.017 -1.1344 -0.5684  1.4325
   50CHL1   C25 4871   6.492   0.023   4.076 -0.0499 -0.1291 -0.4187
   50CHL1   H25 4872   6.553   0.028   3.984  0.2512 -1.2634 -0.3023
   50CHL1   C26 4873   6.460   0.158   4.141  0.2382  0.7293 -0.5366
   50CHL1  H26A 4874   6.544   0.217   4.184 -0.3371  1.5022 -0.4734
   50CHL1  H26B 4875   6.411   0.221   4.064 -2.0960  3.2851  2.7665
   50CHL1  H26C 4876   6.379   0.147   4.216 -0.0393  0.1593 -0.9069
   50CHL1   C27 4877   6.577  -0.057   4.168 -0.2630  0.9571 -0.7279
   50CHL1  H27A 4878   6.521  -0.071   4.263  0.4770  3.0737  0.0824
   50CHL1  H27B 4879   6.618  -0.155   4.136  0.0480  1.3920 -1.6828
   50CHL1  H27C 4880   6.667   0.003   4.193  0.6237 -0.4455 -0.4553
   51CHL1    C3 4881   4.048   0.622   2.974  0.4387 -0.9001  0.5387
   51CHL1    H3 4882   3.994   0.717   2.952  1.8066 -0.1376  0.3813
   51CHL1    O3 4883   4.070   0.554   2.852  0.0938 -0.6840  0.8809
   51CHL1   H3' 4884   3.987   0.509   2.837 -0.9966  1.6459 -0.4616
   51CHL1    C4 4885   4.185   0.674   3.033  0.0294  0.5658 -0.2619
   51CHL1   H4A 4886   4.258   0.591   3.038  0.9991  1.4501  1.0263
   51CHL1   H4B 4887   4.237   0.739   2.959 -1.5323  3.3002  0.8689
   51CHL1    C5 4888   4.169   0.737   3.174  0.2611  0.2789 -0.5378
   51CHL1    C6 4889   4.215   0.856   3.199 -0.6773 -0.3442  0.9659
   51CHL1    H6 4890   4.255   0.895   3.105  0.5059 -3.4282  0.0496
   51CHL1    C7 4891   4.211   0.935   3.332 -0.2030  0.0511 -0.2181
   51CHL1   H7A 4892   4.297   1.003   3.348 -0.1468 -0.0207 -0.2108
   51CHL1   H7B 4893   4.129   1.010   3.328  1.6769  2.3258  1.3475
   51CHL1    C8 4894   4.183   0.833   3.447  0.1014 -0.3546 -0.1592
   51CHL1    H8 4895   4.274   0.774   3.469  0.2646 -0.4110 -0.9507
   51CHL1   C14 4896   4.122   0.905   3.573  0.5547  0.4782 -0.9024
   51CHL1   H14 4897   4.021   0.941   3.544 -0.5056  0.9650  2.8021
   51CHL1   C15 4898   4.193   1.026   3.638  0.2160  0.3015 -0.4457
   51CHL1  H15A 4899   4.302   1.007   3.632  0.3170  0.1577  1.3125
   51CHL1  H15B 4900   4.172   1.117   3.578  0.1918  0.0264 -0.8568
   51CHL1   C16 4901   4.153   1.043   3.785  0.0165 -0.4928 -0.4755
   51CHL1  H16A 4902   4.244   1.038   3.849 -1.1764 -1.5780  1.2306
   51CHL1  H16B 4903   4.096   1.136   3.809  0.9328  0.8160 -2.9965
   51CHL1   C17 4904   4.063   0.927   3.811  0.9280  0.1660 -0.3716
   51CHL1   H17 4905   3.961   0.958   3.781  0.6910 -1.3095 -1.1856
   51CHL1   C13 4906   4.098   0.819   3.696 -0.1895 -0.4175  1.1586
   51CHL1   C18 4907   4.230   0.752   3.724  0.4572  0.2806  0.7771
   51CHL1  H18A 4908   4.216   0.687   3.813  2.1446  0.3795  1.1515
   51CHL1  H18B 4909   4.265   0.691   3.638  1.1474  1.0154  0.5234
   51CHL1  H18C 4910   4.312   0.821   3.756 -0.0872  0.8620  0.9491
   51CHL1   C12 4911   3.991   0.720   3.651  0.1090  0.1616 -0.0215
   51CHL1  H12A 4912   3.960   0.638   3.720  3.0228 -1.8017 -0.8872
   51CHL1  H12B 4913   3.904   0.786   3.633 -1.2565 -1.1189  1.4938
   51CHL1   C11 4914   4.024   0.649   3.525  0.9697 -0.9062 -0.5558
   51CHL1  H11A 4915   4.108   0.584   3.557  0.0874 -0.3721  3.3969
   51CHL1  H11B 4916   3.935   0.586   3.499 -1.9107  2.2952  0.8261
   51CHL1    C9 4917   4.072   0.735   3.406  0.8716 -0.0242  0.0670
   51CHL1    H9 4918   3.991   0.805   3.378 -0.3324 -1.3904  0.0393
   51CHL1   C10 4919   4.096   0.657   3.279 -1.3945  0.4413 -0.2184
   51CHL1   C19 4920   4.186   0.531   3.309 -0.2614  0.3742 -0.1402
   51CHL1  H19A 4921   4.253   0.572   3.389 -0.1122  0.2649 -0.2095
   51CHL1  H19B 4922   4.125   0.452   3.358  0.5390 -1.0288 -1.3303
   51CHL1  H19C 4923   4.251   0.493   3.228 -0.6251 -0.7922  0.1021
   51CHL1    C1 4924   3.962   0.613   3.214 -0.0750  0.2189 -0.4141
   51CHL1   H1A 4925   3.916   0.537   3.282 -0.5479 -0.3673 -1.3652
   51CHL1   H1B 4926   3.894   0.701   3.212 -0.8132 -0.3499 -0.8941
   51CHL1    C2 4927   3.974   0.537   3.078  0.3408  0.8654  0.2638
   51CHL1   H2A 4928   3.871   0.518   3.043  0.4376  3.7810 -1.9853
   51CHL1   H2B 4929   4.022   0.437   3.089  1.1586  1.1269 -0.7427
   51CHL1   C20 4930   4.059   0.881   3.958  0.8303  0.4676 -0.2541
   51CHL1   H20 4931   4.159   0.850   3.995  0.9559 -0.9788 -1.6720
   51CHL1   C21 4932   3.969   0.759   3.976  0.8837  0.1567 -0.6282
   51CHL1  H21A 4933   4.008   0.663   3.936 -1.5275 -1.5519  0.8519
   51CHL1  H21B 4934   3.864   0.770   3.940 -1.0717  0.0778  4.3166
   51CHL1  H21C 4935   3.945   0.745   4.083  1.4350 -0.6655 -0.6007
   51CHL1   C22 4936   4.017   0.996   4.064 -0.8782 -0.5437  0.1467
   51CHL1  H22A 4937   4.069   1.090   4.034 -1.0968  1.0369  4.0682
   51CHL1  H22B 4938   3.907   1.010   4.058 -0.7734  1.1092  1.1700
   51CHL1   C23 4939   4.056   0.970   4.213 -0.3366  0.0234  0.2427
   51CHL1  H23A 4940   3.971   0.910   4.252  0.8538 -1.1162  1.1383
   51CHL1  H23B 4941   4.154   0.920   4.200 -0.7158  0.0112 -3.8193
   51CHL1   C24 4942   4.079   1.087   4.305  0.1824  0.2620 -0.1868
   51CHL1  H24A 4943   4.104   1.050   4.407 -3.5211  0.0309  0.7765
   51CHL1  H24B 4944   4.166   1.139   4.260  0.7544  0.4818  1.1326
   51CHL1   C25 4945   3.957   1.183   4.322  0.5304 -0.4204  0.2444
   51CHL1   H25 4946   3.930   1.237   4.229 -0.7371 -1.0219  0.2436
   51CHL1   C26 4947   3.839   1.106   4.379 -0.5714 -0.3920 -0.4590
   51CHL1  H26A 4948   3.874   1.043   4.463  0.6215  0.3770 -0.3634
   51CHL1  H26B 4949   3.765   1.181   4.415  2.1053  1.5977  1.3268
   51CHL1  H26C 4950   3.802   1.048   4.292  0.5075  0.9314 -1.8385
   51CHL1   C27 4951   3.995   1.306   4.408 -0.5129  0.4435 -0.4029
   51CHL1  H27A 4952   3.913   1.381   4.406  0.9592  2.1422  0.5643
   51CHL1  H27B 4953   4.015   1.276   4.514 -1.9621  0.4317 -0.1083
   51CHL1  H27C 4954   4.088   1.344   4.363 -0.7923  1.9257  0.2290
   52CHL1    C3 4955   4.100   3.301   2.779 -0.3195  0.9924  0.1443
   52CHL1    H3 4956   4.116   3.408   2.756  0.9793  0.9023  0.5303
   52CHL1    O3 4957   4.137   3.235   2.658  0.0008  0.5198 -0.3564
   52CHL1   H3' 4958   4.114   3.143   2.671 -1.7343  0.6338 -2.1246
   52CHL1    C4 4959   4.200   3.260   2.895 -0.3180  0.6540  0.6099
   52CHL1   H4A 4960   4.219   3.153   2.873 -3.0530  0.6520 -2.6424
   52CHL1   H4B 4961   4.292   3.316   2.868  0.5930 -0.9772  0.2526
   52CHL1    C5 4962   4.162   3.271   3.035 -0.1770  0.0087  0.1647
   52CHL1    C6 4963   4.247   3.324   3.125  0.0776 -0.3946  0.2257
   52CHL1    H6 4964   4.350   3.350   3.096 -0.4587  0.6579 -0.8076
   52CHL1    C7 4965   4.215   3.348   3.268  0.1061 -0.3718  0.0896
   52CHL1   H7A 4966   4.292   3.308   3.338  0.6444 -1.5197 -1.1141
   52CHL1   H7B 4967   4.212   3.456   3.291 -2.0968 -0.5533  0.9031
   52CHL1    C8 4968   4.079   3.273   3.308  0.2706 -0.1645 -0.0684
   52CHL1    H8 4969   4.098   3.165   3.322 -0.2288 -0.2918 -0.3662
   52CHL1   C14 4970   4.037   3.317   3.439 -0.0243 -0.6467 -0.4282
   52CHL1   H14 4971   4.018   3.426   3.435  1.7043  0.0020  3.6802
   52CHL1   C15 4972   4.147   3.299   3.554  0.1509 -0.5893 -0.0941
   52CHL1  H15A 4973   4.183   3.195   3.541  1.2563 -0.3680  1.0284
   52CHL1  H15B 4974   4.226   3.376   3.550 -1.6889  1.4494  0.8297
   52CHL1   C16 4975   4.057   3.310   3.682  0.2509 -0.6982 -0.0258
   52CHL1  H16A 4976   4.065   3.216   3.741  0.8540 -0.8027 -0.2625
   52CHL1  H16B 4977   4.088   3.400   3.739  0.7534  1.0146 -2.8214
   52CHL1   C17 4978   3.910   3.326   3.632  0.0386  0.1738  0.2816
   52CHL1   H17 4979   3.900   3.436   3.617  0.4631 -0.0251 -1.7226
   52CHL1   C13 4980   3.903   3.256   3.496  0.2535 -0.3589 -0.7290
   52CHL1   C18 4981   3.895   3.107   3.503  0.1287 -0.0344  0.6309
   52CHL1  H18A 4982   3.795   3.074   3.538 -0.9929  0.9052 -1.4987
   52CHL1  H18B 4983   3.903   3.062   3.401 -2.6262  2.6437 -0.9268
   52CHL1  H18C 4984   3.971   3.051   3.561 -0.4701  0.2045  1.6596
   52CHL1   C12 4985   3.807   3.323   3.398 -0.3064 -0.0864 -0.2674
   52CHL1  H12A 4986   3.700   3.311   3.424  0.1644 -1.4042  1.2068
   52CHL1  H12B 4987   3.823   3.433   3.393 -1.4942  0.0921 -0.3229
   52CHL1   C11 4988   3.829   3.276   3.253  0.1411  0.1007  0.6760
   52CHL1  H11A 4989   3.805   3.168   3.243 -0.4116  0.4068 -2.1480
   52CHL1  H11B 4990   3.753   3.333   3.194 -0.4094 -1.9735 -0.7281
   52CHL1    C9 4991   3.975   3.305   3.201 -0.2690 -0.4342 -0.3865
   52CHL1    H9 4992   3.986   3.415   3.186  1.5360 -0.6222 -0.6459
   52CHL1   C10 4993   4.009   3.251   3.061  0.7060 -0.2788 -0.2633
   52CHL1   C19 4994   3.987   3.096   3.065  0.1229  0.2411  0.3348
   52CHL1  H19A 4995   4.011   3.048   2.968 -0.1501  1.0441 -0.1361
   52CHL1  H19B 4996   4.029   3.040   3.151 -2.0210 -2.9823 -0.5325
   52CHL1  H19C 4997   3.878   3.079   3.080 -0.5729  2.4030 -1.7266
   52CHL1    C1 4998   3.914   3.303   2.952  0.1516 -0.1887 -0.6152
   52CHL1   H1A 4999   3.808   3.288   2.983  0.8578 -0.2071  1.9660
   52CHL1   H1B 5000   3.926   3.413   2.963 -1.4592 -0.1149  0.7795
   52CHL1    C2 5001   3.952   3.269   2.810  0.2309  0.3109  0.6646
   52CHL1   H2A 5002   3.878   3.325   2.748  1.0654  1.7945  0.9592
   52CHL1   H2B 5003   3.945   3.160   2.792 -0.1373  0.5715 -0.9976
   52CHL1   C20 5004   3.819   3.270   3.746 -0.4952  0.1241 -0.5821
   52CHL1   H20 5005   3.844   3.164   3.766  2.2120  1.0608  1.5968
   52CHL1   C21 5006   3.673   3.303   3.718 -0.2564 -0.1823 -0.3419
   52CHL1  H21A 5007   3.655   3.413   3.721  2.5110  0.4989  6.1160
   52CHL1  H21B 5008   3.615   3.266   3.805 -0.1006  1.1931  0.3666
   52CHL1  H21C 5009   3.649   3.260   3.618 -0.9643  1.2753 -0.8361
   52CHL1   C22 5010   3.856   3.335   3.886 -0.0698 -0.6055 -0.3112
   52CHL1  H22A 5011   3.966   3.349   3.891 -0.1057  0.5112 -1.7928
   52CHL1  H22B 5012   3.813   3.438   3.881  1.2566  0.0252  0.5018
   52CHL1   C23 5013   3.794   3.286   4.022 -0.4528 -0.0561 -0.2454
   52CHL1  H23A 5014   3.683   3.295   4.014 -0.4187  0.2133 -0.4309
   52CHL1  H23B 5015   3.833   3.182   4.031 -1.1389 -0.1680  2.2912
   52CHL1   C24 5016   3.853   3.363   4.139  0.3993  0.1729  0.0882
   52CHL1  H24A 5017   3.963   3.350   4.144  0.2563 -0.6277  3.2817
   52CHL1  H24B 5018   3.833   3.470   4.116  1.0122  0.4281  0.7216
   52CHL1   C25 5019   3.795   3.335   4.279 -0.6181  0.2209  0.4800
   52CHL1   H25 5020   3.691   3.373   4.290 -0.6747 -0.0208  0.7994
   52CHL1   C26 5021   3.797   3.188   4.313 -0.2817 -0.1661  0.8224
   52CHL1  H26A 5022   3.894   3.134   4.316  0.0068  0.2970  0.0942
   52CHL1  H26B 5023   3.746   3.153   4.406  1.8268 -1.4638  1.5749
   52CHL1  H26C 5024   3.752   3.130   4.230  0.4240 -1.0738  1.0567
   52CHL1   C27 5025   3.874   3.415   4.386 -0.5839  0.6651 -0.1402
   52CHL1  H27A 5026   3.832   3.389   4.486 -0.2545 -0.2655 -0.2399
   52CHL1  H27B 5027   3.980   3.383   4.382 -0.6840  0.4680 -1.6344
   52CHL1  H27C 5028   3.862   3.522   4.359 -0.8014 -0.0422 -3.1150
   53CHL1    C3 5029   3.510   2.240   2.909 -0.3869 -0.0567 -0.4752
   53CHL1    H3 5030   3.621   2.239   2.903 -0.4101  0.9805 -1.6270
   53CHL1    O3 5031   3.444   2.254   2.781 -0.9976 -0.2649  0.1862
   53CHL1   H3' 5032   3.487   2.187   2.728  0.6143 -0.5543  1.7370
   53CHL1    C4 5033   3.454   2.117   2.980  0.3204 -0.1400 -0.8632
   53CHL1   H4A 5034   3.343   2.125   2.975  0.1072 -2.0448 -0.0247
   53CHL1   H4B 5035   3.489   2.029   2.922  1.3575 -0.8134  0.7287
   53CHL1    C5 5036   3.511   2.116   3.123 -0.6568  0.2158  0.3491
   53CHL1    C6 5037   3.588   2.012   3.163  0.7265  0.1456 -0.6085
   53CHL1    H6 5038   3.616   1.926   3.099  0.9096  0.3457 -0.8004
   53CHL1    C7 5039   3.635   2.000   3.306  0.3153 -0.0364 -0.1235
   53CHL1   H7A 5040   3.638   1.896   3.346 -1.8163  0.8410  2.6076
   53CHL1   H7B 5041   3.743   2.027   3.300  0.5710 -1.1883 -0.9166
   53CHL1    C8 5042   3.568   2.095   3.406  0.0382  0.9136  0.0217
   53CHL1    H8 5043   3.466   2.054   3.424  0.2395  1.5444  3.1486
   53CHL1   C14 5044   3.651   2.126   3.532 -0.0310 -0.5329  0.1500
   53CHL1   H14 5045   3.739   2.176   3.486  0.7710 -1.0716  1.0731
   53CHL1   C15 5046   3.716   2.007   3.604 -0.5489  0.7771  0.2268
   53CHL1  H15A 5047   3.632   1.936   3.615 -0.0365  0.3234  1.3460
   53CHL1  H15B 5048   3.801   1.964   3.547 -0.4920  2.0066 -0.6526
   53CHL1   C16 5049   3.757   2.067   3.742  0.6441  0.0559  0.7147
   53CHL1  H16A 5050   3.716   1.997   3.816 -0.5861 -0.1821 -0.1663
   53CHL1  H16B 5051   3.867   2.064   3.760  0.6867 -2.3272  0.2826
   53CHL1   C17 5052   3.705   2.218   3.748 -0.0326  0.9394 -0.8448
   53CHL1   H17 5053   3.801   2.271   3.730  2.0257 -1.5834  1.6666
   53CHL1   C13 5054   3.598   2.222   3.636  0.0236  0.3737 -0.0427
   53CHL1   C18 5055   3.468   2.157   3.690 -0.1568  0.3487  0.8709
   53CHL1  H18A 5056   3.399   2.136   3.605 -1.8832 -2.2814  2.7356
   53CHL1  H18B 5057   3.486   2.058   3.739  1.1440 -0.1505 -0.5605
   53CHL1  H18C 5058   3.413   2.234   3.748  0.5623  1.9039 -0.4532
   53CHL1   C12 5059   3.569   2.362   3.573  0.4632  0.4884  0.1986
   53CHL1  H12A 5060   3.531   2.445   3.637  1.2889  0.0809  1.2470
   53CHL1  H12B 5061   3.674   2.388   3.546  0.6236  0.0152  0.3577
   53CHL1   C11 5062   3.483   2.343   3.448  0.3525 -0.1151  0.0165
   53CHL1  H11A 5063   3.376   2.321   3.471  0.6397 -0.5692  0.9517
   53CHL1  H11B 5064   3.476   2.446   3.405  0.5324 -0.3851 -0.6759
   53CHL1    C9 5065   3.544   2.242   3.347 -0.0727  0.7501  0.6043
   53CHL1    H9 5066   3.648   2.276   3.328  0.4070 -0.3301  1.1909
   53CHL1   C10 5067   3.472   2.236   3.211 -0.9580 -0.4251  0.4440
   53CHL1   C19 5068   3.321   2.235   3.237  0.2630  0.6181  0.1851
   53CHL1  H19A 5069   3.291   2.331   3.285 -0.5734 -0.3573  1.6860
   53CHL1  H19B 5070   3.267   2.223   3.141 -2.5234 -0.6623  1.7872
   53CHL1  H19C 5071   3.293   2.156   3.310 -0.5027  0.0692 -0.6783
   53CHL1    C1 5072   3.520   2.363   3.136  0.3154 -0.0460 -0.3961
   53CHL1   H1A 5073   3.486   2.459   3.180 -0.5851  0.3351 -1.8602
   53CHL1   H1B 5074   3.631   2.375   3.137  0.3363  0.0598  2.0119
   53CHL1    C2 5075   3.481   2.369   2.991  0.2384 -0.1575  0.4826
   53CHL1   H2A 5076   3.523   2.460   2.943  2.3924 -0.6805  1.2614
   53CHL1   H2B 5077   3.371   2.378   2.991  0.0718 -1.8397  0.1628
   53CHL1   C20 5078   3.669   2.253   3.892 -0.4587 -0.4061 -0.2009
   53CHL1   H20 5079   3.586   2.190   3.930  0.4510 -0.5828  1.6008
   53CHL1   C21 5080   3.627   2.402   3.895 -0.1878  0.3401 -0.2271
   53CHL1  H21A 5081   3.717   2.460   3.865 -0.5298  1.5419  0.9981
   53CHL1  H21B 5082   3.611   2.441   3.997  0.6340 -0.2088  0.1232
   53CHL1  H21C 5083   3.542   2.429   3.828  0.9860  0.6583 -1.6362
   53CHL1   C22 5084   3.792   2.232   3.994  0.2025 -0.3512  0.1627
   53CHL1  H22A 5085   3.801   2.122   4.000 -0.0043 -0.4273 -0.8453
   53CHL1  H22B 5086   3.885   2.273   3.950  0.4744 -1.2367 -0.1043
   53CHL1   C23 5087   3.763   2.278   4.139 -0.4159  0.0990 -0.3725
   53CHL1  H23A 5088   3.758   2.389   4.144 -0.6780  0.0470  0.7428
   53CHL1  H23B 5089   3.665   2.239   4.173 -1.0685 -2.8698 -4.7386
   53CHL1   C24 5090   3.874   2.243   4.236  0.3102 -0.2357  0.1769
   53CHL1  H24A 5091   3.900   2.139   4.209 -0.6349 -0.7676  1.2110
   53CHL1  H24B 5092   3.953   2.313   4.203 -2.4504  1.1466 -4.4340
   53CHL1   C25 5093   3.835   2.261   4.383  0.2798  0.1569  0.6502
   53CHL1   H25 5094   3.787   2.362   4.389 -1.8073 -0.7963  1.0702
   53CHL1   C26 5095   3.725   2.154   4.427 -0.5689  0.6102 -0.3367
   53CHL1  H26A 5096   3.755   2.055   4.387 -1.5535 -0.2614  0.9554
   53CHL1  H26B 5097   3.727   2.138   4.537 -2.3378 -1.9390 -0.5762
   53CHL1  H26C 5098   3.623   2.179   4.391 -1.6041 -1.2959  1.0270
   53CHL1   C27 5099   3.964   2.244   4.472 -0.2454 -0.1609 -0.3540
   53CHL1  H27A 5100   3.930   2.267   4.575 -1.6776 -1.8998 -0.3865
   53CHL1  H27B 5101   4.000   2.139   4.463  0.0415 -0.2247  1.3021
   53CHL1  H27C 5102   4.049   2.307   4.438 -0.7251  0.8980  0.3410
   54CHL1    C3 5103   2.948   2.508   2.976 -0.3266 -1.0045 -0.1390
   54CHL1    H3 5104   2.915   2.403   2.993  0.9210 -1.4439 -0.3426
   54CHL1    O3 5105   2.934   2.539   2.837 -0.5072 -0.4783 -0.5990
   54CHL1   H3' 5106   3.018   2.570   2.804 -0.6704  1.4198  0.5953
   54CHL1    C4 5107   2.863   2.599   3.057 -0.0947  0.1891 -0.4979
   54CHL1   H4A 5108   2.874   2.702   3.017  1.6797 -0.0469 -0.6587
   54CHL1   H4B 5109   2.758   2.568   3.035 -0.3341 -0.4420  1.3280
   54CHL1    C5 5110   2.875   2.601   3.211 -0.0207  0.2265 -0.1544
   54CHL1    C6 5111   2.772   2.567   3.289 -0.6568  0.4218 -0.1130
   54CHL1    H6 5112   2.668   2.560   3.254 -1.2624 -0.1210  1.6802
   54CHL1    C7 5113   2.785   2.574   3.437  0.3063 -0.5051 -0.0822
   54CHL1   H7A 5114   2.703   2.638   3.476  0.8505  0.7945 -0.9882
   54CHL1   H7B 5115   2.766   2.474   3.481 -0.2994 -0.4217 -0.1444
   54CHL1    C8 5116   2.926   2.630   3.487  0.6043 -0.2460  0.2101
   54CHL1    H8 5117   2.918   2.740   3.478 -0.7821 -0.3875 -0.5120
   54CHL1   C14 5118   2.946   2.594   3.638 -0.3104  0.2752  0.3614
   54CHL1   H14 5119   2.950   2.483   3.637 -0.0136  0.2783 -1.1310
   54CHL1   C15 5120   2.836   2.629   3.743 -0.9162 -0.7042  0.5635
   54CHL1  H15A 5121   2.796   2.730   3.721 -0.0351 -0.0888  1.6699
   54CHL1  H15B 5122   2.750   2.560   3.752 -0.0338 -1.7566  1.2318
   54CHL1   C16 5123   2.911   2.633   3.880  0.0502 -0.0805  0.5219
   54CHL1  H16A 5124   2.901   2.739   3.913  1.4370 -0.0694  0.9730
   54CHL1  H16B 5125   2.871   2.554   3.947 -0.7862 -0.1327 -0.0264
   54CHL1   C17 5126   3.058   2.600   3.842 -0.4646  0.8947 -0.4187
   54CHL1   H17 5127   3.059   2.489   3.835 -1.1007  0.9586 -1.7953
   54CHL1   C13 5128   3.076   2.644   3.697 -1.2397 -0.1862  0.3426
   54CHL1   C18 5129   3.072   2.796   3.700 -0.5922  0.5008  0.0674
   54CHL1  H18A 5130   3.064   2.833   3.804 -0.2749  1.1821 -0.1469
   54CHL1  H18B 5131   3.164   2.840   3.656 -0.2998  0.1380  0.3142
   54CHL1  H18C 5132   2.983   2.836   3.647  0.9356  0.5552 -2.6673
   54CHL1   C12 5133   3.197   2.593   3.613  0.0208 -0.3663 -0.1292
   54CHL1  H12A 5134   3.289   2.651   3.638  2.0782 -3.4371  0.0674
   54CHL1  H12B 5135   3.216   2.486   3.636 -0.2997 -0.6300 -1.0722
   54CHL1   C11 5136   3.178   2.620   3.463  0.4472 -0.0552 -0.4050
   54CHL1  H11A 5137   3.192   2.729   3.448 -1.2490  0.0148 -1.7469
   54CHL1  H11B 5138   3.259   2.560   3.415  0.4961 -1.0487  0.8666
   54CHL1    C9 5139   3.040   2.576   3.404  0.5954  0.0572  0.0452
   54CHL1    H9 5140   3.042   2.465   3.410  0.8692  0.1121  1.1317
   54CHL1   C10 5141   3.023   2.616   3.255 -0.2556 -1.1065  0.5873
   54CHL1   C19 5142   3.065   2.764   3.225 -0.6899 -0.4929 -0.3454
   54CHL1  H19A 5143   3.012   2.847   3.275 -0.0917  0.1893 -0.8286
   54CHL1  H19B 5144   3.175   2.773   3.239 -0.8858  0.5801  0.5955
   54CHL1  H19C 5145   3.049   2.784   3.117  1.9110 -0.3229 -0.7619
   54CHL1    C1 5146   3.109   2.522   3.172 -0.4699  0.0380 -0.1380
   54CHL1   H1A 5147   3.216   2.537   3.194 -0.4320 -1.7906  1.1173
   54CHL1   H1B 5148   3.092   2.416   3.199 -0.4467 -0.1543 -0.8478
   54CHL1    C2 5149   3.092   2.529   3.020 -0.2477 -0.4967 -0.1556
   54CHL1   H2A 5150   3.153   2.460   2.959  1.6659  1.6599 -0.8499
   54CHL1   H2B 5151   3.126   2.631   2.992 -1.8547  0.1311  0.0869
   54CHL1   C20 5152   3.164   2.644   3.952  0.1070  0.3843 -0.2202
   54CHL1   H20 5153   3.177   2.754   3.951  2.3772  0.1843 -2.2780
   54CHL1   C21 5154   3.293   2.588   3.906 -0.3305 -0.1464  0.5927
   54CHL1  H21A 5155   3.288   2.481   3.876  1.9397  0.2367 -1.5089
   54CHL1  H21B 5156   3.358   2.600   3.995  0.4589  2.0863 -0.2251
   54CHL1  H21C 5157   3.352   2.641   3.829 -0.8051 -0.9178 -0.3327
   54CHL1   C22 5158   3.130   2.595   4.092  0.4113 -0.1610  0.3785
   54CHL1  H22A 5159   3.216   2.627   4.155  0.0832  1.1186  0.1963
   54CHL1  H22B 5160   3.036   2.641   4.130  0.0956 -0.9104  0.5123
   54CHL1   C23 5161   3.121   2.443   4.116  0.1731  0.0125 -0.1429
   54CHL1  H23A 5162   3.039   2.414   4.047 -2.4611  2.0948  1.9057
   54CHL1  H23B 5163   3.217   2.399   4.083  0.4230  0.2481  0.2533
   54CHL1   C24 5164   3.081   2.411   4.264 -0.3958 -0.0601 -0.4719
   54CHL1  H24A 5165   2.987   2.464   4.292  0.5422  2.2604 -1.5085
   54CHL1  H24B 5166   3.043   2.307   4.271 -1.2323  0.1368 -1.6880
   54CHL1   C25 5167   3.197   2.437   4.360  0.2231 -0.6755 -0.3595
   54CHL1   H25 5168   3.260   2.525   4.333 -0.1331 -0.7868 -1.6262
   54CHL1   C26 5169   3.152   2.460   4.499  0.6753  0.3858 -0.3501
   54CHL1  H26A 5170   3.133   2.366   4.555  1.3348 -0.1168 -0.9520
   54CHL1  H26B 5171   3.232   2.508   4.561  0.0586 -0.4093  1.1169
   54CHL1  H26C 5172   3.066   2.529   4.511  0.1015 -0.1166 -1.4421
   54CHL1   C27 5173   3.307   2.328   4.338 -0.3684  0.2957  0.7304
   54CHL1  H27A 5174   3.340   2.319   4.233  0.9694  1.4648  1.0181
   54CHL1  H27B 5175   3.401   2.334   4.397 -0.6458  0.5387  1.1595
   54CHL1  H27C 5176   3.254   2.235   4.369  1.5154 -0.5590  1.5841
   55CHL1    C3 5177   2.975   6.316   2.711  0.2197  0.2018 -0.1155
   55CHL1    H3 5178   3.020   6.405   2.758 -0.3812 -1.0894  3.2324
   55CHL1    O3 5179   2.978   6.335   2.566 -0.1246  0.4194 -0.2518
   55CHL1   H3' 5180   2.964   6.430   2.554 -1.1559  0.2597 -0.3556
   55CHL1    C4 5181   3.052   6.187   2.757  0.8643 -0.1383 -0.0151
   55CHL1   H4A 5182   2.998   6.103   2.708  1.5515 -1.9513  2.1426
   55CHL1   H4B 5183   3.159   6.184   2.728  1.2644 -1.2511  1.4399
   55CHL1    C5 5184   3.040   6.171   2.908  0.1988  0.7619  0.2798
   55CHL1    C6 5185   3.147   6.174   2.986 -0.1260  0.6688 -0.3783
   55CHL1    H6 5186   3.249   6.178   2.946  0.2682  0.4696  0.5810
   55CHL1    C7 5187   3.134   6.144   3.138 -0.2867 -1.3776 -0.1493
   55CHL1   H7A 5188   3.208   6.075   3.183  1.7587  0.7689 -0.0500
   55CHL1   H7B 5189   3.153   6.241   3.188 -1.5691  0.1182 -2.3882
   55CHL1    C8 5190   2.992   6.098   3.186  0.4668  0.1005 -0.8418
   55CHL1    H8 5191   2.990   5.988   3.167  1.8839 -0.4885  1.9563
   55CHL1   C14 5192   2.976   6.133   3.336 -0.5015  0.0636  0.1329
   55CHL1   H14 5193   2.966   6.244   3.339  0.8618  0.1936  1.1654
   55CHL1   C15 5194   3.096   6.102   3.428  0.9969  1.2248 -0.1352
   55CHL1  H15A 5195   3.145   6.004   3.408  0.9333  1.0449  0.5556
   55CHL1  H15B 5196   3.181   6.173   3.420  1.5653  0.4263 -1.6464
   55CHL1   C16 5197   3.021   6.091   3.564 -0.3190  0.0232 -0.2097
   55CHL1  H16A 5198   3.050   5.992   3.605  2.5015  0.7209 -0.3235
   55CHL1  H16B 5199   3.061   6.171   3.630  1.1851 -1.4701  0.7828
   55CHL1   C17 5200   2.865   6.113   3.545  0.2934 -0.1308  0.2999
   55CHL1   H17 5201   2.847   6.222   3.553  0.0307  0.0746 -2.2508
   55CHL1   C13 5202   2.843   6.080   3.397 -0.0854  0.2440 -0.5661
   55CHL1   C18 5203   2.831   5.930   3.378  0.3602  0.0781 -0.3211
   55CHL1  H18A 5204   2.911   5.876   3.433  0.0195 -1.7354 -1.5110
   55CHL1  H18B 5205   2.735   5.905   3.427  0.9814 -0.6647  0.5298
   55CHL1  H18C 5206   2.817   5.898   3.272  0.5658  2.1116 -1.0173
   55CHL1   C12 5207   2.730   6.163   3.324  0.4934  0.4609 -0.2782
   55CHL1  H12A 5208   2.625   6.137   3.351  0.7134 -0.3307 -0.1543
   55CHL1  H12B 5209   2.744   6.273   3.337  1.4859  0.0589  3.0634
   55CHL1   C11 5210   2.738   6.129   3.174  0.3528 -0.9203  0.5418
   55CHL1  H11A 5211   2.700   6.026   3.161 -1.8587  0.2131 -3.5573
   55CHL1  H11B 5212   2.660   6.194   3.130  0.2620 -0.4004  1.4418
   55CHL1    C9 5213   2.874   6.170   3.117  0.0120 -0.1228  0.0639
   55CHL1    H9 5214   2.877   6.278   3.143  0.4777  0.3313 -1.6896
   55CHL1   C10 5215   2.888   6.160   2.965 -1.1141 -0.6895 -0.2546
   55CHL1   C19 5216   2.831   6.031   2.922 -0.6214 -0.2281  0.3141
   55CHL1  H19A 5217   2.828   6.014   2.812 -0.3677 -1.6894  0.5048
   55CHL1  H19B 5218   2.872   5.941   2.972  2.4697 -0.0804 -1.6580
   55CHL1  H19C 5219   2.724   6.033   2.950 -1.1506 -0.0404 -1.5954
   55CHL1    C1 5220   2.812   6.288   2.912 -0.1805  0.4888 -0.0956
   55CHL1   H1A 5221   2.704   6.268   2.927  0.0136  0.1989  1.0423
   55CHL1   H1B 5222   2.849   6.382   2.958  0.8801  1.6443 -3.0644
   55CHL1    C2 5223   2.827   6.312   2.759 -0.1798  0.1603  0.7963
   55CHL1   H2A 5224   2.791   6.416   2.743  1.4310  0.5856 -0.2361
   55CHL1   H2B 5225   2.765   6.242   2.699 -0.2631 -0.0122  1.0820
   55CHL1   C20 5226   2.783   6.054   3.663  0.0564  0.2604 -0.6116
   55CHL1   H20 5227   2.807   5.945   3.672  0.4878  0.4177  0.3223
   55CHL1   C21 5228   2.637   6.072   3.623  0.8012 -0.3646  0.1457
   55CHL1  H21A 5229   2.614   6.000   3.541 -2.3848 -0.1594  0.7398
   55CHL1  H21B 5230   2.612   6.180   3.612  0.6355 -0.2853  1.1742
   55CHL1  H21C 5231   2.563   6.031   3.695  1.2937 -1.0121  0.2916
   55CHL1   C22 5232   2.814   6.111   3.809 -0.4161  0.6268 -0.1921
   55CHL1  H22A 5233   2.925   6.114   3.813 -0.3943  0.9521 -0.9788
   55CHL1  H22B 5234   2.769   6.212   3.803 -0.5988  0.5958  0.5207
   55CHL1   C23 5235   2.755   6.027   3.921 -0.3836  0.5732 -0.4673
   55CHL1  H23A 5236   2.695   5.941   3.885  1.0369 -0.1411 -1.2491
   55CHL1  H23B 5237   2.845   5.980   3.967  0.7684 -0.1484 -3.2675
   55CHL1   C24 5238   2.673   6.111   4.021 -0.1183 -0.7892  0.3743
   55CHL1  H24A 5239   2.734   6.200   4.048 -0.5785  0.6273 -2.8103
   55CHL1  H24B 5240   2.583   6.155   3.973  0.3803 -0.2940 -0.1182
   55CHL1   C25 5241   2.632   6.034   4.150  0.7801 -0.3386 -0.3595
   55CHL1   H25 5242   2.727   5.996   4.192 -0.7066 -1.8623  1.8932
   55CHL1   C26 5243   2.571   6.132   4.250 -0.3136 -0.4309  0.0329
   55CHL1  H26A 5244   2.642   6.214   4.275 -1.9662  0.9813  0.2442
   55CHL1  H26B 5245   2.485   6.186   4.207 -0.1511 -0.0661  0.1612
   55CHL1  H26C 5246   2.539   6.082   4.344 -0.2445  1.2439  0.9879
   55CHL1   C27 5247   2.531   5.916   4.124  0.0379  0.5250  0.3121
   55CHL1  H27A 5248   2.434   5.955   4.087 -0.2535 -0.6251 -0.1775
   55CHL1  H27B 5249   2.565   5.850   4.042 -0.5495 -0.7592  1.0665
   55CHL1  H27C 5250   2.516   5.847   4.210  0.3903 -0.9290 -0.7595
   56CHL1    C3 5251   5.556   0.504   3.026 -0.4639 -0.1088  0.2329
   56CHL1    H3 5252   5.582   0.424   3.099  1.4227 -0.1193 -0.4017
   56CHL1    O3 5253   5.591   0.466   2.894  0.2781 -0.0440 -0.4127
   56CHL1   H3' 5254   5.563   0.546   2.849  2.4106  0.0996 -1.6046
   56CHL1    C4 5255   5.414   0.547   3.047  0.0612  0.6569  0.1807
   56CHL1   H4A 5256   5.375   0.620   2.973  0.1367  1.6463  1.0825
   56CHL1   H4B 5257   5.358   0.452   3.036  0.7518  0.1338  1.0354
   56CHL1    C5 5258   5.382   0.586   3.184 -0.2737 -0.5102  0.1037
   56CHL1    C6 5259   5.286   0.530   3.254  0.4616  0.8290 -0.3627
   56CHL1    H6 5260   5.215   0.469   3.196  0.4550 -0.3230  0.8118
   56CHL1    C7 5261   5.250   0.554   3.400  0.7367  0.4954  0.3191
   56CHL1   H7A 5262   5.139   0.566   3.410  0.5718 -1.3445  0.9367
   56CHL1   H7B 5263   5.288   0.467   3.457  0.9814  0.3412 -0.0772
   56CHL1    C8 5264   5.313   0.685   3.451  0.1487 -0.2689  0.1983
   56CHL1    H8 5265   5.249   0.767   3.414  0.6537 -0.5607 -1.4154
   56CHL1   C14 5266   5.311   0.684   3.604 -0.0644  0.3824  0.2991
   56CHL1   H14 5267   5.361   0.591   3.637  0.6067  0.2761 -0.9657
   56CHL1   C15 5268   5.174   0.676   3.671 -0.1613 -0.0350 -1.3233
   56CHL1  H15A 5269   5.104   0.753   3.632 -4.5160 -2.2370  1.3172
   56CHL1  H15B 5270   5.127   0.578   3.654 -3.5854  1.1726  0.3089
   56CHL1   C16 5271   5.213   0.699   3.818  0.3540  0.3147 -0.1072
   56CHL1  H16A 5272   5.142   0.762   3.875  1.3680  0.4810  1.0059
   56CHL1  H16B 5273   5.208   0.598   3.863 -0.4200  0.2043 -0.4244
   56CHL1   C17 5274   5.359   0.752   3.825  0.2718 -0.4689  0.0055
   56CHL1   H17 5275   5.425   0.665   3.845 -0.2106 -1.0481 -0.8725
   56CHL1   C13 5276   5.389   0.793   3.678 -0.1304  0.7066 -0.1881
   56CHL1   C18 5277   5.330   0.930   3.649  0.3070  0.4293 -0.2880
   56CHL1  H18A 5278   5.336   0.961   3.543 -0.2840 -1.0248 -0.7768
   56CHL1  H18B 5279   5.230   0.949   3.694  1.7800  2.0437  2.6046
   56CHL1  H18C 5280   5.400   1.003   3.694  2.2971 -1.8275  0.4596
   56CHL1   C12 5281   5.530   0.791   3.632  0.3037 -0.7816  0.1899
   56CHL1  H12A 5282   5.590   0.879   3.662 -1.8195  0.9237 -0.3097
   56CHL1  H12B 5283   5.578   0.698   3.669  1.4693 -1.0803 -1.9015
   56CHL1   C11 5284   5.535   0.803   3.472  0.1922  0.0055 -0.0734
   56CHL1  H11A 5285   5.489   0.900   3.444  2.4988  1.0057 -0.6407
   56CHL1  H11B 5286   5.641   0.797   3.438  0.4379 -3.1949  0.9101
   56CHL1    C9 5287   5.460   0.693   3.404 -0.2265 -0.1325 -0.2768
   56CHL1    H9 5288   5.507   0.598   3.438 -0.3189 -1.5192 -3.6339
   56CHL1   C10 5289   5.474   0.688   3.258 -0.1119 -0.6602  1.5275
   56CHL1   C19 5290   5.444   0.828   3.191  0.7394 -0.3023  1.0171
   56CHL1  H19A 5291   5.455   0.824   3.080  0.2018  1.1110  0.8977
   56CHL1  H19B 5292   5.341   0.864   3.212  0.1948  0.1421 -1.9684
   56CHL1  H19C 5293   5.507   0.907   3.235  0.5899  0.1704  0.3985
   56CHL1    C1 5294   5.623   0.649   3.211 -0.2818  0.7126 -0.6033
   56CHL1   H1A 5295   5.697   0.725   3.245 -0.8923  2.0189 -2.0555
   56CHL1   H1B 5296   5.659   0.562   3.269 -0.3649  0.5461 -0.7997
   56CHL1    C2 5297   5.652   0.618   3.067  0.1234  1.1633 -0.1676
   56CHL1   H2A 5298   5.752   0.571   3.062 -0.8297 -0.9886 -0.1634
   56CHL1   H2B 5299   5.642   0.697   2.989 -1.0282  0.1430 -1.0806
   56CHL1   C20 5300   5.381   0.859   3.936 -0.8694 -0.2707  0.0205
   56CHL1   H20 5301   5.330   0.955   3.912 -0.7310 -0.2591 -0.2235
   56CHL1   C21 5302   5.532   0.885   3.957  0.3537 -0.1753 -0.1931
   56CHL1  H21A 5303   5.569   0.792   4.005  0.2486  0.0639  0.3587
   56CHL1  H21B 5304   5.548   0.964   4.034  1.1779 -1.1483  0.6743
   56CHL1  H21C 5305   5.594   0.916   3.870  0.6883 -0.1216  0.0596
   56CHL1   C22 5306   5.328   0.817   4.075  0.3247 -0.3698  0.2988
   56CHL1  H22A 5307   5.244   0.745   4.065 -1.4474  1.7768 -1.2430
   56CHL1  H22B 5308   5.406   0.768   4.137  1.5462 -1.7273 -2.1881
   56CHL1   C23 5309   5.259   0.935   4.145 -0.5986  0.3231 -0.4320
   56CHL1  H23A 5310   5.339   1.002   4.182  0.3179 -0.9540 -0.0220
   56CHL1  H23B 5311   5.208   0.996   4.067 -0.4339  1.2380  0.1663
   56CHL1   C24 5312   5.155   0.901   4.252  0.0607 -0.1421  0.1154
   56CHL1  H24A 5313   5.191   0.832   4.331 -0.5363 -1.0853 -0.4170
   56CHL1  H24B 5314   5.125   0.997   4.298 -3.0185 -0.6270 -0.7053
   56CHL1   C25 5315   5.028   0.832   4.197  0.4790  0.1188  0.2776
   56CHL1   H25 5316   5.062   0.738   4.148  0.7631 -1.5031  3.3039
   56CHL1   C26 5317   4.931   0.796   4.305 -0.4117  0.5793  0.1897
   56CHL1  H26A 5318   4.846   0.732   4.276 -0.2075  0.5820 -0.4346
   56CHL1  H26B 5319   4.993   0.749   4.384  0.5601  2.3191  0.5209
   56CHL1  H26C 5320   4.889   0.883   4.358  0.6960  1.2749 -0.0269
   56CHL1   C27 5321   4.957   0.916   4.089 -0.1748 -0.0252  0.1778
   56CHL1  H27A 5322   4.939   1.022   4.114 -2.4513 -0.4827  0.7211
   56CHL1  H27B 5323   5.021   0.918   3.998 -0.0638  0.3349  0.2633
   56CHL1  H27C 5324   4.863   0.871   4.050  0.6619 -1.0977 -0.6845
   57CHL1    C3 5325   4.487   6.525   2.974  0.3419  0.4645 -0.1968
   57CHL1    H3 5326   4.438   6.623   2.995  0.4357  0.2586  1.1074
   57CHL1    O3 5327   4.500   6.504   2.839 -0.0793  0.1177 -0.1925
   57CHL1   H3' 5328   4.552   6.424   2.828  0.4688  0.0995  2.0551
   57CHL1    C4 5329   4.633   6.534   3.020  0.4517 -0.1426 -0.5216
   57CHL1   H4A 5330   4.693   6.442   3.000 -0.9116 -1.2733  0.3847
   57CHL1   H4B 5331   4.684   6.609   2.956  0.9904  0.7629  0.9330
   57CHL1    C5 5332   4.637   6.567   3.168 -0.6182  0.0255 -0.4351
   57CHL1    C6 5333   4.705   6.673   3.213 -0.0800 -0.1182  0.4210
   57CHL1    H6 5334   4.761   6.733   3.140  0.1301 -1.8617 -0.9118
   57CHL1    C7 5335   4.721   6.721   3.351 -0.0287  0.5306 -0.5518
   57CHL1   H7A 5336   4.824   6.753   3.379 -0.2603  0.0822  0.8774
   57CHL1   H7B 5337   4.655   6.808   3.368 -1.2122 -0.0486 -1.9224
   57CHL1    C8 5338   4.671   6.607   3.448  0.4227  0.5815 -0.6919
   57CHL1    H8 5339   4.741   6.521   3.440  2.1985  1.7263  1.3862
   57CHL1   C14 5340   4.667   6.657   3.590 -0.1062 -0.0704  0.1436
   57CHL1   H14 5341   4.591   6.738   3.577  0.5346  0.5239  0.0566
   57CHL1   C15 5342   4.785   6.733   3.649 -0.0966  0.0310 -0.0959
   57CHL1  H15A 5343   4.874   6.670   3.627 -1.9206 -1.7042 -3.2910
   57CHL1  H15B 5344   4.797   6.835   3.608  1.4751 -0.1828 -0.2029
   57CHL1   C16 5345   4.755   6.732   3.798 -0.3650 -0.0928 -0.1587
   57CHL1  H16A 5346   4.850   6.701   3.848 -1.9612 -2.4371  1.6751
   57CHL1  H16B 5347   4.732   6.838   3.824  0.2493  1.3067 -4.5863
   57CHL1   C17 5348   4.629   6.649   3.823  0.7515 -0.3642  0.5944
   57CHL1   H17 5349   4.549   6.726   3.819  0.7288 -0.3639  1.0375
   57CHL1   C13 5350   4.620   6.560   3.693 -0.5078 -0.5567 -0.9047
   57CHL1   C18 5351   4.710   6.438   3.699  0.1723 -0.0133 -1.0129
   57CHL1  H18A 5352   4.811   6.457   3.742 -0.5419  0.9934  0.2980
   57CHL1  H18B 5353   4.666   6.351   3.753  2.7991 -1.6123 -1.2725
   57CHL1  H18C 5354   4.706   6.393   3.598  1.7151  0.6331 -1.3776
   57CHL1   C12 5355   4.478   6.519   3.651  0.6935  0.3749  0.0915
   57CHL1  H12A 5356   4.443   6.441   3.721  2.7047  0.7161  1.5643
   57CHL1  H12B 5357   4.398   6.596   3.644  0.8685  0.5817  0.3735
   57CHL1   C11 5358   4.464   6.448   3.513  0.1245 -0.3174 -0.3001
   57CHL1  H11A 5359   4.496   6.342   3.523  0.3263 -0.3677 -1.4372
   57CHL1  H11B 5360   4.355   6.447   3.491  0.1052 -3.3997 -0.4987
   57CHL1    C9 5361   4.533   6.540   3.405  0.1094  0.2162  0.7193
   57CHL1    H9 5362   4.464   6.624   3.383 -0.3821  0.3965  2.8201
   57CHL1   C10 5363   4.559   6.473   3.263 -0.6163 -0.6023  0.0156
   57CHL1   C19 5364   4.628   6.340   3.277 -0.1007 -0.1990  0.3197
   57CHL1  H19A 5365   4.674   6.304   3.183 -0.4898  0.7431 -0.2432
   57CHL1  H19B 5366   4.709   6.356   3.352 -1.0581  0.5825  1.2264
   57CHL1  H19C 5367   4.556   6.267   3.321  0.5265 -1.4873 -0.7326
   57CHL1    C1 5368   4.422   6.441   3.194  0.2823 -0.3466  0.0561
   57CHL1   H1A 5369   4.382   6.350   3.244  2.8288 -0.4003  2.2150
   57CHL1   H1B 5370   4.350   6.522   3.216  0.4254 -0.2924  0.3327
   57CHL1    C2 5371   4.421   6.406   3.050  0.2721  0.4103  0.0348
   57CHL1   H2A 5372   4.317   6.388   3.017  0.7992  0.4213 -1.7350
   57CHL1   H2B 5373   4.479   6.315   3.022 -0.5507  0.1591 -0.8937
   57CHL1   C20 5374   4.633   6.586   3.964  0.0875 -0.1797 -0.7600
   57CHL1   H20 5375   4.714   6.509   3.966  0.2791 -0.0004  2.0520
   57CHL1   C21 5376   4.514   6.502   4.004  0.5037  0.3318 -0.7159
   57CHL1  H21A 5377   4.508   6.407   3.947  1.4154 -2.3884  3.2993
   57CHL1  H21B 5378   4.425   6.568   4.006 -0.2868 -0.7180 -0.5182
   57CHL1  H21C 5379   4.538   6.462   4.104  0.7101  0.4053 -0.7348
   57CHL1   C22 5380   4.664   6.691   4.079 -0.5148 -0.2624 -0.4157
   57CHL1  H22A 5381   4.686   6.650   4.180 -0.0584  3.4606  1.1701
   57CHL1  H22B 5382   4.763   6.736   4.053  0.4814 -1.6725  0.7448
   57CHL1   C23 5383   4.551   6.794   4.102 -0.3967 -1.2940 -0.2297
   57CHL1  H23A 5384   4.527   6.845   4.006 -0.0698  0.4182  0.5608
   57CHL1  H23B 5385   4.461   6.748   4.148 -0.8568 -0.4543 -0.2789
   57CHL1   C24 5386   4.603   6.903   4.200  0.4762 -0.3974  0.2420
   57CHL1  H24A 5387   4.647   6.852   4.289 -1.8556 -2.6923  0.1849
   57CHL1  H24B 5388   4.685   6.971   4.168  1.1419 -0.8998  0.8122
   57CHL1   C25 5389   4.493   7.007   4.235  0.3543  0.1400  0.2303
   57CHL1   H25 5390   4.452   7.035   4.135  1.7687 -3.0017 -1.3688
   57CHL1   C26 5391   4.379   6.951   4.326 -0.0209  0.1283  0.0987
   57CHL1  H26A 5392   4.347   6.851   4.289 -1.0835  1.0783 -1.6684
   57CHL1  H26B 5393   4.407   6.928   4.431 -0.7847 -2.9714 -0.2932
   57CHL1  H26C 5394   4.291   7.014   4.350  0.3356  0.7817 -0.2708
   57CHL1   C27 5395   4.554   7.130   4.300  0.2622  0.0871 -0.0020
   57CHL1  H27A 5396   4.617   7.185   4.228  0.2016 -0.0205 -0.1368
   57CHL1  H27B 5397   4.471   7.195   4.337 -2.3238  0.0349 -4.8822
   57CHL1  H27C 5398   4.614   7.094   4.386 -0.4567 -2.6990 -0.5844
   58CHL1    C3 5399   4.029   6.483   3.125  0.0269  0.3652 -0.1025
   58CHL1    H3 5400   4.139   6.467   3.123 -0.0583 -0.4451  0.9250
   58CHL1    O3 5401   3.966   6.463   2.995 -0.2462 -0.4184 -0.3938
   58CHL1   H3' 5402   4.006   6.379   2.971  1.1469  0.5178 -1.5076
   58CHL1    C4 5403   3.969   6.378   3.217  0.4387  0.1551  0.1471
   58CHL1   H4A 5404   3.859   6.393   3.212  0.6043  1.2498 -0.8726
   58CHL1   H4B 5405   3.989   6.276   3.179  0.0692 -0.5916  1.8604
   58CHL1    C5 5406   4.015   6.391   3.360  0.1021 -0.1109 -0.1045
   58CHL1    C6 5407   4.067   6.294   3.427  0.6857 -0.1088  0.3994
   58CHL1    H6 5408   4.097   6.207   3.366 -1.1128  0.1269 -0.9083
   58CHL1    C7 5409   4.101   6.298   3.575 -0.2351  0.0847 -0.0406
   58CHL1   H7A 5410   4.084   6.203   3.629 -0.2492  0.3141  0.3655
   58CHL1   H7B 5411   4.208   6.323   3.588 -0.4609  2.1345 -1.5377
   58CHL1    C8 5412   4.022   6.412   3.645  0.1005 -0.0395 -0.3083
   58CHL1    H8 5413   3.919   6.373   3.653  0.2153  0.0090  2.5587
   58CHL1   C14 5414   4.079   6.432   3.781 -0.8484 -0.0415  0.2614
   58CHL1   H14 5415   4.186   6.460   3.770 -0.4751 -1.1784  0.8107
   58CHL1   C15 5416   4.088   6.310   3.877  0.2012 -0.2174  0.6060
   58CHL1  H15A 5417   3.990   6.262   3.854 -0.5808  1.2511  0.7341
   58CHL1  H15B 5418   4.168   6.242   3.842 -0.0612  0.6852 -2.0070
   58CHL1   C16 5419   4.089   6.366   4.016 -0.2404  0.6279 -0.4738
   58CHL1  H16A 5420   3.994   6.333   4.063  0.7799  1.3040  2.2464
   58CHL1  H16B 5421   4.178   6.321   4.064  0.5922  0.2002 -2.3149
   58CHL1   C17 5422   4.093   6.523   4.002 -0.2548  0.0006 -0.0596
   58CHL1   H17 5423   4.199   6.551   3.988  0.6258 -2.2427  1.5460
   58CHL1   C13 5424   4.020   6.542   3.866 -0.4082 -0.0448 -0.2032
   58CHL1   C18 5425   3.865   6.521   3.884 -0.7401  0.3733 -0.2039
   58CHL1  H18A 5426   3.816   6.511   3.784 -1.0409  2.6750 -0.3495
   58CHL1  H18B 5427   3.849   6.433   3.950  0.1789 -0.2142 -0.7314
   58CHL1  H18C 5428   3.838   6.617   3.933  0.8045  0.9563 -0.4475
   58CHL1   C12 5429   4.052   6.668   3.792  0.5541  0.0503 -0.5855
   58CHL1  H12A 5430   4.016   6.758   3.846  0.1021 -0.2746 -0.3460
   58CHL1  H12B 5431   4.162   6.679   3.779  0.4060  3.5517  0.0436
   58CHL1   C11 5432   3.991   6.666   3.652  0.1963 -0.7897  0.2083
   58CHL1  H11A 5433   3.880   6.673   3.651  0.2974  1.9244 -0.0404
   58CHL1  H11B 5434   4.028   6.756   3.599  0.2027 -0.3652  0.9246
   58CHL1    C9 5435   4.035   6.538   3.565  0.6358  0.4042 -0.3222
   58CHL1    H9 5436   4.143   6.561   3.552  0.9410 -0.9727 -0.4094
   58CHL1   C10 5437   3.971   6.529   3.425  0.1107  0.4909 -0.8630
   58CHL1   C19 5438   3.814   6.528   3.446  0.0347  0.4040 -0.3397
   58CHL1  H19A 5439   3.767   6.525   3.345  0.4536  1.0183 -0.5638
   58CHL1  H19B 5440   3.784   6.436   3.501  0.6413 -0.3919 -1.3094
   58CHL1  H19C 5441   3.782   6.627   3.486  2.1081  0.2760  1.8237
   58CHL1    C1 5442   4.025   6.641   3.339 -0.2962  0.5476  0.0760
   58CHL1   H1A 5443   3.978   6.735   3.375 -1.2417 -0.3809  1.3525
   58CHL1   H1B 5444   4.135   6.652   3.349 -0.2237 -0.3257  0.3747
   58CHL1    C2 5445   3.991   6.621   3.188  0.0845 -0.4584  0.0546
   58CHL1   H2A 5446   4.034   6.708   3.133 -0.2310  0.1939  0.8053
   58CHL1   H2B 5447   3.881   6.629   3.177  0.1487  0.7627  0.1687
   58CHL1   C20 5448   4.043   6.596   4.130 -0.0035 -0.1846 -0.6162
   58CHL1   H20 5449   3.934   6.577   4.139  0.1283  0.1478  3.6965
   58CHL1   C21 5450   4.065   6.752   4.121 -0.4176  0.4426  0.1766
   58CHL1  H21A 5451   4.006   6.807   4.045  0.1420  1.8752  0.7595
   58CHL1  H21B 5452   4.173   6.762   4.098 -0.2225 -0.2239  0.7772
   58CHL1  H21C 5453   4.040   6.793   4.221 -0.4098  0.5795  0.1214
   58CHL1   C22 5454   4.098   6.525   4.259  0.1761  0.6836  0.3881
   58CHL1  H22A 5455   4.051   6.572   4.348  0.5497  0.0425  0.9321
   58CHL1  H22B 5456   4.073   6.417   4.265  2.2551  0.1634  0.4894
   58CHL1   C23 5457   4.251   6.532   4.264  0.0888 -0.1108  1.0443
   58CHL1  H23A 5458   4.297   6.478   4.179 -0.3423 -0.8245  1.2609
   58CHL1  H23B 5459   4.293   6.634   4.279  1.5808 -0.8718  2.3793
   58CHL1   C24 5460   4.296   6.466   4.396  0.4583  0.1493 -0.5599
   58CHL1  H24A 5461   4.240   6.512   4.480 -1.8491 -0.7781 -1.4978
   58CHL1  H24B 5462   4.272   6.358   4.386  1.2690 -0.1080  0.1820
   58CHL1   C25 5463   4.443   6.474   4.439  0.4145 -0.3921  0.0708
   58CHL1   H25 5464   4.510   6.432   4.361  1.5634  1.7136 -0.1537
   58CHL1   C26 5465   4.498   6.616   4.484  0.2524 -0.3477  0.0662
   58CHL1  H26A 5466   4.609   6.614   4.488  0.3575  0.5972 -1.6180
   58CHL1  H26B 5467   4.464   6.693   4.412 -0.7632 -1.3724 -0.6003
   58CHL1  H26C 5468   4.470   6.657   4.583  0.8428  1.9984 -0.6778
   58CHL1   C27 5469   4.478   6.370   4.547  0.0474  0.0406  0.5400
   58CHL1  H27A 5470   4.588   6.371   4.562  0.0219  1.2370  0.7292
   58CHL1  H27B 5471   4.415   6.399   4.634 -0.4728  1.3597 -0.2343
   58CHL1  H27C 5472   4.439   6.269   4.520  0.0417 -0.4137  2.1509
   59CHL1    C3 5473   3.924   3.884   3.142 -0.5506 -0.0466 -0.5595
   59CHL1    H3 5474   4.010   3.955   3.141 -0.4698 -0.0502  1.5911
   59CHL1    O3 5475   3.882   3.863   3.011  0.4384 -0.0792  0.6858
   59CHL1   H3' 5476   3.880   3.951   2.974  0.8181  0.6209  2.2537
   59CHL1    C4 5477   3.945   3.745   3.220 -0.0555 -0.2424 -0.1740
   59CHL1   H4A 5478   3.854   3.689   3.192  0.9053 -1.5120 -0.8835
   59CHL1   H4B 5479   4.031   3.689   3.175  0.4434  1.0835 -0.9138
   59CHL1    C5 5480   3.943   3.766   3.370 -0.4354 -0.4269 -0.3102
   59CHL1    C6 5481   4.044   3.712   3.442  0.0430  0.0956  0.0008
   59CHL1    H6 5482   4.116   3.646   3.392 -0.6902 -0.6154 -0.1338
   59CHL1    C7 5483   4.044   3.720   3.598  0.0436  0.2349  0.2801
   59CHL1   H7A 5484   4.068   3.621   3.641 -0.6611 -0.6035 -1.1687
   59CHL1   H7B 5485   4.116   3.799   3.629 -0.5770  0.3881  1.3660
   59CHL1    C8 5486   3.904   3.765   3.652  0.1661  0.5017 -0.6519
   59CHL1    H8 5487   3.847   3.670   3.640 -1.3607  1.2577  0.3591
   59CHL1   C14 5488   3.929   3.807   3.796  0.8405  1.0628  0.2475
   59CHL1   H14 5489   3.987   3.902   3.794  0.1167  1.4970 -1.1125
   59CHL1   C15 5490   4.006   3.718   3.895 -0.3542 -0.6197 -0.2362
   59CHL1  H15A 5491   3.986   3.611   3.869  1.9217 -0.5276 -2.7825
   59CHL1  H15B 5492   4.112   3.748   3.884  0.1161 -1.2241  2.1235
   59CHL1   C16 5493   3.962   3.757   4.038  0.5855 -0.3098 -0.3236
   59CHL1  H16A 5494   3.913   3.667   4.082  1.4716 -0.0228  1.3291
   59CHL1  H16B 5495   4.048   3.785   4.101  1.4130 -0.5959 -1.2953
   59CHL1   C17 5496   3.861   3.869   4.023 -0.2779 -0.3957  0.2176
   59CHL1   H17 5497   3.924   3.960   4.017  0.2082 -0.6320  1.4821
   59CHL1   C13 5498   3.802   3.847   3.877  0.0231  0.4978  0.2405
   59CHL1   C18 5499   3.705   3.727   3.883 -0.0923 -0.1007  0.0030
   59CHL1  H18A 5500   3.663   3.680   3.792 -0.0232 -3.3243  1.4826
   59CHL1  H18B 5501   3.751   3.640   3.935  1.5206  1.0815  0.6625
   59CHL1  H18C 5502   3.616   3.759   3.941 -1.1318 -2.5895 -0.0877
   59CHL1   C12 5503   3.751   3.965   3.802 -0.7243 -0.3193  0.0142
   59CHL1  H12A 5504   3.652   3.987   3.847 -2.6476 -1.6074 -3.1761
   59CHL1  H12B 5505   3.819   4.052   3.799 -1.8138  0.5422 -1.9751
   59CHL1   C11 5506   3.727   3.937   3.655 -0.3702 -0.4725  0.0340
   59CHL1  H11A 5507   3.630   3.883   3.651  0.5896 -2.3490  0.9373
   59CHL1  H11B 5508   3.708   4.032   3.600 -1.3621 -0.0242  1.1147
   59CHL1    C9 5509   3.847   3.871   3.581  0.6009  0.1591  0.6719
   59CHL1    H9 5510   3.922   3.952   3.590  0.3122  0.4501  0.5175
   59CHL1   C10 5511   3.822   3.846   3.426 -0.8725  0.4953  0.1578
   59CHL1   C19 5512   3.701   3.749   3.413 -0.1387  0.3006 -0.0625
   59CHL1  H19A 5513   3.672   3.746   3.306  0.1997  0.0698 -0.1458
   59CHL1  H19B 5514   3.722   3.651   3.459  0.1657  0.0252 -0.7761
   59CHL1  H19C 5515   3.621   3.801   3.471 -0.1220  2.4514 -1.8426
   59CHL1    C1 5516   3.812   3.977   3.348  1.1491  0.9203 -0.0310
   59CHL1   H1A 5517   3.725   4.036   3.384 -0.5516 -1.8470  0.6772
   59CHL1   H1B 5518   3.898   4.043   3.372  1.4568  1.0646 -1.4437
   59CHL1    C2 5519   3.801   3.962   3.197  0.1802  0.0644 -0.0261
   59CHL1   H2A 5520   3.788   4.049   3.129 -0.1693 -0.1659 -0.2620
   59CHL1   H2B 5521   3.719   3.890   3.173 -0.0155  0.8051 -1.7403
   59CHL1   C20 5522   3.770   3.879   4.145 -0.0225  0.9294 -0.4565
   59CHL1   H20 5523   3.735   3.775   4.162 -2.4210  1.8716  0.7931
   59CHL1   C21 5524   3.650   3.971   4.123  0.6045 -0.7507 -0.3009
   59CHL1  H21A 5525   3.595   3.989   4.219 -1.7421 -4.2654 -0.7881
   59CHL1  H21B 5526   3.570   3.927   4.059 -1.4450 -0.0157  1.6000
   59CHL1  H21C 5527   3.688   4.061   4.071  1.3218  0.0516  1.5077
   59CHL1   C22 5528   3.841   3.909   4.285  0.3914 -0.2525 -0.0850
   59CHL1  H22A 5529   3.769   3.881   4.364  0.3750 -0.9390 -0.3348
   59CHL1  H22B 5530   3.922   3.832   4.282  0.1506 -0.4905 -3.0583
   59CHL1   C23 5531   3.900   4.048   4.314 -0.1047 -0.2846  0.6375
   59CHL1  H23A 5532   3.981   4.072   4.243 -0.6814  1.5772  0.5703
   59CHL1  H23B 5533   3.823   4.127   4.302  2.0153  1.5902 -1.6800
   59CHL1   C24 5534   3.964   4.057   4.455  0.0806  0.0051 -0.2421
   59CHL1  H24A 5535   4.014   4.156   4.457  1.1331 -0.5054 -0.4765
   59CHL1  H24B 5536   3.888   4.041   4.534  0.4552 -0.1475  0.0871
   59CHL1   C25 5537   4.075   3.963   4.498  0.2773  0.0827 -0.0039
   59CHL1   H25 5538   4.049   3.855   4.501  0.4178  0.0215 -0.6910
   59CHL1   C26 5539   4.195   3.999   4.403  0.1769  0.6998 -0.1207
   59CHL1  H26A 5540   4.217   4.107   4.395  2.7389  0.2087 -0.4571
   59CHL1  H26B 5541   4.281   3.941   4.444  0.6988  1.7289  0.2825
   59CHL1  H26C 5542   4.176   3.957   4.302  2.7656  2.7357 -1.5662
   59CHL1   C27 5543   4.113   4.000   4.641 -0.5049  0.2894  0.2499
   59CHL1  H27A 5544   4.036   3.976   4.717  0.8046 -2.0290  0.9505
   59CHL1  H27B 5545   4.208   3.945   4.659 -0.1357 -0.4565 -3.2786
   59CHL1  H27C 5546   4.136   4.108   4.652  1.1214  0.0911 -0.9197
   60CHL1    C3 5547   4.865   4.181   3.213  0.0298  0.4658  0.4063
   60CHL1    H3 5548   4.887   4.290   3.201 -1.6765  0.7014 -0.8901
   60CHL1    O3 5549   4.832   4.146   3.075  0.1053  0.4069  0.5653
   60CHL1   H3' 5550   4.816   4.052   3.073 -0.9552  0.5709  0.8120
   60CHL1    C4 5551   4.986   4.108   3.269 -0.5995 -0.3322  0.0688
   60CHL1   H4A 5552   4.964   3.999   3.269 -0.7311 -0.4322 -3.2780
   60CHL1   H4B 5553   5.072   4.113   3.199 -0.7230 -0.8950 -0.1292
   60CHL1    C5 5554   5.013   4.148   3.416  0.1749 -0.0360 -0.7735
   60CHL1    C6 5555   5.135   4.199   3.442  0.0761 -0.3077  0.6849
   60CHL1    H6 5556   5.208   4.205   3.360 -0.2204 -0.7343  0.3842
   60CHL1    C7 5557   5.175   4.248   3.580  0.5114  0.4859 -0.3650
   60CHL1   H7A 5558   5.280   4.226   3.610  0.0069 -0.5269  0.7432
   60CHL1   H7B 5559   5.156   4.358   3.581  0.4122  0.4847  1.2887
   60CHL1    C8 5560   5.082   4.197   3.685 -0.4294 -0.6102 -0.2496
   60CHL1    H8 5561   5.090   4.087   3.692 -0.8823 -0.6369 -0.0665
   60CHL1   C14 5562   5.106   4.268   3.817 -0.2615 -0.5468  0.2540
   60CHL1   H14 5563   5.073   4.372   3.795 -3.3974 -2.0385 -3.0261
   60CHL1   C15 5564   5.246   4.299   3.865 -0.5246  0.2579 -0.1956
   60CHL1  H15A 5565   5.310   4.208   3.854 -2.4030 -1.0081 -1.3694
   60CHL1  H15B 5566   5.283   4.392   3.816  2.1822 -0.9862 -0.7382
   60CHL1   C16 5567   5.230   4.324   4.015  0.3106  0.6746  0.2428
   60CHL1  H16A 5568   5.278   4.239   4.068  1.5121  1.1621 -0.0395
   60CHL1  H16B 5569   5.286   4.407   4.063 -2.0928 -0.0069  4.7339
   60CHL1   C17 5570   5.078   4.323   4.048 -0.9059  0.7795  0.1391
   60CHL1   H17 5571   5.048   4.425   4.014 -1.2912  0.3699 -0.8069
   60CHL1   C13 5572   5.026   4.227   3.940  0.1254 -0.4293  0.8023
   60CHL1   C18 5573   5.068   4.080   3.975  1.0145 -0.5354 -0.5306
   60CHL1  H18A 5574   5.177   4.067   3.988  0.7433 -1.0288  1.5595
   60CHL1  H18B 5575   5.019   4.060   4.072 -1.1734 -0.8288 -1.6296
   60CHL1  H18C 5576   5.030   4.002   3.905 -0.3267 -2.3843  2.1015
   60CHL1   C12 5577   4.875   4.251   3.901 -0.2001  1.1802  0.7322
   60CHL1  H12A 5578   4.816   4.195   3.977 -1.3034  1.0443 -0.1938
   60CHL1  H12B 5579   4.847   4.358   3.910 -1.3495  1.2373 -2.3370
   60CHL1   C11 5580   4.835   4.185   3.760 -0.0296  0.3665  0.1932
   60CHL1  H11A 5581   4.824   4.076   3.777 -0.5300  0.3483 -0.2059
   60CHL1  H11B 5582   4.734   4.227   3.738 -0.8266 -0.7055  1.6496
   60CHL1    C9 5583   4.935   4.216   3.641 -0.8616 -0.4154 -1.2500
   60CHL1    H9 5584   4.922   4.324   3.622  0.3466 -0.1751 -0.7954
   60CHL1   C10 5585   4.893   4.145   3.518 -0.2415  0.5981  0.6058
   60CHL1   C19 5586   4.868   3.997   3.544 -0.0197  0.5180  0.0215
   60CHL1  H19A 5587   4.869   3.933   3.453  1.7721 -0.4201  0.6479
   60CHL1  H19B 5588   4.953   3.959   3.604 -1.2726 -0.1435  1.4405
   60CHL1  H19C 5589   4.773   3.980   3.599  0.4709 -1.4244  0.3195
   60CHL1    C1 5590   4.778   4.204   3.441  0.0772  0.4400 -0.4228
   60CHL1   H1A 5591   4.686   4.187   3.501  0.2430 -0.6796 -0.4645
   60CHL1   H1B 5592   4.781   4.314   3.433 -3.2298  0.6528 -0.0278
   60CHL1    C2 5593   4.749   4.155   3.303  0.4965  0.1184  0.3643
   60CHL1   H2A 5594   4.658   4.207   3.266  0.2783 -0.7091 -0.2921
   60CHL1   H2B 5595   4.722   4.048   3.320  0.6645  0.4487  3.3303
   60CHL1   C20 5596   5.043   4.309   4.196  1.7767  0.0257 -0.8613
   60CHL1   H20 5597   5.055   4.205   4.235 -1.9263  0.0677  0.8078
   60CHL1   C21 5598   4.896   4.361   4.216 -0.1610  0.3659  0.3784
   60CHL1  H21A 5599   4.817   4.309   4.157 -0.3177  0.2532  0.6848
   60CHL1  H21B 5600   4.895   4.466   4.180 -0.3930  0.3625  0.3749
   60CHL1  H21C 5601   4.879   4.356   4.326 -1.3912  0.1688  0.1966
   60CHL1   C22 5602   5.135   4.386   4.293 -0.0522 -0.6526  0.3646
   60CHL1  H22A 5603   5.098   4.367   4.397  2.0045  0.5715  1.3809
   60CHL1  H22B 5604   5.236   4.340   4.295  1.3766  2.0762 -1.8899
   60CHL1   C23 5605   5.147   4.538   4.273  0.4384 -0.3168  0.1196
   60CHL1  H23A 5606   5.184   4.558   4.171 -1.1867  0.5914 -0.3233
   60CHL1  H23B 5607   5.045   4.582   4.287  0.7456  0.1219  1.1370
   60CHL1   C24 5608   5.240   4.601   4.384  0.0818  0.2581 -0.7116
   60CHL1  H24A 5609   5.206   4.576   4.487 -0.1090 -2.4101 -1.3659
   60CHL1  H24B 5610   5.342   4.558   4.373  0.6510  1.7392 -1.6075
   60CHL1   C25 5611   5.249   4.749   4.362 -0.2502  0.2958 -0.6941
   60CHL1   H25 5612   5.150   4.777   4.318 -1.5277 -0.3207  1.6325
   60CHL1   C26 5613   5.293   4.820   4.485  0.3081  0.8952  0.1764
   60CHL1  H26A 5614   5.385   4.768   4.519  0.7793 -0.6381 -3.0805
   60CHL1  H26B 5615   5.309   4.930   4.483 -1.8512  1.2441 -0.7558
   60CHL1  H26C 5616   5.220   4.818   4.569 -0.6938  2.3714 -0.6100
   60CHL1   C27 5617   5.344   4.778   4.250 -0.0369  0.3082  0.2786
   60CHL1  H27A 5618   5.330   4.731   4.150  4.8397  2.4044 -1.7424
   60CHL1  H27B 5619   5.343   4.889   4.248  0.7207  0.3299 -1.7162
   60CHL1  H27C 5620   5.449   4.761   4.284  0.0276 -1.3722 -0.6790
   61CHL1    C3 5621   6.452   1.344   3.212  0.3330 -0.2171 -0.2230
   61CHL1    H3 5622   6.421   1.238   3.198 -1.1227  0.1448  0.1280
   61CHL1    O3 5623   6.440   1.422   3.094 -0.4949  0.2975  0.5489
   61CHL1   H3' 5624   6.468   1.357   3.029 -0.3479 -1.7782  2.5701
   61CHL1    C4 5625   6.358   1.407   3.329 -0.7545 -0.1628  0.0378
   61CHL1   H4A 5626   6.378   1.516   3.339  1.5080 -0.4052 -1.1679
   61CHL1   H4B 5627   6.252   1.399   3.296 -0.5292 -3.6152 -0.2161
   61CHL1    C5 5628   6.393   1.336   3.460  0.1335  0.4762  0.3066
   61CHL1    C6 5629   6.302   1.280   3.534  0.1869  0.0843 -0.5623
   61CHL1    H6 5630   6.199   1.288   3.496 -0.1213  0.0129  0.2369
   61CHL1    C7 5631   6.311   1.226   3.676  0.5013 -0.2828  0.5172
   61CHL1   H7A 5632   6.232   1.275   3.737 -0.5888 -2.7693  1.1952
   61CHL1   H7B 5633   6.297   1.117   3.687 -1.4511 -0.0231  1.0098
   61CHL1    C8 5634   6.443   1.273   3.744 -0.0990  0.2375 -0.4380
   61CHL1    H8 5635   6.431   1.382   3.761 -4.0445 -0.1491  0.0977
   61CHL1   C14 5636   6.472   1.187   3.865 -0.0855 -0.7195 -0.1150
   61CHL1   H14 5637   6.474   1.081   3.833  2.2360 -0.2215 -1.8692
   61CHL1   C15 5638   6.373   1.173   3.980 -0.6467 -0.1968 -0.0509
   61CHL1  H15A 5639   6.332   1.268   4.020 -0.4235 -0.1307  0.0256
   61CHL1  H15B 5640   6.282   1.117   3.950 -0.7581 -0.5946  1.0044
   61CHL1   C16 5641   6.457   1.100   4.089  0.2291  0.5612 -0.5846
   61CHL1  H16A 5642   6.444   1.163   4.180  0.0659 -0.5637  0.2001
   61CHL1  H16B 5643   6.428   0.995   4.111 -0.7651  0.9664  0.1305
   61CHL1   C17 5644   6.604   1.110   4.047 -0.2780 -0.1159  0.7062
   61CHL1   H17 5645   6.631   1.013   4.001 -0.2287 -0.3891  1.3029
   61CHL1   C13 5646   6.606   1.214   3.931  1.1571 -0.2931  0.0741
   61CHL1   C18 5647   6.604   1.362   3.990 -0.0486  0.1656 -0.7269
   61CHL1  H18A 5648   6.570   1.429   3.908 -0.8980  0.8361  0.1489
   61CHL1  H18B 5649   6.520   1.383   4.060  0.7744  1.2171 -0.0186
   61CHL1  H18C 5650   6.700   1.400   4.030 -0.3279 -1.1631  1.3576
   61CHL1   C12 5651   6.713   1.203   3.833 -0.6144  0.2698 -0.2286
   61CHL1  H12A 5652   6.808   1.241   3.877 -0.1300 -1.8303  0.6702
   61CHL1  H12B 5653   6.728   1.098   3.800 -0.2849  0.5576 -1.0224
   61CHL1   C11 5654   6.699   1.267   3.692 -0.0862  0.0842 -0.4823
   61CHL1  H11A 5655   6.727   1.372   3.715 -0.3046 -0.2997  1.7584
   61CHL1  H11B 5656   6.771   1.231   3.616 -1.2702 -0.3299 -1.4411
   61CHL1    C9 5657   6.554   1.257   3.633 -0.6774 -0.2742 -0.5567
   61CHL1    H9 5658   6.534   1.154   3.599 -0.1141 -1.1282  1.5582
   61CHL1   C10 5659   6.544   1.344   3.500  0.2705  0.0408  0.0840
   61CHL1   C19 5660   6.563   1.486   3.546 -0.1674  0.5141 -0.2514
   61CHL1  H19A 5661   6.504   1.519   3.634 -2.0656  1.1386 -1.6941
   61CHL1  H19B 5662   6.672   1.501   3.563  0.8292 -1.5000 -3.8678
   61CHL1  H19C 5663   6.548   1.558   3.463  1.5529  0.8719 -0.2901
   61CHL1    C1 5664   6.628   1.292   3.385 -0.3220 -0.5338 -0.7520
   61CHL1   H1A 5665   6.737   1.303   3.406 -0.2329 -0.4541 -1.2519
   61CHL1   H1B 5666   6.618   1.184   3.362  0.0164 -0.7820  0.2138
   61CHL1    C2 5667   6.596   1.366   3.259 -0.5104 -0.1559 -0.1644
   61CHL1   H2A 5668   6.664   1.327   3.180  0.4208 -0.4550  0.7676
   61CHL1   H2B 5669   6.620   1.474   3.265 -0.8416 -0.1514  1.9750
   61CHL1   C20 5670   6.702   1.127   4.168 -0.2746  0.2372 -0.1843
   61CHL1   H20 5671   6.678   1.214   4.232  3.3101  2.2887 -1.3070
   61CHL1   C21 5672   6.853   1.150   4.120 -0.2166 -0.5548 -0.7478
   61CHL1  H21A 5673   6.877   1.066   4.052  2.1574 -1.0833  0.6245
   61CHL1  H21B 5674   6.920   1.148   4.208 -0.5394  0.4010 -0.4657
   61CHL1  H21C 5675   6.855   1.247   4.066  0.1357  0.0220  0.2706
   61CHL1   C22 5676   6.683   1.008   4.263  0.3153 -0.0184  0.4434
   61CHL1  H22A 5677   6.577   1.003   4.296  1.0831  0.6633  3.3237
   61CHL1  H22B 5678   6.721   0.918   4.211 -0.2645  0.1261 -0.2447
   61CHL1   C23 5679   6.766   1.005   4.387 -0.5588 -0.1823 -0.4523
   61CHL1  H23A 5680   6.872   1.004   4.353 -0.7121  0.5606 -0.9768
   61CHL1  H23B 5681   6.745   1.093   4.451 -4.2149 -1.5062  0.4142
   61CHL1   C24 5682   6.743   0.877   4.470  0.0446 -0.2508 -0.7375
   61CHL1  H24A 5683   6.634   0.867   4.489  0.1247 -0.5653 -0.4297
   61CHL1  H24B 5684   6.783   0.791   4.412 -0.9219 -0.2997 -1.3565
   61CHL1   C25 5685   6.813   0.879   4.606 -0.5046 -0.0156  0.4975
   61CHL1   H25 5686   6.921   0.889   4.581 -0.7093  0.9308 -0.0361
   61CHL1   C26 5687   6.770   1.000   4.694 -0.4239 -0.1331 -0.1948
   61CHL1  H26A 5688   6.664   0.979   4.719 -0.2270  0.9036  1.6662
   61CHL1  H26B 5689   6.815   0.993   4.795  0.8405 -0.3682 -0.7537
   61CHL1  H26C 5690   6.779   1.097   4.641 -3.5256 -0.6238 -1.8738
   61CHL1   C27 5691   6.800   0.750   4.682  0.4474  0.4285 -0.0334
   61CHL1  H27A 5692   6.710   0.747   4.747  1.4343 -2.4459  1.3531
   61CHL1  H27B 5693   6.809   0.651   4.634  4.4385  0.6108  0.0303
   61CHL1  H27C 5694   6.883   0.739   4.755  0.1095 -2.9447 -0.0396
   62CHL1    C3 5695   1.056   0.585   3.031  0.0542  0.4047 -0.1743
   62CHL1    H3 5696   1.160   0.549   3.049  0.1127  1.8721  3.3004
   62CHL1    O3 5697   1.010   0.567   2.897 -0.1297  0.1107  0.3405
   62CHL1   H3' 5698   0.980   0.655   2.872 -0.1380  0.1924  0.6393
   62CHL1    C4 5699   0.969   0.501   3.124 -0.1635  0.2841  0.2025
   62CHL1   H4A 5700   0.862   0.528   3.111 -0.4235 -0.2203  1.1648
   62CHL1   H4B 5701   0.987   0.396   3.091 -0.3255  0.6564 -1.1179
   62CHL1    C5 5702   0.992   0.536   3.273 -0.4488  0.3015 -0.6576
   62CHL1    C6 5703   1.030   0.438   3.354  0.2335 -0.1994 -0.1138
   62CHL1    H6 5704   1.047   0.338   3.313  0.2155 -0.8755  1.4463
   62CHL1    C7 5705   1.073   0.458   3.501  0.3981 -1.0764  0.2711
   62CHL1   H7A 5706   1.043   0.373   3.567 -0.3381  0.3052  1.7911
   62CHL1   H7B 5707   1.183   0.458   3.488  0.0786 -1.3628 -3.1755
   62CHL1    C8 5708   1.033   0.598   3.560 -0.4339 -0.2385  0.7055
   62CHL1    H8 5709   0.923   0.597   3.579 -0.0779 -2.1337  3.1217
   62CHL1   C14 5710   1.118   0.621   3.686 -0.3211  0.5912 -0.0271
   62CHL1   H14 5711   1.225   0.630   3.657 -0.4166  3.2674  0.2028
   62CHL1   C15 5712   1.119   0.519   3.803 -0.2073 -0.4448 -0.6055
   62CHL1  H15A 5713   1.015   0.482   3.808  0.0272 -0.9875  0.5456
   62CHL1  H15B 5714   1.194   0.440   3.778  1.1760 -0.0576  1.9657
   62CHL1   C16 5715   1.157   0.592   3.935  0.3558  0.5399  0.5448
   62CHL1  H16A 5716   1.071   0.592   4.006  0.3854  0.6562  0.5812
   62CHL1  H16B 5717   1.246   0.545   3.981 -0.8370 -2.9351 -0.3955
   62CHL1   C17 5718   1.181   0.739   3.890  0.2421 -0.0690  0.8860
   62CHL1   H17 5719   1.285   0.734   3.851  0.3540  0.3144  1.1275
   62CHL1   C13 5720   1.089   0.756   3.767  0.2823  0.2227  0.3555
   62CHL1   C18 5721   0.946   0.772   3.820  0.7003 -0.1775  0.3420
   62CHL1  H18A 5722   0.935   0.878   3.852 -1.0983 -0.6847  1.5602
   62CHL1  H18B 5723   0.871   0.760   3.738  0.5148 -0.3766  0.5425
   62CHL1  H18C 5724   0.915   0.699   3.897  2.8665 -1.0432  0.4414
   62CHL1   C12 5725   1.119   0.868   3.660 -0.7593  1.1093 -0.7360
   62CHL1  H12A 5726   1.084   0.968   3.692 -1.5453  0.6993 -0.2659
   62CHL1  H12B 5727   1.228   0.869   3.644 -1.0704  2.1366 -3.0784
   62CHL1   C11 5728   1.045   0.854   3.525  0.2761 -0.4980  0.1416
   62CHL1  H11A 5729   0.936   0.869   3.540  0.2294 -1.0391  0.3909
   62CHL1  H11B 5730   1.086   0.937   3.465  4.8228 -1.6612  1.2241
   62CHL1    C9 5731   1.066   0.715   3.455  0.1748  1.2314 -0.2387
   62CHL1    H9 5732   1.175   0.714   3.437  0.3142 -3.4993 -0.4608
   62CHL1   C10 5733   0.998   0.688   3.320  0.1295  0.1743  0.2679
   62CHL1   C19 5734   0.847   0.727   3.318  0.2655 -0.8036 -0.3007
   62CHL1  H19A 5735   0.830   0.832   3.350  1.5114 -1.1238  1.6087
   62CHL1  H19B 5736   0.791   0.708   3.224 -0.7172 -1.9908  0.4970
   62CHL1  H19C 5737   0.793   0.673   3.398  1.5422 -0.3324  0.9102
   62CHL1    C1 5738   1.085   0.771   3.210  1.2177 -0.2033 -0.4675
   62CHL1   H1A 5739   1.067   0.880   3.219 -1.6525 -0.4624 -1.7574
   62CHL1   H1B 5740   1.191   0.747   3.232  0.7853 -0.7683  1.1445
   62CHL1    C2 5741   1.057   0.734   3.065 -0.5802 -0.0278  0.8722
   62CHL1   H2A 5742   1.123   0.781   2.990 -1.8124  0.0920 -0.1665
   62CHL1   H2B 5743   0.951   0.762   3.046 -1.6901 -3.5909  1.0366
   62CHL1   C20 5744   1.166   0.844   4.004  0.0906  0.1434  0.6492
   62CHL1   H20 5745   1.059   0.859   4.030 -0.8052  0.0231 -2.5300
   62CHL1   C21 5746   1.220   0.977   3.946  1.1047  0.4379  0.4297
   62CHL1  H21A 5747   1.150   1.009   3.865  1.6772  0.2175 -0.1584
   62CHL1  H21B 5748   1.315   0.952   3.894 -0.0603  0.0901 -1.6579
   62CHL1  H21C 5749   1.235   1.056   4.023  0.6679 -1.6969  2.8113
   62CHL1   C22 5750   1.234   0.799   4.129 -0.5324 -0.6835 -0.3211
   62CHL1  H22A 5751   1.206   0.696   4.159  1.0656 -0.5279  1.9417
   62CHL1  H22B 5752   1.343   0.793   4.112 -0.7704 -3.4904 -1.3083
   62CHL1   C23 5753   1.218   0.887   4.254  0.2183 -0.5044  0.3782
   62CHL1  H23A 5754   1.267   0.986   4.236  1.9814 -1.6734 -1.6866
   62CHL1  H23B 5755   1.110   0.904   4.275  1.0054  2.3486  2.9563
   62CHL1   C24 5756   1.290   0.819   4.370 -0.2468  0.4107  0.4690
   62CHL1  H24A 5757   1.266   0.711   4.374  0.0771  0.3814  2.0830
   62CHL1  H24B 5758   1.400   0.820   4.353 -0.3193 -0.2946 -0.0871
   62CHL1   C25 5759   1.260   0.885   4.507 -0.6666 -0.2942  0.0772
   62CHL1   H25 5760   1.278   0.994   4.494  1.2407 -0.7016 -1.1698
   62CHL1   C26 5761   1.113   0.866   4.569 -0.4079  0.2725 -0.1935
   62CHL1  H26A 5762   1.133   0.841   4.676  0.5310  1.1627 -0.1473
   62CHL1  H26B 5763   1.048   0.955   4.573  0.0749  0.5904  2.1572
   62CHL1  H26C 5764   1.068   0.772   4.531  1.8364 -0.8697 -0.1948
   62CHL1   C27 5765   1.359   0.852   4.621 -0.1870 -0.6162 -0.3047
   62CHL1  H27A 5766   1.366   0.742   4.629 -0.2405 -0.5521  0.8366
   62CHL1  H27B 5767   1.459   0.895   4.599  0.2575 -1.9906 -1.0350
   62CHL1  H27C 5768   1.342   0.900   4.720 -1.4735 -0.3789 -0.6210
   63CHL1    C3 5769   4.372   5.391   3.226  0.5607  0.3630 -0.2461
   63CHL1    H3 5770   4.481   5.394   3.249  0.5087  0.8901 -0.0642
   63CHL1    O3 5771   4.358   5.376   3.086  0.0465 -0.5108  0.0390
   63CHL1   H3' 5772   4.270   5.410   3.064  0.1879 -0.3745 -0.3408
   63CHL1    C4 5773   4.305   5.269   3.288 -0.1843 -0.1154 -0.1296
   63CHL1   H4A 5774   4.196   5.281   3.272  0.0945  0.9113 -1.3806
   63CHL1   H4B 5775   4.331   5.171   3.243 -0.4338 -0.0178 -0.4840
   63CHL1    C5 5776   4.334   5.270   3.438  0.4117 -0.7932  0.1456
   63CHL1    C6 5777   4.405   5.178   3.496 -0.0302  0.1483 -0.6613
   63CHL1    H6 5778   4.432   5.083   3.446 -0.0512 -1.1058  1.5470
   63CHL1    C7 5779   4.447   5.184   3.639 -0.1943  0.1483 -0.4773
   63CHL1   H7A 5780   4.437   5.087   3.692  0.0888  1.0503  1.2859
   63CHL1   H7B 5781   4.555   5.207   3.632  0.3549 -1.5459  1.6754
   63CHL1    C8 5782   4.355   5.276   3.728 -0.2011 -0.1652  0.4223
   63CHL1    H8 5783   4.259   5.222   3.734 -1.0553  1.0245 -1.6089
   63CHL1   C14 5784   4.421   5.304   3.863 -0.0954  1.0215 -0.1271
   63CHL1   H14 5785   4.507   5.372   3.844  1.3577 -0.9538 -1.1016
   63CHL1   C15 5786   4.474   5.178   3.935  0.0759 -1.0830 -0.2616
   63CHL1  H15A 5787   4.397   5.100   3.922 -0.5142 -0.6474  0.5303
   63CHL1  H15B 5788   4.568   5.137   3.892 -0.7909 -0.9419 -2.3754
   63CHL1   C16 5789   4.497   5.231   4.073 -0.6267 -0.4642  0.3150
   63CHL1  H16A 5790   4.478   5.154   4.151 -0.3133 -1.6827 -0.7656
   63CHL1  H16B 5791   4.603   5.261   4.078  0.2062 -2.7899 -1.6133
   63CHL1   C17 5792   4.411   5.365   4.091  0.3627  0.4638  0.1251
   63CHL1   H17 5793   4.482   5.451   4.085  0.0294  0.6770 -1.1588
   63CHL1   C13 5794   4.333   5.374   3.960  0.3960 -0.0727  0.4908
   63CHL1   C18 5795   4.208   5.282   3.982 -0.0664  0.2558  0.4225
   63CHL1  H18A 5796   4.154   5.325   4.069  0.1953 -1.4732  1.4890
   63CHL1  H18B 5797   4.132   5.288   3.901  0.0228  1.0041  0.3810
   63CHL1  H18C 5798   4.228   5.178   4.014  1.0418  0.4218  0.3226
   63CHL1   C12 5799   4.297   5.515   3.903 -0.3823  0.5761  0.5929
   63CHL1  H12A 5800   4.211   5.547   3.966  1.5501 -1.0692  4.4124
   63CHL1  H12B 5801   4.384   5.583   3.896 -0.6626  0.8283 -4.5260
   63CHL1   C11 5802   4.244   5.498   3.760 -0.0517 -0.3321 -0.6970
   63CHL1  H11A 5803   4.137   5.471   3.773  0.4166 -1.1395  2.3137
   63CHL1  H11B 5804   4.226   5.599   3.717 -1.6811 -0.8417 -1.2878
   63CHL1    C9 5805   4.332   5.410   3.661 -0.4350  0.3160  0.7241
   63CHL1    H9 5806   4.428   5.465   3.651  0.1047 -0.7881 -0.4747
   63CHL1   C10 5807   4.281   5.398   3.511  0.2938  0.2878  0.5177
   63CHL1   C19 5808   4.130   5.378   3.520  0.4127 -0.3329  0.7449
   63CHL1  H19A 5809   4.084   5.464   3.573 -0.1840 -0.3754  0.3123
   63CHL1  H19B 5810   4.087   5.379   3.417 -0.0827  1.5502  0.9431
   63CHL1  H19C 5811   4.106   5.287   3.579  1.8389 -1.8641 -0.9153
   63CHL1    C1 5812   4.320   5.518   3.429  0.0942 -0.3671  0.3575
   63CHL1   H1A 5813   4.267   5.608   3.467  1.7965  0.0316  1.9627
   63CHL1   H1B 5814   4.426   5.529   3.461 -0.0939 -1.3546  1.3558
   63CHL1    C2 5815   4.301   5.512   3.285 -0.7630 -0.0257  0.7261
   63CHL1   H2A 5816   4.336   5.603   3.232 -2.0501 -0.6111 -1.2534
   63CHL1   H2B 5817   4.193   5.520   3.260 -0.4573  0.9964 -0.3727
   63CHL1   C20 5818   4.353   5.366   4.233  0.2890  0.0080 -0.1615
   63CHL1   H20 5819   4.287   5.279   4.251  0.8560 -0.6475 -1.1801
   63CHL1   C21 5820   4.281   5.502   4.258  0.2921 -0.7536  0.3136
   63CHL1  H21A 5821   4.356   5.583   4.242  1.6604 -2.2380 -1.2138
   63CHL1  H21B 5822   4.238   5.504   4.360 -2.9292 -1.6009 -0.9060
   63CHL1  H21C 5823   4.204   5.528   4.182  1.3940  0.0240 -0.5781
   63CHL1   C22 5824   4.458   5.342   4.350  0.4848 -0.3422  0.1781
   63CHL1  H22A 5825   4.522   5.261   4.307 -1.8107 -1.7234 -0.8309
   63CHL1  H22B 5826   4.516   5.436   4.360 -0.2742 -0.0725  2.4669
   63CHL1   C23 5827   4.400   5.295   4.476  0.2798 -0.1051 -0.6071
   63CHL1  H23A 5828   4.328   5.367   4.520  1.1394  0.4349 -0.0592
   63CHL1  H23B 5829   4.341   5.203   4.453  0.1523  0.2706 -1.8632
   63CHL1   C24 5830   4.494   5.258   4.592 -0.2958  0.0054  0.6835
   63CHL1  H24A 5831   4.450   5.165   4.634 -0.9847 -0.4989 -1.0909
   63CHL1  H24B 5832   4.591   5.226   4.550 -1.5214 -2.2445 -0.6246
   63CHL1   C25 5833   4.520   5.362   4.703  0.6874  0.1856  0.2623
   63CHL1   H25 5834   4.571   5.447   4.652 -0.0089 -0.8713 -2.3283
   63CHL1   C26 5835   4.394   5.409   4.769 -1.0624  0.5085 -0.2708
   63CHL1  H26A 5836   4.321   5.458   4.702 -2.8325 -0.3510  0.9485
   63CHL1  H26B 5837   4.332   5.323   4.801  0.9956 -0.9315  0.0757
   63CHL1  H26C 5838   4.424   5.471   4.856  0.3221 -0.1632 -0.2210
   63CHL1   C27 5839   4.632   5.305   4.797  0.6415  0.2131  0.2112
   63CHL1  H27A 5840   4.716   5.288   4.727 -2.0580 -0.7584 -3.0806
   63CHL1  H27B 5841   4.654   5.383   4.874 -0.5184  0.0388  0.7495
   63CHL1  H27C 5842   4.599   5.218   4.858  1.2563 -0.6066 -0.6051
   64CHL1    C3 5843   3.824   1.080   3.025 -0.2913  0.6658 -1.7831
   64CHL1    H3 5844   3.720   1.040   3.023 -0.1547  0.2183 -0.6971
   64CHL1    O3 5845   3.892   1.026   2.911 -0.4098 -0.0699  0.2155
   64CHL1   H3' 5846   3.829   1.034   2.839 -0.9638 -1.1690  0.5522
   64CHL1    C4 5847   3.826   1.232   3.026 -0.0354 -0.8127 -0.5260
   64CHL1   H4A 5848   3.930   1.267   3.010 -0.7859  1.9121 -0.0300
   64CHL1   H4B 5849   3.755   1.267   2.949 -0.4034 -0.6692 -0.1254
   64CHL1    C5 5850   3.785   1.301   3.159 -0.3919 -0.6014 -0.0639
   64CHL1    C6 5851   3.702   1.406   3.170  0.0469  0.5717  0.5232
   64CHL1    H6 5852   3.642   1.449   3.089 -2.7530  0.8363  2.5797
   64CHL1    C7 5853   3.648   1.462   3.296  0.3808  0.5582 -0.2780
   64CHL1   H7A 5854   3.622   1.570   3.283 -2.8272 -0.1971 -0.9144
   64CHL1   H7B 5855   3.557   1.407   3.325  0.2517  1.1354  0.4398
   64CHL1    C8 5856   3.739   1.431   3.416 -0.0420  0.0931  0.9221
   64CHL1    H8 5857   3.829   1.494   3.404  1.5417 -2.2605 -0.3192
   64CHL1   C14 5858   3.670   1.465   3.550  0.2071 -0.9181 -0.6365
   64CHL1   H14 5859   3.585   1.393   3.558 -0.1669 -0.4929 -0.7566
   64CHL1   C15 5860   3.607   1.610   3.565 -0.1588 -0.3244 -0.0595
   64CHL1  H15A 5861   3.680   1.690   3.541 -1.4787  0.3460 -2.1928
   64CHL1  H15B 5862   3.526   1.630   3.491 -0.0770 -0.5112 -0.2001
   64CHL1   C16 5863   3.563   1.611   3.711 -0.7073 -0.2647  0.5736
   64CHL1  H16A 5864   3.571   1.714   3.752 -0.6069  0.0693 -0.2582
   64CHL1  H16B 5865   3.454   1.590   3.706 -0.5027 -1.0790 -0.9803
   64CHL1   C17 5866   3.643   1.501   3.787 -0.6432  0.2313  0.0600
   64CHL1   H17 5867   3.573   1.417   3.808 -0.7315  0.6548  1.5619
   64CHL1   C13 5868   3.745   1.439   3.684  0.1599 -0.2040  0.3297
   64CHL1   C18 5869   3.865   1.535   3.671  0.1079  0.0030  0.1713
   64CHL1  H18A 5870   3.926   1.509   3.582  0.2909 -0.4069  0.4159
   64CHL1  H18B 5871   3.830   1.639   3.653  0.8503  0.2230 -0.0439
   64CHL1  H18C 5872   3.935   1.536   3.757  0.8889 -2.8169 -0.3143
   64CHL1   C12 5873   3.792   1.295   3.689  0.1441 -0.1813  0.2233
   64CHL1  H12A 5874   3.849   1.257   3.777  0.9922 -2.4965 -1.2282
   64CHL1  H12B 5875   3.692   1.247   3.686  0.9420 -1.9055 -0.0056
   64CHL1   C11 5876   3.859   1.248   3.551 -0.1064  0.7051 -0.2331
   64CHL1  H11A 5877   3.963   1.288   3.546  0.0987  0.2510  0.3560
   64CHL1  H11B 5878   3.860   1.137   3.556 -0.6487  0.7460  1.0357
   64CHL1    C9 5879   3.778   1.284   3.419  0.1327 -0.0904  0.1625
   64CHL1    H9 5880   3.682   1.230   3.426  0.4787 -0.5828  1.3784
   64CHL1   C10 5881   3.848   1.241   3.285 -0.2549 -0.2367  0.1560
   64CHL1   C19 5882   3.999   1.292   3.283 -0.5953 -1.0171  0.5433
   64CHL1  H19A 5883   3.997   1.403   3.292  0.5398 -0.7168 -1.9952
   64CHL1  H19B 5884   4.060   1.253   3.367  1.0135  0.6993  0.2562
   64CHL1  H19C 5885   4.049   1.257   3.190  1.5079 -1.4118  1.7586
   64CHL1    C1 5886   3.840   1.086   3.276 -0.1659  0.6586 -0.1428
   64CHL1   H1A 5887   3.896   1.044   3.362 -1.3554  1.9821  1.3392
   64CHL1   H1B 5888   3.737   1.048   3.293  0.5396 -0.9212  0.8270
   64CHL1    C2 5889   3.896   1.026   3.148  0.5966 -0.5526  0.3602
   64CHL1   H2A 5890   3.884   0.916   3.143  1.1263 -0.5513 -2.3789
   64CHL1   H2B 5891   4.000   1.058   3.129  1.1637 -3.4892 -2.1316
   64CHL1   C20 5892   3.690   1.543   3.938 -0.0708  0.1327  1.3307
   64CHL1   H20 5893   3.771   1.620   3.940 -1.8557  2.2206 -0.4047
   64CHL1   C21 5894   3.752   1.421   4.003 -0.8929  0.3501  0.0906
   64CHL1  H21A 5895   3.855   1.396   3.968 -0.7248 -0.5716  1.1799
   64CHL1  H21B 5896   3.692   1.329   3.984 -0.0717 -0.3530  0.7877
   64CHL1  H21C 5897   3.769   1.447   4.109  1.8223  0.6263 -0.3317
   64CHL1   C22 5898   3.568   1.593   4.017  0.0309 -0.4599 -0.0037
   64CHL1  H22A 5899   3.514   1.674   3.963 -0.0901 -0.3327  0.3053
   64CHL1  H22B 5900   3.502   1.505   4.033  1.1113 -1.2194  0.4045
   64CHL1   C23 5901   3.607   1.656   4.154  0.4324  0.3696  0.1191
   64CHL1  H23A 5902   3.678   1.582   4.197 -1.9480 -1.4289  1.1847
   64CHL1  H23B 5903   3.665   1.748   4.135  0.6441  0.4289  1.0240
   64CHL1   C24 5904   3.489   1.682   4.251 -0.6110  0.8114  0.1487
   64CHL1  H24A 5905   3.414   1.720   4.178 -0.0872 -0.1926 -0.9486
   64CHL1  H24B 5906   3.443   1.594   4.301  1.6967  0.6935  2.2511
   64CHL1   C25 5907   3.531   1.786   4.354  0.5281  0.3632  0.6482
   64CHL1   H25 5908   3.571   1.870   4.294 -0.7734  0.1824 -0.5485
   64CHL1   C26 5909   3.410   1.841   4.426  0.3487  0.0255  0.1579
   64CHL1  H26A 5910   3.358   1.761   4.483  0.8778 -1.5681 -1.4846
   64CHL1  H26B 5911   3.452   1.919   4.492 -1.4169  0.9411  0.2671
   64CHL1  H26C 5912   3.340   1.895   4.358  2.8130  0.2116 -2.4273
   64CHL1   C27 5913   3.641   1.732   4.452  0.1110  1.1587  0.0255
   64CHL1  H27A 5914   3.666   1.809   4.528  0.1752 -0.5575  1.8248
   64CHL1  H27B 5915   3.594   1.644   4.499 -1.4279  1.9765  0.0875
   64CHL1  H27C 5916   3.730   1.697   4.395 -1.0974 -2.9755  0.3562
   65CHL1    C3 5917   0.939   6.427   2.750 -0.0362 -0.1814  0.1753
   65CHL1    H3 5918   0.992   6.340   2.707 -2.2397 -1.4781 -0.0644
   65CHL1    O3 5919   0.846   6.466   2.649  0.1177 -0.1320  0.2174
   65CHL1   H3' 5920   0.837   6.561   2.657  1.2168 -0.0622  0.7925
   65CHL1    C4 5921   0.856   6.396   2.875  0.3909  0.1712 -0.8016
   65CHL1   H4A 5922   0.803   6.487   2.910 -0.7460 -1.1516  1.0704
   65CHL1   H4B 5923   0.783   6.319   2.844 -0.8355  1.1594 -0.4517
   65CHL1    C5 5924   0.943   6.355   2.989 -0.7997  0.0035 -0.0886
   65CHL1    C6 5925   0.936   6.230   3.039  0.4996 -0.5020 -0.3413
   65CHL1    H6 5926   0.874   6.155   2.987  1.0031 -1.6159  0.6152
   65CHL1    C7 5927   1.016   6.176   3.157 -0.4529 -0.4380  0.0107
   65CHL1   H7A 5928   0.953   6.122   3.232  0.4781 -1.4603  0.0858
   65CHL1   H7B 5929   1.088   6.103   3.116 -1.1510 -0.4290 -1.2774
   65CHL1    C8 5930   1.097   6.290   3.230 -0.1743 -0.0497 -0.0527
   65CHL1    H8 5931   1.026   6.354   3.287 -0.3356  1.4607 -1.8464
   65CHL1   C14 5932   1.201   6.230   3.325  0.4758 -0.2256  0.3679
   65CHL1   H14 5933   1.280   6.172   3.272 -0.2559 -0.6694 -0.2489
   65CHL1   C15 5934   1.147   6.133   3.435  0.3310 -0.7653  0.2863
   65CHL1  H15A 5935   1.061   6.187   3.481  0.1199  0.6459 -1.6137
   65CHL1  H15B 5936   1.111   6.035   3.397 -0.2969 -0.6292  0.5157
   65CHL1   C16 5937   1.261   6.129   3.538 -0.5452 -0.3626 -0.5587
   65CHL1  H16A 5938   1.218   6.142   3.639  0.7210  0.6483 -0.1252
   65CHL1  H16B 5939   1.309   6.029   3.528 -2.0919 -1.4994  2.3825
   65CHL1   C17 5940   1.362   6.247   3.500  0.0491 -0.1474 -0.9445
   65CHL1   H17 5941   1.443   6.197   3.443 -0.2858 -2.8388  0.7457
   65CHL1   C13 5942   1.280   6.341   3.402 -0.4084 -0.7364  0.3898
   65CHL1   C18 5943   1.183   6.429   3.484  0.1010  0.3906  0.0625
   65CHL1  H18A 5944   1.242   6.511   3.529  1.3320 -0.8011  0.6795
   65CHL1  H18B 5945   1.108   6.469   3.412  1.9908 -0.7187 -2.6938
   65CHL1  H18C 5946   1.140   6.379   3.573 -0.2386 -0.4120 -0.5357
   65CHL1   C12 5947   1.353   6.423   3.299 -0.1152 -0.4228 -0.4352
   65CHL1  H12A 5948   1.413   6.505   3.345 -1.6214  2.0010 -2.5273
   65CHL1  H12B 5949   1.430   6.361   3.248 -1.5823 -1.0548 -1.9495
   65CHL1   C11 5950   1.252   6.491   3.199 -0.5105  0.3467  0.1405
   65CHL1  H11A 5951   1.195   6.568   3.255 -0.1353 -0.6909  2.0719
   65CHL1  H11B 5952   1.306   6.542   3.117 -1.7520 -3.7890 -3.6808
   65CHL1    C9 5953   1.167   6.382   3.124 -0.8269  0.0873  0.9116
   65CHL1    H9 5954   1.241   6.321   3.068 -0.8470  0.8129  0.0528
   65CHL1   C10 5955   1.056   6.455   3.028 -0.3048 -0.2104 -0.0081
   65CHL1   C19 5956   1.007   6.581   3.101 -0.2201  0.2178  0.0684
   65CHL1  H19A 5957   1.076   6.668   3.092 -0.8941  0.7468 -0.0052
   65CHL1  H19B 5958   0.912   6.621   3.060 -0.7201 -0.4027  0.5965
   65CHL1  H19C 5959   0.989   6.561   3.209  0.1848  1.5463  0.4038
   65CHL1    C1 5960   1.135   6.501   2.900  0.0668  0.1946 -0.9114
   65CHL1   H1A 5961   1.180   6.600   2.920  1.1235 -0.6247  0.9986
   65CHL1   H1B 5962   1.216   6.428   2.880  0.5954 -0.3921  2.7824
   65CHL1    C2 5963   1.049   6.533   2.773  0.0939  0.0145 -0.4974
   65CHL1   H2A 5964   1.106   6.558   2.681 -1.2871  1.6644 -0.9417
   65CHL1   H2B 5965   0.995   6.627   2.798 -2.3258 -1.8259  1.7803
   65CHL1   C20 5966   1.438   6.321   3.619  0.3327 -0.2524  0.5920
   65CHL1   H20 5967   1.355   6.364   3.678 -1.8210 -2.0566 -0.9592
   65CHL1   C21 5968   1.530   6.419   3.548  0.8652 -1.0079  0.3086
   65CHL1  H21A 5969   1.568   6.388   3.448  0.9353  0.8768 -0.2866
   65CHL1  H21B 5970   1.624   6.437   3.605  0.5527  1.5464  0.1276
   65CHL1  H21C 5971   1.481   6.518   3.534  0.3576 -1.0775  1.4946
   65CHL1   C22 5972   1.506   6.218   3.709  0.1703 -0.0129 -0.2275
   65CHL1  H22A 5973   1.567   6.274   3.783 -1.5574  0.8917  0.5432
   65CHL1  H22B 5974   1.427   6.167   3.768 -1.1813 -0.6056 -2.4474
   65CHL1   C23 5975   1.598   6.114   3.640 -0.1113  0.1338 -0.3642
   65CHL1  H23A 5976   1.541   6.033   3.590  0.0185 -1.0320  1.2875
   65CHL1  H23B 5977   1.647   6.171   3.558  0.9148  1.1100  0.8913
   65CHL1   C24 5978   1.707   6.059   3.734 -0.3896 -0.5944  0.2989
   65CHL1  H24A 5979   1.791   6.010   3.681 -0.9211  0.7264 -1.9004
   65CHL1  H24B 5980   1.758   6.146   3.780 -0.3486  0.2805 -1.3308
   65CHL1   C25 5981   1.674   5.958   3.849 -0.1355 -0.1167  0.9179
   65CHL1   H25 5982   1.590   5.991   3.914 -0.1222 -3.0323  2.5815
   65CHL1   C26 5983   1.622   5.826   3.790 -0.4876  0.3461 -0.4160
   65CHL1  H26A 5984   1.551   5.783   3.864  0.8214  0.6304  1.0699
   65CHL1  H26B 5985   1.567   5.843   3.695 -0.6872  0.8430 -0.2147
   65CHL1  H26C 5986   1.695   5.744   3.775 -0.0671  0.4265  1.0625
   65CHL1   C27 5987   1.800   5.934   3.931 -0.2650  0.2505 -0.8818
   65CHL1  H27A 5988   1.815   6.022   3.997 -0.1123  0.3346 -1.0257
   65CHL1  H27B 5989   1.771   5.857   4.006 -3.3221  1.9465 -0.1554
   65CHL1  H27C 5990   1.895   5.921   3.875 -0.1896  0.5995 -0.8380
   66CHL1    C3 5991   5.466   6.424   3.199 -0.2535 -0.0533  0.0725
   66CHL1    H3 5992   5.401   6.375   3.274  0.0417  1.3851  1.3307
   66CHL1    O3 5993   5.428   6.387   3.067 -0.2587 -0.0176 -0.0943
   66CHL1   H3' 5994   5.418   6.468   3.016  3.4321 -0.3088 -1.6133
   66CHL1    C4 5995   5.465   6.572   3.214 -0.3525  0.1654 -0.2261
   66CHL1   H4A 5996   5.545   6.616   3.151  1.5409  0.6606  2.3641
   66CHL1   H4B 5997   5.362   6.601   3.183 -0.1256  0.6553 -0.5317
   66CHL1    C5 5998   5.499   6.615   3.359  0.1743 -0.4391  0.9900
   66CHL1    C6 5999   5.413   6.685   3.437 -0.8194 -0.4483  0.2333
   66CHL1    H6 6000   5.318   6.709   3.387 -0.3321 -1.2817 -1.1566
   66CHL1    C7 6001   5.432   6.724   3.585  0.8758 -0.4239 -0.9755
   66CHL1   H7A 6002   5.412   6.833   3.596 -0.2210 -0.6336 -0.7892
   66CHL1   H7B 6003   5.356   6.663   3.637  1.7300 -0.1605  0.6420
   66CHL1    C8 6004   5.579   6.699   3.622 -0.4121  0.2505 -0.2787
   66CHL1    H8 6005   5.638   6.788   3.593  0.6501  0.2801  1.7291
   66CHL1   C14 6006   5.603   6.684   3.775  0.7513  0.0292 -0.2150
   66CHL1   H14 6007   5.556   6.589   3.809  0.9271  0.8561  2.5767
   66CHL1   C15 6008   5.541   6.797   3.856  1.0410 -0.4599 -0.3153
   66CHL1  H15A 6009   5.548   6.896   3.806  0.3022  0.5249  1.4379
   66CHL1  H15B 6010   5.435   6.769   3.871  1.3560 -0.9737  1.0987
   66CHL1   C16 6011   5.615   6.794   3.989  0.1854  0.0038 -0.0423
   66CHL1  H16A 6012   5.661   6.894   4.006 -0.0642 -0.0267  0.8975
   66CHL1  H16B 6013   5.544   6.779   4.073 -1.1282  3.6192 -0.3442
   66CHL1   C17 6014   5.723   6.678   3.976  0.6212  0.0499 -0.3240
   66CHL1   H17 6015   5.676   6.586   4.017 -0.5977  1.5394  1.8055
   66CHL1   C13 6016   5.743   6.661   3.823  0.0623 -0.1238  0.3353
   66CHL1   C18 6017   5.833   6.772   3.765 -0.0178 -0.0253 -0.3002
   66CHL1  H18A 6018   5.850   6.777   3.656  3.1082  0.1576  0.0993
   66CHL1  H18B 6019   5.794   6.866   3.808 -0.3144 -0.2790 -0.0104
   66CHL1  H18C 6020   5.935   6.751   3.803 -0.3471  2.2652  2.1321
   66CHL1   C12 6021   5.779   6.519   3.779 -0.4122 -0.2457  0.6301
   66CHL1  H12A 6022   5.885   6.493   3.801 -0.8284 -0.2148  2.9230
   66CHL1  H12B 6023   5.724   6.435   3.827 -0.2514 -1.3529 -1.0406
   66CHL1   C11 6024   5.767   6.518   3.624  0.4442 -0.1677  0.0102
   66CHL1  H11A 6025   5.859   6.572   3.592  1.7515 -0.4134  2.9669
   66CHL1  H11B 6026   5.786   6.418   3.580  3.1890  1.0163 -1.7504
   66CHL1    C9 6027   5.634   6.569   3.562 -0.2397 -0.1850 -0.2567
   66CHL1    H9 6028   5.566   6.491   3.602  0.7859  0.5854  3.2921
   66CHL1   C10 6029   5.634   6.557   3.403  0.4156 -0.6358 -0.0164
   66CHL1   C19 6030   5.752   6.641   3.337 -0.0847 -0.3747 -0.0840
   66CHL1  H19A 6031   5.847   6.586   3.357 -0.3601 -0.8211  0.0228
   66CHL1  H19B 6032   5.738   6.672   3.231  2.3730 -0.9258 -0.6474
   66CHL1  H19C 6033   5.758   6.738   3.391  0.2406  0.0946 -0.9429
   66CHL1    C1 6034   5.652   6.406   3.369 -0.1823  0.3791  0.2966
   66CHL1   H1A 6035   5.760   6.378   3.375 -0.6368 -1.6835 -0.5111
   66CHL1   H1B 6036   5.589   6.349   3.441 -3.8194  2.5664 -0.9099
   66CHL1    C2 6037   5.609   6.374   3.228 -0.4143  0.3826  0.4937
   66CHL1   H2A 6038   5.608   6.263   3.221 -1.2851  0.4652 -0.9525
   66CHL1   H2B 6039   5.683   6.424   3.162  0.4374 -1.3969  0.0392
   66CHL1   C20 6040   5.841   6.706   4.063 -0.5169 -0.4033  0.6954
   66CHL1   H20 6041   5.900   6.795   4.032 -2.2811  0.5818  0.0308
   66CHL1   C21 6042   5.946   6.591   4.045 -0.3031  0.1288  0.5152
   66CHL1  H21A 6043   5.901   6.489   4.049 -0.7671  0.1806 -1.8243
   66CHL1  H21B 6044   6.022   6.594   4.126 -1.0370 -0.2733  1.2310
   66CHL1  H21C 6045   6.003   6.592   3.950 -1.0057  0.5206  0.0921
   66CHL1   C22 6046   5.796   6.725   4.211 -0.6150 -0.4681 -0.2857
   66CHL1  H22A 6047   5.722   6.807   4.221  0.5312  0.5830 -0.2103
   66CHL1  H22B 6048   5.763   6.627   4.252  1.2048 -0.7909  0.4949
   66CHL1   C23 6049   5.915   6.774   4.303 -0.5365  0.2955 -0.1696
   66CHL1  H23A 6050   5.968   6.678   4.323 -0.7518  0.4819  1.3969
   66CHL1  H23B 6051   5.967   6.854   4.247 -0.0801  2.8522  3.5202
   66CHL1   C24 6052   5.865   6.834   4.439  0.1492  0.1808 -0.8160
   66CHL1  H24A 6053   5.787   6.910   4.421 -0.8711 -0.3950  0.9043
   66CHL1  H24B 6054   5.815   6.744   4.480 -0.2528  1.2618  1.1899
   66CHL1   C25 6055   5.980   6.868   4.535  0.2647  0.2781  0.2021
   66CHL1   H25 6056   6.038   6.774   4.541 -0.2559 -0.0802 -0.2431
   66CHL1   C26 6057   6.073   6.975   4.476  0.6910 -0.2557  0.2585
   66CHL1  H26A 6058   6.014   7.066   4.451  0.4306 -0.5871 -0.3741
   66CHL1  H26B 6059   6.161   6.991   4.542  1.3960 -2.5749 -0.0343
   66CHL1  H26C 6060   6.118   6.932   4.384  0.6365  0.4589 -0.1086
   66CHL1   C27 6061   5.935   6.901   4.680 -0.0447 -0.0529 -1.0676
   66CHL1  H27A 6062   5.865   6.986   4.688  2.1546  1.8704 -1.1021
   66CHL1  H27B 6063   6.018   6.947   4.737 -3.7079  2.8089  2.4865
   66CHL1  H27C 6064   5.892   6.815   4.737 -4.2014 -0.7050 -4.6605
   67CHL1    C3 6065   4.626   5.855   2.943 -0.0479 -0.3382 -0.0045
   67CHL1    H3 6066   4.541   5.785   2.950 -0.4552  0.2363  1.0552
   67CHL1    O3 6067   4.654   5.877   2.807  0.2525 -0.0083  0.1162
   67CHL1   H3' 6068   4.705   5.958   2.816 -0.8277  0.8534 -1.0849
   67CHL1    C4 6069   4.593   5.985   3.008 -0.6129 -0.3423  0.2004
   67CHL1   H4A 6070   4.685   6.046   2.997 -0.1159 -0.8039  1.5923
   67CHL1   H4B 6071   4.515   6.044   2.956  1.9064  1.8782 -1.2809
   67CHL1    C5 6072   4.559   5.983   3.158  0.3567  0.1949  0.5677
   67CHL1    C6 6073   4.440   6.027   3.206 -0.0152  0.1666  0.1468
   67CHL1    H6 6074   4.366   6.060   3.131 -1.0231 -0.3552  0.8783
   67CHL1    C7 6075   4.390   6.023   3.347  0.5330  0.0987  0.7339
   67CHL1   H7A 6076   4.337   6.118   3.369 -2.1871 -1.1073 -0.1962
   67CHL1   H7B 6077   4.317   5.946   3.378 -0.2713  1.6955  3.0905
   67CHL1    C8 6078   4.507   5.988   3.442  0.5011 -0.1101  0.0399
   67CHL1    H8 6079   4.580   6.072   3.448  0.7388 -0.4215  2.8647
   67CHL1   C14 6080   4.466   5.962   3.590 -0.3064  0.2201  0.1214
   67CHL1   H14 6081   4.394   5.878   3.589  1.4758 -1.4321  2.0380
   67CHL1   C15 6082   4.373   6.066   3.665 -0.0898  0.7222 -0.1566
   67CHL1  H15A 6083   4.422   6.166   3.671  3.2504 -0.7442 -0.7082
   67CHL1  H15B 6084   4.272   6.080   3.620 -1.0167 -0.1614  1.5683
   67CHL1   C16 6085   4.371   6.019   3.813 -0.3184 -0.1657 -0.3525
   67CHL1  H16A 6086   4.393   6.111   3.871  2.7177 -0.7292 -0.4585
   67CHL1  H16B 6087   4.274   5.978   3.849 -1.1197  1.0575 -1.0431
   67CHL1   C17 6088   4.492   5.920   3.824 -0.2216  0.7956 -0.4290
   67CHL1   H17 6089   4.443   5.821   3.832  0.1203  0.7133  1.0649
   67CHL1   C13 6090   4.573   5.929   3.688 -0.2991  0.4826 -0.2602
   67CHL1   C18 6091   4.674   6.040   3.701  0.2817  0.0134 -0.1457
   67CHL1  H18A 6092   4.756   6.012   3.771 -0.7204 -0.4863  0.8652
   67CHL1  H18B 6093   4.719   6.069   3.604 -0.7893  5.8180  0.7589
   67CHL1  H18C 6094   4.621   6.126   3.746 -2.3503 -0.4288 -2.1476
   67CHL1   C12 6095   4.647   5.810   3.633 -0.6817  0.2939  0.1019
   67CHL1  H12A 6096   4.742   5.805   3.690 -0.1866  0.9761 -0.6435
   67CHL1  H12B 6097   4.590   5.714   3.636 -0.1602 -0.0700 -1.1436
   67CHL1   C11 6098   4.698   5.832   3.488  0.1305  0.4511 -0.2262
   67CHL1  H11A 6099   4.774   5.914   3.491  0.6835 -0.0771  1.7121
   67CHL1  H11B 6100   4.734   5.737   3.444 -0.2077  0.7107 -1.0880
   67CHL1    C9 6101   4.589   5.870   3.381 -0.0679 -0.2159  0.1330
   67CHL1    H9 6102   4.528   5.778   3.377  1.5725 -1.3866  0.8923
   67CHL1   C10 6103   4.660   5.907   3.242  0.2065 -0.0923 -0.3871
   67CHL1   C19 6104   4.782   5.999   3.252  0.0681  0.2488  0.5522
   67CHL1  H19A 6105   4.770   6.093   3.311 -2.7104 -0.7708  1.7789
   67CHL1  H19B 6106   4.852   5.931   3.304 -0.9955 -4.5581 -3.5151
   67CHL1  H19C 6107   4.825   6.020   3.151 -1.2095 -1.0669 -0.3118
   67CHL1    C1 6108   4.694   5.776   3.164 -0.2412  1.0038 -0.6864
   67CHL1   H1A 6109   4.779   5.727   3.216  0.6078  1.0219 -2.0199
   67CHL1   H1B 6110   4.607   5.707   3.160 -0.1823  0.8466  0.3546
   67CHL1    C2 6111   4.743   5.790   3.019  0.2716  0.1985  0.4761
   67CHL1   H2A 6112   4.754   5.686   2.980 -0.8473  0.1318  0.3138
   67CHL1   H2B 6113   4.837   5.848   3.004 -0.0475  0.3823 -1.0096
   67CHL1   C20 6114   4.557   5.925   3.962 -0.0477 -0.3511 -0.3508
   67CHL1   H20 6115   4.624   6.014   3.967  0.2617 -0.6504  1.4398
   67CHL1   C21 6116   4.650   5.807   3.972  0.3841 -0.7321  0.5379
   67CHL1  H21A 6117   4.734   5.806   3.899  0.9584 -0.2653  1.1846
   67CHL1  H21B 6118   4.590   5.714   3.958 -1.4518  0.3420  0.9870
   67CHL1  H21C 6119   4.703   5.810   4.070 -0.8455  1.9883  1.2028
   67CHL1   C22 6120   4.450   5.926   4.086 -0.1111 -0.3498 -0.1428
   67CHL1  H22A 6121   4.416   6.030   4.104  1.0992  0.4684 -2.2395
   67CHL1  H22B 6122   4.359   5.865   4.069 -2.4926  2.7388  0.5335
   67CHL1   C23 6123   4.510   5.891   4.223 -0.3653 -0.4095 -0.8618
   67CHL1  H23A 6124   4.543   5.785   4.226 -0.8433 -0.5731 -1.4426
   67CHL1  H23B 6125   4.596   5.959   4.242 -0.8508  0.0295 -0.2105
   67CHL1   C24 6126   4.406   5.917   4.341  0.3619  0.1063  0.0116
   67CHL1  H24A 6127   4.394   6.028   4.347  0.4425  0.1428 -0.4879
   67CHL1  H24B 6128   4.318   5.860   4.304  0.2264  1.1566 -1.3422
   67CHL1   C25 6129   4.449   5.871   4.485  0.1363  0.1229 -0.4561
   67CHL1   H25 6130   4.552   5.910   4.497 -0.1640  0.5736  0.8973
   67CHL1   C26 6131   4.372   5.931   4.603 -0.8024  0.4852 -0.5561
   67CHL1  H26A 6132   4.383   6.041   4.615  0.9879  0.2675  0.0232
   67CHL1  H26B 6133   4.263   5.912   4.591 -0.6790 -0.3284 -0.4392
   67CHL1  H26C 6134   4.406   5.882   4.697 -3.6488 -1.2873 -0.3196
   67CHL1   C27 6135   4.447   5.718   4.503  0.6953 -0.3086  0.3588
   67CHL1  H27A 6136   4.476   5.689   4.606 -0.4589  0.0978  0.8172
   67CHL1  H27B 6137   4.353   5.665   4.478  1.1296  0.0801 -2.4328
   67CHL1  H27C 6138   4.523   5.674   4.434  1.8131 -1.2354  2.0947
   68CHL1    C3 6139   2.503   4.614   2.845 -0.6049  0.3919  0.1773
   68CHL1    H3 6140   2.505   4.504   2.838  2.7863  0.1844  1.9655
   68CHL1    O3 6141   2.507   4.683   2.724 -0.3077  0.0401  0.1112
   68CHL1   H3' 6142   2.539   4.767   2.759  0.0228 -0.3143  0.6683
   68CHL1    C4 6143   2.377   4.656   2.919  0.2357  0.2020 -0.1334
   68CHL1   H4A 6144   2.351   4.761   2.894  2.4267  0.4087 -1.7942
   68CHL1   H4B 6145   2.292   4.597   2.879 -1.5975  0.5390  2.9643
   68CHL1    C5 6146   2.376   4.633   3.075  0.0250 -0.6702 -0.1413
   68CHL1    C6 6147   2.260   4.591   3.132 -0.1570 -0.0838 -0.2034
   68CHL1    H6 6148   2.174   4.587   3.064 -2.0469 -0.4646  2.0454
   68CHL1    C7 6149   2.241   4.559   3.278 -0.9411  0.7526  0.4998
   68CHL1   H7A 6150   2.140   4.579   3.318 -0.7629  0.6821  0.9838
   68CHL1   H7B 6151   2.247   4.448   3.286 -3.3193  0.3829 -1.4817
   68CHL1    C8 6152   2.355   4.626   3.356  0.1279  0.0841  0.0364
   68CHL1    H8 6153   2.330   4.735   3.359 -0.8235 -0.0449 -1.5925
   68CHL1   C14 6154   2.350   4.567   3.498  0.5008  0.1152 -0.1987
   68CHL1   H14 6155   2.360   4.457   3.487  0.6404  0.1372 -0.3050
   68CHL1   C15 6156   2.214   4.582   3.580 -0.7553  0.1040  0.3402
   68CHL1  H15A 6157   2.175   4.682   3.554  1.0235  1.1425  1.4550
   68CHL1  H15B 6158   2.139   4.506   3.549 -1.5000  0.6980  0.6543
   68CHL1   C16 6159   2.256   4.583   3.727 -0.4057 -0.2019  0.3389
   68CHL1  H16A 6160   2.220   4.677   3.775  0.9058 -0.2366  1.4513
   68CHL1  H16B 6161   2.210   4.502   3.786 -0.1378 -3.6970 -3.7806
   68CHL1   C17 6162   2.408   4.567   3.726  0.5413  0.2789  0.3212
   68CHL1   H17 6163   2.421   4.457   3.721 -4.4600 -0.5520  0.5633
   68CHL1   C13 6164   2.456   4.631   3.593 -0.0897  0.0854 -0.4956
   68CHL1   C18 6165   2.438   4.787   3.606 -0.4653  0.5701 -0.0532
   68CHL1  H18A 6166   2.423   4.832   3.506 -2.3964 -1.6527 -0.8759
   68CHL1  H18B 6167   2.353   4.814   3.672 -0.7026 -0.5102  0.1014
   68CHL1  H18C 6168   2.529   4.823   3.657 -1.0258  0.0208  1.3912
   68CHL1   C12 6169   2.590   4.587   3.537 -0.1004 -0.0833  0.0915
   68CHL1  H12A 6170   2.673   4.616   3.605  0.4671 -0.3596 -0.4749
   68CHL1  H12B 6171   2.590   4.476   3.532 -0.9227 -0.3183  3.2263
   68CHL1   C11 6172   2.619   4.630   3.389  0.9183  0.3505  0.7260
   68CHL1  H11A 6173   2.627   4.741   3.390 -1.6264  0.6172 -0.5237
   68CHL1  H11B 6174   2.714   4.584   3.353 -0.6840 -0.3423 -3.0876
   68CHL1    C9 6175   2.495   4.595   3.287 -0.1441 -0.0706 -0.4166
   68CHL1    H9 6176   2.507   4.485   3.280 -0.3194 -0.0446 -1.2186
   68CHL1   C10 6177   2.502   4.660   3.149 -0.0476  0.1732  0.7671
   68CHL1   C19 6178   2.520   4.819   3.155  0.2350  0.3839  0.1177
   68CHL1  H19A 6179   2.625   4.842   3.185 -0.0004  3.9138 -1.2174
   68CHL1  H19B 6180   2.509   4.856   3.051 -0.2813 -0.2352 -0.0518
   68CHL1  H19C 6181   2.443   4.861   3.223 -0.1472 -0.0647 -0.0367
   68CHL1    C1 6182   2.622   4.600   3.074 -0.5084  0.0731  0.1472
   68CHL1   H1A 6183   2.714   4.631   3.127 -0.1329 -0.9716  0.1345
   68CHL1   H1B 6184   2.623   4.489   3.077  4.1772 -0.1054  4.1576
   68CHL1    C2 6185   2.624   4.654   2.931  0.1935 -0.2232  0.0634
   68CHL1   H2A 6186   2.713   4.607   2.883  0.2809  0.7073 -0.7137
   68CHL1   H2B 6187   2.648   4.762   2.926 -0.9019  0.0976  1.3574
   68CHL1   C20 6188   2.478   4.614   3.860 -0.7953  0.2323  0.0121
   68CHL1   H20 6189   2.476   4.726   3.864  1.0750  0.3783 -1.6505
   68CHL1   C21 6190   2.630   4.583   3.864  0.2891 -0.2341  0.8021
   68CHL1  H21A 6191   2.684   4.642   3.787  1.5031 -1.5763  0.5887
   68CHL1  H21B 6192   2.632   4.473   3.847  0.1851  0.1603 -2.4404
   68CHL1  H21C 6193   2.687   4.604   3.956 -0.2515 -0.3976  1.1792
   68CHL1   C22 6194   2.405   4.552   3.982 -0.5602 -0.1638  0.4259
   68CHL1  H22A 6195   2.308   4.605   3.998 -1.1384 -0.7705 -0.8774
   68CHL1  H22B 6196   2.381   4.446   3.958 -1.5806  0.4049 -1.3055
   68CHL1   C23 6197   2.488   4.533   4.116  0.4991 -0.7989  0.3014
   68CHL1  H23A 6198   2.559   4.452   4.090 -0.4933 -1.9693  1.1635
   68CHL1  H23B 6199   2.539   4.631   4.128 -0.9406  0.3810 -2.2511
   68CHL1   C24 6200   2.397   4.492   4.227 -0.0355  0.3389  0.1825
   68CHL1  H24A 6201   2.318   4.569   4.240  0.0660  0.0274  3.8967
   68CHL1  H24B 6202   2.343   4.398   4.203  0.0884  0.2371  0.2955
   68CHL1   C25 6203   2.454   4.464   4.366 -0.0680 -0.3562 -0.4161
   68CHL1   H25 6204   2.514   4.372   4.351 -2.1471 -1.3344 -3.5784
   68CHL1   C26 6205   2.539   4.585   4.407 -0.6768 -0.6697  0.7273
   68CHL1  H26A 6206   2.586   4.575   4.507 -0.9750 -1.3416  0.8092
   68CHL1  H26B 6207   2.613   4.613   4.329  2.4590 -3.5413  2.4187
   68CHL1  H26C 6208   2.472   4.674   4.403 -0.2343 -0.3796 -0.8242
   68CHL1   C27 6209   2.337   4.432   4.467 -0.1468 -0.1642  0.0474
   68CHL1  H27A 6210   2.265   4.351   4.443  1.7736 -2.0335  0.3705
   68CHL1  H27B 6211   2.379   4.416   4.569  1.8379  0.4802 -0.6190
   68CHL1  H27C 6212   2.284   4.530   4.474 -0.0650 -0.2405  2.5334
   69CHL1    C3 6213   0.808   1.890   3.198 -0.6253 -0.4011 -1.0594
   69CHL1    H3 6214   0.813   1.996   3.229 -1.7868  0.0758 -2.3885
   69CHL1    O3 6215   0.855   1.876   3.068 -0.0019 -0.3137 -0.4086
   69CHL1   H3' 6216   0.803   1.934   3.012  0.2029 -0.3729 -0.6602
   69CHL1    C4 6217   0.894   1.798   3.301  0.2061 -0.3411  0.8281
   69CHL1   H4A 6218   0.881   1.696   3.260 -3.4722 -0.2615  1.4219
   69CHL1   H4B 6219   0.996   1.838   3.285  0.3296 -1.0897 -0.3892
   69CHL1    C5 6220   0.853   1.802   3.443  0.4663  0.0510 -1.0167
   69CHL1    C6 6221   0.935   1.850   3.537  0.2582  0.6376  1.1916
   69CHL1    H6 6222   1.039   1.874   3.511 -0.3085  2.1557  0.1464
   69CHL1    C7 6223   0.900   1.868   3.674 -0.3779 -0.0583 -0.2162
   69CHL1   H7A 6224   0.983   1.839   3.743 -0.1046  1.5036  0.1557
   69CHL1   H7B 6225   0.891   1.979   3.683 -0.0881  0.1370 -1.9663
   69CHL1    C8 6226   0.766   1.799   3.722 -0.6731 -0.1462  0.7173
   69CHL1    H8 6227   0.794   1.695   3.748  1.7651  0.5594  1.1706
   69CHL1   C14 6228   0.721   1.858   3.855  0.4230  0.5790  0.1567
   69CHL1   H14 6229   0.691   1.958   3.818  1.1200 -0.1118 -2.5147
   69CHL1   C15 6230   0.824   1.871   3.961  0.0804  0.1273 -0.8407
   69CHL1  H15A 6231   0.905   1.796   3.970 -0.1452  0.1604  3.6624
   69CHL1  H15B 6232   0.860   1.975   3.942 -3.2732  1.5513 -0.1072
   69CHL1   C16 6233   0.740   1.872   4.093 -0.4849 -0.3571  0.1519
   69CHL1  H16A 6234   0.761   1.781   4.154 -2.0465 -0.7251  0.1806
   69CHL1  H16B 6235   0.778   1.953   4.160 -0.1410 -0.9222  0.6545
   69CHL1   C17 6236   0.591   1.872   4.040 -0.2162 -0.9050 -0.3577
   69CHL1   H17 6237   0.568   1.979   4.021  2.1659 -0.5747 -1.8056
   69CHL1   C13 6238   0.600   1.796   3.914  0.0098  1.0337  0.4582
   69CHL1   C18 6239   0.628   1.646   3.959  0.4518  0.6246  0.1921
   69CHL1  H18A 6240   0.716   1.636   4.026  0.5752  0.5693  0.0247
   69CHL1  H18B 6241   0.544   1.598   4.013 -0.5587 -2.2334 -3.4618
   69CHL1  H18C 6242   0.652   1.587   3.867 -0.3576  1.6047 -0.6722
   69CHL1   C12 6243   0.485   1.803   3.809  0.3048 -0.0486 -0.3352
   69CHL1  H12A 6244   0.403   1.740   3.851 -0.2698  1.2705  0.5995
   69CHL1  H12B 6245   0.437   1.900   3.785  0.9031  0.4423  0.4307
   69CHL1   C11 6246   0.527   1.741   3.671  0.3112 -0.1716 -0.9449
   69CHL1  H11A 6247   0.545   1.633   3.689 -2.3869 -1.0851 -2.9574
   69CHL1  H11B 6248   0.452   1.753   3.590  0.1477 -0.8181 -0.8898
   69CHL1    C9 6249   0.658   1.806   3.613  0.8114  0.4057 -0.1839
   69CHL1    H9 6250   0.634   1.915   3.604  1.3736  0.6360  0.9328
   69CHL1   C10 6251   0.698   1.766   3.467  0.0348  0.1449 -0.5696
   69CHL1   C19 6252   0.674   1.614   3.449 -0.2467  0.3547  0.0842
   69CHL1  H19A 6253   0.732   1.567   3.366 -0.6171 -4.2034  2.1391
   69CHL1  H19B 6254   0.691   1.558   3.543 -1.2339  2.0311  1.3036
   69CHL1  H19C 6255   0.566   1.600   3.428 -0.2121 -1.8491  1.0735
   69CHL1    C1 6256   0.622   1.860   3.361  0.2374  0.3934 -0.2510
   69CHL1   H1A 6257   0.514   1.842   3.375  0.4938  0.1434  1.8017
   69CHL1   H1B 6258   0.636   1.964   3.397 -0.1803  0.7719 -1.1564
   69CHL1    C2 6259   0.654   1.843   3.213 -0.0924  0.3071  0.5811
   69CHL1   H2A 6260   0.599   1.914   3.147  1.2292 -0.3341 -1.2863
   69CHL1   H2B 6261   0.639   1.742   3.170 -1.7300  1.1515 -0.9441
   69CHL1   C20 6262   0.492   1.828   4.150 -0.4785 -0.4606  1.2118
   69CHL1   H20 6263   0.513   1.720   4.170 -1.9942 -1.0684 -0.2228
   69CHL1   C21 6264   0.350   1.841   4.094  0.3719 -0.2861 -0.1478
   69CHL1  H21A 6265   0.316   1.739   4.063  1.1750 -0.9313  1.0257
   69CHL1  H21B 6266   0.337   1.916   4.013 -2.7849 -0.9377 -0.3906
   69CHL1  H21C 6267   0.274   1.864   4.172  1.0131  1.6831 -0.0603
   69CHL1   C22 6268   0.499   1.913   4.278  0.5014  0.2100  0.8915
   69CHL1  H22A 6269   0.604   1.931   4.309  0.5131  0.9909  0.4427
   69CHL1  H22B 6270   0.472   2.019   4.261  0.3998  0.0749  0.1351
   69CHL1   C23 6271   0.424   1.854   4.389  0.1347 -0.1038 -0.5277
   69CHL1  H23A 6272   0.314   1.841   4.382 -0.0022  0.3878  0.5565
   69CHL1  H23B 6273   0.478   1.757   4.398  1.5587  0.5309 -1.7815
   69CHL1   C24 6274   0.446   1.934   4.517  0.3559 -0.2411 -1.1020
   69CHL1  H24A 6275   0.554   1.957   4.536  0.2940 -0.8462  0.0795
   69CHL1  H24B 6276   0.395   2.028   4.486 -0.0638 -0.1093 -0.0477
   69CHL1   C25 6277   0.383   1.878   4.644 -0.3244 -0.1450  0.3320
   69CHL1   H25 6278   0.275   1.869   4.623 -0.0623 -0.9526 -0.8042
   69CHL1   C26 6279   0.451   1.741   4.682 -0.0511 -0.0062  0.7063
   69CHL1  H26A 6280   0.426   1.667   4.602 -0.8779  1.9674 -0.9521
   69CHL1  H26B 6281   0.561   1.752   4.692  0.3952 -2.5602 -0.5178
   69CHL1  H26C 6282   0.419   1.708   4.783 -0.6515 -2.2599 -0.1432
   69CHL1   C27 6283   0.405   1.956   4.769 -0.0459 -0.3848 -0.3053
   69CHL1  H27A 6284   0.343   1.907   4.848  1.3663 -0.8523  0.5412
   69CHL1  H27B 6285   0.504   1.942   4.817 -0.2667 -1.2137 -0.0808
   69CHL1  H27C 6286   0.373   2.062   4.766 -1.5933 -0.7191  1.8920
   70CHL1    C3 6287   1.541   5.118   2.836 -0.9175 -0.4489  0.0960
   70CHL1    H3 6288   1.625   5.053   2.869 -1.2877 -1.0369 -0.0958
   70CHL1    O3 6289   1.530   5.116   2.694 -0.2092  0.0083 -0.7061
   70CHL1   H3' 6290   1.439   5.086   2.684 -0.4047 -0.0200  0.9392
   70CHL1    C4 6291   1.406   5.075   2.909 -0.2268  0.7916  0.3223
   70CHL1   H4A 6292   1.322   5.137   2.871  0.0428  1.4406  0.7745
   70CHL1   H4B 6293   1.374   4.972   2.883  0.0159 -0.2365  3.6516
   70CHL1    C5 6294   1.428   5.080   3.056 -0.6101  0.3904 -0.4951
   70CHL1    C6 6295   1.433   4.967   3.126 -0.5522  0.1130 -0.7084
   70CHL1    H6 6296   1.396   4.874   3.081  0.4722 -0.7396  0.1432
   70CHL1    C7 6297   1.472   4.958   3.274 -0.2030  0.1892  0.6164
   70CHL1   H7A 6298   1.405   4.889   3.330  1.7214 -1.4933  0.9782
   70CHL1   H7B 6299   1.571   4.911   3.291  0.0894  0.5334 -0.0922
   70CHL1    C8 6300   1.471   5.097   3.344  0.1109 -0.3621 -0.5145
   70CHL1    H8 6301   1.362   5.120   3.342  0.3496  0.7508 -1.7179
   70CHL1   C14 6302   1.535   5.096   3.482  0.4236 -0.9164  0.3150
   70CHL1   H14 6303   1.642   5.081   3.460 -0.0252 -1.6370 -1.5137
   70CHL1   C15 6304   1.496   4.982   3.581  0.4795 -0.6855  0.7022
   70CHL1  H15A 6305   1.385   4.978   3.586  0.4896 -1.0069  0.6779
   70CHL1  H15B 6306   1.541   4.883   3.559 -0.7839 -1.3059  0.7789
   70CHL1   C16 6307   1.538   5.042   3.717  0.4934 -0.6228 -0.1284
   70CHL1  H16A 6308   1.453   5.054   3.786  0.1896  0.7424 -0.7055
   70CHL1  H16B 6309   1.620   4.987   3.767  0.0118 -2.0834 -0.8978
   70CHL1   C17 6310   1.591   5.189   3.685 -0.9783  0.2112 -0.5102
   70CHL1   H17 6311   1.693   5.164   3.649  0.2092  2.4375  1.0713
   70CHL1   C13 6312   1.519   5.234   3.556  0.5022 -0.6923  0.1003
   70CHL1   C18 6313   1.371   5.271   3.590 -0.3116 -0.2202  0.2817
   70CHL1  H18A 6314   1.316   5.189   3.640  0.9124 -0.8526  0.6188
   70CHL1  H18B 6315   1.373   5.359   3.658  0.8397 -0.7704  0.9830
   70CHL1  H18C 6316   1.328   5.307   3.494  0.3912  0.3390  0.1651
   70CHL1   C12 6317   1.596   5.341   3.479 -0.7970  0.3862  0.6857
   70CHL1  H12A 6318   1.586   5.438   3.532 -1.7504  1.4830 -1.3577
   70CHL1  H12B 6319   1.705   5.319   3.479 -0.7385  0.4852 -1.3487
   70CHL1   C11 6320   1.542   5.343   3.329 -0.2182 -0.6641  0.0315
   70CHL1  H11A 6321   1.445   5.396   3.333 -0.9273 -1.9580  0.8022
   70CHL1  H11B 6322   1.606   5.404   3.263 -0.2858  0.5916  1.0877
   70CHL1    C9 6323   1.537   5.204   3.256  0.1006  0.4126 -0.2977
   70CHL1    H9 6324   1.645   5.188   3.236  0.7250  2.2456  1.3157
   70CHL1   C10 6325   1.476   5.215   3.113 -0.1251 -0.1416 -0.2508
   70CHL1   C19 6326   1.343   5.312   3.100  0.2588 -0.0888 -0.0235
   70CHL1  H19A 6327   1.360   5.416   3.137 -1.3692  0.2925 -0.2742
   70CHL1  H19B 6328   1.321   5.321   2.992  0.6728  0.5904 -0.0621
   70CHL1  H19C 6329   1.266   5.257   3.158 -0.4126 -3.0131 -3.3556
   70CHL1    C1 6330   1.586   5.276   3.019 -0.2401  0.0206  0.0774
   70CHL1   H1A 6331   1.600   5.383   3.046  1.0415 -0.3333  0.8959
   70CHL1   H1B 6332   1.686   5.231   3.036 -0.4662 -0.3374  0.4794
   70CHL1    C2 6333   1.563   5.263   2.873 -0.6831 -0.0876  0.0002
   70CHL1   H2A 6334   1.659   5.298   2.830 -0.4112 -1.0705 -0.2254
   70CHL1   H2B 6335   1.481   5.335   2.854 -0.9507  0.1588  1.9409
   70CHL1   C20 6336   1.614   5.283   3.803  0.2692 -1.2079 -0.5653
   70CHL1   H20 6337   1.590   5.387   3.773  4.4508  0.6844  1.7858
   70CHL1   C21 6338   1.764   5.282   3.846  0.4323  0.7002  0.4539
   70CHL1  H21A 6339   1.826   5.310   3.758  0.7341  0.5071  0.6068
   70CHL1  H21B 6340   1.790   5.180   3.880 -1.2921  0.9785  2.8466
   70CHL1  H21C 6341   1.781   5.359   3.924  1.3737 -1.4990  2.5090
   70CHL1   C22 6342   1.523   5.248   3.920  0.4587  0.0303  0.3186
   70CHL1  H22A 6343   1.419   5.241   3.881  0.2162  0.1592  0.9401
   70CHL1  H22B 6344   1.546   5.151   3.968 -2.4353  0.0389  1.9865
   70CHL1   C23 6345   1.507   5.351   4.026 -1.0343 -0.4811 -0.7476
   70CHL1  H23A 6346   1.605   5.352   4.078 -1.1212 -0.6326 -0.5784
   70CHL1  H23B 6347   1.477   5.455   3.999 -0.8868  1.0276  3.9287
   70CHL1   C24 6348   1.396   5.312   4.134 -0.3888 -0.0472  0.0804
   70CHL1  H24A 6349   1.412   5.399   4.202  0.0053  0.9212 -1.2167
   70CHL1  H24B 6350   1.292   5.312   4.096  0.1644  2.5700 -1.6866
   70CHL1   C25 6351   1.427   5.188   4.214  0.7216 -0.2557  0.2722
   70CHL1   H25 6352   1.428   5.102   4.144  1.8314 -1.0693  1.2303
   70CHL1   C26 6353   1.562   5.195   4.285 -0.4776 -0.4614 -0.0578
   70CHL1  H26A 6354   1.579   5.118   4.364  1.5759 -1.7852 -1.6752
   70CHL1  H26B 6355   1.652   5.208   4.221  0.1980 -1.5623  0.6260
   70CHL1  H26C 6356   1.555   5.293   4.338 -0.3956 -1.3902  1.7645
   70CHL1   C27 6357   1.319   5.160   4.308  0.0925 -0.0115  0.2290
   70CHL1  H27A 6358   1.222   5.152   4.255 -0.0713  3.3449 -0.2304
   70CHL1  H27B 6359   1.344   5.068   4.364  0.3900  0.2421  0.5186
   70CHL1  H27C 6360   1.321   5.247   4.377  1.2311  1.0884 -1.1254
   71CHL1    C3 6361   0.053   5.166   2.443  0.7407  0.7149 -0.5248
   71CHL1    H3 6362   0.143   5.105   2.419 -1.1197 -2.3537 -0.2142
   71CHL1    O3 6363  -0.013   5.183   2.316 -0.3753  0.3212 -0.7550
   71CHL1   H3' 6364  -0.098   5.222   2.337 -1.0532 -1.8740  0.9957
   71CHL1    C4 6365  -0.040   5.087   2.541  0.0092  0.5129  0.2646
   71CHL1   H4A 6366  -0.140   5.134   2.548 -0.0556  0.5929 -0.9954
   71CHL1   H4B 6367  -0.060   4.987   2.497  1.6025 -0.3058  1.3202
   71CHL1    C5 6368   0.027   5.064   2.675  0.3214  0.3097  0.4417
   71CHL1    C6 6369   0.053   4.937   2.723  0.3727  0.1058 -0.0900
   71CHL1    H6 6370   0.029   4.859   2.649  1.1415  0.6074 -0.8798
   71CHL1    C7 6371   0.116   4.911   2.860 -0.2562 -0.3812 -0.6323
   71CHL1   H7A 6372   0.053   4.830   2.904 -0.8764 -0.1616 -1.0977
   71CHL1   H7B 6373   0.217   4.869   2.843 -0.4398 -1.0663 -0.0738
   71CHL1    C8 6374   0.102   5.030   2.953 -0.2755 -0.4415 -0.5713
   71CHL1    H8 6375  -0.005   5.037   2.982  0.3129 -2.0624  2.3952
   71CHL1   C14 6376   0.189   5.014   3.072  0.3888  0.4019 -0.0756
   71CHL1   H14 6377   0.294   5.025   3.039  0.8692 -0.1175  1.2108
   71CHL1   C15 6378   0.192   4.873   3.133 -0.2328 -0.3221  0.1578
   71CHL1  H15A 6379   0.086   4.844   3.147 -0.4361  0.7188  0.8916
   71CHL1  H15B 6380   0.255   4.795   3.085  3.7401  3.1529 -0.9299
   71CHL1   C16 6381   0.259   4.903   3.273 -0.5615 -0.0300 -0.4304
   71CHL1  H16A 6382   0.179   4.884   3.347 -0.2800 -1.4257 -0.4507
   71CHL1  H16B 6383   0.356   4.858   3.304 -1.3727 -2.2984 -0.9821
   71CHL1   C17 6384   0.275   5.058   3.276 -0.0078 -0.0739 -0.6162
   71CHL1   H17 6385   0.368   5.077   3.218 -0.8789  2.1098 -1.4158
   71CHL1   C13 6386   0.175   5.120   3.180  0.1166  0.5704  0.3172
   71CHL1   C18 6387   0.031   5.116   3.234 -0.0207  0.2956  0.4262
   71CHL1  H18A 6388  -0.012   5.027   3.285  0.0532  0.7413  1.2859
   71CHL1  H18B 6389   0.024   5.201   3.304 -2.2798  1.6667 -1.3400
   71CHL1  H18C 6390  -0.041   5.143   3.154  0.3666 -0.7290 -0.2897
   71CHL1   C12 6391   0.210   5.255   3.123 -0.3979 -0.0214  0.0398
   71CHL1  H12A 6392   0.189   5.326   3.206 -1.3667  2.5484 -2.2766
   71CHL1  H12B 6393   0.321   5.252   3.115 -0.5736 -1.3857 -3.3024
   71CHL1   C11 6394   0.137   5.289   2.992  0.1409 -0.0991  0.3759
   71CHL1  H11A 6395   0.034   5.318   3.019  1.3782  2.5306  2.6656
   71CHL1  H11B 6396   0.175   5.378   2.937 -1.0441  0.6527  0.7477
   71CHL1    C9 6397   0.141   5.166   2.886  0.3476  0.0405 -0.2392
   71CHL1    H9 6398   0.246   5.147   2.856 -0.3320 -0.2957 -2.6615
   71CHL1   C10 6399   0.061   5.200   2.751  0.7390  0.4121 -0.1305
   71CHL1   C19 6400  -0.073   5.263   2.792  0.6930  0.6545  0.2748
   71CHL1  H19A 6401  -0.141   5.290   2.708 -0.8245  1.9469  1.8443
   71CHL1  H19B 6402  -0.124   5.208   2.873  1.5322  0.0907  0.4283
   71CHL1  H19C 6403  -0.052   5.356   2.849 -2.6206  2.1646 -0.6862
   71CHL1    C1 6404   0.146   5.285   2.650 -0.4402  0.0847 -0.7119
   71CHL1   H1A 6405   0.166   5.385   2.695  2.2069 -2.1358  3.7616
   71CHL1   H1B 6406   0.243   5.235   2.637 -0.5080  0.0292 -1.0009
   71CHL1    C2 6407   0.089   5.301   2.510 -1.3596 -0.6809 -0.0869
   71CHL1   H2A 6408   0.153   5.353   2.436  0.1998 -0.6249  1.2429
   71CHL1   H2B 6409  -0.002   5.366   2.516 -0.7105  0.2802 -0.4458
   71CHL1   C20 6410   0.289   5.129   3.412 -0.5891  0.4424  0.4499
   71CHL1   H20 6411   0.284   5.239   3.403  0.9672  0.5004  0.0128
   71CHL1   C21 6412   0.440   5.096   3.470 -0.3020 -0.3114 -0.0030
   71CHL1  H21A 6413   0.462   5.188   3.529  1.7717 -2.4340  2.8031
   71CHL1  H21B 6414   0.513   5.069   3.391  1.8087 -0.7995  2.0068
   71CHL1  H21C 6415   0.444   5.019   3.550  1.4647  2.5770  2.9470
   71CHL1   C22 6416   0.193   5.087   3.526  0.1732  0.0446  0.4756
   71CHL1  H22A 6417   0.088   5.070   3.491  0.0782  0.7970  0.3846
   71CHL1  H22B 6418   0.232   4.988   3.559  0.0861 -0.2433 -0.2595
   71CHL1   C23 6419   0.212   5.165   3.657 -0.4391 -0.3819 -0.7807
   71CHL1  H23A 6420   0.176   5.115   3.749  0.0969  1.5882  0.5611
   71CHL1  H23B 6421   0.321   5.181   3.674 -0.5110 -0.0924 -0.5932
   71CHL1   C24 6422   0.164   5.309   3.665  1.3859  0.5924  0.2768
   71CHL1  H24A 6423   0.235   5.371   3.606  0.2379  0.7953 -0.9246
   71CHL1  H24B 6424   0.065   5.301   3.616  0.1990  0.8517  2.5113
   71CHL1   C25 6425   0.148   5.368   3.805 -0.8891 -1.0474  0.2359
   71CHL1   H25 6426   0.099   5.294   3.872 -0.3310 -1.8620 -0.2298
   71CHL1   C26 6427   0.284   5.387   3.875 -0.1911 -0.0710  0.4035
   71CHL1  H26A 6428   0.333   5.288   3.878 -0.8224 -0.5718 -2.6540
   71CHL1  H26B 6429   0.344   5.468   3.830 -1.2048 -0.6104 -2.0874
   71CHL1  H26C 6430   0.256   5.419   3.978  0.1186  0.4332  0.3324
   71CHL1   C27 6431   0.065   5.494   3.811 -0.4657  0.2927 -0.0970
   71CHL1  H27A 6432   0.125   5.580   3.774 -0.3058 -0.3225 -1.3234
   71CHL1  H27B 6433  -0.028   5.476   3.752 -1.7287 -1.1585  2.2041
   71CHL1  H27C 6434   0.033   5.512   3.916  0.7960 -2.6216  0.9012
   72CHL1    C3 6435   6.611   3.068   3.017  0.1359 -0.3989 -0.2183
   72CHL1    H3 6436   6.525   3.136   3.035  0.0276 -0.2302 -1.3008
   72CHL1    O3 6437   6.640   3.069   2.879 -0.2282  0.3071 -0.0496
   72CHL1   H3' 6438   6.555   3.081   2.835 -0.1695  0.2163 -0.1900
   72CHL1    C4 6439   6.724   3.108   3.106 -0.6526 -0.6337 -0.6075
   72CHL1   H4A 6440   6.818   3.054   3.084 -0.1925 -0.0094 -0.2109
   72CHL1   H4B 6441   6.736   3.217   3.087 -1.1226 -0.0623  1.9714
   72CHL1    C5 6442   6.697   3.091   3.261 -0.6586 -0.8692 -0.3266
   72CHL1    C6 6443   6.714   3.192   3.340  0.2093 -0.0933  0.5221
   72CHL1    H6 6444   6.749   3.287   3.297  0.7874 -0.8292 -0.6636
   72CHL1    C7 6445   6.682   3.192   3.486 -0.4211 -0.0617  0.3371
   72CHL1   H7A 6446   6.776   3.236   3.529 -0.1639 -0.8840  0.6328
   72CHL1   H7B 6447   6.594   3.257   3.507 -0.2047  0.2586  0.2610
   72CHL1    C8 6448   6.659   3.048   3.541 -0.6087 -0.2413  0.7433
   72CHL1    H8 6449   6.760   3.002   3.533 -0.1218  0.8566  0.4267
   72CHL1   C14 6450   6.602   3.052   3.677 -0.7118 -0.5914 -0.3285
   72CHL1   H14 6451   6.509   3.112   3.671 -0.3049  0.1889  0.7991
   72CHL1   C15 6452   6.686   3.118   3.793 -0.2658  0.3291  0.7827
   72CHL1  H15A 6453   6.792   3.086   3.784 -0.1707  1.2773 -3.7072
   72CHL1  H15B 6454   6.678   3.229   3.782 -3.2198  0.0978 -0.1640
   72CHL1   C16 6455   6.623   3.070   3.924 -0.4868 -0.0821 -0.5361
   72CHL1  H16A 6456   6.704   3.045   3.996 -1.6586 -0.8716  0.5459
   72CHL1  H16B 6457   6.576   3.164   3.959  0.2954  0.4339 -0.8257
   72CHL1   C17 6458   6.516   2.964   3.885 -0.0291  0.5835 -0.1353
   72CHL1   H17 6459   6.424   3.023   3.866  0.8595  2.4851  1.2380
   72CHL1   C13 6460   6.560   2.913   3.746  0.2423  0.5042 -0.1489
   72CHL1   C18 6461   6.686   2.817   3.767 -0.8503  0.3167  0.3642
   72CHL1  H18A 6462   6.727   2.778   3.672 -1.0221 -0.3843  0.5773
   72CHL1  H18B 6463   6.772   2.854   3.827  0.3773 -1.6940 -0.0669
   72CHL1  H18C 6464   6.650   2.724   3.816  1.1313 -0.3011  0.7095
   72CHL1   C12 6465   6.455   2.858   3.646 -0.1107  0.1476  0.8496
   72CHL1  H12A 6466   6.424   2.761   3.690  0.4790 -0.6576 -0.4403
   72CHL1  H12B 6467   6.367   2.923   3.624 -1.1103 -1.6942 -0.9798
   72CHL1   C11 6468   6.518   2.832   3.509  0.0127  0.0030  0.3108
   72CHL1  H11A 6469   6.606   2.765   3.511 -0.2973 -0.5449 -2.1026
   72CHL1  H11B 6470   6.442   2.783   3.445  0.8959 -1.4121  0.3066
   72CHL1    C9 6471   6.564   2.967   3.449  0.0720 -0.1967 -0.7249
   72CHL1    H9 6472   6.476   3.035   3.445  0.8232  0.7987 -0.7654
   72CHL1   C10 6473   6.628   2.957   3.303  0.2735  0.0612 -0.8775
   72CHL1   C19 6474   6.731   2.835   3.303 -0.4261  0.5063  0.1403
   72CHL1  H19A 6475   6.795   2.844   3.393 -0.8301  2.2564  0.2982
   72CHL1  H19B 6476   6.676   2.739   3.312  1.7419 -0.6543  2.1336
   72CHL1  H19C 6477   6.804   2.831   3.220 -0.0925  0.4168  0.4356
   72CHL1    C1 6478   6.510   2.934   3.201 -0.0020 -0.3426  0.4793
   72CHL1   H1A 6479   6.451   2.844   3.226 -0.3513 -0.0674  0.6496
   72CHL1   H1B 6480   6.437   3.016   3.218  0.3529  0.0775  0.0046
   72CHL1    C2 6481   6.556   2.936   3.050  0.6744 -0.2094 -0.7908
   72CHL1   H2A 6482   6.469   2.907   2.987 -0.8234 -0.0592  1.1176
   72CHL1   H2B 6483   6.634   2.858   3.051 -0.6853 -1.6342  0.9622
   72CHL1   C20 6484   6.481   2.862   3.991  0.0402  0.4792  0.3903
   72CHL1   H20 6485   6.563   2.788   4.000 -0.2038 -0.9254 -5.2661
   72CHL1   C21 6486   6.370   2.761   3.955 -0.2767  0.2597  0.1292
   72CHL1  H21A 6487   6.341   2.711   4.050  1.7048  0.1567  0.7361
   72CHL1  H21B 6488   6.410   2.690   3.879  1.0694  1.3725 -0.2457
   72CHL1  H21C 6489   6.289   2.815   3.901  1.1216 -0.1380 -2.5413
   72CHL1   C22 6490   6.460   2.926   4.128  0.0307 -0.8322 -0.0221
   72CHL1  H22A 6491   6.421   2.849   4.198 -0.2173 -0.3513  0.3753
   72CHL1  H22B 6492   6.550   2.969   4.177  1.2855  0.5965 -3.2732
   72CHL1   C23 6493   6.339   3.031   4.140 -0.2393 -0.5850  0.0773
   72CHL1  H23A 6494   6.363   3.115   4.072 -0.5895 -0.9725 -0.5297
   72CHL1  H23B 6495   6.241   2.995   4.103  0.6301 -0.2392 -2.7558
   72CHL1   C24 6496   6.322   3.080   4.289 -0.2093 -0.1415  0.7302
   72CHL1  H24A 6497   6.317   2.993   4.358 -2.3538  0.6694  1.6925
   72CHL1  H24B 6498   6.422   3.124   4.313  0.5246 -0.5222 -1.4106
   72CHL1   C25 6499   6.207   3.190   4.304  0.3985  0.3656 -0.0654
   72CHL1   H25 6500   6.213   3.264   4.221 -0.9132 -1.8201 -2.2446
   72CHL1   C26 6501   6.075   3.111   4.295  0.7918  0.1589  0.2437
   72CHL1  H26A 6502   6.067   3.039   4.211  0.6615 -0.1305  0.5020
   72CHL1  H26B 6503   6.080   3.043   4.383  0.7270 -0.7532 -0.4333
   72CHL1  H26C 6504   5.999   3.191   4.303  1.9387  1.0934  2.4712
   72CHL1   C27 6505   6.218   3.254   4.440 -0.1604 -0.4312 -0.7236
   72CHL1  H27A 6506   6.122   3.301   4.471 -0.2298 -0.2179 -1.2436
   72CHL1  H27B 6507   6.245   3.178   4.516 -1.3263 -0.7071 -0.5660
   72CHL1  H27C 6508   6.305   3.323   4.437  0.3889 -0.9869  0.9916
   73CHL1    C3 6509   2.407   4.061   2.845  0.2966  0.4924  0.6155
   73CHL1    H3 6510   2.502   4.004   2.843 -0.0948 -0.1563 -0.4042
   73CHL1    O3 6511   2.375   4.083   2.706  0.8489  0.2402 -0.4162
   73CHL1   H3' 6512   2.282   4.108   2.717  0.8706 -0.5279  2.3787
   73CHL1    C4 6513   2.291   3.987   2.900  0.7065 -0.1990  0.3115
   73CHL1   H4A 6514   2.199   4.049   2.895  0.2529 -0.7686  1.2832
   73CHL1   H4B 6515   2.260   3.893   2.848 -0.3552 -0.7296  1.8206
   73CHL1    C5 6516   2.310   3.974   3.051  0.4640 -0.2342  0.3483
   73CHL1    C6 6517   2.314   3.855   3.104 -0.3918  1.1364 -0.5770
   73CHL1    H6 6518   2.304   3.770   3.035 -0.4993  2.1680 -1.8783
   73CHL1    C7 6519   2.316   3.818   3.249 -0.1267 -0.3814 -0.0096
   73CHL1   H7A 6520   2.241   3.742   3.280  1.6607 -1.8212  0.9020
   73CHL1   H7B 6521   2.409   3.770   3.283 -1.0611 -0.7980  2.1430
   73CHL1    C8 6522   2.292   3.943   3.335 -0.0554 -0.0800  0.2994
   73CHL1    H8 6523   2.184   3.963   3.318 -0.1880 -0.9795  0.0655
   73CHL1   C14 6524   2.326   3.915   3.482 -0.4172 -0.0228  0.3673
   73CHL1   H14 6525   2.434   3.891   3.474 -0.8473 -1.6027 -1.1254
   73CHL1   C15 6526   2.272   3.792   3.564 -1.0690  0.1657  0.5464
   73CHL1  H15A 6527   2.162   3.782   3.555 -1.1439 -0.0382  1.5927
   73CHL1  H15B 6528   2.315   3.696   3.528  2.7788  0.8088  2.8162
   73CHL1   C16 6529   2.294   3.819   3.710  0.3724 -0.4813 -0.1602
   73CHL1  H16A 6530   2.198   3.814   3.765  0.4664  0.1270  0.0609
   73CHL1  H16B 6531   2.369   3.753   3.758 -0.9182 -0.8158  1.4620
   73CHL1   C17 6532   2.341   3.971   3.724 -0.2158  0.3777 -0.0167
   73CHL1   H17 6533   2.451   3.958   3.725 -0.2863 -0.3224 -0.4304
   73CHL1   C13 6534   2.310   4.027   3.582  0.1304  0.4877 -0.1507
   73CHL1   C18 6535   2.158   4.070   3.592 -0.2370 -0.0139  0.3047
   73CHL1  H18A 6536   2.156   4.150   3.668  0.7401  0.7710 -0.4732
   73CHL1  H18B 6537   2.110   4.100   3.497  0.1620  0.6918  0.3217
   73CHL1  H18C 6538   2.109   3.979   3.634 -1.3395  0.1018 -0.6957
   73CHL1   C12 6539   2.396   4.146   3.533  0.0979  0.2745 -0.1062
   73CHL1  H12A 6540   2.395   4.243   3.588  1.2121  1.0322 -1.3635
   73CHL1  H12B 6541   2.499   4.106   3.547  1.4368  3.3624 -0.0633
   73CHL1   C11 6542   2.370   4.184   3.386  0.2658 -0.6885 -0.2207
   73CHL1  H11A 6543   2.267   4.222   3.373  0.6399  1.0526  1.4768
   73CHL1  H11B 6544   2.433   4.271   3.355 -0.8653  0.2987  0.1710
   73CHL1    C9 6545   2.376   4.068   3.279  0.4331  0.5903  0.2529
   73CHL1    H9 6546   2.478   4.025   3.274 -0.1214 -0.9059  0.9684
   73CHL1   C10 6547   2.333   4.099   3.138 -0.4546 -0.5975 -0.0479
   73CHL1   C19 6548   2.197   4.179   3.128  0.4887 -0.1882 -0.6695
   73CHL1  H19A 6549   2.115   4.122   3.174  0.7587 -0.0909 -0.0547
   73CHL1  H19B 6550   2.202   4.275   3.184 -0.4820 -0.1501 -0.6335
   73CHL1  H19C 6551   2.168   4.204   3.023  1.9645 -2.2093 -1.6277
   73CHL1    C1 6552   2.442   4.186   3.062 -0.3604  0.4355 -0.2744
   73CHL1   H1A 6553   2.458   4.283   3.115  0.7529 -0.6480  1.4455
   73CHL1   H1B 6554   2.536   4.129   3.073 -0.0431  0.8912 -0.5706
   73CHL1    C2 6555   2.425   4.201   2.910  0.2936  0.7726  0.8650
   73CHL1   H2A 6556   2.514   4.253   2.868 -0.8166  1.5122 -0.6895
   73CHL1   H2B 6557   2.336   4.264   2.887  1.6289  2.0568 -1.1650
   73CHL1   C20 6558   2.308   4.037   3.857  0.2016 -0.5441 -0.2068
   73CHL1   H20 6559   2.202   4.070   3.864  0.9413  1.7623  1.0082
   73CHL1   C21 6560   2.376   4.178   3.862  0.3846  0.5041  0.4762
   73CHL1  H21A 6561   2.486   4.159   3.862  0.4825  0.9431 -0.6816
   73CHL1  H21B 6562   2.352   4.225   3.959  1.8199  0.0547  1.0755
   73CHL1  H21C 6563   2.342   4.255   3.789 -3.0584 -0.3820  0.9925
   73CHL1   C22 6564   2.351   3.952   3.984  0.5626  0.1388  0.2296
   73CHL1  H22A 6565   2.314   3.848   3.977 -1.7554  0.8958  0.4991
   73CHL1  H22B 6566   2.462   3.960   3.988  0.4853  1.2340  0.4237
   73CHL1   C23 6567   2.297   4.006   4.117  0.3341 -0.5693  0.2586
   73CHL1  H23A 6568   2.334   4.106   4.149 -2.0269  0.5409 -0.2992
   73CHL1  H23B 6569   2.188   4.013   4.100  0.0064 -4.6263 -0.4381
   73CHL1   C24 6570   2.326   3.904   4.223  0.2170  0.5682  0.4333
   73CHL1  H24A 6571   2.263   3.816   4.201  0.0369  0.7139  0.3628
   73CHL1  H24B 6572   2.435   3.879   4.224  0.3460  1.1161  0.4386
   73CHL1   C25 6573   2.272   3.937   4.361 -0.2404  0.3424 -0.0436
   73CHL1   H25 6574   2.272   3.838   4.411  0.1138  0.2164 -0.2944
   73CHL1   C26 6575   2.360   4.036   4.440  0.8553  0.1928 -0.2437
   73CHL1  H26A 6576   2.304   4.069   4.530 -0.0227  1.1851 -1.1304
   73CHL1  H26B 6577   2.452   3.994   4.486  0.1530  0.8504  1.8739
   73CHL1  H26C 6578   2.387   4.121   4.374 -0.0301 -1.0312 -2.2675
   73CHL1   C27 6579   2.119   3.975   4.359 -0.1888 -0.3283  0.2717
   73CHL1  H27A 6580   2.055   3.907   4.300 -1.9599  0.9822  0.6100
   73CHL1  H27B 6581   2.101   3.969   4.468  1.3513  1.1913  0.6693
   73CHL1  H27C 6582   2.121   4.082   4.327  1.1095  0.4024  2.5415
   74CHL1    C3 6583   0.326   3.880   2.712 -0.1437  0.1211 -0.5384
   74CHL1    H3 6584   0.232   3.937   2.725  1.1761  2.2836 -0.0726
   74CHL1    O3 6585   0.339   3.850   2.577 -0.0564  0.4264  0.0674
   74CHL1   H3' 6586   0.354   3.755   2.582  0.3729  0.5562  1.8438
   74CHL1    C4 6587   0.433   3.973   2.757 -0.2054  0.2438 -0.9589
   74CHL1   H4A 6588   0.534   3.930   2.740  1.0744  2.2181  1.0723
   74CHL1   H4B 6589   0.424   4.057   2.684  0.7866  1.9062  0.7423
   74CHL1    C5 6590   0.431   4.016   2.903 -0.4081  0.6657  0.5803
   74CHL1    C6 6591   0.412   4.141   2.940 -1.2198 -0.6660 -0.0199
   74CHL1    H6 6592   0.409   4.222   2.866  2.9616 -1.3556 -1.1781
   74CHL1    C7 6593   0.398   4.187   3.083  0.2130  1.0001 -0.7411
   74CHL1   H7A 6594   0.471   4.267   3.104 -0.7500  2.1526 -1.6190
   74CHL1   H7B 6595   0.293   4.219   3.101 -0.6972 -0.5113 -2.8544
   74CHL1    C8 6596   0.444   4.069   3.182 -0.1985  0.2278  0.1981
   74CHL1    H8 6597   0.554   4.053   3.180 -0.4411 -1.6897 -1.7640
   74CHL1   C14 6598   0.388   4.108   3.314  0.1482  0.0758 -1.2246
   74CHL1   H14 6599   0.277   4.111   3.306 -0.0444 -1.1107  0.5179
   74CHL1   C15 6600   0.419   4.243   3.378  0.2946  0.7966 -0.5575
   74CHL1  H15A 6601   0.528   4.257   3.357  0.5515 -0.9711 -0.5725
   74CHL1  H15B 6602   0.361   4.323   3.328 -0.4545 -0.5638 -1.9881
   74CHL1   C16 6603   0.380   4.226   3.528 -0.2767 -1.0286 -0.1495
   74CHL1  H16A 6604   0.455   4.260   3.602  0.5049  2.3942 -2.2905
   74CHL1  H16B 6605   0.293   4.294   3.544  0.2941 -0.2902 -0.1555
   74CHL1   C17 6606   0.337   4.077   3.541  0.5871  0.5569 -0.6349
   74CHL1   H17 6607   0.230   4.064   3.515 -0.5739  2.8018  2.3620
   74CHL1   C13 6608   0.410   4.004   3.426 -0.5819 -0.1988  0.4648
   74CHL1   C18 6609   0.561   4.006   3.455  0.7935  0.3292 -0.2758
   74CHL1  H18A 6610   0.607   3.959   3.365 -1.8602 -2.1353 -0.4792
   74CHL1  H18B 6611   0.606   4.106   3.477  2.0062 -0.2721  0.0819
   74CHL1  H18C 6612   0.585   3.943   3.543 -2.2963  2.6721  2.4770
   74CHL1   C12 6613   0.363   3.867   3.384 -0.7499 -0.3960 -0.0018
   74CHL1  H12A 6614   0.382   3.787   3.458 -0.7444  0.2073  0.6593
   74CHL1  H12B 6615   0.254   3.886   3.383 -0.4451  1.6834  0.7895
   74CHL1   C11 6616   0.412   3.822   3.244  0.5625  0.3868 -0.4383
   74CHL1  H11A 6617   0.521   3.808   3.263  0.6249  0.4492 -0.7563
   74CHL1  H11B 6618   0.366   3.726   3.213 -3.1425  2.3215 -1.5898
   74CHL1    C9 6619   0.389   3.928   3.140 -0.5155 -0.3500  0.0545
   74CHL1    H9 6620   0.280   3.951   3.138 -0.1301  1.6205 -0.6624
   74CHL1   C10 6621   0.424   3.887   2.996  0.7485 -0.1185  0.8863
   74CHL1   C19 6622   0.568   3.821   3.001 -0.5748 -0.0607  0.9178
   74CHL1  H19A 6623   0.613   3.802   2.901 -1.1102 -2.1786  1.0276
   74CHL1  H19B 6624   0.635   3.882   3.065 -0.3315 -1.0666  1.6642
   74CHL1  H19C 6625   0.552   3.727   3.059 -0.9634 -0.2264  0.5519
   74CHL1    C1 6626   0.317   3.783   2.943 -0.2224  0.3344 -0.2942
   74CHL1   H1A 6627   0.333   3.694   3.007 -1.1710 -0.0325 -0.5510
   74CHL1   H1B 6628   0.220   3.836   2.957  0.4464  1.9142 -1.2668
   74CHL1    C2 6629   0.333   3.746   2.796  0.3425 -0.3123  0.9128
   74CHL1   H2A 6630   0.253   3.674   2.766 -0.6235  0.4613  1.5494
   74CHL1   H2B 6631   0.432   3.700   2.778 -0.6616 -1.8211 -1.2710
   74CHL1   C20 6632   0.358   4.036   3.687 -0.4396  0.5517 -0.3025
   74CHL1   H20 6633   0.466   4.044   3.710  0.0433 -1.6334 -1.5396
   74CHL1   C21 6634   0.316   3.888   3.707  0.5446 -0.2281 -0.0445
   74CHL1  H21A 6635   0.314   3.857   3.814 -1.8550  0.3394  0.1344
   74CHL1  H21B 6636   0.382   3.814   3.656  1.7753  0.4760  0.4857
   74CHL1  H21C 6637   0.212   3.869   3.672  0.5695 -1.7275  0.6076
   74CHL1   C22 6638   0.279   4.116   3.789 -0.2915  0.4427  0.3012
   74CHL1  H22A 6639   0.264   4.222   3.759  0.5319  0.4012 -0.3011
   74CHL1  H22B 6640   0.176   4.075   3.797  0.6856 -2.5724 -1.0684
   74CHL1   C23 6641   0.344   4.108   3.925 -0.6586 -0.6511 -0.7308
   74CHL1  H23A 6642   0.346   3.999   3.946 -1.6404 -0.2480  1.8076
   74CHL1  H23B 6643   0.444   4.158   3.923  0.6104 -3.0391 -1.2318
   74CHL1   C24 6644   0.254   4.186   4.021 -0.0759  0.6666 -0.7521
   74CHL1  H24A 6645   0.217   4.279   3.974  0.4120  1.7865  0.9741
   74CHL1  H24B 6646   0.160   4.131   4.042  0.1273  1.5092  3.2379
   74CHL1   C25 6647   0.314   4.218   4.158  0.0966  0.1318 -0.0581
   74CHL1   H25 6648   0.371   4.134   4.205  1.4023  0.7592 -0.4892
   74CHL1   C26 6649   0.423   4.327   4.144  0.3635 -0.0769 -0.5315
   74CHL1  H26A 6650   0.495   4.326   4.229  0.3735 -1.6434 -0.5343
   74CHL1  H26B 6651   0.471   4.319   4.044 -1.7370  0.3919 -1.6283
   74CHL1  H26C 6652   0.371   4.425   4.141 -1.8602 -1.2108 -3.3710
   74CHL1   C27 6653   0.207   4.275   4.258 -0.1799  0.2311 -0.2014
   74CHL1  H27A 6654   0.134   4.193   4.272  0.2694 -0.3089 -0.9158
   74CHL1  H27B 6655   0.257   4.295   4.355 -0.3407  0.4477 -0.1631
   74CHL1  H27C 6656   0.163   4.370   4.223 -1.0472  0.4264  1.3671
   75CHL1    C3 6657   1.487   3.144   2.982 -0.5508  0.5001  0.4036
   75CHL1    H3 6658   1.535   3.238   3.018  2.6064 -0.2514 -1.4962
   75CHL1    O3 6659   1.549   3.120   2.860  0.4638 -0.2852  0.2836
   75CHL1   H3' 6660   1.499   3.052   2.814 -0.7923 -0.2119  1.4656
   75CHL1    C4 6661   1.526   3.039   3.081 -0.0139  0.1135  0.3207
   75CHL1   H4A 6662   1.518   2.939   3.035  0.3292 -0.5465  1.6374
   75CHL1   H4B 6663   1.634   3.055   3.098 -0.0982  1.5873 -0.3750
   75CHL1    C5 6664   1.447   3.031   3.212  0.4053 -0.0158  0.6021
   75CHL1    C6 6665   1.516   3.025   3.328 -0.1521  0.1403  0.3685
   75CHL1    H6 6666   1.624   3.009   3.336 -0.1223  0.9722  2.2751
   75CHL1    C7 6667   1.429   3.027   3.452 -0.3554 -0.3661 -0.0186
   75CHL1   H7A 6668   1.471   2.957   3.527  0.4236 -0.1577 -0.2565
   75CHL1   H7B 6669   1.421   3.134   3.480  1.3072  0.0747 -1.0750
   75CHL1    C8 6670   1.279   2.985   3.435 -0.9335  0.2087 -0.1028
   75CHL1    H8 6671   1.275   2.877   3.408  1.7780 -0.3996  1.4809
   75CHL1   C14 6672   1.199   3.014   3.559  0.1684  0.4618 -0.6282
   75CHL1   H14 6673   1.215   3.122   3.578  1.9151  0.5194 -2.0953
   75CHL1   C15 6674   1.239   2.941   3.683 -0.1136  0.3024 -0.5768
   75CHL1  H15A 6675   1.263   2.836   3.654  0.7815  0.3260  0.0699
   75CHL1  H15B 6676   1.323   2.975   3.746  0.3835 -0.4006 -0.8383
   75CHL1   C16 6677   1.116   2.949   3.776 -0.2266  0.6151 -0.4345
   75CHL1  H16A 6678   1.092   2.843   3.798  0.1706  0.2858 -1.5178
   75CHL1  H16B 6679   1.139   3.005   3.869  3.9591  1.8685 -1.9897
   75CHL1   C17 6680   0.995   3.004   3.695 -0.4654  0.1369 -0.9049
   75CHL1   H17 6681   0.986   3.114   3.709 -0.0923  0.4973 -3.1101
   75CHL1   C13 6682   1.046   2.983   3.552  0.4371 -0.2178  0.3290
   75CHL1   C18 6683   1.025   2.833   3.508 -0.1378  0.0760 -0.4665
   75CHL1  H18A 6684   0.925   2.817   3.464 -1.2154  3.6593  0.3414
   75CHL1  H18B 6685   1.103   2.799   3.436  0.0250  0.8536 -0.6696
   75CHL1  H18C 6686   1.043   2.763   3.592  1.7424 -1.4781 -2.0580
   75CHL1   C12 6687   0.988   3.081   3.452  0.0228 -0.2423 -0.5993
   75CHL1  H12A 6688   0.881   3.055   3.438 -0.2194  0.1908  0.3467
   75CHL1  H12B 6689   0.998   3.187   3.485  0.0815 -0.4928  0.2195
   75CHL1   C11 6690   1.060   3.063   3.317  0.3531  0.4200  0.4247
   75CHL1  H11A 6691   1.015   2.967   3.284 -1.7905  1.6018 -0.3746
   75CHL1  H11B 6692   1.025   3.136   3.240 -1.3952 -0.2775  0.5013
   75CHL1    C9 6693   1.215   3.064   3.323 -0.1608  0.1737  0.5611
   75CHL1    H9 6694   1.224   3.173   3.346 -1.8054  0.6046 -0.7163
   75CHL1   C10 6695   1.300   3.048   3.190 -0.0044 -0.6665  0.3568
   75CHL1   C19 6696   1.253   2.916   3.131  0.1261  0.5493  0.3940
   75CHL1  H19A 6697   1.323   2.891   3.048  0.7423  0.2298  0.9966
   75CHL1  H19B 6698   1.247   2.830   3.201 -0.6624  1.3539  1.3298
   75CHL1  H19C 6699   1.150   2.934   3.094  0.1065 -0.0215  0.1423
   75CHL1    C1 6700   1.268   3.172   3.097  0.5022  0.2595  0.0704
   75CHL1   H1A 6701   1.162   3.194   3.072  0.5473  1.2007  0.6726
   75CHL1   H1B 6702   1.309   3.263   3.145  0.9248  0.3072 -0.3807
   75CHL1    C2 6703   1.343   3.161   2.960 -0.0003  0.6252  0.5278
   75CHL1   H2A 6704   1.326   3.254   2.903  0.4704 -0.7899 -2.0932
   75CHL1   H2B 6705   1.303   3.074   2.903 -1.4965  1.5132  0.1720
   75CHL1   C20 6706   0.860   2.941   3.732 -0.4011 -0.2523  0.0039
   75CHL1   H20 6707   0.842   2.846   3.678 -3.4489  0.2130  0.0560
   75CHL1   C21 6708   0.749   3.043   3.694  0.4544  0.1649  0.8685
   75CHL1  H21A 6709   0.643   3.010   3.690  0.1088  1.2394 -2.3637
   75CHL1  H21B 6710   0.764   3.082   3.591  0.7305  0.2498  0.9408
   75CHL1  H21C 6711   0.754   3.132   3.760  0.7819 -0.4092  1.6265
   75CHL1   C22 6712   0.835   2.902   3.878 -0.1077 -0.4260 -0.0018
   75CHL1  H22A 6713   0.729   2.868   3.877 -0.2492  0.0153 -0.2670
   75CHL1  H22B 6714   0.901   2.816   3.903 -0.3808 -1.2497 -1.9475
   75CHL1   C23 6715   0.863   3.012   3.979  0.4235 -0.3351 -0.1605
   75CHL1  H23A 6716   0.964   3.053   3.962 -0.7099  1.4084 -3.6624
   75CHL1  H23B 6717   0.793   3.097   3.965 -0.4961 -1.0875 -0.2857
   75CHL1   C24 6718   0.845   2.963   4.128 -0.0115  0.3888 -0.5242
   75CHL1  H24A 6719   0.902   2.869   4.141  0.7176  0.8240 -0.4814
   75CHL1  H24B 6720   0.891   3.034   4.200  0.3289  1.6073 -1.8905
   75CHL1   C25 6721   0.703   2.918   4.175  0.2301 -0.7046  0.8759
   75CHL1   H25 6722   0.658   2.838   4.113 -1.7582 -0.5824  2.0988
   75CHL1   C26 6723   0.706   2.851   4.318  0.6642 -0.5106 -0.1074
   75CHL1  H26A 6724   0.774   2.899   4.393  0.0339 -1.0986  0.8657
   75CHL1  H26B 6725   0.604   2.857   4.363  1.1384 -0.3621  0.9883
   75CHL1  H26C 6726   0.737   2.745   4.320  0.6114 -0.5423  2.1566
   75CHL1   C27 6727   0.609   3.042   4.186  0.2056 -0.2239 -0.1330
   75CHL1  H27A 6728   0.574   3.085   4.090 -4.3324  1.5058  1.9830
   75CHL1  H27B 6729   0.506   3.023   4.222 -1.2568  0.7358 -3.4450
   75CHL1  H27C 6730   0.650   3.139   4.222 -2.3789  1.3496 -1.1654
   76CHL1    C3 6731   5.174   3.952   2.792  0.2377  0.1648 -0.1661
   76CHL1    H3 6732   5.157   4.058   2.821  1.5053 -0.3414  2.7103
   76CHL1    O3 6733   5.140   3.955   2.653 -0.2920  0.2419 -0.0156
   76CHL1   H3' 6734   5.136   3.860   2.635  0.6771  0.5287 -2.0890
   76CHL1    C4 6735   5.313   3.912   2.815  0.0071 -0.5447 -0.0865
   76CHL1   H4A 6736   5.318   3.809   2.774  0.2147 -0.3249 -0.6196
   76CHL1   H4B 6737   5.383   3.965   2.747 -2.1113 -1.0675 -2.8394
   76CHL1    C5 6738   5.360   3.923   2.964  0.5926 -0.3076 -0.7334
   76CHL1    C6 6739   5.456   4.004   3.011  0.1764 -0.1505 -0.1873
   76CHL1    H6 6740   5.504   4.074   2.941  0.3142  0.5553  0.6016
   76CHL1    C7 6741   5.499   4.018   3.158  1.1235 -0.1172  0.1601
   76CHL1   H7A 6742   5.608   4.009   3.171  0.8217 -0.4316  3.1210
   76CHL1   H7B 6743   5.469   4.117   3.200 -1.3812 -1.2546  1.2879
   76CHL1    C8 6744   5.429   3.910   3.245 -0.2409 -0.4039  0.6299
   76CHL1    H8 6745   5.488   3.817   3.229 -2.5707 -2.0409  1.0421
   76CHL1   C14 6746   5.434   3.954   3.391  0.7674  0.4963  0.1684
   76CHL1   H14 6747   5.367   4.043   3.398  0.4205  0.2959 -0.4811
   76CHL1   C15 6748   5.570   4.000   3.457 -0.4201 -0.3306 -0.0497
   76CHL1  H15A 6749   5.657   3.933   3.442  1.9004  2.3344  0.8547
   76CHL1  H15B 6750   5.606   4.101   3.427  0.9623 -0.7817  0.0291
   76CHL1   C16 6751   5.537   4.019   3.600 -0.2175 -0.1040 -1.1638
   76CHL1  H16A 6752   5.621   3.964   3.647 -0.1875 -1.4323 -2.6850
   76CHL1  H16B 6753   5.506   4.123   3.626 -0.5328  0.0797 -2.2364
   76CHL1   C17 6754   5.414   3.926   3.624 -0.2608 -0.2377 -0.1133
   76CHL1   H17 6755   5.326   3.992   3.635  0.3236  0.4523  0.5487
   76CHL1   C13 6756   5.383   3.849   3.492 -0.0665 -0.6652  0.1469
   76CHL1   C18 6757   5.469   3.717   3.481  0.3573 -0.2513  0.0350
   76CHL1  H18A 6758   5.578   3.730   3.500 -0.0681  2.4110  1.1042
   76CHL1  H18B 6759   5.440   3.635   3.551 -0.7853 -1.7910 -2.1322
   76CHL1  H18C 6760   5.444   3.673   3.382 -1.7789  1.6673 -0.3863
   76CHL1   C12 6761   5.232   3.822   3.456  0.5942  0.2632 -0.1524
   76CHL1  H12A 6762   5.195   3.739   3.519  0.7301  0.7463  0.5774
   76CHL1  H12B 6763   5.178   3.911   3.495  2.1395  0.7412  0.9958
   76CHL1   C11 6764   5.218   3.781   3.309 -0.0238  0.0518  0.1619
   76CHL1  H11A 6765   5.260   3.679   3.309  0.4918  0.2052  2.2912
   76CHL1  H11B 6766   5.110   3.768   3.287  0.2209 -1.0370 -0.4706
   76CHL1    C9 6767   5.285   3.879   3.210 -0.7386  0.1765  0.1158
   76CHL1    H9 6768   5.242   3.980   3.224  1.1526  1.5124 -2.6476
   76CHL1   C10 6769   5.267   3.844   3.056 -0.4855 -0.2190 -0.2330
   76CHL1   C19 6770   5.298   3.691   3.052 -0.2718  0.2614 -0.4789
   76CHL1  H19A 6771   5.291   3.682   2.942  1.8939 -1.0415 -0.5572
   76CHL1  H19B 6772   5.399   3.666   3.090  0.8114  1.8320 -2.1707
   76CHL1  H19C 6773   5.225   3.622   3.100  1.2191 -1.5249 -0.6749
   76CHL1    C1 6774   5.117   3.869   3.015 -0.6253  0.1276  0.3865
   76CHL1   H1A 6775   5.048   3.817   3.086 -1.1565 -1.0512 -0.9268
   76CHL1   H1B 6776   5.092   3.975   3.037 -1.9538 -0.0488 -0.1475
   76CHL1    C2 6777   5.083   3.857   2.871 -0.1654  0.3931  0.0406
   76CHL1   H2A 6778   4.978   3.888   2.854 -0.3701 -0.5971 -0.5920
   76CHL1   H2B 6779   5.095   3.753   2.835  0.9715 -0.6248  2.9993
   76CHL1   C20 6780   5.430   3.852   3.756  0.2966  0.1797 -0.3236
   76CHL1   H20 6781   5.510   3.774   3.756 -0.3195 -0.4739  0.8556
   76CHL1   C21 6782   5.295   3.784   3.778  0.1932  0.5019  0.0541
   76CHL1  H21A 6783   5.216   3.853   3.741 -0.6767 -0.4960  0.0019
   76CHL1  H21B 6784   5.278   3.753   3.883  0.7492 -2.1534 -0.5792
   76CHL1  H21C 6785   5.280   3.687   3.726 -2.4476  0.2435  1.1137
   76CHL1   C22 6786   5.470   3.949   3.877 -0.0686 -0.3696 -0.5430
   76CHL1  H22A 6787   5.561   4.005   3.849  1.7858 -3.3712 -0.9992
   76CHL1  H22B 6788   5.382   4.015   3.894 -1.9055 -2.9412  0.6616
   76CHL1   C23 6789   5.508   3.865   4.004  0.8396  0.4264 -0.6229
   76CHL1  H23A 6790   5.426   3.795   4.032  0.3079  1.0582 -0.5503
   76CHL1  H23B 6791   5.593   3.802   3.972 -0.7355 -0.9009 -2.4371
   76CHL1   C24 6792   5.549   3.952   4.124  0.3149 -0.2428  0.4250
   76CHL1  H24A 6793   5.641   4.009   4.100 -1.1481  1.0546 -2.6616
   76CHL1  H24B 6794   5.472   4.028   4.147  0.0040 -0.6677  0.8260
   76CHL1   C25 6795   5.577   3.873   4.250  0.8442 -0.3692  0.2714
   76CHL1   H25 6796   5.646   3.791   4.219 -0.4735 -1.8116  0.9877
   76CHL1   C26 6797   5.641   3.968   4.356  0.2560 -0.2134 -0.2505
   76CHL1  H26A 6798   5.564   4.037   4.397 -0.8123  0.4379 -3.1549
   76CHL1  H26B 6799   5.671   3.904   4.443  1.1113  0.8427  0.2509
   76CHL1  H26C 6800   5.731   4.020   4.319  1.3261 -1.6387  0.2403
   76CHL1   C27 6801   5.452   3.809   4.306 -0.0425 -0.3138 -0.1120
   76CHL1  H27A 6802   5.383   3.896   4.317  1.0834  0.5149  0.7278
   76CHL1  H27B 6803   5.406   3.728   4.245 -0.9452 -0.4396  0.7083
   76CHL1  H27C 6804   5.456   3.770   4.410  0.5854  0.6596  0.2433
   77SOPE     N 6805   1.895   0.643   6.787 -0.1558  0.1633  0.4981
   77SOPE   HN1 6806   1.832   0.688   6.856  0.8249  1.6910  0.4415
   77SOPE   HN2 6807   1.934   0.552   6.820  0.4389  0.0869 -0.3658
   77SOPE   HN3 6808   1.978   0.705   6.778  0.6178 -1.1172 -2.5793
   77SOPE   C12 6809   1.823   0.627   6.652 -0.8600 -0.2164  0.1010
   77SOPE  H12A 6810   1.782   0.728   6.632  0.2335 -0.0638 -1.6355
   77SOPE  H12B 6811   1.742   0.553   6.672  1.7536 -2.4763  3.4483
   77SOPE   C11 6812   1.915   0.577   6.536  0.2549 -0.4217 -0.6277
   77SOPE  H11A 6813   1.991   0.657   6.518 -1.5801  1.9627  1.4109
   77SOPE  H11B 6814   1.843   0.568   6.452  0.2491 -0.0014 -0.6701
   77SOPE     P 6815   1.925   0.313   6.521  0.0521 -0.3155  0.3134
   77SOPE   O13 6816   1.786   0.305   6.561  0.2150  0.0129  0.8397
   77SOPE   O14 6817   2.014   0.208   6.567 -0.4620  0.6741  0.4106
   77SOPE   O12 6818   1.976   0.453   6.557  0.2281  0.0642 -0.5486
   77SOPE   O11 6819   1.926   0.322   6.359 -0.3748  0.1325 -0.3129
   77SOPE    C1 6820   2.035   0.370   6.286 -0.4550  0.1167 -0.7827
   77SOPE    HA 6821   2.126   0.332   6.336  1.1569  1.8350 -2.2507
   77SOPE    HB 6822   2.045   0.481   6.281 -0.9386  0.2764  1.2202
   77SOPE    C2 6823   2.028   0.319   6.144  0.4623  0.0730  0.5621
   77SOPE    HS 6824   2.135   0.315   6.113  0.4895  0.6419  0.5685
   77SOPE   O21 6825   1.945   0.419   6.074  0.1546  0.5751  0.1452
   77SOPE   C21 6826   1.976   0.448   5.950  0.4804  0.5206  0.0957
   77SOPE   O22 6827   2.088   0.429   5.899  0.3239 -0.0757  0.1430
   77SOPE   C22 6828   1.853   0.501   5.879  0.2826 -0.4630 -0.6446
   77SOPE   H2R 6829   1.819   0.599   5.918  1.1453  0.2940 -1.7316
   77SOPE   H2S 6830   1.769   0.429   5.885  1.2009 -1.5077  0.0649
   77SOPE    C3 6831   1.968   0.178   6.128 -0.3927  0.1697  0.9248
   77SOPE    HX 6832   1.857   0.181   6.131 -0.3839  1.7216  0.5501
   77SOPE    HY 6833   2.001   0.108   6.208 -1.6049 -0.4708  0.8916
   77SOPE   O31 6834   2.012   0.124   5.992  0.4325  0.1884 -0.1331
   77SOPE   C31 6835   2.131   0.085   5.974 -0.3248  0.8502 -0.7046
   77SOPE   O32 6836   2.223   0.067   6.059  0.5753 -0.1679 -0.4136
   77SOPE   C32 6837   2.158   0.084   5.821 -0.2623 -0.4322  0.1912
   77SOPE   H2X 6838   2.116   0.182   5.790 -0.0223  0.1117  1.4846
   77SOPE   H2Y 6839   2.111  -0.005   5.775 -1.2531  0.1441  0.0509
   77SOPE   C23 6840   1.882   0.513   5.728  0.3493  0.2527 -0.1764
   77SOPE   H3R 6841   1.979   0.560   5.700  0.2021  1.1115  0.7023
   77SOPE   H3S 6842   1.803   0.577   5.683  0.7375  1.6835  1.0933
   77SOPE   C24 6843   1.879   0.376   5.660  0.3593  0.7350 -0.0203
   77SOPE   H4R 6844   1.984   0.342   5.673  0.0221 -2.5987 -3.9742
   77SOPE   H4S 6845   1.806   0.310   5.711  0.7507 -0.1593 -0.6050
   77SOPE   C25 6846   1.848   0.382   5.513 -0.5924 -0.4261  0.7610
   77SOPE   H5R 6847   1.740   0.408   5.510 -0.4428  0.0964 -0.6132
   77SOPE   H5S 6848   1.902   0.468   5.470  0.1174 -1.5415 -0.6439
   77SOPE   C26 6849   1.857   0.255   5.420 -0.4166  0.0622  0.2953
   77SOPE   H6R 6850   1.956   0.205   5.414  1.0550  2.8175  0.0892
   77SOPE   H6S 6851   1.786   0.185   5.471 -0.4004 -0.3599 -0.2557
   77SOPE   C27 6852   1.819   0.276   5.271  0.3501 -0.4141 -0.4913
   77SOPE   H7R 6853   1.795   0.178   5.225 -2.3563 -0.5983  1.0701
   77SOPE   H7S 6854   1.733   0.347   5.276  1.1429  0.5015  0.6150
   77SOPE   C28 6855   1.935   0.346   5.206 -0.0655 -0.3918 -0.0503
   77SOPE   H8R 6856   1.884   0.393   5.118  1.7736  0.0756 -0.9322
   77SOPE   H8S 6857   1.979   0.426   5.269 -0.1293  0.3316 -0.8914
   77SOPE   C29 6858   2.043   0.262   5.155  0.0808 -0.1017 -0.2516
   77SOPE   H91 6859   2.140   0.295   5.194 -0.5280  0.5624  0.7315
   77SOPE  C210 6860   2.035   0.167   5.058  0.4191 -0.2369 -0.0639
   77SOPE  H101 6861   2.118   0.097   5.038  0.4271 -0.2842  0.1294
   77SOPE  C211 6862   1.915   0.126   4.984  0.6083 -0.3558 -1.1524
   77SOPE  H11R 6863   1.836   0.204   4.997  2.6041  1.6001  0.1079
   77SOPE  H11S 6864   1.883   0.026   5.020 -1.4575  0.6223 -0.0571
   77SOPE  C212 6865   1.936   0.116   4.833  0.4653 -0.1605 -0.4658
   77SOPE  H12R 6866   1.840   0.081   4.789  0.1689  1.3722 -1.0845
   77SOPE  H12S 6867   2.023   0.052   4.807  1.5951  0.9046  0.6139
   77SOPE  C213 6868   1.966   0.254   4.774 -0.3612  0.2415 -0.1894
   77SOPE  H13R 6869   2.046   0.302   4.835 -0.7371 -0.5744  0.9897
   77SOPE  H13S 6870   1.878   0.322   4.774 -1.0237 -0.6023 -0.2272
   77SOPE  C214 6871   2.027   0.243   4.632  0.5101  1.0874  0.5708
   77SOPE  H14R 6872   1.933   0.229   4.575  1.3080 -1.5241 -0.2256
   77SOPE  H14S 6873   2.075   0.147   4.606 -2.9471 -0.1038 -2.1287
   77SOPE  C215 6874   2.103   0.363   4.587  0.2342 -0.4107 -0.7260
   77SOPE  H15R 6875   2.153   0.337   4.491  2.3685 -2.6873  0.8788
   77SOPE  H15S 6876   2.187   0.394   4.652 -0.2388  3.1752 -1.6094
   77SOPE  C216 6877   2.010   0.482   4.591 -0.0517 -0.2526  0.6803
   77SOPE  H16R 6878   1.969   0.505   4.692  0.7914 -0.1499  1.0092
   77SOPE  H16S 6879   1.928   0.448   4.524  1.4351 -1.6237 -0.4958
   77SOPE  C217 6880   2.084   0.601   4.534 -0.0869  0.4422 -0.6590
   77SOPE  H17R 6881   2.126   0.581   4.433  0.1241  2.2980 -0.9758
   77SOPE  H17S 6882   2.173   0.621   4.598 -0.6155 -3.9369  1.9090
   77SOPE  C218 6883   1.992   0.725   4.544  0.3858  0.1133  0.2290
   77SOPE  H18R 6884   1.944   0.736   4.643 -1.0513  1.2433 -0.5466
   77SOPE  H18S 6885   1.904   0.710   4.477 -0.4203  2.3600  0.6914
   77SOPE  H18T 6886   2.052   0.816   4.522  2.9119 -1.6654 -0.7267
   77SOPE   C33 6887   2.306   0.084   5.790  0.8287 -0.5137 -0.2941
   77SOPE   H3X 6888   2.360  -0.002   5.835  0.9568 -0.5510 -0.5204
   77SOPE   H3Y 6889   2.357   0.174   5.830 -1.3649  1.3122 -1.3716
   77SOPE   C34 6890   2.317   0.089   5.643  0.0558 -0.4394  0.6144
   77SOPE   H4X 6891   2.282   0.187   5.604  2.8838  0.8769  1.0884
   77SOPE   H4Y 6892   2.270   0.000   5.596  0.6332 -0.5049  0.1379
   77SOPE   C35 6893   2.473   0.073   5.602 -0.0605 -0.0631  0.3224
   77SOPE   H5X 6894   2.525   0.007   5.673 -0.1076 -1.2062 -0.6772
   77SOPE   H5Y 6895   2.528   0.170   5.609  4.6134 -2.2378 -1.9169
   77SOPE   C36 6896   2.493  -0.003   5.472  0.6015 -0.3188 -0.6953
   77SOPE   H6X 6897   2.419  -0.086   5.471  1.2072 -0.8767 -0.4112
   77SOPE   H6Y 6898   2.596  -0.044   5.478  0.7092  0.1758  1.7459
   77SOPE   C37 6899   2.480   0.083   5.346  0.6063 -0.2406  0.3939
   77SOPE   H7X 6900   2.554   0.165   5.355  3.6364 -2.6077 -1.0896
   77SOPE   H7Y 6901   2.376   0.123   5.348  0.7336  0.0707  1.8446
   77SOPE   C38 6902   2.504  -0.001   5.214  0.5990  0.0293  0.0819
   77SOPE   H8X 6903   2.415  -0.068   5.216  1.0720 -0.5888  1.0705
   77SOPE   H8Y 6904   2.594  -0.066   5.211 -0.8366 -2.0583 -0.0138
   77SOPE   C39 6905   2.480   0.086   5.092 -0.4294 -0.5805 -0.2737
   77SOPE   H9X 6906   2.550   0.172   5.090 -0.8933 -0.2047 -1.8689
   77SOPE   H9Y 6907   2.380   0.134   5.101  1.3947  3.8007 -0.6216
   77SOPE  C310 6908   2.471   0.006   4.962  0.1220  0.4540  0.1104
   77SOPE  H10X 6909   2.396  -0.074   4.974  0.7411 -0.3988 -1.4526
   77SOPE  H10Y 6910   2.562  -0.057   4.950 -1.0008 -0.9896 -1.1910
   77SOPE  C311 6911   2.439   0.096   4.843  0.5194 -0.5303  0.2567
   77SOPE  H11X 6912   2.527   0.164   4.836 -1.0821  1.5942 -0.2743
   77SOPE  H11Y 6913   2.352   0.159   4.871  0.0473 -0.8261 -0.5032
   77SOPE  C312 6914   2.420   0.038   4.705 -0.0784  0.6241  0.5351
   77SOPE  H12X 6915   2.341  -0.039   4.717 -2.2312  2.6025 -0.3360
   77SOPE  H12Y 6916   2.508  -0.027   4.683 -1.2464 -1.1839  0.9689
   77SOPE  C313 6917   2.400   0.138   4.589  0.0102  0.0157 -0.2839
   77SOPE  H13X 6918   2.479   0.215   4.599  0.0999 -0.0795 -0.2623
   77SOPE  H13Y 6919   2.303   0.189   4.612  0.2007  1.5710 -2.6075
   77SOPE  C314 6920   2.401   0.070   4.459 -0.6022 -0.0034 -0.4541
   77SOPE  H14X 6921   2.349  -0.027   4.472  1.1806 -1.1518 -1.5462
   77SOPE  H14Y 6922   2.499   0.050   4.410 -0.6676  0.5641 -0.8378
   77SOPE  C315 6923   2.323   0.151   4.361  0.1204  0.1124 -0.5792
   77SOPE  H15X 6924   2.375   0.248   4.345  2.7853 -0.8410  1.6690
   77SOPE  H15Y 6925   2.224   0.173   4.407  1.7587  1.9907  2.3540
   77SOPE  C316 6926   2.315   0.086   4.216  0.1987 -0.0391 -1.0867
   77SOPE  H16X 6927   2.263  -0.011   4.228  1.4775 -0.6019  0.2880
   77SOPE  H16Y 6928   2.419   0.055   4.190  0.0700 -2.2403  0.6585
   77SOPE  C317 6929   2.246   0.174   4.112  0.2090  0.4865 -0.1479
   77SOPE  H17X 6930   2.326   0.249   4.094  1.3494 -0.5917  0.3351
   77SOPE  H17Y 6931   2.150   0.218   4.147 -2.0916 -1.1566 -3.8129
   77SOPE  C318 6932   2.207   0.101   3.988 -0.3954  0.3001  1.0218
   77SOPE  H18X 6933   2.115   0.151   3.951  1.1017  3.4397  1.1984
   77SOPE  H18Y 6934   2.188  -0.005   4.016 -1.4129  0.3436  0.5325
   77SOPE  H18Z 6935   2.282   0.112   3.906 -1.5064  2.8281  0.2300
   78SOPE     N 6936   0.805   1.037   6.361  0.3247  0.2369  0.1554
   78SOPE   HN1 6937   0.865   1.058   6.443  2.2812 -1.2584 -0.8172
   78SOPE   HN2 6938   0.840   1.073   6.271 -0.1419 -1.4186 -0.7311
   78SOPE   HN3 6939   0.712   1.083   6.375 -0.2692  0.0373 -2.5492
   78SOPE   C12 6940   0.810   0.885   6.365 -0.1559  0.9751  0.5806
   78SOPE  H12A 6941   0.732   0.847   6.295 -1.7399  0.9226  2.3035
   78SOPE  H12B 6942   0.771   0.849   6.463 -2.2152 -1.1317 -0.8797
   78SOPE   C11 6943   0.948   0.813   6.346  0.2418 -0.1679 -0.2828
   78SOPE  H11A 6944   0.986   0.840   6.246  0.1872  0.3445 -0.1686
   78SOPE  H11B 6945   0.946   0.702   6.346  0.4605 -0.1771  0.2543
   78SOPE     P 6946   1.184   0.880   6.442  0.2773  0.0198 -0.5434
   78SOPE   O13 6947   1.242   0.758   6.385  0.0725  0.1624  0.3788
   78SOPE   O14 6948   1.237   0.912   6.581  0.6863  0.4243  0.3048
   78SOPE   O12 6949   1.027   0.859   6.456 -0.0896 -0.4517  0.2811
   78SOPE   O11 6950   1.204   1.011   6.348  0.6107  0.5844 -0.0748
   78SOPE    C1 6951   1.269   0.996   6.219  0.2195  0.6737  0.6069
   78SOPE    HA 6952   1.184   0.961   6.157 -0.2169  1.3010  0.8445
   78SOPE    HB 6953   1.351   0.921   6.215  0.5670  0.9469  1.9617
   78SOPE    C2 6954   1.329   1.136   6.176 -0.0213  0.2250 -0.3952
   78SOPE    HS 6955   1.252   1.213   6.200 -1.4138 -1.5644  1.1171
   78SOPE   O21 6956   1.357   1.123   6.037 -0.1371  0.3333  0.5600
   78SOPE   C21 6957   1.267   1.168   5.951  0.3205  0.3747  0.7132
   78SOPE   O22 6958   1.157   1.214   5.983 -0.9492 -0.1125  0.6116
   78SOPE   C22 6959   1.314   1.150   5.812 -0.2607  0.1714  0.2183
   78SOPE   H2R 6960   1.308   1.042   5.788  0.0205  0.4092 -0.9519
   78SOPE   H2S 6961   1.419   1.186   5.804 -0.7160  1.2475 -1.2152
   78SOPE    C3 6962   1.459   1.182   6.252 -0.2055 -0.2218 -1.1793
   78SOPE    HX 6963   1.539   1.105   6.248  0.8402  0.7821 -0.2049
   78SOPE    HY 6964   1.428   1.185   6.359  0.3267  1.0672 -1.0324
   78SOPE   O31 6965   1.501   1.315   6.203  0.3751 -0.2998 -0.4391
   78SOPE   C31 6966   1.622   1.327   6.149 -0.4976  0.5182 -0.4823
   78SOPE   O32 6967   1.710   1.242   6.150 -0.0913  0.0032 -0.3442
   78SOPE   C32 6968   1.638   1.468   6.094 -0.2804 -0.7872  0.4217
   78SOPE   H2X 6969   1.743   1.495   6.115  0.2614 -0.2450 -2.5228
   78SOPE   H2Y 6970   1.567   1.539   6.141 -0.3198  0.3438 -1.2402
   78SOPE   C23 6971   1.232   1.201   5.694 -0.5130 -0.1982  0.4509
   78SOPE   H3R 6972   1.250   1.311   5.686  0.2034 -0.3151  0.3792
   78SOPE   H3S 6973   1.123   1.184   5.705 -0.4653  0.5380  2.5568
   78SOPE   C24 6974   1.281   1.149   5.556 -1.2483 -0.6781 -0.7544
   78SOPE   H4R 6975   1.378   1.197   5.531  0.0164  0.0483  4.4484
   78SOPE   H4S 6976   1.281   1.038   5.567 -0.8155 -0.8350 -2.0810
   78SOPE   C25 6977   1.182   1.172   5.435 -1.0807  0.2004 -0.2440
   78SOPE   H5R 6978   1.223   1.120   5.346  0.2216  0.6831  0.0579
   78SOPE   H5S 6979   1.079   1.138   5.459 -1.2094  1.2300  0.7627
   78SOPE   C26 6980   1.170   1.320   5.399  0.0062  0.0047  0.2565
   78SOPE   H6R 6981   1.117   1.371   5.482 -1.5181 -1.3163  0.1494
   78SOPE   H6S 6982   1.268   1.369   5.383 -0.0407 -0.6264 -2.3784
   78SOPE   C27 6983   1.093   1.338   5.264  0.7034 -0.4427 -0.4183
   78SOPE   H7R 6984   0.987   1.305   5.271  0.8134 -1.0503 -1.4049
   78SOPE   H7S 6985   1.088   1.447   5.244  0.7629 -0.5646 -1.1286
   78SOPE   C28 6986   1.150   1.265   5.137  1.0255 -0.0862 -0.1166
   78SOPE   H8R 6987   1.112   1.162   5.153 -2.8073  0.8891 -1.5903
   78SOPE   H8S 6988   1.091   1.297   5.048 -0.4028 -2.1161  0.0308
   78SOPE   C29 6989   1.299   1.261   5.124  0.3732  1.0002 -0.2861
   78SOPE   H91 6990   1.341   1.186   5.192 -0.2782  2.3920  1.7381
   78SOPE  C210 6991   1.376   1.344   5.044  0.2648  0.0057 -0.6731
   78SOPE  H101 6992   1.486   1.337   5.045  0.3179 -0.6479  3.1806
   78SOPE  C211 6993   1.322   1.450   4.953 -0.5917  0.6595  0.0469
   78SOPE  H11R 6994   1.355   1.550   4.988 -2.2223  0.9989  0.7163
   78SOPE  H11S 6995   1.212   1.444   4.942 -0.5251  0.3944 -0.4729
   78SOPE  C212 6996   1.390   1.433   4.819  0.1315 -0.5943  0.7180
   78SOPE  H12R 6997   1.374   1.334   4.772  0.9929 -0.7513  0.7327
   78SOPE  H12S 6998   1.501   1.437   4.819  0.1282 -0.4831  0.6890
   78SOPE  C213 6999   1.342   1.537   4.719  0.5467 -0.2352  0.3175
   78SOPE  H13R 7000   1.383   1.636   4.748  0.6737 -0.5764  1.3489
   78SOPE  H13S 7001   1.233   1.552   4.707  0.7301  2.4103  1.1499
   78SOPE  C214 7002   1.411   1.511   4.582  0.6026 -0.4233  0.0743
   78SOPE  H14R 7003   1.349   1.445   4.517 -0.2878 -0.5498  1.0279
   78SOPE  H14S 7004   1.505   1.454   4.600  0.3018 -0.3419  2.1178
   78SOPE  C215 7005   1.423   1.636   4.489 -0.7037 -0.8048 -0.3679
   78SOPE  H15R 7006   1.470   1.595   4.397 -0.2463 -1.8677  0.3156
   78SOPE  H15S 7007   1.496   1.706   4.534 -0.1016 -2.4984  1.4094
   78SOPE  C216 7008   1.297   1.716   4.460  0.7777  0.1941 -0.0988
   78SOPE  H16R 7009   1.322   1.821   4.434  0.5977  1.0514  2.8381
   78SOPE  H16S 7010   1.239   1.723   4.555 -3.0475 -1.8033 -2.0385
   78SOPE  C217 7011   1.226   1.655   4.335 -0.3339 -0.1468 -0.4956
   78SOPE  H17R 7012   1.170   1.563   4.362  1.9022 -1.6177 -0.5599
   78SOPE  H17S 7013   1.314   1.626   4.274 -1.2727 -1.2367 -1.3882
   78SOPE  C218 7014   1.137   1.765   4.261 -0.4544  0.5438  0.1174
   78SOPE  H18R 7015   1.054   1.786   4.332 -0.1591  0.5817  0.4593
   78SOPE  H18S 7016   1.101   1.715   4.169 -1.0925 -0.0824  0.6952
   78SOPE  H18T 7017   1.203   1.852   4.240  0.2939  0.0551  0.3970
   78SOPE   C33 7018   1.612   1.467   5.943  0.7722 -0.4318  0.0063
   78SOPE   H3X 7019   1.511   1.432   5.914  0.7487  1.3490 -2.4344
   78SOPE   H3Y 7020   1.682   1.401   5.887  1.4905 -0.3872  0.8256
   78SOPE   C34 7021   1.621   1.611   5.880 -0.4932  0.7947 -0.3168
   78SOPE   H4X 7022   1.704   1.660   5.935 -0.9815  3.0656 -1.4825
   78SOPE   H4Y 7023   1.532   1.672   5.906 -0.6154  0.0499  1.1101
   78SOPE   C35 7024   1.647   1.608   5.728 -0.6956  0.0741 -0.2375
   78SOPE   H5X 7025   1.726   1.532   5.711 -0.1366  0.4944  0.4414
   78SOPE   H5Y 7026   1.674   1.710   5.694  0.8364  0.3679  1.6948
   78SOPE   C36 7027   1.529   1.554   5.640 -0.5043 -0.7133  0.1131
   78SOPE   H6X 7028   1.435   1.593   5.686  0.0768  1.2973 -0.3054
   78SOPE   H6Y 7029   1.525   1.443   5.649 -0.7631 -0.7972 -0.8467
   78SOPE   C37 7030   1.532   1.600   5.497 -0.1228 -0.0404 -0.5471
   78SOPE   H7X 7031   1.532   1.711   5.508 -0.6940 -0.1492  0.7099
   78SOPE   H7Y 7032   1.440   1.565   5.447  1.8379 -2.8008 -2.5684
   78SOPE   C38 7033   1.646   1.532   5.417 -0.1427 -0.3661 -0.4376
   78SOPE   H8X 7034   1.658   1.423   5.438  0.3937 -0.3636 -0.7085
   78SOPE   H8Y 7035   1.738   1.572   5.466 -1.3910  1.6674  0.3820
   78SOPE   C39 7036   1.646   1.554   5.269  0.0995  0.2192  0.4306
   78SOPE   H9X 7037   1.558   1.510   5.219  0.3527 -0.3902  0.5138
   78SOPE   H9Y 7038   1.737   1.501   5.234  0.4901  0.8573  0.4450
   78SOPE  C310 7039   1.655   1.703   5.224  0.4930  0.2814  0.4767
   78SOPE  H10X 7040   1.743   1.757   5.265  0.4635 -1.7457  3.4884
   78SOPE  H10Y 7041   1.561   1.750   5.261  0.3194  0.1974  0.1539
   78SOPE  C311 7042   1.656   1.724   5.071  0.3692 -0.4454  0.3417
   78SOPE  H11X 7043   1.617   1.826   5.049  1.1632  0.2508  2.0243
   78SOPE  H11Y 7044   1.585   1.652   5.025 -0.7491  0.2663  0.9052
   78SOPE  C312 7045   1.794   1.707   5.012  0.5174 -0.1929 -0.0177
   78SOPE  H12X 7046   1.825   1.611   5.059 -0.5695 -0.1008  0.9424
   78SOPE  H12Y 7047   1.867   1.787   5.040  2.2826 -1.7094 -0.0748
   78SOPE  C313 7048   1.805   1.709   4.857 -1.0159  0.9098 -0.4247
   78SOPE  H13X 7049   1.808   1.812   4.815 -1.9918  1.7521  1.4394
   78SOPE  H13Y 7050   1.716   1.653   4.822 -0.8115 -0.0507  0.5272
   78SOPE  C314 7051   1.935   1.643   4.815 -0.2206  0.2778 -0.3123
   78SOPE  H14X 7052   1.931   1.545   4.868 -1.1627  1.2771  1.5565
   78SOPE  H14Y 7053   2.018   1.705   4.856  0.2534 -1.4822  1.5388
   78SOPE  C315 7054   1.950   1.612   4.664 -0.9714 -0.7895 -0.1614
   78SOPE  H15X 7055   1.853   1.583   4.618 -1.9943  2.2828 -0.2268
   78SOPE  H15Y 7056   2.028   1.534   4.652  0.1077  0.2157  0.0383
   78SOPE  C316 7057   2.010   1.727   4.580  0.1342  0.1267  0.0423
   78SOPE  H16X 7058   2.088   1.789   4.630  0.0181  2.4908 -2.5089
   78SOPE  H16Y 7059   1.926   1.797   4.561  0.8453  1.0771  0.3318
   78SOPE  C317 7060   2.075   1.682   4.448 -0.4636 -0.4649 -0.1477
   78SOPE  H17X 7061   1.987   1.673   4.380 -1.2483 -1.0045  0.8999
   78SOPE  H17Y 7062   2.132   1.587   4.458 -0.2779 -0.1004  3.4788
   78SOPE  C318 7063   2.179   1.791   4.406  0.4997  0.7746  0.3635
   78SOPE  H18X 7064   2.128   1.889   4.395  2.3635  1.9525  1.5949
   78SOPE  H18Y 7065   2.220   1.750   4.311 -1.7546  0.7305 -0.6505
   78SOPE  H18Z 7066   2.253   1.799   4.489 -0.7367  1.2029  1.4461
   79SOPE     N 7067   1.598   5.972   6.721  0.3430 -0.2241  0.2396
   79SOPE   HN1 7068   1.605   6.046   6.793  0.8356  1.6674 -1.6524
   79SOPE   HN2 7069   1.631   5.880   6.759 -0.4613 -0.3733  0.5865
   79SOPE   HN3 7070   1.666   6.006   6.649  2.4988 -0.1391  2.1903
   79SOPE   C12 7071   1.461   5.953   6.665 -0.3434  0.3635 -0.4637
   79SOPE  H12A 7072   1.394   5.907   6.741 -2.8494  1.2571 -2.0157
   79SOPE  H12B 7073   1.473   5.889   6.575 -0.0919 -0.6938  0.2973
   79SOPE   C11 7074   1.412   6.094   6.617  0.2131  0.1666 -0.0249
   79SOPE  H11A 7075   1.389   6.159   6.704  2.1022  0.5455  0.2490
   79SOPE  H11B 7076   1.316   6.071   6.566 -0.6350  0.7843  1.2528
   79SOPE     P 7077   1.453   6.226   6.398  0.0130  0.3145 -0.1382
   79SOPE   O13 7078   1.555   6.308   6.327  1.2306 -0.1888 -0.1378
   79SOPE   O14 7079   1.325   6.294   6.422 -0.0392 -0.3143  0.4346
   79SOPE   O12 7080   1.508   6.153   6.526 -0.2443  0.0508 -0.3543
   79SOPE   O11 7081   1.420   6.103   6.301  0.6623  0.6797  0.6111
   79SOPE    C1 7082   1.501   6.001   6.253  0.2084  0.1738 -0.2083
   79SOPE    HA 7083   1.447   5.905   6.238  0.3077  0.3382 -1.7529
   79SOPE    HB 7084   1.574   5.978   6.334 -1.5611 -1.6661  0.9762
   79SOPE    C2 7085   1.565   6.034   6.113 -0.5879  0.1917 -0.1027
   79SOPE    HS 7086   1.607   6.136   6.115 -1.6365  0.6386 -0.2217
   79SOPE   O21 7087   1.463   6.028   6.008  0.0212  0.8270 -0.2860
   79SOPE   C21 7088   1.478   6.101   5.899 -0.1524 -0.0212  0.3380
   79SOPE   O22 7089   1.548   6.201   5.891  0.5318 -0.0019 -0.0501
   79SOPE   C22 7090   1.391   6.037   5.790 -0.0875 -0.8002 -0.1250
   79SOPE   H2R 7091   1.296   6.094   5.795  0.4998  0.1029  2.4576
   79SOPE   H2S 7092   1.357   5.935   5.816 -0.8440 -0.1455  1.6160
   79SOPE    C3 7093   1.674   5.930   6.082 -0.1651 -0.7022 -0.3514
   79SOPE    HX 7094   1.617   5.835   6.072 -1.4163  0.2725 -3.5879
   79SOPE    HY 7095   1.740   5.917   6.171 -2.1741  1.5654  1.6097
   79SOPE   O31 7096   1.742   5.949   5.957 -0.2287  0.2915  0.3908
   79SOPE   C31 7097   1.847   6.031   5.966 -0.5503  0.5488  0.6756
   79SOPE   O32 7098   1.888   6.086   6.064  0.3025 -0.0697 -0.7586
   79SOPE   C32 7099   1.919   6.040   5.824 -0.8759  0.3380  0.3284
   79SOPE   H2X 7100   1.990   5.955   5.833  0.5024  1.5384  1.4149
   79SOPE   H2Y 7101   1.968   6.140   5.819 -2.8749  1.4132  1.0924
   79SOPE   C23 7102   1.450   6.025   5.649  0.5077  0.7125  0.3321
   79SOPE   H3R 7103   1.532   5.951   5.641  0.0204  0.0714  1.0444
   79SOPE   H3S 7104   1.498   6.124   5.635  1.9777 -0.0021  0.2389
   79SOPE   C24 7105   1.345   6.029   5.535  0.1410 -1.3078  0.3226
   79SOPE   H4R 7106   1.267   6.101   5.566  1.5644  1.0807 -1.3329
   79SOPE   H4S 7107   1.399   6.066   5.445  0.6994 -0.1755  1.1016
   79SOPE   C25 7108   1.286   5.900   5.495 -0.1091 -0.1144 -0.1300
   79SOPE   H5R 7109   1.369   5.829   5.475  0.7072  0.6754  0.3804
   79SOPE   H5S 7110   1.219   5.855   5.571 -2.6045  2.4031 -0.6531
   79SOPE   C26 7111   1.202   5.898   5.368  0.4914 -0.4987  0.0635
   79SOPE   H6R 7112   1.103   5.853   5.391 -1.1551  3.2580  1.1647
   79SOPE   H6S 7113   1.180   6.004   5.345 -0.5026 -0.8263 -0.5366
   79SOPE   C27 7114   1.273   5.838   5.245  0.1828 -0.5257 -0.2741
   79SOPE   H7R 7115   1.372   5.883   5.221  0.1524 -0.0486  0.4633
   79SOPE   H7S 7116   1.307   5.734   5.267  0.8833 -0.3406 -0.4474
   79SOPE   C28 7117   1.176   5.823   5.123  0.0812  0.3380 -0.1043
   79SOPE   H8R 7118   1.094   5.764   5.168  0.9338 -1.1295 -0.4146
   79SOPE   H8S 7119   1.140   5.925   5.099 -1.4942 -0.2047 -0.1054
   79SOPE   C29 7120   1.239   5.749   5.005 -0.1106 -0.2885  0.4971
   79SOPE   H91 7121   1.235   5.641   5.025  1.2677 -0.1868  1.4489
   79SOPE  C210 7122   1.281   5.804   4.888  0.1703  0.4144 -0.2499
   79SOPE  H101 7123   1.329   5.744   4.810  0.3441 -0.5074  0.5543
   79SOPE  C211 7124   1.296   5.953   4.860  0.2217  0.0415  0.4174
   79SOPE  H11R 7125   1.402   5.977   4.839 -0.0248 -0.4112 -1.5172
   79SOPE  H11S 7126   1.281   6.012   4.953 -1.7057 -2.4302  1.8029
   79SOPE  C212 7127   1.204   6.010   4.753  0.0789 -0.0168  0.4774
   79SOPE  H12R 7128   1.214   6.120   4.764 -0.5553 -0.0341  1.2594
   79SOPE  H12S 7129   1.097   5.982   4.764 -0.1868  0.8739  0.2134
   79SOPE  C213 7130   1.248   5.982   4.611 -0.4910  0.6702  0.1113
   79SOPE  H13R 7131   1.245   5.874   4.584  0.5860  0.8034 -0.6210
   79SOPE  H13S 7132   1.352   6.015   4.588 -0.8868  1.4759 -0.5761
   79SOPE  C214 7133   1.168   6.064   4.517  0.7668  0.1758  0.1201
   79SOPE  H14R 7134   1.163   6.171   4.546 -1.0379  0.7098 -1.8418
   79SOPE  H14S 7135   1.065   6.021   4.520  0.6505  0.4743  0.4773
   79SOPE  C215 7136   1.217   6.054   4.374 -0.0657  0.0393  0.1638
   79SOPE  H15R 7137   1.216   5.947   4.344 -1.5681  0.5752 -1.9035
   79SOPE  H15S 7138   1.323   6.088   4.377 -0.8913  2.9494  0.0743
   79SOPE  C216 7139   1.144   6.141   4.275  0.1482 -0.2568  0.5780
   79SOPE  H16R 7140   1.154   6.251   4.289 -1.5830  0.0856 -0.5557
   79SOPE  H16S 7141   1.038   6.108   4.279  0.2387 -0.9472 -1.7621
   79SOPE  C217 7142   1.193   6.115   4.131 -0.4401  0.2773 -0.2306
   79SOPE  H17R 7143   1.134   6.175   4.059 -1.0682  1.1072  0.9333
   79SOPE  H17S 7144   1.170   6.009   4.106  0.3715  0.3974 -1.5853
   79SOPE  C218 7145   1.350   6.117   4.097 -0.3132  0.5344 -0.1555
   79SOPE  H18R 7146   1.411   6.051   4.163 -0.3384 -2.2307 -2.6915
   79SOPE  H18S 7147   1.389   6.221   4.089  1.8235 -0.2646 -1.0324
   79SOPE  H18T 7148   1.376   6.074   3.998  2.0583  1.3571  0.0364
   79SOPE   C33 7149   1.830   6.033   5.703 -0.6744 -0.4768  0.9537
   79SOPE   H3X 7150   1.758   6.118   5.695  0.1987  0.2478  0.7148
   79SOPE   H3Y 7151   1.758   5.949   5.713 -2.2448  0.4728 -1.4118
   79SOPE   C34 7152   1.911   6.007   5.574 -0.7044 -0.1145  0.3254
   79SOPE   H4X 7153   1.962   5.908   5.575 -4.0891 -2.0976 -2.1916
   79SOPE   H4Y 7154   1.978   6.094   5.555  0.5324 -1.0657  0.2265
   79SOPE   C35 7155   1.815   5.997   5.456  0.6270  0.2192 -0.1330
   79SOPE   H5X 7156   1.749   6.086   5.465 -0.8550 -0.7620 -0.8651
   79SOPE   H5Y 7157   1.749   5.912   5.484  0.0379  1.3741  2.2699
   79SOPE   C36 7158   1.868   5.991   5.309  0.1784  0.2420 -0.2128
   79SOPE   H6X 7159   1.926   5.897   5.299 -1.9897 -1.0999 -0.7969
   79SOPE   H6Y 7160   1.950   6.066   5.298  0.8665 -0.3015  1.0238
   79SOPE   C37 7161   1.762   5.994   5.199  0.5375  0.9071 -0.8052
   79SOPE   H7X 7162   1.704   6.088   5.190 -0.3994  0.3048 -1.2637
   79SOPE   H7Y 7163   1.695   5.906   5.207  1.7585 -0.1964 -2.2488
   79SOPE   C38 7164   1.836   5.995   5.069 -0.6358  0.0191  0.4515
   79SOPE   H8X 7165   1.893   5.900   5.055 -1.1234 -0.2392  0.1745
   79SOPE   H8Y 7166   1.917   6.070   5.072 -0.5970 -0.0189  0.3503
   79SOPE   C39 7167   1.743   6.015   4.952  0.1200  0.1377 -0.3503
   79SOPE   H9X 7168   1.692   6.113   4.961 -2.5862 -1.1407 -0.7520
   79SOPE   H9Y 7169   1.666   5.935   4.953 -0.9659  1.1301 -1.3782
   79SOPE  C310 7170   1.816   6.018   4.820 -0.3316  0.4917 -0.0122
   79SOPE  H10X 7171   1.874   5.923   4.821  2.6864  2.1415  3.0813
   79SOPE  H10Y 7172   1.900   6.091   4.826  0.3753 -0.2652 -0.3480
   79SOPE  C311 7173   1.721   6.043   4.712 -0.1795  0.7773 -0.2042
   79SOPE  H11X 7174   1.617   6.004   4.723 -0.0561 -0.1867 -2.0923
   79SOPE  H11Y 7175   1.752   5.988   4.621 -0.4328  0.6140 -0.1955
   79SOPE  C312 7176   1.716   6.187   4.662  0.3288 -0.1365  0.4940
   79SOPE  H12X 7177   1.812   6.214   4.614 -0.5107  1.1802 -0.5063
   79SOPE  H12Y 7178   1.702   6.258   4.746 -0.7537  1.0712 -0.6618
   79SOPE  C313 7179   1.607   6.202   4.558 -0.1753  1.1610  0.1626
   79SOPE  H13X 7180   1.509   6.186   4.608  0.6487 -0.1298  1.4236
   79SOPE  H13Y 7181   1.612   6.121   4.483  1.3135 -1.4080  2.8391
   79SOPE  C314 7182   1.625   6.330   4.474  0.0559  0.1857 -0.7517
   79SOPE  H14X 7183   1.735   6.335   4.457  0.5136 -2.3736  0.9656
   79SOPE  H14Y 7184   1.594   6.418   4.535  0.8721 -0.2517  0.3373
   79SOPE  C315 7185   1.554   6.315   4.337  0.1957 -0.3714 -0.8290
   79SOPE  H15X 7186   1.446   6.341   4.338 -0.0271 -1.2649 -0.4130
   79SOPE  H15Y 7187   1.578   6.208   4.319  2.1334 -0.3180  1.0053
   79SOPE  C316 7188   1.609   6.396   4.222  0.9104 -0.3024 -0.1303
   79SOPE  H16X 7189   1.609   6.502   4.257 -2.7028 -0.5935  1.1405
   79SOPE  H16Y 7190   1.544   6.384   4.133  0.7271  1.2083 -0.2305
   79SOPE  C317 7191   1.750   6.367   4.170  0.4565  0.2267  0.2716
   79SOPE  H17X 7192   1.741   6.271   4.115  0.6000 -0.8954  2.1266
   79SOPE  H17Y 7193   1.812   6.352   4.260 -0.2930 -0.3351  0.6976
   79SOPE  C318 7194   1.802   6.473   4.071 -1.0292 -0.3880 -0.4313
   79SOPE  H18X 7195   1.813   6.574   4.117  0.1349 -0.8965  0.4693
   79SOPE  H18Y 7196   1.744   6.476   3.976 -2.9736  0.2088  0.7176
   79SOPE  H18Z 7197   1.903   6.446   4.035 -1.5565 -0.9005 -1.5797
   80SOPE     N 7198   6.784   2.152   7.012  0.0435 -0.4496 -0.2821
   80SOPE   HN1 7199   6.776   2.134   7.114 -0.6325 -2.2610 -0.6273
   80SOPE   HN2 7200   6.883   2.166   6.984 -0.1920  1.4015 -0.3133
   80SOPE   HN3 7201   6.729   2.237   6.988 -0.3605 -0.9357 -1.1544
   80SOPE   C12 7202   6.729   2.051   6.924  0.2827 -0.3863  0.2135
   80SOPE  H12A 7203   6.619   2.044   6.939 -0.1651  0.7432 -2.1096
   80SOPE  H12B 7204   6.774   1.951   6.941 -0.7312 -0.6412  1.6940
   80SOPE   C11 7205   6.744   2.093   6.776  1.0636  0.8840  0.4879
   80SOPE  H11A 7206   6.689   2.188   6.760  2.9952  1.9990  0.1681
   80SOPE  H11B 7207   6.702   2.013   6.710 -1.3302  2.0524  0.4769
   80SOPE     P 7208   6.974   2.008   6.662  0.2582  0.1898 -0.1074
   80SOPE   O13 7209   6.929   1.874   6.700  0.5176  0.5202 -0.7798
   80SOPE   O14 7210   7.114   2.036   6.691 -0.3498  0.3508  0.3169
   80SOPE   O12 7211   6.883   2.115   6.738 -0.5621 -0.1531  0.8890
   80SOPE   O11 7212   6.943   2.043   6.512 -0.0086  0.3907  0.4660
   80SOPE    C1 7213   7.029   1.983   6.408  0.1532  0.0084 -0.4087
   80SOPE    HA 7214   7.077   1.890   6.443 -0.6742 -0.0340  0.6500
   80SOPE    HB 7215   7.100   2.064   6.378  0.1795 -0.5640 -2.0046
   80SOPE    C2 7216   6.942   1.950   6.283 -0.6568 -0.0010 -0.5562
   80SOPE    HS 7217   7.005   1.898   6.208 -1.2102  0.5779 -1.4442
   80SOPE   O21 7218   6.900   2.069   6.223 -0.0002  0.0865  0.6589
   80SOPE   C21 7219   6.914   2.088   6.086  0.2198  0.1273 -0.0930
   80SOPE   O22 7220   6.954   2.002   6.008  0.2929  0.2394 -0.3505
   80SOPE   C22 7221   6.842   2.225   6.051  0.5934  0.1467  0.7830
   80SOPE   H2R 7222   6.890   2.305   6.111 -0.6662 -0.2937  2.4655
   80SOPE   H2S 7223   6.736   2.228   6.084  0.4124 -0.9649  0.3545
   80SOPE    C3 7224   6.824   1.857   6.308  0.2556  0.3235  0.5789
   80SOPE    HX 7225   6.741   1.915   6.354 -0.4787 -1.5480  1.7554
   80SOPE    HY 7226   6.851   1.781   6.385 -1.0934 -1.5294 -0.6793
   80SOPE   O31 7227   6.770   1.795   6.187 -0.1059  0.1003  0.2364
   80SOPE   C31 7228   6.840   1.687   6.151 -0.2843  0.4019  0.0707
   80SOPE   O32 7229   6.939   1.646   6.210 -0.0983  0.1247  0.0381
   80SOPE   C32 7230   6.768   1.619   6.040 -0.1546 -0.6243  0.7973
   80SOPE   H2X 7231   6.660   1.642   6.049 -0.3514 -0.6865 -0.9503
   80SOPE   H2Y 7232   6.780   1.511   6.065  0.2230  0.0065  3.5846
   80SOPE   C23 7233   6.825   2.226   5.897  0.3072  0.3872  0.6151
   80SOPE   H3R 7234   6.787   2.130   5.858  0.8914 -0.4657  2.0833
   80SOPE   H3S 7235   6.928   2.241   5.860 -0.1781  0.9485 -0.5654
   80SOPE   C24 7236   6.744   2.339   5.831  0.5121 -0.5019 -0.3252
   80SOPE   H4R 7237   6.646   2.325   5.883  0.7244  0.1074  0.2482
   80SOPE   H4S 7238   6.768   2.446   5.848  0.3668 -0.4285 -0.5727
   80SOPE   C25 7239   6.731   2.314   5.681 -0.6486 -0.5676  0.3138
   80SOPE   H5R 7240   6.834   2.326   5.642 -1.5311 -0.1380 -1.9904
   80SOPE   H5S 7241   6.689   2.212   5.663 -0.6844 -0.6791  0.9902
   80SOPE   C26 7242   6.640   2.411   5.603 -0.2193  0.0403  0.8173
   80SOPE   H6R 7243   6.544   2.429   5.657 -0.6358 -0.9689  0.4409
   80SOPE   H6S 7244   6.687   2.511   5.593  0.2477 -0.3506 -1.4498
   80SOPE   C27 7245   6.598   2.363   5.465  0.2916  0.2219 -0.2419
   80SOPE   H7R 7246   6.681   2.326   5.400  0.4522 -1.5170  0.8802
   80SOPE   H7S 7247   6.548   2.268   5.495  2.8080 -1.1474 -0.1061
   80SOPE   C28 7248   6.499   2.457   5.389  0.6170  0.1354  0.2170
   80SOPE   H8R 7249   6.452   2.398   5.307 -0.2349 -1.1871  1.6092
   80SOPE   H8S 7250   6.407   2.467   5.450 -1.3705 -1.0194 -2.3794
   80SOPE   C29 7251   6.563   2.586   5.344 -0.8253  0.4606  0.2058
   80SOPE   H91 7252   6.565   2.653   5.431 -0.6561  0.1179  0.4682
   80SOPE  C210 7253   6.630   2.629   5.237 -0.3022  0.1624 -0.1529
   80SOPE  H101 7254   6.647   2.738   5.239  0.9389 -0.0312  0.8488
   80SOPE  C211 7255   6.660   2.565   5.105 -0.0216 -0.3917  0.0807
   80SOPE  H11R 7256   6.657   2.455   5.122  2.4383 -0.2156  2.3797
   80SOPE  H11S 7257   6.766   2.589   5.081  0.2821 -1.7078  0.0133
   80SOPE  C212 7258   6.555   2.605   4.997  0.5855 -0.5751  0.6554
   80SOPE  H12R 7259   6.459   2.559   5.029 -0.4790  0.7021 -0.5746
   80SOPE  H12S 7260   6.582   2.541   4.911 -0.5318 -1.0234  0.6124
   80SOPE  C213 7261   6.539   2.758   4.972  0.6117 -0.1107 -0.2674
   80SOPE  H13R 7262   6.641   2.791   4.945  2.1149  0.3516  4.8099
   80SOPE  H13S 7263   6.521   2.829   5.056  0.3436  1.1581 -1.3507
   80SOPE  C214 7264   6.431   2.787   4.867 -0.4088 -1.0677 -0.1578
   80SOPE  H14R 7265   6.338   2.729   4.882 -2.9600  1.7257 -3.5627
   80SOPE  H14S 7266   6.469   2.734   4.776 -1.9958 -0.3290 -1.2903
   80SOPE  C215 7267   6.391   2.934   4.835 -0.6900  0.0315  0.0679
   80SOPE  H15R 7268   6.381   3.006   4.919 -1.0105  0.6884 -0.5188
   80SOPE  H15S 7269   6.293   2.932   4.783 -1.8532 -0.0998  2.1437
   80SOPE  C216 7270   6.501   3.001   4.746 -0.1146 -0.0170 -0.3035
   80SOPE  H16R 7271   6.518   2.940   4.654 -0.1983 -0.8929  0.2432
   80SOPE  H16S 7272   6.595   3.000   4.805 -1.3890 -0.8596  1.8369
   80SOPE  C217 7273   6.472   3.143   4.712 -0.2031 -0.5267  0.1155
   80SOPE  H17R 7274   6.451   3.189   4.811 -1.2915 -0.2176 -0.2465
   80SOPE  H17S 7275   6.376   3.155   4.658 -0.5626 -0.7491  0.6981
   80SOPE  C218 7276   6.587   3.212   4.634  0.2765  0.2924 -0.4168
   80SOPE  H18R 7277   6.565   3.320   4.628 -1.6453 -0.0968 -0.9914
   80SOPE  H18S 7278   6.595   3.166   4.533  0.2840  1.2751 -0.8762
   80SOPE  H18T 7279   6.682   3.202   4.691 -0.7024 -1.9575  0.9940
   80SOPE   C33 7280   6.816   1.649   5.891 -0.3237  0.9576 -0.2209
   80SOPE   H3X 7281   6.922   1.624   5.872 -0.5299 -0.5898  0.5340
   80SOPE   H3Y 7282   6.799   1.756   5.868  1.5322  1.7221  1.6414
   80SOPE   C34 7283   6.735   1.563   5.799  0.4317  0.1451  1.0609
   80SOPE   H4X 7284   6.628   1.582   5.821 -0.0194 -1.2972  0.2318
   80SOPE   H4Y 7285   6.756   1.456   5.816  3.1621  0.1145 -1.5320
   80SOPE   C35 7286   6.768   1.588   5.653 -0.2169 -0.8833  0.1581
   80SOPE   H5X 7287   6.850   1.521   5.621 -1.0958 -1.7234 -0.3783
   80SOPE   H5Y 7288   6.802   1.694   5.646 -0.2428 -0.8889 -0.0383
   80SOPE   C36 7289   6.652   1.582   5.557  0.4941  0.5725 -1.5613
   80SOPE   H6X 7290   6.570   1.648   5.592  0.9301  0.1539  0.3809
   80SOPE   H6Y 7291   6.609   1.480   5.549 -2.3600  1.5094  0.2648
   80SOPE   C37 7292   6.683   1.613   5.414 -0.3509 -0.1711  0.1942
   80SOPE   H7X 7293   6.736   1.524   5.372  0.1630  0.5301 -0.6636
   80SOPE   H7Y 7294   6.756   1.696   5.403  1.5460 -1.5577  1.5876
   80SOPE   C38 7295   6.561   1.640   5.327  0.6783  0.0435 -0.7370
   80SOPE   H8X 7296   6.497   1.727   5.354  0.4166  0.3807 -2.3562
   80SOPE   H8Y 7297   6.495   1.551   5.329  0.8549 -0.1248  2.6704
   80SOPE   C39 7298   6.595   1.687   5.185  1.0375  0.1142  0.5896
   80SOPE   H9X 7299   6.647   1.601   5.139  1.1810 -0.1631  1.2500
   80SOPE   H9Y 7300   6.657   1.780   5.185 -1.3426  1.8191 -0.6877
   80SOPE  C310 7301   6.455   1.710   5.115  0.0597 -0.2104  1.4722
   80SOPE  H10X 7302   6.413   1.794   5.174  0.7425  0.5713  0.8724
   80SOPE  H10Y 7303   6.392   1.620   5.128  0.7922 -1.1638 -0.9660
   80SOPE  C311 7304   6.480   1.735   4.966 -0.2333  0.3365  0.2483
   80SOPE  H11X 7305   6.542   1.646   4.944 -1.6294 -0.8422  0.9318
   80SOPE  H11Y 7306   6.541   1.828   4.956  2.0115 -1.1902 -1.3228
   80SOPE  C312 7307   6.355   1.732   4.879 -0.3949  0.3543 -0.5872
   80SOPE  H12X 7308   6.293   1.822   4.903 -1.2721 -0.8443  2.0208
   80SOPE  H12Y 7309   6.291   1.644   4.900  2.4321 -1.8110 -0.4726
   80SOPE  C313 7310   6.390   1.721   4.727 -0.8273 -0.0551 -0.9726
   80SOPE  H13X 7311   6.450   1.628   4.715 -0.9448 -0.1240 -1.0260
   80SOPE  H13Y 7312   6.452   1.801   4.680  0.2786  0.8453  1.8254
   80SOPE  C314 7313   6.271   1.693   4.641 -0.5544 -0.1773 -0.7627
   80SOPE  H14X 7314   6.183   1.755   4.667 -0.0042  0.8008 -1.1699
   80SOPE  H14Y 7315   6.244   1.588   4.665  1.3687 -0.2663  1.4221
   80SOPE  C315 7316   6.301   1.702   4.489 -0.1527  0.0965 -0.5583
   80SOPE  H15X 7317   6.343   1.802   4.465  1.8145 -0.3541  0.7732
   80SOPE  H15Y 7318   6.203   1.687   4.438 -0.1266 -1.1031 -0.2866
   80SOPE  C316 7319   6.391   1.597   4.429 -0.7379  0.2972 -0.4738
   80SOPE  H16X 7320   6.345   1.497   4.441 -1.2928  0.4136 -1.5487
   80SOPE  H16Y 7321   6.492   1.604   4.475 -0.5772 -1.1276 -0.5807
   80SOPE  C317 7322   6.422   1.614   4.282 -0.2328 -0.6987 -0.1443
   80SOPE  H17X 7323   6.326   1.620   4.226  0.6272 -2.0189 -1.8597
   80SOPE  H17Y 7324   6.468   1.521   4.244 -1.2985 -1.1283 -0.4240
   80SOPE  C318 7325   6.520   1.730   4.245  0.2639  0.6745  0.2099
   80SOPE  H18X 7326   6.624   1.723   4.285  0.2799 -2.0400 -0.1334
   80SOPE  H18Y 7327   6.487   1.826   4.290  1.7234  1.1670  0.2795
   80SOPE  H18Z 7328   6.536   1.735   4.136 -1.6460 -2.8930 -0.4011
   81SOPE     N 7329   3.403   3.650   7.227  0.6316 -0.5325  0.4892
   81SOPE   HN1 7330   3.369   3.575   7.290  1.6076 -0.9476  0.5432
   81SOPE   HN2 7331   3.322   3.715   7.222  0.2897 -1.0132 -0.4635
   81SOPE   HN3 7332   3.418   3.593   7.141 -2.5568 -0.3987 -0.2944
   81SOPE   C12 7333   3.524   3.726   7.280 -0.0461  0.3697  0.1254
   81SOPE  H12A 7334   3.610   3.658   7.262  1.3589  1.8092  1.1419
   81SOPE  H12B 7335   3.513   3.742   7.389 -1.0083  0.3144  0.0402
   81SOPE   C11 7336   3.521   3.857   7.204 -0.0856  0.1084 -0.1006
   81SOPE  H11A 7337   3.609   3.916   7.236 -2.2735  1.9182  3.1804
   81SOPE  H11B 7338   3.426   3.912   7.223 -0.9928 -0.1164 -3.4196
   81SOPE     P 7339   3.653   3.846   6.976  0.2232  0.1038  0.1576
   81SOPE   O13 7340   3.627   3.776   6.847 -0.4027 -0.1908 -0.3982
   81SOPE   O14 7341   3.769   3.807   7.061 -0.3203  0.3546  0.0581
   81SOPE   O12 7342   3.525   3.839   7.062  0.0058 -0.6954 -0.1703
   81SOPE   O11 7343   3.664   3.998   6.952  0.1085  0.2868  0.0566
   81SOPE    C1 7344   3.596   4.078   6.853  0.4785  0.1313 -0.6337
   81SOPE    HA 7345   3.535   4.148   6.915  1.0645 -1.4762  1.9006
   81SOPE    HB 7346   3.515   4.020   6.804 -1.4515  1.6407  0.6168
   81SOPE    C2 7347   3.686   4.131   6.740  0.1734 -1.0286  0.2460
   81SOPE    HS 7348   3.616   4.179   6.667  0.1894  0.0719  0.9269
   81SOPE   O21 7349   3.754   4.027   6.672 -0.0840  0.0277  0.4202
   81SOPE   C21 7350   3.685   3.934   6.605 -0.2730  0.4566 -0.3276
   81SOPE   O22 7351   3.569   3.947   6.570 -0.0967  0.0327 -0.1245
   81SOPE   C22 7352   3.769   3.807   6.577 -0.4522 -0.1122 -0.1567
   81SOPE   H2R 7353   3.705   3.731   6.527  1.9238 -1.6361 -1.0880
   81SOPE   H2S 7354   3.794   3.761   6.675 -1.5459 -0.9120 -0.2369
   81SOPE    C3 7355   3.785   4.237   6.788 -0.1831  0.2158 -1.1352
   81SOPE    HX 7356   3.868   4.202   6.852 -1.4560 -0.0495  0.4248
   81SOPE    HY 7357   3.729   4.309   6.851 -0.7173 -0.1728 -1.1596
   81SOPE   O31 7358   3.828   4.302   6.669  0.4862 -0.4071  0.1165
   81SOPE   C31 7359   3.941   4.263   6.615  0.0878 -1.1551 -0.4495
   81SOPE   O32 7360   4.012   4.178   6.667  0.3328  0.3384 -0.1374
   81SOPE   C32 7361   3.964   4.321   6.473 -0.3902  0.8762 -0.3331
   81SOPE   H2X 7362   3.909   4.416   6.458  0.7371  2.0199  2.1824
   81SOPE   H2Y 7363   3.932   4.240   6.405  0.3012 -1.3554  1.8239
   81SOPE   C23 7364   3.891   3.838   6.493 -0.0994 -1.0055  0.4147
   81SOPE   H3R 7365   3.938   3.740   6.473 -0.2372 -0.9391 -0.2704
   81SOPE   H3S 7366   3.964   3.896   6.553 -0.6570 -1.9990  2.1360
   81SOPE   C24 7367   3.877   3.906   6.356  0.6084 -0.1550 -0.7161
   81SOPE   H4R 7368   3.784   3.878   6.303 -2.1411  1.0410  3.0840
   81SOPE   H4S 7369   3.853   4.012   6.377 -1.6734 -0.5542 -1.0648
   81SOPE   C25 7370   4.008   3.921   6.266  0.1304  0.2778  0.1030
   81SOPE   H5R 7371   4.090   3.942   6.338 -0.3201  2.1045  0.1151
   81SOPE   H5S 7372   4.040   3.826   6.216 -0.8929  0.3332 -0.6899
   81SOPE   C26 7373   3.997   4.036   6.166 -0.6840 -0.0806  0.3690
   81SOPE   H6R 7374   3.909   4.012   6.103  1.8831 -2.0930 -2.7754
   81SOPE   H6S 7375   3.979   4.130   6.221 -2.0033 -0.6610  0.9711
   81SOPE   C27 7376   4.121   4.029   6.073  1.2209 -0.3474 -0.1097
   81SOPE   H7R 7377   4.144   3.925   6.043 -0.2361 -0.3329 -1.4548
   81SOPE   H7S 7378   4.094   4.089   5.983 -0.4781  0.0563  0.6244
   81SOPE   C28 7379   4.245   4.097   6.136  0.3998  0.3461  0.6552
   81SOPE   H8R 7380   4.219   4.204   6.152 -0.1346  0.2327  0.5562
   81SOPE   H8S 7381   4.243   4.079   6.245  2.4738 -1.1113  0.5062
   81SOPE   C29 7382   4.384   4.080   6.079  0.1780  0.8340  0.2937
   81SOPE   H91 7383   4.452   4.031   6.150 -1.4965 -1.0163  0.7217
   81SOPE  C210 7384   4.417   4.088   5.948  0.6560 -0.1460 -0.1682
   81SOPE  H101 7385   4.520   4.056   5.925  0.9858  0.4958  0.3857
   81SOPE  C211 7386   4.329   4.150   5.841 -0.1681 -0.6935 -1.0533
   81SOPE  H11R 7387   4.281   4.245   5.873 -3.7542 -2.1667 -1.6436
   81SOPE  H11S 7388   4.237   4.091   5.822 -0.7083  0.0064 -0.6178
   81SOPE  C212 7389   4.390   4.182   5.696  0.5448  0.0925 -0.2883
   81SOPE  H12R 7390   4.486   4.234   5.716  1.3936 -1.3647 -0.4038
   81SOPE  H12S 7391   4.320   4.249   5.642 -0.0014 -0.7190 -0.5998
   81SOPE  C213 7392   4.406   4.052   5.608 -0.1126  0.7319 -0.2340
   81SOPE  H13R 7393   4.309   4.005   5.584 -0.4167  0.5400  1.2609
   81SOPE  H13S 7394   4.469   3.982   5.667 -0.7032 -0.6943 -1.2489
   81SOPE  C214 7395   4.472   4.079   5.469 -0.2789 -0.4502 -0.1093
   81SOPE  H14R 7396   4.496   3.978   5.431  3.6520  0.4470 -0.4001
   81SOPE  H14S 7397   4.566   4.136   5.483  0.6239 -2.0209  0.4167
   81SOPE  C215 7398   4.381   4.152   5.370 -0.1884 -0.1836  0.0278
   81SOPE  H15R 7399   4.373   4.260   5.395 -1.4424 -0.4250  0.7615
   81SOPE  H15S 7400   4.279   4.108   5.369  0.4451 -1.7380  0.7414
   81SOPE  C216 7401   4.434   4.138   5.223 -0.3180  0.0464  0.7655
   81SOPE  H16R 7402   4.418   4.032   5.192 -1.2854 -0.2131  2.0409
   81SOPE  H16S 7403   4.543   4.155   5.223 -0.1150 -0.9651  2.5186
   81SOPE  C217 7404   4.375   4.240   5.126  0.5908 -0.2319  0.1110
   81SOPE  H17R 7405   4.265   4.231   5.113  0.6691  1.1940 -1.9920
   81SOPE  H17S 7406   4.406   4.220   5.021 -0.5306  2.0563 -0.7234
   81SOPE  C218 7407   4.417   4.389   5.139 -0.3413  0.5199 -0.7093
   81SOPE  H18R 7408   4.409   4.426   5.243  2.2218  0.3527 -0.3893
   81SOPE  H18S 7409   4.344   4.450   5.081  0.0323  2.1503  0.4589
   81SOPE  H18T 7410   4.524   4.411   5.119  0.1725 -0.2656  1.0276
   81SOPE   C33 7411   4.115   4.343   6.458  0.4066  0.4944  0.6167
   81SOPE   H3X 7412   4.167   4.244   6.456  1.3364  0.8215  3.6116
   81SOPE   H3Y 7413   4.165   4.395   6.542  1.6226 -0.6899  0.6736
   81SOPE   C34 7414   4.139   4.420   6.330  0.8653  0.5046  0.1956
   81SOPE   H4X 7415   4.110   4.521   6.367  1.6581  0.5323  0.7640
   81SOPE   H4Y 7416   4.073   4.382   6.249  0.3830  1.4247  0.1410
   81SOPE   C35 7417   4.288   4.427   6.299 -0.4919 -0.2461  0.9381
   81SOPE   H5X 7418   4.328   4.336   6.250  1.4496  1.7100 -1.3855
   81SOPE   H5Y 7419   4.340   4.442   6.396  2.3999 -2.0837 -0.2080
   81SOPE   C36 7420   4.321   4.548   6.205 -0.2875 -0.1782  0.2803
   81SOPE   H6X 7421   4.233   4.616   6.207 -1.0441 -1.1076  2.5909
   81SOPE   H6Y 7422   4.323   4.504   6.103  0.2921  1.6016 -0.5155
   81SOPE   C37 7423   4.450   4.633   6.231 -0.0545 -0.2182  0.5007
   81SOPE   H7X 7424   4.541   4.570   6.240  1.5369  1.6898 -1.2445
   81SOPE   H7Y 7425   4.454   4.690   6.327  1.1990  0.9507 -0.1965
   81SOPE   C38 7426   4.473   4.740   6.118 -0.0203  0.6701  0.5556
   81SOPE   H8X 7427   4.456   4.691   6.020  1.5015  2.0189 -0.4393
   81SOPE   H8Y 7428   4.582   4.761   6.126  0.1941 -0.1622 -0.0846
   81SOPE   C39 7429   4.388   4.859   6.138 -0.1398 -0.0130  0.2964
   81SOPE   H9X 7430   4.395   4.899   6.241 -1.6583  1.8719 -0.2680
   81SOPE   H9Y 7431   4.284   4.824   6.119  0.7151 -1.5525 -1.9108
   81SOPE  C310 7432   4.426   4.974   6.049 -0.2704 -0.2591  0.2831
   81SOPE  H10X 7433   4.535   4.985   6.033 -0.2715  1.1158  1.0814
   81SOPE  H10Y 7434   4.394   5.070   6.095 -0.2818  0.3437 -0.9607
   81SOPE  C311 7435   4.363   4.955   5.914 -0.4088  0.1354  0.5082
   81SOPE  H11X 7436   4.253   4.951   5.932 -0.3701  0.5153  0.8454
   81SOPE  H11Y 7437   4.399   4.853   5.886 -0.2884  0.3819 -0.2518
   81SOPE  C312 7438   4.415   5.051   5.806 -0.1647  0.7805  0.2710
   81SOPE  H12X 7439   4.526   5.044   5.814 -0.1819 -2.6728 -0.7762
   81SOPE  H12Y 7440   4.388   5.151   5.844  1.4707  0.8299  1.3930
   81SOPE  C313 7441   4.346   5.010   5.677  0.5494  0.3900  0.0488
   81SOPE  H13X 7442   4.239   5.040   5.682  0.6732  0.9529 -0.5130
   81SOPE  H13Y 7443   4.338   4.900   5.669 -0.4532  0.4968 -0.6783
   81SOPE  C314 7444   4.416   5.070   5.559  0.3634 -0.0384  0.4080
   81SOPE  H14X 7445   4.526   5.069   5.577  0.2658  0.2115  1.0753
   81SOPE  H14Y 7446   4.385   5.174   5.539  1.8005  0.8895  2.6287
   81SOPE  C315 7447   4.377   4.996   5.428  0.7884 -0.2942  0.4806
   81SOPE  H15X 7448   4.269   5.014   5.407  1.3105  1.5032 -1.0150
   81SOPE  H15Y 7449   4.413   4.892   5.437 -0.6504 -0.6887  2.0041
   81SOPE  C316 7450   4.442   5.059   5.300  0.9392  0.4041 -0.1541
   81SOPE  H16X 7451   4.442   4.985   5.218  0.7770  0.8453 -0.5608
   81SOPE  H16Y 7452   4.549   5.083   5.313  1.0638  0.5881 -1.4517
   81SOPE  C317 7453   4.375   5.192   5.260 -0.0186 -0.1377 -0.0805
   81SOPE  H17X 7454   4.404   5.268   5.336 -0.2176  0.2410 -0.3794
   81SOPE  H17Y 7455   4.267   5.175   5.277  0.5930 -1.1964  3.3455
   81SOPE  C318 7456   4.390   5.234   5.111  0.7028 -0.0278  0.1867
   81SOPE  H18X 7457   4.498   5.248   5.092  0.5429 -0.6475 -1.3301
   81SOPE  H18Y 7458   4.350   5.335   5.084  1.6345  0.2670 -0.1183
   81SOPE  H18Z 7459   4.343   5.158   5.044 -0.1084  0.8213 -0.2362
   82SOPE     N 7460   1.395   5.376   6.823 -0.4895 -0.3596  0.2638
   82SOPE   HN1 7461   1.338   5.378   6.910 -0.6655 -0.3500  0.1491
   82SOPE   HN2 7462   1.338   5.377   6.736  1.8020 -1.4838 -1.3715
   82SOPE   HN3 7463   1.435   5.280   6.826 -0.7259 -0.4612  0.1465
   82SOPE   C12 7464   1.498   5.477   6.825 -0.7829  0.1682 -0.2913
   82SOPE  H12A 7465   1.558   5.463   6.917 -3.6929  1.2394  1.9409
   82SOPE  H12B 7466   1.453   5.579   6.829  0.3261  0.6882 -0.6625
   82SOPE   C11 7467   1.593   5.459   6.700  0.3900 -0.3457 -0.1239
   82SOPE  H11A 7468   1.667   5.541   6.710  1.2627 -1.0093 -0.8526
   82SOPE  H11B 7469   1.532   5.465   6.607  0.5404 -1.0024 -0.2724
   82SOPE     P 7470   1.796   5.298   6.661  0.3954 -0.4406 -0.0512
   82SOPE   O13 7471   1.857   5.176   6.725 -0.3183 -0.3604  0.0771
   82SOPE   O14 7472   1.876   5.419   6.665 -0.3036 -0.1869 -0.2356
   82SOPE   O12 7473   1.646   5.329   6.711  0.2827 -0.2439 -0.1232
   82SOPE   O11 7474   1.764   5.261   6.503  0.2102 -0.4711  0.2310
   82SOPE    C1 7475   1.684   5.138   6.485 -0.0745 -0.0548 -0.3593
   82SOPE    HA 7476   1.620   5.116   6.574 -0.5315 -0.6898 -0.8362
   82SOPE    HB 7477   1.741   5.049   6.450 -0.8426 -2.1953  3.2727
   82SOPE    C2 7478   1.571   5.156   6.376  0.2326 -0.5850 -0.2819
   82SOPE    HS 7479   1.517   5.059   6.370 -1.6273  0.4875 -2.2152
   82SOPE   O21 7480   1.610   5.196   6.243 -0.5690 -0.2463  0.9469
   82SOPE   C21 7481   1.688   5.117   6.168  0.5201 -0.1940  0.5071
   82SOPE   O22 7482   1.726   5.005   6.190 -0.4818  0.1521 -0.9531
   82SOPE   C22 7483   1.703   5.181   6.027 -0.0895 -0.2315  0.1579
   82SOPE   H2R 7484   1.812   5.201   6.019  0.1811 -1.0401  1.5275
   82SOPE   H2S 7485   1.661   5.284   6.028 -0.8249 -0.4231 -2.6848
   82SOPE    C3 7486   1.472   5.261   6.428  0.1874  0.7982 -0.6822
   82SOPE    HX 7487   1.509   5.366   6.430 -2.3874  1.7852  1.2615
   82SOPE    HY 7488   1.455   5.242   6.536  1.3331 -1.2871 -0.8242
   82SOPE   O31 7489   1.350   5.265   6.346  0.3615  0.1867  0.4114
   82SOPE   C31 7490   1.276   5.149   6.351 -0.1677 -0.0808  0.0930
   82SOPE   O32 7491   1.291   5.055   6.425 -0.2527 -0.4589 -0.0262
   82SOPE   C32 7492   1.160   5.150   6.247  0.0756  0.5658  0.7719
   82SOPE   H2X 7493   1.187   5.214   6.160 -0.7148 -1.7126 -1.2341
   82SOPE   H2Y 7494   1.067   5.197   6.287 -0.0770  1.3074 -0.4241
   82SOPE   C23 7495   1.665   5.083   5.910 -0.4007 -0.5521  0.2095
   82SOPE   H3R 7496   1.560   5.050   5.929 -1.5016  2.7469  0.6106
   82SOPE   H3S 7497   1.736   4.998   5.906  1.2946  0.7188  1.6876
   82SOPE   C24 7498   1.670   5.162   5.776  0.3019  0.2306 -0.8517
   82SOPE   H4R 7499   1.577   5.216   5.749  0.5206  0.9951 -0.1249
   82SOPE   H4S 7500   1.752   5.237   5.788  1.2260 -0.8177 -0.3951
   82SOPE   C25 7501   1.714   5.069   5.661 -0.1606  0.2039  0.0151
   82SOPE   H5R 7502   1.822   5.044   5.673 -0.5382 -0.5612  2.2443
   82SOPE   H5S 7503   1.660   4.973   5.673  2.2091 -0.8707  4.3154
   82SOPE   C26 7504   1.695   5.136   5.529  0.2200  0.8376 -0.0139
   82SOPE   H6R 7505   1.601   5.195   5.527  0.1449  0.7009 -0.6341
   82SOPE   H6S 7506   1.784   5.203   5.524  2.1678 -1.5538  0.5764
   82SOPE   C27 7507   1.705   5.038   5.408 -0.2095  0.2700  0.2228
   82SOPE   H7R 7508   1.769   4.953   5.439 -0.5567 -0.2131 -0.3519
   82SOPE   H7S 7509   1.606   4.991   5.389  0.7279 -1.3901 -0.7876
   82SOPE   C28 7510   1.738   5.110   5.277  0.0150  0.2238 -0.7626
   82SOPE   H8R 7511   1.654   5.175   5.244 -0.2278  0.2671 -0.0602
   82SOPE   H8S 7512   1.824   5.167   5.317  0.4075 -1.8444  1.5729
   82SOPE   C29 7513   1.773   5.012   5.170  0.2987  0.4322 -0.0163
   82SOPE   H91 7514   1.825   4.919   5.199 -1.6749 -1.0302 -0.9288
   82SOPE  C210 7515   1.752   5.029   5.041 -0.5008  0.1707  0.1920
   82SOPE  H101 7516   1.795   4.957   4.969  0.6691  0.1380  0.8903
   82SOPE  C211 7517   1.671   5.143   4.987 -0.0288  0.3156 -0.2078
   82SOPE  H11R 7518   1.714   5.156   4.886  2.7340 -0.2614  0.8230
   82SOPE  H11S 7519   1.679   5.234   5.050  1.5334  1.1479 -1.5501
   82SOPE  C212 7520   1.527   5.107   4.959  0.0992 -0.6394 -0.4202
   82SOPE  H12R 7521   1.509   5.009   4.908 -0.2045 -1.0206  0.4109
   82SOPE  H12S 7522   1.495   5.180   4.882  0.5743 -0.0227 -0.0400
   82SOPE  C213 7523   1.421   5.132   5.072 -0.2520  0.2195  0.3471
   82SOPE  H13R 7524   1.475   5.082   5.155  0.4309 -1.0639 -0.8303
   82SOPE  H13S 7525   1.327   5.079   5.043  0.0487 -0.0891 -0.0821
   82SOPE  C214 7526   1.409   5.277   5.112  0.0845  0.0309  0.7230
   82SOPE  H14R 7527   1.365   5.318   5.019 -0.0753  0.6930  1.0872
   82SOPE  H14S 7528   1.506   5.324   5.138 -1.6473  2.5462  3.2887
   82SOPE  C215 7529   1.309   5.298   5.229 -0.2846  0.0206  0.1625
   82SOPE  H15R 7530   1.226   5.228   5.203 -0.3662 -0.2417  1.0893
   82SOPE  H15S 7531   1.268   5.401   5.236  1.6230  0.8987 -0.9500
   82SOPE  C216 7532   1.377   5.253   5.358  0.1162 -0.5360  0.1517
   82SOPE  H16R 7533   1.470   5.312   5.364  0.5251 -1.1843  0.3428
   82SOPE  H16S 7534   1.415   5.148   5.351  3.3873  0.4739  0.9786
   82SOPE  C217 7535   1.282   5.278   5.475 -0.1811  0.5942 -0.3174
   82SOPE  H17R 7536   1.199   5.208   5.451 -1.3751  2.1938 -0.9922
   82SOPE  H17S 7537   1.243   5.382   5.475 -1.5136  0.1085 -0.5463
   82SOPE  C218 7538   1.349   5.251   5.615  0.0250  0.1420  0.2802
   82SOPE  H18R 7539   1.417   5.165   5.598 -1.1766 -0.3647 -2.6973
   82SOPE  H18S 7540   1.281   5.235   5.702 -1.4352 -0.4242 -0.9184
   82SOPE  H18T 7541   1.415   5.338   5.634  0.6545 -0.3752  0.4753
   82SOPE   C33 7542   1.150   5.016   6.180  0.0139  0.0019 -0.2320
   82SOPE   H3X 7543   1.072   4.957   6.232  0.6560  0.1855  0.9935
   82SOPE   H3Y 7544   1.244   4.959   6.195  0.5453  0.7543 -0.5799
   82SOPE   C34 7545   1.120   5.007   6.032  0.1733  0.5677 -0.4542
   82SOPE   H4X 7546   1.181   5.076   5.970 -1.4158  2.1739 -0.3158
   82SOPE   H4Y 7547   1.019   5.049   6.010  0.7663  1.6475 -1.2208
   82SOPE   C35 7548   1.124   4.861   5.979  0.3165 -0.0927 -0.0726
   82SOPE   H5X 7549   1.095   4.792   6.062 -0.4901  0.9660  0.5634
   82SOPE   H5Y 7550   1.227   4.843   5.944  0.5973 -0.6857  1.0069
   82SOPE   C36 7551   1.044   4.831   5.851 -0.6754 -0.3312 -0.5157
   82SOPE   H6X 7552   0.933   4.842   5.858 -1.0175 -2.9293 -0.8953
   82SOPE   H6Y 7553   1.055   4.721   5.835 -1.6149 -0.3034 -1.5227
   82SOPE   C37 7554   1.098   4.906   5.732 -0.1468 -0.8298  0.0979
   82SOPE   H7X 7555   1.200   4.867   5.715  0.1043 -0.2572  0.2512
   82SOPE   H7Y 7556   1.111   5.013   5.762 -3.0697 -1.1514  3.0966
   82SOPE   C38 7557   1.008   4.893   5.604  0.2419  0.9220  0.4571
   82SOPE   H8X 7558   0.904   4.926   5.625 -0.1420 -0.2939  0.5870
   82SOPE   H8Y 7559   0.992   4.784   5.585  1.6152  1.0458 -1.9486
   82SOPE   C39 7560   1.048   4.959   5.479 -0.0827 -0.9573 -0.3090
   82SOPE   H9X 7561   1.150   4.921   5.456 -0.0792 -1.1419  0.0048
   82SOPE   H9Y 7562   1.061   5.067   5.504 -0.6609 -1.4181  2.2571
   82SOPE  C310 7563   0.956   4.948   5.364 -0.2108  0.5725  0.7891
   82SOPE  H10X 7564   0.856   4.927   5.409  0.8801 -1.5711  2.4017
   82SOPE  H10Y 7565   0.974   4.845   5.327 -1.0563  0.5726  0.3492
   82SOPE  C311 7566   0.960   5.045   5.252 -0.9125 -0.1158  0.1991
   82SOPE  H11X 7567   1.066   5.058   5.223 -0.7988 -2.8524 -0.9226
   82SOPE  H11Y 7568   0.926   5.145   5.287  1.4605  0.1179  2.0822
   82SOPE  C312 7569   0.879   4.989   5.134 -0.1593  0.0627 -0.5379
   82SOPE  H12X 7570   0.774   4.978   5.168 -0.3191  2.4396 -0.0582
   82SOPE  H12Y 7571   0.918   4.890   5.101  1.0411  0.5475 -0.6502
   82SOPE  C313 7572   0.881   5.074   5.003  0.5558  0.3852 -0.3811
   82SOPE  H13X 7573   0.989   5.074   4.981  0.1909 -0.1121 -2.2850
   82SOPE  H13Y 7574   0.848   5.180   5.018  0.1694 -0.1022  3.1770
   82SOPE  C314 7575   0.803   5.019   4.885  0.2782  0.2606  0.3971
   82SOPE  H14X 7576   0.692   5.013   4.889  0.0646  2.4540 -0.5228
   82SOPE  H14Y 7577   0.845   4.922   4.853  0.3384  0.2165  0.6094
   82SOPE  C315 7578   0.817   5.113   4.761  0.0801  0.5871 -0.4438
   82SOPE  H15X 7579   0.925   5.111   4.735  0.0785  2.0994 -0.7103
   82SOPE  H15Y 7580   0.794   5.222   4.772  1.2695  0.8860 -0.7320
   82SOPE  C316 7581   0.748   5.058   4.641  0.6575  0.2800 -0.0532
   82SOPE  H16X 7582   0.641   5.039   4.662  0.9830 -0.2067  1.2805
   82SOPE  H16Y 7583   0.796   4.960   4.619 -0.3677  0.2929 -2.7139
   82SOPE  C317 7584   0.756   5.160   4.524 -0.7289 -0.3305 -0.4084
   82SOPE  H17X 7585   0.714   5.258   4.556  1.2259  0.4643 -0.1216
   82SOPE  H17Y 7586   0.695   5.137   4.434 -0.8790  0.1914 -0.4438
   82SOPE  C318 7587   0.903   5.185   4.482  0.0579  0.2930  0.6505
   82SOPE  H18X 7588   0.913   5.263   4.403  0.1061 -0.4659 -0.1078
   82SOPE  H18Y 7589   0.963   5.094   4.460 -0.3508  0.0199  0.6563
   82SOPE  H18Z 7590   0.944   5.248   4.564  2.5172 -0.7894  0.3439
   83SOPE     N 7591   2.265   2.602   1.829  0.5882  0.5762 -0.5437
   83SOPE   HN1 7592   2.329   2.522   1.812 -0.7142 -0.2582 -1.7071
   83SOPE   HN2 7593   2.182   2.578   1.772  1.2293 -1.3043 -0.7568
   83SOPE   HN3 7594   2.303   2.695   1.804 -2.0537  2.2337  1.1194
   83SOPE   C12 7595   2.240   2.576   1.974 -0.5124  0.2451 -0.2519
   83SOPE  H12A 7596   2.148   2.632   1.999 -1.0650 -0.4093 -0.7871
   83SOPE  H12B 7597   2.326   2.609   2.036 -0.3078  0.5698 -0.7058
   83SOPE   C11 7598   2.215   2.426   1.993  0.6555 -0.5142 -0.7885
   83SOPE  H11A 7599   2.126   2.394   1.936  1.0173 -1.0153 -1.0763
   83SOPE  H11B 7600   2.178   2.406   2.096  0.4841 -0.5306 -0.8537
   83SOPE     P 7601   2.329   2.201   2.004 -0.6421 -0.1334  0.2815
   83SOPE   O13 7602   2.447   2.136   1.932  0.3199  0.1524 -0.0366
   83SOPE   O14 7603   2.195   2.144   1.978  0.7193  0.4479 -0.3729
   83SOPE   O12 7604   2.332   2.352   1.964 -0.0077 -0.2140 -0.1409
   83SOPE   O11 7605   2.352   2.201   2.163  0.3834  0.2187 -0.1382
   83SOPE    C1 7606   2.424   2.311   2.227 -0.0691 -0.3234 -0.3118
   83SOPE    HA 7607   2.392   2.406   2.179  0.9277  0.4724  0.5571
   83SOPE    HB 7608   2.533   2.311   2.208  0.3629  0.2458  1.9334
   83SOPE    C2 7609   2.408   2.319   2.377 -0.5697  0.2532 -0.5853
   83SOPE    HS 7610   2.453   2.225   2.415  0.0340  0.7954  0.0814
   83SOPE   O21 7611   2.263   2.324   2.402 -0.2804  0.0278  0.0373
   83SOPE   C21 7612   2.218   2.240   2.495  0.4268  0.7258  0.3233
   83SOPE   O22 7613   2.285   2.167   2.565  0.4248 -0.5457  0.4441
   83SOPE   C22 7614   2.069   2.258   2.499 -0.0971  0.1718  0.2860
   83SOPE   H2R 7615   2.027   2.301   2.405 -1.6473  1.1122  1.3584
   83SOPE   H2S 7616   2.055   2.329   2.583  2.3767  0.7749  0.2379
   83SOPE    C3 7617   2.479   2.438   2.437 -0.1816  0.7378 -0.9422
   83SOPE    HX 7618   2.438   2.527   2.384  0.6374  0.7393 -1.6027
   83SOPE    HY 7619   2.588   2.445   2.413  0.2431 -1.7900 -0.0369
   83SOPE   O31 7620   2.447   2.446   2.575  0.2575 -0.7808 -0.4032
   83SOPE   C31 7621   2.517   2.369   2.656  0.0710 -0.3819 -0.0029
   83SOPE   O32 7622   2.600   2.283   2.630 -0.6541 -0.3591  0.7546
   83SOPE   C32 7623   2.469   2.401   2.797 -0.2064 -0.3260 -0.5043
   83SOPE   H2X 7624   2.366   2.361   2.797 -1.8881  3.5616 -0.1919
   83SOPE   H2Y 7625   2.459   2.511   2.809 -2.8059 -0.5496 -0.1295
   83SOPE   C23 7626   1.989   2.123   2.534  0.2096  0.2723 -0.2187
   83SOPE   H3R 7627   2.009   2.044   2.458 -0.4355 -0.7417  0.6338
   83SOPE   H3S 7628   1.880   2.142   2.529  0.0794 -0.5978 -1.1073
   83SOPE   C24 7629   2.035   2.052   2.663  0.1921  0.4499  0.2751
   83SOPE   H4R 7630   1.971   1.962   2.665  0.5165 -0.0793 -4.0478
   83SOPE   H4S 7631   2.137   2.008   2.654 -0.2826 -0.5920 -0.1108
   83SOPE   C25 7632   2.019   2.134   2.788 -0.3771  0.7453 -0.2722
   83SOPE   H5R 7633   2.093   2.216   2.776 -1.5580  2.3744  2.5000
   83SOPE   H5S 7634   1.910   2.158   2.787 -0.3618  0.9152  0.7057
   83SOPE   C26 7635   2.044   2.046   2.915 -0.6004 -0.3459 -0.0890
   83SOPE   H6R 7636   1.997   1.947   2.897 -2.5017 -0.0545  2.7192
   83SOPE   H6S 7637   2.152   2.026   2.929 -0.4884  0.9153  1.0795
   83SOPE   C27 7638   1.991   2.105   3.048  0.2033  0.1481 -0.5199
   83SOPE   H7R 7639   2.043   2.200   3.074 -0.5022 -0.0333  1.7855
   83SOPE   H7S 7640   1.883   2.126   3.027 -0.0445 -0.9865 -0.4306
   83SOPE   C28 7641   1.998   2.023   3.177  0.1357  0.8339  0.1534
   83SOPE   H8R 7642   1.937   2.076   3.254  1.1950  2.1086  0.1427
   83SOPE   H8S 7643   1.940   1.930   3.158  2.5157 -0.8838  0.7858
   83SOPE   C29 7644   2.140   1.982   3.203  0.1865  0.2685  0.3511
   83SOPE   H91 7645   2.210   2.030   3.134  0.5191  0.1692  0.6157
   83SOPE  C210 7646   2.189   1.911   3.304  0.3673 -0.5678 -0.0424
   83SOPE  H101 7647   2.295   1.883   3.299  0.3068 -1.0300  0.9980
   83SOPE  C211 7648   2.113   1.861   3.413 -0.0242  0.0291 -0.0090
   83SOPE  H11R 7649   2.113   1.752   3.436 -0.6835 -0.6342 -2.7401
   83SOPE  H11S 7650   2.007   1.889   3.401  0.0188  0.8427  1.3303
   83SOPE  C212 7651   2.160   1.932   3.543  0.0222  0.2086  1.1220
   83SOPE  H12R 7652   2.083   1.916   3.622 -2.1558 -3.3378 -1.3616
   83SOPE  H12S 7653   2.166   2.041   3.526 -1.5703  0.6242  2.8466
   83SOPE  C213 7654   2.295   1.876   3.605  0.0329  0.1092 -0.1493
   83SOPE  H13R 7655   2.375   1.900   3.532 -2.3546  0.3863 -2.8525
   83SOPE  H13S 7656   2.283   1.766   3.607  0.4740  0.0282  2.7218
   83SOPE  C214 7657   2.330   1.934   3.749  1.0609 -0.2191 -0.1263
   83SOPE  H14R 7658   2.313   2.044   3.742  0.5673 -0.3728 -1.6853
   83SOPE  H14S 7659   2.438   1.927   3.774  0.9837  2.9093  1.5290
   83SOPE  C215 7660   2.242   1.870   3.860  0.3239  0.0586 -0.5448
   83SOPE  H15R 7661   2.266   1.762   3.862 -0.6848 -0.1706  2.0670
   83SOPE  H15S 7662   2.136   1.884   3.832  0.2240  2.1396  0.6842
   83SOPE  C216 7663   2.265   1.931   3.993 -0.3412 -0.5697  0.3553
   83SOPE  H16R 7664   2.196   1.891   4.071  0.6647  0.9770  2.1246
   83SOPE  H16S 7665   2.251   2.042   3.989  2.3325 -0.1774  0.0783
   83SOPE  C217 7666   2.403   1.908   4.045 -0.0180  0.6175  0.1747
   83SOPE  H17R 7667   2.489   1.956   3.994  0.4796  0.6270  0.9928
   83SOPE  H17S 7668   2.434   1.802   4.032 -0.1724  0.2769  2.1571
   83SOPE  C218 7669   2.422   1.940   4.196  0.0908 -0.0067 -0.1762
   83SOPE  H18R 7670   2.528   1.933   4.230  0.1343 -0.7429 -0.4496
   83SOPE  H18S 7671   2.375   1.860   4.257 -0.0501  1.0572  1.1906
   83SOPE  H18T 7672   2.383   2.039   4.229  0.8438 -0.3942  2.0391
   83SOPE   C33 7673   2.560   2.355   2.906  0.4223  0.0331 -0.6170
   83SOPE   H3X 7674   2.649   2.420   2.916  0.3316  0.2586 -1.2466
   83SOPE   H3Y 7675   2.602   2.253   2.891  0.9388  0.0341  0.6784
   83SOPE   C34 7676   2.467   2.349   3.034  0.2604  0.7523 -0.3748
   83SOPE   H4X 7677   2.391   2.271   3.010  1.2541 -0.5546  0.5662
   83SOPE   H4Y 7678   2.411   2.441   3.059 -2.8474 -1.3311  1.0053
   83SOPE   C35 7679   2.544   2.285   3.145 -0.4226  0.6884  0.2043
   83SOPE   H5X 7680   2.642   2.338   3.142 -0.3007  0.4312 -1.1527
   83SOPE   H5Y 7681   2.566   2.179   3.121 -1.1855  0.4486  0.5506
   83SOPE   C36 7682   2.476   2.301   3.284  0.2456 -0.3185  0.0464
   83SOPE   H6X 7683   2.376   2.255   3.276 -0.3975  1.1507 -0.6287
   83SOPE   H6Y 7684   2.440   2.406   3.295 -0.9657 -0.7758  0.5438
   83SOPE   C37 7685   2.566   2.269   3.400  0.1510 -0.0241 -0.1571
   83SOPE   H7X 7686   2.668   2.310   3.384 -0.3924  0.7641 -1.8301
   83SOPE   H7Y 7687   2.591   2.161   3.393 -1.3362 -0.4567  0.7339
   83SOPE   C38 7688   2.514   2.309   3.542  0.0719 -0.1800  0.7873
   83SOPE   H8X 7689   2.423   2.250   3.563 -1.1625  1.8227  1.3425
   83SOPE   H8Y 7690   2.483   2.415   3.556  1.8265  0.7194 -1.4273
   83SOPE   C39 7691   2.616   2.270   3.652 -0.9540  0.2610  0.4541
   83SOPE   H9X 7692   2.710   2.318   3.616  0.6380 -2.6076  0.4962
   83SOPE   H9Y 7693   2.631   2.160   3.650 -1.7705  0.1183  1.7390
   83SOPE  C310 7694   2.581   2.308   3.795 -0.8718 -0.3286  0.5812
   83SOPE  H10X 7695   2.493   2.249   3.829 -1.3544 -0.5491 -0.9792
   83SOPE  H10Y 7696   2.565   2.417   3.807 -1.2661  0.1867 -3.3464
   83SOPE  C311 7697   2.687   2.267   3.897 -0.3721  0.4109  0.3596
   83SOPE  H11X 7698   2.786   2.308   3.870  0.0911 -0.9723 -0.0941
   83SOPE  H11Y 7699   2.697   2.157   3.883  1.7837  0.2460  2.5881
   83SOPE  C312 7700   2.644   2.282   4.044 -0.4250 -0.3014  0.4347
   83SOPE  H12X 7701   2.551   2.222   4.052 -1.5910  1.3820  0.0926
   83SOPE  H12Y 7702   2.627   2.390   4.065  2.9170  0.1593  1.4006
   83SOPE  C313 7703   2.747   2.233   4.146  0.7160 -0.2415 -0.0371
   83SOPE  H13X 7704   2.839   2.295   4.154  0.7396 -0.1453 -0.9428
   83SOPE  H13Y 7705   2.779   2.131   4.115 -1.5586 -1.1619  0.4300
   83SOPE  C314 7706   2.699   2.236   4.298 -0.3970  0.2082 -0.6465
   83SOPE  H14X 7707   2.601   2.185   4.306  0.3056 -1.1861 -0.6212
   83SOPE  H14Y 7708   2.703   2.346   4.318  3.4931  0.0003  0.6308
   83SOPE  C315 7709   2.797   2.167   4.395 -0.3572 -0.1467  0.5453
   83SOPE  H15X 7710   2.767   2.169   4.502 -2.3582 -0.0901  0.0296
   83SOPE  H15Y 7711   2.900   2.206   4.384 -0.2322 -1.0409 -2.2999
   83SOPE  C316 7712   2.828   2.017   4.359 -0.3701  0.2051  0.3821
   83SOPE  H16X 7713   2.896   2.010   4.272  1.0458 -0.3057  1.4940
   83SOPE  H16Y 7714   2.734   1.963   4.333  0.5157 -0.7359 -0.9664
   83SOPE  C317 7715   2.916   1.946   4.462  0.2378  0.2301  0.4608
   83SOPE  H17X 7716   2.912   1.837   4.441  1.9775  0.3400 -0.6364
   83SOPE  H17Y 7717   2.862   1.957   4.558 -1.2924  1.4739 -0.5052
   83SOPE  C318 7718   3.061   1.988   4.486 -0.2248 -0.6306 -0.7013
   83SOPE  H18X 7719   3.110   1.905   4.541 -0.1486 -0.3690 -0.3743
   83SOPE  H18Y 7720   3.055   2.075   4.555 -0.5916 -0.0093 -1.5018
   83SOPE  H18Z 7721   3.112   2.005   4.388  0.8493 -2.7600 -0.5591
   84SOPE     N 7722   0.588   0.176   2.512 -0.2977 -0.0426 -0.3589
   84SOPE   HN1 7723   0.567   0.270   2.473 -1.1272 -0.2013 -0.3012
   84SOPE   HN2 7724   0.625   0.184   2.609  0.6338 -1.3542 -0.5723
   84SOPE   HN3 7725   0.660   0.128   2.454  0.9715  2.0015 -0.5653
   84SOPE   C12 7726   0.460   0.090   2.513 -0.4191 -1.4803 -0.6169
   84SOPE  H12A 7727   0.385   0.156   2.561  0.2665 -0.1228 -1.3469
   84SOPE  H12B 7728   0.483   0.002   2.576  0.3644 -0.0750  1.1555
   84SOPE   C11 7729   0.422   0.054   2.368  0.8100  0.0044  0.3160
   84SOPE  H11A 7730   0.344  -0.025   2.374  0.0261  0.6727 -0.7485
   84SOPE  H11B 7731   0.506   0.004   2.314  1.1108  0.4545  0.3635
   84SOPE     P 7732   0.227   0.191   2.271  0.0813  0.3025  0.1102
   84SOPE   O13 7733   0.179   0.092   2.170  0.2496  0.3984 -0.5541
   84SOPE   O14 7734   0.205   0.327   2.230 -0.1328 -0.4638  0.2547
   84SOPE   O12 7735   0.379   0.164   2.293 -0.2102  0.2804 -0.5395
   84SOPE   O11 7736   0.158   0.160   2.411 -0.5379  0.4429  0.1122
   84SOPE    C1 7737   0.022   0.147   2.430 -0.2605 -0.5555  0.0972
   84SOPE    HA 7738  -0.011   0.044   2.405  1.7121 -1.4042  0.7601
   84SOPE    HB 7739  -0.038   0.220   2.372 -0.5304 -1.5281 -0.8747
   84SOPE    C2 7740  -0.022   0.169   2.577 -0.1325  0.2963 -0.3013
   84SOPE    HS 7741   0.026   0.268   2.591  1.4977 -0.0988 -2.4269
   84SOPE   O21 7742   0.026   0.072   2.674 -0.0847 -0.9666  0.5058
   84SOPE   C21 7743   0.142   0.088   2.736 -0.2936 -0.3093 -0.4749
   84SOPE   O22 7744   0.221   0.179   2.731  0.2757  0.2695  0.0143
   84SOPE   C22 7745   0.152  -0.026   2.841  0.0588  0.1706  0.9043
   84SOPE   H2R 7746   0.157  -0.122   2.786  3.1619  0.0883  1.1318
   84SOPE   H2S 7747   0.061  -0.023   2.904 -0.8094 -1.8111 -0.1858
   84SOPE    C3 7748  -0.182   0.179   2.589  0.3110 -0.5510 -0.2604
   84SOPE    HX 7749  -0.222   0.096   2.528 -0.6625 -0.0617 -0.3043
   84SOPE    HY 7750  -0.194   0.279   2.542  2.5718 -0.5024 -0.8447
   84SOPE   O31 7751  -0.210   0.186   2.733  0.4904 -0.3545  0.9458
   84SOPE   C31 7752  -0.297   0.282   2.773 -0.5618 -0.6248  0.3852
   84SOPE   O32 7753  -0.354   0.358   2.696  0.6927  0.1045 -0.1157
   84SOPE   C32 7754  -0.315   0.274   2.922  0.4463  0.3637  0.0979
   84SOPE   H2X 7755  -0.243   0.200   2.963  0.1255 -0.0079 -0.0168
   84SOPE   H2Y 7756  -0.407   0.214   2.931  0.5198  0.3074  0.4944
   84SOPE   C23 7757   0.276  -0.004   2.928  0.4752  0.0957 -0.2523
   84SOPE   H3R 7758   0.289   0.102   2.959  2.5810 -0.6503  1.7163
   84SOPE   H3S 7759   0.373  -0.016   2.876  0.4775 -0.6618 -0.0939
   84SOPE   C24 7760   0.291  -0.092   3.060 -0.0269  0.3718  0.3958
   84SOPE   H4R 7761   0.239  -0.046   3.147  1.6325 -1.5621  2.5449
   84SOPE   H4S 7762   0.258  -0.195   3.036  1.5484  0.0170 -0.3314
   84SOPE   C25 7763   0.434  -0.114   3.100 -0.0622 -0.1308 -0.4585
   84SOPE   H5R 7764   0.493  -0.155   3.015  0.4672 -1.7458  0.6393
   84SOPE   H5S 7765   0.481  -0.019   3.133 -3.2455  1.3680  0.2050
   84SOPE   C26 7766   0.444  -0.216   3.214 -0.5936  0.0641 -0.0744
   84SOPE   H6R 7767   0.381  -0.191   3.302  0.4932  0.5719  0.5802
   84SOPE   H6S 7768   0.403  -0.312   3.175 -0.1227 -0.5002  0.7918
   84SOPE   C27 7769   0.591  -0.247   3.259  0.0175  0.3816  0.1724
   84SOPE   H7R 7770   0.635  -0.256   3.158 -2.0023  0.8731 -0.7929
   84SOPE   H7S 7771   0.632  -0.166   3.324  3.0415 -1.3846  0.6515
   84SOPE   C28 7772   0.612  -0.376   3.346 -0.4216 -0.3595 -0.0492
   84SOPE   H8R 7773   0.528  -0.375   3.418 -0.4802  2.5859 -0.0475
   84SOPE   H8S 7774   0.596  -0.461   3.275  1.2113 -1.2985  0.6520
   84SOPE   C29 7775   0.756  -0.396   3.388 -0.2382 -0.1590  0.1342
   84SOPE   H91 7776   0.835  -0.392   3.311 -0.5904 -2.7624 -0.4303
   84SOPE  C210 7777   0.803  -0.430   3.510 -0.3574  0.1133  0.2075
   84SOPE  H101 7778   0.911  -0.429   3.532 -0.2876  0.1424 -0.1249
   84SOPE  C211 7779   0.721  -0.458   3.631 -0.3512 -0.3982 -0.9414
   84SOPE  H11R 7780   0.741  -0.545   3.697  0.8135 -0.1381 -0.9325
   84SOPE  H11S 7781   0.619  -0.479   3.592 -0.8487  1.0395 -0.4727
   84SOPE  C212 7782   0.706  -0.343   3.737  0.1632 -0.1350  0.3343
   84SOPE  H12R 7783   0.639  -0.374   3.820 -0.5832 -2.5757 -1.0786
   84SOPE  H12S 7784   0.661  -0.259   3.679  0.0708  0.4048  1.1762
   84SOPE  C213 7785   0.842  -0.308   3.796  0.5450 -0.6037 -0.3217
   84SOPE  H13R 7786   0.845  -0.213   3.853  1.1929 -1.3752  0.9677
   84SOPE  H13S 7787   0.920  -0.297   3.717  1.6083  0.1059  0.7978
   84SOPE  C214 7788   0.900  -0.419   3.887 -0.5272 -0.5930 -0.2607
   84SOPE  H14R 7789   0.933  -0.508   3.829  1.7803  0.7554 -1.1649
   84SOPE  H14S 7790   0.826  -0.452   3.963 -0.2636  0.7759  0.6133
   84SOPE  C215 7791   1.017  -0.360   3.968 -0.2181 -1.0128 -0.0357
   84SOPE  H15R 7792   1.051  -0.430   4.047  1.3174  1.0405  1.2241
   84SOPE  H15S 7793   0.989  -0.273   4.032  2.5792  0.5626 -0.8133
   84SOPE  C216 7794   1.141  -0.331   3.877  0.0012  0.5841 -0.5967
   84SOPE  H16R 7795   1.133  -0.251   3.801  1.8479  0.0688 -1.4012
   84SOPE  H16S 7796   1.159  -0.429   3.828  2.5822  0.1396  1.0722
   84SOPE  C217 7797   1.254  -0.285   3.964  0.6526  0.1963  0.2419
   84SOPE  H17R 7798   1.249  -0.342   4.058  0.4900 -0.8400 -0.3819
   84SOPE  H17S 7799   1.252  -0.176   3.988  2.5544  0.6486 -1.3299
   84SOPE  C218 7800   1.394  -0.304   3.900  0.0791  0.2021  0.7482
   84SOPE  H18R 7801   1.393  -0.272   3.794 -0.7050 -0.9370  0.3833
   84SOPE  H18S 7802   1.418  -0.412   3.889  1.5048  0.6591 -1.0835
   84SOPE  H18T 7803   1.472  -0.250   3.958  0.0884  0.9439  0.0565
   84SOPE   C33 7804  -0.338   0.398   3.001  0.0681 -0.0063 -0.3302
   84SOPE   H3X 7805  -0.435   0.438   2.967 -1.9537 -3.5844  0.6827
   84SOPE   H3Y 7806  -0.252   0.469   3.003 -1.1464  1.5015  0.1260
   84SOPE   C34 7807  -0.370   0.366   3.147 -0.7311 -0.4063  0.1367
   84SOPE   H4X 7808  -0.287   0.308   3.192 -1.7241 -1.4642  0.6718
   84SOPE   H4Y 7809  -0.463   0.305   3.142 -0.9030 -0.0651 -1.3167
   84SOPE   C35 7810  -0.388   0.493   3.237 -0.6920  0.1268 -0.5240
   84SOPE   H5X 7811  -0.472   0.554   3.197 -1.1051  0.8228  1.2606
   84SOPE   H5Y 7812  -0.302   0.563   3.223  0.8367 -1.3342  1.0085
   84SOPE   C36 7813  -0.400   0.454   3.389  0.1787 -0.2198  0.7186
   84SOPE   H6X 7814  -0.479   0.375   3.395  0.4697 -0.6788 -0.9476
   84SOPE   H6Y 7815  -0.433   0.538   3.453 -0.4570 -1.2921  1.8608
   84SOPE   C37 7816  -0.271   0.394   3.452 -0.3314  0.1956  0.4697
   84SOPE   H7X 7817  -0.191   0.471   3.445 -0.0504 -0.1854 -0.9764
   84SOPE   H7Y 7818  -0.232   0.304   3.398 -1.9873 -0.1426 -0.2434
   84SOPE   C38 7819  -0.283   0.350   3.600 -0.1466 -0.0114 -0.3126
   84SOPE   H8X 7820  -0.364   0.275   3.611  0.6417 -0.5262  3.5407
   84SOPE   H8Y 7821  -0.314   0.432   3.669 -0.0105 -0.0632 -0.1885
   84SOPE   C39 7822  -0.154   0.285   3.657  0.1942  0.6570  0.3370
   84SOPE   H9X 7823  -0.072   0.357   3.632  1.3947 -1.6027 -2.8731
   84SOPE   H9Y 7824  -0.136   0.197   3.592  1.3380  0.1846  1.2616
   84SOPE  C310 7825  -0.161   0.254   3.806  0.4942 -0.0702  0.6210
   84SOPE  H10X 7826  -0.255   0.199   3.829 -1.3574  1.6647 -2.1665
   84SOPE  H10Y 7827  -0.159   0.351   3.862  1.5587  1.2357 -1.5587
   84SOPE  C311 7828  -0.063   0.151   3.859 -0.1671 -0.7739 -0.2671
   84SOPE  H11X 7829  -0.080   0.049   3.819 -0.8115 -1.9592  2.7281
   84SOPE  H11Y 7830  -0.082   0.140   3.968 -0.8556  0.9583 -0.1933
   84SOPE  C312 7831   0.090   0.169   3.852 -0.4003 -0.0086 -0.7116
   84SOPE  H12X 7832   0.120   0.168   3.745  0.9432 -2.4872 -0.3679
   84SOPE  H12Y 7833   0.144   0.075   3.875  2.7258  2.1471  1.6908
   84SOPE  C313 7834   0.142   0.295   3.927 -0.2670 -0.3143 -0.1879
   84SOPE  H13X 7835   0.067   0.373   3.905 -2.4730 -2.4417 -0.7022
   84SOPE  H13Y 7836   0.247   0.306   3.893 -0.0611 -1.3949  0.0531
   84SOPE  C314 7837   0.154   0.266   4.076 -0.3072  0.5216  0.1798
   84SOPE  H14X 7838   0.241   0.201   4.099  0.3832  1.6587  0.9116
   84SOPE  H14Y 7839   0.063   0.211   4.108  0.2230 -1.2494 -1.1862
   84SOPE  C315 7840   0.172   0.390   4.166 -0.4162  0.2426 -0.7742
   84SOPE  H15X 7841   0.084   0.456   4.155 -3.3792 -2.6474  2.9952
   84SOPE  H15Y 7842   0.267   0.445   4.147 -0.5016  1.2647  1.4779
   84SOPE  C316 7843   0.172   0.357   4.310 -0.0323 -0.1444  0.0272
   84SOPE  H16X 7844   0.088   0.287   4.327  0.2401 -1.8098 -4.3160
   84SOPE  H16Y 7845   0.150   0.449   4.370 -0.6466  0.9908 -1.8493
   84SOPE  C317 7846   0.294   0.281   4.355 -0.6664  0.0689 -0.1098
   84SOPE  H17X 7847   0.312   0.197   4.284 -0.7298  0.8304 -1.0532
   84SOPE  H17Y 7848   0.271   0.237   4.454  0.9079  0.7032  0.5771
   84SOPE  C318 7849   0.432   0.357   4.364 -0.5146 -0.2393 -0.6268
   84SOPE  H18X 7850   0.457   0.408   4.269 -2.0270  1.1392 -0.3076
   84SOPE  H18Y 7851   0.517   0.287   4.383 -0.8432 -0.1073  1.5935
   84SOPE  H18Z 7852   0.431   0.433   4.445  0.6816 -1.7860  0.9269
   85SOPE     N 7853   4.596   2.280   2.244 -0.2417  0.2952  0.0815
   85SOPE   HN1 7854   4.575   2.380   2.261 -0.3985  0.1211  0.9648
   85SOPE   HN2 7855   4.532   2.222   2.302 -2.1710  1.7467 -0.5060
   85SOPE   HN3 7856   4.689   2.268   2.290 -0.1006  0.7044 -0.0873
   85SOPE   C12 7857   4.594   2.246   2.095 -0.2671 -0.0407  0.0388
   85SOPE  H12A 7858   4.507   2.300   2.050  1.0149  0.4401 -1.9841
   85SOPE  H12B 7859   4.593   2.135   2.087  0.5599 -0.2871  2.6622
   85SOPE   C11 7860   4.712   2.305   2.024 -0.7107  0.1293 -0.0784
   85SOPE  H11A 7861   4.717   2.416   2.036  1.4968  0.1116 -0.4361
   85SOPE  H11B 7862   4.699   2.289   1.915 -1.4136  0.0248  0.0192
   85SOPE     P 7863   4.952   2.224   1.991 -0.1985 -0.1465  0.6079
   85SOPE   O13 7864   5.038   2.348   1.984 -0.0477  0.2908 -0.1120
   85SOPE   O14 7865   4.901   2.175   1.861 -0.2605  0.3766  0.3894
   85SOPE   O12 7866   4.828   2.245   2.082 -0.4427  0.0356 -0.4501
   85SOPE   O11 7867   5.019   2.110   2.065 -0.0207  0.3134 -0.2416
   85SOPE    C1 7868   4.966   1.996   2.129  0.0511  0.1541 -0.2167
   85SOPE    HA 7869   5.051   1.938   2.173 -2.2243 -1.9232  1.7494
   85SOPE    HB 7870   4.908   1.930   2.061 -1.7147 -0.2250  1.5594
   85SOPE    C2 7871   4.881   2.023   2.260  0.5228 -0.0802  0.8645
   85SOPE    HS 7872   4.790   2.080   2.231 -0.3604 -1.2192  1.3401
   85SOPE   O21 7873   4.969   2.094   2.355 -0.3556 -0.4615 -0.5967
   85SOPE   C21 7874   4.920   2.194   2.427  0.1262 -1.5275  0.0450
   85SOPE   O22 7875   4.805   2.228   2.429  0.2412 -0.4431  0.6639
   85SOPE   C22 7876   5.037   2.250   2.513  0.3160  0.8968 -0.0964
   85SOPE   H2R 7877   5.103   2.322   2.460 -0.1604  0.2383 -1.6252
   85SOPE   H2S 7878   5.106   2.165   2.531 -0.5085  0.0449 -0.8831
   85SOPE    C3 7879   4.829   1.892   2.312 -0.2659 -0.1280  0.4506
   85SOPE    HX 7880   4.918   1.834   2.345  0.0944 -0.5896 -1.2704
   85SOPE    HY 7881   4.776   1.833   2.234  2.0503 -1.0624 -0.4994
   85SOPE   O31 7882   4.748   1.903   2.434  0.6733 -0.2156 -0.1043
   85SOPE   C31 7883   4.619   1.888   2.415 -0.1231 -0.1443 -0.3067
   85SOPE   O32 7884   4.560   1.881   2.307 -0.0321  0.1105  0.2318
   85SOPE   C32 7885   4.565   1.842   2.554  0.5632  0.4104  1.1192
   85SOPE   H2X 7886   4.513   1.746   2.532  2.8928 -0.7259  0.2840
   85SOPE   H2Y 7887   4.491   1.919   2.587 -2.1358 -1.7305  0.4451
   85SOPE   C23 7888   4.976   2.316   2.642 -0.3042  0.3703 -1.2150
   85SOPE   H3R 7889   4.890   2.387   2.640  0.1472  1.0350  0.5480
   85SOPE   H3S 7890   5.050   2.364   2.710 -2.4444 -0.5231  1.9456
   85SOPE   C24 7891   4.931   2.196   2.734  0.1045 -0.0228 -0.1957
   85SOPE   H4R 7892   4.852   2.140   2.680  0.5486 -1.2396  0.3605
   85SOPE   H4S 7893   5.019   2.131   2.756 -0.1834  0.7710  4.3677
   85SOPE   C25 7894   4.866   2.253   2.862  0.0739 -0.0658 -0.0439
   85SOPE   H5R 7895   4.924   2.345   2.884  0.1414 -0.0671 -0.2218
   85SOPE   H5S 7896   4.760   2.283   2.850  0.1539  0.7734  1.0975
   85SOPE   C26 7897   4.883   2.161   2.986  0.2613  0.1101  0.2518
   85SOPE   H6R 7898   4.817   2.072   2.989  1.0367 -0.4575  0.8525
   85SOPE   H6S 7899   4.988   2.126   2.969 -0.2048 -0.9355 -0.5965
   85SOPE   C27 7900   4.876   2.238   3.116 -0.0202  0.1617 -0.4108
   85SOPE   H7R 7901   4.963   2.306   3.114 -1.1359  1.6684  0.1030
   85SOPE   H7S 7902   4.789   2.308   3.120 -1.0662 -1.0690 -0.8441
   85SOPE   C28 7903   4.891   2.149   3.243 -0.1318  0.0352  0.4167
   85SOPE   H8R 7904   4.827   2.058   3.238 -1.6541  0.9512  2.1069
   85SOPE   H8S 7905   5.000   2.125   3.244 -0.0923 -0.1497 -2.1358
   85SOPE   C29 7906   4.865   2.236   3.362 -0.5459  0.4019 -1.1443
   85SOPE   H91 7907   4.827   2.339   3.350  2.8518  2.2112  1.7255
   85SOPE  C210 7908   4.897   2.191   3.487  0.0370  0.3026 -0.3599
   85SOPE  H101 7909   4.881   2.261   3.570 -0.9531 -0.0188 -0.2679
   85SOPE  C211 7910   4.961   2.061   3.526 -0.3175  0.3403  0.1074
   85SOPE  H11R 7911   4.994   1.982   3.454 -1.4115 -1.5944  1.6337
   85SOPE  H11S 7912   4.875   2.015   3.579 -0.6165  0.0967 -0.5751
   85SOPE  C212 7913   5.075   2.082   3.622 -0.2900  0.6942 -0.0187
   85SOPE  H12R 7914   5.106   1.985   3.667  2.0426  1.3462 -0.1131
   85SOPE  H12S 7915   5.034   2.143   3.705  2.3772  0.0065  1.9016
   85SOPE  C213 7916   5.199   2.154   3.574 -0.2464  0.2597  0.5688
   85SOPE  H13R 7917   5.170   2.253   3.533  2.1571  1.5748  1.7945
   85SOPE  H13S 7918   5.239   2.102   3.485  0.0471  1.4929 -0.0378
   85SOPE  C214 7919   5.321   2.157   3.669  1.4060 -1.0166 -0.1143
   85SOPE  H14R 7920   5.353   2.054   3.695 -0.5109 -1.4864  0.5751
   85SOPE  H14S 7921   5.281   2.194   3.766 -0.7824  0.1308 -1.3793
   85SOPE  C215 7922   5.435   2.235   3.607 -0.3273 -0.2738 -0.2495
   85SOPE  H15R 7923   5.507   2.263   3.687 -1.1808 -0.3416  0.5640
   85SOPE  H15S 7924   5.392   2.329   3.565  2.9388  1.0198 -0.9926
   85SOPE  C216 7925   5.503   2.163   3.484 -0.6175 -0.6839 -0.3534
   85SOPE  H16R 7926   5.576   2.234   3.442 -0.6702 -1.1309 -1.2157
   85SOPE  H16S 7927   5.428   2.129   3.409 -0.9071  0.6067 -0.6766
   85SOPE  C217 7928   5.582   2.033   3.523  0.1813 -0.1991 -0.6070
   85SOPE  H17R 7929   5.519   1.945   3.548  2.6808 -1.3853  2.1146
   85SOPE  H17S 7930   5.643   2.041   3.615  0.3424 -0.4813 -0.6871
   85SOPE  C218 7931   5.660   1.979   3.404 -1.2321  0.7971  0.2329
   85SOPE  H18R 7932   5.702   1.882   3.438 -4.2372 -0.0999  1.7618
   85SOPE  H18S 7933   5.743   2.046   3.371 -0.3951  0.8884  2.3780
   85SOPE  H18T 7934   5.587   1.966   3.321  0.0460 -1.1130 -0.6576
   85SOPE   C33 7935   4.662   1.798   2.661 -1.3245  0.3908  0.4700
   85SOPE   H3X 7936   4.734   1.882   2.660 -2.2013  1.1540  0.3770
   85SOPE   H3Y 7937   4.703   1.699   2.630  0.5206  0.7376  1.6508
   85SOPE   C34 7938   4.598   1.786   2.795 -0.1592  0.1469  0.5298
   85SOPE   H4X 7939   4.528   1.699   2.790 -1.9794  1.6249 -1.0251
   85SOPE   H4Y 7940   4.528   1.870   2.814 -0.1830 -0.4311  3.4384
   85SOPE   C35 7941   4.701   1.785   2.912  0.0841  0.5445 -0.6978
   85SOPE   H5X 7942   4.731   1.892   2.917 -0.7738  0.7309  1.0597
   85SOPE   H5Y 7943   4.783   1.716   2.884  0.4401  0.1992  1.0891
   85SOPE   C36 7944   4.634   1.727   3.036 -0.5151 -0.1924 -0.0720
   85SOPE   H6X 7945   4.592   1.633   2.996  1.5964 -0.7050 -1.2164
   85SOPE   H6Y 7946   4.554   1.800   3.061 -1.9355 -1.6703 -0.1264
   85SOPE   C37 7947   4.739   1.731   3.147 -0.3673 -0.0584  0.5807
   85SOPE   H7X 7948   4.801   1.823   3.154  1.2032 -1.1048  1.1503
   85SOPE   H7Y 7949   4.793   1.634   3.138 -1.5310 -0.5394 -3.5142
   85SOPE   C38 7950   4.676   1.722   3.285  0.9150  0.7100 -0.0993
   85SOPE   H8X 7951   4.608   1.634   3.293 -0.7989  2.0025  0.2143
   85SOPE   H8Y 7952   4.623   1.818   3.302  3.2268  1.7884  1.4896
   85SOPE   C39 7953   4.782   1.711   3.395  0.3818  0.2823  0.0264
   85SOPE   H9X 7954   4.849   1.800   3.394  1.7343 -0.6840 -1.9108
   85SOPE   H9Y 7955   4.851   1.626   3.375 -0.1400 -0.3515  0.8360
   85SOPE  C310 7956   4.717   1.685   3.532  0.3715  0.7344  0.3933
   85SOPE  H10X 7957   4.655   1.594   3.518 -0.4875  1.3016  0.4000
   85SOPE  H10Y 7958   4.646   1.765   3.563 -0.6564 -1.0506  2.9117
   85SOPE  C311 7959   4.815   1.672   3.647  0.1449  0.1064 -0.2529
   85SOPE  H11X 7960   4.876   1.762   3.670 -0.5224  0.9105 -1.4882
   85SOPE  H11Y 7961   4.894   1.594   3.643 -0.0972 -0.3463  2.4224
   85SOPE  C312 7962   4.736   1.652   3.776  0.5979  0.3288 -0.3724
   85SOPE  H12X 7963   4.694   1.550   3.785  1.1623  0.2205  1.2080
   85SOPE  H12Y 7964   4.653   1.725   3.790 -0.0348 -0.2951 -0.7955
   85SOPE  C313 7965   4.823   1.666   3.900  0.0447  0.0606 -0.3604
   85SOPE  H13X 7966   4.865   1.769   3.905 -1.7770  0.8497 -0.4864
   85SOPE  H13Y 7967   4.909   1.597   3.890 -0.1799 -0.2242 -0.3350
   85SOPE  C314 7968   4.743   1.625   4.029 -0.2987  0.5848 -0.2105
   85SOPE  H14X 7969   4.691   1.527   4.022 -0.4235  0.7138 -1.1736
   85SOPE  H14Y 7970   4.670   1.705   4.051  0.1519  1.1654 -0.7786
   85SOPE  C315 7971   4.843   1.604   4.147  0.1620  0.1383 -0.4325
   85SOPE  H15X 7972   4.901   1.699   4.156  1.8311 -0.9324  0.7396
   85SOPE  H15Y 7973   4.927   1.535   4.125 -0.4205 -0.0762 -2.1358
   85SOPE  C316 7974   4.778   1.563   4.270 -0.2518 -0.4753 -0.1360
   85SOPE  H16X 7975   4.762   1.453   4.264 -0.2100 -0.4583 -0.6684
   85SOPE  H16Y 7976   4.693   1.633   4.288  0.3996  0.7430 -1.5404
   85SOPE  C317 7977   4.867   1.577   4.399 -0.8244 -0.1083  0.3235
   85SOPE  H17X 7978   4.962   1.520   4.384  1.0973  3.2783 -1.7963
   85SOPE  H17Y 7979   4.814   1.526   4.482 -0.9003 -1.7144 -0.6573
   85SOPE  C318 7980   4.899   1.724   4.435  0.3961 -0.4022 -0.6198
   85SOPE  H18X 7981   4.981   1.768   4.374  1.0397  0.3870  0.7580
   85SOPE  H18Y 7982   4.933   1.723   4.540  1.5175  0.6505 -0.9539
   85SOPE  H18Z 7983   4.807   1.786   4.425 -1.0392 -2.0560  1.4234
   86SOPE     N 7984   5.932   5.974   2.027 -0.5535 -0.2419 -0.2644
   86SOPE   HN1 7985   5.894   6.044   1.960  0.3116 -0.3528 -0.8826
   86SOPE   HN2 7986   5.910   5.873   2.011 -2.2659 -0.3911  2.3373
   86SOPE   HN3 7987   5.880   5.993   2.116  0.5271  0.1567  0.2959
   86SOPE   C12 7988   6.077   5.998   2.047  0.2865  0.2068 -0.1124
   86SOPE  H12A 7989   6.104   6.099   2.083  2.9515 -1.4137  2.9572
   86SOPE  H12B 7990   6.124   5.988   1.947  0.6970  1.0108 -0.0050
   86SOPE   C11 7991   6.128   5.888   2.151 -0.8586  0.5659  0.1402
   86SOPE  H11A 7992   6.070   5.887   2.246  1.3953 -2.6387  1.6865
   86SOPE  H11B 7993   6.236   5.912   2.161 -1.1267  0.8831  3.4057
   86SOPE     P 7994   6.243   5.668   2.057 -0.1097  0.4987 -0.2532
   86SOPE   O13 7995   6.312   5.740   1.949 -0.2833  0.2863  0.0170
   86SOPE   O14 7996   6.194   5.532   2.025 -0.4874  0.3679 -0.9919
   86SOPE   O12 7997   6.123   5.758   2.096  0.6389  0.4489 -0.1795
   86SOPE   O11 7998   6.332   5.667   2.186  0.0390 -0.2060 -0.4763
   86SOPE    C1 7999   6.307   5.577   2.294  0.3239 -0.7738 -0.0121
   86SOPE    HA 8000   6.402   5.567   2.351  0.7046  0.4966 -0.3977
   86SOPE    HB 8001   6.292   5.475   2.253  0.0861 -0.6741 -0.1712
   86SOPE    C2 8002   6.194   5.622   2.394  0.0947 -0.0771  0.1685
   86SOPE    HS 8003   6.127   5.695   2.344  0.2340  1.4786  2.1343
   86SOPE   O21 8004   6.266   5.686   2.499 -0.1037  0.3492  0.5585
   86SOPE   C21 8005   6.187   5.753   2.582  0.5481  0.0316 -0.4333
   86SOPE   O22 8006   6.071   5.777   2.559 -0.4746 -0.6223  0.4187
   86SOPE   C22 8007   6.267   5.778   2.716  0.6991  1.1606 -0.6888
   86SOPE   H2R 8008   6.372   5.745   2.702  0.7839 -0.2232  2.3435
   86SOPE   H2S 8009   6.228   5.698   2.783  1.8315  1.4253  0.3199
   86SOPE    C3 8010   6.109   5.501   2.440  0.1603 -1.0602  0.3177
   86SOPE    HX 8011   6.068   5.464   2.344 -2.0483 -0.5947  1.0234
   86SOPE    HY 8012   6.027   5.541   2.503  2.3856  2.1815  1.4025
   86SOPE   O31 8013   6.183   5.395   2.500  0.5988 -0.1904  0.3442
   86SOPE   C31 8014   6.198   5.382   2.638  0.8786  0.2137 -0.8739
   86SOPE   O32 8015   6.160   5.468   2.718  0.1206 -0.4677  0.0084
   86SOPE   C32 8016   6.255   5.246   2.683 -0.5496  1.3118  0.7466
   86SOPE   H2X 8017   6.258   5.178   2.595  1.7349  1.8952  0.2989
   86SOPE   H2Y 8018   6.180   5.202   2.752  1.4743 -2.0014  1.0901
   86SOPE   C23 8019   6.256   5.916   2.775  0.2650 -0.2877  0.0221
   86SOPE   H3R 8020   6.152   5.936   2.807  1.3368  3.7817  1.5754
   86SOPE   H3S 8021   6.282   5.984   2.691  2.1523 -2.3164 -1.1672
   86SOPE   C24 8022   6.341   5.933   2.897  0.4505  0.4796 -0.7938
   86SOPE   H4R 8023   6.446   5.896   2.887  0.7411  1.5114 -1.7004
   86SOPE   H4S 8024   6.348   6.040   2.924  3.3869 -0.0745  1.1900
   86SOPE   C25 8025   6.269   5.871   3.018 -0.2011 -0.0958  0.7077
   86SOPE   H5R 8026   6.170   5.917   3.034  0.7522  1.8997  1.2154
   86SOPE   H5S 8027   6.244   5.766   2.991 -0.0714  0.5961 -2.4690
   86SOPE   C26 8028   6.339   5.865   3.151 -0.3515  0.0798  0.8308
   86SOPE   H6R 8029   6.432   5.804   3.145  0.3258  1.1408  0.1294
   86SOPE   H6S 8030   6.374   5.968   3.177  1.2382 -0.1418 -0.2692
   86SOPE   C27 8031   6.248   5.801   3.264 -0.2280 -0.6773  0.6191
   86SOPE   H7R 8032   6.151   5.853   3.270  0.9756  1.8584 -0.3772
   86SOPE   H7S 8033   6.228   5.697   3.230 -1.2223  0.5619 -3.0367
   86SOPE   C28 8034   6.310   5.811   3.408 -0.2260  1.2486 -0.6935
   86SOPE   H8R 8035   6.410   5.762   3.412 -1.7304 -2.1675 -1.1874
   86SOPE   H8S 8036   6.319   5.918   3.433  0.1682  0.7478  1.4892
   86SOPE   C29 8037   6.211   5.732   3.491  0.3725  0.8364 -1.0629
   86SOPE   H91 8038   6.193   5.628   3.460  0.5321  0.0276  1.3586
   86SOPE  C210 8039   6.166   5.764   3.616  0.0193  0.2859  0.1517
   86SOPE  H101 8040   6.098   5.692   3.664  0.5076  0.5397  1.2664
   86SOPE  C211 8041   6.219   5.872   3.709  0.7474  0.4254 -0.3987
   86SOPE  H11R 8042   6.139   5.930   3.759  1.3500 -0.5692  1.8358
   86SOPE  H11S 8043   6.277   5.949   3.654  0.3013  2.5023  1.8663
   86SOPE  C212 8044   6.307   5.802   3.819  0.1884  0.1982  0.2860
   86SOPE  H12R 8045   6.384   5.873   3.855 -2.3943  3.4325 -0.1778
   86SOPE  H12S 8046   6.355   5.711   3.777 -0.8992 -0.4021  0.3033
   86SOPE  C213 8047   6.234   5.757   3.948  0.1650  0.5016 -0.0099
   86SOPE  H13R 8048   6.152   5.683   3.940  0.1623  0.4484  0.4842
   86SOPE  H13S 8049   6.194   5.851   3.993  1.4721 -0.1113  2.6359
   86SOPE  C214 8050   6.334   5.700   4.046 -0.3997  0.7400 -0.0418
   86SOPE  H14R 8051   6.296   5.697   4.151  0.7244 -1.5700  0.3529
   86SOPE  H14S 8052   6.425   5.763   4.053  0.1543 -0.1926  2.1529
   86SOPE  C215 8053   6.371   5.551   4.021 -1.1158 -0.1344  0.0437
   86SOPE  H15R 8054   6.394   5.541   3.913 -1.0482 -0.6728  0.1051
   86SOPE  H15S 8055   6.283   5.487   4.046 -0.4860  0.0465  3.0820
   86SOPE  C216 8056   6.479   5.511   4.123 -0.9696  0.2736 -0.2454
   86SOPE  H16R 8057   6.557   5.590   4.116 -2.4669  1.8030 -0.3287
   86SOPE  H16S 8058   6.512   5.407   4.104 -2.4963 -0.1719 -0.6261
   86SOPE  C217 8059   6.446   5.507   4.274 -0.3439  0.6981  0.6248
   86SOPE  H17R 8060   6.361   5.436   4.285 -1.2329  1.8258  1.3407
   86SOPE  H17S 8061   6.399   5.602   4.309  0.6609  2.8244 -3.1765
   86SOPE  C218 8062   6.564   5.468   4.360 -0.2179  0.1384  0.3605
   86SOPE  H18R 8063   6.532   5.487   4.464  1.5860  1.8166  0.6583
   86SOPE  H18S 8064   6.655   5.521   4.326 -0.4636  0.7245  0.6113
   86SOPE  H18T 8065   6.586   5.359   4.349  0.6351  0.2625  0.8054
   86SOPE   C33 8066   6.398   5.265   2.748  0.0522 -0.2310 -0.2966
   86SOPE   H3X 8067   6.463   5.324   2.679 -0.7106 -0.0199 -0.8440
   86SOPE   H3Y 8068   6.444   5.165   2.762 -2.5211 -1.3046  1.1989
   86SOPE   C34 8069   6.380   5.334   2.886 -0.5554  0.4026  0.0418
   86SOPE   H4X 8070   6.360   5.442   2.871  1.0637  0.7938  0.4069
   86SOPE   H4Y 8071   6.481   5.338   2.933 -0.6839  2.0530  0.2488
   86SOPE   C35 8072   6.286   5.268   2.977 -0.1724 -0.0089 -0.3387
   86SOPE   H5X 8073   6.182   5.295   2.949 -0.5736 -1.0714  0.0648
   86SOPE   H5Y 8074   6.291   5.320   3.075 -0.4726  1.6661 -1.1829
   86SOPE   C36 8075   6.299   5.120   3.007 -0.1035 -0.7465 -0.5187
   86SOPE   H6X 8076   6.276   5.062   2.916  2.5837 -1.0564 -1.0826
   86SOPE   H6Y 8077   6.227   5.092   3.087  2.6090 -1.4458  1.8654
   86SOPE   C37 8078   6.440   5.075   3.057  0.1677 -0.8359  0.0221
   86SOPE   H7X 8079   6.454   5.136   3.149 -1.1820 -0.7536  0.1964
   86SOPE   H7Y 8080   6.521   5.107   2.988  0.1196  0.7290  0.6506
   86SOPE   C38 8081   6.446   4.933   3.091 -0.5110  0.6056 -0.0959
   86SOPE   H8X 8082   6.539   4.882   3.056 -0.7846  0.2853 -0.3654
   86SOPE   H8Y 8083   6.365   4.878   3.038 -1.5118  3.2615 -1.5008
   86SOPE   C39 8084   6.436   4.894   3.240  0.7395  0.3774  0.0664
   86SOPE   H9X 8085   6.419   4.786   3.254 -1.1972  0.5761 -0.4734
   86SOPE   H9Y 8086   6.348   4.940   3.290 -1.1434 -1.9340 -0.9681
   86SOPE  C310 8087   6.563   4.920   3.321 -0.6910  0.0136 -0.9690
   86SOPE  H10X 8088   6.588   5.028   3.322  1.3117 -0.4107 -0.4494
   86SOPE  H10Y 8089   6.654   4.880   3.271 -1.7149 -0.4112 -2.5849
   86SOPE  C311 8090   6.550   4.867   3.468 -0.2853  0.1314 -0.3969
   86SOPE  H11X 8091   6.510   4.763   3.471 -2.1258  0.8295  2.1922
   86SOPE  H11Y 8092   6.464   4.922   3.512 -0.6403  0.6534 -1.6899
   86SOPE  C312 8093   6.674   4.891   3.555 -0.1187 -0.3850 -0.6114
   86SOPE  H12X 8094   6.706   4.993   3.525  0.4697 -0.0123  1.1560
   86SOPE  H12Y 8095   6.748   4.809   3.537  0.9915  1.1362 -3.7105
   86SOPE  C313 8096   6.644   4.895   3.707 -0.5148  0.2119 -1.0967
   86SOPE  H13X 8097   6.645   4.787   3.732  0.3619  0.8318  2.0428
   86SOPE  H13Y 8098   6.550   4.949   3.733 -0.6374 -0.2232 -0.6015
   86SOPE  C314 8099   6.746   4.981   3.787  0.1157 -0.4597 -0.0469
   86SOPE  H14X 8100   6.733   5.087   3.757  1.4438  0.0258  1.0105
   86SOPE  H14Y 8101   6.852   4.961   3.760  0.7593  1.4005  0.9465
   86SOPE  C315 8102   6.725   4.961   3.938 -0.5041 -0.5975 -0.3215
   86SOPE  H15X 8103   6.813   5.012   3.982 -0.9287  1.4589 -1.7122
   86SOPE  H15Y 8104   6.745   4.854   3.961  0.0233 -0.3587  0.3602
   86SOPE  C316 8105   6.599   5.016   4.003  0.2114  0.1204  0.4234
   86SOPE  H16X 8106   6.519   4.945   3.975  1.5084 -0.7803 -1.1536
   86SOPE  H16Y 8107   6.571   5.119   3.972  2.7192  0.3834 -1.2528
   86SOPE  C317 8108   6.615   5.015   4.154  0.5082  0.2022 -0.6023
   86SOPE  H17X 8109   6.704   5.072   4.187  0.8988 -1.5006  1.5909
   86SOPE  H17Y 8110   6.646   4.914   4.191  2.1864  0.5363 -1.0122
   86SOPE  C318 8111   6.486   5.041   4.221  0.1803 -0.1833 -0.4232
   86SOPE  H18X 8112   6.495   5.010   4.328  2.7039  1.0493 -0.1875
   86SOPE  H18Y 8113   6.399   4.984   4.183  0.6268 -2.3450  1.5278
   86SOPE  H18Z 8114   6.466   5.150   4.217  1.2275  0.1595  1.8064
   87SOPE     N 8115   6.701   6.477   2.040 -0.2192  0.1882  0.0285
   87SOPE   HN1 8116   6.619   6.415   2.057 -0.4607  0.5561  0.2255
   87SOPE   HN2 8117   6.679   6.561   2.096  0.1415 -1.7633  3.3910
   87SOPE   HN3 8118   6.704   6.511   1.942 -1.1159 -0.0517 -0.0892
   87SOPE   C12 8119   6.833   6.408   2.074 -0.7834  0.2482 -0.2608
   87SOPE  H12A 8120   6.905   6.486   2.106 -0.1520 -0.2329 -0.4925
   87SOPE  H12B 8121   6.857   6.350   1.983 -0.6202 -0.4443  0.2200
   87SOPE   C11 8122   6.817   6.303   2.188 -0.3231  0.4479 -1.0450
   87SOPE  H11A 8123   6.787   6.353   2.283  0.6942  0.1588 -0.5632
   87SOPE  H11B 8124   6.914   6.252   2.201 -0.6198  0.3924  1.5050
   87SOPE     P 8125   6.577   6.206   2.192 -0.4585 -0.0126  0.0470
   87SOPE   O13 8126   6.522   6.072   2.186 -0.8862  0.3404 -0.2536
   87SOPE   O14 8127   6.513   6.310   2.108 -0.5260  0.3694 -0.4720
   87SOPE   O12 8128   6.720   6.201   2.147 -0.3515  0.0041  0.6039
   87SOPE   O11 8129   6.580   6.265   2.339  0.1251 -0.4511  0.0844
   87SOPE    C1 8130   6.612   6.180   2.454 -0.0299 -0.9776  0.7053
   87SOPE    HA 8131   6.723   6.174   2.461  0.0457 -0.1207  0.3728
   87SOPE    HB 8132   6.569   6.079   2.440 -2.5362  0.0980  0.1016
   87SOPE    C2 8133   6.557   6.254   2.582  0.0385  0.0790  0.1463
   87SOPE    HS 8134   6.615   6.348   2.591 -1.0630  0.6916  1.0742
   87SOPE   O21 8135   6.579   6.171   2.690 -0.0624 -0.3745  0.0938
   87SOPE   C21 8136   6.705   6.177   2.737  1.3604 -0.6625  0.0942
   87SOPE   O22 8137   6.795   6.245   2.695  0.6684  0.6203  0.3221
   87SOPE   C22 8138   6.712   6.079   2.857 -0.0362  0.3434 -0.5658
   87SOPE   H2R 8139   6.802   6.014   2.847  0.1545  0.4877  0.1204
   87SOPE   H2S 8140   6.621   6.015   2.860 -0.0360  0.3522 -0.3424
   87SOPE    C3 8141   6.404   6.280   2.561 -0.0813 -0.0968  0.0701
   87SOPE    HX 8142   6.359   6.180   2.578 -0.8037  0.0879 -0.6949
   87SOPE    HY 8143   6.378   6.310   2.458  0.9755 -1.0238 -0.4902
   87SOPE   O31 8144   6.357   6.373   2.656 -0.2845 -0.1001  0.4399
   87SOPE   C31 8145   6.230   6.363   2.692  0.2093  0.1408  0.5887
   87SOPE   O32 8146   6.158   6.273   2.657 -0.3162  0.2446  0.0697
   87SOPE   C32 8147   6.193   6.482   2.782 -0.2814  0.4962  0.0062
   87SOPE   H2X 8148   6.083   6.481   2.788 -0.3211 -0.3131 -0.5880
   87SOPE   H2Y 8149   6.240   6.566   2.727  1.0156 -0.3582 -0.2514
   87SOPE   C23 8150   6.729   6.163   2.984  0.3173 -0.1897  0.0876
   87SOPE   H3R 8151   6.653   6.243   2.993  0.4865  0.2603 -2.0462
   87SOPE   H3S 8152   6.822   6.222   2.989  0.0397  0.5766 -2.4033
   87SOPE   C24 8153   6.713   6.067   3.103 -0.4808 -0.3684 -0.4038
   87SOPE   H4R 8154   6.614   6.016   3.097 -0.7444 -0.0495  1.0703
   87SOPE   H4S 8155   6.796   5.993   3.102 -0.1301  0.0120  0.1341
   87SOPE   C25 8156   6.722   6.140   3.234  0.5706  0.6334  0.1382
   87SOPE   H5R 8157   6.824   6.184   3.243  1.6511 -1.8998  1.2793
   87SOPE   H5S 8158   6.648   6.223   3.228  0.3636  0.5851  1.6891
   87SOPE   C26 8159   6.685   6.035   3.336  0.3470 -0.2667 -0.4000
   87SOPE   H6R 8160   6.586   5.996   3.304  0.9284  0.2912 -3.0887
   87SOPE   H6S 8161   6.767   5.961   3.339  0.0021 -0.6326  1.1641
   87SOPE   C27 8162   6.678   6.103   3.475 -0.2932 -0.1160  0.2117
   87SOPE   H7R 8163   6.777   6.131   3.517  0.5632 -0.3610 -1.5535
   87SOPE   H7S 8164   6.621   6.194   3.446 -4.3341 -2.2152  0.8463
   87SOPE   C28 8165   6.592   6.033   3.579 -0.3926  0.9319  0.3692
   87SOPE   H8R 8166   6.590   6.098   3.668  0.3006  0.9641  0.3653
   87SOPE   H8S 8167   6.487   6.019   3.544 -0.2233 -1.1493  0.5711
   87SOPE   C29 8168   6.665   5.903   3.611 -0.0268  0.9782  0.4275
   87SOPE   H91 8169   6.637   5.820   3.544 -0.1208  1.7182 -0.4702
   87SOPE  C210 8170   6.753   5.883   3.716  0.2566 -0.8831  0.2642
   87SOPE  H101 8171   6.784   5.782   3.747 -1.1816 -1.3717  0.1721
   87SOPE  C211 8172   6.788   5.986   3.813 -0.4731  0.0985 -0.3623
   87SOPE  H11R 8173   6.714   6.067   3.835 -0.0066  0.1708  1.0455
   87SOPE  H11S 8174   6.878   6.041   3.779 -0.8356  0.0849 -1.3566
   87SOPE  C212 8175   6.818   5.926   3.954  0.2500 -0.0258  0.0149
   87SOPE  H12R 8176   6.749   5.844   3.981  0.5754 -0.6939 -1.1292
   87SOPE  H12S 8177   6.800   6.012   4.022 -0.5069  0.6598 -1.0213
   87SOPE  C213 8178   6.968   5.881   3.974  0.0864 -0.5015  0.2880
   87SOPE  H13R 8179   7.043   5.962   3.980  0.2472 -0.7458  3.2299
   87SOPE  H13S 8180   7.011   5.819   3.893  1.5001  0.7471  0.0272
   87SOPE  C214 8181   6.988   5.797   4.098  0.8857  0.2491 -0.0084
   87SOPE  H14R 8182   6.918   5.711   4.101  0.6714  0.3649 -1.2433
   87SOPE  H14S 8183   6.963   5.862   4.184 -0.0100  0.8698 -0.7300
   87SOPE  C215 8184   7.131   5.745   4.117  0.1787 -0.1740  0.0553
   87SOPE  H15R 8185   7.201   5.831   4.130 -2.5860  2.2642  0.0044
   87SOPE  H15S 8186   7.166   5.701   4.022  0.0955  0.3326 -0.2141
   87SOPE  C216 8187   7.160   5.657   4.237 -0.0743  0.2583 -0.6088
   87SOPE  H16R 8188   7.093   5.569   4.246  0.8358 -0.4260 -0.3959
   87SOPE  H16S 8189   7.146   5.705   4.336  2.6293 -2.1684  1.1040
   87SOPE  C217 8190   7.304   5.610   4.220 -0.1937  0.6058 -0.2300
   87SOPE  H17R 8191   7.376   5.693   4.233 -1.0096  1.0591  1.6911
   87SOPE  H17S 8192   7.328   5.565   4.121 -0.8342 -1.1587  0.3822
   87SOPE  C218 8193   7.349   5.505   4.329  0.3679 -0.8142  0.3304
   87SOPE  H18R 8194   7.321   5.539   4.431 -2.3885 -0.9277 -0.3273
   87SOPE  H18S 8195   7.459   5.498   4.311  0.4100  1.6742 -0.7676
   87SOPE  H18T 8196   7.288   5.416   4.304 -0.1934 -0.6730  1.1566
   87SOPE   C33 8197   6.267   6.482   2.915  0.1677 -0.0497 -0.6067
   87SOPE   H3X 8198   6.236   6.576   2.964  0.9092  0.0007 -0.2197
   87SOPE   H3Y 8199   6.377   6.490   2.902  0.2481 -0.0522  0.0498
   87SOPE   C34 8200   6.237   6.360   3.009  0.6995  0.7327 -0.3164
   87SOPE   H4X 8201   6.274   6.269   2.956  0.4908 -0.1276  0.9610
   87SOPE   H4Y 8202   6.128   6.340   3.022  0.8021  0.1673 -0.2974
   87SOPE   C35 8203   6.302   6.372   3.144 -0.2354  0.5372  0.3413
   87SOPE   H5X 8204   6.304   6.473   3.190 -0.6437  1.0653 -0.7760
   87SOPE   H5Y 8205   6.407   6.336   3.141 -1.6405 -4.1545 -1.4553
   87SOPE   C36 8206   6.230   6.283   3.252  0.6781  0.3920 -0.1821
   87SOPE   H6X 8207   6.228   6.174   3.227 -1.4942  0.2169  0.5692
   87SOPE   H6Y 8208   6.122   6.308   3.246  0.4921 -0.6896 -2.2056
   87SOPE   C37 8209   6.270   6.310   3.398 -0.6479  0.6970  0.0211
   87SOPE   H7X 8210   6.327   6.405   3.404  1.8722 -0.6263 -1.4322
   87SOPE   H7Y 8211   6.335   6.227   3.431  0.1196  0.8230 -1.1229
   87SOPE   C38 8212   6.148   6.324   3.488  0.2295  0.5624 -0.2618
   87SOPE   H8X 8213   6.086   6.232   3.484 -0.7887  1.2633 -1.8636
   87SOPE   H8Y 8214   6.083   6.405   3.446 -0.0448  1.4091  1.6505
   87SOPE   C39 8215   6.181   6.362   3.634 -0.0879  0.5252  1.0350
   87SOPE   H9X 8216   6.093   6.387   3.697  0.2232  1.0634  1.2648
   87SOPE   H9Y 8217   6.240   6.456   3.623  1.3183 -0.3766  0.6063
   87SOPE  C310 8218   6.260   6.258   3.707 -0.1090 -0.4477  0.1400
   87SOPE  H10X 8219   6.356   6.244   3.652  0.4743 -0.1375  1.0497
   87SOPE  H10Y 8220   6.209   6.161   3.693 -1.2015  0.3942 -2.5155
   87SOPE  C311 8221   6.286   6.319   3.855  0.1704  0.9938 -0.3504
   87SOPE  H11X 8222   6.190   6.336   3.909  0.4218 -1.2311  0.8779
   87SOPE  H11Y 8223   6.347   6.412   3.848  0.9902  0.6722  1.8802
   87SOPE  C312 8224   6.370   6.220   3.939 -0.9561  0.8476 -0.2261
   87SOPE  H12X 8225   6.479   6.232   3.917 -0.8055  2.8195  1.3672
   87SOPE  H12Y 8226   6.352   6.113   3.913  2.2941 -0.0892  0.9010
   87SOPE  C313 8227   6.338   6.217   4.093 -0.5047  0.3213 -0.8722
   87SOPE  H13X 8228   6.434   6.184   4.138 -0.2699  0.6811 -1.0970
   87SOPE  H13Y 8229   6.249   6.154   4.113  0.9279 -0.7212  3.3648
   87SOPE  C314 8230   6.317   6.350   4.164  0.3670  0.2996  0.3466
   87SOPE  H14X 8231   6.218   6.388   4.132 -0.3476 -1.5573  0.2753
   87SOPE  H14Y 8232   6.393   6.426   4.134 -1.2038  2.6164  1.8379
   87SOPE  C315 8233   6.326   6.334   4.317  0.1137 -0.3650 -0.4749
   87SOPE  H15X 8234   6.424   6.285   4.331 -0.5785 -1.2899  1.5830
   87SOPE  H15Y 8235   6.241   6.270   4.350  0.9327 -1.0467  0.3431
   87SOPE  C316 8236   6.305   6.467   4.402 -0.9208  0.1500  0.2092
   87SOPE  H16X 8237   6.284   6.444   4.509  1.2225  1.4711  0.9932
   87SOPE  H16Y 8238   6.219   6.528   4.365 -0.3176  1.1545  0.4119
   87SOPE  C317 8239   6.430   6.555   4.395 -0.1038  0.2260 -0.3969
   87SOPE  H17X 8240   6.409   6.659   4.429  0.9189  0.1327  0.5893
   87SOPE  H17Y 8241   6.465   6.571   4.292 -0.1182  2.5418 -0.0837
   87SOPE  C318 8242   6.548   6.501   4.476  0.0693  0.1405  0.1808
   87SOPE  H18X 8243   6.502   6.452   4.565 -2.6978  2.0916 -0.0632
   87SOPE  H18Y 8244   6.612   6.584   4.513  1.7946 -1.8323  1.9443
   87SOPE  H18Z 8245   6.602   6.422   4.420  0.0325 -0.8276  1.4406
   88SOPE     N 8246   1.437   5.191   2.124  0.1512  0.4160 -0.1960
   88SOPE   HN1 8247   1.425   5.283   2.076 -0.9892  0.1625 -0.4319
   88SOPE   HN2 8248   1.523   5.146   2.087  1.6062  0.0034  3.2540
   88SOPE   HN3 8249   1.359   5.123   2.112 -0.5811  1.2089 -0.0844
   88SOPE   C12 8250   1.475   5.217   2.269 -0.3237  0.2085 -0.0544
   88SOPE  H12A 8251   1.399   5.262   2.336 -0.1933 -0.0915  0.2922
   88SOPE  H12B 8252   1.565   5.282   2.261  0.7286 -1.2856 -0.8588
   88SOPE   C11 8253   1.513   5.083   2.335 -0.0467 -0.6333 -0.8839
   88SOPE  H11A 8254   1.427   5.023   2.370  1.7686 -2.0634  1.4454
   88SOPE  H11B 8255   1.565   5.111   2.429  0.4540  0.5819 -1.4944
   88SOPE     P 8256   1.563   4.846   2.230 -0.1309 -0.0204 -0.3788
   88SOPE   O13 8257   1.617   4.818   2.093  0.2742  0.0908 -0.2296
   88SOPE   O14 8258   1.423   4.809   2.258 -0.0070 -0.0788 -0.4252
   88SOPE   O12 8259   1.591   4.997   2.251 -0.1741  0.4298 -0.2783
   88SOPE   O11 8260   1.658   4.783   2.328 -0.3804 -0.5249 -0.0879
   88SOPE    C1 8261   1.722   4.836   2.453 -0.5591  0.1524 -0.2802
   88SOPE    HA 8262   1.650   4.908   2.498 -0.1422  2.1182 -2.5082
   88SOPE    HB 8263   1.812   4.900   2.441  1.0563 -2.0477 -0.4424
   88SOPE    C2 8264   1.729   4.717   2.558 -0.0624  1.2209  0.6311
   88SOPE    HS 8265   1.812   4.648   2.531 -0.6075 -0.2393  2.5127
   88SOPE   O21 8266   1.603   4.652   2.582 -0.0648  0.8240 -0.4312
   88SOPE   C21 8267   1.608   4.517   2.586 -0.6791 -0.8000  0.3095
   88SOPE   O22 8268   1.715   4.460   2.588 -0.0644  0.0044 -0.0466
   88SOPE   C22 8269   1.474   4.452   2.589 -0.0323 -0.4174  0.0107
   88SOPE   H2R 8270   1.482   4.341   2.593  1.1593 -0.3352  0.4446
   88SOPE   H2S 8271   1.416   4.483   2.499 -0.4785  0.3970  0.5686
   88SOPE    C3 8272   1.775   4.759   2.697  0.3025  0.7049 -0.2238
   88SOPE    HX 8273   1.704   4.839   2.730  0.9845  1.8346 -1.4256
   88SOPE    HY 8274   1.876   4.804   2.695 -0.2285  1.9126 -1.1765
   88SOPE   O31 8275   1.766   4.652   2.799  0.2035  0.0942 -0.2022
   88SOPE   C31 8276   1.881   4.592   2.824 -1.2321  0.2822  0.2853
   88SOPE   O32 8277   1.985   4.614   2.765 -0.1047 -0.0510  0.3332
   88SOPE   C32 8278   1.856   4.480   2.922 -0.6791  0.1175  0.0883
   88SOPE   H2X 8279   1.952   4.426   2.935 -0.3710  0.1118 -1.8548
   88SOPE   H2Y 8280   1.777   4.414   2.881 -0.5226  1.7214 -3.1038
   88SOPE   C23 8281   1.375   4.507   2.702  0.4226  0.2280 -0.1672
   88SOPE   H3R 8282   1.282   4.455   2.671  0.6643  0.0010 -0.5128
   88SOPE   H3S 8283   1.365   4.617   2.692  0.8567  0.1353 -1.9348
   88SOPE   C24 8284   1.413   4.465   2.836  0.1461  0.4762 -0.3859
   88SOPE   H4R 8285   1.427   4.355   2.840  0.5245  0.5145 -0.5902
   88SOPE   H4S 8286   1.512   4.508   2.864 -0.1552  1.8182 -1.2894
   88SOPE   C25 8287   1.316   4.517   2.947  0.1422  0.0442  0.0276
   88SOPE   H5R 8288   1.310   4.628   2.944  1.4480  0.1214 -0.8626
   88SOPE   H5S 8289   1.215   4.476   2.927 -0.5447  1.9838 -0.7728
   88SOPE   C26 8290   1.371   4.479   3.092 -0.3522 -0.2788  0.2438
   88SOPE   H6R 8291   1.370   4.369   3.106  4.2889 -0.3708  1.4614
   88SOPE   H6S 8292   1.478   4.510   3.094 -0.2212 -0.7877  2.2219
   88SOPE   C27 8293   1.298   4.557   3.203  0.1567  0.3263 -0.9324
   88SOPE   H7R 8294   1.276   4.665   3.188 -0.5446  0.7711  2.4333
   88SOPE   H7S 8295   1.194   4.517   3.197  0.2399  0.3125 -3.1595
   88SOPE   C28 8296   1.353   4.520   3.334  0.1398  0.5135  0.0053
   88SOPE   H8R 8297   1.357   4.411   3.354 -0.7821  0.8295  2.2568
   88SOPE   H8S 8298   1.462   4.542   3.329  0.4978 -0.8693  1.1687
   88SOPE   C29 8299   1.283   4.594   3.443 -0.2765 -0.5051 -0.7113
   88SOPE   H91 8300   1.187   4.638   3.410 -0.5492  0.5499  1.3502
   88SOPE  C210 8301   1.339   4.628   3.564  0.2412  0.5586  0.4980
   88SOPE  H101 8302   1.285   4.680   3.644  0.9345 -0.3312  1.5625
   88SOPE  C211 8303   1.480   4.605   3.613 -0.2745  0.0098  0.0622
   88SOPE  H11R 8304   1.501   4.691   3.680 -0.6603 -2.0001  2.9674
   88SOPE  H11S 8305   1.561   4.612   3.537  0.9358 -0.8073  1.2160
   88SOPE  C212 8306   1.476   4.482   3.692 -0.8848  0.1043 -0.5176
   88SOPE  H12R 8307   1.580   4.451   3.714 -1.9013 -2.6127  0.9963
   88SOPE  H12S 8308   1.439   4.405   3.621  0.2969  1.1747 -2.3847
   88SOPE  C213 8309   1.426   4.491   3.837  0.4212  0.1850  0.3721
   88SOPE  H13R 8310   1.316   4.476   3.827  0.5984  0.0492 -1.7053
   88SOPE  H13S 8311   1.443   4.595   3.872 -1.4807  1.0638 -1.0928
   88SOPE  C214 8312   1.474   4.379   3.933  0.7300 -1.2511 -0.0282
   88SOPE  H14R 8313   1.579   4.398   3.962  0.5741 -0.9765  0.3682
   88SOPE  H14S 8314   1.484   4.284   3.877  1.0064  0.0823 -2.3766
   88SOPE  C215 8315   1.374   4.367   4.050 -0.3135  0.0404 -0.7883
   88SOPE  H15R 8316   1.278   4.320   4.018 -0.3275 -0.8370  0.4613
   88SOPE  H15S 8317   1.351   4.469   4.086  0.0974 -0.1318 -0.0312
   88SOPE  C216 8318   1.427   4.293   4.174 -0.1932 -0.7936 -0.1216
   88SOPE  H16R 8319   1.506   4.349   4.229 -1.6181 -1.5605  2.9205
   88SOPE  H16S 8320   1.467   4.192   4.150  1.8584  0.3534 -1.8760
   88SOPE  C217 8321   1.326   4.277   4.289 -0.2795  0.1244  0.5636
   88SOPE  H17R 8322   1.231   4.231   4.256  0.4000 -1.7882  1.1727
   88SOPE  H17S 8323   1.292   4.378   4.322 -0.5975  0.2218 -0.0484
   88SOPE  C218 8324   1.399   4.195   4.401 -0.3900 -0.2765 -0.8548
   88SOPE  H18R 8325   1.331   4.170   4.485 -2.2394 -0.7163 -2.4154
   88SOPE  H18S 8326   1.473   4.266   4.443 -1.0987  0.1519 -0.2981
   88SOPE  H18T 8327   1.432   4.095   4.367  1.8701 -1.0832  3.1037
   88SOPE   C33 8328   1.797   4.546   3.049  0.9144  0.7589 -1.0133
   88SOPE   H3X 8329   1.694   4.585   3.034  1.5750  3.0698  0.0002
   88SOPE   H3Y 8330   1.855   4.635   3.079  0.7935  0.2891  0.7090
   88SOPE   C34 8331   1.793   4.444   3.171 -0.3270  0.5038 -1.0019
   88SOPE   H4X 8332   1.721   4.366   3.142 -0.9038  0.8170 -0.4400
   88SOPE   H4Y 8333   1.756   4.496   3.262 -0.1807  2.1960 -1.8598
   88SOPE   C35 8334   1.926   4.386   3.214 -0.1590 -0.1636 -0.2254
   88SOPE   H5X 8335   2.016   4.430   3.165  1.5256 -1.0955  1.8497
   88SOPE   H5Y 8336   1.917   4.281   3.177 -0.0960  0.0897 -0.9736
   88SOPE   C36 8337   1.951   4.396   3.364 -0.4940  0.1326 -0.4335
   88SOPE   H6X 8338   1.951   4.505   3.384 -0.4529 -0.0045  0.3310
   88SOPE   H6Y 8339   2.045   4.346   3.394 -1.1114 -1.7646 -1.4976
   88SOPE   C37 8340   1.848   4.335   3.467 -0.2268  0.4580  0.1236
   88SOPE   H7X 8341   1.826   4.231   3.437  3.2667 -0.7378  1.2180
   88SOPE   H7Y 8342   1.752   4.391   3.462 -0.3563  0.1311 -2.1228
   88SOPE   C38 8343   1.902   4.331   3.615 -0.2436 -0.7878 -0.0617
   88SOPE   H8X 8344   1.911   4.438   3.644 -1.3894 -0.2593 -1.5167
   88SOPE   H8Y 8345   2.009   4.304   3.605 -0.0718 -0.6038  1.1401
   88SOPE   C39 8346   1.831   4.237   3.714  0.4804  0.2556 -0.0692
   88SOPE   H9X 8347   1.817   4.139   3.664  1.8791  0.5577 -1.1248
   88SOPE   H9Y 8348   1.733   4.281   3.743  1.2965  0.6870  2.2478
   88SOPE  C310 8349   1.911   4.208   3.842  0.2326  0.0808  0.6888
   88SOPE  H10X 8350   1.997   4.143   3.813  0.0325 -0.8842  2.1592
   88SOPE  H10Y 8351   1.850   4.139   3.904  1.0277 -0.4072  0.9378
   88SOPE  C311 8352   1.951   4.323   3.931  0.1550  0.2005 -0.6597
   88SOPE  H11X 8353   1.864   4.384   3.962 -0.1623 -1.5864  2.3436
   88SOPE  H11Y 8354   2.026   4.391   3.884  1.1766  0.6933  1.5246
   88SOPE  C312 8355   1.999   4.271   4.067  0.2751 -0.0366 -0.8408
   88SOPE  H12X 8356   2.083   4.206   4.037  0.3769  0.5616 -1.8696
   88SOPE  H12Y 8357   1.922   4.208   4.117  0.7857  0.1130  0.1774
   88SOPE  C313 8358   2.054   4.381   4.159  0.1644  0.5095  0.5342
   88SOPE  H13X 8359   2.130   4.440   4.103 -0.1142  0.6028  0.2499
   88SOPE  H13Y 8360   2.101   4.330   4.246  1.6037  2.6705  1.1029
   88SOPE  C314 8361   1.942   4.469   4.212 -0.2515 -0.0993 -0.5344
   88SOPE  H14X 8362   1.865   4.398   4.250 -0.7928  1.4566  1.4196
   88SOPE  H14Y 8363   1.901   4.537   4.134 -0.3080 -0.6470 -0.9886
   88SOPE  C315 8364   1.984   4.549   4.334  0.2789  0.6331  0.0143
   88SOPE  H15X 8365   2.055   4.490   4.396  0.3740  0.5528 -0.1686
   88SOPE  H15Y 8366   1.891   4.574   4.389 -2.6471  2.4318 -5.0667
   88SOPE  C316 8367   2.035   4.688   4.307 -0.6674 -1.5204 -0.0124
   88SOPE  H16X 8368   1.966   4.730   4.230 -0.3873 -0.6680  0.1936
   88SOPE  H16Y 8369   2.135   4.670   4.262  0.1802 -0.8871  1.5444
   88SOPE  C317 8370   2.054   4.783   4.428 -0.3052  0.1709  0.1483
   88SOPE  H17X 8371   2.111   4.734   4.510 -1.5770  0.6664  1.3851
   88SOPE  H17Y 8372   1.956   4.822   4.465  1.1187 -0.1099  4.9897
   88SOPE  C318 8373   2.130   4.912   4.384 -0.1263  0.4851  0.2404
   88SOPE  H18X 8374   2.110   4.984   4.467 -0.9229  0.5148  0.0294
   88SOPE  H18Y 8375   2.099   4.969   4.294 -2.9070 -0.1885  0.6769
   88SOPE  H18Z 8376   2.238   4.891   4.373 -0.1462  0.3964  0.2128
   89SAPC     N 8377   2.668   0.496   6.586  0.5026 -0.1936 -0.3251
   89SAPC   C12 8378   2.726   0.639   6.613  0.0081 -0.0356 -0.3155
   89SAPC  H12A 8379   2.751   0.683   6.518  0.7993 -0.1408 -0.1623
   89SAPC  H12B 8380   2.820   0.635   6.665 -0.0022  0.3620 -0.2589
   89SAPC   C13 8381   2.545   0.496   6.503  0.5687 -0.3105 -0.3079
   89SAPC  H13A 8382   2.465   0.537   6.563  1.0732 -1.4008  1.1789
   89SAPC  H13B 8383   2.554   0.556   6.414 -0.5555  0.8630  0.3328
   89SAPC  H13C 8384   2.500   0.401   6.481  0.0703 -0.0961 -0.2227
   89SAPC   C14 8385   2.766   0.411   6.512  0.1307  0.6180  0.4867
   89SAPC  H14A 8386   2.784   0.445   6.412  1.9024  0.6837  0.8082
   89SAPC  H14B 8387   2.855   0.405   6.572 -1.5894 -0.4925  3.1671
   89SAPC  H14C 8388   2.720   0.313   6.502 -0.3834  0.9947 -1.0092
   89SAPC   C15 8389   2.633   0.417   6.713 -0.2964 -0.7168  0.3029
   89SAPC  H15A 8390   2.609   0.314   6.690  1.1218 -1.2400  1.0919
   89SAPC  H15B 8391   2.720   0.420   6.777  0.8533  0.5115 -1.2427
   89SAPC  H15C 8392   2.544   0.454   6.762 -2.4258 -2.6857 -1.7837
   89SAPC   C11 8393   2.636   0.735   6.698 -0.3654  0.2843 -0.3501
   89SAPC  H11A 8394   2.684   0.829   6.731 -2.1327 -0.0121  3.7602
   89SAPC  H11B 8395   2.610   0.687   6.795 -0.9178  0.8355 -0.2156
   89SAPC     P 8396   2.489   0.875   6.530  0.6244  0.0160 -0.3156
   89SAPC   O13 8397   2.343   0.911   6.529  0.1981  0.4040 -0.2954
   89SAPC   O14 8398   2.588   0.985   6.568 -0.4102  0.1911  0.3360
   89SAPC   O12 8399   2.516   0.751   6.619  0.4592 -0.4102 -0.5178
   89SAPC   O11 8400   2.532   0.827   6.390 -0.4539 -0.0332  0.1217
   89SAPC    C1 8401   2.581   0.922   6.290 -0.3651 -0.2991  0.3019
   89SAPC    HA 8402   2.492   0.952   6.231 -0.2765  0.4863  0.5492
   89SAPC    HB 8403   2.621   1.015   6.337 -1.2155  1.3607 -2.0614
   89SAPC    C2 8404   2.692   0.864   6.203 -0.0949 -0.6433 -0.0241
   89SAPC    HS 8405   2.783   0.918   6.236  0.4987 -1.7422  0.1504
   89SAPC   O21 8406   2.663   0.888   6.063 -0.0675  0.4865 -0.4419
   89SAPC   C21 8407   2.677   1.016   6.026  0.1368  0.3870 -0.3380
   89SAPC   O22 8408   2.709   1.107   6.104 -0.2079  0.1540  0.2374
   89SAPC   C22 8409   2.653   1.024   5.882  0.3204  1.1900  0.2257
   89SAPC   H2R 8410   2.725   0.951   5.839 -1.4667  0.3684 -1.5250
   89SAPC   H2S 8411   2.556   0.973   5.861  1.5230 -0.8201 -0.6828
   89SAPC    C3 8412   2.699   0.712   6.224  0.0661 -0.8274 -0.3638
   89SAPC    HX 8413   2.598   0.669   6.205 -0.0324 -0.0052 -1.8321
   89SAPC    HY 8414   2.725   0.701   6.331 -0.1925  1.1811 -0.0695
   89SAPC   O31 8415   2.793   0.656   6.128 -0.6316 -0.5333  0.1823
   89SAPC   C31 8416   2.913   0.649   6.169 -0.1704 -0.0977  0.3805
   89SAPC   O32 8417   2.947   0.654   6.289 -0.5453 -0.4784  0.5065
   89SAPC   C32 8418   3.010   0.653   6.057 -0.2421  0.0789 -0.4226
   89SAPC   H2X 8419   2.963   0.652   5.957  1.0639 -0.1080 -1.0540
   89SAPC   H2Y 8420   3.065   0.558   6.076 -0.8311  0.0851  1.5346
   89SAPC   C23 8421   2.657   1.165   5.826  0.0494  0.2636  0.2305
   89SAPC   H3R 8422   2.755   1.210   5.853 -0.0805 -0.7085  2.4708
   89SAPC   H3S 8423   2.585   1.229   5.881  0.6001  1.7011 -0.6713
   89SAPC   C24 8424   2.621   1.172   5.676 -0.1756 -0.0074 -0.3997
   89SAPC   H4R 8425   2.600   1.279   5.656 -1.9125 -0.1486  0.5347
   89SAPC   H4S 8426   2.521   1.127   5.665  1.1408 -3.3581  0.2728
   89SAPC   C25 8427   2.715   1.117   5.576  0.6023  0.0254  0.3524
   89SAPC   H5R 8428   2.808   1.082   5.624  1.0917 -0.0123 -0.6053
   89SAPC   C26 8429   2.710   1.119   5.438 -0.1962  1.2115 -0.0974
   89SAPC   H6R 8430   2.793   1.070   5.385  0.9034  0.8337  1.8541
   89SAPC   C27 8431   2.603   1.176   5.349  0.3059  0.4737  0.6858
   89SAPC   H7R 8432   2.508   1.185   5.406  0.0872  1.4580  0.1824
   89SAPC   H7S 8433   2.590   1.099   5.270 -1.3432  2.7094 -1.3802
   89SAPC   C28 8434   2.638   1.310   5.289  0.5251  0.0023 -0.1042
   89SAPC   H8R 8435   2.661   1.382   5.368 -0.3134  0.5186 -0.3168
   89SAPC   C29 8436   2.653   1.348   5.165 -0.1433 -0.0256  0.7905
   89SAPC   H9R 8437   2.670   1.456   5.154 -0.4671  0.1354  1.8051
   89SAPC  C210 8438   2.640   1.258   5.048 -0.0883  0.1106 -0.3956
   89SAPC  H10R 8439   2.606   1.319   4.962 -0.3795  1.0805  0.3794
   89SAPC  H10S 8440   2.564   1.177   5.056 -0.4581  0.4612 -0.3191
   89SAPC  C211 8441   2.771   1.204   5.002  0.2652 -0.0641 -0.4582
   89SAPC  H11R 8442   2.846   1.279   4.971  2.6138 -2.1959 -0.2213
   89SAPC  C212 8443   2.820   1.083   5.021  0.3880  0.4310 -0.0715
   89SAPC  H12R 8444   2.920   1.050   4.989  1.4092  0.6390  2.6922
   89SAPC  C213 8445   2.742   0.973   5.082 -0.1366 -0.0121  0.0668
   89SAPC  H13R 8446   2.633   0.969   5.066  0.0738 -0.5386 -1.3132
   89SAPC  H13S 8447   2.762   0.976   5.192 -1.2141  0.4992  0.2579
   89SAPC  C214 8448   2.788   0.851   5.010  0.9749 -0.5296  0.4495
   89SAPC  H14R 8449   2.747   0.841   4.908  0.5551 -1.2567  0.6794
   89SAPC  C215 8450   2.864   0.756   5.061 -0.2629  0.4820 -0.4966
   89SAPC  H15R 8451   2.887   0.666   5.001  1.7659 -1.7241  3.1646
   89SAPC  C216 8452   2.916   0.753   5.202  0.3995  0.0507  0.4930
   89SAPC  H16R 8453   2.942   0.859   5.220  1.8253 -0.5114  1.9860
   89SAPC  H16S 8454   3.013   0.699   5.209  0.3566 -0.2504 -0.9177
   89SAPC  C217 8455   2.815   0.716   5.314 -0.3072  0.5960 -0.1720
   89SAPC  H17R 8456   2.768   0.620   5.285 -0.8373  0.6360  0.5390
   89SAPC  H17S 8457   2.737   0.795   5.323 -0.3713  0.5018  0.1118
   89SAPC  C218 8458   2.884   0.708   5.450 -0.1511 -0.3797  0.2673
   89SAPC  H18R 8459   2.961   0.788   5.456  0.2900 -0.7644 -0.2039
   89SAPC  H18S 8460   2.949   0.620   5.466  0.3344 -0.2267 -0.7940
   89SAPC  C219 8461   2.778   0.731   5.558 -0.4228  0.6740  0.6219
   89SAPC  H19R 8462   2.697   0.655   5.549 -0.0948 -0.0127  2.7202
   89SAPC  H19S 8463   2.742   0.835   5.542 -1.3344  0.3189  0.2778
   89SAPC  C220 8464   2.833   0.724   5.704 -0.0950  0.7144  0.3956
   89SAPC  H20R 8465   2.883   0.627   5.729  0.4375  1.3853  2.0644
   89SAPC  H20S 8466   2.762   0.742   5.787 -0.0979  2.4211  0.0542
   89SAPC  H20T 8467   2.919   0.794   5.717  2.2109 -0.7096 -4.5697
   89SAPC   C33 8468   3.107   0.778   6.063  0.4798  1.1229  0.1071
   89SAPC   H3X 8469   3.187   0.767   5.986  0.5388  0.5222  0.2507
   89SAPC   H3Y 8470   3.145   0.792   6.166  2.8379  2.4777 -0.8553
   89SAPC   C34 8471   3.044   0.901   6.006 -0.7177  0.1223  0.4373
   89SAPC   H4X 8472   2.957   0.939   6.063  0.4122  0.9953  1.6410
   89SAPC   H4Y 8473   2.992   0.881   5.910 -1.2170 -1.4560  1.0130
   89SAPC   C35 8474   3.146   1.017   6.000  0.5957  0.2168 -0.2432
   89SAPC   H5X 8475   3.200   1.013   6.097 -0.6713 -0.5306  0.4573
   89SAPC   H5Y 8476   3.102   1.119   6.007  0.8449  0.2420  1.2233
   89SAPC   C36 8477   3.229   1.009   5.869 -0.2000 -0.6397 -0.7554
   89SAPC   H6X 8478   3.267   0.908   5.842 -0.2482 -0.4470 -1.5670
   89SAPC   H6Y 8479   3.322   1.067   5.886 -0.1276 -1.1371  0.7513
   89SAPC   C37 8480   3.169   1.072   5.746 -0.3598 -0.1935  1.2799
   89SAPC   H7X 8481   3.094   1.153   5.761 -1.1956 -0.5685 -0.5593
   89SAPC   H7Y 8482   3.104   0.996   5.699 -1.1353  1.5776 -0.7243
   89SAPC   C38 8483   3.280   1.132   5.654 -0.8464  0.5896 -0.2475
   89SAPC   H8X 8484   3.345   1.049   5.620  2.9287  2.6882  1.2819
   89SAPC   H8Y 8485   3.347   1.198   5.713  1.8311 -0.6303 -1.7731
   89SAPC   C39 8486   3.224   1.202   5.522 -0.0958  0.8278  0.8450
   89SAPC   H9X 8487   3.307   1.231   5.453 -0.5567  1.3400  0.4984
   89SAPC   H9Y 8488   3.176   1.299   5.546  1.2120  2.0235 -1.0442
   89SAPC  C310 8489   3.115   1.123   5.441 -1.5801  0.5942 -0.1186
   89SAPC  H10X 8490   3.036   1.101   5.516 -0.4419  0.0016  0.9477
   89SAPC  H10Y 8491   3.137   1.016   5.417 -3.9345 -0.0063  0.2085
   89SAPC  C311 8492   3.056   1.185   5.314 -0.0509  0.4202  0.0350
   89SAPC  H11X 8493   2.976   1.257   5.343 -1.3055 -0.8739 -0.0723
   89SAPC  H11Y 8494   3.000   1.105   5.263 -0.6594  0.3038  0.8657
   89SAPC  C312 8495   3.163   1.254   5.228  0.0371  0.5073  0.2106
   89SAPC  H12X 8496   3.237   1.181   5.188  1.0056  1.5565  0.0320
   89SAPC  H12Y 8497   3.220   1.328   5.288  2.3962 -1.2904  0.3425
   89SAPC  C313 8498   3.098   1.310   5.101 -0.2435  0.0149  0.5711
   89SAPC  H13X 8499   3.005   1.369   5.114 -0.0710  0.1521  1.2374
   89SAPC  H13Y 8500   3.062   1.229   5.035 -0.4926 -0.1736  0.9377
   89SAPC  C314 8501   3.197   1.389   5.016  0.8954  0.2609 -0.3501
   89SAPC  H14X 8502   3.285   1.327   4.988  0.2172 -0.3397 -1.2079
   89SAPC  H14Y 8503   3.245   1.452   5.093 -1.0711  0.1740  1.0450
   89SAPC  C315 8504   3.131   1.470   4.899  0.0779 -0.1145  0.3838
   89SAPC  H15X 8505   3.072   1.550   4.948 -2.0162 -1.4289  0.1262
   89SAPC  H15Y 8506   3.060   1.415   4.834 -0.3416  0.3969  0.4071
   89SAPC  C316 8507   3.243   1.549   4.830  0.4190 -0.2839  0.7756
   89SAPC  H16X 8508   3.330   1.491   4.792  1.2192  1.4566 -0.2009
   89SAPC  H16Y 8509   3.288   1.614   4.908  2.1183 -0.3397 -0.1124
   89SAPC  C317 8510   3.192   1.643   4.713 -0.6181  0.1535  0.3001
   89SAPC  H17X 8511   3.277   1.704   4.675 -0.7423  0.0884 -0.0820
   89SAPC  H17Y 8512   3.123   1.722   4.751 -0.1553  1.1404 -0.8259
   89SAPC  C318 8513   3.127   1.579   4.595 -0.3205  0.1987  0.1867
   89SAPC  H18X 8514   3.196   1.498   4.563  0.9952  0.8241  1.2966
   89SAPC  H18Y 8515   3.118   1.651   4.511  3.4100  0.3440 -0.2636
   89SAPC  H18Z 8516   3.028   1.534   4.619  0.9102 -2.2750  1.0335
   90SAPC     N 8517   1.771   2.960   6.794 -0.0156  0.5714  0.2567
   90SAPC   C12 8518   1.920   2.945   6.821  0.3824  0.3412  0.0073
   90SAPC  H12A 8519   1.947   2.843   6.799  1.4647  0.8635 -1.2090
   90SAPC  H12B 8520   1.927   2.951   6.929 -0.4022  0.2796  0.0659
   90SAPC   C13 8521   1.733   2.899   6.661 -0.3172  0.5606 -0.1369
   90SAPC  H13A 8522   1.783   2.804   6.656 -0.3572  0.5021  0.4957
   90SAPC  H13B 8523   1.631   2.865   6.651  0.0370 -1.5737  2.4564
   90SAPC  H13C 8524   1.762   2.949   6.570 -1.6114 -0.9186 -1.4327
   90SAPC   C14 8525   1.689   2.879   6.888  0.1953 -0.2922 -0.2129
   90SAPC  H14A 8526   1.583   2.877   6.865  0.3858 -1.5708 -1.0492
   90SAPC  H14B 8527   1.731   2.780   6.881 -0.6780 -0.5874 -1.5773
   90SAPC  H14C 8528   1.704   2.918   6.988 -1.0783  1.6069 -0.7015
   90SAPC   C15 8529   1.727   3.108   6.793 -0.6509 -0.4252 -0.0791
   90SAPC  H15A 8530   1.633   3.119   6.741 -1.0375  0.4676  0.7593
   90SAPC  H15B 8531   1.721   3.149   6.893  0.6554  1.8169 -0.8373
   90SAPC  H15C 8532   1.790   3.171   6.733 -2.6456  0.9051 -0.8827
   90SAPC   C11 8533   2.023   3.045   6.757 -0.1313  0.3760 -0.4659
   90SAPC  H11A 8534   1.988   3.140   6.803 -1.3226  0.2065 -0.9706
   90SAPC  H11B 8535   1.998   3.040   6.649 -2.5033  1.0758 -0.0184
   90SAPC     P 8536   2.264   3.127   6.791 -0.5578 -0.1277  0.4056
   90SAPC   O13 8537   2.228   3.204   6.912  0.4249 -0.0551  0.6666
   90SAPC   O14 8538   2.400   3.075   6.781  0.1284 -0.0240 -0.3052
   90SAPC   O12 8539   2.159   3.005   6.767  0.2247 -0.1340  0.7195
   90SAPC   O11 8540   2.230   3.209   6.657  0.6184  0.1800  0.2272
   90SAPC    C1 8541   2.333   3.284   6.595  0.3575 -0.6074 -0.1968
   90SAPC    HA 8542   2.295   3.387   6.577  1.5213 -0.5265 -2.4895
   90SAPC    HB 8543   2.420   3.314   6.658 -0.6602  0.4678  0.7474
   90SAPC    C2 8544   2.385   3.218   6.465 -0.7802 -0.1093  0.0934
   90SAPC    HS 8545   2.436   3.297   6.406 -2.3395  0.3508 -0.6925
   90SAPC   O21 8546   2.269   3.176   6.384 -0.6206  0.0209 -0.6662
   90SAPC   C21 8547   2.209   3.273   6.317 -0.3657 -0.1596  0.0806
   90SAPC   O22 8548   2.247   3.385   6.304 -0.0253 -0.1793  0.0236
   90SAPC   C22 8549   2.085   3.209   6.246 -0.1692 -0.5523  0.2987
   90SAPC   H2R 8550   2.040   3.125   6.303 -0.9459 -1.2121 -1.2224
   90SAPC   H2S 8551   2.013   3.293   6.242 -0.7493 -0.9716  1.4276
   90SAPC    C3 8552   2.495   3.100   6.483  0.1208 -0.3735 -0.1532
   90SAPC    HX 8553   2.466   3.027   6.561  3.3602 -0.9470  0.6454
   90SAPC    HY 8554   2.584   3.151   6.526  1.6586 -2.6672 -0.4692
   90SAPC   O31 8555   2.519   3.028   6.363  0.1324  0.4575  0.2832
   90SAPC   C31 8556   2.596   3.087   6.260 -0.5054  0.0792 -1.0338
   90SAPC   O32 8557   2.643   3.198   6.274 -0.3897  0.1192  0.0657
   90SAPC   C32 8558   2.606   2.982   6.151  0.2616  0.2803 -0.0248
   90SAPC   H2X 8559   2.515   2.918   6.150  0.4107  0.0443  0.9975
   90SAPC   H2Y 8560   2.693   2.915   6.169 -0.7989 -1.1650 -0.0556
   90SAPC   C23 8561   2.129   3.175   6.104  0.7351 -0.1103 -0.1096
   90SAPC   H3R 8562   2.198   3.090   6.087 -0.6289 -1.0471 -1.2718
   90SAPC   H3S 8563   2.179   3.259   6.052  0.5745  0.3701  0.4907
   90SAPC   C24 8564   2.000   3.129   6.016  0.8263 -0.5700 -0.1226
   90SAPC   H4R 8565   1.927   3.207   5.986  0.5926 -0.1987  1.2995
   90SAPC   H4S 8566   1.949   3.063   6.090 -0.1038  1.2660  0.9353
   90SAPC   C25 8567   2.037   3.041   5.899  0.7426  0.4519 -0.3606
   90SAPC   H5R 8568   2.069   2.941   5.932 -1.2601  0.3077  1.3300
   90SAPC   C26 8569   2.012   3.060   5.765 -0.0564  0.0030  0.1546
   90SAPC   H6R 8570   2.043   2.985   5.691  0.0638  1.2784 -1.1304
   90SAPC   C27 8571   1.942   3.191   5.714 -0.2594  0.2944  0.6518
   90SAPC   H7R 8572   1.963   3.278   5.780 -2.9126  2.2215 -0.8564
   90SAPC   H7S 8573   1.832   3.176   5.715 -0.8830  2.9900 -3.6351
   90SAPC   C28 8574   1.992   3.214   5.576 -0.0606 -0.0615  0.2245
   90SAPC   H8R 8575   2.088   3.268   5.580  0.6303 -1.2898  2.8411
   90SAPC   C29 8576   1.938   3.171   5.459 -0.1381 -0.1383  0.0646
   90SAPC   H9R 8577   1.994   3.186   5.366  0.0055  1.6766  0.3950
   90SAPC  C210 8578   1.804   3.099   5.435  0.1795  0.2418  0.2575
   90SAPC  H10R 8579   1.779   3.109   5.327  0.7844 -1.7775 -0.0983
   90SAPC  H10S 8580   1.720   3.152   5.485 -0.4618 -0.5092 -0.0050
   90SAPC  C211 8581   1.800   2.959   5.486 -0.5562 -0.2780 -0.0150
   90SAPC  H11R 8582   1.846   2.956   5.587 -0.2772  1.1683 -0.0716
   90SAPC  C212 8583   1.758   2.852   5.415  0.1631 -0.0922  0.3621
   90SAPC  H12R 8584   1.756   2.752   5.463 -1.3898 -1.3108 -2.0405
   90SAPC  C213 8585   1.683   2.851   5.280  0.0565  0.0677 -0.3944
   90SAPC  H13R 8586   1.603   2.928   5.277  0.7469  0.7699 -1.5429
   90SAPC  H13S 8587   1.619   2.761   5.282  0.0685  0.0638  0.7001
   90SAPC  C214 8588   1.756   2.856   5.148  0.9613  0.2409 -0.4057
   90SAPC  H14R 8589   1.859   2.895   5.154  0.6059  1.2468 -0.5354
   90SAPC  C215 8590   1.702   2.836   5.024 -0.5743 -0.0594 -0.2171
   90SAPC  H15R 8591   1.773   2.851   4.941  2.0628  1.5516  2.1470
   90SAPC  C216 8592   1.565   2.786   5.001 -0.2060  0.7480 -0.1069
   90SAPC  H16R 8593   1.533   2.708   5.073  0.8603 -1.2350 -1.7060
   90SAPC  H16S 8594   1.561   2.739   4.901  1.6893  0.5351 -0.1150
   90SAPC  C217 8595   1.469   2.902   5.010 -0.2977  0.3712  0.5725
   90SAPC  H17R 8596   1.474   2.963   5.103  0.1066  2.2826 -0.6436
   90SAPC  H17S 8597   1.370   2.852   5.004 -0.5862  0.9849  0.1378
   90SAPC  C218 8598   1.475   3.004   4.896  0.8010 -0.1877 -0.6646
   90SAPC  H18R 8599   1.480   2.945   4.801  0.7758 -1.0094 -0.1681
   90SAPC  H18S 8600   1.566   3.067   4.898 -0.9577  2.7046  3.5748
   90SAPC  C219 8601   1.344   3.094   4.897 -0.2266  0.0626 -0.1119
   90SAPC  H19R 8602   1.326   3.147   4.993 -4.2742 -1.3454  0.1072
   90SAPC  H19S 8603   1.259   3.023   4.893 -0.5231  0.3306  0.9393
   90SAPC  C220 8604   1.348   3.190   4.779 -0.1144 -0.2868 -0.6628
   90SAPC  H20R 8605   1.368   3.126   4.690 -0.0772 -1.0735 -0.1062
   90SAPC  H20S 8606   1.435   3.256   4.800 -0.2701 -0.6402  1.2246
   90SAPC  H20T 8607   1.258   3.253   4.766  1.0206  1.5684  0.1600
   90SAPC   C33 8608   2.623   3.048   6.017  0.0764 -0.4586  0.5327
   90SAPC   H3X 8609   2.691   3.136   6.023  0.4969 -0.7785  0.4950
   90SAPC   H3Y 8610   2.532   3.092   5.972  0.0082  1.5307  2.4303
   90SAPC   C34 8611   2.689   2.952   5.918 -0.2335 -0.2197  0.2873
   90SAPC   H4X 8612   2.633   2.856   5.916 -0.4149 -0.1219 -1.8558
   90SAPC   H4Y 8613   2.791   2.937   5.959  0.1623  2.4523  0.4230
   90SAPC   C35 8614   2.720   3.013   5.778  0.3132  0.5179 -0.1538
   90SAPC   H5X 8615   2.774   3.109   5.785  0.2804  0.4903  0.5859
   90SAPC   H5Y 8616   2.626   3.034   5.722  0.4004  0.3866 -0.3507
   90SAPC   C36 8617   2.811   2.919   5.680 -0.2269  0.2156 -0.7035
   90SAPC   H6X 8618   2.780   2.813   5.696 -1.7631  0.5458 -1.2671
   90SAPC   H6Y 8619   2.915   2.925   5.718 -1.4385 -1.4351  3.5403
   90SAPC   C37 8620   2.812   2.958   5.529  0.1954  0.0036  0.2466
   90SAPC   H7X 8621   2.842   3.064   5.524 -0.7423  0.2816  0.3909
   90SAPC   H7Y 8622   2.707   2.950   5.493  0.1742 -2.2293  0.6460
   90SAPC   C38 8623   2.891   2.862   5.441 -0.6257 -0.4299  0.1637
   90SAPC   H8X 8624   2.865   2.756   5.458 -0.1520 -0.4264  0.9718
   90SAPC   H8Y 8625   3.000   2.873   5.458 -1.0213  1.0657  2.0817
   90SAPC   C39 8626   2.871   2.893   5.289  0.0685 -0.5478 -0.1140
   90SAPC   H9X 8627   2.861   3.003   5.272  2.0027 -0.7362 -3.3142
   90SAPC   H9Y 8628   2.773   2.852   5.256 -0.3854 -0.5890  1.2133
   90SAPC  C310 8629   2.987   2.844   5.206 -0.0435  0.5392  0.3301
   90SAPC  H10X 8630   2.996   2.736   5.230 -3.1473  0.6942  2.8703
   90SAPC  H10Y 8631   3.085   2.891   5.227  2.4293 -3.5225 -0.9562
   90SAPC  C311 8632   2.960   2.847   5.055  0.0324  0.2708 -0.0403
   90SAPC  H11X 8633   2.947   2.953   5.024  1.2318 -0.0009 -1.6167
   90SAPC  H11Y 8634   2.873   2.787   5.020  0.2235  0.0094 -0.0736
   90SAPC  C312 8635   3.081   2.801   4.967  0.6950 -0.9577 -0.4759
   90SAPC  H12X 8636   3.096   2.693   4.986  1.3002 -0.8721 -0.4302
   90SAPC  H12Y 8637   3.178   2.846   4.998  1.1284 -1.0163 -1.6959
   90SAPC  C313 8638   3.060   2.818   4.813 -0.0497 -0.2832 -0.1065
   90SAPC  H13X 8639   2.954   2.812   4.781 -0.4467  0.2407  1.0200
   90SAPC  H13Y 8640   3.108   2.734   4.760  0.1266 -0.1617 -0.1402
   90SAPC  C314 8641   3.122   2.945   4.758 -0.4593  0.5006  0.3914
   90SAPC  H14X 8642   3.218   2.959   4.812 -0.9630 -4.1879  3.0044
   90SAPC  H14Y 8643   3.049   3.025   4.782 -1.2076 -0.2542  0.6998
   90SAPC  C315 8644   3.160   2.935   4.609  0.1728  0.1666  0.5126
   90SAPC  H15X 8645   3.240   2.860   4.596  1.3751  1.4411  0.3417
   90SAPC  H15Y 8646   3.209   3.031   4.582  3.4991 -1.3460  0.6640
   90SAPC  C316 8647   3.039   2.903   4.521  0.2115 -0.1940 -0.5999
   90SAPC  H16X 8648   2.940   2.927   4.563  0.0464 -0.1443 -1.0138
   90SAPC  H16Y 8649   3.025   2.794   4.506  0.9321 -0.0120 -2.9980
   90SAPC  C317 8650   3.054   2.985   4.394 -0.5272 -0.1227 -0.0926
   90SAPC  H17X 8651   3.143   2.937   4.347  0.4570 -2.7377  3.9418
   90SAPC  H17Y 8652   3.075   3.092   4.409 -0.7564  0.6686 -4.2603
   90SAPC  C318 8653   2.934   2.975   4.300 -0.1515  0.0184 -0.1185
   90SAPC  H18X 8654   2.959   3.011   4.197 -0.1107 -3.1491 -1.3376
   90SAPC  H18Y 8655   2.840   3.018   4.342 -0.1862 -0.8820  0.7481
   90SAPC  H18Z 8656   2.911   2.870   4.273 -2.1451  0.2199  0.6503
   91SAPC     N 8657   6.431   3.803   7.273  0.0987  0.3105 -0.4586
   91SAPC   C12 8658   6.398   3.816   7.126  0.5367  0.0553 -0.5188
   91SAPC  H12A 8659   6.293   3.841   7.120  0.0101 -1.1942  2.1869
   91SAPC  H12B 8660   6.415   3.718   7.083 -2.1843 -0.2808 -0.9966
   91SAPC   C13 8661   6.375   3.683   7.346 -0.1494  0.6339  0.8682
   91SAPC  H13A 8662   6.421   3.597   7.299 -0.7474  2.1935 -2.9055
   91SAPC  H13B 8663   6.404   3.677   7.450 -0.4834 -0.0064  0.9304
   91SAPC  H13C 8664   6.270   3.673   7.323  0.4118  0.4187 -1.9538
   91SAPC   C14 8665   6.579   3.776   7.281 -0.0103  0.6601  0.1651
   91SAPC  H14A 8666   6.621   3.843   7.207  0.2576  0.8746  0.5116
   91SAPC  H14B 8667   6.619   3.806   7.376  1.8461  1.4199 -0.7968
   91SAPC  H14C 8668   6.609   3.675   7.258  1.1770  0.6380  1.6842
   91SAPC   C15 8669   6.403   3.926   7.358  0.5222 -0.2789 -0.2178
   91SAPC  H15A 8670   6.456   4.010   7.316 -1.3031  0.7869 -0.5074
   91SAPC  H15B 8671   6.297   3.942   7.372  0.5105 -1.1733  0.8250
   91SAPC  H15C 8672   6.446   3.912   7.456 -1.5973 -0.6890  0.7119
   91SAPC   C11 8673   6.475   3.929   7.046 -0.4456  0.5487  0.1257
   91SAPC  H11A 8674   6.461   4.024   7.102 -0.8688 -0.8008  2.4337
   91SAPC  H11B 8675   6.428   3.941   6.946  1.0356  1.1897 -0.5378
   91SAPC     P 8676   6.679   3.815   6.925 -0.3171 -0.1452  0.3415
   91SAPC   O13 8677   6.821   3.856   6.922 -1.0335  0.1153 -0.1169
   91SAPC   O14 8678   6.645   3.677   6.948  0.5616  0.4648  0.3412
   91SAPC   O12 8679   6.620   3.910   7.034  0.0312 -0.9195  0.5516
   91SAPC   O11 8680   6.605   3.869   6.796 -1.1181  0.2501  0.1848
   91SAPC    C1 8681   6.541   3.777   6.713  0.1814 -0.8949 -0.5755
   91SAPC    HA 8682   6.599   3.684   6.696 -0.3875 -1.4510  0.4796
   91SAPC    HB 8683   6.440   3.750   6.751 -1.1856  2.5234 -1.3986
   91SAPC    C2 8684   6.496   3.836   6.575  1.0600  0.3997  0.3830
   91SAPC    HS 8685   6.455   3.751   6.516  2.1557 -1.1373  1.7242
   91SAPC   O21 8686   6.610   3.893   6.514 -0.6633  0.1988 -0.1048
   91SAPC   C21 8687   6.689   3.807   6.448 -0.5582  0.4193 -0.4280
   91SAPC   O22 8688   6.682   3.689   6.444  0.0316 -0.1656  0.5365
   91SAPC   C22 8689   6.793   3.882   6.367  0.1318  0.0616 -0.3489
   91SAPC   H2R 8690   6.857   3.931   6.444 -1.0963  1.4926 -0.2021
   91SAPC   H2S 8691   6.860   3.813   6.310  0.6030  1.5564 -1.6800
   91SAPC    C3 8692   6.384   3.944   6.582  0.4635  0.0314  0.3478
   91SAPC    HX 8693   6.429   4.021   6.647  0.6987 -0.6231  0.9804
   91SAPC    HY 8694   6.301   3.887   6.631 -2.2077  2.1766 -1.3913
   91SAPC   O31 8695   6.345   3.992   6.454  0.1267 -0.1755 -0.2225
   91SAPC   C31 8696   6.316   4.120   6.437 -0.3382 -0.3629 -0.2371
   91SAPC   O32 8697   6.307   4.202   6.527  0.2776  0.8189 -0.3770
   91SAPC   C32 8698   6.279   4.142   6.288  0.1832 -0.2464  0.1827
   91SAPC   H2X 8699   6.168   4.141   6.281  0.1301 -3.5987 -0.4335
   91SAPC   H2Y 8700   6.318   4.056   6.229  2.9734  1.7545 -1.1448
   91SAPC   C23 8701   6.722   3.970   6.262 -0.3092 -0.6824  0.5066
   91SAPC   H3R 8702   6.662   4.044   6.318  1.3303  1.4605 -0.4596
   91SAPC   H3S 8703   6.661   3.915   6.186  1.0161 -0.1713 -0.9948
   91SAPC   C24 8704   6.826   4.041   6.174 -0.5828  1.1609  0.4897
   91SAPC   H4R 8705   6.882   3.958   6.126 -0.7440  1.1006  0.4061
   91SAPC   H4S 8706   6.890   4.095   6.247  0.1587 -0.2096  0.8897
   91SAPC   C25 8707   6.770   4.147   6.084  0.2330 -0.2753  0.3297
   91SAPC   H5R 8708   6.662   4.167   6.099  0.0887  2.4732 -3.0828
   91SAPC   C26 8709   6.825   4.212   5.981 -0.1875  0.0901  0.5802
   91SAPC   H6R 8710   6.760   4.277   5.921 -0.6723  0.3789  1.4000
   91SAPC   C27 8711   6.973   4.212   5.933 -0.1990  0.0585 -0.7378
   91SAPC   H7R 8712   6.981   4.152   5.840 -2.7888  1.9443 -2.2984
   91SAPC   H7S 8713   7.038   4.175   6.016 -1.8205 -0.5263  0.3180
   91SAPC   C28 8714   7.016   4.352   5.899  0.6311  0.5830  0.7312
   91SAPC   H8R 8715   7.024   4.416   5.988  0.7138  1.3433  0.1843
   91SAPC   C29 8716   7.042   4.393   5.774 -0.4945 -0.3627  0.4851
   91SAPC   H9R 8717   7.067   4.499   5.755  0.7253 -0.6037  0.6782
   91SAPC  C210 8718   7.022   4.318   5.645 -0.1671  0.3065 -0.6536
   91SAPC  H10R 8719   7.054   4.212   5.655 -1.7646 -0.0323  1.4648
   91SAPC  H10S 8720   7.094   4.366   5.574  0.7906  2.2166  1.4895
   91SAPC  C211 8721   6.883   4.329   5.593  0.9943 -0.2864  0.5470
   91SAPC  H11R 8722   6.802   4.350   5.665 -2.0939  1.7557 -3.1257
   91SAPC  C212 8723   6.851   4.320   5.461  0.4179  0.2976 -0.2762
   91SAPC  H12R 8724   6.749   4.351   5.432  0.7776  1.1095 -0.7201
   91SAPC  C213 8725   6.958   4.310   5.353  0.5870  0.0085  0.1781
   91SAPC  H13R 8726   6.902   4.276   5.263 -2.2042  0.7124  1.5613
   91SAPC  H13S 8727   7.027   4.228   5.384  0.0025  0.0109  1.5728
   91SAPC  C214 8728   7.033   4.433   5.323  0.4347 -0.0585 -0.3561
   91SAPC  H14R 8729   7.049   4.493   5.413  1.2587  3.1119 -2.4356
   91SAPC  C215 8730   7.091   4.462   5.203  0.1835 -0.8616 -0.6272
   91SAPC  H15R 8731   7.134   4.562   5.187 -2.0163 -0.1446 -2.6363
   91SAPC  C216 8732   7.074   4.378   5.078  0.8526 -0.2899 -1.0085
   91SAPC  H16R 8733   6.966   4.381   5.053  0.6621  0.3885 -0.1477
   91SAPC  H16S 8734   7.098   4.270   5.088  0.9382 -0.4758 -2.9250
   91SAPC  C217 8735   7.148   4.441   4.960 -0.2458 -0.7962  0.1823
   91SAPC  H17R 8736   7.257   4.444   4.980 -0.1137 -1.3887 -0.3855
   91SAPC  H17S 8737   7.116   4.544   4.937  1.1918 -0.5735 -0.9643
   91SAPC  C218 8738   7.119   4.360   4.831 -0.2381  0.2914 -0.1838
   91SAPC  H18R 8739   7.012   4.331   4.830 -0.2646  0.3739  0.0864
   91SAPC  H18S 8740   7.180   4.267   4.840 -1.7110 -0.8233 -1.2655
   91SAPC  C219 8741   7.181   4.427   4.706  0.1687 -0.0652  0.0467
   91SAPC  H19R 8742   7.253   4.357   4.657 -1.0826 -1.7943  0.5682
   91SAPC  H19S 8743   7.246   4.509   4.741  1.3980 -0.9232 -0.1825
   91SAPC  C220 8744   7.086   4.497   4.609 -0.0255  0.1672  0.0599
   91SAPC  H20R 8745   7.036   4.582   4.661 -0.8687 -0.2066 -0.1153
   91SAPC  H20S 8746   7.008   4.431   4.564 -0.0681  1.2392 -1.5302
   91SAPC  H20T 8747   7.133   4.547   4.521 -1.1603  0.2654 -0.5191
   91SAPC   C33 8748   6.339   4.275   6.221  0.3274 -0.1569 -0.3319
   91SAPC   H3X 8749   6.450   4.271   6.226  0.3375 -1.5813 -1.2125
   91SAPC   H3Y 8750   6.311   4.366   6.278  0.1969 -0.9777  0.9582
   91SAPC   C34 8751   6.312   4.287   6.068 -0.2708 -0.4600 -0.6753
   91SAPC   H4X 8752   6.346   4.387   6.033 -0.9376  0.1914  0.4784
   91SAPC   H4Y 8753   6.204   4.282   6.043 -0.5342  3.1884 -0.7979
   91SAPC   C35 8754   6.384   4.181   5.982  0.1703 -0.1186  0.2637
   91SAPC   H5X 8755   6.299   4.116   5.952 -0.0191  0.2099  0.0885
   91SAPC   H5Y 8756   6.461   4.123   6.037 -0.2493 -2.9279 -1.8977
   91SAPC   C36 8757   6.448   4.254   5.852 -0.0496  0.0534 -0.4603
   91SAPC   H6X 8758   6.529   4.309   5.905  0.9687  0.6148 -2.4912
   91SAPC   H6Y 8759   6.374   4.322   5.806 -1.4789  0.2664  1.9612
   91SAPC   C37 8760   6.503   4.156   5.748  0.4312 -0.1279  0.5624
   91SAPC   H7X 8761   6.588   4.097   5.788  0.4821  0.4529  1.3503
   91SAPC   H7Y 8762   6.556   4.230   5.684  0.2967  1.2253  1.9375
   91SAPC   C38 8763   6.417   4.065   5.663  0.0692 -0.2613  0.3177
   91SAPC   H8X 8764   6.396   3.982   5.734  2.3991 -2.5465 -1.4683
   91SAPC   H8Y 8765   6.469   4.015   5.578  2.3100 -2.0172  2.5609
   91SAPC   C39 8766   6.276   4.119   5.623 -0.1926  0.5086 -0.2861
   91SAPC   H9X 8767   6.244   4.167   5.717 -0.0646  0.4225 -0.1978
   91SAPC   H9Y 8768   6.206   4.033   5.615 -1.4119  1.2490  1.8826
   91SAPC  C310 8769   6.266   4.211   5.509 -0.6590 -0.1596 -0.3064
   91SAPC  H10X 8770   6.352   4.277   5.528  1.0281 -2.2437 -0.2764
   91SAPC  H10Y 8771   6.175   4.273   5.497 -1.2520 -1.2043 -1.4595
   91SAPC  C311 8772   6.288   4.148   5.370 -0.0428  0.5906 -0.1460
   91SAPC  H11X 8773   6.202   4.085   5.337 -1.0465  0.5790  2.2650
   91SAPC  H11Y 8774   6.374   4.082   5.392 -1.2997 -0.4829  1.9164
   91SAPC  C312 8775   6.303   4.251   5.258  0.3454  0.2858  0.5933
   91SAPC  H12X 8776   6.404   4.295   5.271  2.2022 -3.0942 -1.1221
   91SAPC  H12Y 8777   6.231   4.334   5.275  0.4404  0.7082 -0.9289
   91SAPC  C313 8778   6.301   4.215   5.111  1.0599  0.4371  1.3558
   91SAPC  H13X 8779   6.210   4.167   5.068  2.4654 -1.1848  0.0663
   91SAPC  H13Y 8780   6.371   4.130   5.094 -0.7245 -0.8303  0.0314
   91SAPC  C314 8781   6.348   4.336   5.022  0.6779 -0.4353 -0.6134
   91SAPC  H14X 8782   6.434   4.391   5.064 -0.0101 -1.0198  1.7302
   91SAPC  H14Y 8783   6.272   4.416   5.010  0.7470 -0.6113 -2.3988
   91SAPC  C315 8784   6.389   4.290   4.877  0.0175  0.1498 -0.3150
   91SAPC  H15X 8785   6.299   4.241   4.835 -0.1830  1.7218 -1.8462
   91SAPC  H15Y 8786   6.463   4.210   4.894 -1.8403 -1.7355 -0.6840
   91SAPC  C316 8787   6.434   4.411   4.795 -0.2877  0.3771 -0.2355
   91SAPC  H16X 8788   6.497   4.470   4.864 -0.5756 -1.3744  1.5930
   91SAPC  H16Y 8789   6.354   4.487   4.777  0.6551  1.1302 -1.4276
   91SAPC  C317 8790   6.513   4.385   4.671 -0.0215 -0.4487 -0.7534
   91SAPC  H17X 8791   6.539   4.476   4.612  1.8865 -0.3709  0.1005
   91SAPC  H17Y 8792   6.450   4.337   4.594 -0.6047  1.3608 -1.4550
   91SAPC  C318 8793   6.640   4.303   4.684  0.3424  0.6013  0.4202
   91SAPC  H18X 8794   6.711   4.330   4.765  2.3114 -0.9331 -0.6975
   91SAPC  H18Y 8795   6.697   4.314   4.590  1.4838  1.9908  1.2382
   91SAPC  H18Z 8796   6.617   4.194   4.689 -1.1821  0.8945  0.3929
   92SAPC     N 8797   5.716   3.017   6.916  0.6314 -0.3725 -0.4553
   92SAPC   C12 8798   5.752   3.148   6.983 -0.6966  0.6372  0.0218
   92SAPC  H12A 8799   5.801   3.206   6.906  0.4404 -1.4111 -0.8929
   92SAPC  H12B 8800   5.824   3.126   7.061 -0.3938 -0.8192 -0.6186
   92SAPC   C13 8801   5.641   3.049   6.794 -0.2008  0.4518 -0.4514
   92SAPC  H13A 8802   5.611   2.963   6.734  1.1851  1.5356 -2.8400
   92SAPC  H13B 8803   5.556   3.105   6.831 -1.1323 -0.7834 -0.6345
   92SAPC  H13C 8804   5.688   3.110   6.719 -1.5588  0.1975 -1.5654
   92SAPC   C14 8805   5.832   2.950   6.867  0.4784  0.0865 -0.3103
   92SAPC  H14A 8806   5.900   2.917   6.944  1.5892 -0.7279 -1.5683
   92SAPC  H14B 8807   5.799   2.863   6.811 -0.2551 -0.1493  0.4771
   92SAPC  H14C 8808   5.891   3.015   6.803  0.7424 -0.7290 -0.9137
   92SAPC   C15 8809   5.634   2.923   6.997 -0.0339 -0.9754  0.7881
   92SAPC  H15A 8810   5.687   2.903   7.089 -2.2957 -0.9217  2.1658
   92SAPC  H15B 8811   5.542   2.973   7.024  1.1229 -0.3732  4.0436
   92SAPC  H15C 8812   5.630   2.828   6.945  0.5102 -0.9398  0.6677
   92SAPC   C11 8813   5.633   3.241   7.029  0.6127 -0.6617 -0.4589
   92SAPC  H11A 8814   5.703   3.317   7.070  0.4472 -1.6136  1.7539
   92SAPC  H11B 8815   5.569   3.204   7.112 -1.2705  2.5678 -0.3255
   92SAPC     P 8816   5.501   3.439   6.949  0.0809  0.1965 -0.3645
   92SAPC   O13 8817   5.364   3.454   6.889  0.3064  0.1194 -0.1061
   92SAPC   O14 8818   5.497   3.477   7.089 -1.0388  0.3167 -0.4926
   92SAPC   O12 8819   5.545   3.290   6.926  0.1531 -0.0418  0.1272
   92SAPC   O11 8820   5.602   3.528   6.865 -0.4851  0.0855  0.3779
   92SAPC    C1 8821   5.697   3.471   6.771  0.4698  0.1057  0.0608
   92SAPC    HA 8822   5.785   3.537   6.756  0.7293 -0.4010 -0.7407
   92SAPC    HB 8823   5.730   3.372   6.809 -2.8135 -0.6588  1.2537
   92SAPC    C2 8824   5.646   3.455   6.626 -0.0673 -0.2933  0.0411
   92SAPC    HS 8825   5.579   3.369   6.605 -1.5930  1.1420 -1.3093
   92SAPC   O21 8826   5.762   3.443   6.537 -0.1816 -0.4061  0.2113
   92SAPC   C21 8827   5.817   3.334   6.543  0.5968  0.0492 -0.5203
   92SAPC   O22 8828   5.789   3.239   6.614 -0.2957 -0.2705 -0.5973
   92SAPC   C22 8829   5.937   3.332   6.438  0.2978 -0.4259  0.1200
   92SAPC   H2R 8830   6.021   3.356   6.507 -1.8197  3.6956  1.6078
   92SAPC   H2S 8831   5.941   3.230   6.394 -1.3149 -0.7827  0.7411
   92SAPC    C3 8832   5.559   3.582   6.577 -0.3562  0.2081  0.3940
   92SAPC    HX 8833   5.624   3.672   6.587 -1.9503  1.8500 -2.6999
   92SAPC    HY 8834   5.473   3.595   6.647  0.1864 -0.4103  1.2005
   92SAPC   O31 8835   5.504   3.557   6.448  1.1285  0.1036  0.1747
   92SAPC   C31 8836   5.565   3.612   6.345  0.2990 -0.1944 -0.8082
   92SAPC   O32 8837   5.663   3.687   6.359  0.0762  0.0639 -0.0795
   92SAPC   C32 8838   5.496   3.556   6.215 -0.4201 -0.0489 -0.0262
   92SAPC   H2X 8839   5.389   3.585   6.209 -0.9461 -1.5047  1.4811
   92SAPC   H2Y 8840   5.499   3.446   6.199  0.4615  0.2398 -2.2139
   92SAPC   C23 8841   5.917   3.432   6.325 -0.3109 -0.2929  0.3014
   92SAPC   H3R 8842   5.908   3.531   6.376 -3.4368 -0.4407  0.2049
   92SAPC   H3S 8843   5.822   3.405   6.276  0.6002 -1.2180 -1.0184
   92SAPC   C24 8844   6.026   3.420   6.213  0.9980 -0.2349  0.3042
   92SAPC   H4R 8845   6.128   3.430   6.255  1.9607  0.1133 -2.0061
   92SAPC   H4S 8846   6.006   3.504   6.144  1.4209 -1.7299 -1.7137
   92SAPC   C25 8847   6.023   3.290   6.137 -0.5976 -0.2322 -0.2662
   92SAPC   H5R 8848   6.028   3.205   6.207  3.4869  0.0848  0.0601
   92SAPC   C26 8849   6.034   3.271   6.008 -0.3162 -0.0706  0.8256
   92SAPC   H6R 8850   6.033   3.168   5.971 -0.0293 -0.5142  2.0053
   92SAPC   C27 8851   6.064   3.379   5.896 -0.1015 -0.2157 -1.2258
   92SAPC   H7R 8852   6.079   3.328   5.798  0.6844 -1.6035 -0.4148
   92SAPC   H7S 8853   6.163   3.428   5.907 -1.1933  2.1501 -1.4694
   92SAPC   C28 8854   5.955   3.490   5.876 -0.4209  0.3996  0.4177
   92SAPC   H8R 8855   5.882   3.493   5.959 -1.0301 -0.1234 -0.0877
   92SAPC   C29 8856   5.960   3.574   5.770  0.4081  0.4899  0.0575
   92SAPC   H9R 8857   5.888   3.656   5.761  1.2879  1.2262 -0.3788
   92SAPC  C210 8858   6.059   3.572   5.654  0.1503  0.1132  0.5173
   92SAPC  H10R 8859   5.992   3.549   5.569  0.5158 -0.0528  0.2710
   92SAPC  H10S 8860   6.137   3.495   5.672  2.3710  1.2813 -3.0649
   92SAPC  C211 8861   6.123   3.709   5.625  0.5212  1.1669  0.0714
   92SAPC  H11R 8862   6.132   3.772   5.714  0.0719 -1.1510  1.8734
   92SAPC  C212 8863   6.159   3.755   5.503 -0.1208 -0.4691  0.2448
   92SAPC  H12R 8864   6.213   3.851   5.502 -1.4498  0.3047  0.1754
   92SAPC  C213 8865   6.162   3.665   5.381 -0.0016  0.4248 -0.2946
   92SAPC  H13R 8866   6.164   3.558   5.412  4.7087  0.2877 -0.2545
   92SAPC  H13S 8867   6.262   3.676   5.333 -0.0940  1.3967 -0.2693
   92SAPC  C214 8868   6.049   3.689   5.291  0.4159  0.4555  0.4730
   92SAPC  H14R 8869   5.950   3.677   5.337 -0.1608  2.9628  0.0036
   92SAPC  C215 8870   6.052   3.719   5.157 -0.5112 -0.2262  0.2009
   92SAPC  H15R 8871   5.961   3.754   5.106  0.0052 -0.6536 -1.0386
   92SAPC  C216 8872   6.172   3.738   5.066  0.5711  0.2484 -1.0882
   92SAPC  H16R 8873   6.262   3.690   5.111 -1.7173 -0.7198  3.0017
   92SAPC  H16S 8874   6.185   3.846   5.045 -0.6694  0.2200 -2.0884
   92SAPC  C217 8875   6.147   3.670   4.934 -0.3520 -0.6826 -0.5692
   92SAPC  H17R 8876   6.042   3.686   4.902 -0.4468 -0.3707 -0.1186
   92SAPC  H17S 8877   6.169   3.562   4.944  2.1391 -0.1081  1.1744
   92SAPC  C218 8878   6.249   3.711   4.830 -0.0602 -0.0383  0.7484
   92SAPC  H18R 8879   6.349   3.696   4.876  0.6878 -2.2061 -1.4135
   92SAPC  H18S 8880   6.240   3.820   4.806 -0.7408  0.0405  1.3179
   92SAPC  C219 8881   6.232   3.632   4.694 -1.2165  0.5364  0.6466
   92SAPC  H19R 8882   6.127   3.649   4.661 -0.9247  0.9741 -0.0846
   92SAPC  H19S 8883   6.239   3.522   4.709 -0.8910  0.2725 -1.1238
   92SAPC  C220 8884   6.328   3.656   4.576  0.2226  0.1414 -0.8587
   92SAPC  H20R 8885   6.298   3.581   4.500  0.9845 -0.2288 -0.7999
   92SAPC  H20S 8886   6.429   3.627   4.611 -0.9512  0.0717  2.9678
   92SAPC  H20T 8887   6.317   3.762   4.545 -2.1606  0.6007  1.2183
   92SAPC   C33 8888   5.565   3.638   6.098 -0.0731  0.1431  0.4326
   92SAPC   H3X 8889   5.668   3.599   6.083  0.5250  1.8667 -0.2278
   92SAPC   H3Y 8890   5.577   3.746   6.122  0.7698  0.9875 -3.1968
   92SAPC   C34 8891   5.490   3.623   5.963 -1.0096  0.7827 -0.0837
   92SAPC   H4X 8892   5.399   3.686   5.962 -0.0777  2.1921 -0.6163
   92SAPC   H4Y 8893   5.458   3.517   5.958 -2.7451  1.2048  1.0316
   92SAPC   C35 8894   5.576   3.649   5.843  0.7593 -0.4624 -0.5539
   92SAPC   H5X 8895   5.668   3.593   5.870 -1.3558 -3.4639  0.9322
   92SAPC   H5Y 8896   5.606   3.755   5.827 -0.5812  0.1365  0.7275
   92SAPC   C36 8897   5.514   3.595   5.714 -0.0615 -1.0500 -0.2946
   92SAPC   H6X 8898   5.405   3.611   5.705 -0.2890 -2.5905 -0.4380
   92SAPC   H6Y 8899   5.530   3.485   5.711  1.0755 -0.8945 -0.3682
   92SAPC   C37 8900   5.578   3.643   5.593 -0.3531  0.5949 -0.2964
   92SAPC   H7X 8901   5.533   3.588   5.507 -0.6469 -1.8835  1.3442
   92SAPC   H7Y 8902   5.682   3.603   5.588 -0.2720  0.8592 -0.8315
   92SAPC   C38 8903   5.573   3.796   5.558  0.3683  0.3384  0.5297
   92SAPC   H8X 8904   5.635   3.844   5.637  1.2714  1.8280 -1.0003
   92SAPC   H8Y 8905   5.470   3.835   5.571  0.4192  0.0243  2.0300
   92SAPC   C39 8906   5.639   3.841   5.422  0.1125  0.1615  1.1294
   92SAPC   H9X 8907   5.749   3.829   5.427  0.1793  0.4437  0.4446
   92SAPC   H9Y 8908   5.631   3.946   5.387 -0.3132 -0.6944 -1.5214
   92SAPC  C310 8909   5.595   3.762   5.302 -0.2213 -0.7570  0.2629
   92SAPC  H10X 8910   5.485   3.771   5.314 -0.1352  0.1022  0.4741
   92SAPC  H10Y 8911   5.625   3.656   5.307 -0.0239 -0.7135  0.0417
   92SAPC  C311 8912   5.643   3.824   5.177 -0.0506 -0.7853 -0.2360
   92SAPC  H11X 8913   5.753   3.812   5.178 -0.0955 -1.2575  1.3346
   92SAPC  H11Y 8914   5.620   3.933   5.173 -1.0229 -0.9760 -0.0145
   92SAPC  C312 8915   5.583   3.770   5.046  0.5528  0.4539 -0.2209
   92SAPC  H12X 8916   5.480   3.812   5.043  0.4038  0.0416 -2.5259
   92SAPC  H12Y 8917   5.576   3.660   5.032 -0.0534  0.6416 -1.5290
   92SAPC  C313 8918   5.665   3.822   4.934 -0.6670 -0.0990  0.1707
   92SAPC  H13X 8919   5.771   3.791   4.927 -1.3514 -3.0534  1.5843
   92SAPC  H13Y 8920   5.654   3.933   4.938 -1.0043 -0.1581  1.4083
   92SAPC  C314 8921   5.582   3.789   4.806 -0.5978  0.3761  0.2689
   92SAPC  H14X 8922   5.601   3.860   4.723  3.0044  1.1192  1.5535
   92SAPC  H14Y 8923   5.476   3.798   4.838 -0.3120  1.7327  0.9136
   92SAPC  C315 8924   5.606   3.645   4.754 -0.4963 -0.1356  0.2297
   92SAPC  H15X 8925   5.534   3.646   4.669 -0.8082  0.2047  0.4955
   92SAPC  H15Y 8926   5.571   3.579   4.836 -0.0828  0.9793  1.3325
   92SAPC  C316 8927   5.751   3.620   4.705  0.3960  0.3424 -0.4414
   92SAPC  H16X 8928   5.818   3.612   4.794  3.3897  0.8610 -2.4959
   92SAPC  H16Y 8929   5.777   3.709   4.643 -3.4230  1.0067 -1.3334
   92SAPC  C317 8930   5.774   3.504   4.620  0.3733  0.3358 -0.3986
   92SAPC  H17X 8931   5.704   3.507   4.534 -0.9945 -2.1916  0.5214
   92SAPC  H17Y 8932   5.743   3.414   4.678 -0.5207  0.8517 -0.0579
   92SAPC  C318 8933   5.911   3.489   4.574 -0.3619 -0.4235  0.4835
   92SAPC  H18X 8934   5.949   3.573   4.510  0.9259 -1.5217 -0.2490
   92SAPC  H18Y 8935   5.926   3.395   4.517  2.5714 -0.0330  0.4249
   92SAPC  H18Z 8936   5.981   3.494   4.660 -0.8166  0.0019  0.8303
   93SAPC     N 8937   6.620   4.357   6.943 -0.4144 -0.1967  0.0549
   93SAPC   C12 8938   6.714   4.368   6.825 -0.3440 -0.8277 -0.1617
   93SAPC  H12A 8939   6.662   4.413   6.742 -0.3700  0.3405  0.4509
   93SAPC  H12B 8940   6.757   4.270   6.814 -0.1396 -0.8460  0.6894
   93SAPC   C13 8941   6.528   4.245   6.914 -0.1686 -0.1292  0.2855
   93SAPC  H13A 8942   6.476   4.279   6.826 -0.0782 -1.2672 -0.2204
   93SAPC  H13B 8943   6.582   4.153   6.898 -2.8932 -1.9573  0.9309
   93SAPC  H13C 8944   6.459   4.243   6.998 -0.4117  1.2458  0.1481
   93SAPC   C14 8945   6.695   4.339   7.068 -0.5671  0.0998 -0.3240
   93SAPC  H14A 8946   6.772   4.264   7.052 -2.1424 -1.6065 -0.2191
   93SAPC  H14B 8947   6.733   4.433   7.105 -2.0856  1.0090 -1.0177
   93SAPC  H14C 8948   6.634   4.291   7.144  0.8683 -3.1965 -1.0377
   93SAPC   C15 8949   6.540   4.487   6.952  0.4507  0.0931  0.3987
   93SAPC  H15A 8950   6.603   4.574   6.959  1.8666 -1.0307  3.0651
   93SAPC  H15B 8951   6.477   4.505   6.866  0.9172  1.3464  0.3083
   93SAPC  H15C 8952   6.476   4.483   7.039 -0.8396 -0.8479 -0.5541
   93SAPC   C11 8953   6.830   4.468   6.833  0.7807 -0.2433 -0.0846
   93SAPC  H11A 8954   6.885   4.460   6.737 -0.5379  0.0241 -0.8877
   93SAPC  H11B 8955   6.893   4.428   6.915  1.2016 -0.1454 -0.3588
   93SAPC     P 8956   6.718   4.675   6.718  0.2690  0.3162 -0.6851
   93SAPC   O13 8957   6.588   4.729   6.752  0.2163  0.5579  0.1227
   93SAPC   O14 8958   6.818   4.773   6.677  0.2048  0.1367 -0.4092
   93SAPC   O12 8959   6.786   4.601   6.846 -0.1950 -0.1642  0.0448
   93SAPC   O11 8960   6.684   4.576   6.607 -0.3979  0.8365  0.6719
   93SAPC    C1 8961   6.783   4.532   6.515 -0.0874  0.2035  0.3571
   93SAPC    HA 8962   6.887   4.556   6.546  1.1513 -1.0733 -2.4596
   93SAPC    HB 8963   6.773   4.424   6.494  1.8959  0.2736 -1.2619
   93SAPC    C2 8964   6.775   4.610   6.374 -0.2470  0.0577  0.0512
   93SAPC    HS 8965   6.801   4.715   6.400  1.8228  0.1443 -2.0512
   93SAPC   O21 8966   6.649   4.597   6.312 -0.3291  0.4313 -0.2917
   93SAPC   C21 8967   6.605   4.685   6.228  0.5596 -0.3217 -0.6771
   93SAPC   O22 8968   6.655   4.792   6.201  0.4200 -0.1022 -0.0044
   93SAPC   C22 8969   6.490   4.628   6.144  0.1334 -0.3570 -0.7481
   93SAPC   H2R 8970   6.522   4.525   6.117 -0.6306 -1.5543  2.5056
   93SAPC   H2S 8971   6.412   4.610   6.221  0.3529  0.9646 -0.1934
   93SAPC    C3 8972   6.885   4.551   6.278  0.5079  0.2990 -0.2023
   93SAPC    HX 8973   6.860   4.444   6.260 -0.1706  0.6257 -1.3115
   93SAPC    HY 8974   6.980   4.556   6.335 -0.1800 -0.5031  1.0787
   93SAPC   O31 8975   6.889   4.616   6.154 -0.2978  0.3820  0.0244
   93SAPC   C31 8976   6.955   4.732   6.159 -0.8264 -0.4719  1.0749
   93SAPC   O32 8977   6.997   4.792   6.253 -0.7745  0.0558 -0.7314
   93SAPC   C32 8978   6.960   4.784   6.010 -0.4479  0.9413  0.4751
   93SAPC   H2X 8979   6.861   4.823   5.979  0.1760  3.9053  1.8285
   93SAPC   H2Y 8980   6.989   4.693   5.953  0.0573  0.5197  1.3828
   93SAPC   C23 8981   6.452   4.713   6.019 -0.3902 -0.4867 -0.7668
   93SAPC   H3R 8982   6.430   4.819   6.045 -0.7842 -0.5923 -0.6667
   93SAPC   H3S 8983   6.358   4.672   5.979 -1.9132  2.2388 -0.2385
   93SAPC   C24 8984   6.563   4.704   5.906  0.0829  0.2725  0.0655
   93SAPC   H4R 8985   6.658   4.742   5.948  0.4456  0.3691 -0.8061
   93SAPC   H4S 8986   6.541   4.769   5.818  1.8939 -0.2605 -0.8458
   93SAPC   C25 8987   6.594   4.572   5.847  0.4990 -0.0507 -1.1306
   93SAPC   H5R 8988   6.638   4.503   5.921 -2.6756  0.4750  1.5130
   93SAPC   C26 8989   6.580   4.532   5.717 -0.7813  0.4530 -0.1967
   93SAPC   H6R 8990   6.589   4.426   5.690  1.5266  0.3510  0.7159
   93SAPC   C27 8991   6.529   4.623   5.606 -0.3912 -0.3639  0.2784
   93SAPC   H7R 8992   6.435   4.674   5.633 -0.8664 -0.7451 -0.5942
   93SAPC   H7S 8993   6.489   4.549   5.533 -2.3427  1.2415 -0.3637
   93SAPC   C28 8994   6.613   4.727   5.536  0.1532  0.6939 -0.7680
   93SAPC   H8R 8995   6.638   4.816   5.596  1.3395 -0.0474 -0.1178
   93SAPC   C29 8996   6.668   4.707   5.416  0.6260  0.2728 -0.0078
   93SAPC   H9R 8997   6.739   4.784   5.384  1.4447  0.1552  1.4721
   93SAPC  C210 8998   6.650   4.592   5.324  0.8968 -0.8296 -0.0580
   93SAPC  H10R 8999   6.618   4.500   5.377 -1.6678 -1.6190 -2.7274
   93SAPC  H10S 9000   6.750   4.563   5.286  2.0355 -0.7242  2.6115
   93SAPC  C211 9001   6.549   4.625   5.214 -0.4925 -0.0626  0.3335
   93SAPC  H11R 9002   6.455   4.569   5.223 -1.1933  0.7220 -1.6223
   93SAPC  C212 9003   6.594   4.679   5.093  0.4509  0.5777 -0.4453
   93SAPC  H12R 9004   6.513   4.708   5.025  0.6681 -0.4943 -1.1877
   93SAPC  C213 9005   6.727   4.741   5.067 -0.1587 -0.0680  0.0594
   93SAPC  H13R 9006   6.782   4.755   5.162 -1.3565 -1.2403  0.9650
   93SAPC  H13S 9007   6.719   4.842   5.022  0.7631  0.2205  0.5109
   93SAPC  C214 9008   6.804   4.645   4.972  0.1263 -0.3460  0.3589
   93SAPC  H14R 9009   6.886   4.595   5.026  0.9672 -1.2091 -1.6423
   93SAPC  C215 9010   6.795   4.629   4.839 -0.3266  0.0045 -0.7487
   93SAPC  H15R 9011   6.853   4.550   4.790 -0.7993 -1.4351  0.9030
   93SAPC  C216 9012   6.699   4.695   4.740 -0.0264  0.1392 -0.1224
   93SAPC  H16R 9013   6.604   4.723   4.790  0.2575 -0.9537  1.0714
   93SAPC  H16S 9014   6.669   4.621   4.662  1.9154 -1.0167  0.1591
   93SAPC  C217 9015   6.742   4.827   4.667  0.5531  0.3775 -0.0342
   93SAPC  H17R 9016   6.795   4.802   4.573  1.6197  0.9675  0.3991
   93SAPC  H17S 9017   6.818   4.875   4.732  0.8953 -1.0553  0.6430
   93SAPC  C218 9018   6.621   4.920   4.647 -0.1829  0.6422  0.4105
   93SAPC  H18R 9019   6.586   4.948   4.748  0.1413  1.4786  0.2999
   93SAPC  H18S 9020   6.546   4.858   4.594  1.8507 -1.5151 -0.1473
   93SAPC  C219 9021   6.655   5.037   4.566  0.5600 -0.7452 -0.2954
   93SAPC  H19R 9022   6.667   5.013   4.458  1.4181 -1.9163  0.0369
   93SAPC  H19S 9023   6.747   5.082   4.609  0.1270  1.8097 -1.8338
   93SAPC  C220 9024   6.546   5.147   4.563  0.0884  0.3152 -0.0986
   93SAPC  H20R 9025   6.455   5.104   4.516  0.3142  1.3025 -1.4881
   93SAPC  H20S 9026   6.577   5.230   4.497  1.2841 -0.8928 -1.1160
   93SAPC  H20T 9027   6.512   5.178   4.664 -1.5277  0.1344 -0.5544
   93SAPC   C33 9028   7.057   4.894   5.997 -0.3846 -0.6113 -0.0083
   93SAPC   H3X 9029   7.152   4.841   6.020 -0.2621  0.2136  1.4739
   93SAPC   H3Y 9030   7.051   4.973   6.074 -1.5964  0.7783 -1.4466
   93SAPC   C34 9031   7.050   4.967   5.860 -0.5714  0.1908 -0.5818
   93SAPC   H4X 9032   7.140   5.033   5.862  0.1172 -0.6237  3.0999
   93SAPC   H4Y 9033   6.959   5.026   5.840 -0.2959  0.3016 -1.5396
   93SAPC   C35 9034   7.077   4.876   5.740 -0.2135 -0.7235  0.2389
   93SAPC   H5X 9035   7.003   4.793   5.740  0.0156 -0.9864 -1.9002
   93SAPC   H5Y 9036   7.182   4.842   5.758  0.0710 -0.9030 -1.5435
   93SAPC   C36 9037   7.063   4.949   5.606 -0.7972 -0.0440 -0.3159
   93SAPC   H6X 9038   7.116   5.046   5.622 -0.5009 -0.2806  0.1652
   93SAPC   H6Y 9039   6.953   4.961   5.595 -1.3298 -2.3819  1.6173
   93SAPC   C37 9040   7.108   4.866   5.485  0.1242  0.1564 -0.7292
   93SAPC   H7X 9041   7.071   4.762   5.473 -2.0025  0.7465  0.2624
   93SAPC   H7Y 9042   7.217   4.849   5.499 -0.4731 -3.6312  0.4909
   93SAPC   C38 9043   7.085   4.940   5.356  0.1071  0.3398  0.6063
   93SAPC   H8X 9044   7.115   5.046   5.361  0.4399  0.2315  0.9151
   93SAPC   H8Y 9045   6.974   4.949   5.348  0.2066  0.5844 -0.6120
   93SAPC   C39 9046   7.151   4.871   5.239 -0.3762 -0.2313  0.4016
   93SAPC   H9X 9047   7.118   4.766   5.236  2.2826 -1.1327 -2.1231
   93SAPC   H9Y 9048   7.261   4.872   5.252 -0.1128  1.5869 -1.3909
   93SAPC  C310 9049   7.124   4.941   5.104 -0.2205 -0.7217  0.0694
   93SAPC  H10X 9050   7.150   5.049   5.113 -2.3763 -0.2485  1.2894
   93SAPC  H10Y 9051   7.014   4.949   5.102 -0.2137  2.7780  2.8244
   93SAPC  C311 9052   7.171   4.868   4.986 -0.0742  0.9626 -0.2684
   93SAPC  H11X 9053   7.121   4.770   4.972  2.6068 -1.1614  3.1733
   93SAPC  H11Y 9054   7.279   4.841   4.987 -0.3941 -0.4355 -0.5951
   93SAPC  C312 9055   7.150   4.964   4.865  0.0024 -0.6156 -0.7067
   93SAPC  H12X 9056   7.212   5.054   4.878 -2.0017  0.6901  0.3570
   93SAPC  H12Y 9057   7.045   4.994   4.885  1.0823  2.9495  0.2733
   93SAPC  C313 9058   7.167   4.903   4.728  0.1428 -0.6470  0.0812
   93SAPC  H13X 9059   7.107   4.810   4.733 -0.7765 -0.0157  1.3670
   93SAPC  H13Y 9060   7.276   4.884   4.719  0.0739 -1.4246  0.8416
   93SAPC  C314 9061   7.117   5.003   4.619  0.1543  0.0986  0.3065
   93SAPC  H14X 9062   7.183   5.092   4.622 -0.6251  0.6710  0.7762
   93SAPC  H14Y 9063   7.012   5.033   4.635  0.6516  2.0412  0.0853
   93SAPC  C315 9064   7.137   4.953   4.475 -0.3184 -0.1224  0.5473
   93SAPC  H15X 9065   7.049   4.898   4.435 -0.5322  0.6149 -0.0186
   93SAPC  H15Y 9066   7.226   4.890   4.457 -1.1890 -0.8022 -1.6280
   93SAPC  C316 9067   7.136   5.065   4.370  0.2093 -1.1184 -0.1893
   93SAPC  H16X 9068   7.157   5.021   4.271 -2.3067  1.8565 -2.2376
   93SAPC  H16Y 9069   7.213   5.140   4.398 -0.4733 -0.5891  0.3275
   93SAPC  C317 9070   7.003   5.146   4.343  0.1892 -0.1860 -0.3895
   93SAPC  H17X 9071   6.979   5.219   4.423 -1.3081  0.9688 -1.8013
   93SAPC  H17Y 9072   6.930   5.062   4.339 -1.1889  0.7195  2.8445
   93SAPC  C318 9073   7.000   5.232   4.215 -0.9028 -0.2427 -0.2512
   93SAPC  H18X 9074   6.897   5.272   4.203 -1.5652 -2.4034 -2.7930
   93SAPC  H18Y 9075   7.025   5.180   4.120 -0.2465 -0.1827 -0.1142
   93SAPC  H18Z 9076   7.068   5.318   4.231 -1.3262  0.2186 -0.9164
   94SAPC     N 9077   0.043   3.448   6.836 -0.0625 -0.1769  0.3462
   94SAPC   C12 9078  -0.106   3.462   6.794 -0.1175  0.2844  0.5727
   94SAPC  H12A 9079  -0.139   3.564   6.781  0.2437  0.0314 -3.6356
   94SAPC  H12B 9080  -0.159   3.422   6.879  0.9638 -0.1948  1.0431
   94SAPC   C13 9081   0.145   3.505   6.743  0.0794  0.1995 -0.1340
   94SAPC  H13A 9082   0.144   3.469   6.641  1.6908  0.0881 -0.1372
   94SAPC  H13B 9083   0.120   3.610   6.735 -0.5975  0.2728  2.2420
   94SAPC  H13C 9084   0.244   3.496   6.785 -0.2106  0.7942  0.6945
   94SAPC   C14 9085   0.067   3.506   6.973  1.0394 -0.0435  0.1582
   94SAPC  H14A 9086   0.168   3.477   6.998  0.2345 -4.3604 -0.8340
   94SAPC  H14B 9087   0.053   3.612   6.983  0.7183 -0.0542 -0.1612
   94SAPC  H14C 9088   0.010   3.451   7.045  0.1414 -0.4973 -0.8698
   94SAPC   C15 9089   0.083   3.298   6.842  0.0200 -0.3956 -0.1473
   94SAPC  H15A 9090   0.089   3.249   6.746 -2.4917 -0.7712 -0.1869
   94SAPC  H15B 9091   0.179   3.289   6.889 -0.2093  0.6078  0.5506
   94SAPC  H15C 9092   0.008   3.242   6.897  0.1202 -1.4418 -1.0604
   94SAPC   C11 9093  -0.147   3.381   6.671 -0.1726 -0.5650 -0.1264
   94SAPC  H11A 9094  -0.063   3.376   6.599  0.6241  0.5021  0.7144
   94SAPC  H11B 9095  -0.229   3.426   6.611  0.0991  0.2773  0.1329
   94SAPC     P 9096  -0.323   3.227   6.777 -0.3702 -0.3375 -0.1259
   94SAPC   O13 9097  -0.326   3.084   6.814 -0.0621 -0.3020  0.0191
   94SAPC   O14 9098  -0.345   3.329   6.886  0.0284  0.5195 -0.3742
   94SAPC   O12 9099  -0.185   3.248   6.709 -0.0830 -0.1991  0.1168
   94SAPC   O11 9100  -0.426   3.249   6.666  0.6548  0.1946 -0.5537
   94SAPC    C1 9101  -0.434   3.154   6.556 -0.0849  0.0210  0.2547
   94SAPC    HA 9102  -0.387   3.056   6.579 -1.0778 -0.5665 -0.1332
   94SAPC    HB 9103  -0.544   3.136   6.547 -0.0930  0.6852 -1.1548
   94SAPC    C2 9104  -0.374   3.194   6.415 -0.5485 -0.2168  0.5260
   94SAPC    HS 9105  -0.264   3.180   6.420 -0.5154 -0.8475 -1.2683
   94SAPC   O21 9106  -0.410   3.330   6.384  0.4912  0.5909  0.1590
   94SAPC   C21 9107  -0.329   3.387   6.296 -0.3990 -0.0783 -0.8326
   94SAPC   O22 9108  -0.219   3.343   6.270  0.2206  0.2750 -0.3870
   94SAPC   C22 9109  -0.376   3.518   6.241  0.4570  0.1183 -0.5009
   94SAPC   H2R 9110  -0.486   3.511   6.222  0.2058  1.5699  0.2430
   94SAPC   H2S 9111  -0.362   3.591   6.324  0.7940  0.6029 -0.9808
   94SAPC    C3 9112  -0.429   3.089   6.303 -0.9751 -0.7715 -0.5517
   94SAPC    HX 9113  -0.540   3.097   6.306 -1.0494 -1.8828 -0.0835
   94SAPC    HY 9114  -0.397   2.989   6.337  2.6406  0.4666  0.1350
   94SAPC   O31 9115  -0.374   3.115   6.174  0.0358  0.9400  0.2461
   94SAPC   C31 9116  -0.250   3.079   6.156  0.1080 -0.8253 -0.3090
   94SAPC   O32 9117  -0.182   3.018   6.240  0.2803 -0.0764 -0.0118
   94SAPC   C32 9118  -0.197   3.113   6.014  0.2669 -0.5534 -0.0453
   94SAPC   H2X 9119  -0.116   3.039   5.997 -0.0544 -1.4998  2.1707
   94SAPC   H2Y 9120  -0.156   3.215   6.030  0.2950 -0.6765  0.6893
   94SAPC   C23 9121  -0.289   3.552   6.123 -0.1081 -0.2119 -0.4907
   94SAPC   H3R 9122  -0.288   3.477   6.041 -0.9897 -0.6394 -0.1159
   94SAPC   H3S 9123  -0.182   3.563   6.150 -0.1300  2.1238 -1.1013
   94SAPC   C24 9124  -0.341   3.683   6.059  0.2539 -0.6274 -0.4785
   94SAPC   H4R 9125  -0.357   3.754   6.143 -0.2090  0.0854 -1.1623
   94SAPC   H4S 9126  -0.436   3.663   6.006 -1.2657  2.2901  0.9062
   94SAPC   C25 9127  -0.229   3.733   5.972  0.6700 -0.5196 -0.9815
   94SAPC   H5R 9128  -0.142   3.782   6.018 -0.6502  0.0142  1.0840
   94SAPC   C26 9129  -0.220   3.694   5.844  1.1456 -1.0004 -0.0847
   94SAPC   H6R 9130  -0.139   3.736   5.783  1.0499  0.0114  0.4523
   94SAPC   C27 9131  -0.312   3.616   5.765  0.4746  0.0749  0.3557
   94SAPC   H7R 9132  -0.291   3.659   5.664  3.2503 -0.8050  0.4940
   94SAPC   H7S 9133  -0.414   3.650   5.796  0.7102  0.3391  0.8448
   94SAPC   C28 9134  -0.306   3.464   5.751 -0.0914 -0.3113 -0.1726
   94SAPC   H8R 9135  -0.262   3.409   5.836 -1.7665 -0.8749  0.3698
   94SAPC   C29 9136  -0.342   3.386   5.644  0.7256  0.1848 -0.0493
   94SAPC   H9R 9137  -0.319   3.279   5.650  1.5484  0.3331 -0.3358
   94SAPC  C210 9138  -0.402   3.436   5.513  0.2296 -0.6488  0.0610
   94SAPC  H10R 9139  -0.321   3.452   5.439  1.7323  2.4342  2.1368
   94SAPC  H10S 9140  -0.437   3.541   5.522  0.1861 -0.8435  3.8271
   94SAPC  C211 9141  -0.513   3.341   5.471  0.1142  0.0720 -0.6612
   94SAPC  H11R 9142  -0.599   3.338   5.539  0.1985  0.6753 -0.5168
   94SAPC  C212 9143  -0.511   3.237   5.382  0.7571  0.0581  0.5754
   94SAPC  H12R 9144  -0.603   3.176   5.379  0.2775  0.7842 -1.2769
   94SAPC  C213 9145  -0.400   3.194   5.288  0.3194 -1.1379 -0.0054
   94SAPC  H13R 9146  -0.400   3.083   5.295  0.7234 -1.0583  1.4804
   94SAPC  H13S 9147  -0.303   3.228   5.329 -0.0312 -1.4239  1.1130
   94SAPC  C214 9148  -0.415   3.244   5.141 -0.5544 -0.4290 -0.5797
   94SAPC  H14R 9149  -0.483   3.178   5.084  1.0825 -2.3545 -0.4370
   94SAPC  C215 9150  -0.357   3.351   5.076 -0.0772  0.0649 -0.3269
   94SAPC  H15R 9151  -0.395   3.360   4.973 -2.2985 -0.6032  0.3650
   94SAPC  C216 9152  -0.256   3.445   5.131  0.0742  0.2517  0.1534
   94SAPC  H16R 9153  -0.176   3.458   5.055  0.9225 -0.6017  0.8733
   94SAPC  H16S 9154  -0.209   3.422   5.229  0.2580  2.6259  0.6810
   94SAPC  C217 9155  -0.323   3.583   5.152  0.7744 -0.2879  0.0150
   94SAPC  H17R 9156  -0.406   3.572   5.225  0.4567 -0.1431 -0.3250
   94SAPC  H17S 9157  -0.365   3.627   5.059 -0.1264  0.0968  0.5830
   94SAPC  C218 9158  -0.239   3.696   5.210  0.8966 -0.0141 -0.2719
   94SAPC  H18R 9159  -0.157   3.728   5.143 -0.2511  1.1967 -1.1550
   94SAPC  H18S 9160  -0.203   3.649   5.304  2.5545 -1.7015 -1.6915
   94SAPC  C219 9161  -0.306   3.828   5.245 -0.1817  0.5706 -0.6453
   94SAPC  H19R 9162  -0.401   3.807   5.300  0.1783  1.8211  0.4864
   94SAPC  H19S 9163  -0.340   3.885   5.156 -4.0884 -0.9076 -0.2923
   94SAPC  C220 9164  -0.212   3.919   5.327  0.1112  0.2227  0.2713
   94SAPC  H20R 9165  -0.256   4.020   5.338 -0.5918 -0.2007  1.4979
   94SAPC  H20S 9166  -0.112   3.927   5.278  0.4269 -0.3592  0.8028
   94SAPC  H20T 9167  -0.193   3.888   5.432 -2.6764  4.6036  2.3581
   94SAPC   C33 9168  -0.302   3.104   5.895  0.5091 -0.0759 -0.9532
   94SAPC   H3X 9169  -0.237   3.137   5.811 -0.4460  1.2085 -1.2126
   94SAPC   H3Y 9170  -0.378   3.184   5.908  1.2805  1.2619 -3.9259
   94SAPC   C34 9171  -0.366   2.972   5.880 -0.0172 -0.0599  0.3244
   94SAPC   H4X 9172  -0.447   2.945   5.951 -2.7847  0.4423 -2.4567
   94SAPC   H4Y 9173  -0.288   2.894   5.897 -0.9696 -0.8612  1.1447
   94SAPC   C35 9174  -0.421   2.956   5.734 -0.0022  0.5042  0.7126
   94SAPC   H5X 9175  -0.337   2.974   5.665  0.2025 -1.6067  0.3427
   94SAPC   H5Y 9176  -0.493   3.039   5.716  2.3835  2.5426  0.1163
   94SAPC   C36 9177  -0.476   2.814   5.710  0.3503 -1.1125 -0.5680
   94SAPC   H6X 9178  -0.552   2.772   5.780 -0.5226  0.1185 -0.7353
   94SAPC   H6Y 9179  -0.385   2.756   5.737  0.1521 -1.3375 -0.3715
   94SAPC   C37 9180  -0.541   2.791   5.573  0.4734  0.8877  0.1440
   94SAPC   H7X 9181  -0.584   2.689   5.573 -2.9050  2.0796 -2.9372
   94SAPC   H7Y 9182  -0.467   2.797   5.490  0.2568 -1.0313 -0.2428
   94SAPC   C38 9183  -0.665   2.874   5.541 -0.2128 -0.5928  0.1683
   94SAPC   H8X 9184  -0.624   2.968   5.496 -1.6748  0.3277  0.6926
   94SAPC   H8Y 9185  -0.721   2.900   5.633 -1.6351  0.6199 -0.9877
   94SAPC   C39 9186  -0.752   2.817   5.430  1.0247  0.2520 -0.1489
   94SAPC   H9X 9187  -0.854   2.863   5.429  1.8850  2.2815 -1.3606
   94SAPC   H9Y 9188  -0.768   2.709   5.448 -1.3006  0.6750  0.7090
   94SAPC  C310 9189  -0.696   2.840   5.288  0.6085  0.9587 -0.2557
   94SAPC  H10X 9190  -0.601   2.785   5.271  0.2689  0.7254 -1.5170
   94SAPC  H10Y 9191  -0.677   2.949   5.283 -0.3950  1.2435  1.4903
   94SAPC  C311 9192  -0.802   2.801   5.183 -0.3363 -0.2901 -0.4786
   94SAPC  H11X 9193  -0.882   2.875   5.204  2.2165  2.9487 -1.3636
   94SAPC  H11Y 9194  -0.852   2.708   5.217  0.3914 -0.5000  0.0417
   94SAPC  C312 9195  -0.756   2.813   5.032 -0.9025  0.3141  0.4086
   94SAPC  H12X 9196  -0.668   2.745   5.027 -1.5400 -0.4415 -0.8858
   94SAPC  H12Y 9197  -0.710   2.911   5.007  3.0065 -0.8193  2.2172
   94SAPC  C313 9198  -0.867   2.780   4.937 -0.2146 -0.0627 -0.3810
   94SAPC  H13X 9199  -0.958   2.839   4.961 -0.3712 -0.9330  1.3308
   94SAPC  H13Y 9200  -0.887   2.676   4.972  1.0589  0.1727  1.1800
   94SAPC  C314 9201  -0.824   2.782   4.792 -0.2436  0.1247  0.6331
   94SAPC  H14X 9202  -0.744   2.708   4.771 -1.1788 -1.6201  2.8996
   94SAPC  H14Y 9203  -0.794   2.881   4.751 -2.6193  1.3066  1.6014
   94SAPC  C315 9204  -0.937   2.741   4.696  0.3611  0.3834  0.1453
   94SAPC  H15X 9205  -1.034   2.789   4.720  0.7689  1.1273  0.3564
   94SAPC  H15Y 9206  -0.957   2.634   4.714  0.0674  0.6924  1.7657
   94SAPC  C316 9207  -0.898   2.766   4.545 -0.2344  0.4107 -0.0784
   94SAPC  H16X 9208  -0.904   2.875   4.527 -1.2259  0.3206 -0.3375
   94SAPC  H16Y 9209  -0.972   2.723   4.474 -0.5836 -0.9390  1.0455
   94SAPC  C317 9210  -0.757   2.722   4.512  0.3162  0.0755  0.1576
   94SAPC  H17X 9211  -0.748   2.616   4.543 -0.5627 -0.7115 -2.0437
   94SAPC  H17Y 9212  -0.675   2.785   4.550  0.3911  1.5696 -2.2478
   94SAPC  C318 9213  -0.739   2.714   4.352 -0.5218  0.5671 -0.5666
   94SAPC  H18X 9214  -0.809   2.645   4.299  2.4191 -0.5082 -3.4066
   94SAPC  H18Y 9215  -0.633   2.680   4.341 -1.5195 -2.5922 -1.6128
   94SAPC  H18Z 9216  -0.746   2.816   4.309  0.5830  1.8981  2.1797
   95SAPC     N 9217   3.378   5.323   2.125 -0.2590  0.4931  0.4913
   95SAPC   C12 9218   3.456   5.293   2.256 -0.4013  0.5105  1.1793
   95SAPC  H12A 9219   3.513   5.205   2.230 -0.0730  1.7112 -2.7842
   95SAPC  H12B 9220   3.385   5.258   2.330  1.2376 -2.0869  1.6689
   95SAPC   C13 9221   3.285   5.443   2.135  0.1069 -0.6720  1.0536
   95SAPC  H13A 9222   3.343   5.535   2.142 -1.7587  0.7872 -1.1306
   95SAPC  H13B 9223   3.222   5.459   2.049  2.2413  1.2590 -0.2617
   95SAPC  H13C 9224   3.236   5.448   2.231  1.4150  1.6258  1.6901
   95SAPC   C14 9225   3.459   5.338   2.000  0.8543 -0.1357 -0.6217
   95SAPC  H14A 9226   3.398   5.346   1.912  1.0581  1.4006 -0.6557
   95SAPC  H14B 9227   3.513   5.430   2.016 -1.1831  0.9823  0.2224
   95SAPC  H14C 9228   3.526   5.255   1.983  0.4534 -0.2469 -1.6848
   95SAPC   C15 9229   3.290   5.203   2.099  0.2460 -0.0887 -0.2179
   95SAPC  H15A 9230   3.234   5.170   2.186 -0.1378 -2.2492 -1.2079
   95SAPC  H15B 9231   3.220   5.224   2.019 -0.4778 -1.1010  0.1312
   95SAPC  H15C 9232   3.355   5.121   2.072  0.2866 -0.4592  0.9406
   95SAPC   C11 9233   3.556   5.402   2.298  0.2582  0.0145 -0.2510
   95SAPC  H11A 9234   3.493   5.493   2.312 -0.8052 -0.3188 -2.5255
   95SAPC  H11B 9235   3.625   5.415   2.212  0.1282 -4.6070 -1.2860
   95SAPC     P 9236   3.735   5.270   2.420 -0.3424 -0.3915 -0.1984
   95SAPC   O13 9237   3.682   5.131   2.387 -0.4228  0.6598  0.4728
   95SAPC   O14 9238   3.839   5.325   2.323  0.6022  0.3035  0.2391
   95SAPC   O12 9239   3.616   5.367   2.416  0.0918  0.3974  0.3664
   95SAPC   O11 9240   3.796   5.271   2.570  0.2042  0.4427  0.1003
   95SAPC    C1 9241   3.836   5.391   2.630  0.1470 -0.4370  0.0982
   95SAPC    HA 9242   3.828   5.483   2.569  1.6167  0.0399  0.5785
   95SAPC    HB 9243   3.768   5.405   2.716  1.5643 -0.4865  1.2612
   95SAPC    C2 9244   3.980   5.378   2.681  0.1267 -0.3673  0.2022
   95SAPC    HS 9245   4.039   5.337   2.596 -0.0766  0.4908 -0.3726
   95SAPC   O21 9246   3.988   5.274   2.780  0.8510 -0.8271  0.3820
   95SAPC   C21 9247   4.102   5.239   2.811 -0.6012  0.0522  0.3757
   95SAPC   O22 9248   4.203   5.255   2.739  0.2250 -0.1334 -0.3837
   95SAPC   C22 9249   4.100   5.151   2.929 -0.3789  0.2452 -0.4256
   95SAPC   H2R 9250   4.206   5.121   2.934 -0.5833 -0.2608  1.6220
   95SAPC   H2S 9251   4.069   5.210   3.018 -1.0045  0.4668 -0.7838
   95SAPC    C3 9252   4.044   5.507   2.736 -0.1194 -0.8001  0.1615
   95SAPC    HX 9253   4.060   5.579   2.652  0.6315 -0.8924  0.2244
   95SAPC    HY 9254   4.139   5.485   2.788  0.5345  2.1517  0.3973
   95SAPC   O31 9255   3.953   5.571   2.829 -0.5854  0.0146  0.0235
   95SAPC   C31 9256   3.961   5.524   2.951  0.1942 -0.5121  0.1655
   95SAPC   O32 9257   4.063   5.485   2.999 -0.1466 -0.1930  0.2407
   95SAPC   C32 9258   3.826   5.538   3.020 -0.1933  0.5152 -0.2030
   95SAPC   H2X 9259   3.745   5.507   2.951 -1.0263  0.0363  0.9498
   95SAPC   H2Y 9260   3.815   5.638   3.067 -3.6901 -0.8397  2.3122
   95SAPC   C23 9261   4.016   5.023   2.914 -0.1019 -0.1509 -0.3556
   95SAPC   H3R 9262   4.061   4.947   2.846  1.2749 -0.4492  0.8413
   95SAPC   H3S 9263   3.914   5.056   2.886 -0.1448 -1.8497 -2.4977
   95SAPC   C24 9264   4.009   4.943   3.044  0.0366 -0.3076  0.4778
   95SAPC   H4R 9265   3.919   4.878   3.046 -1.4118  1.5880 -0.2264
   95SAPC   H4S 9266   3.988   5.010   3.131 -1.3864 -0.0040 -0.0773
   95SAPC   C25 9267   4.138   4.866   3.055 -0.3688  0.4819 -0.0098
   95SAPC   H5R 9268   4.198   4.848   2.965 -0.8155  0.0337 -0.2215
   95SAPC   C26 9269   4.202   4.838   3.168 -0.6874 -0.4937  0.8368
   95SAPC   H6R 9270   4.300   4.788   3.168 -0.6446 -0.4310 -0.1310
   95SAPC   C27 9271   4.151   4.879   3.303  0.3390  0.0277  0.0759
   95SAPC   H7R 9272   4.054   4.833   3.331  1.2561 -2.2103 -0.1725
   95SAPC   H7S 9273   4.143   4.989   3.316  0.2654 -0.0435  0.6617
   95SAPC   C28 9274   4.257   4.840   3.407  0.1668 -0.0668 -0.0847
   95SAPC   H8R 9275   4.355   4.810   3.368  1.1165  1.6416  0.8655
   95SAPC   C29 9276   4.248   4.838   3.540  0.0521 -0.0416 -0.0952
   95SAPC   H9R 9277   4.337   4.802   3.594  1.5787 -1.1600 -3.1097
   95SAPC  C210 9278   4.117   4.859   3.616 -0.2941  0.5229 -0.1537
   95SAPC  H10R 9279   4.031   4.859   3.545  0.1396  1.3461 -0.6873
   95SAPC  H10S 9280   4.118   4.955   3.672 -0.9702 -0.7786  2.2184
   95SAPC  C211 9281   4.106   4.743   3.720  0.5152  0.1650  0.0274
   95SAPC  H11R 9282   4.052   4.653   3.686 -0.5086  0.8440 -0.1920
   95SAPC  C212 9283   4.132   4.748   3.852  0.0344 -0.4408  0.8762
   95SAPC  H12R 9284   4.113   4.665   3.922 -3.3519  0.6904  1.4921
   95SAPC  C213 9285   4.190   4.871   3.917  0.0701  0.0497 -0.4156
   95SAPC  H13R 9286   4.114   4.941   3.956  2.1612  2.2998 -0.1193
   95SAPC  H13S 9287   4.233   4.934   3.836  1.6878 -1.3866 -0.7449
   95SAPC  C214 9288   4.301   4.831   4.014 -0.3008  0.0979  0.1962
   95SAPC  H14R 9289   4.389   4.785   3.967  2.3838  2.6643  2.2790
   95SAPC  C215 9290   4.298   4.863   4.143  0.0794  0.0040  0.0514
   95SAPC  H15R 9291   4.386   4.850   4.208  0.0442 -0.7376 -0.0458
   95SAPC  C216 9292   4.180   4.925   4.215 -0.2859 -0.6172  0.2846
   95SAPC  H16R 9293   4.091   4.859   4.209  0.1993 -1.3822  1.2273
   95SAPC  H16S 9294   4.142   5.016   4.163 -0.6321  1.8482  4.3705
   95SAPC  C217 9295   4.200   4.955   4.364 -0.3096 -0.2656 -0.3478
   95SAPC  H17R 9296   4.114   5.011   4.407  0.4036 -0.2568  1.1348
   95SAPC  H17S 9297   4.296   5.010   4.372  0.9550 -2.3696 -0.2426
   95SAPC  C218 9298   4.202   4.826   4.448  0.7554  0.3801  0.3188
   95SAPC  H18R 9299   4.266   4.748   4.401 -1.3934 -0.1807 -1.9219
   95SAPC  H18S 9300   4.103   4.777   4.456  1.4035 -0.8402  1.0103
   95SAPC  C219 9301   4.236   4.867   4.590 -0.0713 -0.1174 -0.0328
   95SAPC  H19R 9302   4.177   4.954   4.626  0.6582  0.2633  0.2548
   95SAPC  H19S 9303   4.340   4.905   4.599 -0.1409 -0.1919  1.1332
   95SAPC  C220 9304   4.232   4.751   4.689  0.2842 -0.1098 -1.0200
   95SAPC  H20R 9305   4.292   4.781   4.779 -0.8180 -0.3450 -0.1896
   95SAPC  H20S 9306   4.284   4.660   4.653 -0.3488 -0.4757 -1.0066
   95SAPC  H20T 9307   4.128   4.732   4.722  1.5133  0.2374  4.0405
   95SAPC   C33 9308   3.821   5.452   3.145  0.7060 -0.2938 -0.1155
   95SAPC   H3X 9309   3.897   5.491   3.217  0.1284  1.6655 -0.5176
   95SAPC   H3Y 9310   3.841   5.346   3.120  1.1992 -0.2565  0.1015
   95SAPC   C34 9311   3.686   5.458   3.213 -0.4419 -0.3265 -0.4433
   95SAPC   H4X 9312   3.611   5.464   3.132 -1.0912  1.5337  0.2281
   95SAPC   H4Y 9313   3.685   5.560   3.258  2.3289 -0.0289 -0.9217
   95SAPC   C35 9314   3.668   5.341   3.305 -0.1116 -0.1114 -0.3712
   95SAPC   H5X 9315   3.659   5.246   3.248  3.3120 -2.0288  1.9063
   95SAPC   H5Y 9316   3.578   5.360   3.368 -0.8777  0.0166 -1.4764
   95SAPC   C36 9317   3.794   5.334   3.400  0.8727 -0.2651 -0.1516
   95SAPC   H6X 9318   3.835   5.435   3.422  1.2957 -0.1136 -1.5025
   95SAPC   H6Y 9319   3.880   5.290   3.344  0.7872  0.2510 -0.7029
   95SAPC   C37 9320   3.783   5.240   3.516 -0.7661 -0.3538 -0.3511
   95SAPC   H7X 9321   3.869   5.171   3.510  0.8018  1.5724 -1.0555
   95SAPC   H7Y 9322   3.683   5.191   3.513 -1.4643  1.0237 -0.7390
   95SAPC   C38 9323   3.789   5.317   3.650 -0.4849 -0.6861  0.3219
   95SAPC   H8X 9324   3.889   5.366   3.659 -0.1196 -0.8918 -2.0726
   95SAPC   H8Y 9325   3.791   5.234   3.724 -0.8188 -0.9232  0.0696
   95SAPC   C39 9326   3.666   5.401   3.665 -0.2476 -0.8871  0.1607
   95SAPC   H9X 9327   3.572   5.344   3.650 -1.4412  0.6445  1.4763
   95SAPC   H9Y 9328   3.652   5.485   3.593  0.1111 -2.2229 -1.5562
   95SAPC  C310 9329   3.653   5.457   3.806 -0.0012 -0.1103  0.8224
   95SAPC  H10X 9330   3.577   5.536   3.791  0.7222  0.4346 -0.0836
   95SAPC  H10Y 9331   3.747   5.511   3.832 -0.3575  0.7484  0.3402
   95SAPC  C311 9332   3.581   5.373   3.915  0.0928 -0.0103  0.0782
   95SAPC  H11X 9333   3.601   5.266   3.890  3.9369  0.0371  2.2610
   95SAPC  H11Y 9334   3.471   5.384   3.922 -0.0573 -0.7277 -0.9136
   95SAPC  C312 9335   3.635   5.391   4.059 -0.3705  0.2152  0.7045
   95SAPC  H12X 9336   3.585   5.320   4.128  0.9745 -2.7390 -1.1153
   95SAPC  H12Y 9337   3.620   5.499   4.078  2.1661  1.0273 -1.2366
   95SAPC  C313 9338   3.784   5.354   4.062 -0.1434 -0.1709  0.7387
   95SAPC  H13X 9339   3.851   5.419   4.001  0.5017  0.0451  1.6607
   95SAPC  H13Y 9340   3.780   5.258   4.007 -3.0116 -0.3789  1.1717
   95SAPC  C314 9341   3.852   5.354   4.201 -0.0990 -0.9873  0.5275
   95SAPC  H14X 9342   3.955   5.316   4.182  0.3334 -0.8609  2.4089
   95SAPC  H14Y 9343   3.804   5.273   4.261 -1.5870 -0.7615 -0.3274
   95SAPC  C315 9344   3.867   5.500   4.260 -0.0298  0.2628  0.4179
   95SAPC  H15X 9345   3.767   5.543   4.281 -0.7313 -1.2917  0.3636
   95SAPC  H15Y 9346   3.917   5.571   4.190  1.8399 -2.7504 -1.5266
   95SAPC  C316 9347   3.925   5.477   4.398  0.4469  0.2001  0.6809
   95SAPC  H16X 9348   4.022   5.425   4.385  0.6393  0.5570  0.6895
   95SAPC  H16Y 9349   3.855   5.415   4.458 -1.5029  0.8695 -0.7794
   95SAPC  C317 9350   3.959   5.606   4.479  0.0264  0.2043 -0.1731
   95SAPC  H17X 9351   4.015   5.677   4.414  1.8665  0.9877  2.1086
   95SAPC  H17Y 9352   4.018   5.562   4.563 -0.0665  0.2854 -0.0646
   95SAPC  C318 9353   3.836   5.673   4.546  0.5431 -0.7919 -0.1265
   95SAPC  H18X 9354   3.788   5.594   4.609 -0.7458 -1.8342 -2.3068
   95SAPC  H18Y 9355   3.772   5.716   4.467 -1.1141 -0.7353  1.1917
   95SAPC  H18Z 9356   3.880   5.754   4.609 -1.7320  0.4714 -0.0536
   96SAPC     N 9357   4.187   0.334   2.486  0.1998  0.7633  0.8245
   96SAPC   C12 9358   4.055   0.277   2.459 -0.5714 -0.5043  0.1230
   96SAPC  H12A 9359   3.981   0.338   2.508 -0.0796  0.0829  0.1452
   96SAPC  H12B 9360   4.044   0.182   2.509 -2.0992  0.1246  1.0439
   96SAPC   C13 9361   4.211   0.350   2.628  0.0424  0.4099 -0.4416
   96SAPC  H13A 9362   4.120   0.394   2.664  0.0755  1.0964 -1.1607
   96SAPC  H13B 9363   4.216   0.253   2.675  1.6681 -0.5233 -2.3432
   96SAPC  H13C 9364   4.306   0.401   2.642  1.0809 -2.2798  4.4001
   96SAPC   C14 9365   4.302   0.261   2.421  0.4134  0.8929  0.0470
   96SAPC  H14A 9366   4.289   0.156   2.443  0.4372  0.6415 -1.0531
   96SAPC  H14B 9367   4.288   0.246   2.315  0.8573 -0.6757  0.1867
   96SAPC  H14C 9368   4.403   0.290   2.447  2.3773 -3.1657 -2.1156
   96SAPC   C15 9369   4.191   0.472   2.427  0.5347  0.3801 -0.3782
   96SAPC  H15A 9370   4.182   0.466   2.319 -2.3951 -1.7639 -0.1409
   96SAPC  H15B 9371   4.106   0.524   2.468  2.0336  2.5740  0.1477
   96SAPC  H15C 9372   4.280   0.525   2.457 -0.2737  1.8959 -0.5585
   96SAPC   C11 9373   4.020   0.251   2.314  0.2255  0.4579  0.7267
   96SAPC  H11A 9374   4.096   0.186   2.265  0.6828  0.9868  0.7173
   96SAPC  H11B 9375   4.021   0.347   2.258 -1.6852 -0.7921 -1.6342
   96SAPC     P 9376   3.762   0.260   2.305  0.0754  0.5887 -0.3705
   96SAPC   O13 9377   3.770   0.360   2.200  0.2774 -0.0145 -0.7320
   96SAPC   O14 9378   3.655   0.160   2.300  0.0468  0.1487  0.0245
   96SAPC   O12 9379   3.896   0.181   2.299 -0.0461 -0.0991  0.3572
   96SAPC   O11 9380   3.779   0.319   2.445 -0.2395 -0.1580 -0.1541
   96SAPC    C1 9381   3.712   0.442   2.477  0.0686  0.6289  0.6189
   96SAPC    HA 9382   3.744   0.526   2.413  1.4744  0.2910  0.8309
   96SAPC    HB 9383   3.603   0.431   2.461  0.4686 -0.9733 -1.4242
   96SAPC    C2 9384   3.738   0.485   2.630 -0.5093  0.0345 -0.3009
   96SAPC    HS 9385   3.845   0.512   2.639 -0.6823  0.2760  1.3422
   96SAPC   O21 9386   3.694   0.367   2.702 -0.1134 -0.4921  0.1141
   96SAPC   C21 9387   3.796   0.304   2.759  0.2997 -0.2058 -0.1151
   96SAPC   O22 9388   3.906   0.356   2.784 -0.1021 -0.1440  0.6580
   96SAPC   C22 9389   3.758   0.160   2.802 -0.1901  0.2376  0.1897
   96SAPC   H2R 9390   3.655   0.143   2.763  0.4167 -2.8720 -0.3172
   96SAPC   H2S 9391   3.834   0.088   2.766 -0.6748  0.5675 -1.5900
   96SAPC    C3 9392   3.655   0.601   2.681  0.1699  0.0332 -0.1348
   96SAPC    HX 9393   3.553   0.569   2.651  0.3614  1.2189 -2.2878
   96SAPC    HY 9394   3.670   0.695   2.623  1.5544 -0.2907 -0.3321
   96SAPC   O31 9395   3.660   0.616   2.824 -0.4142  0.1799 -0.7964
   96SAPC   C31 9396   3.593   0.710   2.883  0.3911  0.0203 -0.5962
   96SAPC   O32 9397   3.524   0.792   2.828 -0.1262 -0.3773 -0.4091
   96SAPC   C32 9398   3.617   0.699   3.029 -0.6456  0.2520  0.0309
   96SAPC   H2X 9399   3.717   0.742   3.050 -0.2896 -0.6385  0.2391
   96SAPC   H2Y 9400   3.630   0.593   3.062  0.9004  0.4033 -0.0211
   96SAPC   C23 9401   3.755   0.147   2.953 -0.9327 -0.5557 -0.2933
   96SAPC   H3R 9402   3.672   0.205   2.997  0.9569  1.2134  1.1655
   96SAPC   H3S 9403   3.853   0.178   2.995  0.1992 -0.8831 -2.5270
   96SAPC   C24 9404   3.739   0.004   2.996  0.0571 -0.4600 -0.6477
   96SAPC   H4R 9405   3.833  -0.055   3.002 -0.8323 -1.7810  1.6832
   96SAPC   H4S 9406   3.685  -0.044   2.912 -0.2037 -1.3421  0.0058
   96SAPC   C25 9407   3.666  -0.014   3.130  0.5009  0.2541 -0.7556
   96SAPC   H5R 9408   3.690   0.061   3.207 -1.7474 -0.3720  0.6635
   96SAPC   C26 9409   3.571  -0.108   3.160 -0.5633 -0.2187  0.0024
   96SAPC   H6R 9410   3.546  -0.120   3.266 -0.0545 -0.5896  0.0842
   96SAPC   C27 9411   3.498  -0.215   3.078 -0.0902  0.9200 -0.2131
   96SAPC   H7R 9412   3.494  -0.180   2.973  4.0978  2.7847  0.0472
   96SAPC   H7S 9413   3.391  -0.234   3.103  0.6486 -0.0705  2.6216
   96SAPC   C28 9414   3.570  -0.354   3.087 -0.3767 -0.2998  0.1172
   96SAPC   H8R 9415   3.674  -0.355   3.049 -0.9682  0.0934 -1.5773
   96SAPC   C29 9416   3.538  -0.458   3.170  0.0522  0.3921 -0.0881
   96SAPC   H9R 9417   3.610  -0.541   3.168  0.2860  0.6008 -0.6362
   96SAPC  C210 9418   3.409  -0.482   3.248 -0.4550  0.7974  0.3780
   96SAPC  H10R 9419   3.386  -0.591   3.242  0.6152  0.6142 -1.2227
   96SAPC  H10S 9420   3.324  -0.424   3.208 -2.0898 -0.9557  1.1582
   96SAPC  C211 9421   3.432  -0.454   3.397  0.1877  0.2150 -0.1888
   96SAPC  H11R 9422   3.420  -0.347   3.420  1.0973  0.8259 -2.2752
   96SAPC  C212 9423   3.487  -0.525   3.497  0.1618 -0.1192  0.4675
   96SAPC  H12R 9424   3.473  -0.486   3.599 -1.8814 -1.6975  0.8393
   96SAPC  C213 9425   3.527  -0.669   3.475  0.1925  0.2473 -0.8214
   96SAPC  H13R 9426   3.504  -0.716   3.377  2.1611 -2.9522  0.1005
   96SAPC  H13S 9427   3.461  -0.730   3.540  1.5101  0.4732  0.8234
   96SAPC  C214 9428   3.668  -0.687   3.508 -0.4458  0.2055  0.5319
   96SAPC  H14R 9429   3.735  -0.691   3.420 -1.9563 -0.4467 -0.6414
   96SAPC  C215 9430   3.716  -0.720   3.627  0.1182 -0.0864  0.2113
   96SAPC  H15R 9431   3.825  -0.721   3.641  0.2341  0.1879 -0.6100
   96SAPC  C216 9432   3.643  -0.742   3.754 -0.0897  0.2832 -0.4233
   96SAPC  H16R 9433   3.662  -0.850   3.770 -1.3684 -0.2027 -1.8970
   96SAPC  H16S 9434   3.536  -0.747   3.724 -0.1175  1.7530 -0.6330
   96SAPC  C217 9435   3.650  -0.641   3.875 -0.2617 -0.3216  0.0078
   96SAPC  H17R 9436   3.605  -0.547   3.837  1.4775 -0.2059 -1.9942
   96SAPC  H17S 9437   3.757  -0.623   3.897  0.3358  0.9638 -3.2835
   96SAPC  C218 9438   3.570  -0.693   3.998  0.4430  0.1093  0.3523
   96SAPC  H18R 9439   3.595  -0.800   4.018  3.3616  0.6740  0.1770
   96SAPC  H18S 9440   3.466  -0.689   3.960  0.3460  0.0027  0.5993
   96SAPC  C219 9441   3.590  -0.614   4.130 -0.2329  0.2954  0.5506
   96SAPC  H19R 9442   3.553  -0.511   4.114 -0.6109  0.4343  2.1653
   96SAPC  H19S 9443   3.700  -0.606   4.147 -0.0529 -1.1827  0.2259
   96SAPC  C220 9444   3.535  -0.680   4.252  0.6408 -0.4237 -0.1770
   96SAPC  H20R 9445   3.577  -0.781   4.269  1.8938  0.3453  1.6346
   96SAPC  H20S 9446   3.424  -0.682   4.254  0.5789 -0.9594  3.3917
   96SAPC  H20T 9447   3.560  -0.616   4.340 -0.3605 -0.4879  0.1703
   96SAPC   C33 9448   3.520   0.780   3.118  0.2629 -0.0529 -0.1747
   96SAPC   H3X 9449   3.418   0.737   3.114 -0.5119  1.3161  2.4694
   96SAPC   H3Y 9450   3.522   0.877   3.064 -0.5643  1.2494  2.0017
   96SAPC   C34 9451   3.585   0.794   3.261  0.8836  0.2224  0.2777
   96SAPC   H4X 9452   3.513   0.859   3.317  0.4849  0.4809 -0.5222
   96SAPC   H4Y 9453   3.685   0.842   3.257  1.0658 -0.2447 -2.3310
   96SAPC   C35 9454   3.616   0.666   3.338 -0.3215 -0.4637  0.2605
   96SAPC   H5X 9455   3.716   0.625   3.312  0.3601  1.2870 -0.0186
   96SAPC   H5Y 9456   3.541   0.588   3.310 -0.3424 -0.0770 -0.8301
   96SAPC   C36 9457   3.608   0.695   3.485  0.1696 -1.0245 -0.1419
   96SAPC   H6X 9458   3.505   0.730   3.507 -0.7369 -2.9267 -1.0767
   96SAPC   H6Y 9459   3.689   0.768   3.505 -0.7561 -0.1330  0.4610
   96SAPC   C37 9460   3.640   0.573   3.573 -0.0469 -0.2223 -0.7281
   96SAPC   H7X 9461   3.738   0.536   3.537  1.3755  2.4604  0.0704
   96SAPC   H7Y 9462   3.553   0.507   3.552 -0.4233  0.4160 -1.2419
   96SAPC   C38 9463   3.644   0.598   3.724 -0.6696  0.8019 -0.3230
   96SAPC   H8X 9464   3.545   0.634   3.760 -1.9185 -0.7830 -1.9722
   96SAPC   H8Y 9465   3.735   0.657   3.747  1.7611 -2.0105 -2.0623
   96SAPC   C39 9466   3.667   0.463   3.795 -0.0664  0.3516 -0.0647
   96SAPC   H9X 9467   3.766   0.418   3.774  0.8522  0.8416  2.7514
   96SAPC   H9Y 9468   3.583   0.398   3.764  0.6149 -0.2246 -0.7383
   96SAPC  C310 9469   3.668   0.472   3.949 -0.1120  0.2232 -0.6000
   96SAPC  H10X 9470   3.567   0.500   3.984 -0.7891 -1.5499 -1.0033
   96SAPC  H10Y 9471   3.744   0.552   3.961  0.4441 -0.1960 -1.2673
   96SAPC  C311 9472   3.699   0.336   4.012  0.6271  0.3164 -0.0772
   96SAPC  H11X 9473   3.791   0.299   3.962 -1.2938 -4.9102 -0.3092
   96SAPC  H11Y 9474   3.630   0.255   3.980  0.3743  0.5371 -0.0971
   96SAPC  C312 9475   3.715   0.347   4.165 -0.2983  0.1413 -0.7334
   96SAPC  H12X 9476   3.619   0.380   4.209  0.1677 -1.8473  2.0150
   96SAPC  H12Y 9477   3.780   0.433   4.191 -0.3550 -0.6177  2.2199
   96SAPC  C313 9478   3.765   0.222   4.232 -0.7363 -0.2328 -0.6223
   96SAPC  H13X 9479   3.856   0.193   4.175 -1.9332 -3.6623 -1.0535
   96SAPC  H13Y 9480   3.688   0.142   4.221 -0.0215 -1.5367  2.6744
   96SAPC  C314 9481   3.785   0.236   4.378  0.4534 -0.2562 -0.1149
   96SAPC  H14X 9482   3.852   0.321   4.401 -0.1761  0.8453 -2.0719
   96SAPC  H14Y 9483   3.836   0.146   4.416  0.5418 -0.8186 -1.5193
   96SAPC  C315 9484   3.664   0.268   4.461  0.9440  0.5476 -0.0328
   96SAPC  H15X 9485   3.590   0.188   4.436  1.2879  0.1753  0.1284
   96SAPC  H15Y 9486   3.623   0.367   4.434 -1.2936 -0.2476  0.2453
   96SAPC  C316 9487   3.701   0.278   4.611  0.0773 -0.7822 -0.0151
   96SAPC  H16X 9488   3.772   0.360   4.634  1.7943 -1.9986 -0.7319
   96SAPC  H16Y 9489   3.756   0.184   4.634  2.1815  0.2858 -0.4313
   96SAPC  C317 9490   3.585   0.284   4.716 -0.4011  0.2525  0.7206
   96SAPC  H17X 9491   3.635   0.280   4.815  3.2794  0.1882 -0.9955
   96SAPC  H17Y 9492   3.516   0.196   4.714 -0.9681  0.6666  1.2979
   96SAPC  C318 9493   3.496   0.413   4.705 -0.1952 -1.3834  0.2932
   96SAPC  H18X 9494   3.557   0.505   4.717 -0.0783 -1.3724 -0.3752
   96SAPC  H18Y 9495   3.418   0.415   4.784  0.3621 -3.2694  0.9422
   96SAPC  H18Z 9496   3.450   0.426   4.605  1.1257 -0.1451 -0.1907
   97SAPC     N 9497   2.782   6.724   1.774  0.6053 -0.8950 -0.4479
   97SAPC   C12 9498   2.719   6.701   1.910  0.2722  0.2850 -0.3924
   97SAPC  H12A 9499   2.614   6.683   1.893  0.1514  1.0894 -0.5581
   97SAPC  H12B 9500   2.714   6.787   1.976 -1.5424 -1.1803  1.5080
   97SAPC   C13 9501   2.933   6.720   1.770 -0.8519 -0.3215  0.1790
   97SAPC  H13A 9502   2.964   6.638   1.833  0.2799 -1.0882 -1.3224
   97SAPC  H13B 9503   2.984   6.700   1.677 -0.5265  3.1530 -0.5116
   97SAPC  H13C 9504   2.979   6.808   1.812 -1.6198  0.2690 -0.2016
   97SAPC   C14 9505   2.722   6.620   1.688 -0.4427  1.0306  0.6104
   97SAPC  H14A 9506   2.761   6.524   1.716  0.2589  1.1479  0.0603
   97SAPC  H14B 9507   2.614   6.623   1.682 -0.4496  0.9858  0.7108
   97SAPC  H14C 9508   2.761   6.625   1.587  3.4248 -1.7266  1.7600
   97SAPC   C15 9509   2.733   6.857   1.733  0.2762 -0.0332  0.2911
   97SAPC  H15A 9510   2.767   6.935   1.799 -0.4524  0.9484 -0.4563
   97SAPC  H15B 9511   2.782   6.891   1.643  1.1189 -0.5300  0.5521
   97SAPC  H15C 9512   2.625   6.861   1.722  0.4790  0.7672 -1.8367
   97SAPC   C11 9513   2.760   6.573   1.987  0.0408 -0.9905 -0.4244
   97SAPC  H11A 9514   2.707   6.594   2.082 -0.0983  3.2800 -1.2280
   97SAPC  H11B 9515   2.871   6.577   1.993  0.0351  0.0659 -0.7411
   97SAPC     P 9516   2.567   6.404   1.924 -0.1682 -0.1644  0.4567
   97SAPC   O13 9517   2.469   6.512   1.931  0.5014  0.8333 -0.1591
   97SAPC   O14 9518   2.559   6.318   1.804 -0.3243  0.1981 -0.2881
   97SAPC   O12 9519   2.712   6.459   1.923  0.8537 -0.3526  0.0620
   97SAPC   O11 9520   2.550   6.296   2.041  0.5320 -0.4399  0.1563
   97SAPC    C1 9521   2.629   6.315   2.159  0.6808  0.0364  0.2812
   97SAPC    HA 9522   2.731   6.280   2.134  0.7724  1.2340 -1.1147
   97SAPC    HB 9523   2.622   6.415   2.207 -1.8413  0.4744 -0.8413
   97SAPC    C2 9524   2.564   6.212   2.271 -0.7259 -0.4788  0.2744
   97SAPC    HS 9525   2.566   6.108   2.233 -0.0670 -0.0834 -0.8357
   97SAPC   O21 9526   2.430   6.262   2.302 -0.0718  0.0557  0.3061
   97SAPC   C21 9527   2.333   6.218   2.228  0.7605  0.9818 -0.2385
   97SAPC   O22 9528   2.342   6.140   2.134  0.0832 -0.1255  0.1559
   97SAPC   C22 9529   2.199   6.275   2.280  0.4978 -0.2437  0.0352
   97SAPC   H2R 9530   2.190   6.230   2.381 -0.2137  0.9455  0.5067
   97SAPC   H2S 9531   2.205   6.385   2.294 -0.3178 -0.4346  2.1098
   97SAPC    C3 9532   2.639   6.211   2.404 -0.6130 -0.0955  0.6634
   97SAPC    HX 9533   2.655   6.320   2.419  0.6195  0.0905 -1.5774
   97SAPC    HY 9534   2.743   6.173   2.402 -0.0752  1.3252  0.6417
   97SAPC   O31 9535   2.569   6.158   2.521 -0.0459 -0.1114 -0.0104
   97SAPC   C31 9536   2.555   6.029   2.508 -0.0598 -0.4727 -0.0005
   97SAPC   O32 9537   2.556   5.960   2.411 -0.0367 -0.4072  0.0467
   97SAPC   C32 9538   2.501   5.977   2.651  0.1729 -0.2813 -0.1599
   97SAPC   H2X 9539   2.412   6.041   2.669  0.1471 -0.2505 -0.3855
   97SAPC   H2Y 9540   2.575   5.992   2.733 -1.3969  1.3248  1.0319
   97SAPC   C23 9541   2.076   6.234   2.200  0.9363  0.2140 -0.7907
   97SAPC   H3R 9542   2.065   6.124   2.192 -1.6183  0.1663  1.5765
   97SAPC   H3S 9543   2.074   6.275   2.096  1.1368 -0.7444 -1.1760
   97SAPC   C24 9544   1.941   6.280   2.268  0.0391  0.6410  0.1665
   97SAPC   H4R 9545   1.940   6.229   2.367  0.7896 -0.4926 -0.3837
   97SAPC   H4S 9546   1.856   6.240   2.208 -0.9981  0.5941  1.6210
   97SAPC   C25 9547   1.924   6.422   2.286  0.0021 -0.1290  0.2667
   97SAPC   H5R 9548   1.951   6.476   2.194  2.3693  1.4367  1.7466
   97SAPC   C26 9549   1.885   6.486   2.400  0.3959  0.2211 -0.2386
   97SAPC   H6R 9550   1.867   6.594   2.406 -3.6176 -0.3200 -0.1389
   97SAPC   C27 9551   1.859   6.418   2.532  0.3468 -0.5672 -0.0593
   97SAPC   H7R 9552   1.779   6.342   2.526 -2.6206  1.9921  3.2913
   97SAPC   H7S 9553   1.805   6.493   2.593 -1.4382 -0.4150 -1.7490
   97SAPC   C28 9554   1.986   6.374   2.601 -0.0705  0.4669 -0.1752
   97SAPC   H8R 9555   2.061   6.340   2.529 -0.2364 -1.3010  0.4406
   97SAPC   C29 9556   2.014   6.366   2.740  0.2246 -0.4558 -0.0739
   97SAPC   H9R 9557   2.114   6.336   2.773  0.1826 -0.6042 -0.0786
   97SAPC  C210 9558   1.912   6.384   2.849 -0.1629 -0.3386 -0.7176
   97SAPC  H10R 9559   1.888   6.286   2.897 -1.9621  1.1216  1.5981
   97SAPC  H10S 9560   1.821   6.420   2.797 -0.0875 -0.0985 -0.6820
   97SAPC  C211 9561   1.948   6.493   2.949 -0.9748  0.6104 -0.1775
   97SAPC  H11R 9562   1.976   6.583   2.892  0.4494 -0.4869 -1.2924
   97SAPC  C212 9563   1.949   6.491   3.089 -0.6992 -0.3728  1.0715
   97SAPC  H12R 9564   1.976   6.587   3.136  1.7908  0.0720 -1.0334
   97SAPC  C213 9565   1.902   6.385   3.178  0.3785 -0.2088  0.2427
   97SAPC  H13R 9566   1.894   6.290   3.122 -0.9076  0.7616 -1.3176
   97SAPC  H13S 9567   1.801   6.410   3.219  1.3992  1.8450  1.6424
   97SAPC  C214 9568   2.012   6.373   3.275 -0.0854 -0.0116 -0.1261
   97SAPC  H14R 9569   2.103   6.339   3.224 -0.5376 -3.0110  0.8702
   97SAPC  C215 9570   2.000   6.368   3.407 -0.4679  0.0526 -0.5357
   97SAPC  H15R 9571   2.092   6.370   3.467 -0.9489  1.9707  0.2145
   97SAPC  C216 9572   1.879   6.381   3.490  0.2900  0.6630 -0.0576
   97SAPC  H16R 9573   1.831   6.282   3.506  2.6589 -0.4952  0.3206
   97SAPC  H16S 9574   1.799   6.440   3.441 -0.0734 -0.2132 -0.5627
   97SAPC  C217 9575   1.913   6.432   3.630  0.0068  0.2781  0.4131
   97SAPC  H17R 9576   1.996   6.370   3.670  0.1886 -0.5677 -1.1798
   97SAPC  H17S 9577   1.821   6.412   3.689 -0.4849 -1.0053 -0.7059
   97SAPC  C218 9578   1.941   6.585   3.633  0.1695  0.0123  0.2554
   97SAPC  H18R 9579   2.036   6.595   3.577  0.8655 -0.3504  1.3406
   97SAPC  H18S 9580   1.967   6.609   3.738  2.4954 -2.1283  0.2540
   97SAPC  C219 9581   1.831   6.677   3.575 -0.4066  0.1737  0.0834
   97SAPC  H19R 9582   1.730   6.639   3.599 -0.8362  1.2132 -0.0272
   97SAPC  H19S 9583   1.845   6.655   3.466 -1.7733  1.5384 -0.4020
   97SAPC  C220 9584   1.837   6.822   3.613  0.0946  0.0651 -0.2630
   97SAPC  H20R 9585   1.742   6.873   3.588 -1.3119 -1.4967  1.6217
   97SAPC  H20S 9586   1.917   6.871   3.554 -0.0881  0.1905 -0.4078
   97SAPC  H20T 9587   1.864   6.838   3.720 -1.3764  0.1071  0.1248
   97SAPC   C33 9588   2.473   5.824   2.649  0.1292 -0.2714  0.3740
   97SAPC   H3X 9589   2.572   5.774   2.644 -0.0379 -0.4611 -1.4838
   97SAPC   H3Y 9590   2.412   5.799   2.560 -1.0769 -0.2504  1.1682
   97SAPC   C34 9591   2.403   5.763   2.780 -0.2913 -0.1684  0.0531
   97SAPC   H4X 9592   2.364   5.662   2.753  0.6727  0.0396 -2.4051
   97SAPC   H4Y 9593   2.310   5.820   2.800  0.0123  0.2040  0.4249
   97SAPC   C35 9594   2.490   5.762   2.901 -0.1593  0.0183 -0.2617
   97SAPC   H5X 9595   2.515   5.864   2.939 -0.1015  0.0781 -0.4628
   97SAPC   H5Y 9596   2.587   5.715   2.878  0.7624  0.5392  2.1890
   97SAPC   C36 9597   2.412   5.686   3.011 -0.3749  0.0821 -0.6923
   97SAPC   H6X 9598   2.421   5.577   2.990 -2.5767 -0.2071 -0.3301
   97SAPC   H6Y 9599   2.303   5.708   3.012 -0.4674 -0.1258  1.9445
   97SAPC   C37 9600   2.472   5.709   3.145  0.5184 -0.4217 -0.1108
   97SAPC   H7X 9601   2.458   5.817   3.170  2.8453 -0.3959  1.3895
   97SAPC   H7Y 9602   2.580   5.691   3.130  0.2330 -1.2786 -1.2816
   97SAPC   C38 9603   2.410   5.639   3.271 -0.4686 -0.2040  0.0550
   97SAPC   H8X 9604   2.430   5.530   3.256 -0.7308 -0.3279  0.5577
   97SAPC   H8Y 9605   2.306   5.671   3.255 -1.1634 -1.9537  0.7736
   97SAPC   C39 9606   2.486   5.683   3.396 -0.2463 -0.3510 -0.5785
   97SAPC   H9X 9607   2.506   5.791   3.382  0.4248 -0.4172 -0.1578
   97SAPC   H9Y 9608   2.583   5.629   3.395 -1.2228 -2.3862  1.9663
   97SAPC  C310 9609   2.407   5.658   3.528  0.4539 -0.0335 -0.4353
   97SAPC  H10X 9610   2.347   5.566   3.511 -1.2865  0.8734  0.5558
   97SAPC  H10Y 9611   2.347   5.748   3.552  1.1888  0.5436 -0.6914
   97SAPC  C311 9612   2.495   5.642   3.649  0.4909  0.1737 -0.6073
   97SAPC  H11X 9613   2.548   5.737   3.671  0.3614  0.3838 -1.1908
   97SAPC  H11Y 9614   2.571   5.572   3.607 -0.3392  0.8098 -3.4027
   97SAPC  C312 9615   2.428   5.575   3.769  0.0007 -0.1485  0.5492
   97SAPC  H12X 9616   2.367   5.485   3.746 -1.4666  0.8449  0.3585
   97SAPC  H12Y 9617   2.361   5.640   3.830  0.5981  0.9065  0.1103
   97SAPC  C313 9618   2.531   5.530   3.875 -0.1716 -0.0653 -0.2721
   97SAPC  H13X 9619   2.586   5.621   3.908  0.2924 -0.1457 -0.8052
   97SAPC  H13Y 9620   2.606   5.460   3.832 -0.5996  0.0059 -1.1501
   97SAPC  C314 9621   2.453   5.455   3.986 -0.1146  0.0045  0.8783
   97SAPC  H14X 9622   2.397   5.368   3.947 -0.1999 -0.0194  1.0552
   97SAPC  H14Y 9623   2.380   5.526   4.031  0.8733  0.1517  2.3463
   97SAPC  C315 9624   2.548   5.422   4.106  0.1455 -0.2718  0.7558
   97SAPC  H15X 9625   2.587   5.524   4.125 -3.3328  1.1515  1.1022
   97SAPC  H15Y 9626   2.628   5.351   4.077  0.8006  1.6906 -2.7439
   97SAPC  C316 9627   2.470   5.381   4.233  0.1258 -0.7448 -0.0297
   97SAPC  H16X 9628   2.403   5.467   4.252  2.1090  0.5510  1.7069
   97SAPC  H16Y 9629   2.544   5.368   4.316  0.8712  1.3364 -0.3124
   97SAPC  C317 9630   2.384   5.254   4.216 -0.6549 -0.7034  0.2766
   97SAPC  H17X 9631   2.446   5.165   4.192 -0.9277 -0.1990 -2.6389
   97SAPC  H17Y 9632   2.316   5.263   4.129 -0.5221 -1.2215  0.1161
   97SAPC  C318 9633   2.304   5.231   4.351  0.2776 -0.2299  0.5165
   97SAPC  H18X 9634   2.230   5.151   4.330  0.1744 -0.1090  0.4149
   97SAPC  H18Y 9635   2.242   5.317   4.384 -0.2557 -0.8503  1.1677
   97SAPC  H18Z 9636   2.377   5.204   4.431  0.0790  0.8430  1.0878
   98SAPC     N 9637   5.908   4.491   2.125  0.4447  0.2498  0.2957
   98SAPC   C12 9638   5.989   4.509   2.256 -0.1876 -0.1157 -0.0007
   98SAPC  H12A 9639   6.052   4.422   2.271  0.7334  0.8416  2.1105
   98SAPC  H12B 9640   5.922   4.524   2.339  1.2582  1.4057  0.9397
   98SAPC   C13 9641   5.858   4.624   2.068 -0.3694  0.3273 -0.4582
   98SAPC  H13A 9642   5.939   4.691   2.042 -0.4614  0.2019 -1.0957
   98SAPC  H13B 9643   5.818   4.615   1.968  1.5226  1.8418 -1.4176
   98SAPC  H13C 9644   5.790   4.677   2.133 -1.6019 -2.4920  0.7176
   98SAPC   C14 9645   5.995   4.427   2.017 -0.1875  0.4808  0.1733
   98SAPC  H14A 9646   6.021   4.326   2.047  1.1250  0.6705 -0.2689
   98SAPC  H14B 9647   5.949   4.423   1.919 -0.2162  1.2199  0.1528
   98SAPC  H14C 9648   6.091   4.474   2.004 -0.5131  1.5453  1.3963
   98SAPC   C15 9649   5.791   4.405   2.166 -0.2721  0.2574  0.5288
   98SAPC  H15A 9650   5.719   4.461   2.224 -0.4768  2.6074 -1.8139
   98SAPC  H15B 9651   5.735   4.376   2.078 -0.1242 -1.2065  0.8750
   98SAPC  H15C 9652   5.814   4.320   2.229  0.1024  1.1341  1.5856
   98SAPC   C11 9653   6.091   4.625   2.263 -0.2507 -0.4968 -0.4940
   98SAPC  H11A 9654   6.122   4.640   2.369  1.8062 -0.9806 -0.9889
   98SAPC  H11B 9655   6.051   4.716   2.214  1.0408  0.2066 -0.2922
   98SAPC     P 9656   6.308   4.473   2.216 -0.2710 -0.0143  0.0495
   98SAPC   O13 9657   6.252   4.369   2.310 -0.3017 -0.4028 -0.5152
   98SAPC   O14 9658   6.353   4.423   2.081  0.6377  0.1216  0.1805
   98SAPC   O12 9659   6.212   4.593   2.188  0.4014 -0.5187  0.4262
   98SAPC   O11 9660   6.423   4.546   2.287 -0.3816  0.2092  0.0254
   98SAPC    C1 9661   6.404   4.654   2.377  0.2142 -0.8363 -0.4640
   98SAPC    HA 9662   6.356   4.733   2.316  1.0345 -0.8043 -1.0881
   98SAPC    HB 9663   6.333   4.621   2.456 -0.5319 -0.6323 -1.0385
   98SAPC    C2 9664   6.532   4.712   2.442  0.8133  0.1125 -1.0571
   98SAPC    HS 9665   6.578   4.770   2.360  0.0557  0.7333 -1.0583
   98SAPC   O21 9666   6.614   4.601   2.482  0.4901 -0.8593  0.6487
   98SAPC   C21 9667   6.741   4.636   2.506  0.6089  0.3824 -0.7256
   98SAPC   O22 9668   6.797   4.735   2.467  0.5381 -0.5207 -0.2389
   98SAPC   C22 9669   6.797   4.525   2.592 -0.1243  0.2310 -0.1413
   98SAPC   H2R 9670   6.716   4.474   2.650  0.0241 -1.1804 -1.1106
   98SAPC   H2S 9671   6.827   4.441   2.525  0.4058  0.6312 -0.4021
   98SAPC    C3 9672   6.496   4.811   2.551  0.0559 -0.5170  0.7436
   98SAPC    HX 9673   6.452   4.904   2.508  3.0014  1.5547  1.9178
   98SAPC    HY 9674   6.584   4.856   2.602 -0.4492  2.2474 -0.6458
   98SAPC   O31 9675   6.406   4.759   2.648 -0.3377 -0.2375  0.0749
   98SAPC   C31 9676   6.458   4.690   2.749  0.2247 -0.3822 -0.0222
   98SAPC   O32 9677   6.578   4.671   2.770  0.2533  1.1514 -0.2458
   98SAPC   C32 9678   6.346   4.629   2.831 -0.0214 -0.5734  0.5286
   98SAPC   H2X 9679   6.270   4.578   2.768 -0.1379 -1.7286  1.5625
   98SAPC   H2Y 9680   6.291   4.699   2.897  0.0100 -0.6998  0.6897
   98SAPC   C23 9681   6.903   4.564   2.696 -0.0494  0.5327  0.2963
   98SAPC   H3R 9682   6.863   4.626   2.779 -0.7451  0.4238  0.0506
   98SAPC   H3S 9683   6.979   4.635   2.657  0.5187  0.2135  0.8038
   98SAPC   C24 9684   6.977   4.442   2.753 -0.2150  0.1155  0.6307
   98SAPC   H4R 9685   7.058   4.475   2.822 -0.3269  0.6301  0.5248
   98SAPC   H4S 9686   7.031   4.400   2.665  2.4427  1.8129  1.3211
   98SAPC   C25 9687   6.880   4.345   2.816  0.4294  0.5209 -0.4543
   98SAPC   H5R 9688   6.830   4.267   2.757 -0.4583  1.6392 -1.2231
   98SAPC   C26 9689   6.861   4.340   2.951  0.7100 -0.6355 -0.1303
   98SAPC   H6R 9690   6.788   4.263   2.982 -1.4222  1.0617 -0.6942
   98SAPC   C27 9691   6.921   4.423   3.062 -0.0813 -0.3914  0.7122
   98SAPC   H7R 9692   7.019   4.467   3.036 -1.2764  1.5734 -0.7738
   98SAPC   H7S 9693   6.947   4.350   3.142  0.8880  1.1746  1.8936
   98SAPC   C28 9694   6.831   4.535   3.104 -0.0251  0.2651 -0.1140
   98SAPC   H8R 9695   6.781   4.581   3.017 -0.1966 -0.9305 -0.6648
   98SAPC   C29 9696   6.850   4.605   3.220  0.0671 -0.2573  0.6905
   98SAPC   H9R 9697   6.792   4.696   3.241  0.4816  0.4290 -0.9920
   98SAPC  C210 9698   6.950   4.580   3.331 -0.2135  0.3230 -0.3862
   98SAPC  H10R 9699   6.995   4.678   3.357  1.0316 -0.2950 -0.1487
   98SAPC  H10S 9700   7.033   4.516   3.295  0.4916  1.7568 -1.4011
   98SAPC  C211 9701   6.893   4.505   3.447  0.1287  0.2152 -0.1794
   98SAPC  H11R 9702   6.827   4.424   3.413 -1.1758  1.3575 -0.4569
   98SAPC  C212 9703   6.905   4.525   3.579 -0.1804  0.2316  0.7924
   98SAPC  H12R 9704   6.883   4.441   3.646  3.7467 -2.6198 -1.0861
   98SAPC  C213 9705   6.982   4.632   3.643 -0.2402  0.0322 -0.1136
   98SAPC  H13R 9706   6.913   4.662   3.725 -1.4057 -0.4380 -0.8950
   98SAPC  H13S 9707   6.993   4.723   3.582 -1.2324  0.3966  0.2251
   98SAPC  C214 9708   7.108   4.577   3.710 -0.1935 -0.3089 -0.0750
   98SAPC  H14R 9709   7.162   4.499   3.654 -0.8318  0.1112 -1.3325
   98SAPC  C215 9710   7.168   4.632   3.819 -0.0169  0.5594  0.3947
   98SAPC  H15R 9711   7.258   4.580   3.855 -0.5294 -2.1731 -1.9235
   98SAPC  C216 9712   7.114   4.747   3.902  0.6339  0.3771  0.3778
   98SAPC  H16R 9713   7.070   4.827   3.839  1.3240  0.6671  0.2553
   98SAPC  H16S 9714   7.204   4.795   3.947  1.4361  0.2535 -1.0288
   98SAPC  C217 9715   7.015   4.687   4.010  0.4782 -0.3064 -0.2430
   98SAPC  H17R 9716   7.068   4.603   4.059  2.8771  1.4884  0.4473
   98SAPC  H17S 9717   6.919   4.656   3.964  0.4653  0.1832 -0.5528
   98SAPC  C218 9718   6.989   4.799   4.111 -0.2813 -0.0343 -0.4986
   98SAPC  H18R 9719   6.972   4.898   4.064 -1.2694 -0.6451 -1.4687
   98SAPC  H18S 9720   7.083   4.816   4.169 -0.3752  0.8451 -0.5941
   98SAPC  C219 9721   6.873   4.774   4.215  0.2669  0.2537  0.3039
   98SAPC  H19R 9722   6.783   4.737   4.161 -0.5303  0.4881  1.4412
   98SAPC  H19S 9723   6.845   4.869   4.266 -1.5544  1.1084 -2.0807
   98SAPC  C220 9724   6.904   4.670   4.323  0.3435 -0.5700  0.1095
   98SAPC  H20R 9725   6.905   4.568   4.279 -2.2070 -0.4356 -0.4292
   98SAPC  H20S 9726   6.828   4.677   4.404  1.2490  0.1973  0.9197
   98SAPC  H20T 9727   7.002   4.695   4.370 -0.0796  0.7253  0.3384
   98SAPC   C33 9728   6.400   4.515   2.923  0.3578 -0.2879 -0.4240
   98SAPC   H3X 9729   6.501   4.479   2.895  0.8409  1.2444 -0.7662
   98SAPC   H3Y 9730   6.337   4.424   2.926 -0.5532  0.3607  1.0304
   98SAPC   C34 9731   6.408   4.567   3.073  0.5289 -0.2535 -0.6811
   98SAPC   H4X 9732   6.305   4.604   3.091 -0.0185 -1.5515 -1.0211
   98SAPC   H4Y 9733   6.475   4.652   3.097  2.2942 -1.2442 -1.9119
   98SAPC   C35 9734   6.436   4.440   3.164 -0.2883 -0.0811  0.5185
   98SAPC   H5X 9735   6.512   4.381   3.109 -0.1485 -1.1714  1.8412
   98SAPC   H5Y 9736   6.344   4.379   3.166 -1.0518  0.9792 -0.5956
   98SAPC   C36 9737   6.489   4.485   3.301  0.0826 -0.4627 -0.5935
   98SAPC   H6X 9738   6.553   4.576   3.295 -1.2745  0.7693  1.9119
   98SAPC   H6Y 9739   6.540   4.399   3.350  1.1266  0.1045 -0.6633
   98SAPC   C37 9740   6.366   4.517   3.392  0.3905  0.1080  0.2018
   98SAPC   H7X 9741   6.283   4.445   3.374 -1.6519  2.2584  0.6973
   98SAPC   H7Y 9742   6.327   4.621   3.392  0.6447  0.2032  0.4469
   98SAPC   C38 9743   6.405   4.488   3.539  0.3066  0.2119  0.3325
   98SAPC   H8X 9744   6.511   4.518   3.551  0.7479 -0.1596 -2.0578
   98SAPC   H8Y 9745   6.402   4.378   3.553 -1.2913  0.2474  0.3641
   98SAPC   C39 9746   6.313   4.551   3.638  0.4557  0.5924 -0.3873
   98SAPC   H9X 9747   6.208   4.518   3.625  0.2973  1.7803 -2.4759
   98SAPC   H9Y 9748   6.330   4.661   3.640  3.5939  0.2417 -1.0775
   98SAPC  C310 9749   6.336   4.507   3.786  0.4956  0.4100 -0.0975
   98SAPC  H10X 9750   6.442   4.507   3.819  0.3096 -3.9933  1.1448
   98SAPC  H10Y 9751   6.324   4.397   3.779  0.8150  0.4126 -0.7899
   98SAPC  C311 9752   6.239   4.563   3.893 -0.4743 -0.2101 -1.0043
   98SAPC  H11X 9753   6.135   4.561   3.854 -0.8608 -0.7228  0.0056
   98SAPC  H11Y 9754   6.253   4.673   3.901  0.5613 -0.3444 -0.7851
   98SAPC  C312 9755   6.243   4.497   4.030 -0.3255  0.1413  0.3184
   98SAPC  H12X 9756   6.205   4.570   4.104 -0.2955 -0.3598  0.8331
   98SAPC  H12Y 9757   6.352   4.492   4.050 -0.1656  0.0161 -0.5354
   98SAPC  C313 9758   6.172   4.362   4.041  0.6640 -1.7869 -0.4499
   98SAPC  H13X 9759   6.226   4.282   3.987  1.4070 -0.9952 -0.8978
   98SAPC  H13Y 9760   6.069   4.376   4.000  1.4915  1.9335 -1.6086
   98SAPC  C314 9761   6.168   4.319   4.193 -0.0012  0.0715  0.2402
   98SAPC  H14X 9762   6.125   4.399   4.256 -1.1587  0.5230 -1.0727
   98SAPC  H14Y 9763   6.273   4.306   4.228  0.5884 -1.0212 -1.7395
   98SAPC  C315 9764   6.105   4.182   4.216  0.8938 -0.6418 -0.1714
   98SAPC  H15X 9765   6.164   4.109   4.155  2.5639  0.0591  0.5522
   98SAPC  H15Y 9766   6.001   4.189   4.178  0.2707  4.7242  1.6723
   98SAPC  C316 9767   6.108   4.149   4.362  0.0643 -0.5240 -0.1882
   98SAPC  H16X 9768   6.064   4.230   4.424  2.1411 -1.6321  2.9208
   98SAPC  H16Y 9769   6.214   4.139   4.391 -0.1626  0.0507  0.8950
   98SAPC  C317 9770   6.031   4.016   4.397 -0.2589 -1.0899 -0.0684
   98SAPC  H17X 9771   6.081   3.932   4.344  0.7796 -0.5326 -0.0035
   98SAPC  H17Y 9772   5.923   4.024   4.371 -0.2630  0.5700  0.2998
   98SAPC  C318 9773   6.031   3.982   4.553 -0.0214  0.4153  0.5427
   98SAPC  H18X 9774   5.983   3.882   4.559 -0.8173  0.7199 -0.5034
   98SAPC  H18Y 9775   5.979   4.062   4.609  1.1141  0.9840  0.8090
   98SAPC  H18Z 9776   6.136   3.972   4.590 -0.2705  0.4456  1.2656
   99SAPC     N 9777   3.890   3.701   2.678 -0.2431 -0.4920 -0.3330
   99SAPC   C12 9778   3.970   3.826   2.684  0.4052  0.4347 -0.2192
   99SAPC  H12A 9779   3.918   3.894   2.750  1.6017  1.6262 -0.4752
   99SAPC  H12B 9780   3.976   3.857   2.581 -1.9526 -2.7249 -1.4661
   99SAPC   C13 9781   3.952   3.585   2.603 -0.3513  0.1684  0.2522
   99SAPC  H13A 9782   3.986   3.610   2.504 -0.6388 -0.1739  0.0648
   99SAPC  H13B 9783   4.031   3.535   2.658 -0.2380  1.4134  1.2766
   99SAPC  H13C 9784   3.881   3.504   2.595  1.9858 -2.0263  0.4449
   99SAPC   C14 9785   3.860   3.649   2.810  0.3177 -0.6660 -0.0273
   99SAPC  H14A 9786   3.817   3.715   2.884 -2.2368 -1.4068 -0.7429
   99SAPC  H14B 9787   3.784   3.572   2.808 -2.0187  1.5346 -1.8256
   99SAPC  H14C 9788   3.952   3.612   2.852 -0.5700  0.2483  2.9768
   99SAPC   C15 9789   3.763   3.734   2.612  0.1679  0.5267 -0.0417
   99SAPC  H15A 9790   3.706   3.800   2.676 -0.6271 -1.1198  1.0088
   99SAPC  H15B 9791   3.768   3.786   2.517 -2.2284  0.7777 -0.0802
   99SAPC  H15C 9792   3.707   3.644   2.595  1.4979 -0.6541  1.5348
   99SAPC   C11 9793   4.114   3.811   2.741 -0.6429  0.5059  0.5068
   99SAPC  H11A 9794   4.126   3.729   2.815  0.9826  1.1706  1.0337
   99SAPC  H11B 9795   4.139   3.904   2.795  0.6166  1.7700 -2.0656
   99SAPC     P 9796   4.259   3.891   2.540 -0.2648 -0.1440  0.0385
   99SAPC   O13 9797   4.377   3.834   2.471  0.1802 -0.3592  0.2539
   99SAPC   O14 9798   4.161   3.950   2.448  0.3252  0.6814  0.1785
   99SAPC   O12 9799   4.194   3.780   2.633  0.6571 -0.4210 -0.1062
   99SAPC   O11 9800   4.313   4.017   2.623 -0.5248  0.6626 -0.7462
   99SAPC    C1 9801   4.447   4.013   2.679 -0.0623  0.4175 -1.1353
   99SAPC    HA 9802   4.531   4.002   2.607  1.3989 -0.0564  0.5868
   99SAPC    HB 9803   4.478   4.109   2.727  1.1609 -0.4559 -0.1287
   99SAPC    C2 9804   4.479   3.909   2.799 -0.0212  0.0979 -0.1314
   99SAPC    HS 9805   4.440   3.813   2.759 -1.2797  0.6612 -0.3071
   99SAPC   O21 9806   4.407   3.941   2.913  0.5420  0.5884  0.0026
   99SAPC   C21 9807   4.379   3.848   3.005  0.3745  0.6263  0.1152
   99SAPC   O22 9808   4.406   3.730   2.999  0.0250  0.1878  0.0164
   99SAPC   C22 9809   4.288   3.903   3.107  0.1405  0.0025 -0.2563
   99SAPC   H2R 9810   4.208   3.943   3.041 -1.2011 -2.8822 -0.5348
   99SAPC   H2S 9811   4.239   3.823   3.167 -1.1810 -0.1519 -1.4862
   99SAPC    C3 9812   4.634   3.893   2.821  0.5422  0.1375 -0.3878
   99SAPC    HX 9813   4.672   3.984   2.873 -0.3702  1.0070 -1.1982
   99SAPC    HY 9814   4.692   3.884   2.726 -0.6596 -3.3017 -0.9238
   99SAPC   O31 9815   4.662   3.772   2.896 -0.0736  0.2481  0.1430
   99SAPC   C31 9816   4.738   3.782   3.012 -0.4166 -0.6125  0.4216
   99SAPC   O32 9817   4.801   3.880   3.049 -0.5014 -0.5191  0.0324
   99SAPC   C32 9818   4.732   3.644   3.085 -0.3640 -0.0587  0.0423
   99SAPC   H2X 9819   4.822   3.585   3.061 -0.1027 -2.0220  4.8282
   99SAPC   H2Y 9820   4.640   3.589   3.056  0.4247 -0.5689 -1.5689
   99SAPC   C23 9821   4.364   4.005   3.191  0.0942  0.0664 -0.6422
   99SAPC   H3R 9822   4.403   4.083   3.123 -3.1248  0.3590 -2.3321
   99SAPC   H3S 9823   4.454   3.956   3.233  0.6723  0.3992 -1.4857
   99SAPC   C24 9824   4.281   4.064   3.302 -0.0981 -0.9905 -0.4680
   99SAPC   H4R 9825   4.233   3.983   3.362 -0.6864  0.4052  1.0142
   99SAPC   H4S 9826   4.200   4.120   3.251  1.0222  0.0631 -1.1493
   99SAPC   C25 9827   4.342   4.169   3.391 -0.6216  0.5076  0.1859
   99SAPC   H5R 9828   4.354   4.262   3.334  0.4673  0.3902  0.1972
   99SAPC   C26 9829   4.372   4.171   3.518  1.0795  0.2219  0.3288
   99SAPC   H6R 9830   4.429   4.257   3.555 -1.3233  1.0141  2.4763
   99SAPC   C27 9831   4.359   4.053   3.617  0.0703 -0.4034  0.2251
   99SAPC   H7R 9832   4.335   3.955   3.571 -3.8781  0.3799  0.2505
   99SAPC   H7S 9833   4.268   4.074   3.677 -0.2286  0.1200 -0.4098
   99SAPC   C28 9834   4.482   4.036   3.705  0.6959  0.0323 -0.8971
   99SAPC   H8R 9835   4.579   4.074   3.672  0.6915  0.9368  0.0712
   99SAPC   C29 9836   4.484   3.984   3.827  0.3947  0.4478 -0.2341
   99SAPC   H9R 9837   4.584   3.986   3.872  0.6600 -0.3735 -0.7713
   99SAPC  C210 9838   4.362   3.933   3.912  0.2170  0.1515 -0.0253
   99SAPC  H10R 9839   4.399   3.835   3.951  1.5466  0.6119 -0.0652
   99SAPC  H10S 9840   4.268   3.918   3.854  0.0725  0.3577  0.1553
   99SAPC  C211 9841   4.345   4.015   4.037 -0.4102  0.8267  0.2648
   99SAPC  H11R 9842   4.422   4.002   4.115 -1.5445  1.9718  1.6464
   99SAPC  C212 9843   4.252   4.107   4.055 -0.2181 -0.1524 -0.0623
   99SAPC  H12R 9844   4.253   4.162   4.150  0.8483 -1.5183  0.7545
   99SAPC  C213 9845   4.155   4.162   3.958 -0.2639  0.3738 -0.3646
   99SAPC  H13R 9846   4.063   4.182   4.016 -1.7170 -2.5641 -1.4548
   99SAPC  H13S 9847   4.132   4.078   3.889  0.7940 -0.5798  0.4032
   99SAPC  C214 9848   4.208   4.287   3.881  0.3877  0.1474 -0.2374
   99SAPC  H14R 9849   4.307   4.323   3.912  1.8626 -2.3432 -1.7166
   99SAPC  C215 9850   4.135   4.347   3.780 -0.0058 -0.4938  0.0730
   99SAPC  H15R 9851   4.186   4.418   3.714  1.7241 -2.6619 -1.0542
   99SAPC  C216 9852   3.999   4.313   3.736  0.5551  0.0119 -0.1431
   99SAPC  H16R 9853   3.926   4.394   3.757 -0.4578 -1.1007  0.7452
   99SAPC  H16S 9854   3.963   4.222   3.788  0.5520  0.0333 -0.1084
   99SAPC  C217 9855   3.994   4.289   3.582 -0.1909 -0.5891  0.8661
   99SAPC  H17R 9856   3.904   4.237   3.541 -1.1004  0.6637  1.2172
   99SAPC  H17S 9857   4.090   4.240   3.556 -0.5893 -0.2008 -1.6855
   99SAPC  C218 9858   4.002   4.418   3.499  0.2864 -0.3175  0.2700
   99SAPC  H18R 9859   4.091   4.479   3.527 -1.0971  1.1821  1.5529
   99SAPC  H18S 9860   3.914   4.477   3.532  0.0537 -0.7139  0.3618
   99SAPC  C219 9861   3.980   4.396   3.349  0.1953 -0.6122 -0.1796
   99SAPC  H19R 9862   3.888   4.341   3.322 -0.0648  0.0205 -0.6090
   99SAPC  H19S 9863   4.065   4.326   3.330  0.5090 -1.1060  2.6835
   99SAPC  C220 9864   3.976   4.517   3.253 -0.1788 -0.6593 -0.1276
   99SAPC  H20R 9865   3.903   4.594   3.282 -1.0918 -1.4643 -0.2481
   99SAPC  H20S 9866   3.964   4.485   3.147 -0.8609 -2.2207  0.3932
   99SAPC  H20T 9867   4.074   4.570   3.256 -0.2010 -0.6479  2.1349
   99SAPC   C33 9868   4.730   3.667   3.239  0.3677  0.2117  0.6364
   99SAPC   H3X 9869   4.798   3.745   3.280  0.8480 -1.0795  2.4123
   99SAPC   H3Y 9870   4.748   3.571   3.292  0.8442 -0.5319 -0.8341
   99SAPC   C34 9871   4.585   3.703   3.280  0.9650 -0.0081  0.6177
   99SAPC   H4X 9872   4.511   3.622   3.260 -0.0043  1.1661 -0.7572
   99SAPC   H4Y 9873   4.539   3.778   3.212 -0.9283 -2.5350 -1.0628
   99SAPC   C35 9874   4.570   3.736   3.425  0.4506  0.4901 -0.3877
   99SAPC   H5X 9875   4.487   3.809   3.436  0.0583 -0.2735  3.0539
   99SAPC   H5Y 9876   4.659   3.787   3.467 -0.1620  0.9310  0.3862
   99SAPC   C36 9877   4.526   3.608   3.511  0.1146  0.2014 -0.5313
   99SAPC   H6X 9878   4.598   3.525   3.525 -0.4725  0.0091  1.7641
   99SAPC   H6Y 9879   4.439   3.566   3.454 -0.0960 -0.4000  0.2143
   99SAPC   C37 9880   4.483   3.648   3.651  0.2322  0.5679 -0.7225
   99SAPC   H7X 9881   4.397   3.717   3.640 -2.2437 -2.1249  0.2286
   99SAPC   H7Y 9882   4.562   3.700   3.708 -0.2351 -0.8454  1.3692
   99SAPC   C38 9883   4.428   3.530   3.728 -0.1994  1.0155  0.0654
   99SAPC   H8X 9884   4.509   3.454   3.727 -1.9080 -0.9073  0.8011
   99SAPC   H8Y 9885   4.341   3.474   3.688 -0.1778  0.0505  1.2940
   99SAPC   C39 9886   4.386   3.560   3.872  0.2236  0.4563  0.0548
   99SAPC   H9X 9887   4.311   3.641   3.870 -0.1824  0.0843  0.1184
   99SAPC   H9Y 9888   4.479   3.600   3.919  1.0075  1.3426 -2.1259
   99SAPC  C310 9889   4.327   3.435   3.951 -0.1186 -0.3428 -0.6267
   99SAPC  H10X 9890   4.408   3.368   3.988  1.0906  2.4047  2.1902
   99SAPC  H10Y 9891   4.256   3.373   3.893 -0.6618  0.6558 -1.0493
   99SAPC  C311 9892   4.246   3.488   4.083 -0.1188  0.8575  0.3734
   99SAPC  H11X 9893   4.172   3.409   4.109 -0.0175 -0.6048 -3.1499
   99SAPC  H11Y 9894   4.189   3.577   4.048 -0.3777 -0.5928 -3.3766
   99SAPC  C312 9895   4.342   3.527   4.189 -0.0044 -0.0072  0.1761
   99SAPC  H12X 9896   4.362   3.635   4.175 -0.3625 -0.0654 -0.9158
   99SAPC  H12Y 9897   4.442   3.479   4.180  0.5675  1.2287 -0.3791
   99SAPC  C313 9898   4.277   3.514   4.325 -0.8779 -0.1194  0.2100
   99SAPC  H13X 9899   4.237   3.413   4.347  1.1259 -0.4426  2.8057
   99SAPC  H13Y 9900   4.186   3.576   4.318 -0.4212  0.5155 -0.2129
   99SAPC  C314 9901   4.364   3.565   4.437 -0.3251  0.1148  0.1099
   99SAPC  H14X 9902   4.390   3.669   4.407 -0.0333 -0.3452 -1.3191
   99SAPC  H14Y 9903   4.458   3.507   4.441  0.5574  1.4880  0.2572
   99SAPC  C315 9904   4.302   3.565   4.570 -0.1258  0.6574 -0.2413
   99SAPC  H15X 9905   4.249   3.470   4.590  0.7435  0.7254  2.7708
   99SAPC  H15Y 9906   4.218   3.638   4.562  0.2867  1.5078  2.4533
   99SAPC  C316 9907   4.394   3.599   4.681 -0.2666 -0.0472  0.2527
   99SAPC  H16X 9908   4.458   3.681   4.641  0.0286 -1.5248 -2.5827
   99SAPC  H16Y 9909   4.467   3.518   4.702 -0.6574 -0.2798  0.7255
   99SAPC  C317 9910   4.322   3.655   4.803  0.0520  0.4591  0.4739
   99SAPC  H17X 9911   4.261   3.570   4.840  0.8848 -1.4215 -2.1952
   99SAPC  H17Y 9912   4.249   3.736   4.780  0.0428  0.0692 -0.9703
   99SAPC  C318 9913   4.422   3.711   4.903  0.1057 -0.1304  0.5039
   99SAPC  H18X 9914   4.522   3.662   4.903  0.5351  0.7428 -0.1999
   99SAPC  H18Y 9915   4.384   3.706   5.008  0.7753 -2.5907  0.7152
   99SAPC  H18Z 9916   4.429   3.820   4.887 -0.0139 -0.2993 -0.7447
  100SAPC     N 9917   1.926   3.472   1.933 -0.1353  0.5518  0.2250
  100SAPC   C12 9918   1.873   3.419   2.062 -0.4426  0.5042  0.3430
  100SAPC  H12A 9919   1.796   3.490   2.092  1.0752  1.9174  1.0583
  100SAPC  H12B 9920   1.953   3.429   2.134 -1.2770  0.5004  1.2872
  100SAPC   C13 9921   1.973   3.614   1.941  0.1891  0.1405 -0.1510
  100SAPC  H13A 9922   1.891   3.683   1.951 -0.5665 -0.5648 -1.2821
  100SAPC  H13B 9923   2.040   3.616   2.026 -0.2692 -1.3713  0.2928
  100SAPC  H13C 9924   2.022   3.651   1.853  1.1762  1.4005  0.8821
  100SAPC   C14 9925   2.051   3.393   1.888  0.9186  0.3555  0.4536
  100SAPC  H14A 9926   2.033   3.287   1.877  0.1409  0.6647 -1.7566
  100SAPC  H14B 9927   2.083   3.418   1.788  0.7994 -1.4752 -0.0772
  100SAPC  H14C 9928   2.133   3.411   1.956  0.1057  0.6633  1.3748
  100SAPC   C15 9929   1.821   3.453   1.833  0.1036 -0.1633 -0.0003
  100SAPC  H15A 9930   1.733   3.513   1.852  0.2189 -0.3904  1.3634
  100SAPC  H15B 9931   1.865   3.496   1.744  1.0520 -0.7283  0.1742
  100SAPC  H15C 9932   1.789   3.350   1.822 -3.1258  0.4040  2.5507
  100SAPC   C11 9933   1.813   3.281   2.082  0.5673  0.2593 -0.2999
  100SAPC  H11A 9934   1.742   3.273   1.997  0.8865 -0.0821 -0.5391
  100SAPC  H11B 9935   1.757   3.284   2.177  1.0538 -0.0174  0.0011
  100SAPC     P 9936   2.009   3.146   2.201  0.0130  0.2516  0.4478
  100SAPC   O13 9937   2.008   2.997   2.221  0.2031  0.1152 -0.3314
  100SAPC   O14 9938   2.143   3.205   2.193  0.3698  0.1965 -0.0257
  100SAPC   O12 9939   1.914   3.178   2.070  0.1796 -0.1622  0.0960
  100SAPC   O11 9940   1.939   3.207   2.322  0.2619  0.0512 -0.3605
  100SAPC    C1 9941   1.968   3.325   2.392 -0.5231  0.5240  0.2281
  100SAPC    HA 9942   1.972   3.411   2.322 -0.5203 -0.1004 -0.5501
  100SAPC    HB 9943   1.886   3.358   2.459  1.4775  1.1047  2.4992
  100SAPC    C2 9944   2.092   3.300   2.481  0.2782  0.0325 -0.0774
  100SAPC    HS 9945   2.176   3.317   2.411 -0.0689  2.4246  0.0068
  100SAPC   O21 9946   2.089   3.164   2.538 -0.5141 -0.0907 -0.3913
  100SAPC   C21 9947   2.204   3.123   2.575  0.2753  0.3107  0.5436
  100SAPC   O22 9948   2.310   3.182   2.550  0.2557  0.0561  0.9643
  100SAPC   C22 9949   2.185   2.990   2.646 -0.3108  0.0876 -0.1025
  100SAPC   H2R 9950   2.097   2.934   2.608  1.8910 -4.0174  0.1753
  100SAPC   H2S 9951   2.271   2.930   2.609 -1.1091  1.0282 -3.8161
  100SAPC    C3 9952   2.091   3.400   2.599 -0.4780 -0.5555 -0.6141
  100SAPC    HX 9953   2.098   3.502   2.554  1.1649 -0.1996  0.3778
  100SAPC    HY 9954   2.185   3.397   2.658 -1.4005 -0.2462  0.9104
  100SAPC   O31 9955   1.974   3.380   2.690 -0.4638  0.2620 -0.1248
  100SAPC   C31 9956   1.919   3.491   2.741  0.2592  1.1970  0.5388
  100SAPC   O32 9957   1.949   3.604   2.720  0.2579 -0.2332  0.0028
  100SAPC   C32 9958   1.816   3.442   2.842  1.0072  0.3327  0.4908
  100SAPC   H2X 9959   1.754   3.357   2.808  0.2977 -0.0619  2.6279
  100SAPC   H2Y 9960   1.735   3.518   2.842 -0.1593 -0.6998 -3.3812
  100SAPC   C23 9961   2.200   3.007   2.799 -0.9271  0.3222  0.9078
  100SAPC   H3R 9962   2.301   3.053   2.811 -0.4273  0.1245 -1.7250
  100SAPC   H3S 9963   2.218   2.908   2.847 -0.5607 -0.5996 -0.9978
  100SAPC   C24 9964   2.094   3.078   2.873 -0.1864 -0.2066  0.3882
  100SAPC   H4R 9965   2.084   3.183   2.838  1.1833 -0.0159  0.5081
  100SAPC   H4S 9966   2.135   3.078   2.977  0.2827  1.5333  0.2342
  100SAPC   C25 9967   1.959   3.006   2.880 -0.0406  0.2627  0.0972
  100SAPC   H5R 9968   1.915   2.990   2.780 -2.4681  2.7590  0.6315
  100SAPC   C26 9969   1.903   2.961   2.993 -1.1503 -0.2664 -0.0171
  100SAPC   H6R 9970   1.803   2.917   2.979 -1.6530  1.4252 -2.4531
  100SAPC   C27 9971   1.952   2.972   3.139  0.5359 -0.9528  0.2972
  100SAPC   H7R 9972   1.942   3.077   3.172  2.7795 -1.1219  1.7190
  100SAPC   H7S 9973   2.061   2.953   3.141  0.7240  0.0993  0.3219
  100SAPC   C28 9974   1.879   2.886   3.241 -0.1603  0.6883  0.3972
  100SAPC   H8R 9975   1.788   2.834   3.209  1.3038 -2.2816  0.7529
  100SAPC   C29 9976   1.899   2.894   3.376 -0.4278  0.0198  0.5389
  100SAPC   H9R 9977   1.846   2.819   3.436  2.3968 -0.2567  2.9215
  100SAPC  C210 9978   2.008   2.976   3.445  0.5947  0.1442 -0.0025
  100SAPC  H10R 9979   1.949   3.066   3.475 -2.2400 -0.3267 -3.5341
  100SAPC  H10S 9980   2.084   3.019   3.377 -1.1130 -0.3388 -2.3257
  100SAPC  C211 9981   2.056   2.891   3.563  0.7257 -0.1899  0.5776
  100SAPC  H11R 9982   2.113   2.809   3.516  2.3818  1.8003 -1.1187
  100SAPC  C212 9983   2.039   2.901   3.697  0.0523  0.1014 -0.1095
  100SAPC  H12R 9984   2.072   2.822   3.767  0.6548 -0.2021 -0.7303
  100SAPC  C213 9985   1.950   3.003   3.761 -0.3186  0.1085 -1.0521
  100SAPC  H13R 9986   1.984   3.102   3.724  1.6411 -0.5876 -1.1937
  100SAPC  H13S 9987   1.968   2.998   3.871  1.1864  1.3366 -1.2073
  100SAPC  C214 9988   1.801   2.984   3.746 -0.6088 -0.1302  0.4690
  100SAPC  H14R 9989   1.781   2.893   3.686  1.0153  1.0956 -2.1055
  100SAPC  C215 9990   1.701   3.074   3.764 -0.2662  0.1240  0.5880
  100SAPC  H15R 9991   1.596   3.051   3.741 -0.0527 -1.1942  0.8497
  100SAPC  C216 9992   1.714   3.211   3.821  0.0698 -1.0867  0.2433
  100SAPC  H16R 9993   1.745   3.281   3.740  0.1847  1.2089  2.1445
  100SAPC  H16S 9994   1.806   3.218   3.883  0.2015  2.2676 -0.1164
  100SAPC  C217 9995   1.609   3.285   3.904 -0.0570  0.5765  0.1560
  100SAPC  H17R 9996   1.522   3.299   3.837  0.5958 -1.8571 -1.2945
  100SAPC  H17S 9997   1.638   3.388   3.936 -1.3252  1.1695 -0.5446
  100SAPC  C218 9998   1.560   3.204   4.024 -0.0069 -0.9420 -0.3028
  100SAPC  H18R 9999   1.649   3.209   4.090 -1.5281 -1.8112  1.9552
  100SAPC  H18S10000   1.535   3.099   4.000 -0.9568 -0.8385  0.1688
  100SAPC  C21910001   1.446   3.269   4.104 -0.1361  0.2600 -0.3937
  100SAPC  H19R10002   1.439   3.227   4.206 -0.7950  2.2045  0.3902
  100SAPC  H19S10003   1.352   3.238   4.054 -1.4165  0.4676  1.7720
  100SAPC  C22010004   1.453   3.419   4.128  0.6425  0.4933  0.0885
  100SAPC  H20R10005   1.365   3.467   4.176  1.2347  0.0216  1.7065
  100SAPC  H20S10006   1.460   3.456   4.023 -1.6166 -1.4003 -0.8246
  100SAPC  H20T10007   1.548   3.446   4.180  1.8678 -1.9247 -0.7303
  100SAPC   C3310008   1.867   3.416   2.987 -0.0375  0.4792 -0.2725
  100SAPC   H3X10009   1.965   3.364   2.984  2.2152  4.3549 -1.7456
  100SAPC   H3Y10010   1.791   3.353   3.038  1.2214 -0.8260  0.0846
  100SAPC   C3410011   1.888   3.546   3.067  0.1313  0.2164 -0.3169
  100SAPC   H4X10012   1.786   3.585   3.086 -0.4497 -0.6270 -1.5301
  100SAPC   H4Y10013   1.954   3.618   3.013  2.1048 -0.2271  1.3642
  100SAPC   C3510014   1.952   3.528   3.204 -0.3634  0.0822  0.0731
  100SAPC   H5X10015   2.016   3.613   3.236 -1.2931  0.7321  0.2592
  100SAPC   H5Y10016   2.028   3.452   3.176 -2.2781 -1.3428 -1.5741
  100SAPC   C3610017   1.866   3.471   3.320  0.5605  0.3848 -0.1047
  100SAPC   H6X10018   1.821   3.380   3.275 -0.5633  0.2186  1.2905
  100SAPC   H6Y10019   1.792   3.554   3.328 -1.2151 -1.0479 -0.9345
  100SAPC   C3710020   1.932   3.430   3.455  1.0186  0.6300  0.6969
  100SAPC   H7X10021   2.001   3.347   3.428  0.1365  0.1664 -0.2383
  100SAPC   H7Y10022   1.848   3.391   3.517 -1.2932  1.5899 -1.6099
  100SAPC   C3810023   2.002   3.539   3.538 -0.2858  0.2177 -0.3151
  100SAPC   H8X10024   2.070   3.582   3.462 -1.1744 -1.5306 -2.2065
  100SAPC   H8Y10025   2.066   3.486   3.611 -0.3481 -0.2350 -0.5869
  100SAPC   C3910026   1.916   3.646   3.606  0.2439 -0.5382 -0.0469
  100SAPC   H9X10027   1.869   3.727   3.546  0.4853 -1.1554 -1.1018
  100SAPC   H9Y10028   1.983   3.711   3.667 -0.8389  3.2449 -2.5399
  100SAPC  C31010029   1.796   3.597   3.687  0.9402 -0.2565  0.4488
  100SAPC  H10X10030   1.826   3.510   3.750 -1.1622 -1.0261  0.4776
  100SAPC  H10Y10031   1.722   3.560   3.612  1.5461  2.1435 -1.4500
  100SAPC  C31110032   1.726   3.699   3.779 -0.5996 -0.7441  1.3240
  100SAPC  H11X10033   1.645   3.647   3.834 -0.6151 -0.6677  1.3725
  100SAPC  H11Y10034   1.686   3.776   3.709 -0.3564 -0.6996  1.2342
  100SAPC  C31210035   1.810   3.776   3.880  0.3219  0.3911 -0.0635
  100SAPC  H12X10036   1.872   3.853   3.829  2.3005 -0.7946  0.4390
  100SAPC  H12Y10037   1.890   3.718   3.930 -0.1606  0.4987  0.8557
  100SAPC  C31310038   1.715   3.852   3.977  0.3691  0.4917  0.5245
  100SAPC  H13X10039   1.623   3.800   4.010 -0.3785  2.7233  2.1993
  100SAPC  H13Y10040   1.679   3.946   3.929 -0.8871  1.2344  2.8003
  100SAPC  C31410041   1.791   3.898   4.102  0.3876  0.0564  0.0578
  100SAPC  H14X10042   1.860   3.983   4.085  0.5108  0.3238  1.7601
  100SAPC  H14Y10043   1.844   3.813   4.149 -0.6069 -0.8541 -0.4131
  100SAPC  C31510044   1.683   3.927   4.201 -0.1670 -0.6453 -0.6521
  100SAPC  H15X10045   1.631   3.832   4.224 -1.7569  0.7063  1.8767
  100SAPC  H15Y10046   1.614   3.999   4.152  0.8799  0.1304 -1.0281
  100SAPC  C31610047   1.736   3.974   4.331  0.2318 -0.2259  0.5745
  100SAPC  H16X10048   1.816   3.904   4.365  0.1625 -0.0066  1.1976
  100SAPC  H16Y10049   1.645   3.968   4.395 -0.6689  0.0523 -0.6469
  100SAPC  C31710050   1.807   4.107   4.326  0.3427  0.2921 -0.2210
  100SAPC  H17X10051   1.749   4.178   4.262  1.3408 -0.0764 -1.5721
  100SAPC  H17Y10052   1.903   4.089   4.274  0.7968  1.2977  0.2358
  100SAPC  C31810053   1.836   4.186   4.456 -0.8172 -1.1055 -0.3697
  100SAPC  H18X10054   1.744   4.236   4.493  0.4985  2.1263 -1.0979
  100SAPC  H18Y10055   1.914   4.264   4.438 -0.7358 -1.4431 -1.5443
  100SAPC  H18Z10056   1.872   4.115   4.534 -2.6307 -1.0825  0.5364
  101OSM      N10057   3.442   0.559   7.082 -0.3522 -0.0841  0.1446
  101OSM    C1510058   3.449   0.690   7.000 -0.4284 -0.1783  0.3790
  101OSM   H15A10059   3.542   0.746   6.998 -0.1833 -0.5551 -1.8336
  101OSM   H15B10060   3.373   0.764   7.018  0.1103  0.5226 -0.1345
  101OSM   H15C10061   3.437   0.671   6.894 -1.1107  4.1111 -0.5009
  101OSM    C1410062   3.489   0.581   7.222 -0.1858 -0.1600 -0.3102
  101OSM   H14A10063   3.477   0.495   7.287 -4.0145  0.4924  0.0405
  101OSM   H14B10064   3.425   0.652   7.272 -0.3114  0.5024 -1.3893
  101OSM   H14C10065   3.588   0.624   7.225 -0.0298  0.0972 -4.2858
  101OSM    C1310066   3.296   0.518   7.089 -0.1398 -0.3004  0.7920
  101OSM   H13A10067   3.232   0.605   7.100  0.5695  0.4016 -0.3817
  101OSM   H13B10068   3.279   0.450   7.171  3.2087 -2.4308 -0.0940
  101OSM   H13C10069   3.266   0.461   7.002 -1.3820 -2.9089  2.7723
  101OSM    C1210070   3.538   0.465   7.018  0.2026  0.5933  0.5087
  101OSM   H12A10071   3.543   0.378   7.082  3.1947 -0.2449 -0.6975
  101OSM   H12B10072   3.639   0.504   7.024  1.3682 -2.3167  1.8388
  101OSM    C1110073   3.512   0.410   6.876  0.7058 -0.0281 -0.1416
  101OSM   H11A10074   3.602   0.352   6.848  1.2416  0.6936  0.0387
  101OSM   H11B10075   3.494   0.491   6.802 -3.8054  0.1425  0.8870
  101OSM      P10076   3.391   0.187   6.870 -0.2040 -0.7014 -0.0302
  101OSM    O1310077   3.487   0.134   6.973  0.0845  0.0862 -0.0957
  101OSM    O1410078   3.257   0.129   6.874  0.2372 -0.0312 -0.0563
  101OSM    O1110079   3.452   0.148   6.729  1.1218 -0.5123 -0.2803
  101OSM    O1210080   3.384   0.343   6.869  0.1157  0.1652  0.6788
  101OSM    C1S10081   3.418   0.231   6.617  0.1465 -0.3672  0.2367
  101OSM    H1S10082   3.489   0.316   6.607  0.0822 -0.3033  0.3227
  101OSM    H1T10083   3.319   0.280   6.626  0.5218  0.4494  0.0380
  101OSM     NF10084   3.397   0.258   6.368 -0.1231  0.0751 -0.0733
  101OSM    HNF10085   3.307   0.266   6.324 -0.4722 -1.0255  0.3969
  101OSM    C2S10086   3.410   0.155   6.476  0.2450  0.0167 -0.2005
  101OSM    H2S10087   3.503   0.097   6.463 -1.0687 -2.1036 -0.6954
  101OSM    C3S10088   3.292   0.054   6.483 -0.2113 -0.3989  0.5099
  101OSM    H3S10089   3.196   0.100   6.516  0.7663  1.0496  1.4351
  101OSM     O310090   3.316  -0.052   6.576  0.4470  0.1345 -0.7992
  101OSM    HO310091   3.375  -0.004   6.634 -0.4983 -0.9451  1.1411
  101OSM    C4S10092   3.296  -0.006   6.348 -0.1028  0.7980  0.3482
  101OSM    H4S10093   3.363  -0.093   6.345  0.9587  1.6279 -0.7577
  101OSM    C5S10094   3.209   0.023   6.259  0.4320  0.1338 -0.1131
  101OSM    H5S10095   3.122   0.082   6.292 -1.7550 -3.3539  0.9489
  101OSM    C6S10096   3.200  -0.042   6.117  0.5246 -0.4755  0.2069
  101OSM    H6S10097   3.179   0.041   6.046 -1.0183 -1.6103 -0.7271
  101OSM    H6T10098   3.114  -0.112   6.118 -1.0269  1.3933  1.0008
  101OSM    C7S10099   3.327  -0.104   6.051  0.3339  0.6111  0.4067
  101OSM    H7S10100   3.366  -0.189   6.112  0.0825 -0.1620 -0.4924
  101OSM    H7T10101   3.410  -0.030   6.053  0.0220  1.0059 -0.7056
  101OSM    C8S10102   3.307  -0.159   5.912 -0.3810 -0.0880  0.1830
  101OSM    H8S10103   3.196  -0.165   5.906 -0.4850  0.1498  1.5822
  101OSM    H8T10104   3.343  -0.264   5.909 -2.7498 -0.9759 -2.3335
  101OSM    C9S10105   3.353  -0.076   5.795 -0.7331  0.0732 -0.1468
  101OSM    H9S10106   3.447  -0.021   5.818 -0.4802  0.6030 -2.1712
  101OSM    H9T10107   3.274   0.001   5.781 -0.1493  0.6236 -0.4943
  101OSM   C10S10108   3.369  -0.161   5.670  0.0713  0.5032  0.3033
  101OSM   H10S10109   3.293  -0.242   5.680  0.4058  0.1206 -0.2105
  101OSM   H10T10110   3.471  -0.204   5.673 -0.0034  0.2943 -0.1575
  101OSM   C11S10111   3.350  -0.076   5.547  0.4691 -0.6938 -0.1973
  101OSM   H11S10112   3.431  -0.004   5.523  1.0799 -1.2280  0.2194
  101OSM   H11T10113   3.249  -0.030   5.555  0.0166 -1.8988  1.7676
  101OSM   C12S10114   3.358  -0.166   5.423 -0.1986 -0.4617  0.4341
  101OSM   H12S10115   3.288  -0.250   5.444 -0.2371 -0.4320  0.4241
  101OSM   H12T10116   3.459  -0.210   5.415 -0.8609 -2.3973  1.8529
  101OSM   C13S10117   3.315  -0.093   5.289  0.0929 -0.2424 -0.3911
  101OSM   H13S10118   3.360   0.009   5.289  0.2127 -0.2800  0.8583
  101OSM   H13T10119   3.206  -0.076   5.300  0.1181  0.5354 -1.2557
  101OSM   C14S10120   3.365  -0.166   5.159 -0.4634  1.0638  0.3012
  101OSM   H14S10121   3.315  -0.263   5.137  1.3231  0.1450  0.0844
  101OSM   H14T10122   3.474  -0.185   5.173 -0.7742 -1.3336 -0.0858
  101OSM   C15S10123   3.346  -0.091   5.026 -0.2727  0.1525 -0.3586
  101OSM   H15S10124   3.417  -0.005   5.025  2.0768 -1.6632  0.5399
  101OSM   H15T10125   3.243  -0.052   5.015  0.3597  1.3745 -2.5272
  101OSM   C16S10126   3.360  -0.193   4.908 -0.2760 -0.5749 -0.0643
  101OSM   H16S10127   3.276  -0.266   4.909  0.6880 -1.7530 -1.4156
  101OSM   H16T10128   3.449  -0.252   4.939 -0.2223 -0.5766 -0.2188
  101OSM   C17S10129   3.371  -0.137   4.771 -0.2328  0.3838 -0.3031
  101OSM   H17S10130   3.367  -0.225   4.703  0.2974 -0.7959  1.1410
  101OSM   H17T10131   3.463  -0.077   4.752  0.9599 -1.4980 -0.7536
  101OSM   C18S10132   3.262  -0.036   4.731 -0.1146  0.3688 -0.0566
  101OSM   H18S10133   3.273  -0.020   4.621 -0.1938  0.3384 -0.0684
  101OSM   H18T10134   3.285   0.061   4.779  1.9030 -0.1935  0.1974
  101OSM   H18U10135   3.158  -0.071   4.751  0.9808 -3.0297  0.4391
  101OSM    C1F10136   3.491   0.337   6.312  0.5014 -0.0095 -0.2887
  101OSM     OF10137   3.601   0.344   6.369 -0.3384 -0.1297 -0.3286
  101OSM    C2F10138   3.445   0.423   6.192  0.1109 -0.0087  1.0849
  101OSM    H2F10139   3.407   0.522   6.227  0.2885 -0.4933  2.7359
  101OSM    H2G10140   3.363   0.357   6.157  0.7618  0.0318 -0.5718
  101OSM    C3F10141   3.551   0.461   6.084  0.5186 -0.7118 -1.1637
  101OSM    H3F10142   3.601   0.366   6.054  0.9566 -1.3127  1.2762
  101OSM    H3G10143   3.630   0.526   6.128 -0.4474 -0.1997 -0.1573
  101OSM    C4F10144   3.488   0.535   5.967  0.7725 -0.0334  0.0302
  101OSM    H4F10145   3.568   0.583   5.907 -0.8340  0.4288 -1.8340
  101OSM    H4G10146   3.417   0.612   6.005 -0.8413  0.0575 -2.8819
  101OSM    C5F10147   3.408   0.442   5.875 -0.0857  0.0724  0.9501
  101OSM    H5F10148   3.318   0.396   5.921  0.7825 -2.5398  0.2016
  101OSM    H5G10149   3.478   0.357   5.859 -2.6602 -2.2951  1.4913
  101OSM    C6F10150   3.368   0.507   5.734 -0.5614  0.2475 -0.9055
  101OSM    H6F10151   3.304   0.432   5.683 -0.2760 -0.0658 -0.8038
  101OSM    H6G10152   3.458   0.533   5.674  0.4784 -2.3947 -0.6497
  101OSM    C7F10153   3.291   0.635   5.747  0.9117 -0.4895 -0.5825
  101OSM    H7F10154   3.354   0.709   5.800 -1.0478 -0.0083  1.2249
  101OSM    H7G10155   3.198   0.624   5.808  0.4228  1.7741 -0.8215
  101OSM    C8F10156   3.283   0.701   5.612  0.4574 -0.3916  0.2814
  101OSM    H8F10157   3.390   0.716   5.586  0.1191  0.5169 -0.6756
  101OSM    H8G10158   3.242   0.804   5.617 -0.9432 -0.8712 -0.7076
  101OSM    C9F10159   3.224   0.628   5.494  0.4391 -0.0078  0.4364
  101OSM    H9F10160   3.139   0.562   5.517 -1.0113  0.4040 -3.0231
  101OSM   C10F10161   3.258   0.641   5.364  0.5006 -0.4227 -0.5872
  101OSM   H10F10162   3.231   0.577   5.279  1.2118 -0.6556 -0.6482
  101OSM   C11F10163   3.351   0.755   5.313  0.2621 -0.2854 -0.0494
  101OSM   H11F10164   3.449   0.710   5.287 -0.2424 -1.4105 -0.0544
  101OSM   H11G10165   3.364   0.840   5.384  0.6898 -0.6270  0.2948
  101OSM   C12F10166   3.293   0.817   5.189  0.0064 -0.1733  0.4953
  101OSM   H12F10167   3.199   0.868   5.218  0.2923  0.7441 -0.1454
  101OSM   H12G10168   3.276   0.736   5.115  0.9482  1.2015 -1.2915
  101OSM   C13F10169   3.400   0.904   5.121  0.1025  0.5167 -0.7076
  101OSM   H13F10170   3.498   0.851   5.114 -0.6958 -0.9411 -1.3192
  101OSM   H13G10171   3.401   0.993   5.188 -0.0042  0.9050 -1.2118
  101OSM   C14F10172   3.367   0.964   4.987  0.1226  0.1588  0.7844
  101OSM   H14F10173   3.260   0.991   4.978  0.7723  3.5289  1.7527
  101OSM   H14G10174   3.389   0.890   4.907 -1.9689  1.9222 -1.5676
  101OSM   C15F10175   3.452   1.089   4.960 -0.4651 -0.7419 -0.1776
  101OSM   H15F10176   3.558   1.057   4.974  0.4094  0.3449 -3.3457
  101OSM   H15G10177   3.427   1.163   5.039 -0.5920 -1.5571  0.5552
  101OSM   C16F10178   3.447   1.126   4.815  0.4533  0.1480  0.9170
  101OSM   H16F10179   3.341   1.135   4.783  0.5217 -0.2951  0.5621
  101OSM   H16G10180   3.491   1.051   4.746  2.2006  1.9882 -0.0738
  101OSM   C17F10181   3.533   1.244   4.800 -0.2600 -0.4439  0.0817
  101OSM   H17F10182   3.639   1.216   4.820  0.8859  1.8265 -2.2076
  101OSM   H17G10183   3.495   1.325   4.866 -0.2358 -1.7655  1.7794
  101OSM   C18F10184   3.541   1.299   4.658  0.1265 -0.6179  0.5964
  101OSM   H18F10185   3.623   1.374   4.663 -2.0554  2.0041 -0.7204
  101OSM   H18G10186   3.442   1.333   4.621  0.2242 -3.2058 -2.4787
  101OSM   H18H10187   3.571   1.226   4.580  0.3661 -0.1011  0.2015
  102OSM      N10188   3.984   6.384   7.198  0.6089 -0.0846  0.2508
  102OSM    C1510189   4.132   6.366   7.188 -0.3411 -0.3180  0.1857
  102OSM   H15A10190   4.167   6.340   7.287 -0.3054 -0.1385  0.2190
  102OSM   H15B10191   4.180   6.457   7.155  1.3862 -0.8357  1.1558
  102OSM   H15C10192   4.163   6.289   7.119  0.2889 -1.5980  1.8272
  102OSM    C1410193   3.923   6.260   7.254 -0.6536  0.1285  0.0584
  102OSM   H14A10194   3.816   6.265   7.239 -0.7261 -0.2830  0.4176
  102OSM   H14B10195   3.946   6.251   7.359 -0.7706 -0.0001  0.0739
  102OSM   H14C10196   3.969   6.178   7.199 -0.7178  0.3757 -0.3713
  102OSM    C1310197   3.944   6.494   7.288 -1.2521 -0.5942  0.1457
  102OSM   H13A10198   3.994   6.585   7.258 -1.4628 -1.0368 -1.6476
  102OSM   H13B10199   3.970   6.471   7.391  0.5925  1.8511  0.3110
  102OSM   H13C10200   3.837   6.512   7.285 -0.8979  1.9366  0.2868
  102OSM    C1210201   3.922   6.401   7.060  0.4529 -0.3083 -0.2277
  102OSM   H12A10202   3.952   6.313   7.004  0.8917 -1.9064  2.3416
  102OSM   H12B10203   3.979   6.477   7.010  0.9812  1.0371  2.2814
  102OSM    C1110204   3.772   6.439   7.027  0.2493 -0.5110  0.3076
  102OSM   H11A10205   3.746   6.399   6.927 -0.8594 -0.6848  0.6588
  102OSM   H11B10206   3.767   6.550   7.025  1.2419 -0.4469 -1.7888
  102OSM      P10207   3.576   6.481   7.196  0.0844 -0.1285 -0.3561
  102OSM    O1310208   3.509   6.399   7.305  0.1029  0.0873 -0.3159
  102OSM    O1410209   3.644   6.606   7.240 -0.4400 -0.2269  0.0427
  102OSM    O1110210   3.470   6.513   7.080 -0.2801  0.0751  0.2349
  102OSM    O1210211   3.684   6.390   7.121 -0.0180  0.3763 -0.0514
  102OSM    C1S10212   3.484   6.615   6.983 -0.5723 -0.0728  0.4653
  102OSM    H1S10213   3.580   6.671   6.992 -1.0750  0.9091 -0.1255
  102OSM    H1T10214   3.400   6.687   6.989  0.0919  0.5764  2.3592
  102OSM     NF10215   3.535   6.643   6.741  0.4444  0.6384  0.3354
  102OSM    HNF10216   3.485   6.689   6.669 -0.1814 -1.1038 -0.4065
  102OSM    C2S10217   3.485   6.548   6.839 -0.3327 -0.4488  0.1704
  102OSM    H2S10218   3.553   6.461   6.837  0.8042  0.4125  0.1633
  102OSM    C3S10219   3.343   6.497   6.807 -0.4765 -0.0257  0.7110
  102OSM    H3S10220   3.277   6.586   6.797 -0.7224 -0.1956  0.8043
  102OSM     O310221   3.278   6.433   6.915  0.2813  0.3538 -0.0518
  102OSM    HO310222   3.340   6.462   6.983  0.3192 -1.9540  0.9942
  102OSM    C4S10223   3.327   6.416   6.680 -0.3446  0.1841  0.1058
  102OSM    H4S10224   3.370   6.315   6.673 -0.5301  0.1810 -1.3528
  102OSM    C5S10225   3.249   6.456   6.574 -0.3838 -0.3296 -0.1091
  102OSM    H5S10226   3.192   6.549   6.585  1.1348  1.1870 -3.4670
  102OSM    C6S10227   3.232   6.379   6.445  0.6207 -0.6809  0.5514
  102OSM    H6S10228   3.236   6.450   6.359  0.7563 -0.7579  0.4929
  102OSM    H6T10229   3.126   6.347   6.437  0.5827 -0.4575  0.1221
  102OSM    C7S10230   3.319   6.259   6.428  0.1017 -0.1182 -0.6064
  102OSM    H7S10231   3.304   6.187   6.511  0.9831 -0.2022 -0.5065
  102OSM    H7T10232   3.427   6.284   6.438 -0.4683  1.3178  4.3014
  102OSM    C8S10233   3.289   6.180   6.295 -0.5726 -0.7876  0.2920
  102OSM    H8S10234   3.323   6.247   6.214 -0.7595  1.0292  1.6366
  102OSM    H8T10235   3.178   6.175   6.290 -0.5976 -1.1534  1.0530
  102OSM    C9S10236   3.363   6.048   6.285  0.2664  0.5805 -0.1012
  102OSM    H9S10237   3.342   5.997   6.381  0.9109  2.6972  1.2219
  102OSM    H9T10238   3.473   6.059   6.299 -0.1591  1.5697  3.5390
  102OSM   C10S10239   3.333   5.977   6.151  0.0085 -0.8607  0.3476
  102OSM   H10S10240   3.225   5.988   6.128 -0.0128  0.9362  1.1883
  102OSM   H10T10241   3.348   5.867   6.142 -2.3827 -1.0434 -3.0331
  102OSM   C11S10242   3.409   6.030   6.029  0.0451  0.0144  0.3951
  102OSM   H11S10243   3.520   6.022   6.032  0.1755 -0.5445 -2.6065
  102OSM   H11T10244   3.371   6.134   6.018 -1.4274 -0.5751 -0.3794
  102OSM   C12S10245   3.356   5.948   5.907 -0.2170  0.8040 -0.1903
  102OSM   H12S10246   3.246   5.961   5.922 -0.3407  1.6564 -1.6600
  102OSM   H12T10247   3.379   5.841   5.924 -0.9844  0.8843  1.6780
  102OSM   C13S10248   3.396   6.007   5.773  0.2892 -0.3291 -1.0782
  102OSM   H13S10249   3.504   5.989   5.757  0.2321 -0.4890 -1.2996
  102OSM   H13T10250   3.371   6.115   5.781 -2.9066 -1.1095  2.3000
  102OSM   C14S10251   3.305   5.955   5.663 -0.1737  0.1968  0.9996
  102OSM   H14S10252   3.310   6.034   5.585 -0.2599  0.7576  1.5572
  102OSM   H14T10253   3.203   5.947   5.705 -1.3754 -0.8274 -1.8321
  102OSM   C15S10254   3.330   5.814   5.614 -0.1224 -0.6706 -0.4293
  102OSM   H15S10255   3.315   5.735   5.691  2.1546 -0.1075  0.6796
  102OSM   H15T10256   3.435   5.802   5.578 -0.7692 -1.5597 -2.1371
  102OSM   C16S10257   3.243   5.791   5.492  0.3687 -0.0381  0.7843
  102OSM   H16S10258   3.136   5.790   5.518 -0.1440 -0.4232 -1.1441
  102OSM   H16T10259   3.264   5.687   5.458 -1.3219 -0.6189  1.4162
  102OSM   C17S10260   3.264   5.879   5.370  0.4722  0.8891  0.6958
  102OSM   H17S10261   3.371   5.879   5.339  0.2409  2.0729 -0.2280
  102OSM   H17T10262   3.230   5.982   5.395 -2.6583  0.1087 -0.0126
  102OSM   C18S10263   3.169   5.823   5.260  0.6042  0.1137  0.0532
  102OSM   H18S10264   3.205   5.724   5.225  0.0467 -0.2552  0.5089
  102OSM   H18T10265   3.158   5.889   5.171 -0.2428  0.7832  0.6435
  102OSM   H18U10266   3.067   5.815   5.304 -0.6471  1.9404 -2.2329
  102OSM    C1F10267   3.663   6.684   6.730  0.8708  1.4537  0.1480
  102OSM     OF10268   3.740   6.636   6.810  0.6596  0.1794 -0.5613
  102OSM    C2F10269   3.699   6.775   6.621 -0.0848 -0.5787  0.2362
  102OSM    H2F10270   3.660   6.874   6.653 -1.9221 -1.1629 -0.0700
  102OSM    H2G10271   3.642   6.749   6.530  1.1454  2.5771 -1.5832
  102OSM    C3F10272   3.851   6.782   6.585 -0.0606 -0.0043 -0.4373
  102OSM    H3F10273   3.893   6.681   6.570  0.2981  0.1272 -0.3363
  102OSM    H3G10274   3.900   6.820   6.677 -1.9564 -2.6602  1.8357
  102OSM    C4F10275   3.889   6.882   6.480  0.2337  0.4306  0.1267
  102OSM    H4F10276   3.996   6.854   6.465  0.0949  0.0752 -0.2080
  102OSM    H4G10277   3.878   6.983   6.524  1.0971  0.9655 -0.8139
  102OSM    C5F10278   3.817   6.869   6.341 -0.8421 -0.5823 -1.1896
  102OSM    H5F10279   3.711   6.892   6.365 -1.1464 -1.5202 -1.5900
  102OSM    H5G10280   3.818   6.761   6.315 -1.2783 -0.6636 -0.8888
  102OSM    C6F10281   3.874   6.961   6.235  0.6791 -0.0246 -0.0754
  102OSM    H6F10282   3.979   6.935   6.212  1.2453  1.2451  0.9331
  102OSM    H6G10283   3.870   7.062   6.282  1.8794  1.4309 -2.8662
  102OSM    C7F10284   3.787   6.975   6.110 -0.1070 -0.0332 -0.2703
  102OSM    H7F10285   3.840   7.057   6.058 -1.0460  1.4361  0.9783
  102OSM    H7G10286   3.687   7.012   6.143 -0.4371 -1.3117  0.2555
  102OSM    C8F10287   3.770   6.845   6.030  0.2679  0.0899  0.1013
  102OSM    H8F10288   3.680   6.857   5.966  0.1341  3.7676  0.8011
  102OSM    H8G10289   3.750   6.767   6.107  0.3918  0.7224  0.7819
  102OSM    C9F10290   3.893   6.812   5.947  0.1508  1.1016 -0.5320
  102OSM    H9F10291   3.988   6.828   5.999 -0.6237  1.6359  0.7646
  102OSM   C10F10292   3.911   6.779   5.814  1.1722  0.8038 -1.4975
  102OSM   H10F10293   4.012   6.753   5.778  1.0804 -1.6848 -0.1549
  102OSM   C11F10294   3.800   6.741   5.709 -0.1551 -0.2693  0.2237
  102OSM   H11F10295   3.695   6.757   5.741 -1.1659  0.2774 -2.9561
  102OSM   H11G10296   3.820   6.636   5.678 -0.3112  0.2072 -1.6475
  102OSM   C12F10297   3.810   6.819   5.583  0.3767  0.1497  0.5242
  102OSM   H12F10298   3.753   6.758   5.510 -2.5971  1.2277  1.7743
  102OSM   H12G10299   3.912   6.838   5.544 -0.1867  1.7086 -0.2803
  102OSM   C13F10300   3.738   6.954   5.581  0.7955  0.6253 -0.0242
  102OSM   H13F10301   3.746   6.997   5.683 -0.8309  2.1482 -0.4797
  102OSM   H13G10302   3.627   6.943   5.573  0.7606 -1.8984  2.3615
  102OSM   C14F10303   3.799   7.053   5.491  0.1557 -0.3034 -0.0786
  102OSM   H14F10304   3.783   7.035   5.383 -0.3243  0.8621 -0.2135
  102OSM   H14G10305   3.909   7.061   5.507  0.8136 -4.3225 -1.5088
  102OSM   C15F10306   3.741   7.198   5.516  0.5265 -0.0983 -0.4463
  102OSM   H15F10307   3.815   7.269   5.474 -0.9941  0.5708 -2.1506
  102OSM   H15G10308   3.736   7.209   5.626 -0.4066  0.8652 -0.5689
  102OSM   C16F10309   3.599   7.236   5.460  0.0942 -0.5170 -0.5897
  102OSM   H16F10310   3.575   7.340   5.490  0.9518 -1.1241  2.5821
  102OSM   H16G10311   3.525   7.171   5.510  0.0433  0.5935  0.8588
  102OSM   C17F10312   3.583   7.203   5.308  0.5397  0.3078  0.4118
  102OSM   H17F10313   3.579   7.093   5.303 -1.3041  0.3097  1.2345
  102OSM   H17G10314   3.667   7.244   5.247  0.7031 -2.9049 -1.7461
  102OSM   C18F10315   3.453   7.253   5.250  0.4658  0.6335 -0.3237
  102OSM   H18F10316   3.365   7.210   5.300  2.2407 -1.6720  1.0028
  102OSM   H18G10317   3.440   7.228   5.142 -0.2960  1.0586 -0.3341
  102OSM   H18H10318   3.452   7.365   5.252 -0.6886  0.6341 -0.6756
  103OSM      N10319   3.292   2.918   7.005  0.1344  0.0022 -0.7525
  103OSM    C1510320   3.166   2.920   6.936 -0.0379  0.2005  0.5080
  103OSM   H15A10321   3.095   2.860   6.992  1.4036 -0.4220  1.7356
  103OSM   H15B10322   3.174   2.873   6.839 -0.4471  0.3556  0.3971
  103OSM   H15C10323   3.130   3.019   6.910 -1.5321 -0.5797 -0.5359
  103OSM    C1410324   3.274   3.007   7.126 -0.8541 -0.6013 -0.2127
  103OSM   H14A10325   3.259   3.112   7.106  0.3259 -0.7358 -1.9762
  103OSM   H14B10326   3.367   3.007   7.182  0.1953  0.5420 -1.8899
  103OSM   H14C10327   3.192   2.963   7.182 -0.1281 -2.3805 -0.4659
  103OSM    C1310328   3.324   2.780   7.063 -0.2535  0.2418  0.3476
  103OSM   H13A10329   3.317   2.707   6.984 -0.5316  1.6143 -0.9413
  103OSM   H13B10330   3.244   2.743   7.126 -1.1030  0.1221 -0.7655
  103OSM   H13C10331   3.423   2.786   7.107 -0.2041 -2.3982  0.7290
  103OSM    C1210332   3.413   2.955   6.920 -0.1288 -0.3790  0.3466
  103OSM   H12A10333   3.506   2.936   6.971 -0.1292  0.8212  0.8326
  103OSM   H12B10334   3.405   3.062   6.908  2.7447 -0.2376 -1.2335
  103OSM    C1110335   3.422   2.888   6.783  0.1052  0.3029  0.1288
  103OSM   H11A10336   3.519   2.918   6.737 -0.2166  1.9382  0.4395
  103OSM   H11B10337   3.350   2.935   6.713  0.6481 -1.7196 -1.8996
  103OSM      P10338   3.323   2.666   6.689 -0.5259  0.3712  0.4585
  103OSM    O1310339   3.325   2.521   6.720  0.5808 -0.1790 -0.7468
  103OSM    O1410340   3.188   2.731   6.668  0.0608 -0.7474  0.4033
  103OSM    O1110341   3.402   2.688   6.554 -0.1958  0.0566  0.2191
  103OSM    O1210342   3.409   2.747   6.796  0.0195  0.1819 -0.2848
  103OSM    C1S10343   3.550   2.679   6.544 -0.2786 -0.0758  0.0263
  103OSM    H1S10344   3.585   2.604   6.618  1.4196 -0.9321 -1.5756
  103OSM    H1T10345   3.608   2.765   6.583  2.4953 -1.9037  0.2295
  103OSM     NF10346   3.732   2.580   6.405  0.5512 -0.3979 -0.5560
  103OSM    HNF10347   3.793   2.644   6.359 -1.4701  3.7300  1.9226
  103OSM    C2S10348   3.595   2.624   6.401  0.2629  0.1705 -0.1254
  103OSM    H2S10349   3.527   2.543   6.370  1.0801 -0.7439  0.4199
  103OSM    C3S10350   3.576   2.738   6.304  0.0412 -0.2535  0.3169
  103OSM    H3S10351   3.641   2.826   6.324 -1.6964  0.9254  0.9641
  103OSM     O310352   3.453   2.806   6.315  0.1720  0.5576  0.1966
  103OSM    HO310353   3.422   2.780   6.402  0.2594 -0.6957 -0.1329
  103OSM    C4S10354   3.607   2.704   6.159 -0.3256  0.3885  0.1535
  103OSM    H4S10355   3.711   2.732   6.137 -0.1271 -0.2364  0.2697
  103OSM    C5S10356   3.523   2.656   6.065 -0.5573 -0.5771 -1.0574
  103OSM    H5S10357   3.419   2.629   6.087 -0.8133  0.1758 -1.3149
  103OSM    C6S10358   3.565   2.643   5.929 -0.5765  0.4026  0.6379
  103OSM    H6S10359   3.475   2.655   5.864  0.7779 -0.4013 -1.4876
  103OSM    H6T10360   3.590   2.536   5.913  0.5960  0.7957 -0.3158
  103OSM    C7S10361   3.681   2.720   5.873  0.0815  1.0916 -0.0019
  103OSM    H7S10362   3.773   2.672   5.912 -0.3794 -0.4044 -0.6868
  103OSM    H7T10363   3.663   2.822   5.914 -0.6620  0.4691  1.2974
  103OSM    C8S10364   3.676   2.722   5.715  1.1371 -0.1747 -0.3072
  103OSM    H8S10365   3.570   2.743   5.689  0.6058 -2.3772 -0.0604
  103OSM    H8T10366   3.710   2.618   5.696 -0.8257 -1.1244  1.0896
  103OSM    C9S10367   3.763   2.836   5.652 -0.2357  0.4370 -0.7774
  103OSM    H9S10368   3.871   2.819   5.671 -0.4122  0.3976  0.3011
  103OSM    H9T10369   3.741   2.924   5.717 -0.3243 -1.1170  1.3955
  103OSM   C10S10370   3.750   2.859   5.500 -0.1302  0.6235 -0.3265
  103OSM   H10S10371   3.643   2.851   5.473 -0.2224  1.7116 -0.3381
  103OSM   H10T10372   3.804   2.776   5.450  0.4285 -0.9861  2.7729
  103OSM   C11S10373   3.817   2.987   5.447  0.8137 -0.4718  0.8089
  103OSM   H11S10374   3.927   2.983   5.458  1.0369 -0.4146 -1.1050
  103OSM   H11T10375   3.765   3.064   5.508 -0.0015 -0.5184  0.1860
  103OSM   C12S10376   3.777   3.009   5.300 -0.0777 -0.0770  0.5782
  103OSM   H12S10377   3.776   3.120   5.286  1.9649  0.0450  1.0081
  103OSM   H12T10378   3.675   2.971   5.281 -0.8766  1.2095  2.1229
  103OSM   C13S10379   3.890   2.943   5.208  0.0583 -0.4673 -0.7178
  103OSM   H13S10380   3.913   2.845   5.256 -0.2633 -0.8999 -1.4335
  103OSM   H13T10381   3.981   3.007   5.197  0.6837 -1.2408 -0.1552
  103OSM   C14S10382   3.846   2.928   5.061 -0.7535  0.7530  0.1467
  103OSM   H14S10383   3.810   3.026   5.021  1.2868  1.4027 -0.1963
  103OSM   H14T10384   3.772   2.847   5.042 -0.5996  0.5332  0.4829
  103OSM   C15S10385   3.971   2.886   4.980  0.0309 -0.0133 -0.7448
  103OSM   H15S10386   4.001   2.788   5.024  0.5996 -0.2726 -1.6812
  103OSM   H15T10387   4.051   2.961   4.996 -0.6317  0.8599 -1.4119
  103OSM   C16S10388   3.938   2.878   4.824 -0.0701  0.2514 -0.5724
  103OSM   H16S10389   3.945   2.984   4.792  1.1574  1.7174  3.8865
  103OSM   H16T10390   3.836   2.835   4.822 -1.0098  2.3299 -0.3516
  103OSM   C17S10391   4.033   2.778   4.752 -0.8969  0.1423 -0.3267
  103OSM   H17S10392   4.039   2.680   4.803  0.3605  0.8678  0.9676
  103OSM   H17T10393   4.139   2.811   4.755  0.5025 -3.0527 -4.3805
  103OSM   C18S10394   4.012   2.757   4.604  0.2240  0.1448  0.4654
  103OSM   H18S10395   3.910   2.721   4.578 -0.2049  0.1966  1.9841
  103OSM   H18T10396   4.086   2.681   4.570 -1.2826 -1.9680  1.6632
  103OSM   H18U10397   4.019   2.851   4.545  0.0695  0.5588  1.0988
  103OSM    C1F10398   3.764   2.464   6.446 -0.4170  0.1687 -0.2686
  103OSM     OF10399   3.676   2.394   6.498 -0.3685 -0.6558  0.5069
  103OSM    C2F10400   3.906   2.417   6.432  0.1876  0.4681  0.1352
  103OSM    H2F10401   3.932   2.359   6.523 -1.4506  1.1601  1.0854
  103OSM    H2G10402   3.973   2.506   6.429  0.1975  0.4414 -0.7036
  103OSM    C3F10403   3.935   2.325   6.314 -0.1913  0.2672 -0.7033
  103OSM    H3F10404   3.895   2.224   6.334 -2.5144  1.1625 -0.5230
  103OSM    H3G10405   4.046   2.312   6.316 -0.1068  0.2704  3.3848
  103OSM    C4F10406   3.898   2.385   6.178 -0.2486  0.9402  0.1522
  103OSM    H4F10407   3.963   2.473   6.158  0.6491 -0.3566 -3.4516
  103OSM    H4G10408   3.789   2.401   6.170 -0.3799 -0.3109 -1.0783
  103OSM    C5F10409   3.944   2.286   6.070 -0.6152  0.1486  0.8502
  103OSM    H5F10410   3.887   2.191   6.073  2.1509 -1.6244  0.7235
  103OSM    H5G10411   4.051   2.258   6.082 -0.1569  0.8742 -1.2514
  103OSM    C6F10412   3.934   2.362   5.932  0.7566 -0.1141 -0.0188
  103OSM    H6F10413   3.985   2.459   5.953 -0.3090  0.2817  0.8052
  103OSM    H6G10414   3.827   2.382   5.909  0.9553  2.1639  0.8086
  103OSM    C7F10415   3.994   2.295   5.808 -0.0900  0.5640 -0.2718
  103OSM    H7F10416   4.095   2.257   5.834 -0.3048  0.4912  0.4681
  103OSM    H7G10417   4.004   2.376   5.732  0.9703 -0.4919 -1.3102
  103OSM    C8F10418   3.908   2.182   5.736  0.5071  0.2553 -0.3143
  103OSM    H8F10419   3.936   2.162   5.631  0.0637 -1.6338 -0.1064
  103OSM    H8G10420   3.805   2.224   5.732  0.1351 -0.5526  0.3921
  103OSM    C9F10421   3.902   2.051   5.818  0.0923 -0.3835  0.2138
  103OSM    H9F10422   3.906   2.055   5.928  0.0362 -1.0552  0.2433
  103OSM   C10F10423   3.868   1.933   5.771  0.8311 -0.4328 -0.0322
  103OSM   H10F10424   3.846   1.854   5.845 -0.9542 -0.8488 -0.9517
  103OSM   C11F10425   3.831   1.899   5.629  0.4088 -0.6133  0.8355
  103OSM   H11F10426   3.847   1.987   5.563  1.1096 -0.8787  0.6369
  103OSM   H11G10427   3.722   1.885   5.619  0.0577  0.5303  2.7187
  103OSM   C12F10428   3.898   1.776   5.582 -0.3369 -0.0886  0.3500
  103OSM   H12F10429   3.864   1.691   5.645  0.6615 -0.8753 -0.1467
  103OSM   H12G10430   4.007   1.783   5.603 -0.0475  0.4624 -1.2051
  103OSM   C13F10431   3.874   1.753   5.432  0.3209  0.2929  0.5771
  103OSM   H13F10432   3.896   1.851   5.383  1.5566  0.4012  1.3084
  103OSM   H13G10433   3.767   1.732   5.408  0.7427 -0.5456 -0.6770
  103OSM   C14F10434   3.956   1.640   5.367  0.1731 -0.6110  0.0213
  103OSM   H14F10435   3.906   1.543   5.390  0.0500 -0.8765 -1.2941
  103OSM   H14G10436   4.058   1.648   5.410  0.6063  1.7763 -1.2713
  103OSM   C15F10437   3.970   1.655   5.216 -0.4451 -0.5543 -1.0905
  103OSM   H15F10438   3.897   1.730   5.179 -0.2430 -0.0475 -0.4886
  103OSM   H15G10439   3.952   1.556   5.169 -0.8818 -0.7831 -0.4471
  103OSM   C16F10440   4.107   1.703   5.164  0.3725  0.3013  0.3721
  103OSM   H16F10441   4.118   1.672   5.058 -0.1029 -0.8833  0.6535
  103OSM   H16G10442   4.183   1.646   5.222  0.1052 -0.3330  0.1141
  103OSM   C17F10443   4.136   1.841   5.190  0.5600 -0.1463  0.0404
  103OSM   H17F10444   4.141   1.856   5.300  2.9317  0.3148 -0.0737
  103OSM   H17G10445   4.062   1.916   5.155  1.2957 -0.8091 -3.2426
  103OSM   C18F10446   4.268   1.887   5.134  0.0976 -0.0913 -0.0713
  103OSM   H18F10447   4.293   1.989   5.171 -0.4741  0.2313 -0.5632
  103OSM   H18G10448   4.265   1.882   5.023  2.0952  0.0984 -0.1833
  103OSM   H18H10449   4.350   1.826   5.177  1.4214  1.6501  0.0237
  104OSM      N10450   5.140   1.579   6.742 -0.1043  0.3658  0.3054
  104OSM    C1510451   5.165   1.726   6.766 -0.1852  0.6558 -0.0070
  104OSM   H15A10452   5.186   1.773   6.671 -0.7859  1.7619  0.3942
  104OSM   H15B10453   5.242   1.741   6.840  0.4552 -0.3894 -0.4374
  104OSM   H15C10454   5.067   1.760   6.796 -0.1947 -0.3330  1.1706
  104OSM    C1410455   5.270   1.523   6.694  0.0486 -0.8191 -0.0223
  104OSM   H14A10456   5.287   1.569   6.597 -3.8183  0.9533 -0.0544
  104OSM   H14B10457   5.263   1.417   6.679  0.9520 -0.8383 -0.3928
  104OSM   H14C10458   5.348   1.547   6.765 -0.6483  0.8475  0.2515
  104OSM    C1310459   5.108   1.509   6.869 -0.4198  0.4843  0.4786
  104OSM   H13A10460   5.045   1.575   6.926  1.1739  1.2827  1.3694
  104OSM   H13B10461   5.187   1.501   6.941  1.5624  1.0189 -1.5295
  104OSM   H13C10462   5.064   1.418   6.830  1.3927  0.0022 -0.5706
  104OSM    C1210463   5.023   1.564   6.652  0.5792 -0.1139  0.2390
  104OSM   H12A10464   5.045   1.607   6.555  0.8570  0.7097  0.6660
  104OSM   H12B10465   4.941   1.620   6.694  0.4159  0.4739 -0.8274
  104OSM    C1110466   4.958   1.432   6.629 -0.1660  1.8173 -0.0699
  104OSM   H11A10467   5.031   1.353   6.602 -0.8744  1.0027  0.3521
  104OSM   H11B10468   4.899   1.437   6.535  0.0830  1.1209 -0.2733
  104OSM      P10469   4.721   1.424   6.746 -0.1832  0.5487  0.6357
  104OSM    O1310470   4.673   1.401   6.882  0.4177  0.3362  0.2030
  104OSM    O1410471   4.703   1.562   6.688  0.2335  0.2011  0.3290
  104OSM    O1110472   4.661   1.309   6.650 -0.0936 -0.8863  0.1003
  104OSM    O1210473   4.874   1.393   6.740 -0.0741  0.1988 -0.7700
  104OSM    C1S10474   4.581   1.336   6.540  0.3438 -0.1927  0.7564
  104OSM    H1S10475   4.636   1.405   6.472  2.1075 -1.7494  0.5356
  104OSM    H1T10476   4.492   1.399   6.563  2.2889  3.8723 -1.7103
  104OSM     NF10477   4.474   1.267   6.344  0.2508  0.1915  0.3885
  104OSM    HNF10478   4.374   1.275   6.345  0.1127 -1.1284 -0.3496
  104OSM    C2S10479   4.538   1.215   6.464  0.2529 -0.1643  0.3897
  104OSM    H2S10480   4.623   1.153   6.428 -1.6177 -1.0585 -2.8374
  104OSM    C3S10481   4.445   1.135   6.552  0.1378 -0.0859 -0.5483
  104OSM    H3S10482   4.356   1.200   6.559  0.5717  0.6520 -1.6970
  104OSM     O310483   4.502   1.098   6.677 -0.2391  0.0740 -0.0118
  104OSM    HO310484   4.573   1.159   6.696 -0.1970 -0.3329  1.2186
  104OSM    C4S10485   4.397   1.000   6.488  0.0910 -0.6003 -0.0438
  104OSM    H4S10486   4.482   0.932   6.474  1.5163  1.2807 -0.8634
  104OSM    C5S10487   4.274   0.976   6.427 -0.2545 -0.5962  0.0314
  104OSM    H5S10488   4.205   1.062   6.429  1.6264  0.9695  2.0294
  104OSM    C6S10489   4.243   0.850   6.356 -0.0785  0.0620  0.1179
  104OSM    H6S10490   4.315   0.769   6.380 -0.2186  0.6017  2.5398
  104OSM    H6T10491   4.246   0.868   6.246  3.8495  2.3591  0.4184
  104OSM    C7S10492   4.099   0.795   6.392 -0.2111 -0.0838 -0.2159
  104OSM    H7S10493   4.028   0.874   6.359 -1.7514 -2.0884 -1.9756
  104OSM    H7T10494   4.099   0.788   6.502  0.8491  2.4769  0.0215
  104OSM    C8S10495   4.061   0.659   6.337 -0.3902 -0.4918  0.0743
  104OSM    H8S10496   3.956   0.631   6.361 -0.7196 -0.5135 -1.3290
  104OSM    H8T10497   4.128   0.581   6.378 -0.1298 -1.3413 -1.8847
  104OSM    C9S10498   4.073   0.652   6.184  0.6420 -0.8200 -0.2646
  104OSM    H9S10499   4.179   0.659   6.149  1.1710 -0.8910  1.2485
  104OSM    H9T10500   4.035   0.744   6.135  3.4500  0.5588 -0.0746
  104OSM   C10S10501   4.001   0.536   6.118 -0.6388  0.4687 -0.0737
  104OSM   H10S10502   3.898   0.521   6.158 -1.1634  1.8409 -0.8283
  104OSM   H10T10503   4.056   0.441   6.130 -1.2442 -0.4798 -3.6312
  104OSM   C11S10504   3.980   0.569   5.967 -0.3718  0.6850  0.2439
  104OSM   H11S10505   3.932   0.665   5.938  1.4597  1.1807 -1.4045
  104OSM   H11T10506   3.902   0.505   5.922 -2.2238  1.4709  2.1571
  104OSM   C12S10507   4.109   0.565   5.877 -0.3895 -0.3239 -0.3554
  104OSM   H12S10508   4.165   0.475   5.909 -0.2729 -0.0873  0.1247
  104OSM   H12T10509   4.175   0.655   5.885 -2.0381  0.8743  0.4489
  104OSM   C13S10510   4.074   0.540   5.732 -0.6048  0.9692 -0.7878
  104OSM   H13S10511   4.018   0.624   5.686 -1.1492  0.6628 -0.7027
  104OSM   H13T10512   4.003   0.455   5.725  0.0722  0.1571  1.3407
  104OSM   C14S10513   4.190   0.498   5.630  0.3067 -0.0042 -0.6314
  104OSM   H14S10514   4.241   0.406   5.664 -0.0592  1.0645  3.2069
  104OSM   H14T10515   4.263   0.583   5.632  0.6793 -0.2688 -1.9328
  104OSM   C15S10516   4.147   0.478   5.485 -0.0458 -0.2842  0.2961
  104OSM   H15S10517   4.104   0.570   5.439 -0.1305  0.0064  0.9457
  104OSM   H15T10518   4.063   0.405   5.480 -0.1346 -0.1957  0.5091
  104OSM   C16S10519   4.273   0.432   5.399  0.2259  0.1188  0.0268
  104OSM   H16S10520   4.319   0.339   5.438  0.8017 -0.7539 -2.5118
  104OSM   H16T10521   4.347   0.514   5.386 -1.1895  1.0813 -2.7315
  104OSM   C17S10522   4.216   0.378   5.265 -0.0744 -0.2786 -0.0825
  104OSM   H17S10523   4.153   0.465   5.238  1.1061  0.1522 -1.5954
  104OSM   H17T10524   4.152   0.288   5.281  1.5482 -1.0488  2.8833
  104OSM   C18S10525   4.329   0.357   5.165 -0.1596  0.0663 -0.0474
  104OSM   H18S10526   4.291   0.333   5.064 -1.4197 -0.2668  0.4865
  104OSM   H18T10527   4.386   0.264   5.186 -1.3350 -1.1445 -1.9345
  104OSM   H18U10528   4.407   0.435   5.161  0.3287 -0.4195 -0.1022
  104OSM    C1F10529   4.539   1.312   6.242 -0.2194  0.0757  0.1521
  104OSM     OF10530   4.659   1.284   6.239 -0.2457  0.3846  0.3236
  104OSM    C2F10531   4.465   1.393   6.138  0.1704 -0.5920 -0.4127
  104OSM    H2F10532   4.396   1.459   6.195  3.0641  1.5075  0.9130
  104OSM    H2G10533   4.405   1.332   6.067  1.2590  0.3027 -2.1713
  104OSM    C3F10534   4.559   1.458   6.036  0.5123 -0.2999 -0.1287
  104OSM    H3F10535   4.619   1.385   5.978  0.5211  0.5467 -1.2209
  104OSM    H3G10536   4.625   1.518   6.101  3.3247 -2.8207 -0.4673
  104OSM    C4F10537   4.480   1.552   5.935 -0.1600  0.0873 -0.4438
  104OSM    H4F10538   4.549   1.601   5.864  1.2522  0.5491  1.1708
  104OSM    H4G10539   4.432   1.625   6.004  1.0972 -2.3999  3.4038
  104OSM    C5F10540   4.361   1.491   5.866  0.0041  0.1721  0.1572
  104OSM    H5F10541   4.276   1.467   5.933  0.9159 -1.7047  0.6844
  104OSM    H5G10542   4.403   1.396   5.828  1.2332  0.7018  0.1436
  104OSM    C6F10543   4.321   1.568   5.736  0.7741  0.7346 -0.8611
  104OSM    H6F10544   4.403   1.565   5.662  2.0497  1.5464  0.4604
  104OSM    H6G10545   4.311   1.676   5.761 -0.1097  0.4398  0.1349
  104OSM    C7F10546   4.187   1.522   5.668 -0.2849  0.5195 -0.1626
  104OSM    H7F10547   4.148   1.593   5.591 -4.4408  1.3464  2.3442
  104OSM    H7G10548   4.110   1.526   5.749 -2.2247  0.0490 -1.8972
  104OSM    C8F10549   4.196   1.376   5.610 -0.3161  0.2731 -0.6702
  104OSM    H8F10550   4.221   1.299   5.686  0.1215  0.1471 -0.9380
  104OSM    H8G10551   4.279   1.382   5.536 -2.0250 -0.2534 -2.7069
  104OSM    C9F10552   4.063   1.328   5.556 -0.2856  0.5305 -0.4652
  104OSM    H9F10553   3.987   1.327   5.636  0.9038  1.9542  0.7692
  104OSM   C10F10554   4.026   1.299   5.429 -0.3965 -0.0492 -0.0003
  104OSM   H10F10555   3.929   1.260   5.396  0.6762 -2.9481 -0.0266
  104OSM   C11F10556   4.110   1.323   5.310 -0.1220  0.4098 -0.3202
  104OSM   H11F10557   4.221   1.326   5.319  0.1285  1.9455 -2.7196
  104OSM   H11G10558   4.092   1.423   5.265  0.8719  1.0690  0.6883
  104OSM   C12F10559   4.101   1.218   5.195  0.2234 -0.8362 -0.7142
  104OSM   H12F10560   3.995   1.188   5.180 -0.1231 -0.5067  0.9453
  104OSM   H12G10561   4.150   1.126   5.232 -1.4047 -1.5526 -0.2393
  104OSM   C13F10562   4.174   1.250   5.064 -0.8180  0.1402 -0.1063
  104OSM   H13F10563   4.281   1.273   5.079 -0.2403  0.6070 -3.8555
  104OSM   H13G10564   4.126   1.346   5.034  0.2976  0.3757 -1.2147
  104OSM   C14F10565   4.153   1.128   4.969  0.8402 -0.2371 -0.1484
  104OSM   H14F10566   4.211   1.144   4.875  1.2214  0.1101  0.1387
  104OSM   H14G10567   4.043   1.121   4.956  0.3170  1.0440  2.6920
  104OSM   C15F10568   4.194   0.989   5.013  0.0058  0.6110 -0.1775
  104OSM   H15F10569   4.131   0.956   5.099 -0.2164 -0.7434 -0.8279
  104OSM   H15G10570   4.297   0.977   5.053 -0.1711 -0.3537  0.0278
  104OSM   C16F10571   4.175   0.888   4.895  0.3807 -0.0142  0.1268
  104OSM   H16F10572   4.249   0.906   4.814 -0.4580  0.5091 -0.5397
  104OSM   H16G10573   4.072   0.898   4.854  0.0360 -1.1413  0.6603
  104OSM   C17F10574   4.197   0.741   4.938  0.0372  0.2497 -0.0711
  104OSM   H17F10575   4.104   0.709   4.990 -0.9704  2.5003 -0.3532
  104OSM   H17G10576   4.262   0.749   5.028 -0.3924 -0.6549  0.3378
  104OSM   C18F10577   4.249   0.641   4.834 -0.0521 -0.1376 -0.2430
  104OSM   H18F10578   4.260   0.537   4.870  1.4431  0.1521  0.1931
  104OSM   H18G10579   4.350   0.673   4.799 -0.8132  0.8180 -1.7078
  104OSM   H18H10580   4.176   0.647   4.750  0.5863  1.5458 -0.7376
  105OSM      N10581   4.918   2.615   7.252  0.2596 -0.5377  0.5972
  105OSM    C1510582   5.057   2.569   7.213 -0.1330  0.1521 -0.9505
  105OSM   H15A10583   5.063   2.523   7.115 -1.0883  0.5515 -1.2161
  105OSM   H15B10584   5.092   2.496   7.285  0.6694  2.2492  0.9001
  105OSM   H15C10585   5.124   2.654   7.205 -2.1501  1.7202 -2.4246
  105OSM    C1410586   4.919   2.675   7.392 -0.0329  0.0544  0.3930
  105OSM   H14A10587   4.822   2.707   7.426 -0.0701  0.4151 -0.0372
  105OSM   H14B10588   4.987   2.758   7.402  0.4151  0.0053 -1.6357
  105OSM   H14C10589   4.953   2.600   7.463  0.3863 -0.1931 -0.0538
  105OSM    C1310590   4.880   2.726   7.155  0.3093  0.1247  0.2112
  105OSM   H13A10591   4.961   2.797   7.145 -1.5907  2.2784 -1.1062
  105OSM   H13B10592   4.793   2.776   7.194 -1.1058 -2.5337  0.6708
  105OSM   H13C10593   4.869   2.676   7.060  1.5999  0.2895 -0.0465
  105OSM    C1210594   4.812   2.503   7.238 -0.5957  0.0013 -0.4359
  105OSM   H12A10595   4.805   2.460   7.139 -0.5779 -4.0712  1.1594
  105OSM   H12B10596   4.716   2.547   7.262 -1.5744 -2.1622 -0.1662
  105OSM    C1110597   4.826   2.375   7.325  0.0672 -0.4823  0.3077
  105OSM   H11A10598   4.725   2.331   7.328  0.4093 -1.2658  0.6178
  105OSM   H11B10599   4.861   2.402   7.427  2.0375  0.8660 -0.6578
  105OSM      P10600   4.880   2.188   7.162  0.0804 -0.1025 -0.5001
  105OSM    O1310601   4.982   2.081   7.146  0.2815 -0.3628 -0.0910
  105OSM    O1410602   4.748   2.145   7.195  0.3769 -0.2913  0.3459
  105OSM    O1110603   4.884   2.292   7.041 -0.2354  0.3928  0.2274
  105OSM    O1210604   4.927   2.283   7.275  0.1980 -0.0711 -0.6512
  105OSM    C1S10605   4.964   2.269   6.924  0.5988 -0.0100 -0.4367
  105OSM    H1S10606   4.971   2.161   6.900  0.5946 -0.2982  0.7670
  105OSM    H1T10607   5.067   2.305   6.946  0.5945 -1.4547  2.4458
  105OSM     NF10608   5.013   2.317   6.697 -0.0329 -0.4719 -0.0078
  105OSM    HNF10609   5.067   2.391   6.659 -2.1621  0.6551 -0.9814
  105OSM    C2S10610   4.914   2.348   6.801 -0.6800  0.7580  0.2278
  105OSM    H2S10611   4.819   2.301   6.768  0.3036 -0.7072 -0.6062
  105OSM    C3S10612   4.896   2.500   6.833  0.3187  0.3082 -0.3915
  105OSM    H3S10613   4.990   2.522   6.888  0.1716 -0.4298  0.1771
  105OSM     O310614   4.786   2.533   6.924  0.1430  0.4184 -0.9330
  105OSM    HO310615   4.749   2.447   6.945  1.0877  0.4025  0.8791
  105OSM    C4S10616   4.865   2.578   6.712 -0.0669  0.0329 -0.8017
  105OSM    H4S10617   4.758   2.586   6.685  0.1390  0.5724 -1.5097
  105OSM    C5S10618   4.964   2.642   6.651 -0.2429 -0.5069  0.1392
  105OSM    H5S10619   5.058   2.661   6.705  0.3679  1.6625 -1.5833
  105OSM    C6S10620   4.944   2.722   6.530  0.4309  0.1439 -0.0147
  105OSM    H6S10621   5.040   2.730   6.474  0.2583 -1.4068 -0.5787
  105OSM    H6T10622   4.924   2.828   6.559 -2.0853 -0.2101 -0.2476
  105OSM    C7S10623   4.849   2.658   6.429  0.7723 -0.6004 -0.2668
  105OSM    H7S10624   4.750   2.642   6.476  0.1862  0.0106 -1.2527
  105OSM    H7T10625   4.878   2.556   6.396 -0.9122 -1.1317 -0.1873
  105OSM    C8S10626   4.825   2.764   6.315 -0.4212  1.1625 -0.0282
  105OSM    H8S10627   4.916   2.786   6.256 -1.0479  1.5750 -0.8659
  105OSM    H8T10628   4.801   2.861   6.365 -1.0229  1.0297 -0.0450
  105OSM    C9S10629   4.710   2.724   6.228  0.6125 -0.2535 -0.5924
  105OSM    H9S10630   4.619   2.736   6.289 -0.9408 -1.1166 -2.6341
  105OSM    H9T10631   4.729   2.618   6.203 -0.2417 -0.3905 -0.6886
  105OSM   C10S10632   4.698   2.815   6.104  0.1603  0.2219  0.6396
  105OSM   H10S10633   4.682   2.921   6.133 -0.4743  0.5941 -0.9856
  105OSM   H10T10634   4.608   2.787   6.046  0.0499  2.4476 -0.3434
  105OSM   C11S10635   4.809   2.810   5.999  0.0471 -0.3406 -0.0965
  105OSM   H11S10636   4.865   2.714   5.997  1.8969  0.5480  2.9479
  105OSM   H11T10637   4.885   2.882   6.035 -0.6811  0.2020  0.3782
  105OSM   C12S10638   4.753   2.859   5.860 -0.0361  0.0191 -0.1026
  105OSM   H12S10639   4.831   2.893   5.789  0.4868  0.5209  0.6985
  105OSM   H12T10640   4.686   2.947   5.874  1.8790  1.5063  0.2261
  105OSM   C13S10641   4.677   2.750   5.782 -0.5550  0.6282 -0.5876
  105OSM   H13S10642   4.638   2.677   5.856 -0.6497  0.8714 -0.3981
  105OSM   H13T10643   4.743   2.701   5.707  0.9992  1.1473  0.3849
  105OSM   C14S10644   4.561   2.812   5.694  0.2836 -0.1524  0.0499
  105OSM   H14S10645   4.601   2.902   5.642 -2.2668  1.5568  0.8398
  105OSM   H14T10646   4.483   2.858   5.758 -0.9648 -1.6885 -0.3125
  105OSM   C15S10647   4.498   2.711   5.600  0.7641 -0.4042  0.7371
  105OSM   H15S10648   4.442   2.652   5.675  0.4909 -0.8667  0.1760
  105OSM   H15T10649   4.562   2.643   5.541  1.4145  1.0246 -0.2803
  105OSM   C16S10650   4.401   2.789   5.506 -0.2971  0.4932 -0.2512
  105OSM   H16S10651   4.451   2.881   5.467 -0.8950  0.7041 -0.5245
  105OSM   H16T10652   4.329   2.839   5.574 -0.0167  0.8835 -0.2348
  105OSM   C17S10653   4.325   2.695   5.411  0.5072  0.1085  0.0321
  105OSM   H17S10654   4.259   2.762   5.352  1.3134  2.2954  1.4862
  105OSM   H17T10655   4.252   2.631   5.466 -0.2740  0.1106 -0.9752
  105OSM   C18S10656   4.405   2.608   5.311 -0.4943  0.3761 -0.1104
  105OSM   H18S10657   4.461   2.528   5.366 -0.4845 -0.5012 -1.3527
  105OSM   H18T10658   4.478   2.672   5.258  0.1445 -0.0833  0.1828
  105OSM   H18U10659   4.337   2.563   5.236 -0.0591  0.0784 -0.3296
  105OSM    C1F10660   5.017   2.198   6.643 -0.1291  0.0416 -0.0541
  105OSM     OF10661   4.917   2.130   6.655  0.3235  0.2613  0.1715
  105OSM    C2F10662   5.140   2.147   6.568  0.1124  0.3350 -0.2521
  105OSM    H2F10663   5.213   2.133   6.651  0.1707 -0.5359 -0.4458
  105OSM    H2G10664   5.180   2.224   6.499  1.8722 -1.8643 -1.8247
  105OSM    C3F10665   5.119   2.006   6.508  0.8145 -0.1878  0.2673
  105OSM    H3F10666   5.032   2.002   6.439 -0.7220 -2.2852  2.1499
  105OSM    H3G10667   5.098   1.940   6.596  0.5667 -2.4015 -1.3584
  105OSM    C4F10668   5.236   1.948   6.426 -0.4947 -0.4853 -0.3144
  105OSM    H4F10669   5.204   1.848   6.389 -0.8442 -0.5477  0.1495
  105OSM    H4G10670   5.325   1.918   6.484 -1.8368 -0.5929  1.7943
  105OSM    C5F10671   5.279   2.044   6.318 -0.6104  0.2570 -0.0869
  105OSM    H5F10672   5.351   2.119   6.357  0.1236 -0.7627  0.5877
  105OSM    H5G10673   5.190   2.109   6.304 -0.5293  0.8301  1.8245
  105OSM    C6F10674   5.337   1.984   6.187  0.7535 -0.1088 -0.0201
  105OSM    H6F10675   5.253   1.941   6.128 -1.0998  1.2469  1.4629
  105OSM    H6G10676   5.404   1.907   6.229 -0.3751  0.0323  2.1887
  105OSM    C7F10677   5.420   2.087   6.112  0.1934  0.1013  0.5117
  105OSM    H7F10678   5.471   2.040   6.025 -2.9554 -0.4328 -1.1885
  105OSM    H7G10679   5.496   2.125   6.183 -0.3970  0.3096  1.0342
  105OSM    C8F10680   5.334   2.205   6.057  0.3306  0.1443 -0.1040
  105OSM    H8F10681   5.279   2.245   6.145  2.3739 -0.4588  1.5056
  105OSM    H8G10682   5.259   2.158   5.989  0.6745 -1.0158  0.3023
  105OSM    C9F10683   5.415   2.315   5.989 -0.3907 -0.7323 -0.1394
  105OSM    H9F10684   5.502   2.354   6.043 -0.6852  1.0730 -0.8947
  105OSM   C10F10685   5.393   2.352   5.866  0.1047 -0.1287  0.1718
  105OSM   H10F10686   5.467   2.418   5.818  0.6990  1.4185  2.9719
  105OSM   C11F10687   5.286   2.295   5.770 -0.3156 -0.5539 -0.9479
  105OSM   H11F10688   5.189   2.336   5.805  1.0419  1.9397  0.1513
  105OSM   H11G10689   5.279   2.184   5.778 -2.5604 -0.3040  4.0684
  105OSM   C12F10690   5.315   2.348   5.629 -0.0244 -0.2339 -0.4407
  105OSM   H12F10691   5.420   2.329   5.598  0.6271 -2.3878  2.6550
  105OSM   H12G10692   5.305   2.459   5.621  2.6642  0.0866 -0.3087
  105OSM   C13F10693   5.232   2.272   5.523 -0.0970 -0.0846 -0.0204
  105OSM   H13F10694   5.132   2.314   5.543  0.5381  2.3316 -1.4301
  105OSM   H13G10695   5.248   2.164   5.543  1.2796  0.1963  0.5120
  105OSM   C14F10696   5.273   2.308   5.386 -0.1786 -0.1697 -0.1411
  105OSM   H14F10697   5.379   2.280   5.370  0.0709  0.9147 -0.4663
  105OSM   H14G10698   5.282   2.419   5.378 -0.0277  0.4110  4.8712
  105OSM   C15F10699   5.167   2.261   5.290  0.1730 -0.7506  0.4132
  105OSM   H15F10700   5.074   2.314   5.322  0.6715 -0.0380  0.7011
  105OSM   H15G10701   5.146   2.152   5.291 -1.4819 -0.5098 -1.3392
  105OSM   C16F10702   5.181   2.308   5.146  0.4888  0.3759 -0.2645
  105OSM   H16F10703   5.287   2.296   5.112  2.3532  0.4954  4.7064
  105OSM   H16G10704   5.162   2.417   5.134  1.2962  0.6695  0.9518
  105OSM   C17F10705   5.092   2.243   5.038  0.4717 -0.0796 -0.0786
  105OSM   H17F10706   4.989   2.224   5.075  0.4017 -0.9590 -0.7074
  105OSM   H17G10707   5.123   2.143   5.003 -2.5006 -0.4838 -1.9438
  105OSM   C18F10708   5.082   2.317   4.908  0.0791 -0.1410  0.0762
  105OSM   H18F10709   5.018   2.262   4.837  1.2718  0.3485 -1.4279
  105OSM   H18G10710   5.179   2.343   4.859 -0.4962  0.8015 -0.5916
  105OSM   H18H10711   5.029   2.414   4.911 -0.5995 -0.5220  0.8782
  106OSM      N10712   4.139   5.884   7.351  0.0203  0.2296  0.3094
  106OSM    C1510713   4.234   5.777   7.402  1.0505  0.0640 -0.5317
  106OSM   H15A10714   4.239   5.772   7.510  3.4862 -0.3708 -0.6212
  106OSM   H15B10715   4.333   5.780   7.360  0.9286  0.4202 -0.8016
  106OSM   H15C10716   4.189   5.681   7.383 -0.9609  0.5594  1.3746
  106OSM    C1410717   4.010   5.866   7.426 -0.3510  0.1416 -0.5863
  106OSM   H14A10718   4.020   5.870   7.534 -0.7171 -1.6645 -0.4518
  106OSM   H14B10719   3.967   5.773   7.392 -0.6875  0.9362 -2.4080
  106OSM   H14C10720   3.925   5.931   7.407 -3.5666 -3.0016  1.6070
  106OSM    C1310721   4.210   6.015   7.365 -0.0911 -0.3146 -0.4829
  106OSM   H13A10722   4.312   6.016   7.331  0.1360 -1.2598  0.1389
  106OSM   H13B10723   4.200   6.054   7.465 -2.2894  0.7964 -1.0652
  106OSM   H13C10724   4.162   6.088   7.301 -0.6385 -0.4153 -0.1938
  106OSM    C1210725   4.113   5.855   7.202 -0.1680 -0.2553 -0.1413
  106OSM   H12A10726   4.086   5.751   7.198  2.3641 -1.2380  3.1211
  106OSM   H12B10727   4.213   5.864   7.164  0.7194 -1.4836  1.7053
  106OSM    C1110728   4.013   5.940   7.117 -0.3552  0.8534 -0.3465
  106OSM   H11A10729   3.927   5.963   7.184  0.0815 -3.1573  1.9540
  106OSM   H11B10730   3.981   5.876   7.032  1.1217  1.5622 -1.4815
  106OSM      P10731   4.168   6.080   6.952 -0.1331  0.3928  0.0922
  106OSM    O1310732   4.176   6.221   6.913 -0.4228 -0.2449  0.2254
  106OSM    O1410733   4.288   6.003   6.963 -0.3998  0.3816 -0.3821
  106OSM    O1110734   4.093   6.007   6.842  0.8345 -0.3267  0.2935
  106OSM    O1210735   4.073   6.064   7.083 -0.5423  0.2488  0.6636
  106OSM    C1S10736   3.969   6.059   6.787  0.3002 -0.1129 -0.1967
  106OSM    H1S10737   3.940   6.155   6.834  1.7740  0.9114 -1.3127
  106OSM    H1T10738   3.886   5.988   6.807  0.0658  0.3255  0.4188
  106OSM     NF10739   3.840   6.124   6.591  0.8257  0.0596 -0.0372
  106OSM    HNF10740   3.774   6.051   6.576 -0.6755  1.2833  0.3672
  106OSM    C2S10741   3.970   6.087   6.629  0.1268  0.5811 -0.6559
  106OSM    H2S10742   4.047   6.164   6.610  1.6192 -0.8863 -0.7072
  106OSM    C3S10743   4.016   5.958   6.554 -0.2213 -0.4527  0.2627
  106OSM    H3S10744   3.936   5.888   6.586  1.3343 -1.4783  2.1534
  106OSM     O310745   4.142   5.886   6.585  0.0576 -0.3922  0.2781
  106OSM    HO310746   4.172   5.932   6.663 -0.6150 -1.0363  0.9280
  106OSM    C4S10747   3.990   5.969   6.406  0.3092  0.2227 -0.3314
  106OSM    H4S10748   3.892   5.931   6.373  0.4871 -0.8181  0.2759
  106OSM    C5S10749   4.078   5.993   6.304  0.1660  0.6604  0.1084
  106OSM    H5S10750   4.182   6.020   6.326  0.7563 -1.1347 -0.2950
  106OSM    C6S10751   4.044   6.005   6.150 -0.1118  0.5164 -0.6120
  106OSM    H6S10752   4.085   5.919   6.093 -1.3135 -1.4075  1.3026
  106OSM    H6T10753   4.076   6.106   6.117 -0.1160  0.9120  0.5646
  106OSM    C7S10754   3.893   6.012   6.114 -0.6105  0.2602 -0.2792
  106OSM    H7S10755   3.833   6.073   6.184  0.3229  2.1168 -1.0367
  106OSM    H7T10756   3.863   5.905   6.121 -2.7602  0.7797 -1.0660
  106OSM    C8S10757   3.872   6.052   5.970 -0.0809 -0.3408 -0.0461
  106OSM    H8S10758   3.895   6.159   5.953 -0.1285 -0.7807 -3.5569
  106OSM    H8T10759   3.762   6.044   5.954 -0.4884  0.3207  2.0632
  106OSM    C9S10760   3.944   5.970   5.868 -0.1227  0.2434  0.5813
  106OSM    H9S10761   3.914   5.863   5.877 -1.6178  0.3339 -2.2488
  106OSM    H9T10762   4.055   5.981   5.876 -0.0218  1.6655 -1.7532
  106OSM   C10S10763   3.913   5.998   5.718  0.3280  0.1854  0.2167
  106OSM   H10S10764   3.940   6.104   5.700  1.5456 -0.1421  0.0019
  106OSM   H10T10765   3.804   5.996   5.697  0.0656 -1.4757  1.5342
  106OSM   C11S10766   3.997   5.910   5.624  0.5232  0.0415 -0.2520
  106OSM   H11S10767   3.979   5.802   5.641  0.4864 -0.4572 -3.0201
  106OSM   H11T10768   4.104   5.930   5.645  0.3472 -0.5311  1.3055
  106OSM   C12S10769   3.964   5.965   5.483 -0.4017  0.1842 -0.2166
  106OSM   H12S10770   3.961   6.076   5.481  1.5420  0.3450  1.9360
  106OSM   H12T10771   3.860   5.933   5.462 -0.5235  1.4371 -1.7953
  106OSM   C13S10772   4.057   5.918   5.367 -0.7707 -0.2286 -0.9705
  106OSM   H13S10773   4.065   5.808   5.380 -2.3121 -0.3009 -0.5260
  106OSM   H13T10774   4.159   5.962   5.369 -0.4650 -0.7050  3.2652
  106OSM   C14S10775   3.988   5.928   5.238  0.3077 -0.7885  0.0937
  106OSM   H14S10776   3.960   6.036   5.237 -0.6323 -1.0283 -0.5587
  106OSM   H14T10777   3.896   5.866   5.243  0.9252 -1.6250  2.4013
  106OSM   C15S10778   4.071   5.897   5.118 -0.3929  0.2509  0.1089
  106OSM   H15S10779   4.168   5.850   5.145 -2.3655 -4.2546  0.1084
  106OSM   H15T10780   4.096   5.992   5.066 -0.9479  0.3172 -0.0385
  106OSM   C16S10781   4.004   5.803   5.018  0.7508  0.1807  0.0237
  106OSM   H16S10782   3.931   5.864   4.962  0.9605 -0.0989 -0.5643
  106OSM   H16T10783   3.952   5.728   5.082  0.9424  1.0747  1.2396
  106OSM   C17S10784   4.097   5.739   4.908 -0.0552 -0.0072 -1.0180
  106OSM   H17S10785   4.187   5.716   4.968 -1.0715 -2.3485 -0.2980
  106OSM   H17T10786   4.104   5.816   4.828 -0.3275  0.9271 -0.1725
  106OSM   C18S10787   4.049   5.607   4.844  0.5034 -0.1011  0.5965
  106OSM   H18S10788   4.058   5.528   4.921  1.9000 -0.2539  0.3127
  106OSM   H18T10789   4.111   5.579   4.756 -0.3033 -1.2179  0.3624
  106OSM   H18U10790   3.941   5.616   4.818  0.1702 -1.4913  1.3980
  106OSM    C1F10791   3.800   6.245   6.606 -0.2432  0.0478 -0.8595
  106OSM     OF10792   3.871   6.331   6.649 -0.2700 -0.0361  0.0239
  106OSM    C2F10793   3.663   6.280   6.562  0.1477 -0.1391  0.3982
  106OSM    H2F10794   3.599   6.283   6.652 -1.7996 -0.7955 -0.9023
  106OSM    H2G10795   3.628   6.194   6.501  3.1521 -1.0558 -0.2035
  106OSM    C3F10796   3.670   6.417   6.492 -0.2577  0.6153 -0.8014
  106OSM    H3F10797   3.716   6.499   6.552  1.2976  1.3136 -2.8232
  106OSM    H3G10798   3.566   6.454   6.479 -0.5171 -0.1013 -0.7811
  106OSM    C4F10799   3.752   6.424   6.361 -0.1836  0.0464 -0.1261
  106OSM    H4F10800   3.812   6.330   6.362 -0.9887 -0.4918  1.0805
  106OSM    H4G10801   3.823   6.509   6.366  0.5915 -0.5602 -0.6085
  106OSM    C5F10802   3.657   6.436   6.242 -1.0184 -0.0230  0.2618
  106OSM    H5F10803   3.599   6.530   6.258 -0.7217  0.1713  0.1960
  106OSM    H5G10804   3.568   6.370   6.240 -1.1456  0.1426  0.4119
  106OSM    C6F10805   3.725   6.441   6.104 -0.0595 -0.4493  0.5980
  106OSM    H6F10806   3.791   6.359   6.071 -1.6128 -1.2592 -0.6353
  106OSM    H6G10807   3.797   6.524   6.121 -0.6426  0.3673 -0.7748
  106OSM    C7F10808   3.622   6.496   5.997 -0.2420 -0.2507  0.4015
  106OSM    H7F10809   3.615   6.606   6.010 -1.0056 -0.0661 -1.3071
  106OSM    H7G10810   3.521   6.454   6.019 -0.9753 -0.8385 -3.2668
  106OSM    C8F10811   3.664   6.468   5.844  0.1634  0.1861  0.1798
  106OSM    H8F10812   3.768   6.509   5.844 -0.8686  3.0960  1.6082
  106OSM    H8G10813   3.605   6.538   5.781 -0.2640  1.7495  2.2003
  106OSM    C9F10814   3.668   6.321   5.811  0.2304 -0.1561  1.1292
  106OSM    H9F10815   3.716   6.257   5.886  2.7248  0.8977  0.5072
  106OSM   C10F10816   3.640   6.255   5.693 -0.1939 -0.8346  0.0593
  106OSM   H10F10817   3.659   6.150   5.667 -0.1026 -0.0783 -3.4399
  106OSM   C11F10818   3.579   6.320   5.574  0.2774 -0.0226 -0.0994
  106OSM   H11F10819   3.607   6.426   5.563 -0.3437  0.0566 -0.9731
  106OSM   H11G10820   3.467   6.319   5.571  0.2800 -0.0631 -0.1952
  106OSM   C12F10821   3.628   6.250   5.441  1.0739 -0.7345  0.4465
  106OSM   H12F10822   3.738   6.236   5.444  0.9836 -1.3730  1.4887
  106OSM   H12G10823   3.596   6.335   5.377 -1.0401 -2.0366 -0.3156
  106OSM   C13F10824   3.555   6.118   5.402 -0.3205  0.1789 -0.3567
  106OSM   H13F10825   3.446   6.121   5.419  0.0540  1.3059  2.5031
  106OSM   H13G10826   3.584   6.042   5.478  0.7121  1.0272  0.1395
  106OSM   C14F10827   3.606   6.055   5.275  0.8781 -0.1918  0.2999
  106OSM   H14F10828   3.596   5.945   5.273 -0.2183 -0.1489  1.8687
  106OSM   H14G10829   3.717   6.067   5.274  0.9105 -0.4433  0.6571
  106OSM   C15F10830   3.543   6.110   5.146  0.1847  0.0955  0.3993
  106OSM   H15F10831   3.556   6.220   5.145  2.9937 -0.1463 -1.0384
  106OSM   H15G10832   3.436   6.078   5.143  0.0797  0.3833  1.0937
  106OSM   C16F10833   3.597   6.055   5.011  0.3056  0.5606 -0.2596
  106OSM   H16F10834   3.708   6.050   5.014  0.2276 -1.3531  1.8456
  106OSM   H16G10835   3.558   6.115   4.926 -2.0849 -1.1061 -0.4498
  106OSM   C17F10836   3.540   5.918   4.975 -0.4070 -0.1802  1.0446
  106OSM   H17F10837   3.434   5.926   4.943 -0.2483  1.5366  0.8536
  106OSM   H17G10838   3.524   5.846   5.058 -2.8212 -1.2485 -0.2482
  106OSM   C18F10839   3.606   5.845   4.864 -0.5733  0.4715  0.4196
  106OSM   H18F10840   3.544   5.769   4.811  1.6776 -0.5775 -0.8721
  106OSM   H18G10841   3.702   5.797   4.892 -0.5290 -0.3749 -1.0753
  106OSM   H18H10842   3.634   5.915   4.782 -0.5767 -0.4105 -0.3556
  107OSM      N10843   1.977   4.000   6.909 -0.1274  0.2915  0.0792
  107OSM    C1510844   1.832   4.019   6.954 -0.2266  0.6767  0.0650
  107OSM   H15A10845   1.791   4.119   6.956  0.3281  0.9088 -0.2376
  107OSM   H15B10846   1.824   3.980   7.054 -1.1673 -0.0722 -0.2834
  107OSM   H15C10847   1.775   3.957   6.886  3.9664  0.0376 -3.3033
  107OSM    C1410848   1.979   4.027   6.761 -0.4695 -0.0883 -0.2800
  107OSM   H14A10849   1.909   3.961   6.714 -0.5781 -1.1030  1.2293
  107OSM   H14B10850   2.078   4.014   6.720  0.5684  0.4554  1.8869
  107OSM   H14C10851   1.959   4.131   6.738 -0.1156 -0.0440 -0.3861
  107OSM    C1310852   2.061   4.106   6.972  0.3829 -0.2048 -0.3749
  107OSM   H13A10853   2.060   4.104   7.080  0.1505  0.8971 -0.3394
  107OSM   H13B10854   2.022   4.206   6.957  0.3783  0.0284  1.0421
  107OSM   H13C10855   2.162   4.109   6.934  0.5246 -0.1164 -0.0003
  107OSM    C1210856   2.030   3.868   6.950  1.2011 -0.6252  0.4435
  107OSM   H12A10857   2.041   3.873   7.057  1.8468  0.7744  0.3355
  107OSM   H12B10858   2.133   3.855   6.919  1.2749 -1.9860  1.1966
  107OSM    C1110859   1.950   3.742   6.906  0.1195  0.2221  0.5415
  107OSM   H11A10860   1.840   3.759   6.911 -0.1774 -1.5822  0.8560
  107OSM   H11B10861   1.970   3.649   6.963  0.6778  0.5002  0.8045
  107OSM      P10862   2.072   3.622   6.710 -0.1550  0.2852  0.4731
  107OSM    O1310863   2.193   3.639   6.794 -0.3695  0.3729  0.0354
  107OSM    O1410864   2.010   3.485   6.709 -0.2390 -0.4871 -0.0524
  107OSM    O1110865   2.110   3.661   6.561 -0.1573  0.1580  0.6667
  107OSM    O1210866   1.965   3.731   6.761 -0.3580  0.4002 -0.8327
  107OSM    C1S10867   2.054   3.785   6.506 -0.0146 -0.1014  0.1237
  107OSM    H1S10868   2.123   3.869   6.530  0.4957 -0.9508  1.7350
  107OSM    H1T10869   1.951   3.802   6.544  0.8359 -0.4827  2.8582
  107OSM     NF10870   2.003   3.914   6.308  0.2100 -0.5636  0.2102
  107OSM    HNF10871   1.908   3.945   6.305  0.8267  1.9115  2.5100
  107OSM    C2S10872   2.028   3.782   6.358 -0.7020 -0.4875  1.0198
  107OSM    H2S10873   2.127   3.750   6.319 -0.9749 -4.0571  2.8296
  107OSM    C3S10874   1.920   3.672   6.321  0.4805  0.0401  0.4965
  107OSM    H3S10875   1.823   3.705   6.364 -0.3964 -1.0749 -0.5684
  107OSM     O310876   1.951   3.542   6.371  0.4275 -0.1323 -0.0728
  107OSM    HO310877   2.032   3.557   6.420 -0.4456  1.6292  0.9281
  107OSM    C4S10878   1.899   3.663   6.178  0.1357  0.7520 -0.0816
  107OSM    H4S10879   1.805   3.707   6.142  0.6766 -0.1275 -2.7541
  107OSM    C5S10880   1.967   3.594   6.088 -0.0608  0.0327  0.3896
  107OSM    H5S10881   2.052   3.529   6.112 -1.5393 -2.2916 -0.3382
  107OSM    C6S10882   1.940   3.590   5.942 -0.1801 -0.1690  1.1305
  107OSM    H6S10883   1.858   3.662   5.923  0.6653  0.2813 -1.0456
  107OSM    H6T10884   1.898   3.492   5.912 -1.6206  0.3659  1.3419
  107OSM    C7S10885   2.050   3.629   5.841  0.1627  0.1265  0.9487
  107OSM    H7S10886   2.132   3.559   5.867  0.3588  0.4086  1.0981
  107OSM    H7T10887   2.085   3.734   5.854  1.8181  0.2374 -2.8379
  107OSM    C8S10888   2.009   3.623   5.692 -0.3171  0.1014  0.2939
  107OSM    H8S10889   1.916   3.680   5.676  0.3522  0.1908 -5.1865
  107OSM    H8T10890   1.990   3.520   5.655 -2.1373  0.2090  0.8723
  107OSM    C9S10891   2.119   3.693   5.614 -0.4996 -0.0213  1.1502
  107OSM    H9S10892   2.214   3.641   5.639 -0.3133 -0.1191  0.2682
  107OSM    H9T10893   2.121   3.801   5.641 -0.9369  0.2981 -0.0351
  107OSM   C10S10894   2.085   3.684   5.459 -0.7197  0.7992  0.1346
  107OSM   H10S10895   2.159   3.741   5.400  0.5322 -0.8053  0.0839
  107OSM   H10T10896   1.992   3.737   5.431 -0.0161  0.9085 -2.1456
  107OSM   C11S10897   2.081   3.544   5.406 -0.2202 -0.7104  0.0722
  107OSM   H11S10898   1.996   3.486   5.447 -0.9091 -0.5365 -1.0698
  107OSM   H11T10899   2.176   3.493   5.434 -1.1137 -2.9886 -0.8892
  107OSM   C12S10900   2.065   3.547   5.251 -0.4988 -0.7646 -0.3259
  107OSM   H12S10901   2.160   3.589   5.210 -0.6453 -1.9390 -1.9487
  107OSM   H12T10902   1.984   3.619   5.231 -0.7814 -0.0748  2.7855
  107OSM   C13S10903   2.043   3.405   5.198  0.2252  0.0822  0.9434
  107OSM   H13S10904   2.015   3.407   5.090  1.2380 -0.7947  0.6392
  107OSM   H13T10905   1.961   3.363   5.261  1.3732 -2.3861  0.9299
  107OSM   C14S10906   2.167   3.319   5.192 -0.5798 -0.5169 -0.5676
  107OSM   H14S10907   2.201   3.311   5.297 -3.2659 -1.2779  0.3140
  107OSM   H14T10908   2.245   3.370   5.131 -1.0826 -1.9311 -2.5044
  107OSM   C15S10909   2.150   3.177   5.128  0.4197  0.2084  0.4078
  107OSM   H15S10910   2.055   3.130   5.160 -0.1613  1.7885  1.1330
  107OSM   H15T10911   2.237   3.122   5.167  1.2009  0.1845 -1.2643
  107OSM   C16S10912   2.151   3.169   4.971  0.6030 -0.0748 -0.7467
  107OSM   H16S10913   2.234   3.228   4.926 -1.3308  3.0007 -0.6395
  107OSM   H16T10914   2.056   3.204   4.925  2.1319  2.4982 -2.2243
  107OSM   C17S10915   2.169   3.029   4.907  0.3887  0.4614 -0.8258
  107OSM   H17S10916   2.234   2.969   4.974 -0.8873 -0.8602 -0.7352
  107OSM   H17T10917   2.223   3.041   4.811 -1.2532  2.6567 -1.5557
  107OSM   C18S10918   2.049   2.935   4.875  0.3548 -0.0908  1.0544
  107OSM   H18S10919   1.982   2.916   4.961 -0.4370  0.5915  0.5998
  107OSM   H18T10920   2.094   2.836   4.848 -0.3736 -0.2661  0.4468
  107OSM   H18U10921   1.989   2.971   4.789 -2.0634  0.3610  2.8355
  107OSM    C1F10922   2.101   4.017   6.298 -0.0318 -0.2131  0.6951
  107OSM     OF10923   2.220   4.001   6.333  0.2170  0.3158  0.6323
  107OSM    C2F10924   2.044   4.148   6.262  0.4007 -0.1698 -0.1412
  107OSM    H2F10925   2.038   4.221   6.346  0.4572  4.2254 -3.5583
  107OSM    H2G10926   1.940   4.123   6.231 -0.9949  2.4333  1.9729
  107OSM    C3F10927   2.119   4.210   6.144 -0.1701  0.3035  0.0185
  107OSM    H3F10928   2.123   4.129   6.068  1.9055 -0.5066  0.9124
  107OSM    H3G10929   2.223   4.236   6.173 -0.1401 -0.2403  0.4203
  107OSM    C4F10930   2.049   4.350   6.097  0.3623  0.2480 -0.8817
  107OSM    H4F10931   2.067   4.414   6.186 -1.0606  0.0757 -0.4451
  107OSM    H4G10932   1.939   4.335   6.085  0.5024 -1.8166  0.0140
  107OSM    C5F10933   2.105   4.413   5.968 -0.1766  0.9678  0.0199
  107OSM    H5F10934   2.120   4.333   5.892  3.4486  1.6317 -0.0948
  107OSM    H5G10935   2.207   4.450   5.988  0.6345  0.3198 -2.5907
  107OSM    C6F10936   2.009   4.522   5.938  0.0135  0.2291  0.7204
  107OSM    H6F10937   2.004   4.608   6.008  0.3660  1.4731 -0.7516
  107OSM    H6G10938   1.907   4.483   5.917 -0.0719  1.3378 -1.0612
  107OSM    C7F10939   2.044   4.587   5.803  0.2490  0.3627 -0.5268
  107OSM    H7F10940   2.048   4.507   5.725  2.2456  0.0199 -0.1242
  107OSM    H7G10941   2.143   4.632   5.821  1.5318 -1.4119 -2.6317
  107OSM    C8F10942   1.944   4.684   5.753  0.2336 -0.1134 -0.3467
  107OSM    H8F10943   1.917   4.749   5.840  0.4458 -1.6369  0.8966
  107OSM    H8G10944   1.852   4.622   5.740  1.7339 -2.5328  0.0840
  107OSM    C9F10945   1.977   4.760   5.634 -0.7059 -0.1647 -0.1705
  107OSM    H9F10946   2.051   4.840   5.653 -0.6605 -0.5122  1.2628
  107OSM   C10F10947   1.930   4.740   5.508 -0.4756  0.2571  0.0165
  107OSM   H10F10948   1.969   4.801   5.426 -0.6595 -0.5018 -0.6490
  107OSM   C11F10949   1.830   4.632   5.479  0.1126 -0.3529 -0.2592
  107OSM   H11F10950   1.732   4.682   5.473  1.1229  1.6692 -4.9014
  107OSM   H11G10951   1.833   4.548   5.552  0.1765  1.0021  1.3535
  107OSM   C12F10952   1.856   4.562   5.343 -0.2856  0.0561  0.0524
  107OSM   H12F10953   1.840   4.633   5.259  0.6355  1.9697  1.4171
  107OSM   H12G10954   1.782   4.480   5.335  0.3213 -0.4245 -0.8022
  107OSM   C13F10955   2.003   4.495   5.341  0.1035 -0.6501  0.3602
  107OSM   H13F10956   2.019   4.437   5.435  0.6822  0.9865  1.3234
  107OSM   H13G10957   2.076   4.578   5.347 -0.9315  0.2103  1.7304
  107OSM   C14F10958   2.032   4.408   5.219  0.1216  0.1568 -0.2519
  107OSM   H14F10959   1.958   4.326   5.216 -0.0623  0.2890  0.5879
  107OSM   H14G10960   2.127   4.354   5.240 -0.3451 -0.5838  0.0004
  107OSM   C15F10961   2.027   4.480   5.081 -0.1861 -0.1138  0.1407
  107OSM   H15F10962   2.100   4.564   5.078  1.1472 -1.2207 -2.8207
  107OSM   H15G10963   1.927   4.524   5.060 -0.2438  0.0848  0.8272
  107OSM   C16F10964   2.082   4.384   4.976 -0.1147 -0.9191  0.3280
  107OSM   H16F10965   2.018   4.294   4.985 -1.4336  0.0984  1.5677
  107OSM   H16G10966   2.183   4.352   5.007  0.5117  0.7830  0.1197
  107OSM   C17F10967   2.073   4.436   4.838  0.3153 -0.4379 -0.3440
  107OSM   H17F10968   2.136   4.525   4.819 -0.0797  0.0783  0.6790
  107OSM   H17G10969   1.964   4.457   4.831  0.5644  0.6941 -1.0225
  107OSM   C18F10970   2.113   4.335   4.735 -0.5868  0.2798 -0.1246
  107OSM   H18F10971   2.040   4.251   4.724  0.5100 -0.9058  1.3168
  107OSM   H18G10972   2.208   4.286   4.765  0.4565  1.4041 -1.4269
  107OSM   H18H10973   2.133   4.373   4.633  0.4110 -1.2039 -0.5156
  108OSM      N10974   5.768   3.742   7.153 -0.1049  0.1384 -0.1530
  108OSM    C1510975   5.634   3.801   7.177 -0.1473 -0.1308 -0.1312
  108OSM   H15A10976   5.548   3.754   7.132  0.2963 -1.6166  0.5053
  108OSM   H15B10977   5.646   3.895   7.126 -2.3209 -0.2826 -1.0252
  108OSM   H15C10978   5.605   3.806   7.281  2.6525  1.1035  0.6940
  108OSM    C1410979   5.874   3.817   7.235  0.2855 -0.1881 -0.4960
  108OSM   H14A10980   5.857   3.797   7.339 -0.1080 -1.8285 -0.8372
  108OSM   H14B10981   5.869   3.925   7.225  2.0187 -0.2009 -2.1469
  108OSM   H14C10982   5.975   3.790   7.209  1.0618  0.8163  1.3065
  108OSM    C1310983   5.757   3.607   7.210  0.1962 -0.0586 -0.1224
  108OSM   H13A10984   5.679   3.546   7.169  0.1835 -1.7777  2.2072
  108OSM   H13B10985   5.740   3.617   7.317 -1.0853  1.8074 -0.4507
  108OSM   H13C10986   5.853   3.557   7.201  0.7985  0.3299  2.8082
  108OSM    C1210987   5.808   3.724   7.005 -0.2470  0.2715  0.3385
  108OSM   H12A10988   5.746   3.652   6.952 -0.7976  0.7455  0.3305
  108OSM   H12B10989   5.907   3.682   7.001  0.0399  0.5751  2.9647
  108OSM    C1110990   5.817   3.860   6.918  0.4281  0.8132 -0.1348
  108OSM   H11A10991   5.713   3.893   6.899 -0.1922 -0.9030  0.0853
  108OSM   H11B10992   5.854   3.828   6.819  0.3432  1.0423 -0.2407
  108OSM      P10993   6.054   3.981   6.948 -0.3345  0.1846 -0.3092
  108OSM    O1310994   6.096   4.118   6.971 -0.2498 -0.5534 -0.3577
  108OSM    O1410995   6.135   3.874   7.012  0.1277  0.2544  0.5366
  108OSM    O1110996   6.065   3.956   6.794  0.1892  0.5314 -0.2040
  108OSM    O1210997   5.895   3.969   6.978 -0.0154 -0.1525  0.4732
  108OSM    C1S10998   5.986   4.039   6.703 -0.9927 -0.2150 -0.1010
  108OSM    H1S10999   6.023   4.144   6.698 -0.8851 -0.2509 -0.0698
  108OSM    H1T11000   5.880   4.048   6.732 -1.3921  0.4173 -1.6538
  108OSM     NF11001   5.893   4.080   6.479 -0.0728 -0.3309 -0.6305
  108OSM    HNF11002   5.811   4.035   6.445  1.0241 -1.5137 -1.8866
  108OSM    C2S11003   5.980   3.991   6.554 -0.0996 -0.5605 -0.2011
  108OSM    H2S11004   6.081   4.007   6.511 -1.2259  1.8377 -2.2082
  108OSM    C3S11005   5.951   3.841   6.536 -1.3516 -0.7381 -0.3741
  108OSM    H3S11006   5.845   3.823   6.562 -0.8736 -0.3333  2.1106
  108OSM     O311007   6.028   3.753   6.612 -0.4834  0.7021  0.0491
  108OSM    HO311008   6.051   3.812   6.684 -4.5395  1.5206  0.9119
  108OSM    C4S11009   5.974   3.800   6.393 -0.6903  0.4514 -0.0879
  108OSM    H4S11010   5.883   3.757   6.348 -0.0344 -0.2898 -0.7253
  108OSM    C5S11011   6.095   3.805   6.329  0.1936  0.3865 -0.2857
  108OSM    H5S11012   6.180   3.848   6.385 -1.4504  2.1852  0.9528
  108OSM    C6S11013   6.136   3.769   6.192  0.4651  0.5473  0.2698
  108OSM    H6S11014   6.174   3.665   6.197 -0.4498  0.0904 -1.4957
  108OSM    H6T11015   6.228   3.822   6.158  1.1506 -0.2290  0.8890
  108OSM    C7S11016   6.028   3.791   6.094 -0.3163 -0.6028  0.3301
  108OSM    H7S11017   5.931   3.750   6.130 -1.2423  1.3182  0.1595
  108OSM    H7T11018   6.061   3.742   5.999 -0.1194 -0.5572  0.3753
  108OSM    C8S11019   6.008   3.946   6.070  0.1740  1.3098  0.3244
  108OSM    H8S11020   6.103   3.988   6.030  1.4860 -2.6246 -1.2548
  108OSM    H8T11021   5.990   3.995   6.168  2.4103  0.8003  1.0473
  108OSM    C9S11022   5.893   3.976   5.965  0.0305  0.0861  0.2077
  108OSM    H9S11023   5.795   3.945   6.006  0.6260 -1.1300  0.7469
  108OSM    H9T11024   5.904   3.928   5.866  0.2613  0.5936 -0.0162
  108OSM   C10S11025   5.883   4.130   5.942 -0.3070 -0.0253 -0.4669
  108OSM   H10S11026   5.985   4.174   5.947  0.2277 -1.1974 -0.6324
  108OSM   H10T11027   5.812   4.168   6.018  2.0225 -0.0789  1.9003
  108OSM   C11S11028   5.809   4.166   5.806  0.2247  0.4713  0.5600
  108OSM   H11S11029   5.788   4.275   5.816 -1.9750  0.1294  0.2296
  108OSM   H11T11030   5.710   4.117   5.822  0.1751  0.6242  0.7292
  108OSM   C12S11031   5.880   4.138   5.680  1.0339  0.1160 -0.0192
  108OSM   H12S11032   5.887   4.031   5.651 -0.1072 -0.0366  0.2101
  108OSM   H12T11033   5.986   4.171   5.690  0.5723  1.9111 -0.6815
  108OSM   C13S11034   5.808   4.194   5.551 -1.0581 -0.2267  0.1993
  108OSM   H13S11035   5.826   4.304   5.546  1.3146 -0.4984  1.4299
  108OSM   H13T11036   5.697   4.191   5.554 -1.1589  1.0852 -0.9297
  108OSM   C14S11037   5.873   4.130   5.427  0.1827 -0.3619  0.0311
  108OSM   H14S11038   5.842   4.023   5.424 -0.2475 -0.2199 -1.3057
  108OSM   H14T11039   5.983   4.140   5.440  0.1945  0.8641 -0.8141
  108OSM   C15S11040   5.827   4.176   5.290  0.4283  0.5266 -0.3207
  108OSM   H15S11041   5.842   4.286   5.292 -0.5085  0.6611  1.7064
  108OSM   H15T11042   5.721   4.160   5.260 -0.0319  0.8259  1.0773
  108OSM   C16S11043   5.924   4.120   5.179  0.4379  0.2379  0.9362
  108OSM   H16S11044   5.929   4.009   5.182 -3.1256 -0.0425  0.6102
  108OSM   H16T11045   6.027   4.162   5.183  1.2471 -1.6990  1.7051
  108OSM   C17S11046   5.865   4.148   5.040 -1.3751  0.3138 -0.7671
  108OSM   H17S11047   5.875   4.256   5.013  1.8458  0.6203  1.1984
  108OSM   H17T11048   5.764   4.102   5.039 -1.4189  0.3730  0.2681
  108OSM   C18S11049   5.943   4.095   4.920 -0.2746 -0.1412  0.0004
  108OSM   H18S11050   5.960   3.985   4.917 -0.5324 -0.2751  2.2069
  108OSM   H18T11051   6.050   4.123   4.935 -0.3383 -1.3573  3.5542
  108OSM   H18U11052   5.894   4.121   4.823  0.8973  0.2384 -0.5097
  108OSM    C1F11053   5.936   4.199   6.455 -0.1214 -0.8827 -0.3224
  108OSM     OF11054   6.042   4.249   6.499  0.5121  0.4714 -0.2216
  108OSM    C2F11055   5.847   4.286   6.361 -0.1400 -0.3437 -0.2074
  108OSM    H2F11056   5.760   4.328   6.416 -1.3878 -2.3638 -0.5344
  108OSM    H2G11057   5.797   4.221   6.286 -2.9660 -0.8986  1.9725
  108OSM    C3F11058   5.922   4.395   6.283 -0.0239 -0.5385 -0.4541
  108OSM    H3F11059   6.001   4.354   6.216 -0.3344 -0.6608 -0.7437
  108OSM    H3G11060   5.965   4.464   6.359  0.1757 -0.7859 -0.3375
  108OSM    C4F11061   5.839   4.481   6.193  1.0877  0.0789  0.5466
  108OSM    H4F11062   5.759   4.524   6.257  0.1087  0.6580 -1.0192
  108OSM    H4G11063   5.789   4.423   6.113 -0.0773  0.8667  0.6858
  108OSM    C5F11064   5.927   4.584   6.115  0.1758  0.1690 -0.2953
  108OSM    H5F11065   6.011   4.621   6.178  1.5581  0.5168 -2.2454
  108OSM    H5G11066   5.868   4.675   6.091 -0.3194 -0.0810 -0.0426
  108OSM    C6F11067   5.989   4.534   5.977  0.2033 -0.3921 -0.4218
  108OSM    H6F11068   5.901   4.508   5.914  0.6713  0.7179 -1.5802
  108OSM    H6G11069   6.052   4.444   5.993  0.3727 -0.0382  1.0322
  108OSM    C7F11070   6.066   4.643   5.907 -0.3359 -0.0967 -0.1921
  108OSM    H7F11071   6.134   4.692   5.980 -2.6870  0.6394  1.6078
  108OSM    H7G11072   5.989   4.714   5.871 -1.5496  0.4939  3.1790
  108OSM    C8F11073   6.162   4.579   5.787  0.6325 -0.4282 -0.1823
  108OSM    H8F11074   6.242   4.518   5.835  1.8799  2.8891  2.3416
  108OSM    H8G11075   6.213   4.656   5.726 -1.4335 -0.1432 -1.6709
  108OSM    C9F11076   6.086   4.482   5.690 -0.5517 -0.6536 -0.5961
  108OSM    H9F11077   6.063   4.381   5.727  0.4104 -1.0773 -1.1191
  108OSM   C10F11078   6.049   4.515   5.570  0.8281 -0.2726 -0.5233
  108OSM   H10F11079   5.998   4.435   5.513 -0.4540  1.8625 -2.5582
  108OSM   C11F11080   6.069   4.641   5.492  0.1320 -0.8389  0.5286
  108OSM   H11F11081   6.175   4.647   5.459  0.7736  0.2441  2.5981
  108OSM   H11G11082   6.058   4.733   5.553  0.2424  0.7657 -1.7121
  108OSM   C12F11083   5.972   4.669   5.380 -0.3063  0.6016  1.2545
  108OSM   H12F11084   5.984   4.776   5.352  2.3865 -0.0923 -0.7590
  108OSM   H12G11085   5.866   4.652   5.407 -1.1667  1.0835 -1.4630
  108OSM   C13F11086   6.008   4.578   5.261  0.0616  0.3948 -0.0769
  108OSM   H13F11087   5.973   4.479   5.297 -0.6150  1.1100  1.3267
  108OSM   H13G11088   6.118   4.561   5.251  0.4797  1.3531  2.1428
  108OSM   C14F11089   5.952   4.619   5.129  0.1363 -0.0458 -0.2884
  108OSM   H14F11090   5.947   4.730   5.119  2.0145  0.2151  1.2204
  108OSM   H14G11091   5.846   4.594   5.109 -0.6319  3.2101 -0.9610
  108OSM   C15F11092   6.041   4.563   5.014 -0.1296  0.9010 -0.1727
  108OSM   H15F11093   6.057   4.457   5.045 -0.3900  1.3696  1.6433
  108OSM   H15G11094   6.143   4.608   5.018  0.5295 -0.5409 -0.0123
  108OSM   C16F11095   5.972   4.542   4.882  0.0473 -0.6421  0.1186
  108OSM   H16F11096   5.943   4.644   4.850  1.0216 -0.5877 -0.6217
  108OSM   H16G11097   5.873   4.495   4.900 -0.2370  0.2020  0.8123
  108OSM   C17F11098   6.046   4.450   4.791 -0.4281 -0.3805  0.6636
  108OSM   H17F11099   6.071   4.353   4.840 -0.3637 -0.4546  0.4877
  108OSM   H17G11100   6.144   4.498   4.774 -0.6631  0.1404  0.7793
  108OSM   C18F11101   5.986   4.401   4.654  0.2181  0.1747  0.3351
  108OSM   H18F11102   6.053   4.330   4.600 -0.1103  0.1215 -0.0053
  108OSM   H18G11103   5.950   4.484   4.589 -0.4608 -1.3001 -1.2323
  108OSM   H18H11104   5.894   4.346   4.681 -0.2032  0.7768  0.1453
  109OSM      N11105   2.448   6.734   7.054  0.9302  0.0921 -0.4749
  109OSM    C1511106   2.417   6.874   6.989 -0.1760  0.2912  0.6410
  109OSM   H15A11107   2.493   6.941   7.026  1.4824 -1.3970  0.4341
  109OSM   H15B11108   2.317   6.906   7.016 -0.7076 -1.0483  0.3315
  109OSM   H15C11109   2.422   6.865   6.882 -3.6281  0.2624  0.3583
  109OSM    C1411110   2.454   6.748   7.205  0.2265  0.8338  1.4152
  109OSM   H14A11111   2.449   6.652   7.255 -0.0649 -0.8199 -1.5595
  109OSM   H14B11112   2.371   6.809   7.237 -0.3745  0.0715  1.3657
  109OSM   H14C11113   2.551   6.784   7.234  1.2999  0.1175 -1.0337
  109OSM    C1311114   2.329   6.655   7.025 -0.1479 -0.5004  0.8476
  109OSM   H13A11115   2.324   6.559   7.076  1.2624 -1.1536 -0.1802
  109OSM   H13B11116   2.325   6.643   6.918 -0.1793 -0.9622  0.8969
  109OSM   H13C11117   2.242   6.711   7.054 -0.4731 -0.1664 -0.6972
  109OSM    C1211118   2.571   6.669   6.997 -0.4574  0.3449  0.4797
  109OSM   H12A11119   2.595   6.577   7.047 -0.2911  1.2905  2.2381
  109OSM   H12B11120   2.651   6.741   7.011 -0.3106  0.2702  0.0480
  109OSM    C1111121   2.577   6.640   6.845 -0.7519 -0.0221 -0.1867
  109OSM   H11A11122   2.498   6.566   6.821 -0.1531 -0.7915  0.1579
  109OSM   H11B11123   2.669   6.584   6.819 -1.7131 -1.5540 -0.3833
  109OSM      P11124   2.693   6.837   6.710 -0.1680  0.2861  0.1045
  109OSM    O1311125   2.639   6.966   6.667 -0.2179 -0.3457  0.0446
  109OSM    O1411126   2.804   6.843   6.808  0.2861  0.3946 -0.2898
  109OSM    O1111127   2.752   6.752   6.592  0.2419  0.2051  0.9914
  109OSM    O1211128   2.564   6.757   6.766  0.1516 -0.4271  0.1504
  109OSM    C1S11129   2.657   6.675   6.511  0.3172  0.0273  0.2674
  109OSM    H1S11130   2.563   6.729   6.486  0.6757  0.1756 -0.8372
  109OSM    H1T11131   2.643   6.580   6.566 -1.0046  0.9822  1.6790
  109OSM     NF11132   2.615   6.570   6.291 -0.1787  0.2722 -0.0444
  109OSM    HNF11133   2.609   6.470   6.289  2.4865  0.0031  1.1295
  109OSM    C2S11134   2.723   6.628   6.372  0.1027 -0.1260 -0.4260
  109OSM    H2S11135   2.755   6.717   6.315  0.2409  0.2257  0.1939
  109OSM    C3S11136   2.849   6.535   6.394 -0.4546  0.3413  0.0518
  109OSM    H3S11137   2.826   6.442   6.450  0.4223  0.4615  0.6407
  109OSM     O311138   2.936   6.608   6.487  0.3839 -0.2283  0.1677
  109OSM    HO311139   2.884   6.679   6.525  0.6702  0.3883 -0.5609
  109OSM    C4S11140   2.932   6.512   6.271 -0.1408  0.5498  0.4072
  109OSM    H4S11141   3.034   6.554   6.263  1.0526 -2.3619 -1.3928
  109OSM    C5S11142   2.911   6.422   6.178  0.0525 -0.1331  0.1400
  109OSM    H5S11143   2.828   6.351   6.183  0.0716 -0.2228 -0.6496
  109OSM    C6S11144   3.005   6.383   6.063 -0.7973 -0.2724  0.2398
  109OSM    H6S11145   3.024   6.273   6.060  0.8144 -0.0554 -3.6165
  109OSM    H6T11146   3.096   6.440   6.088 -0.1822 -1.2422  0.2753
  109OSM    C7S11147   2.967   6.427   5.920  1.0164 -0.2554 -0.5617
  109OSM    H7S11148   2.961   6.538   5.916 -0.3748 -0.2911  0.0631
  109OSM    H7T11149   2.869   6.390   5.885 -0.0859  0.4298  1.6131
  109OSM    C8S11150   3.073   6.388   5.815  0.9178 -1.1178 -0.0919
  109OSM    H8S11151   3.107   6.283   5.826  2.6442 -0.4222  1.6212
  109OSM    H8T11152   3.166   6.448   5.822  1.0772 -1.5156  1.4029
  109OSM    C9S11153   3.020   6.390   5.666  0.7144 -0.2857 -0.4952
  109OSM    H9S11154   2.987   6.492   5.637 -0.6210 -1.3829 -3.1751
  109OSM    H9T11155   2.929   6.329   5.654 -1.3495  1.9566  2.3617
  109OSM   C10S11156   3.128   6.360   5.562 -0.1564  0.4506  0.6441
  109OSM   H10S11157   3.168   6.258   5.577 -1.2450 -0.5475 -2.3815
  109OSM   H10T11158   3.216   6.427   5.562 -0.6277  1.1095 -0.5013
  109OSM   C11S11159   3.068   6.354   5.424  0.6573 -0.5779 -0.9114
  109OSM   H11S11160   3.000   6.440   5.404 -1.2168 -1.1291  2.3792
  109OSM   H11T11161   3.006   6.261   5.420  0.4340 -0.5020  0.3796
  109OSM   C12S11162   3.175   6.337   5.315  0.1319 -0.0464 -0.3334
  109OSM   H12S11163   3.276   6.308   5.353 -0.2857  0.9756  1.6911
  109OSM   H12T11164   3.189   6.442   5.284  4.0356 -1.0776 -2.8130
  109OSM   C13S11165   3.138   6.254   5.189  0.0316  0.1775 -0.5448
  109OSM   H13S11166   3.031   6.265   5.163  0.0207  0.2964 -0.4482
  109OSM   H13T11167   3.159   6.145   5.196 -0.8531  0.1210  2.9595
  109OSM   C14S11168   3.215   6.300   5.071  0.2808  0.8636 -0.0585
  109OSM   H14S11169   3.314   6.332   5.111 -0.2774  2.6424 -0.0235
  109OSM   H14T11170   3.172   6.389   5.020  0.1127 -0.3989 -2.2233
  109OSM   C15S11171   3.212   6.199   4.962 -0.1863  0.4353  0.7918
  109OSM   H15S11172   3.113   6.153   4.940  1.4088 -2.2893 -1.3802
  109OSM   H15T11173   3.282   6.118   4.991 -0.2635 -0.0057 -0.2145
  109OSM   C16S11174   3.271   6.258   4.833 -0.2427  0.5081  0.7606
  109OSM   H16S11175   3.346   6.334   4.861 -1.9318  2.9123 -0.8495
  109OSM   H16T11176   3.196   6.322   4.782 -0.3617  0.6023  1.0536
  109OSM   C17S11177   3.334   6.143   4.742 -0.2018  1.0337 -0.0717
  109OSM   H17S11178   3.268   6.054   4.734  0.3097  0.7586 -1.7727
  109OSM   H17T11179   3.434   6.104   4.771  0.5217  0.4105 -3.0424
  109OSM   C18S11180   3.367   6.190   4.600 -0.4601  0.5663  0.2553
  109OSM   H18S11181   3.417   6.110   4.542  1.5446  0.8547  1.5167
  109OSM   H18T11182   3.431   6.280   4.606  1.2880 -0.5856 -0.4250
  109OSM   H18U11183   3.276   6.216   4.542  0.0417  1.8350  0.0047
  109OSM    C1F11184   2.512   6.646   6.243  0.0197  0.6337  0.1824
  109OSM     OF11185   2.494   6.767   6.271 -0.5754  0.1571  0.0573
  109OSM    C2F11186   2.417   6.577   6.155 -0.7130 -0.4367  0.5337
  109OSM    H2F11187   2.376   6.655   6.087  0.2818  0.2144  0.6678
  109OSM    H2G11188   2.338   6.524   6.213 -1.7777  0.9104  0.3812
  109OSM    C3F11189   2.493   6.472   6.061 -0.5787 -0.4077  0.1729
  109OSM    H3F11190   2.415   6.414   6.007  0.1064 -1.7501  0.5680
  109OSM    H3G11191   2.535   6.399   6.133 -0.0363 -0.4925 -0.2227
  109OSM    C4F11192   2.598   6.531   5.962  0.0331 -0.0223 -0.9158
  109OSM    H4F11193   2.665   6.454   5.920 -0.8652 -0.9655 -0.6662
  109OSM    H4G11194   2.669   6.597   6.016  0.5695 -1.8269  0.7100
  109OSM    C5F11195   2.535   6.600   5.846  0.2475 -0.0606  0.5438
  109OSM    H5F11196   2.611   6.677   5.820  0.4802 -0.1000  1.0929
  109OSM    H5G11197   2.444   6.652   5.882  0.4699  0.0367  0.9716
  109OSM    C6F11198   2.516   6.505   5.727  0.0694  0.4964 -0.5569
  109OSM    H6F11199   2.437   6.548   5.661 -0.4641 -0.0443 -0.2836
  109OSM    H6G11200   2.479   6.408   5.767  3.7107 -0.9929 -0.4455
  109OSM    C7F11201   2.649   6.474   5.657 -0.2609  0.4132 -0.0330
  109OSM    H7F11202   2.708   6.415   5.731 -1.8841  0.4054  1.3042
  109OSM    H7G11203   2.712   6.561   5.629  1.3510 -0.5616  0.4185
  109OSM    C8F11204   2.633   6.380   5.539  0.7676  0.1598 -0.0744
  109OSM    H8F11205   2.584   6.288   5.579 -1.8181  1.3358 -0.3069
  109OSM    H8G11206   2.735   6.367   5.498  0.9242  2.2008 -0.4169
  109OSM    C9F11207   2.547   6.422   5.416  0.2487 -0.4709  0.0734
  109OSM    H9F11208   2.440   6.446   5.429  0.8373  1.2651  2.3195
  109OSM   C10F11209   2.594   6.471   5.300 -0.2023  0.5833  0.1940
  109OSM   H10F11210   2.521   6.509   5.226 -0.3161  0.9735  0.5017
  109OSM   C11F11211   2.736   6.475   5.247  0.1992 -0.1490  0.2359
  109OSM   H11F11212   2.773   6.371   5.261 -0.1430 -0.4253 -0.7896
  109OSM   H11G11213   2.793   6.542   5.314  0.1778  1.8603 -1.6370
  109OSM   C12F11214   2.753   6.527   5.105  0.1312 -0.2137  0.5928
  109OSM   H12F11215   2.712   6.630   5.109 -1.4276 -0.8189  1.3509
  109OSM   H12G11216   2.691   6.456   5.046  0.1988 -1.0717  1.5385
  109OSM   C13F11217   2.900   6.532   5.050  0.5315 -0.4819  0.3623
  109OSM   H13F11218   2.956   6.437   5.065  2.3441  0.7887  2.2623
  109OSM   H13G11219   2.965   6.597   5.113 -0.3970  0.3359  0.4901
  109OSM   C14F11220   2.899   6.580   4.903  0.2911  0.0259 -0.3803
  109OSM   H14F11221   2.925   6.687   4.913  2.4279 -0.5556  1.2191
  109OSM   H14G11222   2.803   6.559   4.851  0.8185  2.0246 -2.3109
  109OSM   C15F11223   2.995   6.506   4.813  0.2978 -0.3187 -0.0196
  109OSM   H15F11224   2.969   6.399   4.825  0.3720 -0.2992  0.3238
  109OSM   H15G11225   3.099   6.523   4.849  0.1761 -0.4320  0.3905
  109OSM   C16F11226   2.982   6.563   4.674  0.4595  0.4303 -0.0407
  109OSM   H16F11227   3.015   6.669   4.678  0.2552  0.5553 -1.2866
  109OSM   H16G11228   2.881   6.552   4.629  1.3836  0.1290 -2.1642
  109OSM   C17F11229   3.086   6.509   4.577  0.1456 -0.4503 -0.0742
  109OSM   H17F11230   3.053   6.403   4.567 -1.9559 -0.0532  1.8812
  109OSM   H17G11231   3.186   6.518   4.625 -1.8087  0.0679  4.3129
  109OSM   C18F11232   3.076   6.579   4.446  0.0578  0.0673  0.5600
  109OSM   H18F11233   2.971   6.604   4.419  0.5955  1.6816 -0.1743
  109OSM   H18G11234   3.118   6.523   4.360  2.7750  2.4618  0.1668
  109OSM   H18H11235   3.120   6.681   4.445 -0.2495  0.1969 -0.1552
  110OSM      N11236   3.956   2.292   6.928 -0.0951  0.5693  0.4432
  110OSM    C1511237   3.935   2.215   7.054 -0.2439  0.4526  0.3245
  110OSM   H15A11238   3.972   2.278   7.133  2.7426 -2.3310  1.3820
  110OSM   H15B11239   3.995   2.125   7.060  0.7600  0.9229 -1.5872
  110OSM   H15C11240   3.830   2.193   7.066  0.2533 -1.7370  1.1531
  110OSM    C1411241   4.092   2.357   6.931  1.0088  0.4870  0.5280
  110OSM   H14A11242   4.116   2.415   7.018  2.3513  1.6739 -0.5895
  110OSM   H14B11243   4.105   2.428   6.850  0.9295  1.1587  1.1009
  110OSM   H14C11244   4.176   2.290   6.920  0.7219 -0.0026  1.2408
  110OSM    C1311245   3.949   2.198   6.808 -0.1960 -0.1392  0.0243
  110OSM   H13A11246   3.975   2.252   6.718  0.8904  0.1953  0.5282
  110OSM   H13B11247   3.852   2.150   6.802  0.3387 -1.2046 -0.4121
  110OSM   H13C11248   4.028   2.125   6.810  0.5425  0.6444 -0.0211
  110OSM    C1211249   3.845   2.393   6.917  0.6550  0.5667  0.5053
  110OSM   H12A11250   3.844   2.470   6.992  0.4650  2.2207 -1.1261
  110OSM   H12B11251   3.756   2.333   6.928  0.0279  1.1431 -1.1730
  110OSM    C1111252   3.843   2.466   6.778 -0.6951 -0.0494  0.5485
  110OSM   H11A11253   3.755   2.533   6.764  0.4017  1.5637  1.1218
  110OSM   H11B11254   3.827   2.393   6.696  1.3887  0.8740 -0.7541
  110OSM      P11255   3.972   2.688   6.826 -0.3707  0.5271  0.4322
  110OSM    O1311256   3.897   2.691   6.952 -0.0661 -0.0529 -0.3934
  110OSM    O1411257   4.113   2.731   6.842  0.0856 -0.1629 -0.0583
  110OSM    O1111258   3.887   2.785   6.728 -0.0439 -0.7080  0.0136
  110OSM    O1211259   3.963   2.541   6.754 -0.5391 -0.2757  0.6291
  110OSM    C1S11260   3.952   2.831   6.608 -0.1898 -0.5065  0.4039
  110OSM    H1S11261   3.963   2.745   6.538  2.2428 -0.9256  1.1917
  110OSM    H1T11262   4.055   2.865   6.633  0.8450 -1.4632 -2.1746
  110OSM     NF11263   3.934   2.970   6.399 -1.0955  0.1518 -0.0452
  110OSM    HNF11264   3.997   3.047   6.396  0.0287 -0.7448 -2.5894
  110OSM    C2S11265   3.881   2.946   6.532  0.5909 -0.3143 -0.0332
  110OSM    H2S11266   3.782   2.897   6.516  0.4197 -0.0627  0.2589
  110OSM    C3S11267   3.865   3.077   6.622 -0.5201  0.2285 -0.2894
  110OSM    H3S11268   3.962   3.112   6.663 -0.5541 -0.8146  0.7368
  110OSM     O311269   3.800   3.057   6.752  0.3953  0.1181  0.8104
  110OSM    HO311270   3.788   2.962   6.750 -0.7402  0.2296 -1.7328
  110OSM    C4S11271   3.810   3.202   6.551  0.0706 -0.2539  0.3003
  110OSM    H4S11272   3.738   3.187   6.469  0.6280 -0.3319 -0.1759
  110OSM    C5S11273   3.871   3.323   6.556 -0.3894 -0.0927  0.2517
  110OSM    H5S11274   3.943   3.330   6.639 -2.0612 -1.5647  1.9003
  110OSM    C6S11275   3.831   3.448   6.484  0.4438  0.2639 -0.1998
  110OSM    H6S11276   3.899   3.526   6.524  1.4802 -1.0886  0.7701
  110OSM    H6T11277   3.731   3.470   6.527 -0.4782 -1.9760 -1.0500
  110OSM    C7S11278   3.820   3.439   6.332 -1.0952  0.4927  0.6719
  110OSM    H7S11279   3.740   3.367   6.305  0.3089  0.1293 -3.1673
  110OSM    H7T11280   3.912   3.383   6.301 -0.5716  0.2222  2.5684
  110OSM    C8S11281   3.800   3.570   6.256 -0.3701 -0.1458 -0.0636
  110OSM    H8S11282   3.897   3.624   6.264  0.4991 -1.9066  2.2006
  110OSM    H8T11283   3.725   3.640   6.299  0.2420 -1.1943  2.8998
  110OSM    C9S11284   3.787   3.537   6.105  0.2712 -0.0564  0.1973
  110OSM    H9S11285   3.681   3.519   6.077  1.1149  0.3408 -3.7375
  110OSM    H9T11286   3.844   3.444   6.089  0.6003  0.3113 -0.8255
  110OSM   C10S11287   3.859   3.649   6.026 -0.1134  0.8635 -0.0002
  110OSM   H10S11288   3.967   3.647   6.054  0.6161  0.3095 -2.5555
  110OSM   H10T11289   3.818   3.750   6.047  1.5128  1.8890 -1.4060
  110OSM   C11S11290   3.841   3.625   5.878  0.2850 -0.3899  0.3379
  110OSM   H11S11291   3.734   3.593   5.871  0.7758 -1.8197 -1.2018
  110OSM   H11T11292   3.908   3.539   5.855  2.7208  1.1115  1.4281
  110OSM   C12S11293   3.858   3.752   5.791  0.7207  0.4883  0.3898
  110OSM   H12S11294   3.951   3.804   5.823  2.5943 -2.2241 -0.2557
  110OSM   H12T11295   3.773   3.823   5.787  0.6823  0.4345 -3.3481
  110OSM   C13S11296   3.884   3.713   5.643 -0.1073  0.6558  0.2488
  110OSM   H13S11297   3.797   3.649   5.614  0.5814 -0.8863  1.4254
  110OSM   H13T11298   3.979   3.656   5.637  0.1802  0.7806  2.6536
  110OSM   C14S11299   3.903   3.838   5.553 -0.0924 -0.3669 -0.1769
  110OSM   H14S11300   3.988   3.898   5.592  0.4580 -3.4516  4.0341
  110OSM   H14T11301   3.811   3.901   5.549  0.7994  1.2046  1.9256
  110OSM   C15S11302   3.928   3.800   5.407 -0.3592 -0.1704 -0.2982
  110OSM   H15S11303   3.853   3.721   5.387  0.8555 -1.6515  0.7332
  110OSM   H15T11304   4.027   3.751   5.391 -1.5444 -2.3669 -1.3810
  110OSM   C16S11305   3.898   3.921   5.319  0.3061  0.0919 -0.9534
  110OSM   H16S11306   3.937   4.015   5.363 -1.2503 -0.5234  2.0053
  110OSM   H16T11307   3.789   3.939   5.323 -0.2654 -2.5160 -2.2820
  110OSM   C17S11308   3.944   3.899   5.174 -0.0033 -0.0160 -0.3496
  110OSM   H17S11309   3.865   3.849   5.115 -2.1875 -0.1569  2.4469
  110OSM   H17T11310   4.025   3.824   5.183 -0.3465 -0.3050  0.4191
  110OSM   C18S11311   4.000   4.025   5.099 -0.2374  0.5146 -0.5822
  110OSM   H18S11312   3.922   4.096   5.065 -1.6714 -0.7111 -0.0034
  110OSM   H18T11313   4.069   3.990   5.020 -0.6324  2.0744 -1.6572
  110OSM   H18U11314   4.059   4.072   5.180 -2.2205  1.0182  0.6562
  110OSM    C1F11315   3.950   2.890   6.297 -0.3788  0.7683  0.4189
  110OSM     OF11316   3.900   2.778   6.306 -0.2787  0.3204  0.5643
  110OSM    C2F11317   4.008   2.947   6.172 -0.7049 -0.2020 -0.1954
  110OSM    H2F11318   4.115   2.961   6.197 -0.3305 -4.2033  1.1671
  110OSM    H2G11319   3.967   3.048   6.152  2.1994  1.3256  0.8617
  110OSM    C3F11320   4.016   2.845   6.056 -0.2086  0.0104  0.6291
  110OSM    H3F11321   3.912   2.834   6.019  0.1038 -0.7843 -0.0544
  110OSM    H3G11322   4.052   2.748   6.097 -1.3628 -0.7705 -0.1560
  110OSM    C4F11323   4.098   2.890   5.929 -0.0045 -0.3439 -0.5584
  110OSM    H4F11324   4.098   2.810   5.852  1.7009  0.1178 -1.0761
  110OSM    H4G11325   4.205   2.903   5.956 -0.8072 -0.2539  3.2290
  110OSM    C5F11326   4.038   3.009   5.860 -0.2793 -0.1401  0.4774
  110OSM    H5F11327   4.040   3.101   5.922  1.7487  0.1560  0.0340
  110OSM    H5G11328   3.943   2.984   5.808  2.5628 -3.0080 -4.0566
  110OSM    C6F11329   4.128   3.065   5.744 -0.3340 -0.8082  0.6676
  110OSM    H6F11330   4.126   2.980   5.673 -0.6062  0.5221 -0.9780
  110OSM    H6G11331   4.227   3.092   5.786  0.9060  0.1432 -2.6309
  110OSM    C7F11332   4.065   3.186   5.666 -0.6469 -0.0637 -0.2802
  110OSM    H7F11333   4.064   3.265   5.744  0.5203  0.2696 -0.5839
  110OSM    H7G11334   3.957   3.175   5.642 -0.4561  0.4467 -1.4257
  110OSM    C8F11335   4.144   3.225   5.538  0.2487  0.6560 -0.2424
  110OSM    H8F11336   4.118   3.152   5.459 -0.0345  1.2892 -0.7495
  110OSM    H8G11337   4.254   3.219   5.555  0.6872  1.6809 -2.3775
  110OSM    C9F11338   4.112   3.367   5.492  0.2283 -0.2329 -0.1124
  110OSM    H9F11339   4.147   3.441   5.565  2.6727  0.7819 -2.1569
  110OSM   C10F11340   4.045   3.398   5.376  0.2401  0.0360 -0.2986
  110OSM   H10F11341   4.028   3.504   5.351 -3.6641 -0.2419  0.6128
  110OSM   C11F11342   4.001   3.301   5.267  0.7079 -0.2204 -0.5957
  110OSM   H11F11343   3.896   3.328   5.246  0.6125  0.2285  0.3934
  110OSM   H11G11344   3.992   3.196   5.301 -1.2443  0.0167 -0.2782
  110OSM   C12F11345   4.093   3.313   5.141 -0.8486 -0.4605  0.5880
  110OSM   H12F11346   4.064   3.226   5.078 -0.0801  0.2965 -0.8852
  110OSM   H12G11347   4.199   3.295   5.170 -0.3623  0.2765 -0.6392
  110OSM   C13F11348   4.087   3.458   5.073  0.3911 -0.1701 -0.3353
  110OSM   H13F11349   4.176   3.482   5.012  0.2453  0.5281 -0.2788
  110OSM   H13G11350   4.076   3.539   5.148 -1.5293  2.8496 -3.5608
  110OSM   C14F11351   3.963   3.478   5.002  0.1022 -1.0281 -1.0593
  110OSM   H14F11352   3.877   3.501   5.068 -2.0249 -1.6171 -3.4453
  110OSM   H14G11353   3.923   3.383   4.958 -1.4381 -0.2993 -1.3045
  110OSM   C15F11354   3.980   3.597   4.907 -0.3356  0.0976  0.0269
  110OSM   H15F11355   4.054   3.571   4.828 -1.5009 -1.0183 -0.7243
  110OSM   H15G11356   4.025   3.690   4.949  1.0918 -0.5247 -0.0543
  110OSM   C16F11357   3.854   3.629   4.837 -0.0079  0.0261  0.4133
  110OSM   H16F11358   3.800   3.709   4.892 -0.5069  0.8510 -1.2341
  110OSM   H16G11359   3.784   3.546   4.814 -1.2057  0.6598  1.6032
  110OSM   C17F11360   3.876   3.690   4.693 -1.4166  0.7148  0.6979
  110OSM   H17F11361   3.944   3.612   4.652  1.1955  1.9264  2.4200
  110OSM   H17G11362   3.928   3.788   4.699  0.2834 -0.2197  2.7326
  110OSM   C18F11363   3.742   3.705   4.617  0.6661 -0.1462  0.4933
  110OSM   H18F11364   3.738   3.786   4.542  0.1101 -2.3192 -1.9874
  110OSM   H18G11365   3.657   3.713   4.687 -1.2633  1.6167 -1.8704
  110OSM   H18H11366   3.728   3.609   4.562  1.9185 -1.2512  1.9952
  111OSM      N11367   6.009   1.415   6.678  0.2408 -0.1960 -0.0029
  111OSM    C1511368   5.912   1.369   6.579 -0.0689  0.6242 -0.0503
  111OSM   H15A11369   5.812   1.405   6.595 -0.2222  0.9183 -1.4901
  111OSM   H15B11370   5.913   1.262   6.593  1.8524  0.7602  1.3452
  111OSM   H15C11371   5.940   1.392   6.477 -0.9002  0.5745 -0.2954
  111OSM    C1411372   5.984   1.344   6.810 -0.2990  0.7933  0.1122
  111OSM   H14A11373   5.883   1.363   6.841 -0.1576  1.1099  0.3875
  111OSM   H14B11374   6.054   1.382   6.883  2.7888 -2.3789 -0.8857
  111OSM   H14C11375   6.022   1.243   6.803  2.9332  1.8214  0.6433
  111OSM    C1311376   6.135   1.359   6.628 -0.5874  0.0356 -0.6266
  111OSM   H13A11377   6.213   1.362   6.702  0.5813  0.1101 -1.8067
  111OSM   H13B11378   6.162   1.417   6.541 -0.0856  2.9283  1.3290
  111OSM   H13C11379   6.120   1.255   6.604  2.1233 -0.9476  1.4537
  111OSM    C1211380   6.011   1.565   6.697 -0.0034  0.3481  0.1003
  111OSM   H12A11381   6.033   1.607   6.600  0.9569 -1.0772 -0.3350
  111OSM   H12B11382   6.094   1.584   6.763  0.0006 -0.7764  0.4443
  111OSM    C1111383   5.887   1.633   6.740  0.6377 -0.6006  0.1988
  111OSM   H11A11384   5.905   1.743   6.742 -0.5127 -0.3951  0.4476
  111OSM   H11B11385   5.857   1.598   6.841  0.1309  0.6186  0.4900
  111OSM      P11386   5.642   1.676   6.677  0.3323 -0.2291 -0.2222
  111OSM    O1311387   5.551   1.643   6.561 -0.0546 -0.5679  0.0441
  111OSM    O1411388   5.597   1.626   6.812 -0.6377 -1.0550  0.1228
  111OSM    O1111389   5.674   1.830   6.681  0.3602  0.1938  0.3916
  111OSM    O1211390   5.782   1.608   6.639 -0.4168 -0.1994 -0.2094
  111OSM    C1S11391   5.752   1.895   6.578 -0.0351  0.0107 -0.5577
  111OSM    H1S11392   5.792   1.817   6.509  0.2216 -0.8072  0.4842
  111OSM    H1T11393   5.834   1.953   6.624 -0.7602  1.9983 -1.6779
  111OSM     NF11394   5.753   2.030   6.366  0.0625  0.4408 -0.3502
  111OSM    HNF11395   5.814   2.109   6.370 -1.3459  1.5675 -0.5375
  111OSM    C2S11396   5.678   1.993   6.485  0.5252 -0.2675  0.0297
  111OSM    H2S11397   5.578   1.952   6.459  0.1866 -0.2729  1.2400
  111OSM    C3S11398   5.646   2.125   6.560 -0.0717  0.0199  0.3040
  111OSM    H3S11399   5.748   2.157   6.590  0.2125 -1.9206  1.6113
  111OSM     O311400   5.548   2.116   6.666 -0.0101 -0.0751  0.0059
  111OSM    HO311401   5.516   2.026   6.663  2.0286 -1.1959  3.9402
  111OSM    C4S11402   5.595   2.241   6.470 -0.0819  0.6335  0.7956
  111OSM    H4S11403   5.546   2.209   6.377  1.6064 -1.9744  0.6726
  111OSM    C5S11404   5.623   2.368   6.500 -0.3006  0.0400  0.1208
  111OSM    H5S11405   5.675   2.391   6.594 -0.7347  1.1506  0.1059
  111OSM    C6S11406   5.579   2.495   6.426  0.7538 -0.1976 -0.1301
  111OSM    H6S11407   5.675   2.540   6.394  0.6526 -0.6009 -1.0225
  111OSM    H6T11408   5.546   2.577   6.493 -0.6549 -1.2167  0.4959
  111OSM    C7S11409   5.474   2.486   6.315  0.0592 -0.2375  0.0439
  111OSM    H7S11410   5.374   2.451   6.346 -0.5731  0.3214 -1.2808
  111OSM    H7T11411   5.518   2.415   6.242  1.1041  0.4559 -0.0234
  111OSM    C8S11412   5.442   2.634   6.254 -0.7881  0.1427  0.2055
  111OSM    H8S11413   5.527   2.668   6.191  1.0432 -1.7641  1.5040
  111OSM    H8T11414   5.440   2.709   6.336  0.8302  3.5094 -2.6086
  111OSM    C9S11415   5.314   2.648   6.170  0.5697 -0.8163  0.2216
  111OSM    H9S11416   5.224   2.631   6.234  0.4343  0.0007  0.2656
  111OSM    H9T11417   5.298   2.583   6.082 -2.5270  1.2169 -0.9186
  111OSM   C10S11418   5.295   2.801   6.122  0.1109 -0.0461  0.4362
  111OSM   H10S11419   5.344   2.877   6.187  0.2488 -0.2278  0.5452
  111OSM   H10T11420   5.187   2.824   6.115  0.2386  0.1967 -1.1893
  111OSM   C11S11421   5.358   2.831   5.983  0.1222  0.0061 -0.1166
  111OSM   H11S11422   5.453   2.773   5.983 -1.0291 -1.9932 -1.3180
  111OSM   H11T11423   5.364   2.941   5.971  0.7361  0.0259  0.3340
  111OSM   C12S11424   5.303   2.768   5.859  0.9437  0.8434 -0.4976
  111OSM   H12S11425   5.266   2.666   5.881 -1.5244  1.4179 -1.5405
  111OSM   H12T11426   5.375   2.758   5.775 -2.0620 -0.9715 -3.1061
  111OSM   C13S11427   5.166   2.843   5.817 -0.7727  0.0004 -0.2648
  111OSM   H13S11428   5.193   2.951   5.815 -1.3947  0.1968  0.9970
  111OSM   H13T11429   5.091   2.831   5.898  0.3823  0.0336  0.8499
  111OSM   C14S11430   5.116   2.812   5.677  0.4901  0.7620  0.1140
  111OSM   H14S11431   5.013   2.843   5.653  1.1614  0.0934 -4.4242
  111OSM   H14T11432   5.118   2.700   5.674 -0.3724  0.7233  0.6234
  111OSM   C15S11433   5.204   2.878   5.573 -0.5607 -0.1061 -0.0555
  111OSM   H15S11434   5.310   2.855   5.598 -0.2243  0.7686 -0.6136
  111OSM   H15T11435   5.198   2.988   5.589  2.2999 -0.1956  2.5100
  111OSM   C16S11436   5.164   2.837   5.431  0.2786  0.0261  0.4582
  111OSM   H16S11437   5.067   2.889   5.422  0.1685 -0.4030 -1.2438
  111OSM   H16T11438   5.155   2.727   5.420 -2.1418  0.2550 -0.3593
  111OSM   C17S11439   5.261   2.895   5.318  0.0758 -0.3366 -0.4019
  111OSM   H17S11440   5.242   2.838   5.224 -2.2015 -1.9818  0.9547
  111OSM   H17T11441   5.365   2.869   5.348  0.1152 -0.2384 -0.4527
  111OSM   C18S11442   5.252   3.048   5.303  0.2388 -0.1035 -0.6252
  111OSM   H18S11443   5.297   3.107   5.386 -0.5240 -0.3362 -0.0403
  111OSM   H18T11444   5.145   3.076   5.294 -0.3353 -1.1073  2.2025
  111OSM   H18U11445   5.301   3.079   5.208 -3.1894  2.5879 -1.7122
  111OSM    C1F11446   5.776   1.944   6.270 -0.2959  0.6363  1.2178
  111OSM     OF11447   5.703   1.849   6.257 -0.0817  0.5123 -0.0277
  111OSM    C2F11448   5.889   1.958   6.174  0.1720 -0.5279  0.3242
  111OSM    H2F11449   5.985   1.923   6.219  1.0890 -1.3317 -2.0905
  111OSM    H2G11450   5.897   2.064   6.145  1.0262 -0.9116 -0.9185
  111OSM    C3F11451   5.868   1.865   6.052  0.1761 -0.2816 -0.4431
  111OSM    H3F11452   5.767   1.878   6.009  0.9062  1.8612 -1.6345
  111OSM    H3G11453   5.864   1.758   6.081 -0.8507 -0.0458  0.3267
  111OSM    C4F11454   5.979   1.883   5.948  0.6920  0.3964  0.9697
  111OSM    H4F11455   5.957   1.817   5.861  2.1910 -0.9709  1.5787
  111OSM    H4G11456   6.076   1.845   5.986  0.9081 -0.4752 -0.3543
  111OSM    C5F11457   6.001   2.026   5.903 -0.3611  0.3459  0.0920
  111OSM    H5F11458   6.082   2.032   5.827  1.9781  0.8975  2.4764
  111OSM    H5G11459   6.031   2.087   5.991  1.8231  0.2176 -0.5120
  111OSM    C6F11460   5.875   2.094   5.839  0.0265 -0.2039 -0.1815
  111OSM    H6F11461   5.885   2.203   5.860  0.0799 -0.3523  0.5934
  111OSM    H6G11462   5.786   2.069   5.900  1.0237  0.3209  1.5418
  111OSM    C7F11463   5.856   2.081   5.687 -0.4870 -0.2410 -0.0365
  111OSM    H7F11464   5.871   1.974   5.658  1.7498 -0.8898  3.0643
  111OSM    H7G11465   5.940   2.137   5.640  1.1103 -2.8438 -0.5119
  111OSM    C8F11466   5.732   2.147   5.623  0.1983 -0.4482  0.0797
  111OSM    H8F11467   5.762   2.244   5.579  0.7982 -0.0014  1.4263
  111OSM    H8G11468   5.658   2.172   5.701 -4.1639 -2.4159 -2.9854
  111OSM    C9F11469   5.652   2.075   5.520  0.2874  0.4071 -0.0932
  111OSM    H9F11470   5.583   1.997   5.559 -1.4616  1.4620 -0.9579
  111OSM   C10F11471   5.658   2.089   5.389  0.6788 -0.2011  0.6748
  111OSM   H10F11472   5.596   2.023   5.326  0.8421  0.5584 -0.3094
  111OSM   C11F11473   5.756   2.179   5.319  0.4466  0.6422 -0.2508
  111OSM   H11F11474   5.858   2.163   5.360 -0.6598  1.5723  3.1865
  111OSM   H11G11475   5.737   2.287   5.338  1.8316  0.7784  0.5146
  111OSM   C12F11476   5.730   2.157   5.168  0.5994 -0.1138  0.7535
  111OSM   H12F11477   5.734   2.050   5.138 -0.5248  0.2673 -0.9010
  111OSM   H12G11478   5.817   2.216   5.131  1.2943 -0.6123  1.5429
  111OSM   C13F11479   5.601   2.214   5.095 -0.6302 -0.2280 -1.0008
  111OSM   H13F11480   5.593   2.324   5.102 -1.8301 -0.3767  0.7014
  111OSM   H13G11481   5.519   2.181   5.162  1.0428 -2.2243  0.1846
  111OSM   C14F11482   5.581   2.159   4.954 -0.3671  0.2615 -0.4807
  111OSM   H14F11483   5.477   2.191   4.932 -0.3513  1.5608  1.1780
  111OSM   H14G11484   5.594   2.049   4.966 -2.8794 -0.2235 -1.4952
  111OSM   C15F11485   5.687   2.218   4.853  0.0143  0.7123 -0.2090
  111OSM   H15F11486   5.783   2.166   4.870 -0.6813 -0.8998 -0.9675
  111OSM   H15G11487   5.702   2.327   4.868  0.0415  0.9427 -1.6928
  111OSM   C16F11488   5.654   2.186   4.706  0.7742  0.3604  0.4230
  111OSM   H16F11489   5.704   2.261   4.642 -0.3530  1.1072  0.3960
  111OSM   H16G11490   5.546   2.201   4.687  0.3691 -1.6261  0.9001
  111OSM   C17F11491   5.696   2.038   4.662 -0.1494 -0.1408 -0.1837
  111OSM   H17F11492   5.641   1.973   4.734  0.9164  0.7168  1.4542
  111OSM   H17G11493   5.804   2.018   4.673 -0.6579 -2.4081  1.5186
  111OSM   C18F11494   5.651   2.006   4.521 -0.3155 -0.7299  0.1620
  111OSM   H18F11495   5.700   2.080   4.454  0.2251  0.7782  2.1250
  111OSM   H18G11496   5.542   2.007   4.499  0.0235  0.8006 -1.7600
  111OSM   H18H11497   5.688   1.904   4.500  0.1745 -0.3262 -0.9939
  112OSM      N11498   3.626   5.529   7.004  0.6212 -0.8554 -0.3664
  112OSM    C1511499   3.708   5.471   7.112 -0.3563  0.1502  0.0521
  112OSM   H15A11500   3.679   5.369   7.134 -1.3590  0.7673  1.8122
  112OSM   H15B11501   3.697   5.524   7.206 -1.3596  2.0244 -1.0660
  112OSM   H15C11502   3.814   5.480   7.093 -0.4455 -1.3443 -1.3586
  112OSM    C1411503   3.637   5.442   6.885 -0.3630 -0.4782  0.1283
  112OSM   H14A11504   3.611   5.337   6.894 -1.9024 -0.1565 -0.3721
  112OSM   H14B11505   3.733   5.456   6.838 -0.1294  0.7597  0.9160
  112OSM   H14C11506   3.567   5.491   6.819  2.5011  2.8075 -0.7671
  112OSM    C1311507   3.481   5.515   7.049 -0.3144 -0.4386 -0.0789
  112OSM   H13A11508   3.457   5.552   7.147 -1.2590  0.8508 -0.7623
  112OSM   H13B11509   3.457   5.410   7.052 -1.3501 -0.2362 -0.6996
  112OSM   H13C11510   3.415   5.570   6.982  1.1142  1.4375 -0.0410
  112OSM    C1211511   3.664   5.669   6.972  0.1333 -0.3999 -0.0800
  112OSM   H12A11512   3.768   5.652   6.952 -0.6588 -4.2000 -1.8871
  112OSM   H12B11513   3.646   5.727   7.061  1.2331 -1.3929  0.8309
  112OSM    C1111514   3.608   5.742   6.850 -0.1424 -0.3611  0.0848
  112OSM   H11A11515   3.639   5.686   6.760 -4.0289 -0.8507 -1.1484
  112OSM   H11B11516   3.648   5.844   6.830  0.9485 -1.0603 -1.4365
  112OSM      P11517   3.370   5.748   6.735 -0.1073  0.1965 -0.0241
  112OSM    O1311518   3.232   5.713   6.769  0.1789  0.2749  0.2038
  112OSM    O1411519   3.384   5.869   6.656  0.2146 -0.1783 -0.5016
  112OSM    O1111520   3.420   5.632   6.650 -0.6231 -0.3547 -0.4094
  112OSM    O1211521   3.464   5.751   6.864 -0.0287 -0.1931  0.0568
  112OSM    C1S11522   3.340   5.593   6.538 -0.0383 -0.0716 -0.0794
  112OSM    H1S11523   3.234   5.623   6.546 -0.5561 -1.1911 -2.1482
  112OSM    H1T11524   3.341   5.482   6.531  0.0633 -0.0220 -1.0157
  112OSM     NF11525   3.303   5.628   6.303 -0.4408 -0.2147 -0.9326
  112OSM    HNF11526   3.340   5.566   6.234  0.3791 -1.5787  0.6778
  112OSM    C2S11527   3.393   5.661   6.407 -0.0460  0.6358 -0.5210
  112OSM    H2S11528   3.389   5.772   6.416 -0.7116  0.6697 -1.1668
  112OSM    C3S11529   3.543   5.614   6.389 -0.8149  0.4963 -0.4913
  112OSM    H3S11530   3.547   5.504   6.403  0.0991  0.6492  0.5948
  112OSM     O311531   3.624   5.681   6.483 -0.1019 -0.2095  0.0420
  112OSM    HO311532   3.561   5.682   6.556 -1.7708 -1.0991 -1.3103
  112OSM    C4S11533   3.598   5.665   6.256 -0.2187 -0.0886 -0.2494
  112OSM    H4S11534   3.619   5.773   6.263  2.4670 -0.6311  1.2525
  112OSM    C5S11535   3.633   5.591   6.146 -0.0285  0.0212  0.1453
  112OSM    H5S11536   3.602   5.486   6.136 -0.1660 -0.2987  3.1102
  112OSM    C6S11537   3.698   5.663   6.028  0.2969  0.4703  0.5879
  112OSM    H6S11538   3.808   5.648   6.028 -0.0122 -4.3564 -3.9037
  112OSM    H6T11539   3.683   5.773   6.042 -0.5680  0.2583  1.4682
  112OSM    C7S11540   3.628   5.613   5.897  0.2129 -0.1658  0.6987
  112OSM    H7S11541   3.517   5.613   5.908  0.0401 -2.7283 -0.4194
  112OSM    H7T11542   3.663   5.509   5.880  2.8913  0.4843  1.7102
  112OSM    C8S11543   3.665   5.686   5.766 -0.5638 -0.8560 -0.4545
  112OSM    H8S11544   3.775   5.702   5.770 -0.2032 -2.4015 -2.4499
  112OSM    H8T11545   3.608   5.782   5.764  0.4984 -0.2108 -0.5264
  112OSM    C9S11546   3.634   5.598   5.650 -0.5783  0.6923 -0.3745
  112OSM    H9S11547   3.524   5.590   5.641 -0.6418  0.7657  0.3033
  112OSM    H9T11548   3.679   5.497   5.657 -0.2918  0.8371 -0.1129
  112OSM   C10S11549   3.696   5.658   5.527  0.6772  0.2942  0.6494
  112OSM   H10S11550   3.806   5.656   5.542  0.9652  2.8956 -0.6109
  112OSM   H10T11551   3.667   5.765   5.521  0.9467  0.4011  1.1712
  112OSM   C11S11552   3.662   5.570   5.404 -0.1309 -0.0352 -0.2919
  112OSM   H11S11553   3.552   5.565   5.410 -0.2066  2.1022  2.0508
  112OSM   H11T11554   3.705   5.468   5.418  1.2184  0.5136 -0.2434
  112OSM   C12S11555   3.706   5.644   5.277  0.9200 -0.2078  0.4435
  112OSM   H12S11556   3.816   5.633   5.266  0.7293 -0.4872 -1.5709
  112OSM   H12T11557   3.671   5.749   5.277  0.7036 -0.2584  1.9703
  112OSM   C13S11558   3.666   5.583   5.137  0.5406  0.2239  0.0505
  112OSM   H13S11559   3.722   5.493   5.104  0.9620  0.4226  0.2319
  112OSM   H13T11560   3.672   5.661   5.057  1.2515 -0.0708 -0.1873
  112OSM   C14S11561   3.516   5.536   5.133 -0.2173 -0.1704  0.4923
  112OSM   H14S11562   3.453   5.609   5.188  1.3736  1.6172  0.0223
  112OSM   H14T11563   3.514   5.437   5.183  2.6196  0.3413  1.7915
  112OSM   C15S11564   3.450   5.525   4.997 -0.3411 -0.2413  0.5017
  112OSM   H15S11565   3.456   5.621   4.942 -0.5627 -1.1135 -1.1319
  112OSM   H15T11566   3.344   5.503   5.022 -0.3298  0.0153  0.7720
  112OSM   C16S11567   3.523   5.422   4.897  0.2864 -0.0395 -0.2265
  112OSM   H16S11568   3.522   5.317   4.933  0.2803  0.1708  0.4141
  112OSM   H16T11569   3.624   5.467   4.894  0.0077  0.5460 -1.7749
  112OSM   C17S11570   3.456   5.428   4.757 -0.0395 -0.0804  0.1656
  112OSM   H17S11571   3.461   5.533   4.721  0.8676 -0.2452 -0.2299
  112OSM   H17T11572   3.348   5.402   4.759  0.0824 -0.5661  0.7310
  112OSM   C18S11573   3.542   5.337   4.659  0.4653  0.6461  0.3048
  112OSM   H18S11574   3.562   5.240   4.710 -0.7312  0.4060  0.3512
  112OSM   H18T11575   3.632   5.399   4.637  0.6805  0.1359 -0.2686
  112OSM   H18U11576   3.480   5.325   4.568  1.5607  0.9731 -0.4903
  112OSM    C1F11577   3.174   5.685   6.297  0.1290 -0.5123  0.2678
  112OSM     OF11578   3.134   5.762   6.379  0.6154 -0.2289  0.2997
  112OSM    C2F11579   3.085   5.637   6.188  0.4682  0.4245  0.1394
  112OSM    H2F11580   2.990   5.606   6.237  1.3420 -1.3776  0.7790
  112OSM    H2G11581   3.124   5.546   6.138  1.0830  0.5665  0.3524
  112OSM    C3F11582   3.064   5.752   6.085  0.8963 -0.0577 -0.0421
  112OSM    H3F11583   3.163   5.776   6.039  1.7292 -2.8706  0.0985
  112OSM    H3G11584   3.033   5.841   6.143 -1.7196  0.3696 -1.9021
  112OSM    C4F11585   2.964   5.709   5.976 -0.0230  0.1668  0.7223
  112OSM    H4F11586   2.870   5.688   6.031 -1.4397  0.8361 -1.3353
  112OSM    H4G11587   3.011   5.618   5.932  1.9011  0.7880  1.3712
  112OSM    C5F11588   2.953   5.820   5.867  0.1791 -1.0618  0.0220
  112OSM    H5F11589   2.890   5.788   5.781  2.0224 -1.0756 -1.3678
  112OSM    H5G11590   3.052   5.848   5.825 -1.4766  2.5649 -2.0186
  112OSM    C6F11591   2.901   5.956   5.925  0.9353 -0.5664  0.1524
  112OSM    H6F11592   2.986   5.996   5.985  2.9841 -1.1117 -2.2067
  112OSM    H6G11593   2.821   5.939   6.000 -0.6201  2.5693 -0.6569
  112OSM    C7F11594   2.878   6.058   5.809 -0.1627  0.0721 -0.2860
  112OSM    H7F11595   2.956   6.053   5.730 -1.8799 -0.6843 -2.0120
  112OSM    H7G11596   2.888   6.162   5.847 -0.6570 -0.2781  0.8592
  112OSM    C8F11597   2.742   6.058   5.734  0.4044 -0.6013 -0.5250
  112OSM    H8F11598   2.740   6.149   5.671  2.1082  0.3935  0.7679
  112OSM    H8G11599   2.676   6.072   5.822  2.5184 -1.6137  1.3423
  112OSM    C9F11600   2.708   5.930   5.664 -0.1437  0.0258  0.1261
  112OSM    H9F11601   2.636   5.871   5.723 -1.0150  0.8420 -0.0968
  112OSM   C10F11602   2.733   5.896   5.535 -0.2755  0.6241  0.4884
  112OSM   H10F11603   2.685   5.806   5.494 -0.3195  1.6385 -1.8436
  112OSM   C11F11604   2.814   5.977   5.440  0.7577  0.0445  0.5590
  112OSM   H11F11605   2.920   5.945   5.433  0.0754 -2.7124  1.4573
  112OSM   H11G11606   2.820   6.084   5.471 -1.1005  0.3512 -0.0358
  112OSM   C12F11607   2.743   5.976   5.308 -0.5746  0.0917  0.7326
  112OSM   H12F11608   2.636   6.004   5.316 -0.8632 -0.9247  0.5284
  112OSM   H12G11609   2.743   5.877   5.259  0.3475  1.1789 -1.6193
  112OSM   C13F11610   2.811   6.068   5.209  0.4115 -0.2405 -0.0371
  112OSM   H13F11611   2.913   6.027   5.192 -1.0807 -2.9429 -3.7391
  112OSM   H13G11612   2.820   6.168   5.257  1.1143 -1.1076  1.7496
  112OSM   C14F11613   2.733   6.090   5.077  0.0710  0.1650  0.1748
  112OSM   H14F11614   2.640   6.143   5.108 -0.2642 -0.4577  0.2437
  112OSM   H14G11615   2.695   5.993   5.039  0.9123 -0.5922  1.2028
  112OSM   C15F11616   2.822   6.145   4.968  0.3690  0.3010 -0.7590
  112OSM   H15F11617   2.897   6.067   4.943  1.6772  0.4580  2.2115
  112OSM   H15G11618   2.876   6.234   5.007 -0.5276  0.0990  1.0307
  112OSM   C16F11619   2.749   6.181   4.842  0.2039 -0.3629 -0.0243
  112OSM   H16F11620   2.714   6.286   4.852 -0.4131 -0.4049 -1.4480
  112OSM   H16G11621   2.658   6.120   4.824  0.7139 -0.7720 -1.3585
  112OSM   C17F11622   2.837   6.187   4.715 -0.0771  0.6371 -0.6389
  112OSM   H17F11623   2.853   6.081   4.686  0.6922  0.5818 -0.0491
  112OSM   H17G11624   2.942   6.216   4.733  0.2202 -0.8468  0.2651
  112OSM   C18F11625   2.766   6.262   4.607  0.5846 -0.0742  0.1710
  112OSM   H18F11626   2.740   6.364   4.643  1.8678 -0.0141  1.0062
  112OSM   H18G11627   2.674   6.209   4.575  0.1749  0.4855  0.4064
  112OSM   H18H11628   2.839   6.285   4.527 -0.0932  0.3260 -0.3384
  113OSM      N11629   6.393   6.722   6.755 -0.2712  0.4577  0.7152
  113OSM    C1511630   6.291   6.812   6.819  0.1061  0.0789 -0.5769
  113OSM   H15A11631   6.230   6.861   6.744  0.1621  1.8812  0.4937
  113OSM   H15B11632   6.333   6.887   6.884  0.1998 -1.9365  1.8246
  113OSM   H15C11633   6.219   6.760   6.879 -0.6087 -0.1508 -1.5948
  113OSM    C1411634   6.494   6.801   6.675 -0.1631 -0.0734 -0.9657
  113OSM   H14A11635   6.556   6.858   6.742 -1.9928  0.5060  0.2984
  113OSM   H14B11636   6.454   6.864   6.597  2.0963  0.6372 -1.6263
  113OSM   H14C11637   6.563   6.742   6.617  2.1931  2.9867 -1.4862
  113OSM    C1311638   6.468   6.659   6.862 -0.8718  0.2802 -0.5158
  113OSM   H13A11639   6.396   6.606   6.922 -0.9246  1.3012  0.3562
  113OSM   H13B11640   6.512   6.730   6.930 -2.5790 -0.3608  1.3654
  113OSM   H13C11641   6.545   6.601   6.813 -1.3338 -1.1819  0.4323
  113OSM    C1211642   6.321   6.618   6.676 -0.0821  0.0980  0.1365
  113OSM   H12A11643   6.240   6.661   6.620  0.3630  1.7490  0.7116
  113OSM   H12B11644   6.268   6.553   6.745  0.0970 -0.0144  0.1685
  113OSM    C1111645   6.409   6.530   6.582  1.0493  0.4593  0.0545
  113OSM   H11A11646   6.484   6.594   6.530 -0.5148  1.4885 -1.0319
  113OSM   H11B11647   6.340   6.492   6.504 -0.2398  1.0251  0.8807
  113OSM      P11648   6.396   6.282   6.667  0.2894  0.1595 -0.4981
  113OSM    O1311649   6.474   6.200   6.769  0.2462  0.2543  0.4300
  113OSM    O1411650   6.255   6.312   6.691 -0.0475  0.4398 -0.1102
  113OSM    O1111651   6.401   6.225   6.522 -0.5497  0.2555 -0.6667
  113OSM    O1211652   6.468   6.422   6.653  0.1561  0.5701 -0.7666
  113OSM    C1S11653   6.519   6.241   6.438 -0.6569  0.4959 -0.2960
  113OSM    H1S11654   6.611   6.200   6.485 -0.4083  0.6713 -0.6281
  113OSM    H1T11655   6.532   6.349   6.417 -0.3845  0.8717  1.6356
  113OSM     NF11656   6.616   6.207   6.224  0.1111 -0.1543  0.5987
  113OSM    HNF11657   6.590   6.277   6.158  0.3065 -0.3592  0.3035
  113OSM    C2S11658   6.499   6.174   6.304  0.4193  0.8815  0.7237
  113OSM    H2S11659   6.497   6.063   6.311  0.9027  0.7279 -1.0681
  113OSM    C3S11660   6.365   6.220   6.233  0.2213  0.2726 -0.0718
  113OSM    H3S11661   6.371   6.330   6.219 -0.0893  0.2408 -0.4626
  113OSM     O311662   6.244   6.205   6.312  0.7114 -0.0599  0.3483
  113OSM    HO311663   6.277   6.170   6.395 -0.4985  0.2791  0.9989
  113OSM    C4S11664   6.357   6.156   6.091  0.9612  0.5992  0.1374
  113OSM    H4S11665   6.406   6.211   6.009  0.2245  0.3849 -0.4562
  113OSM    C5S11666   6.297   6.038   6.053  1.0625  0.4123 -0.5829
  113OSM    H5S11667   6.222   6.004   6.126  0.7781  0.8550 -0.6625
  113OSM    C6S11668   6.289   5.976   5.916 -0.2613 -0.0498 -0.0944
  113OSM    H6S11669   6.191   5.925   5.904 -0.5652  0.3262  0.7148
  113OSM    H6T11670   6.369   5.902   5.893 -1.6698 -1.3471 -0.9706
  113OSM    C7S11671   6.299   6.074   5.798  0.2011  0.4752  0.1119
  113OSM    H7S11672   6.402   6.117   5.796  0.0403  0.9868  1.5141
  113OSM    H7T11673   6.234   6.163   5.810  1.8378  1.5982  1.1498
  113OSM    C8S11674   6.285   6.003   5.668 -0.0990  0.6505  0.5902
  113OSM    H8S11675   6.184   5.960   5.654  0.5765 -0.9511  0.3595
  113OSM    H8T11676   6.351   5.914   5.660 -0.1845  0.7394 -2.0509
  113OSM    C9S11677   6.322   6.101   5.558 -0.7706  0.3693  0.2351
  113OSM    H9S11678   6.427   6.138   5.570  0.4246 -1.7077 -2.5867
  113OSM    H9T11679   6.247   6.182   5.570 -1.5763 -0.4319  0.6021
  113OSM   C10S11680   6.319   6.031   5.423  0.3113 -0.2031  1.0075
  113OSM   H10S11681   6.224   5.980   5.398  0.6771  0.0291 -0.9881
  113OSM   H10T11682   6.393   5.948   5.423 -0.5808 -1.0165  0.6312
  113OSM   C11S11683   6.355   6.130   5.308 -0.3607  0.2191 -0.4538
  113OSM   H11S11684   6.464   6.154   5.314 -0.7024  1.7846 -0.1491
  113OSM   H11T11685   6.303   6.222   5.340 -1.6885 -1.6915  3.4906
  113OSM   C12S11686   6.314   6.071   5.171 -0.3514  0.1049 -0.0525
  113OSM   H12S11687   6.207   6.042   5.166 -0.9823  2.0778  1.0242
  113OSM   H12T11688   6.373   5.979   5.151 -1.6154 -0.8003  0.3076
  113OSM   C13S11689   6.331   6.156   5.044 -0.0078 -0.9367 -0.4639
  113OSM   H13S11690   6.436   6.190   5.043  0.2362 -1.6485  0.2246
  113OSM   H13T11691   6.264   6.245   5.048 -0.1537 -1.0796  1.2469
  113OSM   C14S11692   6.311   6.088   4.904 -0.1318  0.9370 -0.6372
  113OSM   H14S11693   6.396   6.025   4.870 -0.3251 -0.0294  0.5947
  113OSM   H14T11694   6.292   6.158   4.820  1.1004  1.6921 -0.2909
  113OSM   C15S11695   6.188   5.990   4.904  0.6131 -0.1138 -0.1233
  113OSM   H15S11696   6.108   6.055   4.945  2.2954  0.1176  3.0917
  113OSM   H15T11697   6.188   5.904   4.974  1.4488 -0.2652 -0.2996
  113OSM   C16S11698   6.149   5.935   4.770 -0.1126 -0.1005 -0.0490
  113OSM   H16S11699   6.153   6.003   4.682 -2.6406 -0.2805 -0.3798
  113OSM   H16T11700   6.045   5.896   4.768  0.8033 -2.8048 -2.5078
  113OSM   C17S11701   6.236   5.819   4.741  0.3152 -0.7757  0.0974
  113OSM   H17S11702   6.236   5.755   4.831  2.1741 -1.1508 -0.1361
  113OSM   H17T11703   6.337   5.863   4.726  0.6671 -2.6275 -4.8390
  113OSM   C18S11704   6.193   5.736   4.626 -0.2767  0.2238 -0.1461
  113OSM   H18S11705   6.109   5.666   4.644  1.0335 -2.0414 -2.3126
  113OSM   H18T11706   6.279   5.681   4.582 -1.0442  0.5335 -2.1401
  113OSM   H18U11707   6.143   5.796   4.547 -2.0616 -0.1628  0.6282
  113OSM    C1F11708   6.744   6.161   6.240 -0.1258 -0.0144 -0.3794
  113OSM     OF11709   6.768   6.080   6.329 -0.6956 -0.2473  0.1521
  113OSM    C2F11710   6.855   6.209   6.155 -0.5153 -0.6409  0.2922
  113OSM    H2F11711   6.843   6.317   6.132  2.9729 -0.0843  0.6163
  113OSM    H2G11712   6.862   6.146   6.064 -2.1564 -1.0271  0.3960
  113OSM    C3F11713   6.991   6.212   6.233 -0.1391 -0.4168 -0.2433
  113OSM    H3F11714   7.036   6.111   6.243  2.8835  0.9944  2.1064
  113OSM    H3G11715   6.981   6.260   6.333  1.4599 -0.1723 -0.1652
  113OSM    C4F11716   7.099   6.285   6.153 -0.4676 -0.2637 -0.3305
  113OSM    H4F11717   7.190   6.300   6.215 -0.1451 -2.8632 -0.0630
  113OSM    H4G11718   7.066   6.390   6.138  0.5222  1.0727  4.9495
  113OSM    C5F11719   7.143   6.222   6.020  0.2389 -0.0189  0.6775
  113OSM    H5F11720   7.058   6.225   5.948  1.0766 -0.8776 -0.3813
  113OSM    H5G11721   7.182   6.118   6.023 -1.2542 -0.6165  0.4688
  113OSM    C6F11722   7.255   6.308   5.948  0.3205  0.4555  0.4161
  113OSM    H6F11723   7.358   6.279   5.977  0.6763  0.6413 -0.6186
  113OSM    H6G11724   7.248   6.411   5.989  2.0596  0.6451  0.2777
  113OSM    C7F11725   7.244   6.319   5.791 -0.6846  0.4856 -0.3138
  113OSM    H7F11726   7.141   6.340   5.754 -0.9498  0.1350  0.1995
  113OSM    H7G11727   7.274   6.216   5.763  0.8468  1.2213 -1.5167
  113OSM    C8F11728   7.319   6.432   5.712  0.2988 -0.2248  0.0351
  113OSM    H8F11729   7.425   6.442   5.745  0.6410 -1.7776 -0.5240
  113OSM    H8G11730   7.273   6.530   5.738  0.2582 -0.1530 -0.3072
  113OSM    C9F11731   7.320   6.398   5.566 -0.6707 -0.6549  0.0184
  113OSM    H9F11732   7.303   6.292   5.541 -2.5922 -0.5916  0.8789
  113OSM   C10F11733   7.336   6.488   5.466 -0.1326  0.4955  0.5840
  113OSM   H10F11734   7.316   6.443   5.368 -2.6780 -2.4619  2.2328
  113OSM   C11F11735   7.352   6.633   5.483  0.5672 -0.0926 -0.6585
  113OSM   H11F11736   7.386   6.658   5.585  1.1803 -0.5203 -0.7548
  113OSM   H11G11737   7.255   6.685   5.464  0.4746 -0.1482 -0.3348
  113OSM   C12F11738   7.458   6.693   5.386  0.1604  0.2688  0.7496
  113OSM   H12F11739   7.548   6.628   5.391 -0.7836 -1.4513 -2.1705
  113OSM   H12G11740   7.477   6.800   5.409  3.0273  0.1619 -0.5579
  113OSM   C13F11741   7.404   6.695   5.244 -0.2970  0.5442  0.8166
  113OSM   H13F11742   7.457   6.778   5.193  0.9125  0.1784  1.4247
  113OSM   H13G11743   7.296   6.714   5.228 -0.1337 -0.8859 -2.8199
  113OSM   C14F11744   7.435   6.570   5.151 -0.5573 -0.1912  0.2378
  113OSM   H14F11745   7.397   6.480   5.204  3.8013 -2.3266  0.1608
  113OSM   H14G11746   7.545   6.560   5.155 -0.5919 -0.2990  1.9566
  113OSM   C15F11747   7.375   6.586   5.015 -0.5190  0.5731  0.9758
  113OSM   H15F11748   7.390   6.685   4.967 -1.6706  0.3284  0.0686
  113OSM   H15G11749   7.265   6.570   5.010 -0.1700 -1.9880 -2.1924
  113OSM   C16F11750   7.432   6.475   4.921 -0.2849 -0.3145  0.2320
  113OSM   H16F11751   7.437   6.385   4.986 -0.0872 -1.5842 -1.4803
  113OSM   H16G11752   7.538   6.505   4.908 -0.4786  0.5369  0.5360
  113OSM   C17F11753   7.338   6.468   4.808  0.0170  0.4772 -0.2690
  113OSM   H17F11754   7.404   6.427   4.729  0.7214 -1.4666  1.2557
  113OSM   H17G11755   7.290   6.563   4.777 -0.5483  1.6083  3.5685
  113OSM   C18F11756   7.220   6.376   4.833 -0.3883  0.0125  0.0221
  113OSM   H18F11757   7.252   6.273   4.859 -0.9252 -0.6487 -1.7341
  113OSM   H18G11758   7.165   6.365   4.737  1.1533 -1.3835 -0.7344
  113OSM   H18H11759   7.161   6.417   4.918  4.1502  3.3676  1.9322
  114OSM      N11760   5.834   4.377   7.039 -0.0381  0.3577  0.3245
  114OSM    C1511761   5.877   4.506   6.982  0.6077 -0.8299 -0.6212
  114OSM   H15A11762   5.862   4.582   7.057 -1.0922 -2.9108  1.2708
  114OSM   H15B11763   5.821   4.544   6.898 -1.3030  1.8273  1.6789
  114OSM   H15C11764   5.983   4.514   6.960  0.5193  2.7473 -0.3080
  114OSM    C1411765   5.928   4.351   7.149 -0.1890 -0.7066 -0.3785
  114OSM   H14A11766   6.031   4.347   7.117 -0.4659 -2.6267 -1.2117
  114OSM   H14B11767   5.911   4.252   7.190 -1.0674  0.4856  2.3560
  114OSM   H14C11768   5.912   4.406   7.240  0.2745 -1.0174 -0.1062
  114OSM    C1311769   5.703   4.406   7.106 -0.1453 -0.0549  0.4065
  114OSM   H13A11770   5.655   4.320   7.151  0.0728 -0.2381  0.2906
  114OSM   H13B11771   5.635   4.445   7.031  2.3324  4.1389  0.0557
  114OSM   H13C11772   5.715   4.481   7.183  1.2359 -0.9476  1.0998
  114OSM    C1211773   5.825   4.267   6.933 -0.2533 -0.3509  0.3727
  114OSM   H12A11774   5.769   4.184   6.973 -2.1630  0.0067 -1.3978
  114OSM   H12B11775   5.925   4.230   6.914 -1.2975 -2.1140 -2.1735
  114OSM    C1111776   5.757   4.319   6.804  0.4920 -0.0217  0.3831
  114OSM   H11A11777   5.747   4.231   6.737 -1.4401  0.6119 -0.2476
  114OSM   H11B11778   5.830   4.384   6.751  0.4551  0.7210  1.2092
  114OSM      P11779   5.492   4.309   6.843  0.2632  0.3827 -0.5300
  114OSM    O1311780   5.512   4.161   6.857 -0.4824  0.3893 -0.4631
  114OSM    O1411781   5.397   4.377   6.933 -0.2809  0.3158  0.3171
  114OSM    O1111782   5.432   4.342   6.701 -0.0887 -0.1200 -0.5660
  114OSM    O1211783   5.628   4.387   6.831  0.7188  0.3207  0.1001
  114OSM    C1S11784   5.288   4.329   6.674 -0.1497  0.0173 -0.0315
  114OSM    H1S11785   5.227   4.375   6.754 -0.6517  1.4226 -1.1661
  114OSM    H1T11786   5.262   4.222   6.666 -1.2280  0.2337  0.4356
  114OSM     NF11787   5.115   4.374   6.502 -0.9754  0.9951 -0.5292
  114OSM    HNF11788   5.104   4.309   6.427  2.8178 -0.7364  0.1459
  114OSM    C2S11789   5.252   4.402   6.546 -0.0278  0.1759  0.4394
  114OSM    H2S11790   5.260   4.510   6.569  1.4356 -0.1726  1.7464
  114OSM    C3S11791   5.364   4.386   6.436 -0.2826 -0.3972 -0.0855
  114OSM    H3S11792   5.371   4.277   6.418  0.5108 -0.4678  0.5994
  114OSM     O311793   5.499   4.431   6.469 -0.1914 -0.3404  0.2025
  114OSM    HO311794   5.500   4.428   6.565  0.2608 -2.0540  0.1907
  114OSM    C4S11795   5.320   4.449   6.303 -0.3889 -0.5955  0.0511
  114OSM    H4S11796   5.275   4.550   6.310  0.9685  0.1379 -1.1560
  114OSM    C5S11797   5.342   4.400   6.179  0.0427  0.1248 -0.5829
  114OSM    H5S11798   5.395   4.307   6.152  0.3431  0.2861 -0.5544
  114OSM    C6S11799   5.287   4.479   6.060  0.3974  0.3859 -0.2132
  114OSM    H6S11800   5.368   4.503   5.988  0.8256  1.2847  0.5370
  114OSM    H6T11801   5.239   4.571   6.099  1.3450  0.3940  1.0262
  114OSM    C7S11802   5.170   4.394   5.989  0.9735  1.0620  0.2639
  114OSM    H7S11803   5.072   4.403   6.040  0.5239  0.3785 -0.4639
  114OSM    H7T11804   5.191   4.285   5.999 -1.9434  0.3652 -0.3740
  114OSM    C8S11805   5.136   4.434   5.840  0.4582  0.3021 -0.9676
  114OSM    H8S11806   5.055   4.365   5.811 -1.2461  0.8510  2.0866
  114OSM    H8T11807   5.230   4.421   5.782 -0.0593 -1.1241 -1.5168
  114OSM    C9S11808   5.081   4.579   5.833  0.3880  0.2948 -0.1838
  114OSM    H9S11809   5.164   4.647   5.865  2.5147 -2.7279  1.2879
  114OSM    H9T11810   4.988   4.586   5.892  1.7860  2.1222  1.9820
  114OSM   C10S11811   5.045   4.607   5.683  0.3256 -0.1195 -0.9538
  114OSM   H10S11812   5.023   4.714   5.664 -2.9459 -0.3098  0.9329
  114OSM   H10T11813   4.947   4.559   5.664  0.2000 -0.0745 -0.4530
  114OSM   C11S11814   5.144   4.569   5.573 -0.3448 -0.4414  0.1985
  114OSM   H11S11815   5.123   4.462   5.550  1.1251 -1.0674  1.5608
  114OSM   H11T11816   5.243   4.586   5.621  0.1996  0.3562 -1.1318
  114OSM   C12S11817   5.134   4.648   5.439  0.1855 -0.0280  0.6328
  114OSM   H12S11818   5.181   4.748   5.451 -1.3746  0.7044  0.8062
  114OSM   H12T11819   5.028   4.664   5.410  0.0057 -2.5076 -0.3713
  114OSM   C13S11820   5.190   4.555   5.332  0.6835 -0.4289  0.0904
  114OSM   H13S11821   5.133   4.461   5.316  2.0154 -0.9358 -2.0368
  114OSM   H13T11822   5.285   4.524   5.380  0.4887  0.2627  0.9506
  114OSM   C14S11823   5.222   4.619   5.200 -0.0075  0.4228 -0.5224
  114OSM   H14S11824   5.128   4.629   5.143 -1.5027 -3.2215  0.9913
  114OSM   H14T11825   5.284   4.543   5.147  1.4472  1.7509 -0.7810
  114OSM   C15S11826   5.298   4.745   5.198 -0.1711 -0.1425 -0.4346
  114OSM   H15S11827   5.384   4.725   5.266 -1.8666 -2.7569  1.1388
  114OSM   H15T11828   5.255   4.836   5.245  1.9993  0.1230  1.2105
  114OSM   C16S11829   5.343   4.773   5.053 -0.1185 -0.6116  0.2920
  114OSM   H16S11830   5.374   4.678   5.004 -0.9816  0.1502 -1.8562
  114OSM   H16T11831   5.424   4.848   5.061 -0.4729 -0.3450  1.7092
  114OSM   C17S11832   5.233   4.832   4.957 -0.4709  0.2349 -0.2017
  114OSM   H17S11833   5.147   4.764   4.973 -0.7326  0.2766 -1.3730
  114OSM   H17T11834   5.268   4.832   4.852 -0.3168  2.2351 -0.1883
  114OSM   C18S11835   5.189   4.977   4.999  0.7942 -0.5663 -0.7584
  114OSM   H18S11836   5.113   5.015   4.927  0.8693 -2.0154 -1.6378
  114OSM   H18T11837   5.264   5.058   5.011 -0.7199  0.9819 -1.1194
  114OSM   H18U11838   5.130   4.978   5.093  0.5435 -1.0421 -0.9067
  114OSM    C1F11839   5.012   4.420   6.568 -0.2146  0.5876 -0.1063
  114OSM     OF11840   5.028   4.478   6.673 -0.3349 -0.3145  0.0447
  114OSM    C2F11841   4.868   4.408   6.517  0.0185  0.9085 -0.1764
  114OSM    H2F11842   4.809   4.366   6.602 -0.6997  0.8684 -0.6825
  114OSM    H2G11843   4.859   4.336   6.432  0.0821  0.7789 -0.0736
  114OSM    C3F11844   4.812   4.545   6.476 -1.1397 -0.5208  0.0716
  114OSM    H3F11845   4.864   4.618   6.541  1.1386 -1.0897 -1.0391
  114OSM    H3G11846   4.701   4.555   6.484 -1.1278 -1.3893  2.0776
  114OSM    C4F11847   4.854   4.575   6.335 -0.1181  0.3638  0.8504
  114OSM    H4F11848   4.789   4.520   6.264  0.4254  1.5238 -0.6052
  114OSM    H4G11849   4.953   4.528   6.315 -0.0828  1.1635 -0.9731
  114OSM    C5F11850   4.859   4.719   6.279 -0.2140  0.2308 -0.2640
  114OSM    H5F11851   4.935   4.782   6.330  0.0229 -0.0791 -0.2341
  114OSM    H5G11852   4.763   4.756   6.323 -0.5308 -2.5353  1.6255
  114OSM    C6F11853   4.873   4.718   6.127 -0.1722  0.2476 -0.0906
  114OSM    H6F11854   4.792   4.658   6.081  1.8591 -2.0008 -0.9934
  114OSM    H6G11855   4.971   4.684   6.087 -1.3760  0.8878 -4.0105
  114OSM    C7F11856   4.855   4.856   6.069  0.1724  0.7173  0.3666
  114OSM    H7F11857   4.918   4.920   6.133  0.9216 -0.1140  0.4913
  114OSM    H7G11858   4.753   4.895   6.090 -0.4306 -1.1955  1.2504
  114OSM    C8F11859   4.903   4.862   5.927 -0.4020 -0.6835  0.0380
  114OSM    H8F11860   4.860   4.787   5.856 -0.1860  0.3709 -1.2480
  114OSM    H8G11861   5.013   4.846   5.921 -0.0653  0.4942  2.1661
  114OSM    C9F11862   4.869   4.997   5.863 -0.1706 -0.5543  0.0487
  114OSM    H9F11863   4.912   5.070   5.932 -0.8434  1.7104 -1.8062
  114OSM   C10F11864   4.817   5.032   5.741  0.5266 -0.0954  0.0686
  114OSM   H10F11865   4.803   5.139   5.720 -2.7792 -0.1616  1.3135
  114OSM   C11F11866   4.778   4.938   5.628 -0.1130  0.0895 -0.0235
  114OSM   H11F11867   4.671   4.908   5.633 -0.3173  0.9116  0.8300
  114OSM   H11G11868   4.833   4.845   5.652 -0.3358  0.2010  0.9418
  114OSM   C12F11869   4.805   4.989   5.486 -0.5922 -1.0761  0.3937
  114OSM   H12F11870   4.744   5.081   5.478  0.4850 -0.1200  2.3156
  114OSM   H12G11871   4.773   4.919   5.406 -0.8794 -0.3310 -0.1510
  114OSM   C13F11872   4.952   5.022   5.471  0.6297 -0.4605  0.1875
  114OSM   H13F11873   5.013   4.929   5.474 -0.6676 -1.3633 -0.7852
  114OSM   H13G11874   4.996   5.091   5.546  0.3937  0.8900 -0.8599
  114OSM   C14F11875   4.979   5.084   5.328 -0.2413  0.0254 -0.2739
  114OSM   H14F11876   4.953   5.014   5.246  0.6897 -0.4320 -0.1978
  114OSM   H14G11877   5.089   5.098   5.325 -0.3552  0.7248 -1.8587
  114OSM   C15F11878   4.917   5.224   5.300 -0.5227 -0.0200 -0.3651
  114OSM   H15F11879   4.983   5.294   5.356  0.0306  0.4140 -1.5248
  114OSM   H15G11880   4.812   5.241   5.331 -0.1212  0.9463  0.5293
  114OSM   C16F11881   4.925   5.267   5.152 -1.2053  0.3674  0.3642
  114OSM   H16F11882   4.888   5.188   5.084  0.1861 -0.9355  1.0589
  114OSM   H16G11883   5.031   5.289   5.127 -1.1701 -0.4914 -0.2944
  114OSM   C17F11884   4.838   5.384   5.106  0.4127 -0.6017 -0.2426
  114OSM   H17F11885   4.734   5.359   5.136  0.2934  1.2917  1.1394
  114OSM   H17G11886   4.839   5.401   4.996 -2.6867 -1.3342 -0.4774
  114OSM   C18F11887   4.866   5.518   5.167  0.6987 -0.3059 -0.2120
  114OSM   H18F11888   4.971   5.553   5.154 -0.2587  2.1274 -2.0533
  114OSM   H18G11889   4.846   5.519   5.276 -0.0408  2.7911 -0.2814
  114OSM   H18H11890   4.811   5.604   5.123  1.7775  0.6036  0.1600
  115OSM      N11891   4.678   6.651   6.594 -0.7286 -0.0610 -0.4067
  115OSM    C1511892   4.746   6.631   6.724  0.4659  0.0438  0.0320
  115OSM   H15A11893   4.713   6.541   6.773 -2.2051 -0.0988 -1.8034
  115OSM   H15B11894   4.722   6.719   6.782 -2.5536 -1.1144  0.7124
  115OSM   H15C11895   4.852   6.615   6.715  0.2397 -1.2221 -0.5758
  115OSM    C1411896   4.693   6.532   6.513 -0.0248  0.3607 -0.0104
  115OSM   H14A11897   4.790   6.522   6.466 -0.7840 -0.6532 -1.4198
  115OSM   H14B11898   4.626   6.516   6.430  0.4611 -0.9458 -0.1753
  115OSM   H14C11899   4.684   6.449   6.581 -0.0869 -1.0377 -1.6742
  115OSM    C1311900   4.532   6.674   6.628 -0.2602 -0.2656 -0.2675
  115OSM   H13A11901   4.483   6.668   6.532  0.1282 -1.6256 -0.4054
  115OSM   H13B11902   4.522   6.762   6.689 -0.6266 -0.5622  0.1077
  115OSM   H13C11903   4.482   6.597   6.685 -0.9585 -0.4625 -1.1325
  115OSM    C1211904   4.729   6.776   6.520  0.9730 -0.4580  0.1023
  115OSM   H12A11905   4.717   6.855   6.593 -0.3202 -0.6671  0.1317
  115OSM   H12B11906   4.657   6.800   6.443 -0.8138 -0.7780  1.5982
  115OSM    C1111907   4.866   6.779   6.462 -0.1507  0.8117  0.2142
  115OSM   H11A11908   4.884   6.862   6.390  1.9803 -0.7583 -1.1847
  115OSM   H11B11909   4.888   6.686   6.406  0.7211  0.9998  0.2207
  115OSM      P11910   4.979   6.932   6.632 -0.1836 -0.0530  0.1397
  115OSM    O1311911   4.854   6.987   6.683 -0.8060  0.3254  0.4673
  115OSM    O1411912   5.089   6.919   6.732  0.4687  0.5284  0.1465
  115OSM    O1111913   5.045   7.016   6.516  0.0295 -0.2688  0.3866
  115OSM    O1211914   4.960   6.789   6.566  0.1436  0.1588  0.3450
  115OSM    C1S11915   5.174   6.989   6.458 -0.1347  0.1294 -0.0799
  115OSM    H1S11916   5.216   6.892   6.492  0.7264  0.9487  1.2641
  115OSM    H1T11917   5.246   7.071   6.477 -0.1423  0.2055 -0.3636
  115OSM     NF11918   5.302   6.920   6.250 -0.1189 -0.1080 -0.0346
  115OSM    HNF11919   5.363   6.987   6.207 -3.3675  1.4956 -2.7369
  115OSM    C2S11920   5.167   6.963   6.295  0.0057  0.5137 -0.6223
  115OSM    H2S11921   5.090   6.884   6.281  0.8448 -0.2100 -1.3000
  115OSM    C3S11922   5.099   7.075   6.222  0.5074 -0.6420 -0.7634
  115OSM    H3S11923   5.152   7.168   6.253 -1.1527  0.2537 -0.5223
  115OSM     O311924   4.964   7.100   6.261  0.4104 -0.3492 -0.1194
  115OSM    HO311925   4.970   7.087   6.356  0.0734 -0.7013 -0.1434
  115OSM    C4S11926   5.107   7.065   6.071 -0.0303 -0.2879  0.1204
  115OSM    H4S11927   5.195   7.117   6.030 -1.4659  0.6014 -2.0546
  115OSM    C5S11928   5.042   6.992   5.976  0.6183 -0.1124 -0.0784
  115OSM    H5S11929   4.964   6.924   6.012  1.0649 -0.3336  0.5024
  115OSM    C6S11930   5.080   6.989   5.828 -0.3637 -0.0660 -0.9987
  115OSM    H6S11931   5.029   7.076   5.782 -0.7856  0.0322 -0.3583
  115OSM    H6T11932   5.037   6.897   5.781 -1.1529 -0.7522  0.9288
  115OSM    C7S11933   5.232   6.995   5.797  0.5469 -0.6713 -0.8511
  115OSM    H7S11934   5.271   6.897   5.831  1.3009  0.1212  0.6329
  115OSM    H7T11935   5.273   7.077   5.858  0.5130 -0.7912 -0.6675
  115OSM    C8S11936   5.279   7.006   5.652  0.1085 -0.2900  0.3083
  115OSM    H8S11937   5.240   6.920   5.593 -2.2182  1.2232 -0.5065
  115OSM    H8T11938   5.389   7.001   5.640  0.0780  1.0148 -0.8381
  115OSM    C9S11939   5.230   7.130   5.571  0.3275 -0.2950  0.0239
  115OSM    H9S11940   5.247   7.221   5.632  2.3738 -1.5126  1.4269
  115OSM    H9T11941   5.122   7.127   5.544  0.0620  1.9100  0.6726
  115OSM   C10S11942   5.314   7.149   5.443 -0.3018 -0.4912 -0.3550
  115OSM   H10S11943   5.420   7.171   5.471 -0.6611  0.5551  0.2556
  115OSM   H10T11944   5.265   7.229   5.384 -0.0268 -1.3490 -1.7951
  115OSM   C11S11945   5.298   7.026   5.353 -0.1897  0.2928 -0.1533
  115OSM   H11S11946   5.193   6.992   5.359 -0.8082  1.8793 -1.3285
  115OSM   H11T11947   5.364   6.939   5.376 -1.7134 -0.4074  1.9382
  115OSM   C12S11948   5.329   7.052   5.202 -0.1642 -0.9929 -0.1439
  115OSM   H12S11949   5.288   7.147   5.163 -1.0420 -0.8528  1.0461
  115OSM   H12T11950   5.292   6.966   5.142 -0.1591 -0.3786 -1.0345
  115OSM   C13S11951   5.480   7.058   5.174  0.0121  0.0788 -0.8862
  115OSM   H13S11952   5.498   7.039   5.066  0.2408 -0.6823 -0.7262
  115OSM   H13T11953   5.535   6.984   5.236  0.8625 -0.1795 -1.9192
  115OSM   C14S11954   5.542   7.202   5.202 -0.0562  0.9705 -0.2191
  115OSM   H14S11955   5.646   7.205   5.161 -0.4704  0.7478 -1.3190
  115OSM   H14T11956   5.567   7.223   5.308  1.4473  3.1894 -0.9159
  115OSM   C15S11957   5.473   7.317   5.136  0.2121 -0.5707 -0.2873
  115OSM   H15S11958   5.372   7.327   5.181  0.7985 -1.3705  1.2699
  115OSM   H15T11959   5.458   7.288   5.030  0.1509 -1.1158 -0.1319
  115OSM   C16S11960   5.549   7.454   5.132 -0.4616  0.5866 -0.1301
  115OSM   H16S11961   5.639   7.438   5.069 -0.7217 -3.5326  0.2620
  115OSM   H16T11962   5.589   7.470   5.234  0.5341 -0.0145 -0.4174
  115OSM   C17S11963   5.471   7.563   5.069  0.6656  0.1805  0.4057
  115OSM   H17S11964   5.513   7.664   5.087 -2.2318  1.3509  1.1528
  115OSM   H17T11965   5.366   7.557   5.105  0.1785  1.3588 -0.7204
  115OSM   C18S11966   5.450   7.554   4.918 -0.2301  0.1568 -0.1871
  115OSM   H18S11967   5.546   7.546   4.863 -0.7175 -2.7649 -0.7897
  115OSM   H18T11968   5.396   7.645   4.886 -0.5127  0.1313  0.2057
  115OSM   H18U11969   5.390   7.463   4.897 -0.7922 -0.0693  2.0879
  115OSM    C1F11970   5.354   6.805   6.272  0.5588  0.3461 -0.7388
  115OSM     OF11971   5.282   6.710   6.314  0.2092 -0.8372  0.6586
  115OSM    C2F11972   5.501   6.774   6.249  0.6249 -0.8541  0.1493
  115OSM    H2F11973   5.563   6.765   6.341  1.3384  2.3529  0.0963
  115OSM    H2G11974   5.538   6.859   6.189  2.1438 -1.6971 -0.1658
  115OSM    C3F11975   5.509   6.649   6.154 -0.1933 -0.1650 -0.1942
  115OSM    H3F11976   5.461   6.560   6.200  0.3255  0.4230  1.5550
  115OSM    H3G11977   5.617   6.629   6.141 -0.2929  1.0917 -4.6176
  115OSM    C4F11978   5.443   6.669   6.017 -0.6118  0.1558 -0.1465
  115OSM    H4F11979   5.512   6.734   5.959  0.4029 -1.0116 -0.2695
  115OSM    H4G11980   5.344   6.719   6.031  0.2425  1.2705  2.3856
  115OSM    C5F11981   5.431   6.537   5.938 -1.1882  0.1029  0.6904
  115OSM    H5F11982   5.369   6.474   6.005  2.3344 -1.5797  2.6993
  115OSM    H5G11983   5.531   6.488   5.933 -1.1182  0.3270 -0.5599
  115OSM    C6F11984   5.380   6.558   5.792  0.0744 -1.2502  0.2897
  115OSM    H6F11985   5.279   6.605   5.797  1.2201  1.3066  1.0799
  115OSM    H6G11986   5.377   6.457   5.745  0.3896 -0.4806 -1.4619
  115OSM    C7F11987   5.477   6.651   5.715 -0.0153  0.2901  1.0245
  115OSM    H7F11988   5.580   6.621   5.743 -0.0092  0.0066  0.7098
  115OSM    H7G11989   5.458   6.754   5.753  3.3990  2.4994 -2.4614
  115OSM    C8F11990   5.477   6.639   5.566  1.0034 -0.5592  0.0881
  115OSM    H8F11991   5.373   6.645   5.527  1.2841 -0.5799 -0.6657
  115OSM    H8G11992   5.516   6.547   5.518  0.8601  0.0707 -1.2607
  115OSM    C9F11993   5.540   6.755   5.499  1.0586  0.5349 -0.2688
  115OSM    H9F11994   5.510   6.848   5.550 -0.0795  0.9179 -1.5650
  115OSM   C10F11995   5.622   6.749   5.391 -0.7053 -0.5474 -0.3551
  115OSM   H10F11996   5.654   6.850   5.359 -2.1832  0.1633  0.3284
  115OSM   C11F11997   5.681   6.632   5.316 -0.6716  0.2932  0.8370
  115OSM   H11F11998   5.653   6.531   5.354  0.4739 -0.2936  0.1759
  115OSM   H11G11999   5.791   6.641   5.328 -0.4246 -0.2185 -0.7329
  115OSM   C12F12000   5.650   6.632   5.164  0.2127  0.2126  0.7262
  115OSM   H12F12001   5.540   6.645   5.155  0.3337  0.6828 -0.1490
  115OSM   H12G12002   5.682   6.538   5.116 -3.1138  0.1582 -1.7182
  115OSM   C13F12003   5.723   6.741   5.078 -0.3371  0.1931 -0.2074
  115OSM   H13F12004   5.829   6.741   5.111 -0.2872 -0.2071 -0.3577
  115OSM   H13G12005   5.682   6.841   5.103  3.5223  1.0589  4.0678
  115OSM   C14F12006   5.712   6.718   4.924  0.2087 -0.1209  0.2540
  115OSM   H14F12007   5.773   6.625   4.911  0.8562 -0.1449  2.8712
  115OSM   H14G12008   5.762   6.806   4.879  0.4752 -1.4654 -2.2955
  115OSM   C15F12009   5.564   6.695   4.882  0.1216 -1.0081  0.2643
  115OSM   H15F12010   5.502   6.768   4.937 -0.2359  0.3976 -1.8889
  115OSM   H15G12011   5.527   6.596   4.917 -0.3914 -0.6597  0.7027
  115OSM   C16F12012   5.538   6.722   4.732  0.5414  0.4998 -0.1034
  115OSM   H16F12013   5.580   6.645   4.664 -4.3241 -2.1645 -0.5413
  115OSM   H16G12014   5.563   6.826   4.703 -2.1050  1.9347  2.2829
  115OSM   C17F12015   5.395   6.703   4.694 -0.3693 -0.1171  0.4636
  115OSM   H17F12016   5.362   6.611   4.747  2.1345 -0.3753  1.7091
  115OSM   H17G12017   5.393   6.692   4.583  1.0615  0.5581  0.3501
  115OSM   C18F12018   5.304   6.825   4.735 -0.2952 -0.0893 -0.5340
  115OSM   H18F12019   5.327   6.861   4.837  1.3753 -1.0923 -0.5120
  115OSM   H18G12020   5.201   6.784   4.745  0.9633 -3.6380 -0.4797
  115OSM   H18H12021   5.321   6.907   4.662  0.9317 -0.8311 -1.1192
  116OSM      N12022   1.060   0.585   6.749 -0.2981 -0.4824 -0.1421
  116OSM    C1512023   1.197   0.647   6.743  0.0618  0.1763  0.5200
  116OSM   H15A12024   1.249   0.654   6.838  0.0202  2.7006  0.4429
  116OSM   H15B12025   1.193   0.750   6.711 -0.9199  0.5278  1.6946
  116OSM   H15C12026   1.267   0.585   6.690  0.4106 -0.4198  1.6433
  116OSM    C1412027   1.079   0.443   6.784  0.5542  0.5308 -0.1239
  116OSM   H14A12028   1.138   0.386   6.714  2.2858 -0.3475  1.9363
  116OSM   H14B12029   0.983   0.395   6.799  1.2256 -0.9824 -0.4262
  116OSM   H14C12030   1.128   0.439   6.880  1.1153 -0.2591 -0.4320
  116OSM    C1312031   0.982   0.642   6.862  0.3073  0.0427  0.6803
  116OSM   H13A12032   1.012   0.608   6.960  0.0617  2.1216  1.5383
  116OSM   H13B12033   0.878   0.618   6.842  0.5607  0.5690 -1.5309
  116OSM   H13C12034   0.981   0.750   6.854  0.8714 -0.0419 -0.7167
  116OSM    C1212035   0.996   0.600   6.612 -0.0391  0.1459  0.1326
  116OSM   H12A12036   1.063   0.552   6.543  1.3425  0.3854  1.2796
  116OSM   H12B12037   0.977   0.705   6.592 -1.3711 -0.0622  0.2137
  116OSM    C1112038   0.862   0.524   6.594 -0.8166  0.0375 -0.3678
  116OSM   H11A12039   0.867   0.420   6.633  1.2011  0.5699  0.9405
  116OSM   H11B12040   0.832   0.524   6.487 -1.4689 -1.6101 -0.2165
  116OSM      P12041   0.621   0.552   6.685  0.1981  0.2601 -0.1057
  116OSM    O1312042   0.607   0.439   6.778  0.5591  0.3251  0.3314
  116OSM    O1412043   0.534   0.668   6.714  0.3046 -0.3130 -0.2965
  116OSM    O1112044   0.584   0.511   6.534  0.3877  0.1312 -0.2027
  116OSM    O1212045   0.767   0.598   6.670  0.4103  0.2830  0.4265
  116OSM    C1S12046   0.452   0.468   6.501  0.2542 -0.4901 -0.3085
  116OSM    H1S12047   0.372   0.502   6.571  1.5715 -0.3952  1.2079
  116OSM    H1T12048   0.454   0.357   6.516 -0.2207 -0.7714 -2.1649
  116OSM     NF12049   0.291   0.494   6.337 -0.0948  0.1150  0.0030
  116OSM    HNF12050   0.241   0.414   6.305 -0.4105  0.8193 -1.3029
  116OSM    C2S12051   0.433   0.487   6.354 -0.2369  0.2045 -0.4730
  116OSM    H2S12052   0.475   0.586   6.326 -0.0275  1.0761  2.5527
  116OSM    C3S12053   0.506   0.377   6.267  0.4850 -0.2132  0.2198
  116OSM    H3S12054   0.450   0.286   6.300 -3.8601  1.4667 -1.7706
  116OSM     O312055   0.643   0.356   6.305  0.5017  0.8162  0.2165
  116OSM    HO312056   0.657   0.409   6.384 -1.4431  2.1753 -0.2849
  116OSM    C4S12057   0.489   0.405   6.115  0.0677 -0.1923 -0.2123
  116OSM    H4S12058   0.408   0.350   6.065 -0.6499 -0.1498  0.8528
  116OSM    C5S12059   0.563   0.490   6.042  0.1655 -0.0229 -0.7325
  116OSM    H5S12060   0.653   0.532   6.090 -0.5581 -0.7705  1.3950
  116OSM    C6S12061   0.564   0.523   5.899 -0.6534  0.2389 -0.6581
  116OSM    H6S12062   0.581   0.631   5.879  1.2713 -0.1161 -1.0636
  116OSM    H6T12063   0.465   0.488   5.862 -0.8735  1.9605 -1.8142
  116OSM    C7S12064   0.677   0.452   5.817  0.5332 -0.4625  0.3427
  116OSM    H7S12065   0.676   0.341   5.819 -1.4508 -0.4821 -0.1295
  116OSM    H7T12066   0.776   0.485   5.855  0.8691 -2.7227  1.6263
  116OSM    C8S12067   0.659   0.478   5.666 -0.4733 -0.2074 -0.2458
  116OSM    H8S12068   0.681   0.584   5.638 -0.1861 -0.6704 -1.8738
  116OSM    H8T12069   0.552   0.480   5.636  0.1414 -0.3494 -2.6234
  116OSM    C9S12070   0.740   0.372   5.582 -0.1417  0.6211 -0.1522
  116OSM    H9S12071   0.703   0.271   5.610 -0.4890  0.9188  0.5055
  116OSM    H9T12072   0.847   0.368   5.611  0.0459 -0.0618 -0.9097
  116OSM   C10S12073   0.737   0.397   5.431 -0.1402  0.0113  0.0439
  116OSM   H10S12074   0.735   0.508   5.425 -0.4038  0.1263  1.6880
  116OSM   H10T12075   0.633   0.364   5.408 -0.4908  0.0978  1.3798
  116OSM   C11S12076   0.859   0.337   5.347 -0.3060 -0.0369 -0.3287
  116OSM   H11S12077   0.859   0.229   5.372 -0.4092  0.0310 -0.0237
  116OSM   H11T12078   0.945   0.374   5.408 -1.5119 -0.4702  1.7579
  116OSM   C12S12079   0.859   0.381   5.199  0.0779  0.3687  0.6801
  116OSM   H12S12080   0.949   0.339   5.151 -0.6088 -0.5735  0.1909
  116OSM   H12T12081   0.864   0.492   5.195 -1.3566  0.4664  1.0138
  116OSM   C13S12082   0.725   0.336   5.123 -0.2528  0.1298 -0.2595
  116OSM   H13S12083   0.754   0.371   5.022  1.0528  0.6879  0.2901
  116OSM   H13T12084   0.642   0.395   5.170  1.8099  1.0868  2.4886
  116OSM   C14S12085   0.697   0.191   5.124 -0.1754  0.2501 -0.0201
  116OSM   H14S12086   0.641   0.176   5.218 -2.3356  2.7418 -0.8121
  116OSM   H14T12087   0.789   0.129   5.123 -0.4533 -0.1584 -1.2352
  116OSM   C15S12088   0.616   0.145   4.999  0.2518 -0.0188 -0.9230
  116OSM   H15S12089   0.522   0.203   4.991  0.5219  1.3714  3.2230
  116OSM   H15T12090   0.590   0.038   5.016  1.4698 -0.4186 -1.4400
  116OSM   C16S12091   0.706   0.154   4.877  0.2238 -0.0783 -0.8104
  116OSM   H16S12092   0.794   0.087   4.892  0.0647 -0.0149  0.5502
  116OSM   H16T12093   0.737   0.260   4.870 -1.6378  0.7097  1.4339
  116OSM   C17S12094   0.646   0.099   4.752  0.2423 -0.5889 -0.0059
  116OSM   H17S12095   0.631  -0.011   4.755 -0.5692 -0.5237 -0.9169
  116OSM   H17T12096   0.717   0.118   4.669 -1.3426 -0.8902 -1.5027
  116OSM   C18S12097   0.527   0.177   4.702 -0.2434  0.1890 -0.2610
  116OSM   H18S12098   0.447   0.181   4.779 -2.2169 -0.9251 -2.1448
  116OSM   H18T12099   0.503   0.125   4.606  0.3596  0.0959 -0.3675
  116OSM   H18U12100   0.560   0.279   4.674  0.2157  0.0860 -0.1044
  116OSM    C1F12101   0.226   0.605   6.369  0.0655  0.1915  0.1266
  116OSM     OF12102   0.283   0.706   6.424 -0.0476  0.4614  0.9096
  116OSM    C2F12103   0.081   0.615   6.350 -0.0403 -0.9540  0.0668
  116OSM    H2F12104   0.047   0.677   6.436  0.7652 -1.5300  0.8190
  116OSM    H2G12105   0.028   0.518   6.355 -4.3569  1.1699  0.2639
  116OSM    C3F12106   0.035   0.689   6.217  0.2660 -0.2584 -0.1829
  116OSM    H3F12107   0.088   0.786   6.220  1.5115 -0.8953 -0.7670
  116OSM    H3G12108  -0.071   0.718   6.204 -0.0801 -1.2047  0.4300
  116OSM    C4F12109   0.080   0.617   6.089  0.2257 -0.2657  0.5787
  116OSM    H4F12110   0.040   0.514   6.094  0.7025 -0.5042 -0.3795
  116OSM    H4G12111   0.190   0.603   6.101  0.5744  1.2757 -0.5931
  116OSM    C5F12112   0.028   0.682   5.961 -0.4417  0.4532 -0.0635
  116OSM    H5F12113   0.057   0.789   5.966 -2.4897  0.9984  2.7814
  116OSM    H5G12114  -0.081   0.668   5.942 -1.1477  1.6116  2.6172
  116OSM    C6F12115   0.113   0.618   5.848 -0.0233  0.0517 -0.5530
  116OSM    H6F12116   0.081   0.512   5.847 -0.8496  0.2754  0.5035
  116OSM    H6G12117   0.214   0.644   5.886 -0.3551  0.1046  0.3237
  116OSM    C7F12118   0.089   0.685   5.712  0.7660 -0.2568  0.4241
  116OSM    H7F12119  -0.009   0.734   5.727  0.6621 -0.1255 -0.6307
  116OSM    H7G12120   0.064   0.614   5.631 -1.1321  2.5105 -1.5609
  116OSM    C8F12121   0.194   0.787   5.676  0.1905  0.8019 -0.1613
  116OSM    H8F12122   0.218   0.856   5.759 -2.8411  1.0465  0.6036
  116OSM    H8G12123   0.164   0.858   5.595  2.5207  2.0677  0.0003
  116OSM    C9F12124   0.324   0.722   5.643 -0.0024  0.3568  0.3709
  116OSM    H9F12125   0.387   0.700   5.730  1.9447  3.9168  0.0273
  116OSM   C10F12126   0.371   0.691   5.519 -0.1766 -0.3613  0.6161
  116OSM   H10F12127   0.470   0.646   5.504 -0.8680 -1.3555 -1.3631
  116OSM   C11F12128   0.287   0.719   5.392 -1.0584  0.2811 -0.0439
  116OSM   H11F12129   0.192   0.773   5.414 -1.8452  0.0787 -2.5920
  116OSM   H11G12130   0.270   0.626   5.334  2.8706 -2.3010  2.4702
  116OSM   C12F12131   0.368   0.810   5.295  0.3222  0.0156  0.6243
  116OSM   H12F12132   0.435   0.742   5.239  0.1552 -0.4735  1.0203
  116OSM   H12G12133   0.434   0.881   5.350  1.8917 -1.2146  0.3907
  116OSM   C13F12134   0.270   0.885   5.198 -0.0420 -0.9032 -0.0608
  116OSM   H13F12135   0.214   0.961   5.257 -1.6702 -0.5788 -1.9117
  116OSM   H13G12136   0.193   0.814   5.162 -1.5620  0.3224  0.6511
  116OSM   C14F12137   0.347   0.952   5.085  0.0924 -0.1819  0.3827
  116OSM   H14F12138   0.396   0.875   5.022 -1.5437 -1.3039  0.4330
  116OSM   H14G12139   0.423   1.026   5.120  0.4978  0.6482 -2.0322
  116OSM   C15F12140   0.251   1.027   4.991  0.2511 -0.6069  0.1762
  116OSM   H15F12141   0.172   1.083   5.046  0.3697 -1.0584  0.8230
  116OSM   H15G12142   0.199   0.949   4.932 -2.5197  1.0404  0.2417
  116OSM   C16F12143   0.325   1.116   4.889  0.3546 -0.6064  0.3575
  116OSM   H16F12144   0.423   1.065   4.872  0.5481  0.2491 -1.2908
  116OSM   H16G12145   0.348   1.209   4.945 -0.3214  1.3800 -2.4245
  116OSM   C17F12146   0.234   1.160   4.768 -0.4420 -0.0626 -0.1108
  116OSM   H17F12147   0.136   1.201   4.800 -0.6215 -0.1240 -0.5723
  116OSM   H17G12148   0.210   1.070   4.708  1.2075  0.5675 -1.8110
  116OSM   C18F12149   0.300   1.252   4.666  0.7283  0.8454 -0.4392
  116OSM   H18F12150   0.238   1.259   4.574 -1.5618 -1.0175  0.8447
  116OSM   H18G12151   0.399   1.216   4.632  1.7281  0.5107  2.5625
  116OSM   H18H12152   0.312   1.353   4.711 -0.2436 -0.2575  2.5357
  117OSM      N12153   5.867   2.129   6.962 -0.0550  0.7907  0.1766
  117OSM    C1512154   5.755   2.223   7.006 -0.5408 -0.6264  0.0096
  117OSM   H15A12155   5.786   2.325   6.988 -0.4886 -0.7827 -0.8081
  117OSM   H15B12156   5.737   2.211   7.112  1.5290  1.0295  0.6128
  117OSM   H15C12157   5.663   2.196   6.956  0.0808  0.8102 -2.0707
  117OSM    C1412158   5.970   2.105   7.070 -0.1446  0.3009 -0.3906
  117OSM   H14A12159   5.918   2.058   7.153 -1.4271  1.0980 -0.7137
  117OSM   H14B12160   6.009   2.199   7.104  2.9681 -0.2760 -2.0536
  117OSM   H14C12161   6.053   2.043   7.040 -0.5109  0.5540 -2.0094
  117OSM    C1312162   5.783   2.011   6.939 -0.5716  0.4395 -0.3999
  117OSM   H13A12163   5.705   2.026   6.866 -1.0636 -1.5487 -0.3477
  117OSM   H13B12164   5.733   1.988   7.033  0.7080 -0.9335 -0.0236
  117OSM   H13C12165   5.838   1.929   6.897  0.2159 -0.7016  2.5662
  117OSM    C1212166   5.923   2.171   6.835 -0.1578  0.9058  0.3603
  117OSM   H12A12167   5.938   2.277   6.826 -1.4628  1.0092 -1.2470
  117OSM   H12B12168   5.839   2.155   6.769 -0.7273 -0.0420  1.2743
  117OSM    C1112169   6.061   2.107   6.785  0.0913  0.6875 -0.3527
  117OSM   H11A12170   6.070   2.128   6.676 -0.2544  0.2003 -0.4804
  117OSM   H11B12171   6.048   1.997   6.801 -0.9494  0.8868  0.2842
  117OSM      P12172   6.233   2.302   6.837 -0.1298  0.0404 -0.4079
  117OSM    O1312173   6.131   2.399   6.867  0.7605  0.0925 -0.0341
  117OSM    O1412174   6.357   2.304   6.920  0.0710  0.9043 -0.0054
  117OSM    O1112175   6.271   2.327   6.682  0.0393 -0.4357 -0.2989
  117OSM    O1212176   6.176   2.156   6.850  0.2490 -0.1191  0.3538
  117OSM    C1S12177   6.359   2.234   6.614  0.6780  0.5411  0.8154
  117OSM    H1S12178   6.314   2.133   6.606  0.4350  0.6228  1.1340
  117OSM    H1T12179   6.454   2.219   6.670  0.6934  2.5553  1.4139
  117OSM     NF12180   6.430   2.177   6.382  0.1228 -0.2298 -0.5859
  117OSM    HNF12181   6.525   2.174   6.354  0.2509 -0.6998 -0.1113
  117OSM    C2S12182   6.383   2.280   6.473 -0.2759 -0.1921  0.5730
  117OSM    H2S12183   6.280   2.301   6.436 -0.4750  1.8905  2.1073
  117OSM    C3S12184   6.466   2.407   6.473 -1.0775 -0.7696 -0.1286
  117OSM    H3S12185   6.565   2.380   6.516 -1.4284 -1.4687  0.2606
  117OSM     O312186   6.404   2.515   6.554  0.0859  0.0035  0.2323
  117OSM    HO312187   6.322   2.472   6.580  0.5136 -0.3676  1.0009
  117OSM    C4S12188   6.490   2.460   6.331 -0.8585 -1.0358  0.0546
  117OSM    H4S12189   6.598   2.462   6.310 -1.0258  3.7848 -1.6746
  117OSM    C5S12190   6.398   2.518   6.253  0.1091  0.0333 -0.0049
  117OSM    H5S12191   6.292   2.511   6.279 -0.7285 -0.2002 -3.0903
  117OSM    C6S12192   6.413   2.575   6.110 -0.4651  0.3027 -0.4819
  117OSM    H6S12193   6.521   2.591   6.089 -0.3294  1.8904  1.1845
  117OSM    H6T12194   6.359   2.669   6.087 -0.0023  0.2850 -1.7050
  117OSM    C7S12195   6.342   2.451   6.036  0.3356 -0.9247 -0.2973
  117OSM    H7S12196   6.249   2.415   6.086 -1.2716  1.4136 -1.4100
  117OSM    H7T12197   6.408   2.362   6.047  0.4481 -0.9911 -1.4135
  117OSM    C8S12198   6.317   2.491   5.887 -0.0060  0.2714 -0.5194
  117OSM    H8S12199   6.415   2.479   5.836  1.2885 -0.7244  2.0430
  117OSM    H8T12200   6.282   2.596   5.878  0.2699  0.4473  0.3138
  117OSM    C9S12201   6.216   2.399   5.823 -1.0693  0.1772 -0.0730
  117OSM    H9S12202   6.110   2.419   5.846 -1.2854 -0.8488 -0.1685
  117OSM    H9T12203   6.240   2.297   5.859 -0.7702  1.1421  2.7842
  117OSM   C10S12204   6.232   2.398   5.668  0.8685 -0.6791  0.4957
  117OSM   H10S12205   6.336   2.372   5.640  0.6765  1.1014 -2.2427
  117OSM   H10T12206   6.210   2.498   5.626 -0.8209 -2.1618 -2.4112
  117OSM   C11S12207   6.139   2.299   5.602  0.7826 -0.0752  0.1273
  117OSM   H11S12208   6.037   2.341   5.613  0.7000  0.3791 -1.8543
  117OSM   H11T12209   6.139   2.195   5.639 -0.5087 -0.8736 -1.9253
  117OSM   C12S12210   6.166   2.282   5.446 -0.0279  0.5924  0.9125
  117OSM   H12S12211   6.122   2.181   5.431 -0.3563  0.6071  1.7194
  117OSM   H12T12212   6.274   2.275   5.423 -0.3928  0.5826 -0.9381
  117OSM   C13S12213   6.100   2.376   5.350  0.4009  0.7343  0.2675
  117OSM   H13S12214   6.155   2.471   5.328  1.7269 -0.6013 -2.8404
  117OSM   H13T12215   6.002   2.403   5.395 -1.0439 -0.6873 -1.8026
  117OSM   C14S12216   6.060   2.323   5.215 -0.2848 -0.2908  0.6049
  117OSM   H14S12217   5.993   2.403   5.176  1.0732 -0.9736 -3.6009
  117OSM   H14T12218   6.012   2.224   5.231  0.7762 -1.1700 -1.3114
  117OSM   C15S12219   6.177   2.297   5.124 -0.2299  0.1593  0.6972
  117OSM   H15S12220   6.262   2.243   5.171 -0.2039 -1.0512 -0.6398
  117OSM   H15T12221   6.226   2.387   5.081  0.6232 -1.2645 -1.4995
  117OSM   C16S12222   6.131   2.220   4.999 -0.6021 -0.0822  0.2384
  117OSM   H16S12223   6.074   2.128   5.022 -0.3045 -1.2167 -3.0717
  117OSM   H16T12224   6.221   2.187   4.943 -0.0888  2.1565 -0.3890
  117OSM   C17S12225   6.043   2.308   4.907  0.1778 -0.7849  0.6923
  117OSM   H17S12226   5.954   2.339   4.966 -1.5800 -2.8890 -0.6997
  117OSM   H17T12227   6.003   2.238   4.831  0.1783 -1.6091  1.4254
  117OSM   C18S12228   6.109   2.430   4.843 -0.1715  0.4311  0.1029
  117OSM   H18S12229   6.138   2.509   4.916  0.5141  0.5751 -0.3201
  117OSM   H18T12230   6.027   2.474   4.783  0.6025  1.0996 -0.4875
  117OSM   H18U12231   6.189   2.407   4.769 -2.2934 -2.5259 -1.4460
  117OSM    C1F12232   6.354   2.072   6.345 -0.7564  0.5635  0.1558
  117OSM     OF12233   6.244   2.047   6.395  0.3896  0.4022  0.3527
  117OSM    C2F12234   6.417   1.982   6.235  0.4199 -0.8476 -1.2798
  117OSM    H2F12235   6.486   1.915   6.291  1.5075  0.4329 -1.0149
  117OSM    H2G12236   6.473   2.048   6.165 -0.5938  1.0419 -0.4009
  117OSM    C3F12237   6.316   1.891   6.163  0.4214 -0.5537 -0.1816
  117OSM    H3F12238   6.231   1.946   6.116 -1.4448 -1.1076  2.3510
  117OSM    H3G12239   6.270   1.820   6.235  2.1866 -0.3546  1.2214
  117OSM    C4F12240   6.380   1.801   6.055  0.0743  0.5101 -0.2499
  117OSM    H4F12241   6.290   1.749   6.017 -0.1026  0.5494  0.1115
  117OSM    H4G12242   6.448   1.728   6.104 -1.2278 -2.4684 -2.5650
  117OSM    C5F12243   6.456   1.883   5.954 -0.1534 -0.0744 -0.2149
  117OSM    H5F12244   6.508   1.819   5.878  1.8474 -0.5436  1.4658
  117OSM    H5G12245   6.538   1.935   6.007  0.5127 -1.0074 -0.2902
  117OSM    C6F12246   6.358   1.974   5.880  0.9292 -0.7892  0.0521
  117OSM    H6F12247   6.360   2.070   5.937 -2.1107 -1.4491  1.4633
  117OSM    H6G12248   6.259   1.929   5.900  1.6058 -2.2921  0.1865
  117OSM    C7F12249   6.380   1.994   5.732  1.1681  0.0078  0.5698
  117OSM    H7F12250   6.478   2.040   5.709  0.6664 -0.5673 -3.5827
  117OSM    H7G12251   6.315   2.072   5.686  1.9955  0.1768 -0.3283
  117OSM    C8F12252   6.356   1.866   5.645 -1.3489  0.4971 -0.5470
  117OSM    H8F12253   6.441   1.802   5.675 -2.7767 -1.0497  0.3965
  117OSM    H8G12254   6.371   1.902   5.541  0.8720  2.3597  0.3344
  117OSM    C9F12255   6.227   1.791   5.669  0.0564 -0.2285  0.1169
  117OSM    H9F12256   6.212   1.759   5.773  4.3897 -4.9217 -0.3086
  117OSM   C10F12257   6.145   1.747   5.574  0.1943 -0.4267 -0.2018
  117OSM   H10F12258   6.060   1.680   5.598  0.1087  0.0385  0.8237
  117OSM   C11F12259   6.172   1.762   5.436  0.1636  0.0619  0.1924
  117OSM   H11F12260   6.245   1.686   5.400 -0.8631 -0.8839  0.0730
  117OSM   H11G12261   6.227   1.857   5.416  1.0646 -0.2973  0.8759
  117OSM   C12F12262   6.050   1.743   5.347  0.8672 -0.1026  0.0924
  117OSM   H12F12263   5.975   1.820   5.376  2.3170  1.0655  0.8508
  117OSM   H12G12264   6.017   1.638   5.360 -0.2838  0.2089 -0.1921
  117OSM   C13F12265   6.070   1.766   5.195 -0.2846 -0.6874 -0.4591
  117OSM   H13F12266   6.147   1.695   5.160  0.8052 -0.4091  1.2545
  117OSM   H13G12267   6.121   1.864   5.185 -0.4881 -0.4931  0.3253
  117OSM   C14F12268   5.941   1.757   5.112 -0.4294  0.0137  0.4847
  117OSM   H14F12269   5.859   1.822   5.150 -0.6669 -0.3480  0.5979
  117OSM   H14G12270   5.898   1.655   5.114 -1.1177  0.1047 -2.9897
  117OSM   C15F12271   5.963   1.781   4.963 -0.2955  0.3829 -0.0790
  117OSM   H15F12272   6.047   1.717   4.929  1.0671  2.7456 -1.4050
  117OSM   H15G12273   5.985   1.885   4.931  2.6830 -0.1762 -0.1063
  117OSM   C16F12274   5.835   1.727   4.884 -0.0540 -0.0576 -0.1738
  117OSM   H16F12275   5.761   1.809   4.892  0.5283  0.5314 -0.7427
  117OSM   H16G12276   5.785   1.637   4.926 -0.0681 -0.1847 -0.4638
  117OSM   C17F12277   5.864   1.701   4.742  0.1164  0.3159  0.0463
  117OSM   H17F12278   5.937   1.617   4.742  0.3520  0.5174  0.5511
  117OSM   H17G12279   5.911   1.789   4.693  1.7886  0.0242  1.0432
  117OSM   C18F12280   5.739   1.652   4.665  0.3002 -0.3119  0.5689
  117OSM   H18F12281   5.643   1.698   4.699  1.7545  1.7726  2.0950
  117OSM   H18G12282   5.725   1.547   4.697  2.8902 -0.9652 -0.2501
  117OSM   H18H12283   5.769   1.656   4.558 -2.0336 -2.2216 -0.2449
  118OSM      N12284   5.452   0.881   7.151 -0.1629 -0.0642 -0.1378
  118OSM    C1512285   5.495   0.752   7.092  0.6619 -0.2129 -0.0749
  118OSM   H15A12286   5.448   0.673   7.149  2.9924 -1.4817  0.2557
  118OSM   H15B12287   5.602   0.735   7.087  0.8755  1.3178 -1.1770
  118OSM   H15C12288   5.464   0.755   6.989 -1.6482  2.3081  0.5984
  118OSM    C1412289   5.483   0.872   7.302  0.4902  0.9702 -0.7773
  118OSM   H14A12290   5.428   0.791   7.347  0.6870  0.0625 -2.0927
  118OSM   H14B12291   5.458   0.967   7.347  1.0311 -0.1819  2.1463
  118OSM   H14C12292   5.589   0.856   7.317  0.7141  0.0907 -2.9220
  118OSM    C1312293   5.536   0.994   7.094  0.0953 -0.3562 -0.3862
  118OSM   H13A12294   5.643   0.982   7.098  0.0605 -1.0306 -1.1570
  118OSM   H13B12295   5.517   1.079   7.158  3.1332 -0.4553  0.8069
  118OSM   H13C12296   5.501   1.017   6.995  1.0870 -1.6939 -1.0865
  118OSM    C1212297   5.303   0.905   7.121  0.5629  0.5152  0.6412
  118OSM   H12A12298   5.277   0.999   7.168  1.4606 -0.0054  2.2592
  118OSM   H12B12299   5.239   0.828   7.163 -0.1542 -0.0922 -1.4669
  118OSM    C1112300   5.256   0.895   6.972 -0.1999  0.7867  0.0391
  118OSM   H11A12301   5.145   0.886   6.972 -0.1588 -0.1826  1.8938
  118OSM   H11B12302   5.298   0.798   6.939  0.9474  1.4772 -0.5993
  118OSM      P12303   5.240   1.136   6.862 -0.3738 -0.1635 -0.1594
  118OSM    O1312304   5.111   1.142   6.935  0.3308  0.2708 -0.4932
  118OSM    O1412305   5.334   1.244   6.895  0.3384 -0.2165 -0.5094
  118OSM    O1112306   5.226   1.141   6.706 -0.0565 -0.1037 -0.3490
  118OSM    O1212307   5.321   0.999   6.899 -0.0270 -0.7653  0.3306
  118OSM    C1S12308   5.310   1.063   6.622  0.2716 -0.1591 -0.3603
  118OSM    H1S12309   5.322   0.958   6.654 -1.4094 -0.2153  0.1740
  118OSM    H1T12310   5.416   1.094   6.612  0.1261  0.2186 -0.7976
  118OSM     NF12311   5.319   0.946   6.409  0.1465 -0.2112 -0.2879
  118OSM    HNF12312   5.392   0.974   6.347  0.3117 -1.8601 -0.8751
  118OSM    C2S12313   5.253   1.062   6.476 -0.2691  0.3124  0.2439
  118OSM    H2S12314   5.144   1.039   6.473  0.3319 -2.9702 -0.1706
  118OSM    C3S12315   5.294   1.195   6.412  0.1376 -0.4473  0.2008
  118OSM    H3S12316   5.404   1.204   6.424  0.2279 -0.8017 -0.3607
  118OSM     O312317   5.261   1.321   6.470 -0.2291 -0.3066  0.0567
  118OSM    HO312318   5.224   1.302   6.557  0.4681 -0.0602  0.4145
  118OSM    C4S12319   5.251   1.197   6.266  0.2742 -0.0939  0.2573
  118OSM    H4S12320   5.145   1.169   6.252  0.4867  0.0536 -2.2785
  118OSM    C5S12321   5.334   1.201   6.162  0.7532  0.1394 -0.5406
  118OSM    H5S12322   5.440   1.218   6.187  0.5015 -0.5284  1.0961
  118OSM    C6S12323   5.292   1.201   6.021 -0.9002 -0.4678  0.4936
  118OSM    H6S12324   5.243   1.106   5.991  2.3522 -2.3355  0.6708
  118OSM    H6T12325   5.375   1.201   5.947 -2.7910 -1.5569 -1.7901
  118OSM    C7S12326   5.201   1.315   5.969  0.2465 -0.2429 -0.1561
  118OSM    H7S12327   5.248   1.412   5.995 -0.9700  0.8274 -1.7713
  118OSM    H7T12328   5.106   1.305   6.026  0.3411 -3.8428 -0.4089
  118OSM    C8S12329   5.173   1.325   5.822  0.3718 -0.2088  0.6392
  118OSM    H8S12330   5.273   1.324   5.774  0.9058  0.6179  1.6907
  118OSM    H8T12331   5.129   1.426   5.816 -2.0782 -1.0284  2.6300
  118OSM    C9S12332   5.083   1.212   5.757 -0.1455  0.2000 -0.1164
  118OSM    H9S12333   4.976   1.234   5.776 -0.3783 -2.8036  3.0842
  118OSM    H9T12334   5.087   1.113   5.806 -1.1052  0.8748  1.4027
  118OSM   C10S12335   5.122   1.211   5.614  0.2167 -0.0521 -0.2723
  118OSM   H10S12336   5.086   1.117   5.567  0.7895 -0.7832  0.7049
  118OSM   H10T12337   5.232   1.204   5.598  0.3082 -1.1080  0.6596
  118OSM   C11S12338   5.074   1.329   5.526 -0.3795 -0.3757 -0.1749
  118OSM   H11S12339   5.102   1.422   5.580  0.0697 -1.6501  1.8631
  118OSM   H11T12340   4.963   1.335   5.519 -0.4701 -0.8339  0.8198
  118OSM   C12S12341   5.143   1.320   5.385  0.2616  0.3124  0.1340
  118OSM   H12S12342   5.132   1.215   5.351 -0.3746  0.4107  0.0308
  118OSM   H12T12343   5.252   1.339   5.393  0.1820  1.0374 -0.4102
  118OSM   C13S12344   5.086   1.414   5.278  0.6407  0.1251 -0.6176
  118OSM   H13S12345   5.120   1.519   5.290 -1.2544  0.8956 -1.4291
  118OSM   H13T12346   4.976   1.425   5.293  0.8303  1.2167  0.0044
  118OSM   C14S12347   5.116   1.374   5.132  0.0431  0.0934  1.0691
  118OSM   H14S12348   5.111   1.265   5.111  0.6874  0.3111 -0.3382
  118OSM   H14T12349   5.224   1.398   5.122 -0.1165 -0.0061 -1.5113
  118OSM   C15S12350   5.048   1.461   5.022 -0.0779 -0.1049  0.1017
  118OSM   H15S12351   5.097   1.559   5.006  0.3887 -0.4116 -0.3987
  118OSM   H15T12352   4.947   1.472   5.066 -0.7184 -1.9190 -0.8211
  118OSM   C16S12353   5.044   1.385   4.886  0.1064 -0.4457 -0.0456
  118OSM   H16S12354   4.970   1.302   4.889 -0.6776  0.1339 -2.0791
  118OSM   H16T12355   5.145   1.349   4.860 -1.1797 -1.4612 -4.5563
  118OSM   C17S12356   4.999   1.484   4.778 -0.5925  0.2085  0.1072
  118OSM   H17S12357   5.019   1.435   4.680 -0.2987 -0.4825  0.5095
  118OSM   H17T12358   5.072   1.566   4.759 -0.6716  0.0235 -1.0542
  118OSM   C18S12359   4.855   1.535   4.793  0.3491  0.3694 -0.6710
  118OSM   H18S12360   4.785   1.450   4.803 -0.4961  0.8749 -2.1241
  118OSM   H18T12361   4.825   1.600   4.708  1.7971  1.4019 -0.4427
  118OSM   H18U12362   4.831   1.579   4.892  1.1989  0.2382 -0.3960
  118OSM    C1F12363   5.282   0.822   6.431 -0.3204 -0.3491  0.4525
  118OSM     OF12364   5.184   0.796   6.498  0.0105  0.1341 -0.9176
  118OSM    C2F12365   5.359   0.709   6.367 -0.2038  0.2683 -0.6169
  118OSM    H2F12366   5.393   0.637   6.444  0.4578  0.8910 -0.3148
  118OSM    H2G12367   5.454   0.753   6.329  1.2303 -1.8792  0.3192
  118OSM    C3F12368   5.291   0.633   6.251 -0.3383 -0.3510  0.4434
  118OSM    H3F12369   5.192   0.607   6.294 -1.4955  1.9216 -0.6558
  118OSM    H3G12370   5.338   0.533   6.244 -0.2417 -0.2520 -0.4103
  118OSM    C4F12371   5.273   0.714   6.124  0.1239  0.8525 -0.3433
  118OSM    H4F12372   5.366   0.719   6.063  0.8245  1.5602  0.7680
  118OSM    H4G12373   5.227   0.808   6.160  1.2534  0.7207  1.5812
  118OSM    C5F12374   5.155   0.654   6.047 -0.6381 -0.3653 -0.0256
  118OSM    H5F12375   5.060   0.652   6.105  0.1096 -1.2746  1.2298
  118OSM    H5G12376   5.178   0.554   6.005 -0.3840 -0.4177  0.2391
  118OSM    C6F12377   5.125   0.732   5.924 -0.0208  0.0184  0.3251
  118OSM    H6F12378   5.216   0.731   5.860  1.5767  0.6801  2.4724
  118OSM    H6G12379   5.110   0.836   5.961 -0.4332 -0.0881  0.4687
  118OSM    C7F12380   5.008   0.683   5.836  0.0728  0.5456  0.6920
  118OSM    H7F12381   4.924   0.688   5.908 -0.2849 -1.8679  0.5190
  118OSM    H7G12382   5.028   0.575   5.817  1.3406  0.9263 -0.2337
  118OSM    C8F12383   4.987   0.771   5.710  0.1951 -0.0097  0.2987
  118OSM    H8F12384   4.971   0.880   5.729  0.1304 -0.3210  2.1873
  118OSM    H8G12385   4.888   0.734   5.677 -0.9960  2.4302  0.8556
  118OSM    C9F12386   5.106   0.763   5.616  0.2683 -0.6175 -0.2897
  118OSM    H9F12387   5.202   0.798   5.656 -0.6267 -0.0800  1.4761
  118OSM   C10F12388   5.111   0.732   5.484  0.0347  1.0659 -0.2897
  118OSM   H10F12389   5.211   0.722   5.438 -0.2963  0.5488 -0.9055
  118OSM   C11F12390   5.000   0.691   5.392  0.0812 -0.4237  0.1652
  118OSM   H11F12391   4.897   0.708   5.429 -0.3679 -1.4687 -0.5647
  118OSM   H11G12392   4.992   0.584   5.363  0.1965 -0.4376  0.1847
  118OSM   C12F12393   5.017   0.763   5.261  0.0020  0.4716  0.7178
  118OSM   H12F12394   4.945   0.717   5.190  0.0400 -0.1513  1.0695
  118OSM   H12G12395   5.118   0.750   5.217 -0.8985  0.0843 -1.3691
  118OSM   C13F12396   4.988   0.917   5.255  0.3670  0.5003 -0.1968
  118OSM   H13F12397   5.080   0.966   5.294 -0.6855  3.0483 -0.6794
  118OSM   H13G12398   4.906   0.936   5.328  0.1904 -1.5508  0.1938
  118OSM   C14F12399   4.953   0.972   5.120 -0.0915  0.4883 -0.4111
  118OSM   H14F12400   4.952   1.082   5.138  0.5421  0.1155  2.2534
  118OSM   H14G12401   4.850   0.940   5.091 -0.1006  1.2337 -1.2591
  118OSM   C15F12402   5.053   0.939   5.013 -0.5820  0.5557 -0.7444
  118OSM   H15F12403   5.057   0.828   5.017 -4.3580  0.0990 -3.7026
  118OSM   H15G12404   5.146   0.996   5.037 -0.0622  0.1446 -1.7191
  118OSM   C16F12405   5.018   0.982   4.862 -0.3072 -0.0203 -0.4269
  118OSM   H16F12406   5.025   1.093   4.870  1.8258 -0.2391  1.8403
  118OSM   H16G12407   4.912   0.954   4.841 -1.0755  0.0185  2.8786
  118OSM   C17F12408   5.107   0.911   4.767 -0.4894  0.5312  0.3620
  118OSM   H17F12409   5.100   0.801   4.777  0.0918  0.4998  0.4738
  118OSM   H17G12410   5.213   0.936   4.792 -0.8995 -0.2580  3.2314
  118OSM   C18F12411   5.072   0.934   4.623 -0.0932 -0.1135 -0.1629
  118OSM   H18F12412   5.087   1.042   4.602  3.0914 -0.4739 -0.2144
  118OSM   H18G12413   4.966   0.903   4.604  0.3862 -0.8897 -1.7449
  118OSM   H18H12414   5.142   0.876   4.559  0.3804 -1.7788  1.7732
  119OSM      N12415   1.354   4.314   6.869  0.0202  0.1501 -0.5838
  119OSM    C1512416   1.480   4.270   6.936  0.0775  0.0215 -0.8021
  119OSM   H15A12417   1.562   4.338   6.947 -0.7036  0.5359  3.3481
  119OSM   H15B12418   1.514   4.179   6.890  1.2734 -0.2125  0.4899
  119OSM   H15C12419   1.455   4.241   7.037  1.7231 -0.8081 -0.6066
  119OSM    C1412420   1.246   4.222   6.884  0.6160  0.6225 -0.6948
  119OSM   H14A12421   1.148   4.264   6.865 -0.3569 -1.0914  0.3302
  119OSM   H14B12422   1.244   4.179   6.982  2.4799 -0.9674 -1.2940
  119OSM   H14C12423   1.255   4.138   6.817 -2.0043 -1.5565  1.4571
  119OSM    C1312424   1.325   4.437   6.951 -0.7840 -0.3615  0.8308
  119OSM   H13A12425   1.403   4.509   6.936 -1.8987  0.7245  0.0260
  119OSM   H13B12426   1.321   4.399   7.052  0.1166 -1.4369  0.4747
  119OSM   H13C12427   1.231   4.483   6.922 -0.5063  1.4517  2.6002
  119OSM    C1212428   1.385   4.351   6.721  0.8551  0.3400  0.2245
  119OSM   H12A12429   1.298   4.391   6.672  2.2094  2.6514 -0.4840
  119OSM   H12B12430   1.416   4.258   6.676  0.9793  1.4939 -2.2142
  119OSM    C1112431   1.511   4.444   6.694  1.0167  0.7634  0.4579
  119OSM   H11A12432   1.520   4.443   6.583  0.1588 -0.1402  0.3859
  119OSM   H11B12433   1.611   4.402   6.720  0.7777 -0.4304 -0.4688
  119OSM      P12434   1.409   4.680   6.672 -0.2181 -0.4071 -0.0099
  119OSM    O1312435   1.271   4.630   6.683 -0.0326 -0.1357 -0.4483
  119OSM    O1412436   1.449   4.803   6.741  0.8235 -0.6207  0.1211
  119OSM    O1112437   1.451   4.670   6.511  0.2682 -0.1854  0.0635
  119OSM    O1212438   1.503   4.576   6.743 -0.1111  0.3617  0.0439
  119OSM    C1S12439   1.580   4.697   6.473 -0.3372 -0.7523 -0.5507
  119OSM    H1S12440   1.652   4.632   6.527 -3.0307 -3.0383  0.5375
  119OSM    H1T12441   1.605   4.802   6.500 -0.9409 -0.1831 -2.1443
  119OSM     NF12442   1.740   4.741   6.296  0.0356  0.3007  0.3993
  119OSM    HNF12443   1.745   4.840   6.282  1.8483  0.7288  3.3827
  119OSM    C2S12444   1.610   4.682   6.322 -0.1122  0.2966 -0.4354
  119OSM    H2S12445   1.618   4.575   6.293  1.3990  0.3759 -0.3724
  119OSM    C3S12446   1.493   4.737   6.238  0.2519  0.1047  0.3262
  119OSM    H3S12447   1.474   4.845   6.258 -1.8115 -0.3094  0.8712
  119OSM     O312448   1.359   4.686   6.261 -0.0922 -0.0449  0.0022
  119OSM    HO312449   1.372   4.682   6.357 -0.2053 -0.6496 -0.0062
  119OSM    C4S12450   1.530   4.729   6.088 -0.2211  0.3686 -0.1098
  119OSM    H4S12451   1.609   4.802   6.065  2.6861 -1.6456  2.5722
  119OSM    C5S12452   1.491   4.643   5.994  0.3601  0.4318 -0.5707
  119OSM    H5S12453   1.415   4.569   6.022  2.0953 -1.3446 -0.2910
  119OSM    C6S12454   1.542   4.631   5.853 -0.1314  0.4269 -0.0316
  119OSM    H6S12455   1.555   4.527   5.818 -0.4934 -0.2739  1.7845
  119OSM    H6T12456   1.635   4.690   5.835  0.9872 -0.5798  2.0139
  119OSM    C7S12457   1.431   4.688   5.756 -0.0639  0.7586 -0.5254
  119OSM    H7S12458   1.416   4.796   5.774 -1.0969  0.6000 -0.4230
  119OSM    H7T12459   1.334   4.637   5.772  0.6476 -0.9737 -1.4382
  119OSM    C8S12460   1.471   4.680   5.606  0.7009 -0.4368  0.0022
  119OSM    H8S12461   1.440   4.580   5.570 -3.3053 -0.1893  2.2018
  119OSM    H8T12462   1.581   4.697   5.598  0.4917  0.1738 -2.2453
  119OSM    C9S12463   1.402   4.786   5.523  0.5366  0.2278 -0.3227
  119OSM    H9S12464   1.434   4.884   5.564 -0.1826  0.4849 -0.3543
  119OSM    H9T12465   1.291   4.783   5.522  0.5306  0.4289 -0.2729
  119OSM   C10S12466   1.440   4.775   5.371 -0.6665 -0.0612  0.3742
  119OSM   H10S12467   1.550   4.781   5.360 -0.6352 -0.7856  0.2850
  119OSM   H10T12468   1.397   4.866   5.322 -2.2533 -0.9175  0.0980
  119OSM   C11S12469   1.376   4.654   5.302 -0.2373 -0.6237  0.2698
  119OSM   H11S12470   1.274   4.639   5.342  0.7053 -2.3658  2.1981
  119OSM   H11T12471   1.413   4.555   5.335 -1.3880 -0.7917  1.0882
  119OSM   C12S12472   1.386   4.659   5.149  0.7417  0.7976 -0.3639
  119OSM   H12S12473   1.357   4.758   5.109 -0.7293 -0.6228 -3.1187
  119OSM   H12T12474   1.317   4.583   5.106  2.9189 -1.4490 -0.1330
  119OSM   C13S12475   1.529   4.617   5.104  0.5746 -1.6094 -0.0788
  119OSM   H13S12476   1.542   4.509   5.128 -0.2807 -2.1491 -1.8554
  119OSM   H13T12477   1.597   4.678   5.167  0.9383  0.1121 -2.0629
  119OSM   C14S12478   1.559   4.656   4.965  0.1876  0.0822 -0.6180
  119OSM   H14S12479   1.597   4.760   4.957 -1.5157  0.7140 -0.8890
  119OSM   H14T12480   1.463   4.656   4.910  0.1780  0.7535 -0.6159
  119OSM   C15S12481   1.651   4.549   4.907 -0.2392 -0.3515  0.0151
  119OSM   H15S12482   1.602   4.451   4.925  0.3701 -0.4214  1.3911
  119OSM   H15T12483   1.756   4.555   4.943  0.6850  1.4073 -2.6530
  119OSM   C16S12484   1.669   4.561   4.754 -0.2424  0.1462 -0.7347
  119OSM   H16S12485   1.571   4.549   4.703 -0.0929  1.9969 -1.5493
  119OSM   H16T12486   1.730   4.475   4.719 -1.0965 -0.6493 -0.3079
  119OSM   C17S12487   1.733   4.695   4.714 -0.4703  0.2653  0.3809
  119OSM   H17S12488   1.660   4.768   4.755 -1.2359 -2.1218  3.6669
  119OSM   H17T12489   1.731   4.699   4.603  1.4376  0.6237  0.3126
  119OSM   C18S12490   1.875   4.738   4.775 -0.4399  0.3240 -0.2366
  119OSM   H18S12491   1.946   4.653   4.763 -0.1392  0.7718 -1.8675
  119OSM   H18T12492   1.862   4.769   4.881 -0.1435  1.4028 -0.4945
  119OSM   H18U12493   1.920   4.818   4.712  1.6318 -1.6370 -1.3952
  119OSM    C1F12494   1.848   4.680   6.334 -0.0429  0.6504  0.5109
  119OSM     OF12495   1.850   4.560   6.333  0.1297  0.8038 -0.1621
  119OSM    C2F12496   1.968   4.758   6.366  0.2510  0.0831  0.2730
  119OSM    H2F12497   2.011   4.713   6.458 -1.5183 -0.4951  0.8601
  119OSM    H2G12498   1.931   4.861   6.388 -1.2622 -0.1751 -0.8591
  119OSM    C3F12499   2.060   4.749   6.251 -0.3034 -0.0115  0.6602
  119OSM    H3F12500   2.076   4.655   6.194  1.7402  1.8890 -2.2000
  119OSM    H3G12501   2.160   4.788   6.281  0.9093 -1.2703 -1.4936
  119OSM    C4F12502   2.031   4.861   6.146 -0.8789 -0.8972 -0.2582
  119OSM    H4F12503   1.999   4.956   6.193  0.6041  0.6186 -2.1650
  119OSM    H4G12504   1.939   4.836   6.090 -1.7310  2.0160 -0.3143
  119OSM    C5F12505   2.140   4.888   6.041 -0.2126 -0.9153  0.0694
  119OSM    H5F12506   2.151   4.804   5.969 -2.3411  1.5601 -3.4960
  119OSM    H5G12507   2.238   4.902   6.091  0.0984  0.6897 -0.9093
  119OSM    C6F12508   2.123   5.021   5.970  0.3510  0.3794  0.3168
  119OSM    H6F12509   2.125   5.112   6.032  1.0468  0.3052  0.4123
  119OSM    H6G12510   2.029   5.007   5.912 -0.1429  0.4724  1.0887
  119OSM    C7F12511   2.234   5.039   5.864  0.2474  0.5141  0.2408
  119OSM    H7F12512   2.225   4.948   5.801  0.5913  0.6530 -0.0173
  119OSM    H7G12513   2.333   5.043   5.915 -0.5056  0.9227  1.7064
  119OSM    C8F12514   2.215   5.167   5.777 -0.3323  0.2079  0.8791
  119OSM    H8F12515   2.223   5.253   5.846 -0.8901 -0.1770  1.4354
  119OSM    H8G12516   2.109   5.177   5.746  0.2568  0.1920 -1.3463
  119OSM    C9F12517   2.301   5.196   5.652  0.1513  0.1786 -0.1367
  119OSM    H9F12518   2.398   5.247   5.664  0.0291  0.0289  1.7404
  119OSM   C10F12519   2.255   5.186   5.527  0.2024  0.5073  0.2572
  119OSM   H10F12520   2.327   5.217   5.449 -0.2850  0.3389 -0.2651
  119OSM   C11F12521   2.126   5.124   5.471  0.0157 -0.4502  0.1719
  119OSM   H11F12522   2.075   5.209   5.420  1.5281  1.0708  1.0938
  119OSM   H11G12523   2.049   5.098   5.547  0.0474  1.9450  1.1080
  119OSM   C12F12524   2.141   5.025   5.351  0.0714 -0.4287 -0.3030
  119OSM   H12F12525   2.048   4.964   5.348  0.1283 -0.8622  2.9039
  119OSM   H12G12526   2.229   4.960   5.372 -0.0846  0.4238  4.0792
  119OSM   C13F12527   2.154   5.083   5.212 -0.4366  0.5089  0.4448
  119OSM   H13F12528   2.227   5.166   5.229 -0.3236  0.0415  2.5377
  119OSM   H13G12529   2.064   5.136   5.175  1.2490  1.1430 -3.2870
  119OSM   C14F12530   2.229   4.994   5.102  0.6512 -0.4884 -0.0446
  119OSM   H14F12531   2.328   4.962   5.141 -0.5159 -1.3798  2.4130
  119OSM   H14G12532   2.248   5.065   5.019 -2.1214 -0.4503 -0.7426
  119OSM   C15F12533   2.143   4.885   5.045 -0.0163  0.2608 -0.0204
  119OSM   H15F12534   2.040   4.923   5.029  0.3703  1.7905  0.8765
  119OSM   H15G12535   2.149   4.799   5.114  2.8058  0.2776 -0.1405
  119OSM   C16F12536   2.202   4.847   4.909  0.2704  0.2166  0.4794
  119OSM   H16F12537   2.211   4.943   4.853 -1.5065  1.2124  1.7793
  119OSM   H16G12538   2.128   4.788   4.851 -0.1745  0.4040  0.8555
  119OSM   C17F12539   2.340   4.771   4.910  0.3055  0.7853  0.4290
  119OSM   H17F12540   2.327   4.680   4.972  0.5550  0.5231  0.1009
  119OSM   H17G12541   2.410   4.841   4.960  2.0121  0.3547 -1.2458
  119OSM   C18F12542   2.370   4.739   4.763 -0.6322  0.3737  0.3487
  119OSM   H18F12543   2.355   4.837   4.713  2.7308  0.9307  0.2405
  119OSM   H18G12544   2.298   4.666   4.718 -0.3160 -0.2585  0.8438
  119OSM   H18H12545   2.478   4.721   4.745 -0.7144  1.3573 -1.2876
  120OSM      N12546   4.228   3.141   6.912  0.7768  0.3540  0.3667
  120OSM    C1512547   4.322   3.051   6.988  0.4332  0.1587  0.0695
  120OSM   H15A12548   4.285   3.028   7.087 -2.2421 -1.6903 -1.2441
  120OSM   H15B12549   4.423   3.091   6.991  0.5279 -0.1068  1.0333
  120OSM   H15C12550   4.325   2.954   6.943 -1.8303 -0.7791  1.7216
  120OSM    C1412551   4.285   3.172   6.782 -0.3447  0.6790 -0.1398
  120OSM   H14A12552   4.215   3.232   6.725 -0.7182  0.4253  0.0493
  120OSM   H14B12553   4.314   3.084   6.726  3.9058  0.8916  1.3654
  120OSM   H14C12554   4.371   3.236   6.798 -0.1300  0.8916 -1.9265
  120OSM    C1312555   4.096   3.072   6.900  0.3348  0.8530 -0.2836
  120OSM   H13A12556   4.043   3.078   6.994 -0.8723 -1.5696 -0.7253
  120OSM   H13B12557   4.105   2.966   6.880 -0.6661 -0.1068  3.5055
  120OSM   H13C12558   4.040   3.126   6.825 -1.4219 -0.2416  0.1833
  120OSM    C1212559   4.201   3.266   6.988 -0.6043 -0.7450  0.0469
  120OSM   H12A12560   4.299   3.308   7.003 -0.7238 -0.6616  0.6125
  120OSM   H12B12561   4.164   3.238   7.085 -1.6436 -0.1452 -0.1623
  120OSM    C1112562   4.105   3.368   6.935  0.3603 -0.8151  0.5448
  120OSM   H11A12563   4.093   3.448   7.012  1.1358 -0.4257  0.2700
  120OSM   H11B12564   4.003   3.329   6.915 -0.2844  1.5587 -1.2797
  120OSM      P12565   4.109   3.566   6.768  0.4319  0.2674 -0.0980
  120OSM    O1312566   3.967   3.586   6.803 -0.6017 -0.4154 -0.5072
  120OSM    O1412567   4.206   3.663   6.823 -0.1502 -0.1769  0.0163
  120OSM    O1112568   4.124   3.552   6.609  0.3639 -0.4064  0.5587
  120OSM    O1212569   4.153   3.425   6.810 -0.2715 -0.5138 -0.5854
  120OSM    C1S12570   4.206   3.449   6.557 -0.6840  0.1945  0.0179
  120OSM    H1S12571   4.179   3.351   6.600  1.5473 -0.3563  0.2538
  120OSM    H1T12572   4.312   3.471   6.582  0.0788 -0.6303 -2.2690
  120OSM     NF12573   4.290   3.326   6.359 -0.2542  0.6947  0.4923
  120OSM    HNF12574   4.383   3.347   6.331 -0.1962  1.4038  1.1932
  120OSM    C2S12575   4.205   3.440   6.401  0.0506  0.1620 -0.7240
  120OSM    H2S12576   4.096   3.431   6.378  0.0168 -0.2771 -0.4069
  120OSM    C3S12577   4.267   3.569   6.337 -0.0293  0.5077  0.0398
  120OSM    H3S12578   4.378   3.561   6.346  0.0966  1.7336 -0.1765
  120OSM     O312579   4.238   3.690   6.399 -0.4108  0.4417 -0.3793
  120OSM    HO312580   4.219   3.659   6.488 -2.4228  0.2766 -0.8254
  120OSM    C4S12581   4.228   3.566   6.195 -0.1465 -0.0884  0.7395
  120OSM    H4S12582   4.120   3.561   6.175 -0.0338  1.9958 -0.7385
  120OSM    C5S12583   4.310   3.579   6.090 -0.3142  0.0484  0.4460
  120OSM    H5S12584   4.419   3.578   6.105  0.5482 -1.5226 -4.2962
  120OSM    C6S12585   4.272   3.572   5.944  0.2315 -0.4045 -0.1905
  120OSM    H6S12586   4.166   3.538   5.936  0.0215  0.3623 -0.7318
  120OSM    H6T12587   4.338   3.491   5.909 -0.9125 -1.0050 -1.0428
  120OSM    C7S12588   4.284   3.699   5.865  0.0759 -0.1716  0.3432
  120OSM    H7S12589   4.388   3.734   5.882  0.6690 -1.5778 -0.3048
  120OSM    H7T12590   4.211   3.771   5.908  0.7227  0.4839  0.3554
  120OSM    C8S12591   4.247   3.687   5.708 -0.2519  0.0530  0.1086
  120OSM    H8S12592   4.234   3.794   5.681 -0.0080 -0.0229 -0.3133
  120OSM    H8T12593   4.152   3.630   5.696 -0.8339  1.0209  0.0404
  120OSM    C9S12594   4.361   3.632   5.624 -0.4846  0.1547  0.5329
  120OSM    H9S12595   4.383   3.525   5.648  2.0548 -0.1651 -2.6182
  120OSM    H9T12596   4.451   3.691   5.649  0.4738 -0.6559 -0.9024
  120OSM   C10S12597   4.340   3.647   5.475  0.2431  0.2126  0.1530
  120OSM   H10S12598   4.368   3.749   5.441 -1.1944  0.3260 -0.7899
  120OSM   H10T12599   4.233   3.626   5.451  0.4486 -0.5172 -0.1427
  120OSM   C11S12600   4.422   3.547   5.392  0.0683  0.3414 -0.5161
  120OSM   H11S12601   4.393   3.441   5.405 -0.9680  0.4945 -1.4504
  120OSM   H11T12602   4.525   3.553   5.434 -1.2215 -3.4222  3.9065
  120OSM   C12S12603   4.414   3.566   5.232 -0.2167 -0.2855 -0.2280
  120OSM   H12S12604   4.460   3.660   5.195 -0.9080 -0.1716 -0.8082
  120OSM   H12T12605   4.305   3.581   5.220 -0.6367 -1.5539  1.6762
  120OSM   C13S12606   4.470   3.454   5.149 -0.4342  0.3851 -0.0051
  120OSM   H13S12607   4.446   3.463   5.041 -2.0448  0.1089  0.3038
  120OSM   H13T12608   4.428   3.356   5.182  0.1451  0.1523  0.0685
  120OSM   C14S12609   4.623   3.450   5.162 -0.0035  0.1836  0.4733
  120OSM   H14S12610   4.642   3.420   5.268 -0.6357 -3.2798 -0.2736
  120OSM   H14T12611   4.657   3.554   5.144 -0.0354  0.0294 -0.5014
  120OSM   C15S12612   4.687   3.345   5.066 -0.4941  0.1129  0.1627
  120OSM   H15S12613   4.663   3.378   4.962 -1.2370  1.8884  0.8641
  120OSM   H15T12614   4.642   3.245   5.083  1.5886 -1.1013 -1.0011
  120OSM   C16S12615   4.831   3.325   5.086  0.2238  0.2150 -0.0274
  120OSM   H16S12616   4.853   3.294   5.190  1.5428 -0.5154 -0.5042
  120OSM   H16T12617   4.887   3.421   5.083 -1.3450  1.2813  2.2573
  120OSM   C17S12618   4.898   3.228   4.985 -1.2162 -0.4206  0.9500
  120OSM   H17S12619   4.854   3.251   4.886 -0.9866  1.5135  1.2447
  120OSM   H17T12620   4.856   3.131   5.018 -1.4825 -0.6930 -0.1689
  120OSM   C18S12621   5.047   3.231   4.986 -0.4618  0.4634  0.2942
  120OSM   H18S12622   5.093   3.211   5.086  2.1191  1.8174 -0.5210
  120OSM   H18T12623   5.086   3.328   4.950  0.9791 -0.6125 -1.2239
  120OSM   H18U12624   5.083   3.160   4.908 -1.1420 -1.0216  1.2783
  120OSM    C1F12625   4.249   3.204   6.371 -0.5054  0.1668 -0.2048
  120OSM     OF12626   4.133   3.182   6.385 -0.2366 -0.3066  0.1658
  120OSM    C2F12627   4.352   3.095   6.360  0.1131  0.7696  0.4253
  120OSM    H2F12628   4.310   3.000   6.319  1.4741 -0.0097  0.7538
  120OSM    H2G12629   4.381   3.069   6.464 -0.2753 -1.8609 -0.0468
  120OSM    C3F12630   4.478   3.118   6.268 -0.4685 -0.2126 -0.0651
  120OSM    H3F12631   4.550   3.033   6.264 -1.1070 -0.7987  0.5099
  120OSM    H3G12632   4.530   3.210   6.301  1.4458 -0.2141 -2.7420
  120OSM    C4F12633   4.438   3.131   6.110 -0.3382  0.1426 -0.6850
  120OSM    H4F12634   4.345   3.192   6.116 -0.4181 -0.1223  1.7841
  120OSM    H4G12635   4.421   3.030   6.068  2.5795 -0.7368  0.0374
  120OSM    C5F12636   4.548   3.190   6.032  0.2222 -0.5647  0.4318
  120OSM    H5F12637   4.647   3.143   6.049 -0.3418 -1.6109  0.9215
  120OSM    H5G12638   4.572   3.290   6.072  1.7782  0.2063 -2.1600
  120OSM    C6F12639   4.522   3.190   5.882 -0.8728  1.0359  0.1014
  120OSM    H6F12640   4.423   3.236   5.865 -0.9042  0.9919  0.1627
  120OSM    H6G12641   4.512   3.083   5.853  0.5163  1.4004 -1.9658
  120OSM    C7F12642   4.640   3.253   5.807 -0.3578  0.0806 -0.3669
  120OSM    H7F12643   4.732   3.200   5.840 -1.6870 -1.3357  1.2701
  120OSM    H7G12644   4.660   3.357   5.837  0.9074 -0.3606  0.3980
  120OSM    C8F12645   4.614   3.239   5.651 -0.3244 -0.3669 -1.0494
  120OSM    H8F12646   4.510   3.278   5.651 -0.8207 -1.6581 -0.1657
  120OSM    H8G12647   4.617   3.132   5.621 -0.2922 -0.2523 -1.4707
  120OSM    C9F12648   4.712   3.305   5.566  0.3176  0.3222  0.3251
  120OSM    H9F12649   4.690   3.413   5.560 -2.9724 -0.2360  0.4436
  120OSM   C10F12650   4.812   3.256   5.493  0.1530 -0.3220 -0.1525
  120OSM   H10F12651   4.875   3.321   5.430  0.7520 -0.1546  0.6005
  120OSM   C11F12652   4.854   3.110   5.501  0.4845 -0.4948  0.9013
  120OSM   H11F12653   4.829   3.057   5.595 -1.9205 -2.0084 -0.4785
  120OSM   H11G12654   4.965   3.103   5.492  0.4799 -0.9511  1.2203
  120OSM   C12F12655   4.807   3.040   5.378 -0.1986 -0.1015  0.5354
  120OSM   H12F12656   4.846   2.936   5.377  1.0217  0.3426 -0.2736
  120OSM   H12G12657   4.857   3.084   5.290 -1.4986  0.6903  0.1659
  120OSM   C13F12658   4.656   3.042   5.354  0.1469 -0.0574 -0.3106
  120OSM   H13F12659   4.615   3.145   5.344  1.3892  0.4705 -0.1121
  120OSM   H13G12660   4.603   3.006   5.445  0.8468 -0.2780  0.0142
  120OSM   C14F12661   4.619   2.967   5.223 -0.0010 -0.3267  0.3336
  120OSM   H14F12662   4.651   2.862   5.244  1.6991  0.1492  0.2685
  120OSM   H14G12663   4.690   3.005   5.146  1.2034 -1.4029  0.8685
  120OSM   C15F12664   4.472   2.989   5.177  0.0325 -0.1547 -0.3712
  120OSM   H15F12665   4.445   3.096   5.185  1.1628  0.0459  1.1663
  120OSM   H15G12666   4.418   2.937   5.259 -0.2037  0.4344 -0.1447
  120OSM   C16F12667   4.459   2.932   5.038  0.4049  0.0009  0.6136
  120OSM   H16F12668   4.448   2.822   5.042 -0.2326  0.0496  0.4108
  120OSM   H16G12669   4.559   2.954   4.995 -0.1880  1.8746  0.0472
  120OSM   C17F12670   4.351   2.998   4.951  0.1226 -0.5154  0.2362
  120OSM   H17F12671   4.272   3.028   5.023 -1.1257  0.7248 -1.5590
  120OSM   H17G12672   4.306   2.922   4.884 -1.7303  1.1270 -0.4739
  120OSM   C18F12673   4.402   3.111   4.859  0.1561 -0.0985  0.0393
  120OSM   H18F12674   4.482   3.065   4.798  0.7693  0.7128  0.2265
  120OSM   H18G12675   4.439   3.194   4.922  0.9317 -0.4873  0.1073
  120OSM   H18H12676   4.321   3.134   4.786 -0.9377 -0.6319  1.0368
  121OSM      N12677   4.269   5.058   7.152 -0.0712 -0.1201  0.6329
  121OSM    C1512678   4.391   5.136   7.197  0.3679 -0.3241 -0.2805
  121OSM   H15A12679   4.471   5.067   7.215  0.3003  0.0040  1.4704
  121OSM   H15B12680   4.363   5.203   7.277  2.4639  1.0948 -0.6378
  121OSM   H15C12681   4.418   5.208   7.121  0.3455  1.4662  1.3132
  121OSM    C1412682   4.293   5.002   7.016 -0.3631 -0.4706  0.5700
  121OSM   H14A12683   4.312   5.087   6.951  0.9116 -2.1067 -1.3118
  121OSM   H14B12684   4.204   4.950   6.983 -0.1031 -0.7105  0.2391
  121OSM   H14C12685   4.375   4.933   7.010 -0.0461 -0.0092 -0.9403
  121OSM    C1312686   4.240   4.953   7.259  0.0798  0.3889 -0.2041
  121OSM   H13A12687   4.146   4.910   7.229 -0.6088  2.6840 -1.6593
  121OSM   H13B12688   4.229   5.001   7.355  2.1817  1.5198 -0.4675
  121OSM   H13C12689   4.316   4.877   7.261 -1.3816 -1.1105  0.9537
  121OSM    C1212690   4.150   5.153   7.154  0.2222  0.4376 -0.4587
  121OSM   H12A12691   4.144   5.191   7.255  0.7525  0.7223 -0.5339
  121OSM   H12B12692   4.062   5.094   7.132 -0.4927  0.9728  0.7958
  121OSM    C1112693   4.148   5.279   7.055 -0.1424 -0.8167 -0.0682
  121OSM   H11A12694   4.053   5.328   7.086 -0.8796 -1.4944 -1.1943
  121OSM   H11B12695   4.130   5.251   6.949 -2.4168  3.3517 -1.0047
  121OSM      P12696   4.274   5.510   7.119 -0.1562  0.1901 -0.2173
  121OSM    O1312697   4.223   5.515   7.261 -0.2527 -0.3381 -0.2242
  121OSM    O1412698   4.416   5.556   7.107 -0.6282  0.5954  0.0641
  121OSM    O1112699   4.187   5.603   7.028 -1.0718  0.3343  0.2509
  121OSM    O1212700   4.261   5.368   7.059 -0.3202 -0.0076 -0.0792
  121OSM    C1S12701   4.232   5.665   6.910 -0.2621 -0.5751  0.7465
  121OSM    H1S12702   4.343   5.663   6.898 -0.2278 -0.2351  0.9823
  121OSM    H1T12703   4.202   5.772   6.904  0.7389 -0.3281 -0.1676
  121OSM     NF12704   4.251   5.628   6.664  0.1711 -0.4686  0.0028
  121OSM    HNF12705   4.214   5.701   6.606 -1.8655  0.7633  2.6370
  121OSM    C2S12706   4.180   5.593   6.781 -0.3697  0.1389 -0.6238
  121OSM    H2S12707   4.201   5.485   6.797  1.3053  0.4267 -0.7236
  121OSM    C3S12708   4.024   5.605   6.782 -0.8409 -0.9178  0.2048
  121OSM    H3S12709   3.999   5.710   6.755  0.3589 -0.4661  0.8130
  121OSM     O312710   3.958   5.573   6.902  0.3912 -0.1375  0.5786
  121OSM    HO312711   4.014   5.576   6.980 -0.4571 -1.6566  1.2837
  121OSM    C4S12712   3.968   5.529   6.671  0.7640 -0.5244 -0.0237
  121OSM    H4S12713   3.970   5.584   6.576  0.3364 -0.0625  0.2288
  121OSM    C5S12714   3.940   5.400   6.673 -0.0609 -0.6207  0.3796
  121OSM    H5S12715   3.953   5.348   6.769  1.1679 -1.6229 -0.3011
  121OSM    C6S12716   3.897   5.316   6.554  0.5342  0.4466  0.5168
  121OSM    H6S12717   3.956   5.222   6.550  0.9927  0.6641  1.6946
  121OSM    H6T12718   3.920   5.368   6.459  1.9698 -0.2676  0.4408
  121OSM    C7S12719   3.744   5.287   6.548 -0.2125 -0.2325 -0.2954
  121OSM    H7S12720   3.692   5.385   6.555 -0.1037 -0.1953  0.0208
  121OSM    H7T12721   3.717   5.232   6.641 -3.4911  1.8664  0.1498
  121OSM    C8S12722   3.703   5.192   6.431 -0.4283  0.1120 -1.0408
  121OSM    H8S12723   3.595   5.169   6.428 -0.4089 -0.3972  0.7167
  121OSM    H8T12724   3.742   5.092   6.460 -0.4869  0.9309  2.2696
  121OSM    C9S12725   3.760   5.231   6.294 -0.0768 -0.1891 -0.0769
  121OSM    H9S12726   3.870   5.227   6.288  0.1204  3.7025 -2.6981
  121OSM    H9T12727   3.731   5.338   6.285 -1.2202 -0.3565  1.2422
  121OSM   C10S12728   3.689   5.152   6.190 -0.0824 -0.3207 -0.0291
  121OSM   H10S12729   3.579   5.163   6.200 -0.2951 -2.2181  0.0365
  121OSM   H10T12730   3.710   5.046   6.215 -1.0508 -0.0949  1.9617
  121OSM   C11S12731   3.738   5.200   6.052  0.3556 -0.1972 -0.0155
  121OSM   H11S12732   3.849   5.202   6.052  0.5187 -1.5947  3.8174
  121OSM   H11T12733   3.706   5.304   6.032 -1.7704 -0.6755  0.6133
  121OSM   C12S12734   3.684   5.113   5.934  0.1970  0.4038  0.0885
  121OSM   H12S12735   3.574   5.100   5.938  0.1447  0.4301 -1.0163
  121OSM   H12T12736   3.729   5.013   5.951 -1.5573 -0.1847  1.7313
  121OSM   C13S12737   3.728   5.158   5.790 -0.1139 -0.2344 -0.4825
  121OSM   H13S12738   3.838   5.169   5.790 -0.1709  0.5272  0.3951
  121OSM   H13T12739   3.684   5.260   5.776  0.2509  0.3948  2.3437
  121OSM   C14S12740   3.686   5.051   5.688 -0.0925  0.1797 -0.4002
  121OSM   H14S12741   3.577   5.045   5.671 -0.3819  1.3562  0.8283
  121OSM   H14T12742   3.726   4.953   5.720  0.1247 -0.2380 -1.8534
  121OSM   C15S12743   3.746   5.079   5.543  0.3209  0.2013 -0.3271
  121OSM   H15S12744   3.848   5.036   5.539  0.3307  0.0793  0.8339
  121OSM   H15T12745   3.744   5.189   5.528  1.2549  0.0821 -1.4752
  121OSM   C16S12746   3.669   5.004   5.432  0.4670  0.1013 -0.6833
  121OSM   H16S12747   3.561   5.027   5.444  1.0629  3.0513 -0.2525
  121OSM   H16T12748   3.686   4.897   5.456  1.9165  0.0147 -1.9521
  121OSM   C17S12749   3.708   5.035   5.292 -0.3096  0.0687 -0.2566
  121OSM   H17S12750   3.641   4.966   5.236  1.5946 -0.9509 -1.3479
  121OSM   H17T12751   3.808   5.001   5.260  0.1779  1.0182  0.2168
  121OSM   C18S12752   3.681   5.171   5.242 -0.4624  0.2064  0.1465
  121OSM   H18S12753   3.576   5.204   5.227  0.3277  2.3025 -1.2997
  121OSM   H18T12754   3.744   5.173   5.150 -0.3449 -0.2998  0.2114
  121OSM   H18U12755   3.730   5.245   5.308  3.9430 -1.9344 -0.3029
  121OSM    C1F12756   4.385   5.599   6.655  0.1315 -0.3226  0.1756
  121OSM     OF12757   4.437   5.501   6.710  0.8379  0.4086  0.0232
  121OSM    C2F12758   4.466   5.674   6.560 -0.3749  0.0564 -0.2883
  121OSM    H2F12759   4.562   5.621   6.546  0.0946  0.8633 -0.1794
  121OSM    H2G12760   4.492   5.774   6.601 -0.3994 -0.0088 -0.1107
  121OSM    C3F12761   4.394   5.683   6.422 -0.7993  0.3178 -0.2115
  121OSM    H3F12762   4.291   5.723   6.414 -0.5262  0.8508 -1.3870
  121OSM    H3G12763   4.397   5.579   6.383 -2.2586  0.0609  0.3122
  121OSM    C4F12764   4.473   5.755   6.307  0.1121  0.2081 -0.9016
  121OSM    H4F12765   4.581   5.741   6.326  0.0865  0.9463 -0.1610
  121OSM    H4G12766   4.452   5.864   6.314  0.6579  0.2402  0.4034
  121OSM    C5F12767   4.443   5.690   6.166 -0.1782  0.3765  0.2723
  121OSM    H5F12768   4.334   5.693   6.142 -0.3981  1.7900  1.2954
  121OSM    H5G12769   4.468   5.582   6.173  0.6319  0.6142  1.1912
  121OSM    C6F12770   4.525   5.757   6.057 -0.1710  0.7180  0.0925
  121OSM    H6F12771   4.628   5.717   6.060 -0.1878  0.4804 -1.7162
  121OSM    H6G12772   4.523   5.867   6.075  3.2334  1.1513 -1.4299
  121OSM    C7F12773   4.467   5.739   5.913 -0.2927  0.0324  0.1757
  121OSM    H7F12774   4.448   5.630   5.900 -0.7222  0.1906 -0.6182
  121OSM    H7G12775   4.539   5.758   5.830 -0.7239 -1.9005 -0.6916
  121OSM    C8F12776   4.340   5.822   5.876  0.4487 -0.0902 -0.2138
  121OSM    H8F12777   4.255   5.766   5.919 -0.6691  0.8470 -1.1294
  121OSM    H8G12778   4.322   5.808   5.768  1.5414 -1.7605 -0.2096
  121OSM    C9F12779   4.338   5.972   5.916  0.3676  0.5566  0.3161
  121OSM    H9F12780   4.301   5.999   6.017  1.1884  1.9615  0.2707
  121OSM   C10F12781   4.392   6.076   5.850  0.1775 -0.5492 -0.3147
  121OSM   H10F12782   4.383   6.173   5.901  0.3546 -1.3677  1.3238
  121OSM   C11F12783   4.453   6.069   5.716  0.4652  0.0892 -0.4773
  121OSM   H11F12784   4.464   5.967   5.674  1.4886  1.2118 -3.1688
  121OSM   H11G12785   4.554   6.114   5.720  0.5959 -0.2511  0.0923
  121OSM   C12F12786   4.372   6.152   5.622 -0.0196  0.4774  0.9119
  121OSM   H12F12787   4.386   6.261   5.636  1.7462  0.4813 -0.5614
  121OSM   H12G12788   4.264   6.129   5.636 -0.1077  0.9589  1.0443
  121OSM   C13F12789   4.406   6.119   5.475  0.8154 -0.9457  0.9961
  121OSM   H13F12790   4.377   6.015   5.445  0.8748 -0.6307 -0.1936
  121OSM   H13G12791   4.514   6.120   5.448 -0.1840 -0.5917 -4.0657
  121OSM   C14F12792   4.331   6.221   5.378  0.2118 -0.3318 -0.3363
  121OSM   H14F12793   4.355   6.327   5.399  2.4742 -0.5730 -1.3960
  121OSM   H14G12794   4.224   6.214   5.405  0.5546  0.4444  1.3772
  121OSM   C15F12795   4.346   6.197   5.231  0.0872 -0.0047 -0.4109
  121OSM   H15F12796   4.285   6.280   5.191  0.6146  0.8679  0.5386
  121OSM   H15G12797   4.300   6.100   5.201 -0.5725  0.2137 -0.1210
  121OSM   C16F12798   4.481   6.215   5.163 -0.3146 -0.8896 -0.4480
  121OSM   H16F12799   4.556   6.142   5.198 -0.2608 -0.7600 -0.2935
  121OSM   H16G12800   4.519   6.317   5.185 -0.6385 -0.7654 -0.4580
  121OSM   C17F12801   4.466   6.214   5.005 -0.7867 -0.1652 -0.0982
  121OSM   H17F12802   4.455   6.106   4.982  4.0503 -0.6354 -1.2600
  121OSM   H17G12803   4.572   6.234   4.980 -0.3649 -0.1074  1.6288
  121OSM   C18F12804   4.367   6.301   4.927  0.4083 -0.4913 -0.1696
  121OSM   H18F12805   4.396   6.407   4.942  2.0189 -0.7971 -0.9137
  121OSM   H18G12806   4.258   6.291   4.949 -0.0915  1.1194 -1.6023
  121OSM   H18H12807   4.378   6.274   4.820  1.5146 -1.2000  0.1128
  122OSM      N12808   5.297   3.289   7.363 -0.0138  0.4144  0.2063
  122OSM    C1512809   5.253   3.362   7.241 -0.6802 -0.1549  0.1776
  122OSM   H15A12810   5.175   3.429   7.274  0.4351  0.6884  1.1927
  122OSM   H15B12811   5.217   3.296   7.164 -0.4806  1.6438 -1.5069
  122OSM   H15C12812   5.330   3.416   7.188 -1.9795  1.1783 -0.4117
  122OSM    C1412813   5.350   3.395   7.456  0.0741  0.2474 -0.1101
  122OSM   H14A12814   5.367   3.363   7.558 -0.3561  0.3007 -0.0193
  122OSM   H14B12815   5.266   3.459   7.480 -1.3364 -1.7761  0.6254
  122OSM   H14C12816   5.425   3.454   7.405  0.8081  1.3083  2.0380
  122OSM    C1312817   5.180   3.223   7.427  0.0966  0.1815 -0.8237
  122OSM   H13A12818   5.107   3.296   7.459 -1.9177 -2.2700  0.5416
  122OSM   H13B12819   5.213   3.183   7.522  3.2958  1.7504 -1.1401
  122OSM   H13C12820   5.135   3.149   7.364  1.1730 -1.2424  0.0148
  122OSM    C1212821   5.402   3.189   7.336 -0.1116  0.4452 -0.0998
  122OSM   H12A12822   5.461   3.166   7.424 -2.6826 -1.7288  1.2000
  122OSM   H12B12823   5.469   3.223   7.259 -0.0435 -1.1359 -0.7856
  122OSM    C1112824   5.354   3.056   7.271  0.3627 -0.0260  0.4519
  122OSM   H11A12825   5.323   2.981   7.347  1.0749  0.6921  1.4760
  122OSM   H11B12826   5.455   3.027   7.237  0.7163  1.5460  0.0747
  122OSM      P12827   5.157   2.967   7.123  0.2876 -0.4571  0.2018
  122OSM    O1312828   5.194   2.828   7.144 -0.0898  0.3695  0.6523
  122OSM    O1412829   5.041   3.015   7.203 -0.6368 -0.0946  0.3942
  122OSM    O1112830   5.131   2.990   6.964  0.0684  0.0390 -0.0282
  122OSM    O1212831   5.279   3.064   7.153 -0.4541  0.0705 -0.5706
  122OSM    C1S12832   5.229   3.062   6.885  0.3029 -0.4374 -0.4361
  122OSM    H1S12833   5.321   2.999   6.885  1.0133  0.4010  2.7342
  122OSM    H1T12834   5.262   3.159   6.928 -2.4705  0.1469  0.6174
  122OSM     NF12835   5.277   3.133   6.656 -0.6501  0.1108  0.2207
  122OSM    HNF12836   5.278   3.231   6.637  0.8586  0.3750  1.4397
  122OSM    C2S12837   5.173   3.089   6.744  0.6272  0.1341  0.6356
  122OSM    H2S12838   5.130   2.992   6.712  0.5351  0.5527 -0.5804
  122OSM    C3S12839   5.048   3.187   6.751  0.2760  0.5704  0.9745
  122OSM    H3S12840   5.085   3.285   6.788  0.2808  1.0857 -0.3352
  122OSM     O312841   4.946   3.143   6.848  0.1070 -0.4520  0.3891
  122OSM    HO312842   5.002   3.080   6.895 -0.6987 -1.2893  0.2627
  122OSM    C4S12843   4.997   3.201   6.608 -0.0822 -0.7661 -0.5978
  122OSM    H4S12844   5.044   3.281   6.550  0.9017 -0.8680  0.0320
  122OSM    C5S12845   4.899   3.135   6.547 -0.1629 -0.5976  0.3321
  122OSM    H5S12846   4.833   3.065   6.602  0.0025 -1.2933 -0.3385
  122OSM    C6S12847   4.858   3.162   6.402  0.3188 -0.5093  0.5204
  122OSM    H6S12848   4.821   3.267   6.398  1.3303 -0.1198  0.9975
  122OSM    H6T12849   4.762   3.111   6.378  0.0147 -1.7019  3.7391
  122OSM    C7S12850   4.978   3.133   6.314 -0.2387  0.2187 -0.1992
  122OSM    H7S12851   5.001   3.025   6.324 -2.5185 -0.5395 -2.0593
  122OSM    H7T12852   5.060   3.197   6.352  0.7788 -0.2961 -1.4499
  122OSM    C8S12853   4.958   3.164   6.166  0.1639 -0.9740  0.6177
  122OSM    H8S12854   4.871   3.233   6.159  0.1698 -0.8828  1.3598
  122OSM    H8T12855   4.921   3.079   6.105 -0.9264  0.2987 -0.5441
  122OSM    C9S12856   5.079   3.228   6.098 -0.2953 -0.2003  0.0856
  122OSM    H9S12857   5.177   3.179   6.116 -1.1913 -2.0579  0.0714
  122OSM    H9T12858   5.096   3.331   6.137  2.5982 -0.8073  0.6800
  122OSM   C10S12859   5.049   3.242   5.947 -0.4152 -0.0389  0.6507
  122OSM   H10S12860   4.950   3.288   5.929 -0.5192 -0.4627  0.0915
  122OSM   H10T12861   5.039   3.135   5.918 -0.4239 -0.2081  1.2528
  122OSM   C11S12862   5.160   3.316   5.868  0.9902  0.1334  0.3833
  122OSM   H11S12863   5.256   3.262   5.883 -0.1284 -1.9858  0.3560
  122OSM   H11T12864   5.173   3.421   5.903  0.6079  0.0395  0.8127
  122OSM   C12S12865   5.126   3.313   5.713 -0.1387 -0.1658 -0.4076
  122OSM   H12S12866   5.020   3.342   5.719 -0.0159 -0.0107  2.5327
  122OSM   H12T12867   5.143   3.208   5.680 -1.0192  0.4471 -2.9665
  122OSM   C13S12868   5.214   3.408   5.637 -0.6388  0.1126  0.4046
  122OSM   H13S12869   5.320   3.395   5.668 -0.7762 -2.4295 -0.0142
  122OSM   H13T12870   5.183   3.514   5.651  0.8681  0.4064  1.8715
  122OSM   C14S12871   5.197   3.377   5.489  0.3241 -0.1793 -0.3216
  122OSM   H14S12872   5.092   3.348   5.473  0.3060 -0.2803 -0.0221
  122OSM   H14T12873   5.254   3.283   5.476  2.3957  1.0188 -0.4581
  122OSM   C15S12874   5.251   3.481   5.395  0.4020  0.2666  0.3494
  122OSM   H15S12875   5.354   3.514   5.418  1.5266 -3.4017  1.2716
  122OSM   H15T12876   5.188   3.572   5.401 -1.6181 -0.9663 -0.8358
  122OSM   C16S12877   5.251   3.433   5.250  0.4922  0.4119 -0.1524
  122OSM   H16S12878   5.207   3.513   5.188 -0.6216  0.3718  0.5647
  122OSM   H16T12879   5.175   3.352   5.241  0.5586  0.0939  1.7197
  122OSM   C17S12880   5.387   3.401   5.195 -0.4696 -0.2417 -1.0730
  122OSM   H17S12881   5.440   3.319   5.247  2.8686  2.3836  0.0094
  122OSM   H17T12882   5.456   3.488   5.207 -0.1823 -0.2588 -2.5064
  122OSM   C18S12883   5.387   3.373   5.042 -0.4371 -1.2477  0.2725
  122OSM   H18S12884   5.326   3.287   5.008 -0.3733 -0.3441 -2.3871
  122OSM   H18T12885   5.494   3.372   5.010 -0.4173 -1.0475  0.3329
  122OSM   H18U12886   5.353   3.464   4.989  1.2598  0.7745  2.4544
  122OSM    C1F12887   5.355   3.047   6.584  0.2325 -0.7586 -0.5245
  122OSM     OF12888   5.366   2.938   6.628 -0.8121  0.1214 -0.2566
  122OSM    C2F12889   5.420   3.099   6.461 -0.0766  0.6737  0.2131
  122OSM    H2F12890   5.447   3.206   6.472  0.1460  0.5309  1.2141
  122OSM    H2G12891   5.366   3.086   6.365 -1.8819 -3.4306  1.5453
  122OSM    C3F12892   5.548   3.026   6.437 -0.9178 -0.3342  0.4152
  122OSM    H3F12893   5.529   2.926   6.393 -2.5643  0.5655 -1.0332
  122OSM    H3G12894   5.619   3.009   6.521 -0.7684 -0.5682  0.2417
  122OSM    C4F12895   5.634   3.105   6.325  0.1676  0.5078  0.0056
  122OSM    H4F12896   5.744   3.113   6.330  0.0683  1.3425  1.6312
  122OSM    H4G12897   5.609   3.211   6.349 -0.9514  0.2043  0.2283
  122OSM    C5F12898   5.602   3.056   6.181 -0.4053  0.1280 -0.2361
  122OSM    H5F12899   5.500   3.012   6.176 -0.5219  0.2907  0.5933
  122OSM    H5G12900   5.666   2.980   6.131 -2.0998 -1.2284 -0.4663
  122OSM    C6F12901   5.603   3.171   6.083 -0.4952 -0.6683  0.1413
  122OSM    H6F12902   5.705   3.209   6.103  0.0713 -2.5555  1.0702
  122OSM    H6G12903   5.533   3.254   6.104  1.3485  1.3311 -1.2116
  122OSM    C7F12904   5.582   3.128   5.938 -0.5691  0.4700 -0.0063
  122OSM    H7F12905   5.474   3.104   5.930 -0.1185 -2.3972  1.1932
  122OSM    H7G12906   5.635   3.033   5.918 -0.7506 -0.1322  2.1482
  122OSM    C8F12907   5.618   3.243   5.845 -0.6497 -0.6730 -0.5874
  122OSM    H8F12908   5.721   3.271   5.876 -2.2793  1.6323  3.6105
  122OSM    H8G12909   5.560   3.332   5.878  1.6055 -0.0489  1.9916
  122OSM    C9F12910   5.586   3.227   5.698 -0.4966  0.4356  0.3180
  122OSM    H9F12911   5.481   3.202   5.681 -0.8281  1.7197  0.3383
  122OSM   C10F12912   5.661   3.250   5.591 -0.1574 -0.1968 -0.8483
  122OSM   H10F12913   5.626   3.236   5.487 -2.3101 -0.3137 -0.1478
  122OSM   C11F12914   5.797   3.306   5.595 -0.3689 -0.9012 -0.3051
  122OSM   H11F12915   5.823   3.336   5.699 -1.2974 -0.2655 -0.2488
  122OSM   H11G12916   5.796   3.395   5.529  1.9937 -1.0720 -0.6772
  122OSM   C12F12917   5.897   3.204   5.546  0.6850 -0.0129 -0.0360
  122OSM   H12F12918   5.881   3.111   5.606 -1.0254  0.2546 -0.0347
  122OSM   H12G12919   6.001   3.237   5.566  0.5728  2.0878 -2.4966
  122OSM   C13F12920   5.889   3.163   5.401 -0.1198  0.6287  0.6898
  122OSM   H13F12921   5.788   3.131   5.369  0.5646 -0.2214 -0.6875
  122OSM   H13G12922   5.942   3.066   5.388 -1.5013  0.1342 -1.8996
  122OSM   C14F12923   5.945   3.271   5.311 -0.2795 -0.7273  0.5722
  122OSM   H14F12924   6.032   3.311   5.368  0.4510 -2.1829  0.5286
  122OSM   H14G12925   5.877   3.357   5.291 -0.2645 -0.6869  0.6920
  122OSM   C15F12926   6.011   3.222   5.178  0.5540  0.2879 -0.7732
  122OSM   H15F12927   5.931   3.173   5.119 -1.6853  0.8322  1.6134
  122OSM   H15G12928   6.082   3.143   5.211 -0.4689  0.5903  2.5756
  122OSM   C16F12929   6.088   3.316   5.080  0.5580  0.8606  0.0220
  122OSM   H16F12930   6.180   3.364   5.121  1.9673 -3.1434  2.0181
  122OSM   H16G12931   6.021   3.398   5.045  0.1108 -0.0910 -1.4517
  122OSM   C17F12932   6.115   3.245   4.945 -0.1581 -0.1797 -0.1811
  122OSM   H17F12933   6.161   3.148   4.975 -2.2497 -0.4643  2.3707
  122OSM   H17G12934   6.199   3.291   4.888 -0.3002 -3.1542 -3.1202
  122OSM   C18F12935   5.989   3.218   4.856 -0.2909  0.5402 -0.4596
  122OSM   H18F12936   5.941   3.313   4.823 -1.7291 -0.3382 -1.0179
  122OSM   H18G12937   5.925   3.154   4.920  0.0894  1.4811  0.9117
  122OSM   H18H12938   6.011   3.163   4.761  0.0741 -1.6125  0.8108
  123OSM      N12939   3.095   2.083   2.408 -0.0858 -0.4006 -0.7230
  123OSM    C1512940   3.023   1.986   2.322 -0.6014  0.8314 -0.5089
  123OSM   H15A12941   3.008   1.891   2.373 -0.5136 -0.1738 -2.2833
  123OSM   H15B12942   3.069   1.973   2.225  1.1966 -2.8013  0.6426
  123OSM   H15C12943   2.921   2.015   2.306 -0.3157  2.2194  0.0518
  123OSM    C1412944   3.101   2.217   2.341  0.4051 -0.4552  0.0715
  123OSM   H14A12945   3.155   2.227   2.248  1.2038  0.5929  0.6247
  123OSM   H14B12946   3.139   2.295   2.406 -1.2201  0.7035 -0.3091
  123OSM   H14C12947   3.003   2.252   2.314  0.6688 -0.9605 -1.6745
  123OSM    C1312948   3.027   2.105   2.539  1.1576 -0.4254 -0.6120
  123OSM   H13A12949   3.076   2.178   2.601 -0.6700 -0.5805  1.1483
  123OSM   H13B12950   3.023   2.007   2.586 -0.9347 -0.5068 -0.8724
  123OSM   H13C12951   2.922   2.128   2.527  0.5193 -0.3375  3.5443
  123OSM    C1212952   3.242   2.047   2.414  0.5026  0.3858 -0.2580
  123OSM   H12A12953   3.292   2.123   2.473 -0.6273  1.5168 -0.6902
  123OSM   H12B12954   3.284   2.052   2.315  0.4262  1.2079 -0.2548
  123OSM    C1112955   3.284   1.913   2.470 -0.5005 -0.2785 -0.2593
  123OSM   H11A12956   3.242   1.823   2.421 -2.7878  0.7582 -0.3033
  123OSM   H11B12957   3.236   1.905   2.570  0.0571  0.0245  0.0392
  123OSM      P12958   3.513   1.917   2.603 -0.2878  0.2695 -0.2547
  123OSM    O1312959   3.631   1.824   2.583  0.4241  0.3094 -0.5045
  123OSM    O1412960   3.530   2.062   2.620 -0.1527  0.2233 -0.4468
  123OSM    O1112961   3.419   1.858   2.720 -0.5653 -0.3718 -0.7484
  123OSM    O1212962   3.430   1.899   2.469 -0.4324 -0.0593 -0.2206
  123OSM    C1S12963   3.386   1.723   2.742 -0.4543  0.5040  1.0557
  123OSM    H1S12964   3.461   1.655   2.695 -2.7416 -1.6964  0.3246
  123OSM    H1T12965   3.293   1.706   2.683  0.0587  1.6384 -0.1160
  123OSM     NF12966   3.340   1.551   2.906 -0.4133 -0.3560 -0.2802
  123OSM    HNF12967   3.251   1.511   2.927 -0.0160 -0.2247  1.8281
  123OSM    C2S12968   3.350   1.690   2.882  0.2241 -0.5334  0.0831
  123OSM    H2S12969   3.444   1.719   2.935 -0.3555 -2.4511  2.3225
  123OSM    C3S12970   3.228   1.765   2.940 -0.0550 -0.7622  0.1151
  123OSM    H3S12971   3.134   1.724   2.897 -2.2540  3.6997  0.0814
  123OSM     O312972   3.231   1.901   2.898  0.3368  0.0496 -0.3949
  123OSM    HO312973   3.308   1.906   2.840  0.6906 -3.0236 -0.3916
  123OSM    C4S12974   3.219   1.747   3.091 -0.1834 -0.3537 -0.5161
  123OSM    H4S12975   3.179   1.649   3.120 -2.0674  0.3596 -0.5591
  123OSM    C5S12976   3.255   1.831   3.182  0.1659  0.3125  0.3678
  123OSM    H5S12977   3.296   1.926   3.145  1.1735 -0.3770 -0.3596
  123OSM    C6S12978   3.252   1.799   3.330 -0.4220  0.0927 -0.5473
  123OSM    H6S12979   3.197   1.884   3.376 -2.0237  0.9590 -3.7548
  123OSM    H6T12980   3.360   1.804   3.357 -0.8113 -0.2638  1.1849
  123OSM    C7S12981   3.201   1.660   3.368 -0.1309  0.0116  0.2021
  123OSM    H7S12982   3.243   1.573   3.313 -1.8471 -1.0036  0.4334
  123OSM    H7T12983   3.091   1.654   3.352 -0.3843 -0.8679  2.1052
  123OSM    C8S12984   3.216   1.629   3.520 -0.0491  0.5604 -0.6106
  123OSM    H8S12985   3.318   1.659   3.550  0.2535 -1.2321  0.3127
  123OSM    H8T12986   3.202   1.519   3.524 -0.7008  0.6129 -1.2334
  123OSM    C9S12987   3.110   1.693   3.607  0.0767  0.5100  0.1034
  123OSM    H9S12988   3.009   1.656   3.578  0.7613  0.0332 -1.7709
  123OSM    H9T12989   3.105   1.803   3.591 -1.8491  0.5011  0.3833
  123OSM   C10S12990   3.144   1.666   3.755  0.2869  0.2875  0.1267
  123OSM   H10S12991   3.084   1.731   3.822  1.9441  1.2718  0.7162
  123OSM   H10T12992   3.252   1.687   3.765  0.8789 -1.7513 -1.3600
  123OSM   C11S12993   3.120   1.525   3.801  0.0541  0.9668  0.7186
  123OSM   H11S12994   3.191   1.459   3.746  0.2221  0.6619  1.2984
  123OSM   H11T12995   3.014   1.505   3.772  0.7414 -1.8685 -0.1253
  123OSM   C12S12996   3.140   1.493   3.952 -0.4953  0.1808 -0.3125
  123OSM   H12S12997   3.093   1.575   4.011 -0.2143 -0.2562  0.5215
  123OSM   H12T12998   3.250   1.492   3.970 -0.4760  0.3390 -0.4110
  123OSM   C13S12999   3.074   1.359   3.994  0.2762 -0.1134 -0.1044
  123OSM   H13S13000   3.107   1.270   3.936 -0.8103 -1.2081  0.8870
  123OSM   H13T13001   2.969   1.384   3.968  0.1705 -0.7656 -0.3409
  123OSM   C14S13002   3.110   1.336   4.140  0.1607 -0.4683 -0.4477
  123OSM   H14S13003   3.068   1.414   4.208  0.7951 -1.0978  0.6789
  123OSM   H14T13004   3.220   1.331   4.150  0.2257 -0.2641 -0.9992
  123OSM   C15S13005   3.049   1.204   4.184  0.0915  0.0535 -0.0921
  123OSM   H15S13006   3.104   1.122   4.132  1.3141  0.5649  0.3607
  123OSM   H15T13007   2.943   1.207   4.151 -0.6694  0.2347  2.2191
  123OSM   C16S13008   3.043   1.176   4.337 -0.1812  0.1034 -0.2540
  123OSM   H16S13009   2.959   1.105   4.352 -1.3706  1.1384 -1.6968
  123OSM   H16T13010   3.029   1.272   4.392  1.4766  0.7771 -0.9352
  123OSM   C17S13011   3.173   1.121   4.392  0.2279  0.5045  0.0486
  123OSM   H17S13012   3.256   1.191   4.368  0.6359  0.7669  2.0217
  123OSM   H17T13013   3.204   1.025   4.345 -0.2439  0.7180 -0.7217
  123OSM   C18S13014   3.176   1.094   4.542  0.4782  0.4872 -0.0836
  123OSM   H18S13015   3.272   1.048   4.573  2.7346  3.8098 -1.6251
  123OSM   H18T13016   3.087   1.037   4.577 -0.0569  1.1037 -0.3941
  123OSM   H18U13017   3.191   1.192   4.591  1.5844  0.2855  0.0123
  123OSM    C1F13018   3.441   1.464   2.877  0.3211  0.4159  0.0868
  123OSM     OF13019   3.558   1.494   2.863  0.3537 -0.3309  0.4271
  123OSM    C2F13020   3.398   1.320   2.877  0.3779  0.1218  0.4605
  123OSM    H2F13021   3.426   1.273   2.781 -0.2597 -0.6398  0.6364
  123OSM    H2G13022   3.287   1.313   2.872  0.4023  0.2566 -0.3738
  123OSM    C3F13023   3.430   1.226   2.996 -0.0072  0.2367  0.4081
  123OSM    H3F13024   3.540   1.221   3.011 -0.0275  1.8740  1.3339
  123OSM    H3G13025   3.401   1.119   2.981  0.7146  0.1100 -0.0746
  123OSM    C4F13026   3.364   1.280   3.125  1.2534  0.5130 -0.6726
  123OSM    H4F13027   3.253   1.286   3.115  1.1147  0.6351  0.7144
  123OSM    H4G13028   3.389   1.386   3.147 -2.0072  1.0517  1.1527
  123OSM    C5F13029   3.396   1.189   3.239 -0.2226  0.1593 -0.9188
  123OSM    H5F13030   3.508   1.188   3.240 -0.2078 -1.5588 -0.8736
  123OSM    H5G13031   3.368   1.083   3.224  2.4116 -0.7726  0.0356
  123OSM    C6F13032   3.327   1.234   3.373  0.5030 -0.4417 -0.8166
  123OSM    H6F13033   3.216   1.234   3.366  0.3100  2.5592  0.3836
  123OSM    H6G13034   3.361   1.339   3.390  0.6503 -0.7161  0.7923
  123OSM    C7F13035   3.372   1.150   3.491  0.3034 -0.4239 -0.1897
  123OSM    H7F13036   3.482   1.146   3.473 -0.0338 -1.1992 -2.3655
  123OSM    H7G13037   3.311   1.057   3.489 -1.1922  0.4588  1.3782
  123OSM    C8F13038   3.353   1.218   3.631  0.2654 -0.2258 -0.1355
  123OSM    H8F13039   3.285   1.305   3.618 -2.3698 -2.3831 -2.1615
  123OSM    H8G13040   3.454   1.247   3.667  0.1669  1.9480 -1.4478
  123OSM    C9F13041   3.290   1.110   3.715  0.2641 -0.0878 -0.4123
  123OSM    H9F13042   3.201   1.060   3.674 -1.8254  1.5106  1.8652
  123OSM   C10F13043   3.340   1.059   3.831  0.4633 -0.2485  0.1341
  123OSM   H10F13044   3.290   0.969   3.871 -1.9956  0.3734 -1.3262
  123OSM   C11F13045   3.469   1.092   3.904 -0.8202 -0.2234  0.5640
  123OSM   H11F13046   3.446   1.154   3.994  2.8838  0.4966  1.1868
  123OSM   H11G13047   3.544   1.153   3.850 -1.4453  0.6840  0.7076
  123OSM   C12F13048   3.564   0.973   3.954  0.3880 -0.6051 -0.2899
  123OSM   H12F13049   3.669   1.004   3.974  0.1311 -0.7015  1.2963
  123OSM   H12G13050   3.562   0.889   3.881  1.4390 -0.9570  0.0643
  123OSM   C13F13051   3.502   0.900   4.077 -0.0294 -0.4491 -0.0873
  123OSM   H13F13052   3.404   0.857   4.044 -1.4910  2.7850 -0.4006
  123OSM   H13G13053   3.481   0.968   4.162 -0.4209 -2.2446  1.3134
  123OSM   C14F13054   3.596   0.793   4.124 -0.0790 -0.1166 -0.1198
  123OSM   H14F13055   3.686   0.846   4.163 -0.5589  3.7511 -3.5905
  123OSM   H14G13056   3.646   0.732   4.046 -0.2115  1.3910 -1.4437
  123OSM   C15F13057   3.530   0.710   4.227 -0.2800 -0.3709 -0.1969
  123OSM   H15F13058   3.607   0.650   4.280 -0.5042 -1.0175 -0.6012
  123OSM   H15G13059   3.457   0.645   4.174  0.1132 -0.5257 -0.5455
  123OSM   C16F13060   3.449   0.786   4.336 -1.0747  0.1842  0.5576
  123OSM   H16F13061   3.355   0.825   4.292 -0.6264 -1.3310 -1.9398
  123OSM   H16G13062   3.503   0.877   4.368 -2.2113  1.2225 -0.4099
  123OSM   C17F13063   3.409   0.695   4.451 -0.2685  0.1627 -0.0666
  123OSM   H17F13064   3.350   0.750   4.527  0.6734  0.1390  0.6980
  123OSM   H17G13065   3.501   0.655   4.499 -0.5846  0.0178  0.4251
  123OSM   C18F13066   3.317   0.580   4.418  0.4795  0.1865 -0.2138
  123OSM   H18F13067   3.286   0.536   4.516  0.4120  0.2771 -0.1949
  123OSM   H18G13068   3.371   0.504   4.357 -1.0107  0.8703 -2.5123
  123OSM   H18H13069   3.221   0.611   4.372 -1.1383  0.3016  2.9297
  124OSM      N13070   3.970   3.257   2.282 -0.6450  0.0503  0.2962
  124OSM    C1513071   4.004   3.229   2.136 -0.2991 -0.1751 -0.2944
  124OSM   H15A13072   3.912   3.224   2.079 -0.3463 -0.3475 -0.2053
  124OSM   H15B13073   4.055   3.138   2.109 -0.2448  0.3386 -2.0466
  124OSM   H15C13074   4.063   3.306   2.091 -0.6141  0.2672  0.0353
  124OSM    C1413075   4.092   3.231   2.366 -0.1076  0.4813 -0.2955
  124OSM   H14A13076   4.176   3.281   2.320  0.5864 -1.8502 -1.7058
  124OSM   H14B13077   4.104   3.124   2.376  0.8774  0.5476 -0.7140
  124OSM   H14C13078   4.084   3.266   2.468  1.5925  0.1070 -0.0026
  124OSM    C1313079   3.936   3.401   2.287 -0.2347  0.3550 -0.2531
  124OSM   H13A13080   3.863   3.416   2.208 -0.7334 -2.9463 -0.5983
  124OSM   H13B13081   4.018   3.469   2.269  1.0911 -0.6044  1.7974
  124OSM   H13C13082   3.901   3.417   2.387  2.8286 -0.2275  1.0365
  124OSM    C1213083   3.852   3.167   2.320 -0.0525 -0.5079  0.2749
  124OSM   H12A13084   3.868   3.064   2.291 -3.3948 -0.9074 -0.5250
  124OSM   H12B13085   3.769   3.197   2.257 -0.3754 -2.3646 -0.2510
  124OSM    C1113086   3.802   3.155   2.465 -0.1207  0.4197  0.4833
  124OSM   H11A13087   3.868   3.090   2.526 -1.4813 -0.9080  0.5922
  124OSM   H11B13088   3.708   3.096   2.458  1.3744 -2.0066 -0.3172
  124OSM      P13089   3.643   3.355   2.536 -0.0675 -0.4322  0.1358
  124OSM    O1313090   3.655   3.449   2.649  0.6858  0.3665  0.0259
  124OSM    O1413091   3.607   3.404   2.403  0.5803 -0.3381 -0.3972
  124OSM    O1113092   3.548   3.234   2.573 -0.8430 -0.5330  0.0840
  124OSM    O1213093   3.790   3.291   2.518 -0.2028  0.2519 -0.7758
  124OSM    C1S13094   3.550   3.171   2.703  0.3111 -0.3656 -0.0485
  124OSM    H1S13095   3.625   3.209   2.776  0.1200  0.6185 -0.3467
  124OSM    H1T13096   3.585   3.067   2.688  2.7348 -0.2191  3.3608
  124OSM     NF13097   3.407   3.116   2.905  0.0398 -0.3858  0.0348
  124OSM    HNF13098   3.392   3.017   2.907 -1.6922 -0.3610 -3.3465
  124OSM    C2S13099   3.412   3.167   2.770 -0.4573  0.0601  1.0302
  124OSM    H2S13100   3.388   3.275   2.784  0.8562  0.3822  0.9140
  124OSM    C3S13101   3.308   3.111   2.671 -0.3553 -0.1167 -0.3127
  124OSM    H3S13102   3.321   3.002   2.652  0.0091 -0.0615 -0.3786
  124OSM     O313103   3.295   3.177   2.545 -0.2860 -0.5938  0.1072
  124OSM    HO313104   3.387   3.205   2.533  0.6501 -1.5903  3.7190
  124OSM    C4S13105   3.172   3.124   2.729  0.5413 -0.5683 -0.0200
  124OSM    H4S13106   3.136   3.227   2.743 -1.2290 -1.1072 -0.3922
  124OSM    C5S13107   3.097   3.020   2.774  0.0319 -0.2558 -0.6270
  124OSM    H5S13108   3.139   2.918   2.777  0.5403 -0.0264  1.6323
  124OSM    C6S13109   2.963   3.040   2.845  0.2313  0.5739 -0.6158
  124OSM    H6S13110   2.971   3.008   2.951 -2.0359  1.7855 -0.0085
  124OSM    H6T13111   2.893   2.974   2.790  0.6724 -1.2407  0.9088
  124OSM    C7S13112   2.912   3.184   2.852  0.0530 -1.2500  0.4867
  124OSM    H7S13113   2.928   3.229   2.752  3.2078 -1.0996  0.9310
  124OSM    H7T13114   2.974   3.250   2.918 -2.9437 -0.3198  2.6036
  124OSM    C8S13115   2.768   3.207   2.901  0.4350 -0.6285  0.2873
  124OSM    H8S13116   2.693   3.178   2.825  0.5568 -2.2043  0.7394
  124OSM    H8T13117   2.756   3.317   2.910 -1.2992 -0.6492 -1.2213
  124OSM    C9S13118   2.733   3.129   3.031  0.3652 -0.1873  0.0803
  124OSM    H9S13119   2.752   3.022   3.011  2.0967  0.4792 -2.3766
  124OSM    H9T13120   2.624   3.145   3.042  0.6323  1.2673  0.9465
  124OSM   C10S13121   2.820   3.169   3.151  0.4142  0.1606  0.1044
  124OSM   H10S13122   2.810   3.274   3.186 -0.9351 -0.0704  0.4471
  124OSM   H10T13123   2.927   3.162   3.121 -0.1340  1.9410 -2.7062
  124OSM   C11S13124   2.798   3.064   3.268  0.1290 -0.5206  0.1476
  124OSM   H11S13125   2.833   2.968   3.224 -0.1712 -0.6911  0.2773
  124OSM   H11T13126   2.687   3.056   3.269  0.0752 -0.5923 -1.8957
  124OSM   C12S13127   2.872   3.095   3.397 -0.1103  0.9899  0.8331
  124OSM   H12S13128   2.969   3.140   3.367  0.6033 -0.0798  1.4998
  124OSM   H12T13129   2.899   2.996   3.439  0.1056  0.7385  0.1196
  124OSM   C13S13130   2.800   3.176   3.491  0.3778  0.1411 -0.7145
  124OSM   H13S13131   2.698   3.132   3.498  0.5346 -0.3715 -1.5344
  124OSM   H13T13132   2.774   3.276   3.448  3.1913  0.6119 -1.4969
  124OSM   C14S13133   2.879   3.204   3.623 -0.1889  1.0795  0.1516
  124OSM   H14S13134   2.975   3.252   3.593 -0.6082 -0.6942 -5.1022
  124OSM   H14T13135   2.911   3.103   3.658  0.5896  0.5524 -1.9071
  124OSM   C15S13136   2.783   3.273   3.722 -0.9380 -0.4597  0.4351
  124OSM   H15S13137   2.695   3.212   3.751 -2.2763  1.7100  1.1792
  124OSM   H15T13138   2.745   3.368   3.680  1.6460  0.3979 -0.1636
  124OSM   C16S13139   2.857   3.308   3.852 -0.0735  0.0499 -0.6416
  124OSM   H16S13140   2.882   3.416   3.855 -0.9773  0.2590 -0.5075
  124OSM   H16T13141   2.957   3.260   3.849 -0.8406 -1.6791  0.0828
  124OSM   C17S13142   2.780   3.259   3.977  0.0928  0.1882  0.5315
  124OSM   H17S13143   2.673   3.285   3.963 -0.0861 -1.0357 -0.6065
  124OSM   H17T13144   2.807   3.322   4.064 -0.2560  0.0851  0.7195
  124OSM   C18S13145   2.798   3.111   4.008 -0.3270 -0.4759  0.6549
  124OSM   H18S13146   2.727   3.054   3.943  2.7538 -4.0444  0.0598
  124OSM   H18T13147   2.785   3.089   4.116  0.8839  0.6318  1.0460
  124OSM   H18U13148   2.896   3.078   3.968  1.2161  0.9353  3.1005
  124OSM    C1F13149   3.480   3.172   3.003  0.4658 -0.2469 -0.5106
  124OSM     OF13150   3.516   3.287   2.991 -0.2184  0.4873 -0.0447
  124OSM    C2F13151   3.512   3.083   3.126  0.0592 -0.0953 -0.2227
  124OSM    H2F13152   3.620   3.081   3.150  0.0841 -0.1974 -0.3409
  124OSM    H2G13153   3.480   2.979   3.104  1.2588 -0.2859 -1.1993
  124OSM    C3F13154   3.428   3.143   3.240  0.6510 -0.3027 -0.7320
  124OSM    H3F13155   3.320   3.152   3.216  0.5631  1.0301  0.0534
  124OSM    H3G13156   3.455   3.250   3.251  0.5420 -0.3752  0.3507
  124OSM    C4F13157   3.447   3.080   3.384 -0.5162 -0.6161 -0.0438
  124OSM    H4F13158   3.555   3.083   3.412 -0.7773 -0.8993  1.0381
  124OSM    H4G13159   3.437   2.969   3.389  1.0417 -0.7585  0.4760
  124OSM    C5F13160   3.370   3.151   3.487 -0.6403  0.9408  0.0680
  124OSM    H5F13161   3.267   3.172   3.452 -1.1824 -2.2183 -0.5990
  124OSM    H5G13162   3.419   3.247   3.513  1.3610  0.0843 -0.2901
  124OSM    C6F13163   3.389   3.086   3.633 -0.7760  0.5271  0.1184
  124OSM    H6F13164   3.499   3.086   3.648 -0.4546 -1.8891 -1.6423
  124OSM    H6G13165   3.354   2.980   3.632 -0.7422  0.4746 -2.3005
  124OSM    C7F13166   3.308   3.152   3.738  0.1081  0.2322 -0.8356
  124OSM    H7F13167   3.207   3.163   3.693 -0.0386  1.2613 -0.2931
  124OSM    H7G13168   3.350   3.255   3.741 -1.5505  0.9300 -0.9246
  124OSM    C8F13169   3.290   3.080   3.876  0.4357 -0.6384  0.2924
  124OSM    H8F13170   3.390   3.058   3.919 -0.1003 -3.6404  0.2414
  124OSM    H8G13171   3.251   2.976   3.881 -3.9602  0.8459  2.1857
  124OSM    C9F13172   3.206   3.150   3.972  0.0526  0.1333  0.1008
  124OSM    H9F13173   3.098   3.127   3.968  0.1653 -0.2556 -0.7959
  124OSM   C10F13174   3.241   3.262   4.030 -0.8172  0.3180 -0.7503
  124OSM   H10F13175   3.176   3.293   4.113 -0.4482 -4.0782  1.5146
  124OSM   C11F13176   3.379   3.313   4.033 -0.0063  0.1659 -0.2105
  124OSM   H11F13177   3.375   3.395   3.957  0.5421 -1.0776 -1.6260
  124OSM   H11G13178   3.458   3.247   3.991  1.0244  1.1005  0.1970
  124OSM   C12F13179   3.409   3.382   4.168  1.1540  0.0808  0.0367
  124OSM   H12F13180   3.339   3.466   4.187 -0.7743 -1.5771  0.6096
  124OSM   H12G13181   3.510   3.428   4.160 -0.2377  3.1017 -2.2496
  124OSM   C13F13182   3.410   3.284   4.284  0.0948 -0.7640 -0.1072
  124OSM   H13F13183   3.509   3.232   4.283  1.3059  1.3678  1.0599
  124OSM   H13G13184   3.329   3.210   4.270  0.2049 -0.3938 -3.5829
  124OSM   C14F13185   3.405   3.342   4.424  0.4697 -0.0742 -0.1449
  124OSM   H14F13186   3.303   3.381   4.444 -0.3336 -2.5072  0.9671
  124OSM   H14G13187   3.483   3.420   4.432 -0.1608  0.7862 -2.0153
  124OSM   C15F13188   3.427   3.230   4.540 -0.0193 -0.4068  0.9495
  124OSM   H15F13189   3.532   3.195   4.538 -0.3633 -1.8677 -3.4724
  124OSM   H15G13190   3.357   3.149   4.512 -0.3304 -0.1118  0.8684
  124OSM   C16F13191   3.380   3.264   4.684  0.5195  0.5363  0.2862
  124OSM   H16F13192   3.387   3.174   4.748 -0.7188  1.6837  2.1569
  124OSM   H16G13193   3.271   3.286   4.689 -0.1847 -2.6864  1.1044
  124OSM   C17F13194   3.457   3.374   4.752  0.8288 -0.8998  1.0223
  124OSM   H17F13195   3.395   3.392   4.842 -0.8082  1.5865 -0.4818
  124OSM   H17G13196   3.446   3.468   4.694 -1.4086 -0.4064  2.1494
  124OSM   C18F13197   3.592   3.331   4.791  0.7156 -0.0182 -0.3353
  124OSM   H18F13198   3.595   3.222   4.811  0.6154 -0.3080 -1.8041
  124OSM   H18G13199   3.636   3.376   4.883 -0.4840 -0.0361  0.2603
  124OSM   H18H13200   3.671   3.350   4.715  0.3491  1.1611 -0.4493
  125OSM      N13201   4.010   6.661   2.231  0.5135  0.4743 -0.2780
  125OSM    C1513202   4.023   6.523   2.189 -0.4713  0.3669  0.4869
  125OSM   H15A13203   4.099   6.504   2.115 -0.8678  0.5964  0.0096
  125OSM   H15B13204   3.945   6.487   2.122  0.7513 -2.2681  0.3528
  125OSM   H15C13205   4.025   6.448   2.267  1.2792 -2.2025 -1.8255
  125OSM    C1413206   4.145   6.715   2.262 -0.3949  0.0225 -0.0480
  125OSM   H14A13207   4.143   6.823   2.273  2.1822  0.5554 -3.2660
  125OSM   H14B13208   4.218   6.706   2.184 -0.4668  0.5602 -0.1869
  125OSM   H14C13209   4.193   6.668   2.346 -0.3119  3.4320  2.0147
  125OSM    C1313210   3.967   6.750   2.121  0.6590 -0.4808  0.9680
  125OSM   H13A13211   4.041   6.753   2.042  1.3012 -1.4197  1.5196
  125OSM   H13B13212   3.944   6.849   2.159 -0.1320 -1.2770  2.6359
  125OSM   H13C13213   3.876   6.712   2.077  1.2248 -2.2469  1.2409
  125OSM    C1213214   3.915   6.671   2.342  0.4220 -0.0820  0.0775
  125OSM   H12A13215   3.818   6.634   2.313  0.2939  0.4337 -0.1743
  125OSM   H12B13216   3.902   6.775   2.368  3.3502  0.3675  0.1287
  125OSM    C1113217   3.933   6.579   2.468  0.2644 -0.1335  0.5019
  125OSM   H11A13218   3.852   6.614   2.535 -1.6433 -1.0223 -1.2521
  125OSM   H11B13219   4.033   6.595   2.514 -0.1871 -1.2472  1.9229
  125OSM      P13220   3.780   6.362   2.453  0.3029  0.3744  0.2730
  125OSM    O1313221   3.670   6.443   2.394  0.5110 -0.6980  0.1683
  125OSM    O1413222   3.805   6.223   2.397  0.0037  0.5396  0.2355
  125OSM    O1113223   3.770   6.354   2.610 -0.0987 -0.5561  0.3291
  125OSM    O1213224   3.920   6.438   2.429  0.6130  0.0451  0.0264
  125OSM    C1S13225   3.862   6.275   2.684  0.2037  0.5112 -0.1466
  125OSM    H1S13226   3.938   6.335   2.738  0.5158 -1.8026  2.1667
  125OSM    H1T13227   3.920   6.220   2.607 -1.6028 -0.2610 -1.0369
  125OSM     NF13228   3.911   6.075   2.840 -0.2607  0.2542  0.2222
  125OSM    HNF13229   3.901   5.984   2.801  0.8739 -0.3285  1.2199
  125OSM    C2S13230   3.806   6.175   2.795 -0.0526  0.3264  0.3131
  125OSM    H2S13231   3.782   6.244   2.878  1.3112  1.0088  0.1749
  125OSM    C3S13232   3.672   6.103   2.754  0.3031  0.1354  0.8992
  125OSM    H3S13233   3.699   6.023   2.682 -0.5361  0.6082  0.0401
  125OSM     O313234   3.579   6.174   2.675 -0.0881 -0.3005  0.2421
  125OSM    HO313235   3.621   6.254   2.643  2.5235 -1.9029 -0.6680
  125OSM    C4S13236   3.601   6.022   2.868 -0.5091 -0.2958 -0.2571
  125OSM    H4S13237   3.570   6.091   2.948  0.9343  0.9191 -0.6861
  125OSM    C5S13238   3.559   5.892   2.867 -0.3558  0.3045  0.0025
  125OSM    H5S13239   3.563   5.832   2.775 -0.3514 -3.6190  2.2914
  125OSM    C6S13240   3.492   5.826   2.982 -0.3429  0.1403  0.0201
  125OSM    H6S13241   3.524   5.720   2.982  0.7660  0.4653  0.4056
  125OSM    H6T13242   3.382   5.825   2.962 -0.5739 -0.5853  1.2757
  125OSM    C7S13243   3.532   5.874   3.119  0.6578 -0.2548 -0.3872
  125OSM    H7S13244   3.507   5.982   3.127  0.4611 -0.1713 -1.9524
  125OSM    H7T13245   3.640   5.856   3.136  0.4950 -0.7187  0.1985
  125OSM    C8S13246   3.465   5.788   3.235  0.1651  0.9502 -0.4411
  125OSM    H8S13247   3.539   5.706   3.245 -1.6415 -0.9470 -2.0303
  125OSM    H8T13248   3.369   5.738   3.212  1.2499 -1.2594 -0.4304
  125OSM    C9S13249   3.444   5.870   3.356 -0.1628  0.0136  0.4859
  125OSM    H9S13250   3.368   5.950   3.341 -0.8831 -0.4845  1.3232
  125OSM    H9T13251   3.538   5.923   3.379 -1.4347  1.9477  1.5453
  125OSM   C10S13252   3.400   5.786   3.474  0.1150 -0.3013 -0.1282
  125OSM   H10S13253   3.441   5.682   3.475 -2.9136 -1.6507  2.2541
  125OSM   H10T13254   3.289   5.785   3.468 -0.0621  1.7916  1.5918
  125OSM   C11S13255   3.446   5.843   3.610  0.1050 -0.7110  0.3376
  125OSM   H11S13256   3.400   5.944   3.611  1.3387 -0.1204 -0.4004
  125OSM   H11T13257   3.554   5.856   3.630  0.1551  0.2155 -0.4566
  125OSM   C12S13258   3.382   5.763   3.731  0.8980 -0.2535  0.6646
  125OSM   H12S13259   3.428   5.662   3.726 -0.3193 -0.8810  1.6824
  125OSM   H12T13260   3.271   5.763   3.727  0.8157  2.4434  1.1063
  125OSM   C13S13261   3.430   5.815   3.864  0.0580 -0.0429 -0.4099
  125OSM   H13S13262   3.401   5.922   3.864  0.1018 -0.0285 -0.8902
  125OSM   H13T13263   3.541   5.812   3.868  0.0591  1.0726  1.2055
  125OSM   C14S13264   3.381   5.737   3.987  0.3773 -0.0709 -0.2493
  125OSM   H14S13265   3.367   5.629   3.965  0.1702 -0.0664 -0.1413
  125OSM   H14T13266   3.278   5.779   3.996  0.2798 -0.1048 -1.0738
  125OSM   C15S13267   3.457   5.761   4.113 -0.0667  0.6113 -0.2499
  125OSM   H15S13268   3.483   5.869   4.113  1.5626  0.2495  0.5634
  125OSM   H15T13269   3.556   5.711   4.107 -0.0910  0.4899  0.3348
  125OSM   C16S13270   3.389   5.726   4.239  0.0296  0.2295  0.1642
  125OSM   H16S13271   3.290   5.775   4.240 -0.5551 -0.9155  0.0486
  125OSM   H16T13272   3.443   5.765   4.328  0.6808  0.2099 -0.2137
  125OSM   C17S13273   3.382   5.574   4.265 -0.3342 -0.2286 -0.0787
  125OSM   H17S13274   3.477   5.518   4.253 -0.5051 -0.8029  1.0668
  125OSM   H17T13275   3.308   5.527   4.198 -3.4140  0.0700  2.8333
  125OSM   C18S13276   3.325   5.561   4.412  0.9975 -0.2347 -0.3141
  125OSM   H18S13277   3.289   5.458   4.430 -1.4785  0.3371 -1.6117
  125OSM   H18T13278   3.229   5.617   4.408  1.4142  0.4494 -2.3037
  125OSM   H18U13279   3.387   5.608   4.491 -1.0102  2.7187 -0.3365
  125OSM    C1F13280   4.024   6.105   2.911  0.5536  0.2807  0.0314
  125OSM     OF13281   4.048   6.225   2.935 -0.1472  0.0790 -0.8699
  125OSM    C2F13282   4.117   5.995   2.954 -0.2352  0.4791  0.6089
  125OSM    H2F13283   4.208   6.035   3.003 -0.5136 -0.2707  1.7970
  125OSM    H2G13284   4.145   5.949   2.857 -0.8808 -0.6606  0.9310
  125OSM    C3F13285   4.049   5.902   3.050  0.0205 -0.6257  0.1990
  125OSM    H3F13286   4.119   5.819   3.074 -0.9612 -1.8164 -0.9182
  125OSM    H3G13287   3.949   5.870   3.012  0.3152 -0.4782 -0.7096
  125OSM    C4F13288   4.017   5.967   3.189  0.6644  0.4359 -0.0555
  125OSM    H4F13289   3.943   6.044   3.157  2.5409  1.4887 -2.0653
  125OSM    H4G13290   4.110   6.011   3.231 -0.2823  2.7925 -0.2878
  125OSM    C5F13291   3.951   5.874   3.291  0.0493 -0.3407 -0.6941
  125OSM    H5F13292   3.969   5.768   3.264 -1.2576 -1.5366  2.5977
  125OSM    H5G13293   3.842   5.896   3.291  0.2017  0.5439 -2.1198
  125OSM    C6F13294   4.012   5.888   3.436 -0.1030  0.3512  0.4526
  125OSM    H6F13295   4.011   5.997   3.455  2.3404  0.7567 -1.2612
  125OSM    H6G13296   4.117   5.852   3.438  0.4135  1.8044  0.9163
  125OSM    C7F13297   3.927   5.812   3.532  0.5136  0.1794 -0.0714
  125OSM    H7F13298   3.932   5.704   3.506 -1.5906 -0.9369  3.4365
  125OSM    H7G13299   3.824   5.854   3.523  0.4282  0.0154  0.1356
  125OSM    C8F13300   3.988   5.824   3.673  0.6643 -0.1231  0.3566
  125OSM    H8F13301   3.994   5.929   3.708  2.8321  0.7182 -2.1976
  125OSM    H8G13302   4.097   5.810   3.658  0.2803 -1.0123 -2.1397
  125OSM    C9F13303   3.929   5.731   3.778 -0.2866 -0.6083 -0.1517
  125OSM    H9F13304   3.897   5.636   3.735 -2.4130 -0.5437  1.1702
  125OSM   C10F13305   3.884   5.756   3.902  0.9572 -0.9015 -0.2859
  125OSM   H10F13306   3.854   5.668   3.962  2.1525 -0.7306  0.5935
  125OSM   C11F13307   3.897   5.883   3.985 -0.3955 -0.1932 -0.0619
  125OSM   H11F13308   3.799   5.894   4.035 -0.2297 -4.3203  1.5348
  125OSM   H11G13309   3.908   5.973   3.920  1.1223 -1.6607 -1.9719
  125OSM   C12F13310   4.008   5.877   4.095  0.9503  0.8478  0.1288
  125OSM   H12F13311   4.112   5.875   4.054  0.7962  2.9914 -0.5156
  125OSM   H12G13312   3.983   5.788   4.156  1.9941 -0.4137 -1.2257
  125OSM   C13F13313   4.010   5.997   4.192 -0.1032 -0.9180  0.2432
  125OSM   H13F13314   4.025   6.090   4.132 -3.6565  2.0073  3.3839
  125OSM   H13G13315   4.108   5.998   4.243  0.5792  0.2056 -1.0073
  125OSM   C14F13316   3.887   6.026   4.270 -0.3445 -0.3557  1.0917
  125OSM   H14F13317   3.871   5.937   4.335 -1.2892 -0.0128  1.3369
  125OSM   H14G13318   3.800   6.025   4.202 -1.9499  3.3572  2.8019
  125OSM   C15F13319   3.894   6.161   4.347  0.4361  0.0743 -0.1409
  125OSM   H15F13320   3.793   6.186   4.384  0.1304 -2.0040  0.5316
  125OSM   H15G13321   3.932   6.238   4.276 -0.1916  1.4796  1.0011
  125OSM   C16F13322   3.983   6.142   4.473  0.7240 -0.4334  0.3621
  125OSM   H16F13323   4.020   6.241   4.506 -0.5534  0.0084  0.5364
  125OSM   H16G13324   4.074   6.082   4.454 -0.9265 -3.4986  1.3069
  125OSM   C17F13325   3.902   6.063   4.579 -0.2767 -0.1125 -0.1280
  125OSM   H17F13326   3.896   5.962   4.532 -0.3411  1.1163 -2.9587
  125OSM   H17G13327   3.793   6.083   4.585 -0.4798 -1.1681 -0.0790
  125OSM   C18F13328   3.962   6.057   4.713  0.8403  0.7319 -0.1918
  125OSM   H18F13329   3.885   6.027   4.787 -0.1706 -2.9617 -2.4922
  125OSM   H18G13330   4.027   6.143   4.741 -0.6334  0.9536  2.9794
  125OSM   H18H13331   4.024   5.965   4.712 -0.1411  0.0523  0.3856
  126OSM      N13332   3.223   0.663   1.902  0.0776  0.8663 -0.0607
  126OSM    C1513333   3.220   0.549   2.002  0.5893 -0.2584  0.0136
  126OSM   H15A13334   3.256   0.456   1.961 -1.1731 -0.2122 -1.7823
  126OSM   H15B13335   3.120   0.519   2.030  1.4737 -2.3952  1.1225
  126OSM   H15C13336   3.280   0.562   2.091 -1.2232 -0.8210  1.4024
  126OSM    C1413337   3.362   0.680   1.865 -0.3034  0.1042 -0.9911
  126OSM   H14A13338   3.372   0.750   1.784 -2.0347  1.6261  0.0262
  126OSM   H14B13339   3.403   0.582   1.845 -0.0838 -0.2979  1.1120
  126OSM   H14C13340   3.428   0.717   1.942  1.8929 -1.8091 -1.8423
  126OSM    C1313341   3.141   0.627   1.771 -0.1627 -0.0824 -0.4496
  126OSM   H13A13342   3.176   0.528   1.743  1.2363 -0.3632  1.9862
  126OSM   H13B13343   3.142   0.704   1.696  1.4693  1.8375  1.4483
  126OSM   H13C13344   3.039   0.621   1.806  0.1180  1.8108  0.7745
  126OSM    C1213345   3.167   0.785   1.967  0.0449 -0.1061  0.6098
  126OSM   H12A13346   3.148   0.859   1.891 -1.0643  1.1968  2.0862
  126OSM   H12B13347   3.249   0.820   2.028  0.6221 -2.2674  1.1808
  126OSM    C1113348   3.045   0.775   2.070  0.6616  0.5998 -0.5525
  126OSM   H11A13349   3.038   0.867   2.132 -1.9469  0.3883 -0.4198
  126OSM   H11B13350   3.057   0.698   2.149 -0.7786  1.9662  1.0741
  126OSM      P13351   2.821   0.655   2.026  0.0692 -0.1203 -0.0261
  126OSM    O1313352   2.690   0.694   1.967  0.2842 -0.0749 -0.6420
  126OSM    O1413353   2.879   0.523   1.993  0.5884  0.0928 -0.0421
  126OSM    O1113354   2.818   0.647   2.190  0.2670  0.0130 -0.0260
  126OSM    O1213355   2.928   0.771   2.002  0.2245  0.2720  0.1559
  126OSM    C1S13356   2.764   0.752   2.272 -0.0848  0.1994  0.8460
  126OSM    H1S13357   2.679   0.798   2.218  1.9627  0.9078 -2.0527
  126OSM    H1T13358   2.839   0.831   2.292  0.2359  0.4206 -1.0818
  126OSM     NF13359   2.622   0.796   2.471 -0.5666  0.6543  0.0147
  126OSM    HNF13360   2.676   0.850   2.535 -0.8898 -0.5444  1.3426
  126OSM    C2S13361   2.701   0.691   2.396 -0.1432 -0.1528 -0.2592
  126OSM    H2S13362   2.629   0.613   2.362  0.8922  0.4377 -4.3126
  126OSM    C3S13363   2.815   0.616   2.475 -0.5049  0.1450 -0.7576
  126OSM    H3S13364   2.905   0.677   2.499 -0.4834  0.0744 -0.6589
  126OSM     O313365   2.875   0.507   2.407  0.4798 -1.0434  0.6159
  126OSM    HO313366   2.868   0.528   2.314 -1.7050 -0.8258  0.7649
  126OSM    C4S13367   2.772   0.576   2.614  0.0261 -0.5018  0.6351
  126OSM    H4S13368   2.691   0.502   2.612  1.5258 -2.1885  0.6420
  126OSM    C5S13369   2.819   0.613   2.735 -0.0962 -0.1499  0.3201
  126OSM    H5S13370   2.901   0.686   2.738  0.3666 -0.6171 -0.4696
  126OSM    C6S13371   2.766   0.579   2.871 -0.0227  0.7819 -0.5598
  126OSM    H6S13372   2.663   0.538   2.857  1.0350 -1.4662 -2.6081
  126OSM    H6T13373   2.777   0.670   2.932  1.8181 -0.4857  1.1142
  126OSM    C7S13374   2.848   0.474   2.941 -0.1153 -0.2246  0.2048
  126OSM    H7S13375   2.950   0.511   2.962 -0.7755  0.0681  3.3319
  126OSM    H7T13376   2.851   0.385   2.875 -0.4731 -0.4324  0.4671
  126OSM    C8S13377   2.795   0.433   3.081 -1.1775 -0.7585 -0.2924
  126OSM    H8S13378   2.700   0.376   3.082 -0.1896 -2.4789 -0.7701
  126OSM    H8T13379   2.773   0.532   3.126 -1.6855 -0.4306 -1.2355
  126OSM    C9S13380   2.899   0.375   3.177 -0.6026 -0.3437 -0.8781
  126OSM    H9S13381   2.993   0.433   3.177  0.4303 -1.8696 -3.1146
  126OSM    H9T13382   2.933   0.275   3.140 -1.3561 -0.8622 -0.2110
  126OSM   C10S13383   2.833   0.348   3.317  0.4529 -0.1014  0.0858
  126OSM   H10S13384   2.735   0.297   3.309  0.0243  0.9438 -1.9905
  126OSM   H10T13385   2.822   0.448   3.364 -0.2940  0.3455 -1.0002
  126OSM   C11S13386   2.915   0.245   3.398 -0.0100  0.1307  0.0099
  126OSM   H11S13387   3.021   0.279   3.396  0.5801 -1.2232  2.6472
  126OSM   H11T13388   2.918   0.145   3.350 -1.7508 -0.0042  0.1207
  126OSM   C12S13389   2.856   0.241   3.538  0.3085  0.4113  0.9424
  126OSM   H12S13390   2.755   0.198   3.527  0.3325 -0.8211  4.3938
  126OSM   H12T13391   2.852   0.345   3.577  1.4505  1.7627 -2.1785
  126OSM   C13S13392   2.936   0.150   3.630 -0.7633 -0.1171 -0.2552
  126OSM   H13S13393   3.027   0.198   3.673 -0.9384 -0.8409  0.9799
  126OSM   H13T13394   2.967   0.061   3.571 -1.7895 -0.5796 -0.1190
  126OSM   C14S13395   2.854   0.096   3.750 -0.2452 -0.2641 -0.0958
  126OSM   H14S13396   2.903   0.012   3.803  0.4487  1.3548  1.9532
  126OSM   H14T13397   2.756   0.051   3.724 -0.8243  0.4512  0.7933
  126OSM   C15S13398   2.819   0.213   3.848 -0.0233 -0.0366  0.3683
  126OSM   H15S13399   2.760   0.294   3.800 -1.3133 -1.2024 -0.0751
  126OSM   H15T13400   2.919   0.254   3.871  1.3253 -2.7025 -0.3473
  126OSM   C16S13401   2.737   0.168   3.970  0.0554 -0.2208 -0.4243
  126OSM   H16S13402   2.788   0.072   3.995  0.6491 -0.6430 -3.0107
  126OSM   H16T13403   2.635   0.151   3.931  0.0686 -1.3987  0.0077
  126OSM   C17S13404   2.730   0.281   4.076 -0.9816  0.0458 -0.8883
  126OSM   H17S13405   2.831   0.324   4.091 -1.2397  0.8162 -1.3269
  126OSM   H17T13406   2.705   0.222   4.167  0.9334 -1.0193 -1.0058
  126OSM   C18S13407   2.631   0.400   4.063 -0.3039  0.4665  0.5515
  126OSM   H18S13408   2.659   0.466   4.147 -0.1744  3.1862 -1.4688
  126OSM   H18T13409   2.530   0.361   4.087 -0.1557  1.0866  2.3095
  126OSM   H18U13410   2.625   0.453   3.966 -0.5390  0.8559  0.7785
  126OSM    C1F13411   2.505   0.839   2.427  0.5634 -0.0069  0.2534
  126OSM     OF13412   2.461   0.798   2.323  0.1384  0.0870 -0.1425
  126OSM    C2F13413   2.445   0.961   2.498  0.5631  0.7836  0.3602
  126OSM    H2F13414   2.476   1.051   2.441 -1.6600  0.4662 -1.5096
  126OSM    H2G13415   2.482   0.950   2.602  1.0409 -2.9174 -0.0353
  126OSM    C3F13416   2.295   0.953   2.494  0.1479  0.2985  0.2144
  126OSM    H3F13417   2.242   0.860   2.523 -1.1350  1.0302  0.2951
  126OSM    H3G13418   2.262   0.961   2.388  0.1897 -1.0678  0.0784
  126OSM    C4F13419   2.232   1.069   2.564 -0.9974 -0.5897  0.4532
  126OSM    H4F13420   2.128   1.093   2.533 -1.4620  0.1517  2.4216
  126OSM    H4G13421   2.283   1.165   2.545 -1.5110 -0.3636  0.1837
  126OSM    C5F13422   2.197   1.048   2.710 -0.7785 -0.2500  0.0257
  126OSM    H5F13423   2.291   1.014   2.758  1.4980  4.6724 -0.4105
  126OSM    H5G13424   2.115   0.974   2.726 -1.8089  0.6651 -0.8323
  126OSM    C6F13425   2.176   1.187   2.780  0.3437  0.6288  0.2995
  126OSM    H6F13426   2.113   1.251   2.714 -0.1771  0.1801  0.3528
  126OSM    H6G13427   2.270   1.245   2.776  0.6753  0.0466 -2.1052
  126OSM    C7F13428   2.119   1.179   2.925  0.1359  0.1984  0.4278
  126OSM    H7F13429   2.177   1.097   2.973  1.0579  0.6696  0.1579
  126OSM    H7G13430   2.015   1.143   2.921  1.2703 -3.3483 -2.3269
  126OSM    C8F13431   2.136   1.306   3.010 -1.1523 -0.0169 -0.2049
  126OSM    H8F13432   2.083   1.393   2.964  1.2584  1.8389  0.3080
  126OSM    H8G13433   2.243   1.335   3.015 -0.9053 -0.5836 -1.6874
  126OSM    C9F13434   2.079   1.266   3.143 -0.2796 -0.1078  0.3441
  126OSM    H9F13435   1.969   1.257   3.144 -0.3835  0.9278 -0.2773
  126OSM   C10F13436   2.148   1.269   3.264 -0.0835 -0.6325  0.7685
  126OSM   H10F13437   2.100   1.251   3.361 -1.1494 -2.2572 -0.0129
  126OSM   C11F13438   2.295   1.281   3.278  0.1821 -1.1181 -0.4713
  126OSM   H11F13439   2.358   1.299   3.188  2.8740 -1.5674  1.2060
  126OSM   H11G13440   2.335   1.183   3.313 -0.5264 -0.6070  1.9434
  126OSM   C12F13441   2.337   1.383   3.389  0.0309 -0.6765 -0.0620
  126OSM   H12F13442   2.274   1.473   3.372  0.2215 -1.0181 -3.1990
  126OSM   H12G13443   2.441   1.411   3.362  0.6520 -2.6482  0.1235
  126OSM   C13F13444   2.328   1.329   3.533 -0.6330 -0.0557 -0.1415
  126OSM   H13F13445   2.355   1.222   3.542  0.2418 -0.3291 -3.9526
  126OSM   H13G13446   2.226   1.343   3.575 -0.3176 -0.2608  0.7020
  126OSM   C14F13447   2.433   1.404   3.621  0.3056  0.1742  0.6111
  126OSM   H14F13448   2.399   1.510   3.631 -1.5619 -0.0624 -2.2595
  126OSM   H14G13449   2.530   1.398   3.567 -0.1088  0.3309 -0.1605
  126OSM   C15F13450   2.428   1.357   3.768 -0.4619 -0.0240 -0.0585
  126OSM   H15F13451   2.423   1.246   3.771 -0.4478 -0.0085  0.6580
  126OSM   H15G13452   2.332   1.395   3.809  1.3843  2.7018  2.1194
  126OSM   C16F13453   2.544   1.411   3.860 -0.3626 -0.0518  0.5150
  126OSM   H16F13454   2.544   1.522   3.864 -0.1709  0.0282 -1.0669
  126OSM   H16G13455   2.645   1.391   3.818 -1.4150 -1.8343 -1.3549
  126OSM   C17F13456   2.540   1.363   4.001 -0.7382 -0.6956 -0.4694
  126OSM   H17F13457   2.433   1.361   4.031 -0.4643 -1.3181  0.5337
  126OSM   H17G13458   2.606   1.436   4.053  1.0280 -1.5904 -1.3547
  126OSM   C18F13459   2.591   1.222   4.044 -0.7947 -0.2178 -0.1704
  126OSM   H18F13460   2.700   1.216   4.024 -0.4438 -0.7505  1.7043
  126OSM   H18G13461   2.535   1.147   3.986 -2.3855  0.6504  0.1926
  126OSM   H18H13462   2.582   1.201   4.153  0.5862 -0.0074 -0.0005
  127OSM      N13463   3.457   1.314   2.349  0.1990 -1.0900 -0.2551
  127OSM    C1513464   3.374   1.191   2.332 -0.0075 -0.4556 -0.2876
  127OSM   H15A13465   3.326   1.164   2.425 -0.5750  0.3993 -0.3265
  127OSM   H15B13466   3.434   1.104   2.309 -2.3981 -1.8810 -1.5154
  127OSM   H15C13467   3.303   1.203   2.251 -2.5136  0.4478  1.9079
  127OSM    C1413468   3.563   1.289   2.451 -0.7977  0.9639 -0.3807
  127OSM   H14A13469   3.513   1.253   2.539 -0.7804  1.2035 -0.2705
  127OSM   H14B13470   3.622   1.377   2.476 -1.0778  1.6664 -2.0283
  127OSM   H14C13471   3.630   1.211   2.418 -0.6927  1.3512 -1.1015
  127OSM    C1313472   3.526   1.352   2.218 -0.9510 -0.2744  0.5026
  127OSM   H13A13473   3.459   1.338   2.135  0.2983 -1.6844 -0.3194
  127OSM   H13B13474   3.609   1.283   2.212 -1.2143 -0.6545  1.1601
  127OSM   H13C13475   3.576   1.448   2.215 -1.5485  0.0211 -0.1703
  127OSM    C1213476   3.369   1.428   2.390 -0.5614  0.1052 -0.3036
  127OSM   H12A13477   3.295   1.442   2.313  1.9561 -1.9396 -3.3477
  127OSM   H12B13478   3.431   1.515   2.394  0.8431 -0.8888  0.3236
  127OSM    C1113479   3.304   1.407   2.525 -0.7898  0.8183  0.1581
  127OSM   H11A13480   3.258   1.500   2.565  0.4747  1.4296  0.2379
  127OSM   H11B13481   3.376   1.373   2.603 -1.1801 -1.4569 -0.4183
  127OSM      P13482   3.070   1.328   2.434 -0.0667 -0.2089  0.7070
  127OSM    O1313483   3.092   1.373   2.296 -0.3292 -0.2433  0.3946
  127OSM    O1413484   2.994   1.201   2.452 -0.9902 -0.0395 -0.1430
  127OSM    O1113485   3.018   1.443   2.521 -0.0541 -0.2571  0.0896
  127OSM    O1213486   3.210   1.300   2.501  0.0400 -0.2518  0.0153
  127OSM    C1S13487   2.977   1.416   2.654 -0.3904  0.1896  0.1616
  127OSM    H1S13488   3.053   1.353   2.706  0.6114  0.1874 -1.2495
  127OSM    H1T13489   2.875   1.372   2.659 -0.7727  1.0194 -0.1836
  127OSM     NF13490   2.902   1.538   2.863 -0.5066  0.6250  0.5214
  127OSM    HNF13491   2.803   1.552   2.864 -0.4208  1.6252 -1.0555
  127OSM    C2S13492   2.960   1.558   2.727  0.1359 -0.6482  1.0269
  127OSM    H2S13493   3.064   1.593   2.742  0.2128 -0.6429  0.5113
  127OSM    C3S13494   2.887   1.666   2.638 -0.0062 -0.5206 -0.0273
  127OSM    H3S13495   2.785   1.632   2.609  0.3121 -0.4271 -1.3590
  127OSM     O313496   2.960   1.697   2.522  0.0843  0.0976 -0.2698
  127OSM    HO313497   3.019   1.624   2.504  0.6201 -0.3148  2.6596
  127OSM    C4S13498   2.867   1.790   2.718  0.7177 -0.8033  0.3918
  127OSM    H4S13499   2.963   1.836   2.745  0.4475 -0.6560  1.1206
  127OSM    C5S13500   2.749   1.853   2.742 -0.7905 -0.3425  0.1427
  127OSM    H5S13501   2.651   1.805   2.729 -1.4741 -0.0660  3.4628
  127OSM    C6S13502   2.743   1.990   2.805  0.8066  0.3470 -0.0444
  127OSM    H6S13503   2.642   2.008   2.847 -0.2918 -0.0123 -2.3304
  127OSM    H6T13504   2.759   2.062   2.722  3.1470 -0.9951 -0.8559
  127OSM    C7S13505   2.861   2.025   2.901 -0.3164  0.5710 -0.5418
  127OSM    H7S13506   2.852   2.134   2.920 -2.9857  0.6055 -1.5644
  127OSM    H7T13507   2.952   2.015   2.839  0.1162  0.6003  0.0788
  127OSM    C8S13508   2.875   1.939   3.030  0.4995  0.3597 -0.0569
  127OSM    H8S13509   2.943   1.853   3.015 -1.3618 -1.7700  2.6524
  127OSM    H8T13510   2.777   1.890   3.047  1.1307 -1.3402 -1.0845
  127OSM    C9S13511   2.914   2.029   3.151  0.4005 -0.4448  0.6981
  127OSM    H9S13512   2.849   2.118   3.165 -1.0045 -1.5793  1.7181
  127OSM    H9T13513   3.015   2.072   3.133 -0.2221  1.2587  1.0731
  127OSM   C10S13514   2.905   1.948   3.279 -0.5849 -0.5119 -1.2059
  127OSM   H10S13515   2.990   1.877   3.275  1.1923  1.2704  1.4125
  127OSM   H10T13516   2.815   1.887   3.301 -0.9485  0.9362  1.9152
  127OSM   C11S13517   2.930   2.024   3.411 -0.5433  0.6361 -0.2803
  127OSM   H11S13518   2.955   1.940   3.480  0.7116  1.1988 -0.0211
  127OSM   H11T13519   2.834   2.069   3.444  0.4698  2.4320  0.3483
  127OSM   C12S13520   3.046   2.120   3.428  0.5156  0.1328 -0.2367
  127OSM   H12S13521   3.058   2.190   3.342  0.4092 -0.7911 -1.0182
  127OSM   H12T13522   3.137   2.056   3.423  1.1825  0.7787  2.1298
  127OSM   C13S13523   3.041   2.201   3.555 -0.8891  0.0011 -0.4093
  127OSM   H13S13524   2.945   2.257   3.561 -0.8968  0.0826 -1.1335
  127OSM   H13T13525   3.123   2.276   3.553 -1.8946  1.1217 -1.1218
  127OSM   C14S13526   3.046   2.120   3.687  0.5843 -0.6807  0.2597
  127OSM   H14S13527   3.129   2.047   3.675 -0.6945 -2.2146  0.4406
  127OSM   H14T13528   2.952   2.063   3.698 -0.3756  0.5512 -1.2031
  127OSM   C15S13529   3.080   2.201   3.812 -0.1888 -0.2882 -0.7717
  127OSM   H15S13530   3.003   2.281   3.823  0.2939  0.2744 -1.4044
  127OSM   H15T13531   3.172   2.264   3.811  1.3624 -2.1050  3.3842
  127OSM   C16S13532   3.076   2.119   3.939 -0.0327 -0.4319 -0.2667
  127OSM   H16S13533   2.983   2.059   3.948  1.6830 -2.9497  2.9135
  127OSM   H16T13534   3.070   2.193   4.022  1.2483 -0.1697 -0.3909
  127OSM   C17S13535   3.193   2.020   3.961 -0.6147  0.4864 -0.4465
  127OSM   H17S13536   3.291   2.072   3.967  0.6361 -1.5642 -1.8438
  127OSM   H17T13537   3.197   1.946   3.878 -0.6848 -0.3765  0.3130
  127OSM   C18S13538   3.176   1.944   4.091  0.3632 -0.5824  0.2213
  127OSM   H18S13539   3.071   1.917   4.115 -1.1611  1.8062 -2.9849
  127OSM   H18T13540   3.213   2.005   4.176  2.2039 -2.6000  0.9378
  127OSM   H18U13541   3.234   1.850   4.087  0.6124 -0.4053 -0.9982
  127OSM    C1F13542   2.966   1.484   2.963 -0.6072  0.5240  0.0482
  127OSM     OF13543   3.082   1.446   2.944 -0.1228 -0.0384 -0.6514
  127OSM    C2F13544   2.887   1.460   3.093  0.6241 -0.5060  0.0021
  127OSM    H2F13545   2.781   1.491   3.088  1.3970  2.9300  1.7513
  127OSM    H2G13546   2.932   1.536   3.161  3.3191 -2.0972  0.1688
  127OSM    C3F13547   2.898   1.312   3.142 -0.3398 -0.3038 -0.3260
  127OSM    H3F13548   3.004   1.284   3.161 -0.7132 -1.4292  0.2113
  127OSM    H3G13549   2.866   1.238   3.066  0.3140 -0.7796 -0.1456
  127OSM    C4F13550   2.822   1.286   3.277 -0.2869 -0.3036 -0.7486
  127OSM    H4F13551   2.805   1.178   3.294 -3.2404 -0.1059 -1.9660
  127OSM    H4G13552   2.723   1.331   3.257  0.0763  1.6553  1.3400
  127OSM    C5F13553   2.885   1.357   3.404  0.1424  1.3730  0.3679
  127OSM    H5F13554   2.859   1.463   3.387  0.6292  1.8986  2.6491
  127OSM    H5G13555   2.994   1.334   3.400 -0.2079 -0.4123 -3.2411
  127OSM    C6F13556   2.826   1.310   3.540 -1.1474 -0.6804  0.2147
  127OSM    H6F13557   2.721   1.276   3.539 -1.2073 -0.5315  0.7500
  127OSM    H6G13558   2.826   1.400   3.605  3.2007  1.1647 -1.8916
  127OSM    C7F13559   2.921   1.199   3.606  0.5461 -0.2376 -0.3722
  127OSM    H7F13560   3.025   1.238   3.612 -0.1961  1.6627  1.6792
  127OSM    H7G13561   2.920   1.103   3.550 -2.1522 -1.0038  0.8209
  127OSM    C8F13562   2.893   1.162   3.748 -0.3476  0.0232  0.2235
  127OSM    H8F13563   2.875   1.260   3.798  0.3166  1.1943 -1.7520
  127OSM    H8G13564   2.974   1.110   3.804  0.3242  2.6946  1.9201
  127OSM    C9F13565   2.764   1.083   3.761  0.2355 -0.0127  0.0831
  127OSM    H9F13566   2.678   1.151   3.771  0.2966 -0.0970  1.3141
  127OSM   C10F13567   2.735   0.954   3.745  0.2327 -0.4789 -0.4015
  127OSM   H10F13568   2.634   0.913   3.759 -0.0738  0.4701  0.2255
  127OSM   C11F13569   2.832   0.841   3.727 -0.0455 -0.9318 -0.3536
  127OSM   H11F13570   2.935   0.878   3.744 -1.3352  1.9968  1.8193
  127OSM   H11G13571   2.810   0.805   3.624  1.5410 -1.9853 -0.3615
  127OSM   C12F13572   2.793   0.730   3.835 -0.3964 -0.1572 -0.1035
  127OSM   H12F13573   2.845   0.638   3.802  1.3646  0.7260  0.0818
  127OSM   H12G13574   2.683   0.712   3.832 -0.1688 -2.0159  0.9988
  127OSM   C13F13575   2.832   0.765   3.981 -0.0142  0.2838 -0.3446
  127OSM   H13F13576   2.778   0.691   4.043  0.3722 -0.8714 -1.3624
  127OSM   H13G13577   2.778   0.862   3.997 -0.1521 -0.0404  1.3346
  127OSM   C14F13578   2.974   0.775   4.017 -0.8799  0.2116 -0.4270
  127OSM   H14F13579   3.008   0.873   3.975 -0.9544  0.2590 -0.3762
  127OSM   H14G13580   3.029   0.682   3.994 -3.1307 -2.0758  2.5503
  127OSM   C15F13581   2.991   0.804   4.171 -0.3415  0.4187  0.3055
  127OSM   H15F13582   2.962   0.909   4.191  0.6553  0.3333  2.5454
  127OSM   H15G13583   3.101   0.802   4.188 -0.2490 -1.8893 -0.2035
  127OSM   C16F13584   2.935   0.706   4.271  0.4595 -0.2396 -0.1304
  127OSM   H16F13585   2.982   0.605   4.279  1.6931  0.4582  2.1743
  127OSM   H16G13586   2.827   0.696   4.250  0.4906  1.2526 -1.1387
  127OSM   C17F13587   2.941   0.759   4.415 -0.2494 -0.2079 -0.0127
  127OSM   H17F13588   2.920   0.869   4.411 -0.7673 -0.2050  1.7435
  127OSM   H17G13589   3.046   0.756   4.449 -0.6791  2.6244  1.9065
  127OSM   C18F13590   2.849   0.702   4.522  0.9827 -0.1355  0.0345
  127OSM   H18F13591   2.833   0.592   4.513 -2.5378  0.3554 -1.4367
  127OSM   H18G13592   2.751   0.755   4.522 -0.0107 -1.8317  1.9746
  127OSM   H18H13593   2.895   0.718   4.622  4.0413 -1.6154 -1.0177
  128OSM      N13594   1.814   0.172   1.883  0.0446 -0.7847  0.7098
  128OSM    C1513595   1.896   0.206   1.759  1.0570 -0.1165 -0.1893
  128OSM   H15A13596   1.981   0.140   1.757  2.0529  1.0818  0.8716
  128OSM   H15B13597   1.941   0.304   1.768  0.7642  0.0352 -0.3530
  128OSM   H15C13598   1.844   0.195   1.665  1.1635 -0.9678 -0.1519
  128OSM    C1413599   1.767   0.031   1.871 -0.4585  0.3234  0.0655
  128OSM   H14A13600   1.729   0.013   1.772 -3.0587 -0.1973  1.0755
  128OSM   H14B13601   1.686   0.016   1.941 -1.2874 -0.4539 -1.0303
  128OSM   H14C13602   1.836  -0.044   1.907 -1.9988  0.0584  2.7558
  128OSM    C1313603   1.900   0.195   2.002 -0.4231 -0.6576 -0.0180
  128OSM   H13A13604   1.995   0.146   1.988  0.8965  1.9105 -0.6200
  128OSM   H13B13605   1.854   0.149   2.089 -1.2624 -1.7018 -0.9882
  128OSM   H13C13606   1.931   0.298   2.010 -0.7198 -0.6078  0.5834
  128OSM    C1213607   1.694   0.264   1.902  0.0418 -0.6053  0.6951
  128OSM   H12A13608   1.622   0.262   1.821  0.3255  0.6169  0.3900
  128OSM   H12B13609   1.731   0.365   1.897 -2.7845  0.6524  2.9783
  128OSM    C1113610   1.615   0.257   2.030  0.8552 -0.1728 -0.3373
  128OSM   H11A13611   1.533   0.331   2.021 -0.2479 -1.1939  0.8691
  128OSM   H11B13612   1.682   0.289   2.113 -0.6859  1.0510  0.4798
  128OSM      P13613   1.428   0.072   2.051 -0.7046 -0.6590  0.0064
  128OSM    O1313614   1.372   0.087   1.915  0.2748 -0.1404 -0.3091
  128OSM    O1413615   1.430  -0.061   2.105  0.6619 -0.3618  0.0867
  128OSM    O1113616   1.351   0.159   2.154  0.2838 -0.4845  0.0016
  128OSM    O1213617   1.565   0.131   2.066 -0.2828  0.0939 -0.1594
  128OSM    C1S13618   1.395   0.159   2.292  0.4539  1.3695  0.0799
  128OSM    H1S13619   1.482   0.091   2.309 -1.7452 -1.8778 -0.7057
  128OSM    H1T13620   1.307   0.120   2.349  1.1483 -0.3226  0.0618
  128OSM     NF13621   1.486   0.299   2.465  0.8246 -0.0710 -0.1390
  128OSM    HNF13622   1.422   0.309   2.541  1.4222 -0.4948  0.4304
  128OSM    C2S13623   1.429   0.298   2.332 -0.7757 -0.1927  0.2861
  128OSM    H2S13624   1.507   0.322   2.257  0.2699 -1.6951  0.8482
  128OSM    C3S13625   1.315   0.395   2.309 -0.8921  0.0805 -0.5180
  128OSM    H3S13626   1.225   0.352   2.358 -1.8546  1.7433 -0.7518
  128OSM     O313627   1.288   0.411   2.170  0.2149 -0.2875  0.5040
  128OSM    HO313628   1.325   0.331   2.131 -1.9422 -1.3114  0.3963
  128OSM    C4S13629   1.340   0.530   2.375 -0.2453 -0.1654 -0.1082
  128OSM    H4S13630   1.433   0.583   2.350  0.2086  1.7000  4.5634
  128OSM    C5S13631   1.260   0.577   2.474 -0.5371 -0.1584 -0.6625
  128OSM    H5S13632   1.172   0.518   2.502 -1.1941  0.7530 -0.7865
  128OSM    C6S13633   1.300   0.694   2.563 -0.5213  0.3538  0.7593
  128OSM    H6S13634   1.221   0.772   2.551  0.6954  1.4298 -0.6269
  128OSM    H6T13635   1.399   0.729   2.527 -1.1210 -0.4674 -1.8504
  128OSM    C7S13636   1.323   0.663   2.715  1.0099 -0.7432 -0.3755
  128OSM    H7S13637   1.233   0.606   2.747  1.4741 -1.2564  0.0290
  128OSM    H7T13638   1.320   0.757   2.775 -0.5676 -2.7294  2.9702
  128OSM    C8S13639   1.445   0.590   2.742  0.7452 -0.1381 -0.3002
  128OSM    H8S13640   1.531   0.656   2.721 -0.7454  1.9666 -0.1915
  128OSM    H8T13641   1.452   0.503   2.674  1.6423  0.1528 -0.5865
  128OSM    C9S13642   1.450   0.530   2.880  0.1125  0.2594 -0.4016
  128OSM    H9S13643   1.531   0.455   2.882  0.0499  0.2065  0.6212
  128OSM    H9T13644   1.353   0.480   2.901 -0.5099  0.1706 -3.1071
  128OSM   C10S13645   1.480   0.643   2.987 -0.2174 -0.4570 -0.3057
  128OSM   H10S13646   1.411   0.728   2.971 -0.3534 -0.2920  1.0432
  128OSM   H10T13647   1.584   0.680   2.976 -0.8223  1.6745  0.6559
  128OSM   C11S13648   1.457   0.581   3.128 -0.1555 -0.1609  0.2735
  128OSM   H11S13649   1.504   0.480   3.129  1.5108  0.5910  0.6209
  128OSM   H11T13650   1.347   0.573   3.133 -0.4682 -0.0387 -3.3320
  128OSM   C12S13651   1.505   0.663   3.241 -0.7797 -0.2144  0.3113
  128OSM   H12S13652   1.456   0.763   3.244 -1.6297 -0.5449 -1.3930
  128OSM   H12T13653   1.614   0.676   3.229 -0.7405 -0.1573  0.7219
  128OSM   C13S13654   1.485   0.593   3.375 -0.5503 -0.1182  0.2332
  128OSM   H13S13655   1.525   0.490   3.373  0.3538  0.2360 -1.5465
  128OSM   H13T13656   1.378   0.604   3.405 -0.0789  0.9876  1.6417
  128OSM   C14S13657   1.561   0.684   3.484  0.3947  0.3281  1.0099
  128OSM   H14S13658   1.508   0.782   3.488 -0.3337  0.0725 -1.1119
  128OSM   H14T13659   1.667   0.698   3.455  0.0547  2.6994  0.6895
  128OSM   C15S13660   1.560   0.629   3.633  0.0045  0.1262 -0.3810
  128OSM   H15S13661   1.629   0.543   3.645  1.2688  1.2209  0.5395
  128OSM   H15T13662   1.461   0.585   3.656  0.3536  0.1136  1.2240
  128OSM   C16S13663   1.608   0.733   3.734  0.8567 -0.1875  0.3285
  128OSM   H16S13664   1.556   0.829   3.715  0.0311 -0.6731  0.0588
  128OSM   H16T13665   1.716   0.756   3.725  1.3207 -2.0504  0.5877
  128OSM   C17S13666   1.582   0.683   3.878 -0.0258 -0.3720 -0.3222
  128OSM   H17S13667   1.635   0.588   3.901  0.6846  0.7596  3.3804
  128OSM   H17T13668   1.474   0.670   3.900  0.0312  1.6682  1.4203
  128OSM   C18S13669   1.635   0.788   3.977  0.5335  0.3032  0.0565
  128OSM   H18S13670   1.746   0.784   3.979  0.5872  1.4095 -0.2016
  128OSM   H18T13671   1.590   0.751   4.072 -0.5455 -0.2840 -0.6582
  128OSM   H18U13672   1.592   0.889   3.961 -0.1631  0.0045 -0.0108
  128OSM    C1F13673   1.613   0.274   2.480 -0.3483 -0.4543 -0.3896
  128OSM     OF13674   1.690   0.266   2.391 -0.1022  0.5279  0.1378
  128OSM    C2F13675   1.646   0.246   2.625  0.2032  0.2083 -0.2135
  128OSM    H2F13676   1.706   0.152   2.627 -0.6261 -0.4254 -2.3964
  128OSM    H2G13677   1.559   0.241   2.693 -0.2044  1.4743 -0.6224
  128OSM    C3F13678   1.743   0.362   2.668 -0.8514 -0.4756 -0.6042
  128OSM    H3F13679   1.695   0.462   2.659  0.7032  0.2351 -1.2445
  128OSM    H3G13680   1.838   0.368   2.610 -0.0612 -1.7002  0.5016
  128OSM    C4F13681   1.789   0.344   2.817  0.5215  0.8918  0.8637
  128OSM    H4F13682   1.828   0.240   2.822 -0.2370  0.5328 -0.2303
  128OSM    H4G13683   1.702   0.339   2.887 -1.2164 -0.8047 -1.2564
  128OSM    C5F13684   1.897   0.439   2.872  0.2170  0.0305 -0.0186
  128OSM    H5F13685   1.974   0.457   2.794 -1.3187 -0.2721 -1.6728
  128OSM    H5G13686   1.941   0.369   2.946  0.2402 -0.7618 -0.7590
  128OSM    C6F13687   1.838   0.560   2.942 -0.0774 -0.0003  0.0451
  128OSM    H6F13688   1.794   0.521   3.037  0.5193  1.3411  0.9008
  128OSM    H6G13689   1.754   0.605   2.885 -1.1550  0.6559  2.0297
  128OSM    C7F13690   1.938   0.666   2.983  0.3888 -0.0288  0.6906
  128OSM    H7F13691   1.969   0.729   2.896  0.0333 -1.6969 -0.7045
  128OSM    H7G13692   2.026   0.605   3.014  0.4408 -1.0398 -1.2893
  128OSM    C8F13693   1.902   0.752   3.104 -0.1146 -0.4596  0.0791
  128OSM    H8F13694   1.907   0.685   3.193  1.3741  0.7327  0.9363
  128OSM    H8G13695   1.797   0.788   3.100 -0.8675 -2.0454  2.8007
  128OSM    C9F13696   2.001   0.865   3.122  0.4475 -0.0209  0.5227
  128OSM    H9F13697   2.006   0.928   3.032 -1.4074  0.7257  0.9069
  128OSM   C10F13698   2.094   0.873   3.217 -0.1322 -0.8979  0.3783
  128OSM   H10F13699   2.160   0.960   3.213 -1.0844 -0.1654  0.1763
  128OSM   C11F13700   2.127   0.792   3.334  0.3346 -0.0968  1.0018
  128OSM   H11F13701   2.233   0.759   3.338  0.3089 -0.0992  1.6987
  128OSM   H11G13702   2.065   0.700   3.343  0.2934 -0.1225  0.5173
  128OSM   C12F13703   2.117   0.888   3.459  0.0377  0.3885  0.0214
  128OSM   H12F13704   2.186   0.975   3.454  0.5732 -0.0795 -1.6895
  128OSM   H12G13705   2.130   0.827   3.551 -0.8563  0.4793  0.2138
  128OSM   C13F13706   1.968   0.938   3.474 -0.0107 -0.2348  0.2193
  128OSM   H13F13707   1.901   0.850   3.474 -0.3815  0.0334 -0.6148
  128OSM   H13G13708   1.950   1.000   3.383 -1.0105 -1.2750 -0.3199
  128OSM   C14F13709   1.958   1.040   3.586 -0.1540  0.2208 -0.1141
  128OSM   H14F13710   1.873   1.109   3.568 -0.3490 -0.4677 -2.0739
  128OSM   H14G13711   2.049   1.104   3.590 -0.4469  0.6095  0.7207
  128OSM   C15F13712   1.943   0.981   3.731 -0.2057 -0.7608  0.2347
  128OSM   H15F13713   1.925   0.872   3.737 -1.0012 -0.5862  1.3128
  128OSM   H15G13714   1.856   1.031   3.778  1.1324 -0.7211  2.9161
  128OSM   C16F13715   2.060   1.027   3.816 -0.1162 -0.3621  0.3886
  128OSM   H16F13716   2.077   1.133   3.789  2.2555 -1.2577 -2.0245
  128OSM   H16G13717   2.149   0.973   3.779  1.2333 -0.6169  3.6476
  128OSM   C17F13718   2.041   0.990   3.961 -0.1915 -0.6654 -0.8066
  128OSM   H17F13719   1.938   1.010   3.999  0.0655  1.1605 -0.9812
  128OSM   H17G13720   2.107   1.058   4.018 -0.4581 -2.4062  1.7321
  128OSM   C18F13721   2.059   0.842   3.996 -0.6001 -0.0678  0.6220
  128OSM   H18F13722   2.154   0.808   3.950  0.6356  3.5051  0.2011
  128OSM   H18G13723   1.983   0.777   3.947 -1.7837  1.5266  0.2449
  128OSM   H18H13724   2.069   0.824   4.105 -0.4120 -0.4936  0.5380
  129OSM      N13725   3.301   6.235   1.712 -0.1930 -0.1401  0.0913
  129OSM    C1513726   3.370   6.344   1.778 -0.1679 -0.1539  0.3719
  129OSM   H15A13727   3.415   6.308   1.869  1.8124  1.2319  0.0071
  129OSM   H15B13728   3.295   6.419   1.799 -2.9137 -2.6169  0.0468
  129OSM   H15C13729   3.446   6.376   1.709  0.5359 -0.8981  0.7862
  129OSM    C1413730   3.213   6.298   1.609 -0.1870  0.0040 -0.3628
  129OSM   H14A13731   3.129   6.356   1.643 -0.2217  0.1500 -0.6985
  129OSM   H14B13732   3.179   6.222   1.541  0.6022  1.6239 -2.6869
  129OSM   H14C13733   3.274   6.367   1.553  0.6960 -0.4383  0.0285
  129OSM    C1313734   3.402   6.145   1.650  0.2870 -0.6096  0.3610
  129OSM   H13A13735   3.479   6.197   1.595  0.3768 -0.6924  0.4079
  129OSM   H13B13736   3.353   6.081   1.578  0.1835  0.8318 -0.9029
  129OSM   H13C13737   3.437   6.084   1.732 -5.0434 -0.0266  3.6148
  129OSM    C1213738   3.209   6.154   1.809 -0.0866  0.2853 -0.5641
  129OSM   H12A13739   3.139   6.102   1.745 -0.0490  0.4520 -0.7416
  129OSM   H12B13740   3.164   6.224   1.879  4.5440  0.6449  2.4606
  129OSM    C1113741   3.277   6.054   1.910 -1.2819  0.4112  0.0610
  129OSM   H11A13742   3.293   5.969   1.840 -0.1170  0.9066 -0.3023
  129OSM   H11B13743   3.192   6.035   1.978 -1.6735 -0.3161 -0.6223
  129OSM      P13744   3.466   6.014   2.083  0.5100 -0.2475 -0.1910
  129OSM    O1313745   3.538   5.903   2.007  0.0328 -0.4298  0.3460
  129OSM    O1413746   3.551   6.099   2.168 -0.0902  0.0061  0.1910
  129OSM    O1113747   3.344   5.957   2.168 -0.0695 -0.4359  0.0484
  129OSM    O1213748   3.394   6.098   1.975  0.6777 -0.4634  0.1274
  129OSM    C1S13749   3.368   5.843   2.253 -0.3840  0.3520  0.0997
  129OSM    H1S13750   3.465   5.840   2.307 -0.0552 -0.3880 -0.5135
  129OSM    H1T13751   3.385   5.754   2.189  0.3045 -1.2842  2.4081
  129OSM     NF13752   3.275   5.671   2.412  0.3097 -0.7692  0.4527
  129OSM    HNF13753   3.209   5.597   2.403 -2.6906  1.8576 -0.9920
  129OSM    C2S13754   3.248   5.792   2.337  0.8353  0.3691 -0.4392
  129OSM    H2S13755   3.233   5.872   2.413  0.3959  0.4917 -0.6488
  129OSM    C3S13756   3.110   5.788   2.257  0.5134  0.1580  0.5161
  129OSM    H3S13757   3.112   5.711   2.177 -1.1380  0.2265  0.3718
  129OSM     O313758   3.087   5.906   2.178  0.2702 -0.2623  0.2792
  129OSM    HO313759   3.172   5.945   2.160  0.4081 -1.3139 -1.6310
  129OSM    C4S13760   2.996   5.754   2.358 -0.3395 -0.2985 -0.1324
  129OSM    H4S13761   3.002   5.651   2.396  4.3921 -0.7406 -1.4475
  129OSM    C5S13762   2.921   5.830   2.429 -0.2883 -0.3541  0.1786
  129OSM    H5S13763   2.915   5.939   2.415 -1.1136 -0.4180  0.0032
  129OSM    C6S13764   2.846   5.785   2.545  0.1017  0.0493 -0.7697
  129OSM    H6S13765   2.767   5.715   2.510  1.8945 -1.7074 -1.4978
  129OSM    H6T13766   2.794   5.875   2.584 -0.1463 -0.6556  0.5831
  129OSM    C7S13767   2.928   5.733   2.670  0.2406 -0.1414 -0.0557
  129OSM    H7S13768   3.015   5.801   2.686 -0.8234  1.1716  0.3767
  129OSM    H7T13769   2.969   5.637   2.633  1.7701  1.2238 -2.1455
  129OSM    C8S13770   2.840   5.703   2.792 -0.2587  0.2640 -0.3383
  129OSM    H8S13771   2.760   5.628   2.776 -2.4895  1.5465  3.4733
  129OSM    H8T13772   2.778   5.789   2.825 -2.4029 -1.5813  0.6770
  129OSM    C9S13773   2.922   5.653   2.916  0.4517  0.4770 -0.2187
  129OSM    H9S13774   3.005   5.722   2.941  0.1376  1.2839 -1.3393
  129OSM    H9T13775   2.963   5.551   2.895 -2.5960 -0.8076 -0.5262
  129OSM   C10S13776   2.832   5.626   3.045 -0.0056 -0.2475  0.9088
  129OSM   H10S13777   2.740   5.572   3.015 -0.2630  0.8129 -0.2570
  129OSM   H10T13778   2.800   5.729   3.069 -1.8358 -0.3965 -0.6532
  129OSM   C11S13779   2.903   5.563   3.167 -0.6627 -0.2291 -0.7792
  129OSM   H11S13780   2.997   5.621   3.175 -1.3588  0.8449 -0.0886
  129OSM   H11T13781   2.936   5.461   3.138  1.5388 -0.3763  1.8629
  129OSM   C12S13782   2.836   5.570   3.304 -0.0227 -0.3762  0.3734
  129OSM   H12S13783   2.746   5.504   3.302 -0.4239  0.1687  0.1688
  129OSM   H12T13784   2.808   5.677   3.313  1.6351  0.2078 -0.8929
  129OSM   C13S13785   2.927   5.530   3.423 -0.2734 -0.1587  0.5237
  129OSM   H13S13786   3.026   5.581   3.415  0.2084  0.3896  5.9906
  129OSM   H13T13787   2.935   5.419   3.419 -1.1890 -0.1939 -0.6835
  129OSM   C14S13788   2.873   5.572   3.559  0.2985 -0.5564  0.4269
  129OSM   H14S13789   2.776   5.521   3.575  0.3222 -1.4048 -1.7491
  129OSM   H14T13790   2.838   5.677   3.552 -0.3100 -0.8169 -0.9506
  129OSM   C15S13791   2.985   5.546   3.665 -0.0791  0.4013 -0.2760
  129OSM   H15S13792   3.083   5.572   3.620  0.5515 -0.8042  0.3456
  129OSM   H15T13793   3.005   5.437   3.673  3.4911  0.8337 -1.4272
  129OSM   C16S13794   2.964   5.617   3.797  0.2070  0.0220 -0.5177
  129OSM   H16S13795   2.870   5.585   3.847 -1.0996  1.5849 -1.8455
  129OSM   H16T13796   2.952   5.727   3.784 -0.5354 -0.0155 -0.1789
  129OSM   C17S13797   3.078   5.589   3.901  0.0693 -0.1718 -0.0177
  129OSM   H17S13798   3.076   5.669   3.978 -0.0674 -0.3381  0.1539
  129OSM   H17T13799   3.172   5.609   3.844 -0.9841 -1.4546 -2.3379
  129OSM   C18S13800   3.080   5.453   3.972  0.4354 -0.9768 -0.3926
  129OSM   H18S13801   3.157   5.462   4.052  0.9603 -1.9593 -0.7622
  129OSM   H18T13802   3.108   5.365   3.910 -0.7752 -0.8379 -1.1641
  129OSM   H18U13803   2.978   5.431   4.010  0.7420 -1.7194  0.0145
  129OSM    C1F13804   3.383   5.666   2.498 -0.4533  0.0847 -0.5821
  129OSM     OF13805   3.447   5.766   2.525 -0.1825  0.0032 -0.4148
  129OSM    C2F13806   3.380   5.538   2.583 -0.4686 -0.1645  0.0923
  129OSM    H2F13807   3.450   5.466   2.537 -2.1733 -0.2328 -2.6046
  129OSM    H2G13808   3.278   5.493   2.580 -0.1448 -0.8549 -1.6073
  129OSM    C3F13809   3.415   5.561   2.728 -0.9888 -0.3952 -0.1891
  129OSM    H3F13810   3.356   5.647   2.765  0.0674  0.7783 -1.1349
  129OSM    H3G13811   3.518   5.601   2.736 -0.9412 -0.5583  0.0222
  129OSM    C4F13812   3.391   5.438   2.814 -1.0705 -0.1328 -0.6299
  129OSM    H4F13813   3.450   5.453   2.907 -4.0009  0.5757  1.2495
  129OSM    H4G13814   3.410   5.347   2.754 -1.6621  1.7811 -3.9628
  129OSM    C5F13815   3.253   5.437   2.883  0.5547  0.6548 -0.8537
  129OSM    H5F13816   3.170   5.423   2.810  0.3997  1.5416 -0.8645
  129OSM    H5G13817   3.225   5.539   2.919 -0.5015 -0.3969  1.4803
  129OSM    C6F13818   3.240   5.350   3.008 -0.0155  0.5866 -1.2313
  129OSM    H6F13819   3.310   5.264   2.996 -1.1516 -0.9784  2.0639
  129OSM    H6G13820   3.136   5.311   3.009  0.0692 -0.6343  5.2333
  129OSM    C7F13821   3.257   5.414   3.149 -0.2456 -0.9128  0.1188
  129OSM    H7F13822   3.196   5.506   3.158  0.3457 -0.5483  0.4510
  129OSM    H7G13823   3.359   5.456   3.161 -0.5586 -0.2743  0.5817
  129OSM    C8F13824   3.217   5.326   3.269  0.4817  0.9422  0.5063
  129OSM    H8F13825   3.110   5.300   3.253  0.7298  0.1219  0.0887
  129OSM    H8G13826   3.209   5.402   3.350 -1.2798  0.9940  0.3097
  129OSM    C9F13827   3.311   5.200   3.289 -0.2239  0.2972 -0.0593
  129OSM    H9F13828   3.361   5.170   3.197  1.5056 -0.2772  1.0185
  129OSM   C10F13829   3.360   5.157   3.413 -0.3889 -0.4036  0.3502
  129OSM   H10F13830   3.429   5.072   3.423  0.9526  0.7190  0.8824
  129OSM   C11F13831   3.315   5.215   3.544 -0.2963 -0.0606 -0.0354
  129OSM   H11F13832   3.258   5.310   3.533 -1.5128 -0.7851 -0.1913
  129OSM   H11G13833   3.390   5.262   3.611  0.2389  0.3482 -0.9071
  129OSM   C12F13834   3.221   5.134   3.633 -0.0921  0.4443  0.0942
  129OSM   H12F13835   3.139   5.110   3.561 -0.3722  1.7069 -0.0381
  129OSM   H12G13836   3.178   5.201   3.711 -1.1662 -1.1955  0.9654
  129OSM   C13F13837   3.284   5.010   3.702 -0.7876 -0.0461  0.0082
  129OSM   H13F13838   3.353   4.949   3.639  1.9573  0.7719  2.0393
  129OSM   H13G13839   3.205   4.942   3.742 -0.7431 -0.1258 -0.0391
  129OSM   C14F13840   3.350   5.051   3.840  0.2350 -0.1538 -0.1027
  129OSM   H14F13841   3.418   5.138   3.825  0.1495  0.6396  3.3240
  129OSM   H14G13842   3.403   4.959   3.872 -1.5065 -1.7276 -1.5418
  129OSM   C15F13843   3.251   5.084   3.957 -0.3292  0.1463 -0.6772
  129OSM   H15F13844   3.184   4.998   3.979  0.7481 -1.1721 -2.2875
  129OSM   H15G13845   3.198   5.174   3.920  1.6601  1.7520  0.2217
  129OSM   C16F13846   3.337   5.132   4.079  0.3017  0.0885 -0.1117
  129OSM   H16F13847   3.361   5.239   4.059  0.7960 -0.1350 -0.7452
  129OSM   H16G13848   3.426   5.066   4.083 -0.5637 -1.0303  1.6382
  129OSM   C17F13849   3.268   5.103   4.216  0.2313 -0.5855  0.7747
  129OSM   H17F13850   3.243   4.996   4.235  0.2163 -1.2628 -2.4774
  129OSM   H17G13851   3.174   5.162   4.215  1.1268  0.9378  1.9153
  129OSM   C18F13852   3.347   5.150   4.335 -0.2786 -0.1353  0.2474
  129OSM   H18F13853   3.280   5.181   4.417  1.1945 -0.5053  1.6408
  129OSM   H18G13854   3.405   5.239   4.304  0.5223 -0.7512 -0.0697
  129OSM   H18H13855   3.403   5.061   4.370 -1.2710 -0.2377  1.6605
  130OSM      N13856   3.619   2.447   2.171 -0.2427  0.2731  0.2776
  130OSM    C1513857   3.665   2.556   2.089 -0.3422 -0.2203 -0.3489
  130OSM   H15A13858   3.690   2.524   1.988 -2.0919 -1.2671 -0.4863
  130OSM   H15B13859   3.754   2.594   2.137 -1.5167 -0.3408  2.0542
  130OSM   H15C13860   3.594   2.637   2.090 -0.2382 -0.1200 -0.8157
  130OSM    C1413861   3.494   2.399   2.112 -0.9103  0.5815  0.6177
  130OSM   H14A13862   3.494   2.378   2.006 -0.0331  0.3710  0.6544
  130OSM   H14B13863   3.408   2.457   2.141 -0.9732 -0.5252  2.8561
  130OSM   H14C13864   3.469   2.305   2.158  0.4829 -0.7591 -1.1941
  130OSM    C1313865   3.718   2.331   2.166 -0.4618  0.5935  0.2048
  130OSM   H13A13866   3.809   2.366   2.212  0.1498  0.1066 -0.6086
  130OSM   H13B13867   3.755   2.315   2.066 -0.6043 -3.7353  0.6848
  130OSM   H13C13868   3.692   2.247   2.228  3.1782 -1.0545 -0.2906
  130OSM    C1213869   3.587   2.494   2.312 -0.3354  0.2337 -0.0579
  130OSM   H12A13870   3.533   2.411   2.356 -3.1525  2.0618  0.2307
  130OSM   H12B13871   3.512   2.572   2.310 -1.1000 -0.3878 -3.9512
  130OSM    C1113872   3.704   2.549   2.395 -0.0397  0.0983  0.3254
  130OSM   H11A13873   3.787   2.479   2.420 -0.1635  0.3212  1.4105
  130OSM   H11B13874   3.665   2.571   2.496  0.6007  0.5905  0.4773
  130OSM      P13875   3.720   2.802   2.345  0.1596  0.3769 -0.2522
  130OSM    O1313876   3.815   2.882   2.264 -0.6179  0.0663 -0.0354
  130OSM    O1413877   3.582   2.805   2.311  0.8088  0.0377  0.6212
  130OSM    O1113878   3.729   2.831   2.502  0.0783  0.0094  0.2879
  130OSM    O1213879   3.771   2.654   2.336 -0.4348 -0.2250  0.1399
  130OSM    C1S13880   3.857   2.809   2.567 -0.2052  0.2614  0.5977
  130OSM    H1S13881   3.941   2.850   2.507  1.2307 -3.1366  0.0889
  130OSM    H1T13882   3.874   2.700   2.579  2.0381  0.3169 -1.3356
  130OSM     NF13883   3.991   2.814   2.767 -0.9861 -0.6485 -0.2741
  130OSM    HNF13884   4.001   2.750   2.843  1.2557  0.4329  0.4161
  130OSM    C2S13885   3.860   2.855   2.715  0.3657 -0.6785 -0.0396
  130OSM    H2S13886   3.853   2.965   2.720 -2.1175 -0.7615  4.9834
  130OSM    C3S13887   3.728   2.812   2.791 -0.7223  0.2114 -0.5939
  130OSM    H3S13888   3.737   2.701   2.790  1.8395  0.3491 -0.0149
  130OSM     O313889   3.599   2.827   2.736 -0.0149  0.2032 -0.7664
  130OSM    HO313890   3.606   2.860   2.647 -0.2565 -0.9598 -1.2413
  130OSM    C4S13891   3.728   2.847   2.935 -0.0503  0.0870  0.3133
  130OSM    H4S13892   3.768   2.944   2.968  5.6291 -2.8916  3.7473
  130OSM    C5S13893   3.686   2.763   3.029 -0.5251  0.6354 -0.0941
  130OSM    H5S13894   3.650   2.664   2.997  0.3877 -0.6265  2.4524
  130OSM    C6S13895   3.674   2.788   3.176 -0.1310  0.4218  0.5262
  130OSM    H6S13896   3.570   2.760   3.202  0.3810 -0.0547  2.1634
  130OSM    H6T13897   3.688   2.896   3.200 -1.2877  0.6583  0.2122
  130OSM    C7S13898   3.769   2.698   3.257  0.3019  0.3337 -0.2115
  130OSM    H7S13899   3.872   2.704   3.215  0.6800  0.9860  0.7996
  130OSM    H7T13900   3.726   2.595   3.255  0.4502  0.2263  1.2179
  130OSM    C8S13901   3.776   2.730   3.411  0.8462 -0.0136 -0.2313
  130OSM    H8S13902   3.818   2.832   3.421 -0.4113  0.5032 -0.0065
  130OSM    H8T13903   3.836   2.651   3.461  0.4369 -0.1770  0.0066
  130OSM    C9S13904   3.637   2.717   3.483  0.0801  0.6506  0.5730
  130OSM    H9S13905   3.584   2.635   3.431  1.4347  0.9994 -1.4604
  130OSM    H9T13906   3.587   2.815   3.464  0.3634  0.7957  0.5659
  130OSM   C10S13907   3.658   2.699   3.634  0.5120 -0.6365  1.2983
  130OSM   H10S13908   3.722   2.609   3.642  0.0671 -1.0608  0.2633
  130OSM   H10T13909   3.558   2.690   3.680 -0.2442  0.3200 -0.0817
  130OSM   C11S13910   3.723   2.825   3.698  0.2695 -0.1132  0.3245
  130OSM   H11S13911   3.648   2.905   3.681 -0.8564 -0.9061  1.4047
  130OSM   H11T13912   3.811   2.871   3.647  0.2608 -1.4278 -0.9259
  130OSM   C12S13913   3.722   2.816   3.854 -0.3227  0.4827 -0.3568
  130OSM   H12S13914   3.799   2.885   3.893 -0.3600  0.1866  0.2389
  130OSM   H12T13915   3.728   2.710   3.887  0.6487  1.2575  2.1248
  130OSM   C13S13916   3.592   2.865   3.922 -0.6567 -1.1825 -0.0437
  130OSM   H13S13917   3.500   2.838   3.865 -0.1619  0.6809 -1.8391
  130OSM   H13T13918   3.601   2.976   3.924 -0.5189 -1.1312 -2.0623
  130OSM   C14S13919   3.583   2.818   4.068  0.0897 -0.4963 -0.1554
  130OSM   H14S13920   3.685   2.825   4.112 -0.1481 -0.7271  0.4401
  130OSM   H14T13921   3.568   2.708   4.073 -1.0706 -0.5615 -3.1337
  130OSM   C15S13922   3.473   2.879   4.150  0.7069 -0.0879  0.0497
  130OSM   H15S13923   3.380   2.828   4.117  1.4256 -0.6291 -1.1886
  130OSM   H15T13924   3.465   2.987   4.126 -0.7295 -0.4125 -1.1084
  130OSM   C16S13925   3.486   2.865   4.306 -0.2481 -0.8424  0.6681
  130OSM   H16S13926   3.400   2.916   4.354  0.7785  0.4899  1.1498
  130OSM   H16T13927   3.576   2.927   4.327  0.3215 -1.3405 -0.2411
  130OSM   C17S13928   3.509   2.723   4.358  0.3375 -0.3187 -0.4654
  130OSM   H17S13929   3.601   2.677   4.314 -0.0793 -1.3904 -0.2520
  130OSM   H17T13930   3.427   2.662   4.315  1.0881 -1.7710  0.0795
  130OSM   C18S13931   3.513   2.707   4.508  0.8608 -0.6143 -0.0066
  130OSM   H18S13932   3.468   2.608   4.528  0.5964 -0.6322 -0.6603
  130OSM   H18T13933   3.445   2.782   4.553  0.3340 -0.7840 -0.5112
  130OSM   H18U13934   3.612   2.708   4.559  0.5378 -0.6183  0.6278
  130OSM    C1F13935   4.109   2.865   2.725  0.6160  0.8542  0.1714
  130OSM     OF13936   4.121   2.971   2.666  0.8444  0.1938  0.8782
  130OSM    C2F13937   4.232   2.776   2.750  0.0240 -0.0423 -0.1937
  130OSM    H2F13938   4.303   2.800   2.667 -1.0403  2.1163 -0.5509
  130OSM    H2G13939   4.201   2.670   2.747  0.9874 -0.3288 -0.3167
  130OSM    C3F13940   4.305   2.795   2.888  0.0967 -0.3521  0.2030
  130OSM    H3F13941   4.332   2.902   2.907  0.6682 -0.3624 -0.5116
  130OSM    H3G13942   4.408   2.752   2.884 -0.2542 -1.2945  0.9306
  130OSM    C4F13943   4.239   2.731   3.010  0.6508 -0.8196 -0.0336
  130OSM    H4F13944   4.234   2.621   2.993  0.6236 -0.6376 -1.2422
  130OSM    H4G13945   4.144   2.788   3.022  1.6395  1.1321 -1.1140
  130OSM    C5F13946   4.330   2.748   3.133  0.2155  0.5540 -0.2954
  130OSM    H5F13947   4.326   2.849   3.179 -0.3553 -0.4603  2.0125
  130OSM    H5G13948   4.433   2.731   3.096 -0.2083 -0.5125 -1.0066
  130OSM    C6F13949   4.304   2.646   3.251  0.0691 -0.3745 -0.3039
  130OSM    H6F13950   4.384   2.657   3.328  1.5586 -0.8734 -1.7337
  130OSM    H6G13951   4.321   2.551   3.197 -2.1170 -0.1179 -1.5273
  130OSM    C7F13952   4.167   2.651   3.316  0.6883  0.1710  0.5390
  130OSM    H7F13953   4.163   2.591   3.410  0.4175  1.0299  1.0923
  130OSM    H7G13954   4.085   2.624   3.246  2.3909  1.9673 -2.3103
  130OSM    C8F13955   4.128   2.795   3.353  0.7375  0.4138 -0.2256
  130OSM    H8F13956   4.026   2.803   3.395  0.6358  3.2553 -0.8392
  130OSM    H8G13957   4.127   2.846   3.255  0.0704  2.3520  0.7390
  130OSM    C9F13958   4.229   2.870   3.434 -0.1750  0.0857 -0.0611
  130OSM    H9F13959   4.297   2.941   3.384  2.9554 -1.2831  1.9091
  130OSM   C10F13960   4.233   2.863   3.565 -0.0107 -0.7226  0.5615
  130OSM   H10F13961   4.302   2.927   3.621 -0.9557  0.2646  0.6484
  130OSM   C11F13962   4.153   2.783   3.658  0.3875  0.0740 -0.6568
  130OSM   H11F13963   4.212   2.702   3.706  0.6159 -0.9783 -2.6012
  130OSM   H11G13964   4.065   2.732   3.614 -0.6673  0.7459  0.5881
  130OSM   C12F13965   4.086   2.882   3.754 -0.5189  0.3034  0.3331
  130OSM   H12F13966   4.002   2.829   3.804  0.3451 -2.8890 -1.3324
  130OSM   H12G13967   4.032   2.974   3.723 -0.6211  0.3588  0.6683
  130OSM   C13F13968   4.188   2.919   3.859 -1.5214 -0.4821  0.2541
  130OSM   H13F13969   4.232   3.020   3.842  3.7491 -2.4746  0.2201
  130OSM   H13G13970   4.274   2.849   3.851 -1.4460 -0.2330 -1.5498
  130OSM   C14F13971   4.128   2.906   4.006 -0.4596  0.0718 -0.4362
  130OSM   H14F13972   4.107   2.798   4.024 -1.0378  0.1098 -0.8592
  130OSM   H14G13973   4.030   2.956   4.019 -0.5255  0.1104 -1.0898
  130OSM   C15F13974   4.231   2.962   4.110 -0.2788  0.3425 -0.4506
  130OSM   H15F13975   4.251   3.067   4.081 -0.9570  0.5769 -0.0839
  130OSM   H15G13976   4.330   2.911   4.107 -1.2326 -1.5937 -1.3504
  130OSM   C16F13977   4.172   2.965   4.254  0.1984 -0.1617  0.5265
  130OSM   H16F13978   4.192   2.867   4.303 -0.8976 -0.6194  0.1003
  130OSM   H16G13979   4.062   2.963   4.238  0.0668  0.3722  1.2795
  130OSM   C17F13980   4.227   3.071   4.347 -0.1067 -0.0660  0.5079
  130OSM   H17F13981   4.226   3.168   4.293  0.7715 -0.0512  0.5043
  130OSM   H17G13982   4.336   3.066   4.368 -0.1212  0.3821  0.7047
  130OSM   C18F13983   4.151   3.082   4.485 -0.1129 -0.1698 -0.5143
  130OSM   H18F13984   4.187   3.172   4.538 -0.5963 -1.1466  1.5554
  130OSM   H18G13985   4.180   2.989   4.539  1.9740 -1.3575 -3.3912
  130OSM   H18H13986   4.041   3.097   4.486 -0.0013  0.7553 -1.0609
  131OSM      N13987   1.000   0.322   1.996  0.2866  0.1025 -0.4888
  131OSM    C1513988   1.067   0.187   1.995 -0.4974 -0.3511 -0.2814
  131OSM   H15A13989   1.162   0.210   2.040 -0.6775  1.2257 -0.6273
  131OSM   H15B13990   1.088   0.160   1.893  0.9781 -0.7837  0.1145
  131OSM   H15C13991   1.007   0.118   2.052  1.3080 -0.4620  1.5849
  131OSM    C1413992   1.084   0.433   1.940 -0.0417 -0.1426 -0.1249
  131OSM   H14A13993   1.168   0.455   2.004 -0.0116 -3.1808  1.0508
  131OSM   H14B13994   1.021   0.521   1.940 -0.5410 -0.4980  0.1403
  131OSM   H14C13995   1.123   0.412   1.841  2.0985 -2.8315  1.1788
  131OSM    C1313996   0.872   0.313   1.919 -0.2055  0.7750 -0.3464
  131OSM   H13A13997   0.800   0.260   1.980  0.7252  0.1381  0.2367
  131OSM   H13B13998   0.884   0.265   1.823  0.7347 -0.4157  0.3350
  131OSM   H13C13999   0.828   0.412   1.920  0.4400  1.0745  0.8948
  131OSM    C1214000   0.968   0.352   2.146 -0.0529  0.1714  0.4030
  131OSM   H12A14001   0.930   0.453   2.136 -2.2430 -0.8004 -2.2011
  131OSM   H12B14002   1.062   0.357   2.199 -0.7232  0.4548  1.6046
  131OSM    C1114003   0.869   0.273   2.230 -0.5024 -0.6397 -0.2966
  131OSM   H11A14004   0.775   0.252   2.174 -1.6584 -0.9269  1.6454
  131OSM   H11B14005   0.858   0.337   2.320 -0.4840 -1.0284 -0.0119
  131OSM      P14006   0.946   0.098   2.389 -0.1977  0.0305 -0.1698
  131OSM    O1314007   0.811   0.058   2.442 -0.2184 -0.8954  0.3201
  131OSM    O1414008   1.052  -0.004   2.382  0.1727  0.3252  0.0155
  131OSM    O1114009   0.997   0.226   2.453  0.0890  0.4682 -0.0666
  131OSM    O1214010   0.922   0.143   2.249  0.4089  0.2297  0.4634
  131OSM    C1S14011   0.932   0.297   2.553 -0.2311 -0.1861 -0.1191
  131OSM    H1S14012   0.821   0.297   2.548 -0.5632  3.3237  2.9238
  131OSM    H1T14013   0.952   0.406   2.542 -1.0184  0.1096  1.1438
  131OSM     NF14014   0.893   0.313   2.797 -0.4752  0.7447 -0.0987
  131OSM    HNF14015   0.933   0.388   2.850  1.3277 -1.0659  1.2569
  131OSM    C2S14016   0.975   0.250   2.696 -0.6204 -0.2129  0.2743
  131OSM    H2S14017   0.955   0.140   2.695 -1.7145 -0.0331 -1.3577
  131OSM    C3S14018   1.132   0.269   2.705  0.5358  0.1724 -0.2219
  131OSM    H3S14019   1.147   0.378   2.690 -0.1062  0.0138 -2.3640
  131OSM     O314020   1.219   0.222   2.601 -0.2989 -0.3875 -0.7955
  131OSM    HO314021   1.161   0.210   2.525  2.0051  0.1065 -2.7455
  131OSM    C4S14022   1.184   0.236   2.846 -0.9933  0.1071 -0.5239
  131OSM    H4S14023   1.219   0.321   2.906  2.3589 -0.9716 -0.7806
  131OSM    C5S14024   1.195   0.115   2.905  0.5854 -0.0838 -0.5975
  131OSM    H5S14025   1.141   0.038   2.846  1.6099 -0.7170 -0.7270
  131OSM    C6S14026   1.250   0.080   3.040 -0.1414 -0.1584 -0.6681
  131OSM    H6S14027   1.355   0.116   3.038  0.2019 -1.1573 -2.0654
  131OSM    H6T14028   1.251  -0.031   3.040 -0.3396 -0.1827  0.8569
  131OSM    C7S14029   1.163   0.129   3.163 -0.3234 -0.2142  0.2680
  131OSM    H7S14030   1.055   0.120   3.136 -0.5593  1.1002  0.6822
  131OSM    H7T14031   1.177   0.239   3.173  0.2548 -0.3672  1.2872
  131OSM    C8S14032   1.196   0.052   3.299  0.7719  0.3495  0.3262
  131OSM    H8S14033   1.145  -0.043   3.272 -1.6715  2.1952 -2.2708
  131OSM    H8T14034   1.147   0.092   3.390  1.9840  1.6570  0.4518
  131OSM    C9S14035   1.347   0.039   3.321 -0.2734  0.4217  0.2194
  131OSM    H9S14036   1.408   0.131   3.305  3.9698 -1.8731  1.6914
  131OSM    H9T14037   1.379  -0.032   3.241 -1.2027  0.1885  0.0407
  131OSM   C10S14038   1.387  -0.002   3.473 -0.7345 -0.0493 -0.2859
  131OSM   H10S14039   1.487  -0.049   3.472 -0.1598  1.1515 -0.6384
  131OSM   H10T14040   1.314  -0.081   3.502 -1.3581  1.1824  1.7253
  131OSM   C11S14041   1.375   0.120   3.558  0.0750  0.3893 -0.3520
  131OSM   H11S14042   1.268   0.147   3.565 -0.2911 -0.9208 -0.6843
  131OSM   H11T14043   1.433   0.209   3.525  1.5730 -0.9980 -1.6951
  131OSM   C12S14044   1.424   0.094   3.703 -0.3379 -0.1818  0.0329
  131OSM   H12S14045   1.531   0.063   3.699 -0.1017  0.5507  0.5081
  131OSM   H12T14046   1.364   0.014   3.751  0.5912 -0.2002  1.2012
  131OSM   C13S14047   1.405   0.222   3.789 -0.9047 -0.1633 -0.5400
  131OSM   H13S14048   1.303   0.267   3.794 -0.4980  0.8353 -1.1442
  131OSM   H13T14049   1.470   0.297   3.740  0.8796  1.2590  3.5800
  131OSM   C14S14050   1.463   0.203   3.929 -0.1560  0.0905 -0.0730
  131OSM   H14S14051   1.572   0.185   3.921 -0.0170  0.5994  0.5387
  131OSM   H14T14052   1.430   0.112   3.984 -0.2347  0.2415  0.1307
  131OSM   C15S14053   1.436   0.319   4.016  0.7125 -0.8215 -0.5829
  131OSM   H15S14054   1.330   0.338   4.041  1.1606  1.1418  0.0247
  131OSM   H15T14055   1.462   0.414   3.964  1.1789 -0.5087  0.1922
  131OSM   C16S14056   1.511   0.324   4.154  0.4517 -0.2030 -0.2028
  131OSM   H16S14057   1.608   0.275   4.133 -0.9015 -2.2307 -2.1290
  131OSM   H16T14058   1.453   0.259   4.223  3.1152 -0.2331  2.2000
  131OSM   C17S14059   1.521   0.458   4.223  0.9083  0.2034  0.3170
  131OSM   H17S14060   1.418   0.498   4.235  0.7602  0.3560 -1.2664
  131OSM   H17T14061   1.574   0.530   4.158  2.4523  0.3894  1.7016
  131OSM   C18S14062   1.607   0.451   4.349  0.5540 -0.0439 -0.3101
  131OSM   H18S14063   1.705   0.498   4.324 -0.3389  0.9776 -2.0851
  131OSM   H18T14064   1.629   0.343   4.362  1.4950  0.2361  0.5691
  131OSM   H18U14065   1.557   0.500   4.436 -0.7939 -1.5789 -0.1737
  131OSM    C1F14066   0.769   0.272   2.815 -0.1854 -0.5864  0.3507
  131OSM     OF14067   0.717   0.178   2.753 -0.5754  0.3877 -0.0580
  131OSM    C2F14068   0.691   0.369   2.893 -0.3257 -0.3554  0.1282
  131OSM    H2F14069   0.677   0.448   2.816  0.5374 -1.8168 -1.6135
  131OSM    H2G14070   0.757   0.406   2.974 -0.4759  1.0373 -0.3466
  131OSM    C3F14071   0.551   0.326   2.943  0.9669  0.5397  0.3451
  131OSM    H3F14072   0.495   0.287   2.855 -1.0814 -0.5130  2.0330
  131OSM    H3G14073   0.494   0.418   2.967  0.5801  0.4838 -0.3086
  131OSM    C4F14074   0.553   0.226   3.058 -0.7030 -0.8551 -0.9251
  131OSM    H4F14075   0.581   0.125   3.021  0.4358 -2.2007  3.0732
  131OSM    H4G14076   0.458   0.234   3.114  0.3976 -0.1716  0.9452
  131OSM    C5F14077   0.664   0.268   3.164  0.7213  0.4848  0.0487
  131OSM    H5F14078   0.667   0.378   3.180 -1.9605  0.2564  3.2441
  131OSM    H5G14079   0.760   0.235   3.120  0.2906  1.1065 -1.4228
  131OSM    C6F14080   0.659   0.205   3.301  0.0621 -0.2063  0.1996
  131OSM    H6F14081   0.598   0.113   3.285  0.5960 -0.5371  0.0661
  131OSM    H6G14082   0.609   0.256   3.386 -0.2816 -0.2893  0.0481
  131OSM    C7F14083   0.794   0.160   3.353  0.1844  0.0983 -0.5049
  131OSM    H7F14084   0.844   0.255   3.380 -0.4586  0.1186  0.6914
  131OSM    H7G14085   0.856   0.102   3.281  1.6250 -0.8409  1.4090
  131OSM    C8F14086   0.784   0.067   3.479  0.3664  0.0393 -0.4029
  131OSM    H8F14087   0.720  -0.019   3.451  1.3174 -0.9733  0.4303
  131OSM    H8G14088   0.738   0.115   3.568  1.6101  2.2057 -0.8562
  131OSM    C9F14089   0.917   0.004   3.515 -0.1744 -0.6896 -0.7310
  131OSM    H9F14090   0.962  -0.064   3.440  0.1895 -1.5360  0.2286
  131OSM   C10F14091   0.988   0.001   3.629  0.4871 -0.6927  0.2588
  131OSM   H10F14092   1.069  -0.072   3.636  0.0240 -1.2245  0.1646
  131OSM   C11F14093   0.954   0.082   3.753  0.6532 -0.1178  0.3165
  131OSM   H11F14094   0.845   0.074   3.772  0.6382 -0.6728  0.0197
  131OSM   H11G14095   0.990   0.185   3.733  2.1481 -0.8050 -0.8298
  131OSM   C12F14096   1.042   0.019   3.862 -0.7702 -0.2406  0.0299
  131OSM   H12F14097   1.141  -0.011   3.823  0.0310  1.1063  0.9325
  131OSM   H12G14098   1.015  -0.077   3.910 -0.9104 -0.5155 -0.5981
  131OSM   C13F14099   1.066   0.120   3.980  0.2137  0.2688 -0.2750
  131OSM   H13F14100   0.964   0.145   4.018 -0.4235  0.8403 -2.2623
  131OSM   H13G14101   1.096   0.212   3.925  2.3864  0.3178  0.8978
  131OSM   C14F14102   1.150   0.079   4.104 -0.0310  0.2733 -0.4613
  131OSM   H14F14103   1.252   0.057   4.065 -0.5066 -1.5764 -0.7400
  131OSM   H14G14104   1.107  -0.013   4.148 -1.1975 -1.0476 -3.9857
  131OSM   C15F14105   1.141   0.195   4.205 -0.1234 -0.4034  0.3376
  131OSM   H15F14106   1.035   0.228   4.207 -0.1254 -0.4138  1.5968
  131OSM   H15G14107   1.210   0.275   4.173  2.2460 -3.0341 -1.6002
  131OSM   C16F14108   1.168   0.156   4.346 -0.0660  0.3467  0.4668
  131OSM   H16F14109   1.276   0.137   4.367 -0.0594 -2.0027 -1.2951
  131OSM   H16G14110   1.117   0.067   4.388  1.1301 -0.2235  0.7490
  131OSM   C17F14111   1.143   0.270   4.445 -0.3328  0.0016 -0.5140
  131OSM   H17F14112   1.179   0.227   4.541 -0.9363  0.4688 -0.0658
  131OSM   H17G14113   1.036   0.301   4.442 -0.3334  0.1110  0.3538
  131OSM   C18F14114   1.233   0.399   4.431 -0.1400 -0.8156 -0.8309
  131OSM   H18F14115   1.220   0.483   4.503 -0.4884 -1.5808  0.0155
  131OSM   H18G14116   1.203   0.438   4.332 -0.2845  1.8012  0.1694
  131OSM   H18H14117   1.338   0.363   4.423 -0.0844 -0.5076 -1.4513
  132OSM      N14118   1.416   5.906   1.803  0.0632 -0.3012  0.0445
  132OSM    C1514119   1.344   5.963   1.687 -0.8187 -0.4813 -0.6351
  132OSM   H15A14120   1.407   5.967   1.599  0.4944  0.8759  0.3203
  132OSM   H15B14121   1.298   6.059   1.703 -1.6466 -0.5382 -2.3902
  132OSM   H15C14122   1.270   5.889   1.660  0.9359 -2.1149 -1.2592
  132OSM    C1414123   1.488   5.781   1.761  0.7988 -0.1866  0.0662
  132OSM   H14A14124   1.423   5.713   1.709 -0.0085  0.0515  0.7498
  132OSM   H14B14125   1.514   5.721   1.846  0.4206 -0.5279 -0.0552
  132OSM   H14C14126   1.578   5.808   1.707  0.9189  0.7400  0.7115
  132OSM    C1314127   1.513   6.008   1.845 -0.0419  0.5382 -0.6189
  132OSM   H13A14128   1.566   5.964   1.929  0.5805 -1.2967 -1.9031
  132OSM   H13B14129   1.463   6.100   1.869 -2.5532 -1.6585  3.8334
  132OSM   H13C14130   1.595   6.035   1.780  0.4291  3.3903  0.9752
  132OSM    C1214131   1.318   5.871   1.910 -0.2427 -0.7893  0.0289
  132OSM   H12A14132   1.236   5.809   1.878  0.4242 -2.0188  0.6210
  132OSM   H12B14133   1.261   5.960   1.933  0.2383  0.2420 -2.4356
  132OSM    C1114134   1.384   5.808   2.039 -0.1303  0.0543 -0.3405
  132OSM   H11A14135   1.316   5.837   2.122 -2.6904  0.4070 -2.4382
  132OSM   H11B14136   1.483   5.856   2.060  0.2560 -1.1330  0.6924
  132OSM      P14137   1.295   5.562   2.026 -0.1934  0.1653 -0.2855
  132OSM    O1314138   1.210   5.591   1.908  0.2346 -0.0922  0.2282
  132OSM    O1414139   1.351   5.427   2.027 -0.2256  0.2559  0.4103
  132OSM    O1114140   1.212   5.589   2.155 -0.1199 -0.3552  0.0112
  132OSM    O1214141   1.417   5.670   2.034  0.1936  0.3567  0.4430
  132OSM    C1S14142   1.276   5.564   2.283 -0.1480 -0.5108  0.3902
  132OSM    H1S14143   1.387   5.555   2.279 -0.2142 -1.1663 -0.0558
  132OSM    H1T14144   1.249   5.460   2.310 -1.7158  0.0605  1.1731
  132OSM     NF14145   1.277   5.630   2.523  0.4190  0.2889 -0.5544
  132OSM    HNF14146   1.224   5.579   2.591 -2.1782  2.3407 -0.8785
  132OSM    C2S14147   1.205   5.637   2.401 -0.0167  0.1341 -0.6968
  132OSM    H2S14148   1.209   5.744   2.371 -0.7068  0.6773  1.0055
  132OSM    C3S14149   1.057   5.599   2.414  0.0588  0.0695 -1.1560
  132OSM    H3S14150   1.052   5.489   2.431  0.0911  0.3786  1.2750
  132OSM     O314151   0.987   5.629   2.296  0.3485  0.0402 -0.4185
  132OSM    HO314152   1.053   5.617   2.228  0.8262  0.1195  0.0227
  132OSM    C4S14153   0.987   5.676   2.524 -0.2788 -0.0747  1.0318
  132OSM    H4S14154   0.986   5.786   2.516  1.3902 -0.1267 -0.3381
  132OSM    C5S14155   0.931   5.612   2.630  0.1057  0.1511 -0.6356
  132OSM    H5S14156   0.943   5.503   2.630  3.3156  0.3592  2.0472
  132OSM    C6S14157   0.857   5.690   2.735 -0.0233  0.0838  0.4381
  132OSM    H6S14158   0.752   5.654   2.725  0.5227 -1.9200  1.3617
  132OSM    H6T14159   0.856   5.800   2.725 -1.0147 -0.0534 -1.8342
  132OSM    C7S14160   0.908   5.662   2.879  0.0651 -0.0924  0.2118
  132OSM    H7S14161   1.016   5.688   2.890 -0.3910  2.0272  0.0386
  132OSM    H7T14162   0.892   5.552   2.889 -1.5728  0.0418 -0.6218
  132OSM    C8S14163   0.818   5.729   2.986 -0.4905  0.3659  0.3172
  132OSM    H8S14164   0.712   5.720   2.956 -1.3852  1.0745  2.9870
  132OSM    H8T14165   0.846   5.837   2.983 -0.3650  0.3189 -2.4483
  132OSM    C9S14166   0.833   5.677   3.130 -0.2886 -0.0204  0.6687
  132OSM    H9S14167   0.929   5.622   3.142  0.6963  1.4563 -0.1050
  132OSM    H9T14168   0.758   5.596   3.136 -0.2382 -0.2433 -1.1489
  132OSM   C10S14169   0.832   5.790   3.240 -0.4008 -1.0445  0.1493
  132OSM   H10S14170   0.897   5.869   3.196  2.6257 -2.9098  1.0034
  132OSM   H10T14171   0.885   5.748   3.328  2.0999 -1.1442 -1.3042
  132OSM   C11S14172   0.693   5.837   3.273 -0.2063 -0.7721  0.1974
  132OSM   H11S14173   0.620   5.754   3.262 -0.1711 -0.4598 -4.1423
  132OSM   H11T14174   0.660   5.920   3.206 -0.6283 -1.8191 -0.9441
  132OSM   C12S14175   0.686   5.880   3.415 -0.6266  0.1629 -0.3745
  132OSM   H12S14176   0.728   5.799   3.479 -0.4014  0.3559 -0.2771
  132OSM   H12T14177   0.579   5.905   3.435 -0.4908 -0.1176  0.8086
  132OSM   C13S14178   0.776   6.002   3.432  0.6502 -0.5673  0.2972
  132OSM   H13S14179   0.744   6.086   3.366  0.5582  0.6753  1.8536
  132OSM   H13T14180   0.880   5.981   3.399 -0.4118  0.0220 -4.1817
  132OSM   C14S14181   0.780   6.060   3.571  0.3881 -0.5129  0.1937
  132OSM   H14S14182   0.680   6.071   3.618  0.1006 -2.4799  0.1046
  132OSM   H14T14183   0.835   6.157   3.570  1.1137 -0.7952 -3.6593
  132OSM   C15S14184   0.860   5.972   3.668  0.2627 -0.0411 -0.0130
  132OSM   H15S14185   0.952   5.956   3.608  0.3169  1.1462 -0.2534
  132OSM   H15T14186   0.821   5.869   3.679  0.6310 -0.0597  1.3042
  132OSM   C16S14187   0.892   6.030   3.806 -0.4094  0.2663 -0.2852
  132OSM   H16S14188   0.908   6.140   3.804  0.5528  0.2878  2.8880
  132OSM   H16T14189   0.985   5.984   3.845 -2.5182 -1.1242  3.5826
  132OSM   C17S14190   0.786   6.010   3.917  0.3825 -0.5104 -0.6573
  132OSM   H17S14191   0.758   5.902   3.912  1.3071 -0.8948  1.5772
  132OSM   H17T14192   0.689   6.061   3.900  1.6705  2.0897 -0.7702
  132OSM   C18S14193   0.836   6.040   4.058 -0.1778 -0.3314  0.3930
  132OSM   H18S14194   0.896   6.133   4.044 -1.9336  0.6268 -1.2543
  132OSM   H18T14195   0.897   5.959   4.103  0.8916  0.9366  1.3256
  132OSM   H18U14196   0.754   6.069   4.127  0.2526  1.1558  0.3348
  132OSM    C1F14197   1.401   5.671   2.544  0.3704  0.3735  0.2911
  132OSM     OF14198   1.468   5.723   2.456  0.0976 -0.3583  0.5003
  132OSM    C2F14199   1.455   5.658   2.689  0.0069  0.0622 -0.1138
  132OSM    H2F14200   1.406   5.569   2.733  0.0586  1.1271  2.2649
  132OSM    H2G14201   1.411   5.745   2.743 -1.0189 -0.9377  0.7069
  132OSM    C3F14202   1.611   5.648   2.709  0.1062 -0.4151 -0.2651
  132OSM    H3F14203   1.656   5.739   2.663  3.2422 -1.6449  0.1288
  132OSM    H3G14204   1.640   5.567   2.640  0.6703 -0.7815  0.3881
  132OSM    C4F14205   1.651   5.626   2.856  1.3132 -0.7035  0.6325
  132OSM    H4F14206   1.585   5.552   2.907  0.3170 -0.7415 -0.6632
  132OSM    H4G14207   1.639   5.721   2.911 -0.1869 -1.0360  0.9166
  132OSM    C5F14208   1.794   5.577   2.877  0.4861 -0.0122  1.0224
  132OSM    H5F14209   1.867   5.603   2.798 -0.2334 -0.9472  0.0245
  132OSM    H5G14210   1.795   5.466   2.882 -2.4920 -0.3539 -2.3292
  132OSM    C6F14211   1.863   5.635   2.999 -0.5724 -0.2513  0.4338
  132OSM    H6F14212   1.805   5.622   3.092 -0.0620  0.9443  0.9437
  132OSM    H6G14213   1.872   5.743   2.974  2.5423 -0.7808 -1.3571
  132OSM    C7F14214   2.009   5.575   3.007 -0.4919  0.0884 -0.4722
  132OSM    H7F14215   2.058   5.647   3.076 -0.2550  1.4961 -2.0302
  132OSM    H7G14216   2.071   5.575   2.914 -0.6391  0.3295 -0.5712
  132OSM    C8F14217   2.021   5.430   3.067  0.1012  0.2283  0.0411
  132OSM    H8F14218   1.979   5.365   2.988  0.0715  0.5507 -0.2098
  132OSM    H8G14219   1.950   5.432   3.152 -2.6778 -0.6504 -2.1223
  132OSM    C9F14220   2.162   5.391   3.105 -0.0499 -0.2232  0.5324
  132OSM    H9F14221   2.232   5.408   3.022 -0.7946  0.7835  0.0825
  132OSM   C10F14222   2.208   5.336   3.220  0.3099  0.2219 -0.1659
  132OSM   H10F14223   2.313   5.306   3.235 -0.0513 -0.3627  1.3555
  132OSM   C11F14224   2.120   5.301   3.341 -0.4611 -0.1097 -0.0017
  132OSM   H11F14225   2.035   5.244   3.299  0.0012 -1.0336  0.2863
  132OSM   H11G14226   2.083   5.391   3.394 -0.6524 -0.0555 -0.2294
  132OSM   C12F14227   2.180   5.203   3.441  0.7862  0.7878  0.1340
  132OSM   H12F14228   2.212   5.111   3.387 -1.7014 -0.9773  1.4288
  132OSM   H12G14229   2.096   5.178   3.510  1.5596  0.6605  1.0461
  132OSM   C13F14230   2.282   5.285   3.527 -0.2078  0.2117 -0.0502
  132OSM   H13F14231   2.235   5.376   3.567  1.2719  1.8715 -1.8803
  132OSM   H13G14232   2.370   5.314   3.465  0.5007 -2.2597 -0.3388
  132OSM   C14F14233   2.341   5.206   3.650 -0.9216  1.0867  0.0343
  132OSM   H14F14234   2.414   5.264   3.710 -0.4263  1.0428 -0.5131
  132OSM   H14G14235   2.399   5.121   3.608  0.7892  1.9947  0.4947
  132OSM   C15F14236   2.240   5.137   3.746 -0.6986 -0.1403  0.2955
  132OSM   H15F14237   2.157   5.078   3.701  0.2749 -0.4696 -1.1432
  132OSM   H15G14238   2.195   5.226   3.795  0.1378  0.7630 -0.5450
  132OSM   C16F14239   2.307   5.038   3.848 -0.5107 -0.0462  0.7076
  132OSM   H16F14240   2.368   5.100   3.916  0.1774  1.7528 -1.4242
  132OSM   H16G14241   2.383   4.983   3.787 -0.4566  0.8144 -0.0316
  132OSM   C17F14242   2.206   4.950   3.925 -0.2856  0.0870 -0.4026
  132OSM   H17F14243   2.271   4.881   3.983  0.9558  0.5301 -1.2440
  132OSM   H17G14244   2.153   4.887   3.850 -0.3811 -3.1275  2.0953
  132OSM   C18F14245   2.112   5.034   4.022  0.6873  0.3846  0.3492
  132OSM   H18F14246   2.053   5.118   3.980 -1.4229 -1.8810 -1.5231
  132OSM   H18G14247   2.172   5.065   4.110  0.7690 -0.9529  0.7959
  132OSM   H18H14248   2.033   4.963   4.057  0.6567 -0.4629 -1.3652
  133OSM      N14249   5.560   0.759   1.892  0.2669 -0.2405  0.6909
  133OSM    C1514250   5.626   0.811   2.018 -0.0793  0.4321 -0.5857
  133OSM   H15A14251   5.580   0.904   2.048  0.5927 -0.2433  2.9832
  133OSM   H15B14252   5.731   0.833   2.001 -0.2763  0.7430 -1.4676
  133OSM   H15C14253   5.619   0.742   2.100  2.4793  0.7671  0.0220
  133OSM    C1414254   5.533   0.880   1.809 -0.3297 -0.3532 -0.9220
  133OSM   H14A14255   5.443   0.924   1.849 -1.3320 -2.1329 -1.0995
  133OSM   H14B14256   5.496   0.850   1.712 -1.1202  0.3918 -0.8669
  133OSM   H14C14257   5.623   0.939   1.801  0.2936 -1.3179 -1.1997
  133OSM    C1314258   5.650   0.668   1.811  0.0043 -0.2031  0.1357
  133OSM   H13A14259   5.590   0.638   1.726  0.2406  1.9488 -0.8494
  133OSM   H13B14260   5.683   0.581   1.866  0.4958 -0.3160 -0.3203
  133OSM   H13C14261   5.735   0.718   1.768 -0.7851  0.4869 -0.6810
  133OSM    C1214262   5.425   0.696   1.931 -0.5155 -0.1023  0.3571
  133OSM   H12A14263   5.357   0.681   1.849 -0.8190 -2.2530  0.9369
  133OSM   H12B14264   5.366   0.763   1.991 -0.8941  0.3455 -0.5089
  133OSM    C1114265   5.432   0.563   2.015  0.4276  0.5907 -0.4517
  133OSM   H11A14266   5.477   0.479   1.957 -1.1326 -0.6042 -0.0134
  133OSM   H11B14267   5.334   0.518   2.040  0.6539 -0.7549 -1.7873
  133OSM      P14268   5.427   0.598   2.275  0.1042 -0.0216 -0.1237
  133OSM    O1314269   5.338   0.485   2.291  0.1520  0.4859 -0.2960
  133OSM    O1414270   5.514   0.632   2.386  0.1461 -0.4951  0.0278
  133OSM    O1114271   5.336   0.722   2.230 -0.2374  0.2516 -0.0767
  133OSM    O1214272   5.516   0.579   2.136  0.2011 -0.0609 -0.6823
  133OSM    C1S14273   5.229   0.777   2.299  0.5004  0.5489 -0.1478
  133OSM    H1S14274   5.159   0.701   2.340  1.5513 -0.6854 -0.5791
  133OSM    H1T14275   5.167   0.838   2.230  0.8192 -0.4180 -1.3253
  133OSM     NF14276   5.169   0.872   2.515  0.2262 -0.1104 -0.5054
  133OSM    HNF14277   5.121   0.957   2.535  2.3705  1.0861 -0.1735
  133OSM    C2S14278   5.277   0.864   2.418  0.2493  0.1898  0.4636
  133OSM    H2S14279   5.369   0.817   2.460  1.0749 -0.4545 -1.8915
  133OSM    C3S14280   5.313   1.005   2.364  0.0077  0.3197 -0.0359
  133OSM    H3S14281   5.225   1.049   2.312  0.5368  1.0984 -0.2917
  133OSM     O314282   5.411   1.005   2.262  0.2925  0.7309 -0.3999
  133OSM    HO314283   5.417   0.911   2.243  2.2718  0.1686  2.3153
  133OSM    C4S14284   5.368   1.101   2.467  0.3492  0.7102 -0.3442
  133OSM    H4S14285   5.471   1.095   2.505  0.9771  1.1301 -1.8938
  133OSM    C5S14286   5.308   1.216   2.492  0.0866  0.5321  1.4337
  133OSM    H5S14287   5.212   1.249   2.452  0.0271 -1.9624 -0.6729
  133OSM    C6S14288   5.373   1.309   2.589  0.4531 -0.3159 -0.8320
  133OSM    H6S14289   5.359   1.414   2.556  0.5247  0.0068  0.1512
  133OSM    H6T14290   5.478   1.289   2.616  0.1321  1.4432  2.0582
  133OSM    C7S14291   5.307   1.301   2.729 -0.3307 -0.0671  0.4764
  133OSM    H7S14292   5.196   1.303   2.731 -0.3398 -0.8421  0.8920
  133OSM    H7T14293   5.337   1.398   2.775  0.4797  0.3822 -0.9639
  133OSM    C8S14294   5.361   1.192   2.820  0.3861  0.3000 -0.9408
  133OSM    H8S14295   5.472   1.187   2.818  0.4322  1.0754 -3.7484
  133OSM    H8T14296   5.300   1.102   2.799  2.5039 -1.1922 -0.9971
  133OSM    C9S14297   5.328   1.228   2.969  0.1220  0.2322  0.3406
  133OSM    H9S14298   5.347   1.130   3.018  0.2369  0.7593  1.3587
  133OSM    H9T14299   5.221   1.258   2.977  0.4286  1.7278 -0.7765
  133OSM   C10S14300   5.422   1.329   3.038 -0.1674  0.0723 -0.1155
  133OSM   H10S14301   5.407   1.425   2.984 -2.7237 -0.7486 -1.0285
  133OSM   H10T14302   5.528   1.299   3.023  0.2729  1.4523  0.0786
  133OSM   C11S14303   5.385   1.341   3.188 -0.0889  0.0166  0.6423
  133OSM   H11S14304   5.376   1.235   3.220 -0.0929  0.3299  1.7156
  133OSM   H11T14305   5.282   1.383   3.185 -0.8225 -1.7478 -1.8855
  133OSM   C12S14306   5.476   1.432   3.272 -0.1590  0.1808  0.0239
  133OSM   H12S14307   5.418   1.469   3.360  1.5669  1.4867  0.6822
  133OSM   H12T14308   5.506   1.521   3.214  0.0713  1.0156  1.3650
  133OSM   C13S14309   5.591   1.361   3.351  0.5061  0.4667  0.2715
  133OSM   H13S14310   5.665   1.436   3.385  0.4079 -0.2129  2.1226
  133OSM   H13T14311   5.646   1.294   3.282  2.4217  3.0937 -0.9321
  133OSM   C14S14312   5.531   1.290   3.467 -0.3786 -0.3576  0.3767
  133OSM   H14S14313   5.453   1.215   3.440 -0.6080  0.7779 -2.4260
  133OSM   H14T14314   5.483   1.364   3.534  0.5784  1.5798 -0.9819
  133OSM   C15S14315   5.636   1.227   3.557 -0.0714  0.0141 -0.4260
  133OSM   H15S14316   5.732   1.275   3.526 -0.2546  0.7462  0.1033
  133OSM   H15T14317   5.643   1.118   3.539 -0.6692 -0.0026 -0.5659
  133OSM   C16S14318   5.610   1.258   3.711 -0.0799 -0.3206 -0.5377
  133OSM   H16S14319   5.505   1.223   3.723 -0.6021  0.5358 -2.2658
  133OSM   H16T14320   5.618   1.368   3.726 -0.1916 -0.3787 -0.0441
  133OSM   C17S14321   5.706   1.190   3.798 -0.4873 -0.4991 -0.5714
  133OSM   H17S14322   5.808   1.223   3.772 -0.8527  0.4793 -0.7912
  133OSM   H17T14323   5.689   1.080   3.786  0.3192 -0.5667 -1.1079
  133OSM   C18S14324   5.679   1.227   3.945 -0.5227  0.0302 -0.3352
  133OSM   H18S14325   5.614   1.156   4.000 -0.5513 -1.2348 -1.9402
  133OSM   H18T14326   5.610   1.314   3.949 -0.4094  0.0805  2.4018
  133OSM   H18U14327   5.772   1.267   3.992 -0.7631 -0.4285  0.5673
  133OSM    C1F14328   5.163   0.770   2.600 -0.7747  0.1034 -0.6623
  133OSM     OF14329   5.227   0.673   2.575  0.4718  0.2062 -0.4930
  133OSM    C2F14330   5.081   0.785   2.731  0.1789 -0.4162  0.1128
  133OSM    H2F14331   4.972   0.768   2.718 -0.2253 -1.4454  3.6953
  133OSM    H2G14332   5.115   0.874   2.787  1.4762 -0.5546 -0.4070
  133OSM    C3F14333   5.111   0.668   2.823 -0.3928  0.6704 -0.3941
  133OSM    H3F14334   5.218   0.673   2.853 -0.0443 -0.9844 -1.2568
  133OSM    H3G14335   5.090   0.572   2.771  1.4477  0.6072 -1.1137
  133OSM    C4F14336   5.024   0.674   2.951  0.1914 -0.4598 -0.3742
  133OSM    H4F14337   5.022   0.572   2.993 -1.7432  0.3470  1.6636
  133OSM    H4G14338   4.920   0.688   2.915 -0.4841  0.0207  1.6366
  133OSM    C5F14339   5.072   0.785   3.048  0.0800 -0.5698  0.8258
  133OSM    H5F14340   5.055   0.882   2.997 -0.0263 -1.7634 -1.5111
  133OSM    H5G14341   5.181   0.774   3.067 -0.1451 -1.9516  1.4297
  133OSM    C6F14342   5.008   0.780   3.187 -0.3092  1.0770 -0.4454
  133OSM    H6F14343   5.065   0.834   3.266 -1.2030  0.9482  0.3119
  133OSM    H6G14344   4.994   0.673   3.213  1.7298  1.2229  1.5962
  133OSM    C7F14345   4.866   0.843   3.206  0.1957  0.2773  1.1845
  133OSM    H7F14346   4.806   0.790   3.129  0.1456 -0.4175  1.6948
  133OSM    H7G14347   4.863   0.953   3.186  0.9147  0.1679  0.4539
  133OSM    C8F14348   4.808   0.810   3.346  0.0706 -0.1903 -0.0217
  133OSM    H8F14349   4.884   0.853   3.415 -0.2440  1.7862 -0.8631
  133OSM    H8G14350   4.797   0.702   3.371  1.5436 -0.1686  0.8429
  133OSM    C9F14351   4.668   0.868   3.354 -0.1343  0.5784 -0.9802
  133OSM    H9F14352   4.622   0.894   3.258  0.5755  1.6664 -1.0537
  133OSM   C10F14353   4.586   0.875   3.466 -0.0986  0.1226  0.2638
  133OSM   H10F14354   4.487   0.921   3.453  1.0823  2.6856 -0.2773
  133OSM   C11F14355   4.611   0.822   3.602 -0.6130 -0.5700  0.2370
  133OSM   H11F14356   4.713   0.778   3.613  0.1266  1.0653  0.1882
  133OSM   H11G14357   4.549   0.735   3.632 -0.8787 -0.3684  0.2735
  133OSM   C12F14358   4.599   0.934   3.712  0.2332  0.2636  0.0446
  133OSM   H12F14359   4.490   0.956   3.714  0.2253  0.3219 -0.6800
  133OSM   H12G14360   4.650   1.026   3.675 -0.0327 -0.1005 -1.2577
  133OSM   C13F14361   4.653   0.901   3.849  0.2657 -0.1325 -0.0813
  133OSM   H13F14362   4.708   0.993   3.878 -0.9045  1.1071 -1.5829
  133OSM   H13G14363   4.722   0.815   3.839  0.8978  0.3657 -0.0779
  133OSM   C14F14364   4.537   0.867   3.951 -0.4778 -0.3512 -0.0111
  133OSM   H14F14365   4.492   0.767   3.932 -1.1486  0.2272 -1.6257
  133OSM   H14G14366   4.457   0.944   3.956  0.1583  0.2644  2.5448
  133OSM   C15F14367   4.591   0.854   4.097 -0.2938 -0.3268  0.8396
  133OSM   H15F14368   4.635   0.947   4.140  0.9987 -0.5997  0.1315
  133OSM   H15G14369   4.678   0.785   4.097  0.8954  1.1198  0.1620
  133OSM   C16F14370   4.492   0.789   4.194 -0.1487  0.6614  0.2440
  133OSM   H16F14371   4.452   0.690   4.164  3.1489 -1.3514  1.9020
  133OSM   H16G14372   4.408   0.860   4.208  0.6695  1.9505 -1.0826
  133OSM   C17F14373   4.567   0.760   4.324 -0.0734  0.0637 -1.3143
  133OSM   H17F14374   4.651   0.833   4.325  1.4068 -1.5623 -1.1295
  133OSM   H17G14375   4.613   0.659   4.331  3.2305  1.5265  0.7434
  133OSM   C18F14376   4.491   0.771   4.458  0.1106  0.3559  0.7295
  133OSM   H18F14377   4.397   0.711   4.453 -0.2688  0.8838  1.3494
  133OSM   H18G14378   4.476   0.877   4.487 -1.1399  0.3919  0.0245
  133OSM   H18H14379   4.553   0.728   4.539 -0.8229  1.1247  1.8955
  134OSM      N14380   4.186   4.385   2.535  0.3493 -0.1370 -0.1098
  134OSM    C1514381   4.118   4.345   2.657 -0.7599  0.1239 -0.8222
  134OSM   H15A14382   4.175   4.369   2.746 -1.8228  0.5491 -0.2475
  134OSM   H15B14383   4.095   4.240   2.650  0.7572 -0.4902  1.8355
  134OSM   H15C14384   4.025   4.399   2.666 -1.5240 -1.1981 -0.4371
  134OSM    C1414385   4.083   4.356   2.429 -0.1688 -0.0277 -0.0581
  134OSM   H14A14386   4.125   4.385   2.334  0.5103  1.4708  0.6683
  134OSM   H14B14387   3.990   4.407   2.451  0.1781  1.6515 -2.1570
  134OSM   H14C14388   4.050   4.254   2.423  2.3026 -0.7986 -3.1689
  134OSM    C1314389   4.216   4.528   2.539  0.6092  0.2402  0.3433
  134OSM   H13A14390   4.293   4.553   2.610  1.5259  0.6806 -0.7746
  134OSM   H13B14391   4.132   4.592   2.563 -1.2459 -1.7994 -0.3714
  134OSM   H13C14392   4.256   4.561   2.444 -0.5525  1.1795  0.1673
  134OSM    C1214393   4.314   4.306   2.512 -0.2101 -1.1873 -0.0052
  134OSM   H12A14394   4.298   4.199   2.502 -0.0476 -1.2054 -0.0751
  134OSM   H12B14395   4.371   4.309   2.604  1.3620  0.2689 -0.9695
  134OSM    C1114396   4.402   4.355   2.392  0.0298 -0.2514 -0.7613
  134OSM   H11A14397   4.336   4.348   2.303  3.1555 -0.4472 -3.2622
  134OSM   H11B14398   4.483   4.281   2.375  0.4891  0.3736 -1.3742
  134OSM      P14399   4.575   4.505   2.507 -0.3097  0.2854  0.0365
  134OSM    O1314400   4.703   4.509   2.432  0.5599  0.1072 -0.6390
  134OSM    O1414401   4.550   4.618   2.602  0.0373  0.1460  0.2012
  134OSM    O1114402   4.577   4.368   2.587  0.2007 -0.6249 -0.0686
  134OSM    O1214403   4.454   4.486   2.404  0.1994  0.2349 -0.2047
  134OSM    C1S14404   4.690   4.329   2.667 -0.8406 -0.2925  0.2968
  134OSM    H1S14405   4.778   4.371   2.614 -0.4587  1.4041  2.1467
  134OSM    H1T14406   4.701   4.219   2.669 -2.1215 -0.4853 -1.3989
  134OSM     NF14407   4.832   4.348   2.875  0.3389 -0.5603 -0.3920
  134OSM    HNF14408   4.839   4.286   2.953 -1.1447  0.1436  0.3633
  134OSM    C2S14409   4.705   4.383   2.813 -0.2690  0.2937  0.2789
  134OSM    H2S14410   4.690   4.492   2.796 -0.2601  0.0757 -1.2403
  134OSM    C3S14411   4.580   4.344   2.896 -0.0565  0.2373  0.2140
  134OSM    H3S14412   4.601   4.238   2.923  1.2196  0.4174  0.0114
  134OSM     O314413   4.455   4.349   2.824 -0.1108 -0.1228  0.7039
  134OSM    HO314414   4.493   4.367   2.738  1.8170  1.4128  1.7938
  134OSM    C4S14415   4.564   4.417   3.028  0.0011  0.2276  0.6156
  134OSM    H4S14416   4.618   4.356   3.101 -0.6256  0.1079  0.9873
  134OSM    C5S14417   4.505   4.532   3.057  0.4452  0.1494 -0.2937
  134OSM    H5S14418   4.442   4.589   2.988 -0.1489 -1.9344 -1.5616
  134OSM    C6S14419   4.485   4.575   3.197 -0.5298 -0.0815 -0.1693
  134OSM    H6S14420   4.377   4.574   3.221 -0.3145  2.0835  1.1578
  134OSM    H6T14421   4.516   4.682   3.206  2.1519 -0.7646 -0.2893
  134OSM    C7S14422   4.556   4.495   3.309  0.6381 -0.1365  0.2088
  134OSM    H7S14423   4.665   4.514   3.298  0.1058  2.2956 -2.0075
  134OSM    H7T14424   4.545   4.385   3.296 -1.6720 -0.5101  3.6844
  134OSM    C8S14425   4.504   4.523   3.453  0.2290  0.2108 -0.2252
  134OSM    H8S14426   4.399   4.488   3.458  0.6402 -1.0694 -0.1857
  134OSM    H8T14427   4.486   4.633   3.453  0.2039  0.2274  1.3628
  134OSM    C9S14428   4.579   4.483   3.575  0.0707  0.4296 -0.9524
  134OSM    H9S14429   4.673   4.542   3.571 -0.6427  1.5460 -1.9174
  134OSM    H9T14430   4.595   4.374   3.559  1.1200  0.5963 -1.1578
  134OSM   C10S14431   4.494   4.512   3.705 -0.3673  0.0892  0.5032
  134OSM   H10S14432   4.390   4.477   3.696  0.2196 -1.3126 -1.5262
  134OSM   H10T14433   4.497   4.623   3.702  0.3561  0.0630 -0.3129
  134OSM   C11S14434   4.565   4.458   3.825  0.0575 -0.3278  0.0381
  134OSM   H11S14435   4.676   4.465   3.818  0.1103 -1.7545 -5.3206
  134OSM   H11T14436   4.539   4.350   3.834  0.4873 -0.4166  0.2165
  134OSM   C12S14437   4.524   4.527   3.956 -0.2673  0.5853  0.1550
  134OSM   H12S14438   4.414   4.538   3.969 -0.4020 -0.9019  0.5191
  134OSM   H12T14439   4.574   4.624   3.974 -0.3924  0.2239  2.8918
  134OSM   C13S14440   4.566   4.435   4.079 -0.5787  0.2287  0.3457
  134OSM   H13S14441   4.674   4.439   4.108 -0.4967 -1.7402  0.4468
  134OSM   H13T14442   4.557   4.329   4.051 -0.8408 -0.1635  1.8279
  134OSM   C14S14443   4.468   4.462   4.201 -0.7568  0.2308  0.5886
  134OSM   H14S14444   4.369   4.421   4.170 -0.3489  0.3659 -0.9892
  134OSM   H14T14445   4.456   4.564   4.245 -0.4385 -0.3174  1.9846
  134OSM   C15S14446   4.510   4.381   4.325 -0.5941 -0.4313 -0.2554
  134OSM   H15S14447   4.620   4.399   4.333 -0.5097 -1.1289  0.2243
  134OSM   H15T14448   4.501   4.272   4.307  0.1141 -0.7210  0.9914
  134OSM   C16S14449   4.428   4.412   4.447  0.1842  0.5765 -0.6584
  134OSM   H16S14450   4.324   4.385   4.421  0.2010  0.3942 -0.5382
  134OSM   H16T14451   4.422   4.522   4.462 -0.2959  0.6342 -1.2218
  134OSM   C17S14452   4.472   4.334   4.578  0.1723 -0.4936  0.1969
  134OSM   H17S14453   4.570   4.369   4.615  0.6182 -1.4378 -0.0533
  134OSM   H17T14454   4.494   4.233   4.537  0.1473 -0.8638  1.0651
  134OSM   C18S14455   4.364   4.337   4.687  0.7960 -0.1832 -0.7763
  134OSM   H18S14456   4.353   4.438   4.733  0.7531  0.0927 -1.3707
  134OSM   H18T14457   4.385   4.263   4.766 -4.8798 -1.8633 -0.4181
  134OSM   H18U14458   4.261   4.309   4.656  0.8879 -1.4029 -0.0484
  134OSM    C1F14459   4.947   4.394   2.829  0.2906 -0.2442 -0.0169
  134OSM     OF14460   4.953   4.503   2.771 -0.9385  0.1391 -0.7756
  134OSM    C2F14461   5.067   4.308   2.840 -0.1300  0.2679 -0.1960
  134OSM    H2F14462   5.090   4.266   2.739  1.0903  0.1151  0.1224
  134OSM    H2G14463   5.029   4.225   2.903 -2.3610  1.3882  0.0279
  134OSM    C3F14464   5.191   4.371   2.901  0.0849  0.6444 -0.0296
  134OSM    H3F14465   5.225   4.457   2.839 -0.0811  0.6581 -0.1042
  134OSM    H3G14466   5.269   4.294   2.885  0.7882  0.8389  2.1679
  134OSM    C4F14467   5.176   4.412   3.046  0.6509  0.3075 -0.7355
  134OSM    H4F14468   5.146   4.325   3.108  0.1673 -0.9400 -2.6393
  134OSM    H4G14469   5.107   4.499   3.047  0.0091 -0.1750 -1.9699
  134OSM    C5F14470   5.312   4.460   3.094 -0.6796  0.2907  0.1993
  134OSM    H5F14471   5.343   4.541   3.025 -1.3046 -0.1807 -0.6620
  134OSM    H5G14472   5.388   4.383   3.067  0.3378  1.6115 -0.7738
  134OSM    C6F14473   5.316   4.493   3.240  0.3687 -0.1501 -0.2949
  134OSM    H6F14474   5.278   4.406   3.297  4.1927 -1.7453  0.0602
  134OSM    H6G14475   5.232   4.561   3.266 -1.4529 -2.2148 -0.4957
  134OSM    C7F14476   5.446   4.547   3.296  0.0541 -0.4508  0.7184
  134OSM    H7F14477   5.445   4.657   3.281  2.3420 -0.3200  1.1744
  134OSM    H7G14478   5.534   4.508   3.240  1.5373 -0.2761  2.7973
  134OSM    C8F14479   5.464   4.522   3.445  0.2632 -0.3186  0.0974
  134OSM    H8F14480   5.571   4.540   3.468  0.4767 -2.2252  0.7878
  134OSM    H8G14481   5.456   4.411   3.447 -0.4274 -0.3138 -1.1429
  134OSM    C9F14482   5.367   4.599   3.531 -0.4615 -0.1783  0.5247
  134OSM    H9F14483   5.259   4.579   3.526 -0.7853  1.5825 -0.9072
  134OSM   C10F14484   5.411   4.704   3.610 -0.7563  0.1045  0.3138
  134OSM   H10F14485   5.338   4.750   3.678  0.7240  1.1664  1.2718
  134OSM   C11F14486   5.550   4.757   3.624 -1.1421  0.1314 -0.0453
  134OSM   H11F14487   5.587   4.769   3.520  1.3101 -1.7374  0.5093
  134OSM   H11G14488   5.607   4.670   3.666 -2.8288 -2.3401 -2.4963
  134OSM   C12F14489   5.567   4.895   3.697 -0.2314  0.4221  0.0294
  134OSM   H12F14490   5.514   4.977   3.643 -0.6930 -2.0939 -3.7250
  134OSM   H12G14491   5.672   4.923   3.678 -0.2618 -0.6519 -2.0461
  134OSM   C13F14492   5.532   4.894   3.842  0.6667  0.1079  0.4140
  134OSM   H13F14493   5.567   4.798   3.884  2.0595 -0.4750 -1.9031
  134OSM   H13G14494   5.422   4.901   3.857  0.4155  3.2191 -1.7553
  134OSM   C14F14495   5.598   5.009   3.905  0.2917 -0.3934 -0.0854
  134OSM   H14F14496   5.550   5.104   3.874  1.5049  0.2003 -0.1728
  134OSM   H14G14497   5.705   5.024   3.882 -0.5125  5.7959 -1.6038
  134OSM   C15F14498   5.578   4.996   4.055  0.2536  0.2376  1.0505
  134OSM   H15F14499   5.609   4.894   4.087 -1.4315 -0.0425  1.9142
  134OSM   H15G14500   5.468   5.006   4.067  0.1208  0.6214 -0.2851
  134OSM   C16F14501   5.657   5.098   4.125  0.3030  0.3739 -0.6488
  134OSM   H16F14502   5.655   5.194   4.070  1.5349  2.3661  2.4887
  134OSM   H16G14503   5.756   5.050   4.137 -0.7446 -2.2048 -1.5750
  134OSM   C17F14504   5.601   5.140   4.260 -0.1075 -0.1847  0.0816
  134OSM   H17F14505   5.616   5.053   4.327 -0.9527  0.3885  1.0441
  134OSM   H17G14506   5.498   5.182   4.254  0.9166  2.3496 -1.4724
  134OSM   C18F14507   5.688   5.259   4.314  0.1747  0.0442 -0.6063
  134OSM   H18F14508   5.661   5.280   4.420  1.0482  1.7991 -0.6960
  134OSM   H18G14509   5.673   5.349   4.250 -0.0814  1.1962  1.0102
  134OSM   H18H14510   5.797   5.238   4.306  0.4409  0.5063  1.1968
  135OSM      N14511   6.160   6.804   2.172  0.1728  0.1274  0.3814
  135OSM    C1514512   6.048   6.896   2.131 -0.4134 -0.8162 -0.2101
  135OSM   H15A14513   5.961   6.895   2.195 -1.8112 -1.5066 -2.0370
  135OSM   H15B14514   5.999   6.870   2.038 -1.4952  2.8277 -0.8571
  135OSM   H15C14515   6.077   6.998   2.109 -0.4001 -0.8882 -0.5306
  135OSM    C1414516   6.091   6.668   2.189  0.7841  0.0574  0.1960
  135OSM   H14A14517   6.024   6.641   2.108 -0.8159 -2.5013  2.2009
  135OSM   H14B14518   6.019   6.671   2.269  0.1862  3.0475 -0.3272
  135OSM   H14C14519   6.157   6.585   2.207 -1.2586 -1.0491  3.4387
  135OSM    C1314520   6.253   6.800   2.059 -0.2593 -0.2306  0.3129
  135OSM   H13A14521   6.298   6.898   2.045 -1.7402  0.2620 -1.4769
  135OSM   H13B14522   6.200   6.767   1.971  1.0638 -1.1893 -0.1512
  135OSM   H13C14523   6.333   6.728   2.073 -2.3042 -2.6765  0.0766
  135OSM    C1214524   6.223   6.851   2.295  0.1896  0.2771 -0.0310
  135OSM   H12A14525   6.147   6.880   2.366  0.6329  3.1670 -0.5870
  135OSM   H12B14526   6.268   6.949   2.290 -0.8569  0.9202  1.9529
  135OSM    C1114527   6.324   6.749   2.351  0.3312 -0.4653 -0.3917
  135OSM   H11A14528   6.269   6.665   2.399 -1.7145  0.4234 -1.0571
  135OSM   H11B14529   6.379   6.796   2.436 -2.3854 -0.8241  1.7268
  135OSM      P14530   6.570   6.784   2.241 -0.0257 -0.1765  0.3798
  135OSM    O1314531   6.653   6.711   2.142  0.0260  0.2304  0.0400
  135OSM    O1414532   6.545   6.925   2.210 -0.1062 -0.0812 -0.1762
  135OSM    O1114533   6.630   6.759   2.384 -0.8367  0.2539 -0.6036
  135OSM    O1214534   6.426   6.713   2.253 -0.0409  0.3966  0.6561
  135OSM    C1S14535   6.676   6.621   2.411 -0.1702 -0.2371  0.3979
  135OSM    H1S14536   6.754   6.600   2.334 -2.3833  0.5985 -2.2433
  135OSM    H1T14537   6.611   6.533   2.394 -0.5256  0.2408 -0.8314
  135OSM     NF14538   6.844   6.503   2.552  0.0009  0.0598 -0.2555
  135OSM    HNF14539   6.830   6.420   2.606 -0.7643  1.1441  1.2796
  135OSM    C2S14540   6.748   6.616   2.550 -0.5772 -0.0298  0.1699
  135OSM    H2S14541   6.809   6.709   2.557 -1.2858  0.4607 -0.1149
  135OSM    C3S14542   6.633   6.634   2.658  0.0426  0.5431  0.9075
  135OSM    H3S14543   6.564   6.549   2.640  1.2668  0.1164 -2.7176
  135OSM     O314544   6.546   6.744   2.635 -0.2535 -0.0345  0.0856
  135OSM    HO314545   6.571   6.766   2.545 -1.5945 -1.6874 -0.7574
  135OSM    C4S14546   6.682   6.635   2.802  0.3161 -0.7735  1.2036
  135OSM    H4S14547   6.723   6.733   2.833 -0.8663  0.3425 -0.5721
  135OSM    C5S14548   6.656   6.541   2.897 -0.5800 -0.3182  0.3201
  135OSM    H5S14549   6.601   6.451   2.865  0.2950 -0.9853  0.6598
  135OSM    C6S14550   6.694   6.566   3.042 -0.5672  0.2002 -0.0921
  135OSM    H6S14551   6.612   6.514   3.096  0.8556 -0.1081  1.8422
  135OSM    H6T14552   6.703   6.674   3.066  2.3933  0.2731 -1.1684
  135OSM    C7S14553   6.824   6.497   3.099  0.3727 -0.1162  0.5052
  135OSM    H7S14554   6.907   6.484   3.026 -0.2512 -0.8866 -0.0899
  135OSM    H7T14555   6.793   6.398   3.139  0.6684 -0.2519  0.3964
  135OSM    C8S14556   6.875   6.557   3.232  0.3517  0.2227 -0.3322
  135OSM    H8S14557   6.876   6.668   3.225  1.3072  0.2512  0.0594
  135OSM    H8T14558   6.978   6.522   3.255  0.9820  0.1987 -2.9165
  135OSM    C9S14559   6.784   6.514   3.346 -0.1349 -0.2607  0.0287
  135OSM    H9S14560   6.780   6.403   3.355 -0.0730 -0.1879  1.0548
  135OSM    H9T14561   6.678   6.540   3.325  0.0318 -0.9799 -1.9107
  135OSM   C10S14562   6.819   6.586   3.480  0.4679  0.1876  0.6492
  135OSM   H10S14563   6.797   6.693   3.457 -0.9122  0.3565  2.5676
  135OSM   H10T14564   6.921   6.557   3.514  0.2118 -0.5957  0.7509
  135OSM   C11S14565   6.722   6.549   3.588 -0.3388  0.5979  0.1962
  135OSM   H11S14566   6.739   6.441   3.605 -0.6097  0.4056 -0.7115
  135OSM   H11T14567   6.619   6.579   3.559  0.3524  3.2693  0.2666
  135OSM   C12S14568   6.757   6.615   3.722 -0.4347 -0.0926 -0.0793
  135OSM   H12S14569   6.750   6.723   3.694 -0.2210 -0.5525 -1.9813
  135OSM   H12T14570   6.861   6.587   3.749  0.1039  1.8016 -0.0508
  135OSM   C13S14571   6.652   6.598   3.830  0.3680  0.0670  0.1313
  135OSM   H13S14572   6.551   6.615   3.787  0.7379  0.3116 -0.6650
  135OSM   H13T14573   6.665   6.662   3.919 -0.7954  0.6474 -0.0991
  135OSM   C14S14574   6.655   6.458   3.890 -0.3967  0.6152 -0.8428
  135OSM   H14S14575   6.649   6.381   3.810  0.3243 -1.5528  1.0402
  135OSM   H14T14576   6.566   6.442   3.955  0.1104 -0.9254 -0.4625
  135OSM   C15S14577   6.781   6.431   3.982  0.1699  0.3504 -0.2732
  135OSM   H15S14578   6.794   6.509   4.060  1.8029  0.3095 -0.4816
  135OSM   H15T14579   6.870   6.444   3.916  0.0492 -1.6701 -0.9078
  135OSM   C16S14580   6.787   6.283   4.039 -0.3869 -0.3915  1.0415
  135OSM   H16S14581   6.892   6.252   4.024  0.4203  1.0643  3.2747
  135OSM   H16T14582   6.717   6.225   3.975 -0.7026  1.7679 -0.6927
  135OSM   C17S14583   6.772   6.276   4.189  0.5192 -0.4508  0.4081
  135OSM   H17S14584   6.765   6.167   4.209  2.5982 -0.7194 -0.0383
  135OSM   H17T14585   6.689   6.334   4.234  0.7415 -0.4574  0.8406
  135OSM   C18S14586   6.895   6.334   4.260  0.1082  0.2081  0.3813
  135OSM   H18S14587   6.891   6.313   4.370  2.3881  1.4923  0.7656
  135OSM   H18T14588   6.888   6.444   4.253 -2.8452  0.1613  1.3758
  135OSM   H18U14589   6.994   6.289   4.235  0.2900  0.5141  0.5419
  135OSM    C1F14590   6.967   6.521   2.494  0.1860  0.9230  0.3159
  135OSM     OF14591   6.997   6.631   2.448  0.1691  0.2017 -0.7789
  135OSM    C2F14592   7.066   6.410   2.486  0.5036  0.7133  0.2034
  135OSM    H2F14593   7.101   6.413   2.381 -1.3410 -0.4625 -0.4977
  135OSM    H2G14594   7.013   6.313   2.495  0.1946  0.4485 -3.1845
  135OSM    C3F14595   7.171   6.418   2.592  0.4715  0.1928  0.1071
  135OSM    H3F14596   7.205   6.523   2.581 -1.1670  0.5471 -2.7815
  135OSM    H3G14597   7.255   6.351   2.566 -0.0692  0.2689 -2.0657
  135OSM    C4F14598   7.128   6.394   2.741  0.2392  0.3967  0.2219
  135OSM    H4F14599   7.038   6.329   2.744 -0.1529  0.9869  1.8923
  135OSM    H4G14600   7.099   6.485   2.797  0.1302  0.0379  0.7503
  135OSM    C5F14601   7.247   6.337   2.830  0.3611 -0.4578  0.0440
  135OSM    H5F14602   7.321   6.419   2.838  2.1204 -1.6060 -3.1732
  135OSM    H5G14603   7.289   6.249   2.777  0.1700 -0.6358  0.1869
  135OSM    C6F14604   7.203   6.305   2.968  0.2478 -0.1458  0.0555
  135OSM    H6F14605   7.137   6.389   2.999 -0.6362  0.3169 -2.8176
  135OSM    H6G14606   7.291   6.301   3.035 -0.2262 -0.5114  0.6749
  135OSM    C7F14607   7.119   6.179   2.976  0.2041  0.3632 -0.3348
  135OSM    H7F14608   7.172   6.089   2.938 -1.3063 -0.0825 -1.5219
  135OSM    H7G14609   7.031   6.197   2.910  0.8750  0.9626 -1.0891
  135OSM    C8F14610   7.058   6.147   3.120 -0.1996  0.9268  0.1223
  135OSM    H8F14611   6.988   6.060   3.116 -0.2373  0.9659 -0.0614
  135OSM    H8G14612   7.010   6.240   3.155 -1.0627 -0.2996  2.4020
  135OSM    C9F14613   7.177   6.110   3.211  0.0335 -0.0989 -0.1621
  135OSM    H9F14614   7.254   6.048   3.162  0.5794  2.4298 -2.8138
  135OSM   C10F14615   7.191   6.157   3.334 -0.2618 -0.3938  0.0211
  135OSM   H10F14616   7.285   6.140   3.389  0.2752  1.0997 -0.3986
  135OSM   C11F14617   7.095   6.242   3.412  0.6331 -0.6948 -0.1253
  135OSM   H11F14618   7.006   6.290   3.366  1.8953  2.5178  0.4695
  135OSM   H11G14619   7.145   6.332   3.455 -1.3253  0.2781  0.2365
  135OSM   C12F14620   7.029   6.161   3.527 -0.0461  0.5503  0.3211
  135OSM   H12F14621   6.963   6.082   3.485  2.2781 -1.1084 -0.4532
  135OSM   H12G14622   6.983   6.234   3.596  0.7202  1.3710 -0.0106
  135OSM   C13F14623   7.121   6.097   3.623 -0.4483 -0.1873  0.1377
  135OSM   H13F14624   7.201   6.035   3.577 -2.1231 -0.7061 -2.2234
  135OSM   H13G14625   7.065   6.031   3.693 -0.6013  1.5505  1.7484
  135OSM   C14F14626   7.189   6.204   3.718  0.4008 -0.1165  0.5350
  135OSM   H14F14627   7.117   6.284   3.744 -2.7230 -2.2129 -1.0196
  135OSM   H14G14628   7.262   6.262   3.657  0.8075 -1.0267  0.1365
  135OSM   C15F14629   7.277   6.146   3.824 -0.6771 -0.0428 -0.0460
  135OSM   H15F14630   7.365   6.105   3.769 -0.8793 -0.8008  0.1851
  135OSM   H15G14631   7.223   6.065   3.878 -0.0026 -0.4584  0.0204
  135OSM   C16F14632   7.340   6.250   3.927 -0.0573  0.2807 -0.1767
  135OSM   H16F14633   7.358   6.341   3.866  1.4145 -0.6767 -1.2439
  135OSM   H16G14634   7.434   6.208   3.969 -0.5720 -0.9624 -0.2393
  135OSM   C17F14635   7.238   6.271   4.046  0.5998 -0.0392 -0.1335
  135OSM   H17F14636   7.133   6.291   4.014  0.1816  1.8986  2.1183
  135OSM   H17G14637   7.261   6.360   4.109 -0.7104  0.4357 -0.2800
  135OSM   C18F14638   7.227   6.146   4.132  0.2236  0.7821  0.2863
  135OSM   H18F14639   7.192   6.169   4.235 -0.3974 -1.2019  0.5544
  135OSM   H18G14640   7.327   6.101   4.153  0.9650  1.9071 -0.7278
  135OSM   H18H14641   7.163   6.069   4.085  1.6457 -0.5906  0.5128
  136OSM      N14642   3.414   3.528   1.961  0.0824 -0.5489 -0.2693
  136OSM    C1514643   3.526   3.423   1.988 -0.7347 -0.4222 -0.1960
  136OSM   H15A14644   3.576   3.449   2.080  1.4541 -2.5738 -0.6544
  136OSM   H15B14645   3.594   3.424   1.904  1.3570  0.2527  1.4357
  136OSM   H15C14646   3.485   3.323   1.992 -1.4332 -0.1431  3.2914
  136OSM    C1414647   3.478   3.665   1.952  0.7017  0.1009 -0.1723
  136OSM   H14A14648   3.561   3.671   1.883  0.7527 -1.4607 -0.3016
  136OSM   H14B14649   3.514   3.703   2.046 -0.0036  2.3299 -0.7560
  136OSM   H14C14650   3.413   3.741   1.913  1.9302  1.2320 -0.0827
  136OSM    C1314651   3.355   3.493   1.832  0.6337  0.4915  0.7266
  136OSM   H13A14652   3.258   3.537   1.816 -0.3816 -2.4425 -2.6110
  136OSM   H13B14653   3.328   3.388   1.825  0.7302  0.5146 -0.2209
  136OSM   H13C14654   3.422   3.507   1.748  0.9930 -1.6045  0.5953
  136OSM    C1214655   3.305   3.520   2.061 -0.1387  0.3627  0.0132
  136OSM   H12A14656   3.276   3.416   2.064  0.7211  0.1151  0.0555
  136OSM   H12B14657   3.218   3.575   2.030 -0.0047 -0.1083 -1.2768
  136OSM    C1114658   3.341   3.560   2.201 -0.3408 -0.1173 -0.7295
  136OSM   H11A14659   3.431   3.499   2.227 -0.3878 -0.0401 -0.3779
  136OSM   H11B14660   3.263   3.518   2.268 -0.3551 -0.6934 -1.1003
  136OSM      P14661   3.279   3.782   2.315  0.0380 -0.1545 -0.3438
  136OSM    O1314662   3.351   3.915   2.324  0.2215  1.1706  0.0552
  136OSM    O1414663   3.142   3.778   2.253  0.5108  0.4544 -0.2148
  136OSM    O1114664   3.281   3.709   2.460  0.4160  0.0072  0.6594
  136OSM    O1214665   3.367   3.693   2.224 -0.4504 -0.1705  0.3609
  136OSM    C1S14666   3.377   3.722   2.559  0.2891 -0.0731  0.1551
  136OSM    H1S14667   3.424   3.822   2.557 -0.8108  0.4598  0.1094
  136OSM    H1T14668   3.457   3.647   2.540 -0.1587 -1.3209  2.7228
  136OSM     NF14669   3.410   3.728   2.795 -0.5019  0.2508  0.4289
  136OSM    HNF14670   3.467   3.653   2.828  0.2703  0.2237 -0.8748
  136OSM    C2S14671   3.310   3.692   2.699  0.5834 -0.0036 -0.1690
  136OSM    H2S14672   3.226   3.763   2.706  1.4502  1.2163 -1.6188
  136OSM    C3S14673   3.250   3.546   2.712  0.6024 -0.0108 -0.9143
  136OSM    H3S14674   3.323   3.470   2.679  0.2134 -0.8602  0.1214
  136OSM     O314675   3.141   3.534   2.625 -0.2887  0.7079  0.2132
  136OSM    HO314676   3.156   3.602   2.558 -0.4224 -0.4869 -1.0725
  136OSM    C4S14677   3.217   3.525   2.860 -0.0206  0.0309 -0.1735
  136OSM    H4S14678   3.294   3.461   2.905 -1.9263 -2.3642 -0.1096
  136OSM    C5S14679   3.113   3.566   2.929 -0.1805  0.3908  0.7516
  136OSM    H5S14680   3.040   3.626   2.872  1.2150 -0.4422 -2.0716
  136OSM    C6S14681   3.087   3.533   3.071 -0.7326 -0.3584  0.3907
  136OSM    H6S14682   2.978   3.511   3.079 -0.3146 -2.5094  0.6414
  136OSM    H6T14683   3.103   3.624   3.132 -0.1040 -1.4168  1.8640
  136OSM    C7S14684   3.158   3.422   3.144  0.0727 -0.6062 -0.3778
  136OSM    H7S14685   3.264   3.450   3.163 -0.8474  1.6010  2.1537
  136OSM    H7T14686   3.157   3.330   3.082  1.6755 -0.5340 -0.5565
  136OSM    C8S14687   3.104   3.403   3.286 -0.0195  0.5891 -0.9295
  136OSM    H8S14688   3.157   3.317   3.332 -1.0473  1.2105  1.5593
  136OSM    H8T14689   2.997   3.379   3.299 -0.0618  1.1037 -0.2809
  136OSM    C9S14690   3.125   3.522   3.383 -0.0266  1.0039  0.6310
  136OSM    H9S14691   3.049   3.594   3.345 -1.5427 -1.4460 -1.2646
  136OSM    H9T14692   3.230   3.558   3.377 -0.5873  2.5150 -1.6579
  136OSM   C10S14693   3.100   3.506   3.528  0.5824  0.9175  0.1055
  136OSM   H10S14694   3.131   3.403   3.558 -0.7626  0.4838  0.0781
  136OSM   H10T14695   2.992   3.496   3.555  0.6655 -0.4277  0.0521
  136OSM   C11S14696   3.174   3.609   3.609 -0.0206  0.2223  0.2470
  136OSM   H11S14697   3.171   3.709   3.562 -0.9610 -0.3332 -0.9437
  136OSM   H11T14698   3.280   3.580   3.625 -0.5426 -1.0652  1.6421
  136OSM   C12S14699   3.120   3.621   3.754 -0.3646 -0.3663  0.3459
  136OSM   H12S14700   3.074   3.526   3.787 -3.0781 -0.2108 -2.5022
  136OSM   H12T14701   3.045   3.703   3.756 -0.1725 -0.1385 -0.8205
  136OSM   C13S14702   3.230   3.665   3.854  0.3745  0.2459 -0.2729
  136OSM   H13S14703   3.320   3.718   3.817  1.6404 -0.8816  1.0433
  136OSM   H13T14704   3.269   3.569   3.896 -0.1141  0.0276 -0.3088
  136OSM   C14S14705   3.172   3.738   3.968 -0.2123  0.3775 -0.0059
  136OSM   H14S14706   3.093   3.677   4.016  0.4595  0.7188  1.5825
  136OSM   H14T14707   3.119   3.830   3.936  1.2080  0.6267 -1.8216
  136OSM   C15S14708   3.279   3.764   4.082  0.3378 -0.4682 -1.0492
  136OSM   H15S14709   3.353   3.836   4.040  0.6702 -0.9013 -1.2133
  136OSM   H15T14710   3.337   3.671   4.098 -1.1310 -1.4419 -1.2217
  136OSM   C16S14711   3.217   3.817   4.210  0.0618  0.1721  0.1819
  136OSM   H16S14712   3.150   3.737   4.248 -1.0698  1.1556  0.3395
  136OSM   H16T14713   3.170   3.916   4.186 -1.0591  0.1528  2.1174
  136OSM   C17S14714   3.321   3.841   4.313  0.7365 -0.3750 -0.3699
  136OSM   H17S14715   3.267   3.873   4.405 -1.9377 -0.7498 -1.7188
  136OSM   H17T14716   3.378   3.930   4.280 -1.9086  1.2062 -0.9851
  136OSM   C18S14717   3.408   3.720   4.333  0.3643 -0.7503 -0.0245
  136OSM   H18S14718   3.459   3.737   4.430  0.8269  2.2050 -0.6974
  136OSM   H18T14719   3.489   3.711   4.259  3.2835  4.0311  2.0863
  136OSM   H18U14720   3.344   3.629   4.338  0.6092 -1.0550 -1.7702
  136OSM    C1F14721   3.436   3.856   2.830 -0.1205 -0.0783  1.1184
  136OSM     OF14722   3.373   3.945   2.770  0.1637  0.9048  0.2610
  136OSM    C2F14723   3.532   3.895   2.948  0.8540 -0.3317  1.0854
  136OSM    H2F14724   3.631   3.923   2.907  0.7553  0.3107  1.2792
  136OSM    H2G14725   3.544   3.797   3.001  3.6624 -1.3567 -1.1933
  136OSM    C3F14726   3.470   4.012   3.028 -0.7035  0.9260  0.3693
  136OSM    H3F14727   3.452   4.090   2.950  2.2282  1.0447 -0.3171
  136OSM    H3G14728   3.554   4.049   3.090 -1.0941  0.6126  1.0939
  136OSM    C4F14729   3.350   3.975   3.119  0.3632 -1.2012 -0.6674
  136OSM    H4F14730   3.279   3.923   3.051  1.5222 -2.2856 -1.0866
  136OSM    H4G14731   3.299   4.069   3.148  2.4989 -1.0661  3.4463
  136OSM    C5F14732   3.382   3.890   3.234 -0.1872 -0.0371 -0.3532
  136OSM    H5F14733   3.465   3.941   3.287 -0.5017 -0.7730  0.8787
  136OSM    H5G14734   3.427   3.793   3.203  0.3965 -0.2372  1.0492
  136OSM    C6F14735   3.267   3.853   3.333  0.7650  0.2046 -0.5140
  136OSM    H6F14736   3.301   3.788   3.417  0.2179 -1.1858 -1.3257
  136OSM    H6G14737   3.190   3.802   3.271 -0.3107  0.1032  0.8568
  136OSM    C7F14738   3.194   3.976   3.394  0.2258 -0.3272  0.2578
  136OSM    H7F14739   3.117   3.931   3.460 -0.5323 -1.8042 -1.5589
  136OSM    H7G14740   3.139   4.029   3.313 -2.3927 -2.3246  0.6062
  136OSM    C8F14741   3.289   4.085   3.457  0.0400  0.1545  0.5352
  136OSM    H8F14742   3.220   4.161   3.499 -0.1520 -0.1807  0.8315
  136OSM    H8G14743   3.328   4.148   3.374 -2.0002 -0.7838 -1.2173
  136OSM    C9F14744   3.377   4.035   3.564 -0.0704  0.3620  0.4903
  136OSM    H9F14745   3.457   3.970   3.526 -1.9307 -0.6288 -1.9951
  136OSM   C10F14746   3.369   4.042   3.703 -0.2303 -0.5224  0.3380
  136OSM   H10F14747   3.457   3.999   3.753  0.1730 -0.8554 -0.6256
  136OSM   C11F14748   3.268   4.120   3.779 -0.3993  0.1846  0.0797
  136OSM   H11F14749   3.172   4.065   3.782  1.1295 -2.7140 -0.6716
  136OSM   H11G14750   3.259   4.218   3.727 -0.1335 -0.0472 -0.4141
  136OSM   C12F14751   3.317   4.141   3.926 -0.3873  0.0928 -0.0041
  136OSM   H12F14752   3.427   4.156   3.922  0.2856 -3.9026 -1.5223
  136OSM   H12G14753   3.293   4.045   3.977 -0.1099  0.0426  0.0347
  136OSM   C13F14754   3.231   4.241   3.996  0.1000 -0.3148 -0.0504
  136OSM   H13F14755   3.130   4.201   3.973  0.4111 -1.7216  0.9191
  136OSM   H13G14756   3.241   4.340   3.945  2.2153 -0.1564  0.5952
  136OSM   C14F14757   3.245   4.245   4.147 -0.0879 -0.0271 -0.2899
  136OSM   H14F14758   3.223   4.143   4.183 -1.3506 -0.0278 -1.0008
  136OSM   H14G14759   3.171   4.311   4.199  1.7550  1.2238  0.8946
  136OSM   C15F14760   3.378   4.294   4.203 -0.2371 -0.1188 -0.0809
  136OSM   H15F14761   3.398   4.400   4.179 -0.5848  0.0149  0.2061
  136OSM   H15G14762   3.457   4.227   4.161 -0.4282  1.6176 -3.5853
  136OSM   C16F14763   3.387   4.295   4.358  0.3435  1.0915 -0.4579
  136OSM   H16F14764   3.375   4.189   4.390  1.4494  1.0894  0.0011
  136OSM   H16G14765   3.301   4.353   4.397 -0.9182 -0.0716 -1.3781
  136OSM   C17F14766   3.502   4.355   4.438  0.2157  0.1566  0.2514
  136OSM   H17F14767   3.586   4.283   4.432  0.1244  0.0482  0.2524
  136OSM   H17G14768   3.466   4.367   4.542  0.3982  2.4390  0.0967
  136OSM   C18F14769   3.552   4.484   4.386  0.0848 -0.0688  0.3245
  136OSM   H18F14770   3.626   4.528   4.457  0.6300 -0.3874 -0.0463
  136OSM   H18G14771   3.468   4.556   4.377 -1.2629 -1.2125  2.6156
  136OSM   H18H14772   3.616   4.488   4.296  1.2788  1.5792  1.1981
  137OSM      N14773   0.203   1.409   2.300  0.4310 -0.1519 -0.9967
  137OSM    C1514774   0.081   1.448   2.231 -0.3884 -0.1404 -0.1175
  137OSM   H15A14775   0.034   1.362   2.186  1.6124 -0.6071 -1.4421
  137OSM   H15B14776   0.104   1.522   2.156  0.5397 -0.9401 -0.6288
  137OSM   H15C14777   0.012   1.491   2.303  0.2244 -1.7719  1.5310
  137OSM    C1414778   0.164   1.321   2.410 -0.1545  0.1822 -0.5644
  137OSM   H14A14779   0.244   1.253   2.433 -1.1990 -0.6661  0.6361
  137OSM   H14B14780   0.074   1.263   2.398 -0.4422  0.9387 -2.4581
  137OSM   H14C14781   0.150   1.387   2.494  0.4159 -1.0936  0.5498
  137OSM    C1314782   0.293   1.332   2.203 -0.3474 -0.0275  0.7808
  137OSM   H13A14783   0.368   1.282   2.263  1.1613 -0.5001 -1.3895
  137OSM   H13B14784   0.350   1.395   2.137 -2.5275  2.0353  0.7566
  137OSM   H13C14785   0.235   1.251   2.161 -1.0769 -0.4235  2.4452
  137OSM    C1214786   0.266   1.539   2.357  0.1606 -0.3918 -0.7377
  137OSM   H12A14787   0.191   1.581   2.423 -1.5230 -3.6116 -0.3930
  137OSM   H12B14788   0.276   1.605   2.272  1.1806 -0.8476 -0.9796
  137OSM    C1114789   0.386   1.529   2.454  0.0753 -0.3441  0.6920
  137OSM   H11A14790   0.348   1.473   2.542  0.9914 -1.0836  0.6348
  137OSM   H11B14791   0.419   1.627   2.494  1.6793  0.4938 -2.3989
  137OSM      P14792   0.598   1.512   2.311  0.5683 -0.8809  0.3731
  137OSM    O1314793   0.594   1.441   2.173 -0.5234  0.5003 -0.3499
  137OSM    O1414794   0.583   1.667   2.321 -0.3883  0.2081  0.5739
  137OSM    O1114795   0.731   1.482   2.394 -0.0864 -0.6112  0.5413
  137OSM    O1214796   0.493   1.449   2.403 -0.0815 -0.4331  0.2721
  137OSM    C1S14797   0.748   1.512   2.539 -0.2147  0.1639  0.4780
  137OSM    H1S14798   0.675   1.453   2.598 -0.0290  0.5003  1.0535
  137OSM    H1T14799   0.733   1.620   2.560 -1.5112 -0.0595  0.7413
  137OSM     NF14800   0.872   1.473   2.756 -0.3721 -0.5750 -0.0158
  137OSM    HNF14801   0.921   1.541   2.810 -0.9900  0.5964 -0.8879
  137OSM    C2S14802   0.888   1.476   2.609  0.0694  0.1447  0.1814
  137OSM    H2S14803   0.927   1.377   2.577 -2.1740  0.0517 -2.6039
  137OSM    C3S14804   1.002   1.576   2.560  0.2065  0.3237 -0.5954
  137OSM    H3S14805   0.968   1.680   2.578  1.3243  0.2864  2.1908
  137OSM     O314806   1.028   1.568   2.422  0.8126  0.1258 -0.4420
  137OSM    HO314807   0.948   1.526   2.389 -1.2310  2.0547  1.6693
  137OSM    C4S14808   1.127   1.549   2.638 -0.2971 -0.3093 -0.6014
  137OSM    H4S14809   1.152   1.620   2.718 -0.0786  0.6993 -1.5321
  137OSM    C5S14810   1.218   1.450   2.621 -0.3251 -0.2508 -0.3585
  137OSM    H5S14811   1.211   1.372   2.544 -0.4275  0.1342 -0.7436
  137OSM    C6S14812   1.349   1.435   2.700 -0.2318  0.2371  0.7804
  137OSM    H6S14813   1.436   1.438   2.631  0.1003  1.0485  1.2280
  137OSM    H6T14814   1.359   1.328   2.729  0.6589 -0.0030 -0.3416
  137OSM    C7S14815   1.383   1.520   2.812 -0.7025  0.0004 -0.2161
  137OSM    H7S14816   1.388   1.624   2.773 -2.7623 -0.5292 -2.1589
  137OSM    H7T14817   1.486   1.503   2.849 -0.4555  1.9161  0.0568
  137OSM    C8S14818   1.286   1.496   2.932  0.3842 -0.5422 -0.3789
  137OSM    H8S14819   1.277   1.389   2.958 -0.1036 -0.1468  1.1891
  137OSM    H8T14820   1.188   1.548   2.923  1.1157  1.2726  1.2942
  137OSM    C9S14821   1.339   1.563   3.063 -0.6935  0.1178  1.1468
  137OSM    H9S14822   1.389   1.660   3.044 -0.8780 -0.0858 -0.4638
  137OSM    H9T14823   1.419   1.498   3.104 -0.1007 -0.7465 -1.2147
  137OSM   C10S14824   1.223   1.576   3.160  0.2982  0.0016  0.0659
  137OSM   H10S14825   1.170   1.479   3.157  0.5640 -0.1681  0.5890
  137OSM   H10T14826   1.149   1.650   3.121 -0.0311  0.5178  1.5951
  137OSM   C11S14827   1.264   1.610   3.300  0.1238  0.2326 -0.0638
  137OSM   H11S14828   1.338   1.532   3.327 -0.0547 -0.6712 -2.0220
  137OSM   H11T14829   1.174   1.604   3.364 -0.4261  0.7839 -0.7602
  137OSM   C12S14830   1.303   1.750   3.308 -0.4141 -0.7419  0.4096
  137OSM   H12S14831   1.217   1.816   3.331 -1.4509 -1.0779 -2.0842
  137OSM   H12T14832   1.354   1.793   3.219  1.4072 -0.0929  1.7197
  137OSM   C13S14833   1.408   1.775   3.418  0.3029  0.2458  0.0889
  137OSM   H13S14834   1.428   1.885   3.424 -0.9522  0.4863  0.1713
  137OSM   H13T14835   1.493   1.707   3.396  1.4111  0.4405  3.3004
  137OSM   C14S14836   1.360   1.737   3.556  0.3575 -0.6023  0.2422
  137OSM   H14S14837   1.337   1.628   3.548 -0.5010 -0.3651 -0.6008
  137OSM   H14T14838   1.272   1.795   3.590 -1.2361 -1.5728 -1.9982
  137OSM   C15S14839   1.466   1.758   3.663  0.1947 -0.4674 -0.6202
  137OSM   H15S14840   1.503   1.863   3.668 -0.9929 -0.0947  1.6140
  137OSM   H15T14841   1.556   1.696   3.642  1.4854 -0.0420  2.9321
  137OSM   C16S14842   1.419   1.718   3.800  0.3171  0.2849  0.8263
  137OSM   H16S14843   1.379   1.615   3.805 -2.9805  1.4618  1.1072
  137OSM   H16T14844   1.334   1.783   3.832 -2.0575 -1.1278 -2.1629
  137OSM   C17S14845   1.528   1.736   3.901  0.4202 -0.0056 -0.3555
  137OSM   H17S14846   1.560   1.842   3.905  0.7866 -0.1503  1.1885
  137OSM   H17T14847   1.615   1.673   3.873  1.4231  1.0315  0.3697
  137OSM   C18S14848   1.470   1.700   4.041  0.2605 -0.7465  0.2933
  137OSM   H18S14849   1.553   1.738   4.105  1.7086  0.5059 -2.2072
  137OSM   H18T14850   1.437   1.595   4.057 -0.7521 -0.5877 -0.7221
  137OSM   H18U14851   1.377   1.756   4.065 -0.2957 -1.2973 -0.5525
  137OSM    C1F14852   0.814   1.374   2.822 -0.1734  0.0198 -0.1058
  137OSM     OF14853   0.776   1.273   2.763 -0.0030  0.9282  0.0790
  137OSM    C2F14854   0.792   1.389   2.971 -0.0567 -0.8340 -0.6419
  137OSM    H2F14855   0.759   1.494   2.988 -0.1447 -1.1820  1.6369
  137OSM    H2G14856   0.891   1.377   3.021  0.5273  1.3143 -1.1716
  137OSM    C3F14857   0.690   1.282   3.020 -0.7586  0.0225 -0.2495
  137OSM    H3F14858   0.728   1.180   2.997 -1.0187  0.4143 -2.6773
  137OSM    H3G14859   0.593   1.297   2.968 -2.1204 -2.1203  1.5076
  137OSM    C4F14860   0.667   1.301   3.170  0.2192  0.7165 -0.1736
  137OSM    H4F14861   0.650   1.403   3.209  2.2324  0.2137  2.2877
  137OSM    H4G14862   0.762   1.276   3.222  0.6430  2.2853 -0.1509
  137OSM    C5F14863   0.549   1.217   3.210 -0.1977  0.3416  0.2962
  137OSM    H5F14864   0.567   1.110   3.187  0.8643  0.3396  1.0537
  137OSM    H5G14865   0.456   1.243   3.155 -0.4289  0.9468  0.9671
  137OSM    C6F14866   0.524   1.225   3.359 -0.1223  0.1093  0.6344
  137OSM    H6F14867   0.420   1.192   3.376 -0.8697  1.3049 -1.2220
  137OSM    H6G14868   0.521   1.328   3.400 -1.3622  0.4489 -0.2338
  137OSM    C7F14869   0.626   1.149   3.441  0.1787  0.1252  0.5291
  137OSM    H7F14870   0.612   1.174   3.549  1.0571 -0.6695  0.8505
  137OSM    H7G14871   0.732   1.180   3.428  0.5440  0.3979  3.3524
  137OSM    C8F14872   0.631   0.999   3.425 -0.0882 -0.4156  0.5623
  137OSM    H8F14873   0.725   0.960   3.470  1.5026 -0.5785 -2.6040
  137OSM    H8G14874   0.637   0.983   3.315 -0.8363  1.3910  0.2388
  137OSM    C9F14875   0.502   0.946   3.475 -0.2819  0.2642  0.4236
  137OSM    H9F14876   0.407   0.965   3.423  0.7009  2.5392 -0.6384
  137OSM   C10F14877   0.487   0.885   3.592  0.6336 -0.7987 -0.7235
  137OSM   H10F14878   0.390   0.841   3.619  0.5213  0.3245  0.8204
  137OSM   C11F14879   0.580   0.859   3.713  0.4091  0.8140 -0.0652
  137OSM   H11F14880   0.682   0.887   3.679 -0.5494  2.5320 -1.7287
  137OSM   H11G14881   0.567   0.751   3.736 -1.6682  1.3395  1.5634
  137OSM   C12F14882   0.539   0.931   3.847 -0.2082 -0.6949  0.5632
  137OSM   H12F14883   0.430   0.935   3.864 -0.3076  0.8338 -0.2988
  137OSM   H12G14884   0.574   1.034   3.827  3.8540 -2.0528 -0.4611
  137OSM   C13F14885   0.610   0.881   3.970 -0.8338  0.2832 -0.2277
  137OSM   H13F14886   0.561   0.907   4.066  0.3592 -1.1993  0.8135
  137OSM   H13G14887   0.706   0.934   3.988 -1.2561  1.1962 -0.5597
  137OSM   C14F14888   0.627   0.724   3.977 -0.2478 -0.1279  0.0811
  137OSM   H14F14889   0.684   0.677   3.894  0.7240  1.4949 -0.2178
  137OSM   H14G14890   0.523   0.688   3.968 -0.6066  0.9913 -0.4727
  137OSM   C15F14891   0.669   0.674   4.121 -0.3487 -0.1395 -0.2992
  137OSM   H15F14892   0.605   0.588   4.153  0.4580  0.1710  2.3483
  137OSM   H15G14893   0.633   0.751   4.192  0.0246 -0.0954 -0.1600
  137OSM   C16F14894   0.820   0.646   4.134  0.4673  0.4186 -0.5129
  137OSM   H16F14895   0.873   0.742   4.113 -1.9724  2.7872  2.9879
  137OSM   H16G14896   0.861   0.574   4.061  1.3316  1.7405 -1.3686
  137OSM   C17F14897   0.870   0.606   4.279  0.2577  0.4424  0.0804
  137OSM   H17F14898   0.858   0.683   4.358 -0.3828  1.3457 -0.8695
  137OSM   H17G14899   0.978   0.590   4.255 -0.5946 -0.4150 -3.8130
  137OSM   C18F14900   0.806   0.485   4.337 -0.3912  0.4666  0.1433
  137OSM   H18F14901   0.863   0.460   4.428  1.1259  1.3134 -0.5371
  137OSM   H18G14902   0.809   0.399   4.267  1.0470  0.2723  0.4185
  137OSM   H18H14903   0.703   0.499   4.378  0.2940  0.6323  1.8797
  138OSM      N14904   6.313   5.351   1.671 -0.0112  0.7226  0.3661
  138OSM    C1514905   6.169   5.327   1.706  0.1655  0.5222 -0.2464
  138OSM   H15A14906   6.101   5.399   1.663 -0.6619  1.1259  1.9308
  138OSM   H15B14907   6.144   5.318   1.811 -0.5086  0.8491 -0.3672
  138OSM   H15C14908   6.147   5.233   1.658  1.3706  0.7147 -1.2163
  138OSM    C1414909   6.397   5.230   1.697 -0.0560 -0.0284  0.2978
  138OSM   H14A14910   6.377   5.145   1.633 -1.3598  0.7853 -0.4168
  138OSM   H14B14911   6.386   5.193   1.798  1.8301 -0.8686  0.2546
  138OSM   H14C14912   6.504   5.248   1.692  0.0124 -0.7397 -2.9734
  138OSM    C1314913   6.321   5.374   1.523  0.2286  0.1764 -0.3678
  138OSM   H13A14914   6.241   5.438   1.488 -0.5433 -1.8076 -2.3911
  138OSM   H13B14915   6.301   5.282   1.472  0.5731 -1.1321  1.7226
  138OSM   H13C14916   6.420   5.407   1.496  0.5773 -0.5460  0.0090
  138OSM    C1214917   6.358   5.480   1.733 -0.2088  0.2119  0.2753
  138OSM   H12A14918   6.320   5.493   1.833  1.4226 -1.6729  1.2039
  138OSM   H12B14919   6.321   5.561   1.672  1.2207 -0.8271 -2.1528
  138OSM    C1114920   6.511   5.510   1.744 -0.4079  0.1547 -0.4879
  138OSM   H11A14921   6.528   5.614   1.780 -0.0423 -0.4762  1.2409
  138OSM   H11B14922   6.551   5.510   1.640  1.2746  0.9088  0.1101
  138OSM      P14923   6.736   5.422   1.843 -0.1199  0.4704  0.1999
  138OSM    O1314924   6.776   5.297   1.917  0.1075 -0.7450  0.1727
  138OSM    O1414925   6.799   5.440   1.710  0.0792 -0.2798 -0.7707
  138OSM    O1114926   6.744   5.548   1.938 -0.5065  0.0035 -0.2571
  138OSM    O1214927   6.577   5.408   1.829 -0.0106  0.3985 -0.3880
  138OSM    C1S14928   6.677   5.560   2.063  0.1828 -0.1449 -0.5100
  138OSM    H1S14929   6.646   5.464   2.109  1.9091 -0.6043 -0.2212
  138OSM    H1T14930   6.587   5.622   2.046  0.8625  0.1190 -3.9969
  138OSM     NF14931   6.684   5.621   2.311 -0.1382 -0.0974  0.4089
  138OSM    HNF14932   6.653   5.711   2.340  1.1893  0.2526  0.7997
  138OSM    C2S14933   6.759   5.619   2.181 -0.4209  0.2213 -0.3900
  138OSM    H2S14934   6.847   5.553   2.194 -2.2888 -2.7956 -1.8042
  138OSM    C3S14935   6.803   5.758   2.148  0.5433  0.7472 -0.6357
  138OSM    H3S14936   6.717   5.827   2.130  0.6929  0.3381 -3.4753
  138OSM     O314937   6.865   5.756   2.019  0.3851  0.1892 -0.0516
  138OSM    HO314938   6.834   5.674   1.982  0.1810 -1.3784  3.1946
  138OSM    C4S14939   6.897   5.820   2.251  0.2771  0.2568 -0.3459
  138OSM    H4S14940   6.992   5.778   2.287  0.3060  3.4019  4.0058
  138OSM    C5S14941   6.846   5.919   2.333  0.1242 -0.3709  0.1569
  138OSM    H5S14942   6.742   5.948   2.310  0.5484  0.2939 -1.0182
  138OSM    C6S14943   6.917   5.982   2.449 -0.2896  0.3137  0.1189
  138OSM    H6S14944   6.864   5.954   2.542 -0.9985  1.6884  0.1593
  138OSM    H6T14945   6.906   6.092   2.434 -1.7691 -0.0594 -2.0628
  138OSM    C7S14946   7.073   5.954   2.444 -0.0807 -0.3282  0.8132
  138OSM    H7S14947   7.114   5.985   2.346 -0.9814 -0.8587  0.2553
  138OSM    H7T14948   7.089   5.845   2.457 -1.0952 -0.5761  0.1512
  138OSM    C8S14949   7.148   6.020   2.560  0.0018 -0.5653 -0.9909
  138OSM    H8S14950   7.088   5.997   2.651 -2.9199  2.2991 -2.0114
  138OSM    H8T14951   7.147   6.128   2.536 -2.3901 -0.3875 -0.3093
  138OSM    C9S14952   7.293   5.985   2.585 -0.6965  0.2039 -0.0861
  138OSM    H9S14953   7.341   6.056   2.656  2.6493 -1.1206 -0.8499
  138OSM    H9T14954   7.348   5.990   2.489 -0.3646 -0.6696  0.0514
  138OSM   C10S14955   7.317   5.841   2.640  0.1661 -0.0263 -0.0518
  138OSM   H10S14956   7.426   5.842   2.660 -0.0890  2.7768  1.7705
  138OSM   H10T14957   7.291   5.760   2.568  2.0855 -0.4169 -0.3630
  138OSM   C11S14958   7.257   5.803   2.776  0.4694 -0.1618  0.9108
  138OSM   H11S14959   7.147   5.811   2.766  0.6829  1.2540 -0.7561
  138OSM   H11T14960   7.286   5.880   2.850 -0.1326  0.0883  0.8925
  138OSM   C12S14961   7.281   5.656   2.822 -0.4990 -0.0490  0.3273
  138OSM   H12S14962   7.384   5.649   2.863 -0.6206  0.2826  0.6931
  138OSM   H12T14963   7.268   5.595   2.730  2.0887 -0.1884 -0.0108
  138OSM   C13S14964   7.185   5.614   2.940 -0.9837  0.1687  0.6903
  138OSM   H13S14965   7.208   5.509   2.966  2.0372  0.3047 -0.9014
  138OSM   H13T14966   7.082   5.625   2.902 -0.1638  1.7410 -1.2866
  138OSM   C14S14967   7.212   5.690   3.072  0.0444  0.9726  0.6084
  138OSM   H14S14968   7.169   5.791   3.054 -1.3910  0.2395 -0.3277
  138OSM   H14T14969   7.322   5.692   3.088  0.3769 -1.0930 -0.9861
  138OSM   C15S14970   7.143   5.634   3.195 -0.8789 -0.8655  0.8518
  138OSM   H15S14971   7.215   5.557   3.231 -0.7010 -1.0316  0.1557
  138OSM   H15T14972   7.057   5.589   3.140 -0.8192  0.2272 -0.1862
  138OSM   C16S14973   7.117   5.739   3.295 -0.4465 -0.1315 -1.3390
  138OSM   H16S14974   7.025   5.795   3.269 -1.3668 -1.1274 -0.3481
  138OSM   H16T14975   7.206   5.805   3.306 -0.3124 -0.7000  2.2153
  138OSM   C17S14976   7.105   5.689   3.442  0.4744  0.2026  0.4041
  138OSM   H17S14977   7.105   5.771   3.516  1.6169  1.2233 -0.7016
  138OSM   H17T14978   7.195   5.626   3.461 -0.7332 -1.4732  0.8665
  138OSM   C18S14979   6.979   5.619   3.458 -0.3713 -0.3122 -0.2274
  138OSM   H18S14980   6.980   5.523   3.402 -1.2470 -1.9984  2.4590
  138OSM   H18T14981   6.892   5.676   3.418  1.4184  1.9192 -1.2232
  138OSM   H18U14982   6.954   5.582   3.559  0.2316 -2.6934 -0.8872
  138OSM    C1F14983   6.661   5.507   2.382  0.1171 -0.4904 -0.2422
  138OSM     OF14984   6.677   5.399   2.329  0.0950  0.1782  0.1167
  138OSM    C2F14985   6.615   5.516   2.525 -0.1322 -0.3307 -0.6376
  138OSM    H2F14986   6.596   5.416   2.567  1.6608  0.0949  1.3562
  138OSM    H2G14987   6.519   5.572   2.525 -0.4676 -0.9060 -0.3136
  138OSM    C3F14988   6.709   5.589   2.618 -0.6615 -0.0019  0.5405
  138OSM    H3F14989   6.729   5.684   2.565  1.2821 -1.5487 -1.7382
  138OSM    H3G14990   6.807   5.540   2.638 -0.9191 -0.7002  0.1391
  138OSM    C4F14991   6.649   5.620   2.755 -0.3678  0.0358 -0.5072
  138OSM    H4F14992   6.603   5.527   2.793 -1.9877  0.0883 -2.1994
  138OSM    H4G14993   6.559   5.685   2.758 -0.2066  0.2363  0.5988
  138OSM    C5F14994   6.753   5.677   2.851  0.4691 -0.2878  0.4899
  138OSM    H5F14995   6.771   5.783   2.821 -2.2907  0.6437  1.8064
  138OSM    H5G14996   6.848   5.620   2.841  0.0464 -1.3007  1.9212
  138OSM    C6F14997   6.719   5.675   3.002 -0.2497 -0.6717  0.1307
  138OSM    H6F14998   6.618   5.714   3.023  0.8243  1.0981  2.3823
  138OSM    H6G14999   6.790   5.748   3.046  2.0235 -1.8035 -1.4367
  138OSM    C7F15000   6.729   5.540   3.068  0.5149 -0.1797 -0.1058
  138OSM    H7F15001   6.838   5.516   3.072  0.2182 -1.6588 -0.1437
  138OSM    H7G15002   6.685   5.462   3.002 -1.5836  1.0558 -0.2463
  138OSM    C8F15003   6.679   5.541   3.214  0.3988 -0.3061 -0.4957
  138OSM    H8F15004   6.704   5.633   3.270 -0.6371 -0.6335  0.5520
  138OSM    H8G15005   6.734   5.455   3.258  0.8583 -0.9888 -2.2898
  138OSM    C9F15006   6.532   5.513   3.233 -0.4494 -0.1336  0.0676
  138OSM    H9F15007   6.465   5.535   3.149  0.5509  1.9098 -0.2558
  138OSM   C10F15008   6.477   5.450   3.342  0.4828 -0.6538 -0.0146
  138OSM   H10F15009   6.367   5.448   3.336  0.4968  0.4074 -1.1816
  138OSM   C11F15010   6.550   5.412   3.471 -0.1684 -0.6262 -0.2439
  138OSM   H11F15011   6.638   5.479   3.482  0.6200 -1.6194 -0.4484
  138OSM   H11G15012   6.582   5.307   3.461  0.2688 -0.6284  0.9946
  138OSM   C12F15013   6.491   5.428   3.615 -0.2458  0.1436  0.6671
  138OSM   H12F15014   6.449   5.530   3.630 -0.7834 -0.0738  0.6531
  138OSM   H12G15015   6.574   5.411   3.687  0.3188  0.2689  0.0583
  138OSM   C13F15016   6.393   5.314   3.635  0.0371 -0.6173  0.1348
  138OSM   H13F15017   6.446   5.220   3.613  1.5158  0.2515 -0.1265
  138OSM   H13G15018   6.315   5.317   3.556 -0.0619 -0.2411  0.2447
  138OSM   C14F15019   6.318   5.321   3.769  0.6220  0.6671  0.4505
  138OSM   H14F15020   6.273   5.422   3.780 -0.0774  0.5397 -1.0377
  138OSM   H14G15021   6.370   5.289   3.862  1.9484 -1.3104 -0.8836
  138OSM   C15F15022   6.200   5.215   3.755 -0.1029  0.4083  0.3521
  138OSM   H15F15023   6.252   5.119   3.732 -0.0839  1.4323 -5.3692
  138OSM   H15G15024   6.134   5.246   3.672 -2.5154 -5.1979 -0.3093
  138OSM   C16F15025   6.115   5.208   3.878  0.4589 -0.9298  0.7783
  138OSM   H16F15026   6.024   5.149   3.854  1.0070 -0.4460 -3.0336
  138OSM   H16G15027   6.093   5.314   3.901 -0.6389 -0.6358 -1.3546
  138OSM   C17F15028   6.164   5.136   4.003 -1.1077 -0.3376 -0.3747
  138OSM   H17F15029   6.263   5.182   4.025 -1.3762 -0.0606  0.2641
  138OSM   H17G15030   6.184   5.028   3.985 -2.4475 -0.5597 -0.6703
  138OSM   C18F15031   6.076   5.147   4.120 -0.6759 -0.0864 -0.1761
  138OSM   H18F15032   6.058   5.255   4.140 -0.3159  0.2856 -1.7165
  138OSM   H18G15033   6.112   5.099   4.213  0.9362 -1.6641 -1.5635
  138OSM   H18H15034   5.980   5.094   4.098 -0.7127  0.4916 -1.5342
  139OSM      N15035   1.201   1.216   2.025 -0.8146  0.1449 -0.3565
  139OSM    C1515036   1.118   1.107   1.954 -0.4713 -0.4588 -0.3399
  139OSM   H15A15037   1.083   1.139   1.857  0.5627  1.3710 -0.1527
  139OSM   H15B15038   1.028   1.082   2.008 -1.9902  1.2704 -1.9095
  139OSM   H15C15039   1.167   1.012   1.942 -0.8994 -0.7839  0.4405
  139OSM    C1415040   1.334   1.221   1.962 -0.9267  0.2924  0.4299
  139OSM   H14A15041   1.390   1.130   1.977 -1.1277  0.3086  1.3066
  139OSM   H14B15042   1.388   1.311   1.989 -1.7776  0.8715  0.2626
  139OSM   H14C15043   1.316   1.243   1.857  1.6398  0.7847  0.0327
  139OSM    C1315044   1.136   1.345   1.998 -0.2345 -0.5422 -0.0211
  139OSM   H13A15045   1.119   1.365   1.894 -2.0506  0.5842  0.4435
  139OSM   H13B15046   1.202   1.426   2.026  1.5430 -1.9419  0.0379
  139OSM   H13C15047   1.036   1.355   2.037 -0.2993 -1.5932  0.1227
  139OSM    C1215048   1.211   1.188   2.173  0.2261  0.3775  0.1430
  139OSM   H12A15049   1.261   1.275   2.214 -1.7791  2.1371 -0.9712
  139OSM   H12B15050   1.262   1.094   2.192  1.7217  1.3065  0.9326
  139OSM    C1115051   1.080   1.178   2.256 -0.1265  0.0770  0.6631
  139OSM   H11A15052   1.012   1.264   2.240  1.1286  0.6583 -2.0163
  139OSM   H11B15053   1.101   1.190   2.365  1.9918  0.9550  0.2033
  139OSM      P15054   1.058   0.924   2.275 -0.1303  0.1966 -0.2997
  139OSM    O1315055   0.948   0.837   2.228 -0.2826  0.2875  0.6030
  139OSM    O1415056   1.195   0.901   2.219 -0.1858 -0.1524  0.9579
  139OSM    O1115057   1.072   0.933   2.432 -0.3205 -0.2787  0.7252
  139OSM    O1215058   1.008   1.066   2.234 -0.5501  0.4534 -0.3368
  139OSM    C1S15059   0.959   0.972   2.513 -0.8182  0.6675 -0.0615
  139OSM    H1S15060   0.874   0.902   2.494  0.4278 -0.5878 -1.3168
  139OSM    H1T15061   0.918   1.072   2.489  0.5510  1.5334  1.0594
  139OSM     NF15062   0.881   0.991   2.741  0.6528 -0.3774  1.0956
  139OSM    HNF15063   0.845   1.082   2.758 -2.1057 -0.6316 -2.1898
  139OSM    C2S15064   1.000   0.977   2.660  1.1719  0.4642 -0.3778
  139OSM    H2S15065   1.050   0.882   2.687  0.3703 -0.5686 -2.3674
  139OSM    C3S15066   1.103   1.085   2.679 -0.1127  0.8497  0.5493
  139OSM    H3S15067   1.054   1.180   2.651  1.6402  2.3890  2.3580
  139OSM     O315068   1.222   1.075   2.597 -0.0952 -0.2274 -0.3244
  139OSM    HO315069   1.204   0.996   2.546  3.4779 -1.9345  0.7792
  139OSM    C4S15070   1.145   1.109   2.824  0.5995  0.3936 -0.3042
  139OSM    H4S15071   1.053   1.143   2.875 -1.4851 -2.2289 -2.0512
  139OSM    C5S15072   1.257   1.082   2.896 -0.0586  0.8147 -0.4250
  139OSM    H5S15073   1.336   1.023   2.847  1.0272  0.9428  1.1036
  139OSM    C6S15074   1.272   1.107   3.049  0.1671 -0.1892  0.5916
  139OSM    H6S15075   1.360   1.170   3.071 -0.5785  0.6160  1.3587
  139OSM    H6T15076   1.289   1.006   3.093 -2.4780 -0.6200  0.7757
  139OSM    C7S15077   1.158   1.167   3.130  0.3330 -0.4071  0.4607
  139OSM    H7S15078   1.073   1.096   3.141  0.7856 -1.0471 -0.0553
  139OSM    H7T15079   1.131   1.263   3.081 -0.0445 -0.8804 -0.2833
  139OSM    C8S15080   1.201   1.185   3.276  0.8479 -0.6435  0.2838
  139OSM    H8S15081   1.289   1.251   3.287 -0.3269  0.8003  1.4032
  139OSM    H8T15082   1.226   1.082   3.310  3.6773 -0.1897 -0.2283
  139OSM    C9S15083   1.083   1.250   3.359  0.2975  0.7719  0.2122
  139OSM    H9S15084   1.016   1.162   3.366 -1.0502  1.8558  1.8662
  139OSM    H9T15085   1.017   1.317   3.300 -2.8801 -0.5793  1.9897
  139OSM   C10S15086   1.110   1.289   3.502 -0.0704 -0.6996 -0.1738
  139OSM   H10S15087   1.172   1.381   3.497 -0.1320 -0.6282  0.3638
  139OSM   H10T15088   1.170   1.216   3.560 -0.2023  0.6855  1.7834
  139OSM   C11S15089   0.977   1.329   3.575  0.3838  0.2120 -0.6129
  139OSM   H11S15090   0.928   1.231   3.592  1.9069 -0.4713  0.0171
  139OSM   H11T15091   0.921   1.409   3.521  0.6536  2.1801  1.8186
  139OSM   C12S15092   1.012   1.380   3.720  0.4551  0.6533 -0.1370
  139OSM   H12S15093   1.005   1.491   3.713  0.9408  0.7805  1.1765
  139OSM   H12T15094   1.118   1.358   3.745  0.2083 -2.2692 -1.3128
  139OSM   C13S15095   0.912   1.322   3.823  0.6598 -0.3967 -0.2135
  139OSM   H13S15096   0.940   1.216   3.842  1.4543 -0.0371  0.6617
  139OSM   H13T15097   0.810   1.309   3.780  0.2246 -2.5520  1.3408
  139OSM   C14S15098   0.909   1.392   3.968  0.0715 -1.3864  0.3540
  139OSM   H14S15099   0.882   1.498   3.955  1.0205 -1.1360  0.3401
  139OSM   H14T15100   1.009   1.392   4.016  0.1352  0.8993  0.2957
  139OSM   C15S15101   0.808   1.322   4.060 -0.2478  0.6845  0.2962
  139OSM   H15S15102   0.720   1.284   4.003 -0.0165  0.2721  0.2106
  139OSM   H15T15103   0.763   1.389   4.136  0.1208  1.3057 -0.0229
  139OSM   C16S15104   0.869   1.200   4.130  0.3119  0.2599  0.5475
  139OSM   H16S15105   0.961   1.226   4.186  1.2371 -1.8064  0.0749
  139OSM   H16T15106   0.885   1.124   4.051  0.5678  0.6031  0.2658
  139OSM   C17S15107   0.772   1.132   4.217  0.9226 -0.5732 -0.3201
  139OSM   H17S15108   0.692   1.083   4.157  0.6214  0.2052 -0.5625
  139OSM   H17T15109   0.722   1.206   4.283  0.2514 -0.6010 -0.7892
  139OSM   C18S15110   0.835   1.020   4.305 -0.5988  0.4889  0.2681
  139OSM   H18S15111   0.863   0.930   4.246  1.8079  1.3060  0.0617
  139OSM   H18T15112   0.761   0.989   4.382 -0.1910 -1.6490 -0.1344
  139OSM   H18U15113   0.922   1.052   4.366  0.9083 -1.4282 -0.7656
  139OSM    C1F15114   0.807   0.883   2.770 -0.4592 -0.2194  0.4265
  139OSM     OF15115   0.856   0.772   2.760 -0.7137  0.5998 -0.2582
  139OSM    C2F15116   0.669   0.901   2.826  0.2624 -0.7207 -0.1939
  139OSM    H2F15117   0.613   0.949   2.743 -1.4462 -0.3119  1.1367
  139OSM    H2G15118   0.676   0.973   2.911  0.5011 -1.3359  0.3167
  139OSM    C3F15119   0.605   0.783   2.889  0.2015  0.8180 -0.8916
  139OSM    H3F15120   0.661   0.757   2.981  0.2597  1.8346 -0.6317
  139OSM    H3G15121   0.600   0.685   2.837  0.9898 -0.3399  1.0923
  139OSM    C4F15122   0.463   0.815   2.938 -0.0742 -0.0347  0.0698
  139OSM    H4F15123   0.400   0.807   2.847  0.4577 -1.1088 -0.2212
  139OSM    H4G15124   0.453   0.914   2.988 -1.4253 -0.5895  0.9698
  139OSM    C5F15125   0.398   0.711   3.037 -0.5862  0.3264 -0.8239
  139OSM    H5F15126   0.382   0.616   2.981  0.2867  0.4052 -1.2358
  139OSM    H5G15127   0.300   0.747   3.072  0.2331  0.8798  0.9951
  139OSM    C6F15128   0.488   0.681   3.160  0.2037 -0.3770 -0.2809
  139OSM    H6F15129   0.519   0.780   3.198 -1.3221  0.0624 -0.1113
  139OSM    H6G15130   0.569   0.609   3.136 -0.6081 -1.1071 -0.8653
  139OSM    C7F15131   0.409   0.618   3.279  0.0779 -0.0948  0.4800
  139OSM    H7F15132   0.320   0.556   3.256  0.9575 -0.2833 -3.0296
  139OSM    H7G15133   0.362   0.710   3.320  1.4136  1.0386 -0.4372
  139OSM    C8F15134   0.510   0.557   3.377 -0.5881  0.7463 -0.4371
  139OSM    H8F15135   0.575   0.644   3.401 -1.5387  1.8052 -1.5539
  139OSM    H8G15136   0.563   0.473   3.329  1.7833  2.2877 -0.6735
  139OSM    C9F15137   0.442   0.518   3.504  0.3600 -0.4152  0.1382
  139OSM    H9F15138   0.334   0.539   3.510  0.6373  1.5883 -1.1373
  139OSM   C10F15139   0.499   0.486   3.621 -1.1180 -0.3051 -0.2078
  139OSM   H10F15140   0.437   0.455   3.706  0.5523  0.1188  1.2200
  139OSM   C11F15141   0.646   0.477   3.655 -0.0146 -0.1573 -0.2800
  139OSM   H11F15142   0.663   0.546   3.741 -0.7150 -1.4206  0.9197
  139OSM   H11G15143   0.716   0.502   3.573  0.4056  0.7075  0.3196
  139OSM   C12F15144   0.679   0.347   3.730 -0.5576 -1.0819  0.2313
  139OSM   H12F15145   0.786   0.333   3.757  0.0985 -1.1797 -2.1716
  139OSM   H12G15146   0.665   0.274   3.648 -0.7198 -1.3557  0.5024
  139OSM   C13F15147   0.587   0.316   3.846  0.0325  0.0466 -0.7685
  139OSM   H13F15148   0.483   0.303   3.809 -0.4620  1.1356  0.2127
  139OSM   H13G15149   0.583   0.399   3.919 -0.2498 -0.4438 -0.2205
  139OSM   C14F15150   0.633   0.186   3.904 -0.2558 -0.8232  0.4404
  139OSM   H14F15151   0.743   0.201   3.916 -0.1031 -0.6262 -1.1107
  139OSM   H14G15152   0.614   0.092   3.849  0.3473  0.2274 -1.6549
  139OSM   C15F15153   0.574   0.174   4.042  0.4523 -0.2472  0.8063
  139OSM   H15F15154   0.464   0.185   4.039  0.5772  2.0662 -4.3702
  139OSM   H15G15155   0.610   0.253   4.111 -1.4065  1.6488 -0.3195
  139OSM   C16F15156   0.596   0.036   4.114 -0.3869  0.3045 -0.5829
  139OSM   H16F15157   0.597  -0.049   4.043 -1.0812  0.7361 -1.1279
  139OSM   H16G15158   0.517   0.013   4.189  0.4697  1.5235  0.7526
  139OSM   C17F15159   0.720   0.032   4.201  0.0768 -0.4303 -0.1822
  139OSM   H17F15160   0.714   0.097   4.290  2.5593  0.5065 -0.6209
  139OSM   H17G15161   0.798   0.065   4.129 -0.1166  0.5404  0.0450
  139OSM   C18F15162   0.763  -0.106   4.251  0.7772 -0.1541 -0.6656
  139OSM   H18F15163   0.714  -0.175   4.178 -0.3132  0.3110 -0.3995
  139OSM   H18G15164   0.723  -0.131   4.352  0.0654  2.7850 -0.1200
  139OSM   H18H15165   0.873  -0.112   4.262  0.7121 -0.8835 -0.3527
  140OSM      N15166   5.241   6.237   2.166 -0.0256 -0.4870  0.3204
  140OSM    C1515167   5.296   6.204   2.032 -0.0775 -0.0758  1.1796
  140OSM   H15A15168   5.289   6.101   2.003  0.5336 -0.0024  0.7407
  140OSM   H15B15169   5.403   6.224   2.031  0.0249 -0.6115  0.2603
  140OSM   H15C15170   5.250   6.261   1.953  1.1934  0.4100  0.7546
  140OSM    C1415171   5.281   6.375   2.204  0.5759 -0.0747 -0.0722
  140OSM   H14A15172   5.389   6.379   2.199  0.6290 -0.9931  0.1881
  140OSM   H14B15173   5.239   6.393   2.302 -0.3106  1.4354 -0.6975
  140OSM   H14C15174   5.249   6.451   2.134 -0.8829 -0.4954  0.1087
  140OSM    C1315175   5.095   6.229   2.159 -0.5898 -0.1360  0.4954
  140OSM   H13A15176   5.062   6.310   2.095  2.5422  0.7477 -0.1602
  140OSM   H13B15177   5.049   6.242   2.256 -1.4065 -1.8151  0.3779
  140OSM   H13C15178   5.070   6.130   2.122  0.4392 -0.3586  0.3814
  140OSM    C1215179   5.300   6.139   2.273 -1.2314 -0.6912  0.5119
  140OSM   H12A15180   5.404   6.127   2.247 -1.3604  1.0168 -0.9650
  140OSM   H12B15181   5.257   6.041   2.258  0.0753 -1.0676 -1.0716
  140OSM    C1115182   5.294   6.180   2.419  0.0487 -0.2001 -0.4237
  140OSM   H11A15183   5.328   6.286   2.421 -3.2373  0.9960 -1.1250
  140OSM   H11B15184   5.366   6.125   2.483  0.7138 -1.4662 -2.1689
  140OSM      P15185   5.105   6.037   2.526  0.0272  0.2981  0.1364
  140OSM    O1315186   4.960   6.063   2.535  0.0014  0.0109  0.7467
  140OSM    O1415187   5.149   5.915   2.452  0.1463 -0.3456 -0.7266
  140OSM    O1115188   5.163   6.041   2.666  0.6308  0.5239  0.0412
  140OSM    O1215189   5.159   6.161   2.460 -0.0679 -0.3311  0.2141
  140OSM    C1S15190   5.187   6.167   2.728 -0.2240 -0.2191 -0.1763
  140OSM    H1S15191   5.099   6.235   2.724 -1.8549 -2.0970  1.8372
  140OSM    H1T15192   5.279   6.209   2.681 -0.8308 -0.2964 -1.4815
  140OSM     NF15193   5.186   6.262   2.961 -0.5344  0.4390  0.3527
  140OSM    HNF15194   5.271   6.302   2.996  0.2948 -1.5784  0.8284
  140OSM    C2S15195   5.212   6.140   2.882  0.6217 -0.5208  0.1865
  140OSM    H2S15196   5.143   6.060   2.917 -0.6970 -0.2564 -1.6334
  140OSM    C3S15197   5.343   6.065   2.903 -0.3910  0.8032 -0.0623
  140OSM    H3S15198   5.416   6.145   2.879 -0.5009 -0.1244 -4.1160
  140OSM     O315199   5.379   5.960   2.815  0.2704 -0.0917 -0.1724
  140OSM    HO315200   5.323   5.990   2.743 -2.2480 -1.2173  1.2044
  140OSM    C4S15201   5.374   6.029   3.046  0.0557  0.2572  0.1333
  140OSM    H4S15202   5.422   6.116   3.093  4.0564 -0.5029 -2.1061
  140OSM    C5S15203   5.357   5.910   3.117  0.0457  0.3459  0.3950
  140OSM    H5S15204   5.318   5.818   3.069  0.1054  0.9858 -0.9286
  140OSM    C6S15205   5.390   5.893   3.261  0.5089  0.3456 -0.5642
  140OSM    H6S15206   5.451   5.975   3.305  0.0676 -0.0920  0.9224
  140OSM    H6T15207   5.457   5.805   3.267  1.9949  1.4716  0.1296
  140OSM    C7S15208   5.269   5.871   3.351  0.6608  0.5284  0.3514
  140OSM    H7S15209   5.235   5.768   3.326 -0.4434  1.2698 -1.3120
  140OSM    H7T15210   5.196   5.949   3.322  0.7037  0.4703  0.0786
  140OSM    C8S15211   5.281   5.870   3.503  0.0135  0.1129 -0.4800
  140OSM    H8S15212   5.326   5.969   3.527 -0.6616  0.2225  0.4098
  140OSM    H8T15213   5.355   5.791   3.526 -1.9404 -1.7576 -0.3003
  140OSM    C9S15214   5.149   5.855   3.587 -0.5501 -0.1143 -0.2616
  140OSM    H9S15215   5.126   5.747   3.591  0.3687 -0.3318 -0.6181
  140OSM    H9T15216   5.055   5.907   3.557 -0.7891  0.1092  0.7975
  140OSM   C10S15217   5.175   5.886   3.735  0.1450 -0.7771  0.4666
  140OSM   H10S15218   5.085   5.896   3.798 -0.4185 -1.4457 -0.2096
  140OSM   H10T15219   5.226   5.983   3.755  0.5079 -0.9525  0.3988
  140OSM   C11S15220   5.262   5.783   3.809  0.0301  0.3240  0.4564
  140OSM   H11S15221   5.355   5.758   3.754 -1.9026 -0.6774 -2.5445
  140OSM   H11T15222   5.208   5.686   3.808  2.0302 -0.8447 -0.2491
  140OSM   C12S15223   5.302   5.830   3.950 -0.0240  0.5701 -0.7028
  140OSM   H12S15224   5.299   5.941   3.945  1.9852  0.8990  2.4707
  140OSM   H12T15225   5.401   5.787   3.974 -1.4814 -2.4382  0.4798
  140OSM   C13S15226   5.196   5.799   4.052  0.4291 -0.1098 -0.1665
  140OSM   H13S15227   5.180   5.689   4.063  1.3259 -0.1445  1.0373
  140OSM   H13T15228   5.099   5.837   4.013  0.3637 -1.2636 -1.2064
  140OSM   C14S15229   5.225   5.860   4.193  0.5813  0.4961  0.3261
  140OSM   H14S15230   5.245   5.969   4.194 -0.2337  0.6665 -0.4182
  140OSM   H14T15231   5.329   5.830   4.217  1.3857  2.5889 -0.3242
  140OSM   C15S15232   5.136   5.815   4.307 -0.1647 -0.4566  0.1899
  140OSM   H15S15233   5.144   5.705   4.325  1.8364 -0.2007  1.1277
  140OSM   H15T15234   5.032   5.838   4.276 -0.4007 -0.8681  0.6501
  140OSM   C16S15235   5.163   5.897   4.432  0.3979 -0.0415  0.7818
  140OSM   H16S15236   5.152   6.004   4.407  3.1200 -0.1649 -1.3709
  140OSM   H16T15237   5.268   5.890   4.469  0.0431  2.5092  2.5560
  140OSM   C17S15238   5.064   5.864   4.550 -0.1207 -0.6467  0.4616
  140OSM   H17S15239   5.080   5.760   4.589 -0.9555 -1.1955 -0.6158
  140OSM   H17T15240   4.960   5.869   4.512  0.8446  1.6646 -2.2147
  140OSM   C18S15241   5.075   5.977   4.661 -0.2253 -0.2923 -0.2848
  140OSM   H18S15242   5.003   5.945   4.739  0.6608 -0.6140  0.4225
  140OSM   H18T15243   5.055   6.076   4.614 -3.0882 -1.9804 -2.9867
  140OSM   H18U15244   5.178   5.987   4.701  0.1941 -1.8202 -0.8960
  140OSM    C1F15245   5.069   6.319   2.967  0.4969  0.0042 -0.5837
  140OSM     OF15246   4.966   6.263   2.929  0.6534  0.3211  0.2684
  140OSM    C2F15247   5.060   6.454   3.030 -0.1793  0.2565  0.3424
  140OSM    H2F15248   5.004   6.510   2.952 -1.3675 -2.0827 -0.5590
  140OSM    H2G15249   5.163   6.495   3.040 -0.0712  0.8870 -2.6046
  140OSM    C3F15250   4.990   6.449   3.165 -0.9058  0.8088  0.1083
  140OSM    H3F15251   4.915   6.369   3.174 -0.0164  0.0357  0.9673
  140OSM    H3G15252   4.948   6.550   3.184  0.4656  1.0271  2.4239
  140OSM    C4F15253   5.089   6.404   3.272  0.5190 -0.7420 -0.8649
  140OSM    H4F15254   5.171   6.479   3.266  0.0901 -0.0139  1.2688
  140OSM    H4G15255   5.124   6.299   3.268  0.7225 -0.9229  2.5793
  140OSM    C5F15256   5.027   6.412   3.414  0.0170  0.1955  0.3100
  140OSM    H5F15257   4.929   6.360   3.410  0.4272 -0.8743  2.4032
  140OSM    H5G15258   5.016   6.518   3.446  0.4769 -0.0425  1.3030
  140OSM    C6F15259   5.101   6.348   3.527 -0.8738 -0.0510 -0.2308
  140OSM    H6F15260   5.131   6.246   3.494  1.2991  0.4086  0.1485
  140OSM    H6G15261   5.044   6.341   3.622 -0.1442 -3.4790  0.1064
  140OSM    C7F15262   5.239   6.415   3.551  0.2717  0.4241 -0.5474
  140OSM    H7F15263   5.226   6.523   3.530  2.1504  0.3672 -2.3106
  140OSM    H7G15264   5.318   6.384   3.479  0.2679 -2.0651  0.4183
  140OSM    C8F15265   5.284   6.397   3.697 -1.2486  0.1239 -0.7780
  140OSM    H8F15266   5.391   6.417   3.717 -0.9186 -2.6018  0.7461
  140OSM    H8G15267   5.268   6.291   3.728  0.3282  0.0337 -0.1848
  140OSM    C9F15268   5.202   6.476   3.796  0.4101  0.3176  0.7614
  140OSM    H9F15269   5.210   6.584   3.780 -0.2109  0.3262  0.4981
  140OSM   C10F15270   5.115   6.434   3.889  0.3947 -0.3516  0.3133
  140OSM   H10F15271   5.061   6.513   3.944 -0.2946  0.1734 -1.0572
  140OSM   C11F15272   5.098   6.293   3.933 -0.7920  0.1845  0.3333
  140OSM   H11F15273   5.154   6.265   4.025 -0.8433 -0.1526  0.2633
  140OSM   H11G15274   5.142   6.227   3.856  0.6846  3.2583 -1.6311
  140OSM   C12F15275   4.954   6.245   3.975  0.1271 -0.8089  0.1261
  140OSM   H12F15276   4.965   6.135   3.984 -0.1785 -0.8748 -0.2700
  140OSM   H12G15277   4.892   6.260   3.883  3.6186  2.9373 -1.9613
  140OSM   C13F15278   4.905   6.314   4.108 -1.2126  0.5622  0.4688
  140OSM   H13F15279   4.896   6.422   4.087 -0.1770  0.8036  1.2214
  140OSM   H13G15280   4.984   6.290   4.182  0.4557  1.0051 -1.1250
  140OSM   C14F15281   4.775   6.247   4.146 -0.1601 -0.0761  0.1962
  140OSM   H14F15282   4.770   6.140   4.117 -0.5781 -0.2286  0.8072
  140OSM   H14G15283   4.687   6.282   4.088 -0.6868 -1.4263  0.1399
  140OSM   C15F15284   4.741   6.254   4.295 -0.3315 -0.1193  0.1766
  140OSM   H15F15285   4.643   6.203   4.299  1.0591 -3.4789 -2.7991
  140OSM   H15G15286   4.738   6.359   4.331  0.6368 -0.0877  0.2019
  140OSM   C16F15287   4.825   6.163   4.378 -0.0029  0.3017  0.1964
  140OSM   H16F15288   4.922   6.207   4.409  0.3400 -0.7856  0.7184
  140OSM   H16G15289   4.848   6.079   4.310  0.0647  0.7374 -0.3296
  140OSM   C17F15290   4.754   6.118   4.503 -0.9400  0.4453  0.1154
  140OSM   H17F15291   4.787   6.014   4.523 -1.3041  0.0880 -1.0453
  140OSM   H17G15292   4.646   6.101   4.482 -1.4379 -0.0247  2.7526
  140OSM   C18F15293   4.789   6.192   4.638 -0.0200  0.1090 -0.8661
  140OSM   H18F15294   4.898   6.205   4.652  0.1027 -2.4113  1.4344
  140OSM   H18G15295   4.753   6.135   4.726 -2.3827 -1.2307 -2.5841
  140OSM   H18H15296   4.742   6.293   4.648 -1.6710 -0.7758  1.1244
  141OSM      N15297   6.434   3.106   2.034  0.2853 -0.0038  0.1645
  141OSM    C1515298   6.293   3.123   2.090  0.0434 -0.8314  0.8173
  141OSM   H15A15299   6.226   3.110   2.006  3.2953 -2.1775 -1.8095
  141OSM   H15B15300   6.273   3.224   2.123  0.8975 -1.1150  2.2862
  141OSM   H15C15301   6.265   3.047   2.162 -1.6414  0.5029  1.6366
  141OSM    C1415302   6.460   2.965   1.986  0.1002  0.1925 -0.2300
  141OSM   H14A15303   6.476   2.898   2.069  0.7000 -1.5821 -1.7100
  141OSM   H14B15304   6.551   2.958   1.928  1.2506 -0.6196  1.5801
  141OSM   H14C15305   6.381   2.925   1.925 -0.2043  0.1242  0.2130
  141OSM    C1315306   6.449   3.206   1.922  0.2507 -0.4935 -0.1260
  141OSM   H13A15307   6.443   3.309   1.953 -1.2553  0.2547 -2.5955
  141OSM   H13B15308   6.374   3.183   1.847  0.2990 -2.2251  0.2933
  141OSM   H13C15309   6.547   3.204   1.877  0.6036 -0.8343  0.6341
  141OSM    C1215310   6.527   3.149   2.144 -0.0192  0.0781 -0.1338
  141OSM   H12A15311   6.477   3.235   2.185 -2.2011 -1.6511  1.0975
  141OSM   H12B15312   6.622   3.159   2.095  0.4306 -1.7881  0.2569
  141OSM    C1115313   6.547   3.058   2.270 -0.4247 -0.8302 -0.0068
  141OSM   H11A15314   6.453   2.999   2.278 -0.9302 -0.0251  0.1177
  141OSM   H11B15315   6.553   3.117   2.364  1.3592  1.4847 -1.4850
  141OSM      P15316   6.809   3.023   2.229 -0.1458 -0.3656  0.5574
  141OSM    O1315317   6.899   2.908   2.225 -0.2916  0.0885 -0.0358
  141OSM    O1415318   6.824   3.108   2.103 -0.0499  0.6113 -0.3098
  141OSM    O1115319   6.841   3.107   2.361 -0.0634  0.6716  0.1288
  141OSM    O1215320   6.654   2.974   2.239  0.1710  0.2628  0.2118
  141OSM    C1S15321   6.826   3.044   2.489  0.1368 -0.1535 -0.4716
  141OSM    H1S15322   6.884   2.950   2.497  2.3774  1.1850  0.0918
  141OSM    H1T15323   6.719   3.023   2.507 -0.2930 -1.6724 -3.9476
  141OSM     NF15324   6.885   3.056   2.724  0.0997  0.7255  0.2203
  141OSM    HNF15325   6.804   3.078   2.778 -0.1502  2.4174 -0.7418
  141OSM    C2S15326   6.888   3.134   2.605 -0.7437  0.5926 -0.2458
  141OSM    H2S15327   6.992   3.163   2.579  0.0053 -1.2979  0.5291
  141OSM    C3S15328   6.809   3.268   2.618  0.8721 -0.1763  0.3568
  141OSM    H3S15329   6.708   3.239   2.654  0.5994  1.2530  0.7986
  141OSM     O315330   6.786   3.328   2.492  0.5284 -0.3856 -0.1915
  141OSM    HO315331   6.807   3.253   2.436  1.6586 -0.7549  0.6971
  141OSM    C4S15332   6.869   3.371   2.704 -0.3401 -0.4435  0.7081
  141OSM    H4S15333   6.973   3.392   2.675 -0.7943  0.1213 -0.6273
  141OSM    C5S15334   6.810   3.429   2.811 -0.9729 -0.3774  0.2503
  141OSM    H5S15335   6.706   3.407   2.837 -1.7732  1.9277 -0.7266
  141OSM    C6S15336   6.886   3.512   2.909 -0.0122 -0.0707 -0.1403
  141OSM    H6S15337   6.836   3.612   2.905  1.3186  0.7872  2.5005
  141OSM    H6T15338   6.990   3.536   2.879  0.0741  1.3649  1.1790
  141OSM    C7S15339   6.881   3.447   3.043 -0.0669  1.0460 -0.4076
  141OSM    H7S15340   6.949   3.359   3.048  1.8127  2.4258 -0.2172
  141OSM    H7T15341   6.779   3.409   3.065  1.6998 -3.0164  1.8269
  141OSM    C8S15342   6.915   3.533   3.171 -0.3398 -0.7439  0.4720
  141OSM    H8S15343   6.995   3.601   3.136 -0.8665  0.4148  1.4646
  141OSM    H8T15344   6.968   3.460   3.236 -0.2040 -0.8170  0.2832
  141OSM    C9S15345   6.797   3.609   3.238  0.3778  0.0651 -1.0458
  141OSM    H9S15346   6.702   3.552   3.233  0.6234 -0.4086 -0.5004
  141OSM    H9T15347   6.784   3.695   3.170  0.0171 -1.5415 -3.1020
  141OSM   C10S15348   6.816   3.635   3.384 -0.2120 -0.4222 -0.1038
  141OSM   H10S15349   6.728   3.700   3.405  0.3186  0.4114 -0.3992
  141OSM   H10T15350   6.900   3.707   3.392 -1.3576  0.8463  0.9561
  141OSM   C11S15351   6.837   3.515   3.473  0.4101 -0.1693  0.4439
  141OSM   H11S15352   6.909   3.440   3.434 -0.1881 -1.6989  2.1516
  141OSM   H11T15353   6.737   3.467   3.471  0.6698 -0.7090 -0.0802
  141OSM   C12S15354   6.891   3.555   3.608  0.3028 -0.4681 -0.5527
  141OSM   H12S15355   6.973   3.630   3.600  0.9193 -1.0069  0.5240
  141OSM   H12T15356   6.935   3.470   3.664 -3.2658 -0.7623  2.1543
  141OSM   C13S15357   6.790   3.622   3.708  0.6120  0.6188  0.4701
  141OSM   H13S15358   6.725   3.551   3.762  0.9618  0.9185  1.2963
  141OSM   H13T15359   6.730   3.701   3.659 -1.5359 -1.0787  0.2238
  141OSM   C14S15360   6.863   3.678   3.828 -0.1151 -0.3341  0.0196
  141OSM   H14S15361   6.908   3.771   3.788 -3.9479  1.4986 -0.4220
  141OSM   H14T15362   6.947   3.615   3.864  0.4000  1.2896  1.7688
  141OSM   C15S15363   6.775   3.723   3.945  0.9224  0.0005 -0.4441
  141OSM   H15S15364   6.742   3.633   4.002  0.9356  0.5564  0.4515
  141OSM   H15T15365   6.693   3.775   3.892  2.6682  1.4206 -1.8880
  141OSM   C16S15366   6.848   3.817   4.040  0.5331  0.0410  0.3897
  141OSM   H16S15367   6.763   3.862   4.094 -0.9581 -0.1397 -1.6633
  141OSM   H16T15368   6.904   3.902   3.993  2.1473 -1.6449 -0.9121
  141OSM   C17S15369   6.948   3.749   4.130 -0.6891 -0.8321 -0.1240
  141OSM   H17S15370   7.032   3.696   4.080 -0.7424 -1.7742  0.7381
  141OSM   H17T15371   6.888   3.672   4.182  0.1909 -0.2143  1.9133
  141OSM   C18S15372   7.005   3.848   4.235 -0.3787  0.3895  0.7704
  141OSM   H18S15373   7.071   3.781   4.295  3.2780 -0.6766 -3.8230
  141OSM   H18T15374   6.923   3.879   4.303 -0.9072  1.6363 -0.3767
  141OSM   H18U15375   7.067   3.930   4.192 -1.2314 -0.2660 -1.9327
  141OSM    C1F15376   6.988   2.973   2.758  0.6371  0.3360 -0.5070
  141OSM     OF15377   7.085   2.964   2.686  0.1422  0.8126 -0.4987
  141OSM    C2F15378   6.971   2.889   2.880  0.4682  0.6544  0.0961
  141OSM    H2F15379   6.879   2.827   2.866  0.5036  1.0518 -2.2066
  141OSM    H2G15380   6.953   2.950   2.972 -2.3215 -0.3741  0.3250
  141OSM    C3F15381   7.099   2.798   2.900  1.0128 -0.5016 -0.3242
  141OSM    H3F15382   7.184   2.858   2.938 -2.2937  1.4214  5.2210
  141OSM    H3G15383   7.121   2.749   2.803 -0.6061 -0.9309 -0.5043
  141OSM    C4F15384   7.104   2.679   2.993 -0.1447  0.2911 -0.2197
  141OSM    H4F15385   7.196   2.620   2.973  1.9681  2.1273  3.1913
  141OSM    H4G15386   7.011   2.622   2.969  0.0238  0.2270 -0.7316
  141OSM    C5F15387   7.111   2.719   3.139  0.4103  0.2391 -0.5091
  141OSM    H5F15388   7.026   2.782   3.174 -0.8204 -0.2552 -2.4791
  141OSM    H5G15389   7.195   2.790   3.154 -0.1159  0.7063  0.3089
  141OSM    C6F15390   7.115   2.602   3.238 -0.5803 -0.0117  0.3456
  141OSM    H6F15391   7.207   2.541   3.231 -0.9751 -0.6413  0.5763
  141OSM    H6G15392   7.035   2.528   3.216  2.2241 -4.1952  2.7959
  141OSM    C7F15393   7.103   2.645   3.385 -0.4082 -0.4220  0.2827
  141OSM    H7F15394   7.009   2.704   3.394  0.8967  2.0371 -1.0417
  141OSM    H7G15395   7.186   2.716   3.408 -0.2934 -0.9598  1.5891
  141OSM    C8F15396   7.098   2.524   3.482 -0.0625 -0.3844 -0.1503
  141OSM    H8F15397   7.120   2.574   3.579 -0.3388  0.3117 -0.4391
  141OSM    H8G15398   7.183   2.454   3.467  0.6324  0.1483  1.1142
  141OSM    C9F15399   6.961   2.462   3.477 -0.4483  0.0468  0.5092
  141OSM    H9F15400   6.920   2.429   3.380  0.7210 -0.6367  0.2281
  141OSM   C10F15401   6.882   2.460   3.586  0.7651  0.7264 -0.3031
  141OSM   H10F15402   6.783   2.413   3.575  0.1008  2.1503 -0.6672
  141OSM   C11F15403   6.916   2.519   3.723  0.3831 -0.4580  0.0767
  141OSM   H11F15404   6.896   2.629   3.724  3.2676  0.1398 -0.1596
  141OSM   H11G15405   7.022   2.496   3.743  0.0057 -0.3722  2.3884
  141OSM   C12F15406   6.834   2.466   3.838 -0.3150 -0.6708  0.2474
  141OSM   H12F15407   6.859   2.359   3.856  0.5523 -0.2440  1.6769
  141OSM   H12G15408   6.724   2.468   3.819 -0.2277  0.0831 -0.2345
  141OSM   C13F15409   6.859   2.545   3.967  0.4696  0.4180  0.4405
  141OSM   H13F15410   6.842   2.654   3.950  2.2231  1.0554  2.3503
  141OSM   H13G15411   6.967   2.533   3.986  0.9805  3.5543  0.0869
  141OSM   C14F15412   6.763   2.501   4.074  0.0028  0.0652 -0.3623
  141OSM   H14F15413   6.789   2.396   4.101  1.5656 -0.2473 -2.8073
  141OSM   H14G15414   6.663   2.504   4.028 -0.3716 -0.5061  0.3896
  141OSM   C15F15415   6.756   2.596   4.197 -0.3659  0.1357 -0.3039
  141OSM   H15F15416   6.738   2.700   4.164 -0.6228  0.8906  2.0565
  141OSM   H15G15417   6.846   2.594   4.261  0.2697 -1.3472 -1.1860
  141OSM   C16F15418   6.631   2.567   4.286 -0.7903  0.2336 -0.4350
  141OSM   H16F15419   6.641   2.466   4.331  1.8816  0.4585 -0.3521
  141OSM   H16G15420   6.550   2.560   4.211  0.5076 -1.1410 -1.7858
  141OSM   C17F15421   6.602   2.681   4.384 -0.1961  0.1945  0.1840
  141OSM   H17F15422   6.586   2.771   4.322  0.8392  1.7700  2.0914
  141OSM   H17G15423   6.698   2.695   4.439  0.6803 -0.0225 -1.2249
  141OSM   C18F15424   6.492   2.640   4.478 -0.3532  0.2912  0.3651
  141OSM   H18F15425   6.530   2.565   4.551  0.5139 -0.1654 -0.5359
  141OSM   H18G15426   6.404   2.599   4.425  0.3120  1.5383 -1.8372
  141OSM   H18H15427   6.464   2.733   4.533  2.6140  1.5129  0.0050
  142OSM      N15428   2.389   4.370   2.378  0.7347  0.2980  0.5460
  142OSM    C1515429   2.402   4.386   2.526  0.1378  0.6390 -0.2072
  142OSM   H15A15430   2.390   4.293   2.580 -0.7523  0.8726  0.0168
  142OSM   H15B15431   2.315   4.444   2.554 -1.6458 -1.7759 -0.3642
  142OSM   H15C15432   2.494   4.424   2.566 -1.4699  1.2870  3.2745
  142OSM    C1415433   2.432   4.235   2.332  0.3606  0.2972  0.7009
  142OSM   H14A15434   2.540   4.227   2.332  0.4272  0.4319 -1.3361
  142OSM   H14B15435   2.403   4.235   2.228 -2.7934  1.0932  1.4719
  142OSM   H14C15436   2.390   4.162   2.398  2.7801  1.0976  3.3025
  142OSM    C1315437   2.241   4.396   2.347 -1.0497  0.2223  0.5921
  142OSM   H13A15438   2.228   4.501   2.365  1.7024  0.7233  0.0389
  142OSM   H13B15439   2.174   4.332   2.403 -0.8792  0.6102  1.2521
  142OSM   H13C15440   2.236   4.387   2.240  3.0714 -2.9967  0.3958
  142OSM    C1215441   2.464   4.481   2.303  0.2217  0.1755  0.0912
  142OSM   H12A15442   2.408   4.573   2.312 -0.2867  0.1077 -1.9622
  142OSM   H12B15443   2.455   4.446   2.201 -1.1760 -2.7943  1.0983
  142OSM    C1115444   2.611   4.523   2.333  0.2718  0.1648  0.1518
  142OSM   H11A15445   2.618   4.570   2.433  2.5998  0.3429 -0.0518
  142OSM   H11B15446   2.644   4.614   2.279  0.2716  0.5684  0.8182
  142OSM      P15447   2.787   4.381   2.207  0.0598 -0.1179 -0.4465
  142OSM    O1315448   2.704   4.298   2.112 -0.5974 -0.2014  0.3755
  142OSM    O1415449   2.848   4.503   2.156 -0.5728  0.0287  0.0681
  142OSM    O1115450   2.905   4.276   2.260 -0.5631 -0.4068  0.2646
  142OSM    O1215451   2.705   4.413   2.338  0.1528  0.1133  0.5635
  142OSM    C1S15452   3.014   4.312   2.351  0.3501 -1.1626 -0.1503
  142OSM    H1S15453   3.024   4.422   2.369 -4.1092 -1.1089  4.1318
  142OSM    H1T15454   3.109   4.284   2.301  1.1711 -0.4585  0.9308
  142OSM     NF15455   3.063   4.315   2.590 -0.1233 -0.9020  0.1319
  142OSM    HNF15456   3.136   4.267   2.637 -1.6332 -1.1144  2.4711
  142OSM    C2S15457   2.992   4.244   2.487 -0.0594  0.0620 -0.3227
  142OSM    H2S15458   2.884   4.254   2.509 -0.1307 -1.4170  0.1015
  142OSM    C3S15459   3.021   4.090   2.468  0.1081 -0.0131  0.6404
  142OSM    H3S15460   3.124   4.079   2.428 -1.0130  0.1228 -2.5658
  142OSM     O315461   2.944   4.018   2.378  0.4229 -0.0122  0.6264
  142OSM    HO315462   2.893   4.093   2.346  1.8959  0.6948 -0.1329
  142OSM    C4S15463   3.025   4.029   2.603  0.2126  0.0968  0.4003
  142OSM    H4S15464   3.127   3.991   2.619 -0.4005 -2.2841 -0.7988
  142OSM    C5S15465   2.918   3.983   2.676 -0.4909  0.1792  0.0024
  142OSM    H5S15466   2.814   3.996   2.642 -0.5986 -0.8440 -0.0923
  142OSM    C6S15467   2.936   3.893   2.799  0.5918 -0.3496  1.0140
  142OSM    H6S15468   3.030   3.907   2.857  3.1911 -3.0650 -2.1135
  142OSM    H6T15469   2.953   3.786   2.773 -1.1020 -0.2262 -0.7946
  142OSM    C7S15470   2.814   3.880   2.897 -0.2489 -0.4334 -0.0706
  142OSM    H7S15471   2.722   3.837   2.851 -0.5145 -1.0752  1.0426
  142OSM    H7T15472   2.788   3.982   2.932 -0.5531  0.7066 -3.2065
  142OSM    C8S15473   2.836   3.789   3.021  0.0611 -0.1102 -0.2234
  142OSM    H8S15474   2.916   3.824   3.090 -0.7352 -0.3088  0.8224
  142OSM    H8T15475   2.857   3.686   2.984 -0.5859 -0.5231  0.5436
  142OSM    C9S15476   2.710   3.764   3.104  0.3039 -0.0969 -1.2195
  142OSM    H9S15477   2.630   3.730   3.035  0.8569  0.0012 -1.9258
  142OSM    H9T15478   2.680   3.864   3.142 -2.7161 -1.4198  0.2833
  142OSM   C10S15479   2.724   3.661   3.224  0.1734 -0.0384  0.1845
  142OSM   H10S15480   2.815   3.600   3.207  0.6112  0.8983 -0.9743
  142OSM   H10T15481   2.626   3.608   3.224 -1.0322  2.0357 -1.6540
  142OSM   C11S15482   2.725   3.746   3.358 -0.4383  0.2631 -0.0441
  142OSM   H11S15483   2.638   3.815   3.359 -0.2595  0.5043  1.2273
  142OSM   H11T15484   2.818   3.807   3.355 -0.0761  0.0573  3.2238
  142OSM   C12S15485   2.707   3.651   3.481 -0.0408 -0.5156  0.2042
  142OSM   H12S15486   2.763   3.557   3.464  2.7886  1.0049  0.5247
  142OSM   H12T15487   2.605   3.607   3.484  0.1461 -1.1530 -1.4599
  142OSM   C13S15488   2.744   3.734   3.607 -0.3975 -0.4751  0.0952
  142OSM   H13S15489   2.728   3.843   3.596  0.6193 -0.2979  0.2580
  142OSM   H13T15490   2.855   3.720   3.608 -0.1393  1.3334  0.6417
  142OSM   C14S15491   2.681   3.673   3.737 -0.5720  0.2657 -0.3031
  142OSM   H14S15492   2.707   3.566   3.742 -0.5210  0.3327  3.4467
  142OSM   H14T15493   2.570   3.674   3.734 -0.5752  0.6852 -0.1761
  142OSM   C15S15494   2.733   3.733   3.865 -0.2761 -0.2208 -0.2169
  142OSM   H15S15495   2.728   3.844   3.856  1.4981 -0.0942 -0.0442
  142OSM   H15T15496   2.837   3.695   3.871  0.5167  1.4645 -2.1479
  142OSM   C16S15497   2.646   3.679   3.978  0.4904  0.2049 -0.2117
  142OSM   H16S15498   2.669   3.571   3.980 -0.8402 -0.0948  0.0762
  142OSM   H16T15499   2.539   3.689   3.951 -0.0187  0.4871  1.7756
  142OSM   C17S15500   2.667   3.742   4.119 -0.4062  0.2019 -0.2101
  142OSM   H17S15501   2.592   3.710   4.194  0.3556  1.2248  1.0203
  142OSM   H17T15502   2.646   3.851   4.114  0.1328  0.4484  1.8749
  142OSM   C18S15503   2.810   3.717   4.180 -0.6287 -0.1226  0.2010
  142OSM   H18S15504   2.826   3.774   4.274 -1.1165  1.0515 -0.4075
  142OSM   H18T15505   2.894   3.759   4.120 -0.2455 -1.9923 -0.6635
  142OSM   H18U15506   2.825   3.607   4.192 -0.8020 -0.3216 -1.2506
  142OSM    C1F15507   3.043   4.443   2.620 -0.1737  0.1392  0.1414
  142OSM     OF15508   2.942   4.500   2.580  0.2874 -0.3194 -0.7477
  142OSM    C2F15509   3.145   4.517   2.707 -0.2073 -0.3995  0.1711
  142OSM    H2F15510   3.176   4.616   2.666 -0.4385  1.1592  3.4477
  142OSM    H2G15511   3.236   4.454   2.715  0.1333 -0.0156 -0.5758
  142OSM    C3F15512   3.088   4.548   2.849 -0.2302  0.2973 -0.3846
  142OSM    H3F15513   3.009   4.626   2.854  0.5300  1.0425  0.1954
  142OSM    H3G15514   3.173   4.582   2.912 -0.3087 -0.6585  0.2531
  142OSM    C4F15515   3.033   4.410   2.909  0.3190 -0.3100 -0.5496
  142OSM    H4F15516   3.106   4.326   2.909 -1.0964 -1.7729  2.8857
  142OSM    H4G15517   2.953   4.370   2.844 -0.5246  1.9052 -0.9560
  142OSM    C5F15518   2.997   4.450   3.056  0.0915 -0.0897  0.3531
  142OSM    H5F15519   2.899   4.503   3.053 -0.3739 -0.8925  0.8872
  142OSM    H5G15520   3.082   4.510   3.094 -1.0723  2.6894 -1.1410
  142OSM    C6F15521   2.969   4.336   3.154 -0.0526  0.8527  0.6781
  142OSM    H6F15522   2.958   4.371   3.259  0.0904 -2.3894  1.8975
  142OSM    H6G15523   3.062   4.275   3.156 -0.8458 -0.4149 -0.0686
  142OSM    C7F15524   2.854   4.249   3.118  0.0955 -0.5448  0.7511
  142OSM    H7F15525   2.875   4.193   3.024 -1.0367 -0.6591  0.5520
  142OSM    H7G15526   2.769   4.320   3.101 -2.0774 -2.3198  3.3819
  142OSM    C8F15527   2.818   4.160   3.235  0.2976 -0.8996  0.0614
  142OSM    H8F15528   2.914   4.117   3.269  1.2886  1.4474  0.4132
  142OSM    H8G15529   2.751   4.075   3.208 -1.5710  0.0549  1.4086
  142OSM    C9F15530   2.738   4.236   3.337  0.9037 -0.0783  0.2191
  142OSM    H9F15531   2.651   4.281   3.287  0.3774 -2.3514 -1.0281
  142OSM   C10F15532   2.766   4.258   3.469 -0.1900  0.2908 -0.1223
  142OSM   H10F15533   2.700   4.310   3.540 -2.2587 -2.2625  0.0094
  142OSM   C11F15534   2.885   4.195   3.527 -0.4983  0.3067 -0.3156
  142OSM   H11F15535   2.964   4.264   3.565  0.6806 -1.2123  0.1125
  142OSM   H11G15536   2.949   4.130   3.463  0.7299 -0.4168  1.5687
  142OSM   C12F15537   2.837   4.117   3.648 -0.4627  0.2748 -0.3390
  142OSM   H12F15538   2.919   4.046   3.673 -0.3686  1.0761  1.7997
  142OSM   H12G15539   2.747   4.054   3.633 -0.1937  0.1638 -1.6483
  142OSM   C13F15540   2.823   4.204   3.775 -0.4280  0.1136  0.4995
  142OSM   H13F15541   2.726   4.259   3.773  0.2582  1.3598  1.0406
  142OSM   H13G15542   2.907   4.276   3.771  0.7131 -1.0583  2.2227
  142OSM   C14F15543   2.837   4.120   3.898 -0.1344 -0.4437 -0.1912
  142OSM   H14F15544   2.939   4.077   3.905  0.2416  0.6805  1.8522
  142OSM   H14G15545   2.769   4.032   3.895 -0.4594 -0.1910 -0.3229
  142OSM   C15F15546   2.806   4.197   4.028 -0.1126 -0.4502  1.1265
  142OSM   H15F15547   2.698   4.225   4.028 -0.2983 -0.9750 -1.1085
  142OSM   H15G15548   2.857   4.296   4.021 -0.0478 -0.5807 -0.3694
  142OSM   C16F15549   2.854   4.136   4.166  0.4757  0.0066  0.0066
  142OSM   H16F15550   2.964   4.138   4.151  0.3547 -0.3260 -0.9822
  142OSM   H16G15551   2.824   4.029   4.170 -0.3814  0.1351 -2.0117
  142OSM   C17F15552   2.816   4.216   4.293 -0.2391 -0.3074 -0.1036
  142OSM   H17F15553   2.870   4.187   4.386 -2.0523 -0.7428  0.8482
  142OSM   H17G15554   2.708   4.198   4.306 -0.0582 -0.6113  1.1406
  142OSM   C18F15555   2.840   4.370   4.274 -0.4840 -0.3863  0.3690
  142OSM   H18F15556   2.940   4.406   4.243 -1.9221  2.1461 -1.7222
  142OSM   H18G15557   2.820   4.429   4.366  0.3477  0.5275 -0.0362
  142OSM   H18H15558   2.775   4.396   4.188  0.3546  0.1768 -0.1070
  143OSM      N15559   1.276   3.190   2.168 -0.6333  0.0800  0.0575
  143OSM    C1515560   1.413   3.172   2.117  0.7368 -0.3678  0.5985
  143OSM   H15A15561   1.481   3.190   2.199  1.4791  2.2889 -0.4975
  143OSM   H15B15562   1.437   3.241   2.037  1.5274 -0.3436  0.8463
  143OSM   H15C15563   1.421   3.074   2.071 -1.7367  0.2181 -1.2626
  143OSM    C1415564   1.184   3.166   2.052 -0.3667 -0.1259  0.5979
  143OSM   H14A15565   1.089   3.205   2.083 -1.3123 -0.6532 -1.4655
  143OSM   H14B15566   1.180   3.061   2.027  0.0939  0.2954 -1.4017
  143OSM   H14C15567   1.213   3.224   1.966 -1.5696 -0.4916 -0.0816
  143OSM    C1315568   1.239   3.088   2.273  0.1149  0.1907 -0.6435
  143OSM   H13A15569   1.141   3.106   2.314  2.0829  1.9203  4.0661
  143OSM   H13B15570   1.306   3.077   2.357 -2.5866 -0.4808  1.5636
  143OSM   H13C15571   1.243   2.996   2.217  1.2144  1.0953 -2.1281
  143OSM    C1215572   1.262   3.331   2.218  0.1333 -0.0765  0.5698
  143OSM   H12A15573   1.309   3.335   2.315  2.6850  0.9093 -0.6056
  143OSM   H12B15574   1.158   3.358   2.229 -0.2080 -0.9739 -0.3075
  143OSM    C1115575   1.307   3.453   2.131 -0.7142  0.1244 -0.3871
  143OSM   H11A15576   1.255   3.543   2.170 -1.6969  1.5676 -4.5134
  143OSM   H11B15577   1.275   3.440   2.025 -2.4802 -0.2143  0.1570
  143OSM      P15578   1.534   3.514   2.257 -0.5132 -0.4503 -0.0016
  143OSM    O1315579   1.542   3.401   2.357 -0.4445  0.0241  0.4294
  143OSM    O1415580   1.668   3.569   2.212  0.6100  0.0337 -0.0929
  143OSM    O1115581   1.445   3.636   2.312 -0.0315  0.1595  0.3644
  143OSM    O1215582   1.453   3.466   2.131  0.0045 -0.4617 -0.1525
  143OSM    C1S15583   1.415   3.641   2.447  0.1192 -0.2893  0.1139
  143OSM    H1S15584   1.400   3.542   2.497 -1.0286  0.8985  2.2612
  143OSM    H1T15585   1.314   3.687   2.457 -0.4234 -0.8628 -2.1937
  143OSM     NF15586   1.476   3.702   2.673 -0.5218  0.3548 -0.0139
  143OSM    HNF15587   1.445   3.790   2.706 -2.0540 -0.1277 -0.0757
  143OSM    C2S15588   1.522   3.718   2.538 -0.4815 -0.7772  0.5223
  143OSM    H2S15589   1.620   3.669   2.521 -1.3335 -2.2890 -0.2927
  143OSM    C3S15590   1.542   3.872   2.488 -0.6151  0.8254 -0.3179
  143OSM    H3S15591   1.450   3.926   2.520 -1.2992  0.5571 -1.7679
  143OSM     O315592   1.542   3.895   2.346  0.1558 -0.0734  0.1344
  143OSM    HO315593   1.512   3.813   2.306 -1.2876  1.7540 -2.8332
  143OSM    C4S15594   1.658   3.942   2.554 -0.3999 -0.1502  0.2428
  143OSM    H4S15595   1.758   3.917   2.515 -0.7072 -1.5603  0.3148
  143OSM    C5S15596   1.646   4.031   2.653 -0.3887 -0.3831  0.1023
  143OSM    H5S15597   1.548   4.060   2.695 -0.5091 -0.8875  0.1745
  143OSM    C6S15598   1.764   4.110   2.704  0.3329 -0.0982  0.4151
  143OSM    H6S15599   1.735   4.214   2.728  1.6250  0.6325 -0.9900
  143OSM    H6T15600   1.842   4.122   2.625  0.2518  1.4555  0.5305
  143OSM    C7S15601   1.831   4.068   2.837  0.6327  0.7779  0.8689
  143OSM    H7S15602   1.900   4.150   2.866  0.1748  1.6258 -0.3891
  143OSM    H7T15603   1.892   3.978   2.812 -1.6929 -0.8153  0.6654
  143OSM    C8S15604   1.745   4.040   2.966  0.5184 -0.6626 -0.5336
  143OSM    H8S15605   1.677   3.957   2.937 -0.9364  0.4278 -0.3209
  143OSM    H8T15606   1.689   4.130   2.998  0.3116 -1.6047  1.9145
  143OSM    C9S15607   1.838   4.000   3.078 -0.1457 -0.5123 -0.3549
  143OSM    H9S15608   1.919   4.075   3.093 -0.4849 -0.6929  3.1584
  143OSM    H9T15609   1.882   3.901   3.053  0.2344 -0.0818 -1.4863
  143OSM   C10S15610   1.759   3.998   3.211  0.7627 -0.4340  0.6209
  143OSM   H10S15611   1.672   4.066   3.199  0.0632 -1.3903  0.0456
  143OSM   H10T15612   1.809   4.034   3.303  0.0343 -0.6321  1.1055
  143OSM   C11S15613   1.698   3.863   3.240 -0.9175 -0.3328  0.3036
  143OSM   H11S15614   1.776   3.785   3.227 -1.9775 -1.2127 -1.0913
  143OSM   H11T15615   1.614   3.842   3.170 -0.3139  0.2658 -0.6244
  143OSM   C12S15616   1.650   3.845   3.384  0.0506  0.1881  0.5052
  143OSM   H12S15617   1.726   3.896   3.446 -0.7397  1.4343  0.4929
  143OSM   H12T15618   1.644   3.736   3.402  0.0892 -0.3113 -2.0581
  143OSM   C13S15619   1.516   3.915   3.416 -0.4305 -0.3866 -0.4224
  143OSM   H13S15620   1.425   3.860   3.382 -0.1130 -0.3322 -1.3968
  143OSM   H13T15621   1.523   4.013   3.366  0.0289 -1.8795 -3.5159
  143OSM   C14S15622   1.489   3.944   3.566 -0.2521  0.1088  0.2445
  143OSM   H14S15623   1.573   3.994   3.618  1.4946 -1.3770 -1.0190
  143OSM   H14T15624   1.473   3.848   3.619 -2.6466  0.4713  0.3085
  143OSM   C15S15625   1.351   4.022   3.591 -0.4428 -0.1785 -0.0739
  143OSM   H15S15626   1.267   3.971   3.540 -2.8059  0.2602  3.1344
  143OSM   H15T15627   1.373   4.121   3.546  1.4809 -1.2387 -1.6545
  143OSM   C16S15628   1.294   4.034   3.737  0.5552  0.2274 -0.3547
  143OSM   H16S15629   1.190   4.073   3.730 -0.8701 -3.0590  0.3208
  143OSM   H16T15630   1.356   4.089   3.811 -1.8354  0.3769  1.6861
  143OSM   C17S15631   1.291   3.893   3.802  0.3301 -0.7244  0.5245
  143OSM   H17S15632   1.395   3.855   3.794  0.3886 -0.1977 -2.1377
  143OSM   H17T15633   1.233   3.829   3.732  0.9060 -0.0310 -0.6174
  143OSM   C18S15634   1.230   3.877   3.946  0.6989 -0.2021  0.3817
  143OSM   H18S15635   1.126   3.915   3.935  0.3682 -1.2740 -0.4177
  143OSM   H18T15636   1.273   3.956   4.012 -0.6639  0.7929  0.1302
  143OSM   H18U15637   1.225   3.776   3.992 -0.1378 -0.8212 -1.0064
  143OSM    C1F15638   1.468   3.583   2.737 -0.0608  0.7926 -0.0887
  143OSM     OF15639   1.535   3.482   2.708 -0.0478 -0.4706 -0.3366
  143OSM    C2F15640   1.389   3.583   2.866  0.6900 -0.4909 -0.1443
  143OSM    H2F15641   1.324   3.495   2.887  1.0129 -1.2737 -2.1716
  143OSM    H2G15642   1.323   3.672   2.871  0.2881 -0.8098  0.4142
  143OSM    C3F15643   1.484   3.597   2.990 -0.2571  0.0132 -0.3703
  143OSM    H3F15644   1.513   3.703   3.001 -3.2980  0.7754  1.8157
  143OSM    H3G15645   1.578   3.537   2.981 -0.2489  0.2212 -1.7788
  143OSM    C4F15646   1.419   3.550   3.124  0.1780 -0.5240 -0.4530
  143OSM    H4F15647   1.357   3.466   3.086  2.0399 -1.4215 -1.6392
  143OSM    H4G15648   1.353   3.628   3.168  1.7733 -0.2047  1.5174
  143OSM    C5F15649   1.516   3.474   3.218  0.1004 -1.0495  0.4718
  143OSM    H5F15650   1.595   3.545   3.251 -0.2571 -1.4468  2.2970
  143OSM    H5G15651   1.567   3.399   3.154 -1.3247 -0.8863 -0.9001
  143OSM    C6F15652   1.464   3.416   3.348 -0.0511 -0.1439 -0.1915
  143OSM    H6F15653   1.550   3.392   3.414 -0.3933  0.3311  0.4530
  143OSM    H6G15654   1.388   3.336   3.333  0.4940 -0.9188  1.0182
  143OSM    C7F15655   1.405   3.521   3.440 -0.6763 -0.3107 -0.4076
  143OSM    H7F15656   1.319   3.569   3.389 -1.7166  1.1119  2.4308
  143OSM    H7G15657   1.478   3.604   3.449 -0.7992 -0.1624 -0.7645
  143OSM    C8F15658   1.359   3.462   3.580  0.0808  0.7269  0.3775
  143OSM    H8F15659   1.454   3.430   3.629  0.4650  2.8867  1.1300
  143OSM    H8G15660   1.294   3.378   3.548 -0.6418  1.4706 -0.1381
  143OSM    C9F15661   1.287   3.559   3.674  0.0399  0.2467  0.7604
  143OSM    H9F15662   1.336   3.656   3.693 -1.6243  0.8653  2.0856
  143OSM   C10F15663   1.173   3.536   3.746  0.0928 -0.3965 -0.1693
  143OSM   H10F15664   1.125   3.618   3.802 -1.7261 -0.9094 -0.8827
  143OSM   C11F15665   1.091   3.406   3.746  0.1679  0.1529  0.1273
  143OSM   H11F15666   1.152   3.331   3.692  0.0119 -0.6503  1.0538
  143OSM   H11G15667   0.999   3.424   3.686  0.8542 -0.3999 -1.1240
  143OSM   C12F15668   1.058   3.341   3.882  0.0957 -0.0763 -0.3191
  143OSM   H12F15669   1.152   3.308   3.933 -0.4959  0.2480  1.0394
  143OSM   H12G15670   0.996   3.252   3.858  1.5754 -1.2856  0.1435
  143OSM   C13F15671   0.977   3.419   3.983  0.6791  0.7068  0.1706
  143OSM   H13F15672   0.916   3.349   4.044  0.2579  0.7410 -0.2027
  143OSM   H13G15673   0.902   3.480   3.927 -1.9550 -2.6011 -0.2413
  143OSM   C14F15674   1.057   3.508   4.082  0.5743 -0.2616  0.6492
  143OSM   H14F15675   1.132   3.573   4.031 -0.0865  1.6458  2.0247
  143OSM   H14G15676   1.124   3.435   4.134 -1.6815 -2.0522  1.1972
  143OSM   C15F15677   0.970   3.593   4.176 -0.1656  0.3465  0.9364
  143OSM   H15F15678   0.879   3.542   4.213 -0.7028  1.3585  1.0132
  143OSM   H15G15679   0.938   3.684   4.121 -1.2102 -0.2709  0.4867
  143OSM   C16F15680   1.054   3.628   4.298  0.4893  0.3877  0.0231
  143OSM   H16F15681   1.094   3.535   4.344 -1.6091 -1.2797 -1.3509
  143OSM   H16G15682   0.987   3.688   4.363  1.9815  2.1342  0.0230
  143OSM   C17F15683   1.170   3.721   4.267  0.1775  0.2795  0.3267
  143OSM   H17F15684   1.132   3.816   4.223  0.5718 -0.1857 -1.0984
  143OSM   H17G15685   1.227   3.686   4.178 -0.4006 -0.1132  0.1043
  143OSM   C18F15686   1.267   3.755   4.379  0.1799  0.5096  0.1617
  143OSM   H18F15687   1.206   3.768   4.471  1.4364  0.4881  1.0179
  143OSM   H18G15688   1.316   3.854   4.363 -1.1520  0.9609 -1.5124
  143OSM   H18H15689   1.340   3.674   4.397 -0.3201 -0.3389 -1.4143
  144OSM      N15690   0.730   5.552   1.912 -0.0285 -0.2288 -0.1308
  144OSM    C1515691   0.589   5.562   1.956  0.5555  0.3775  0.4030
  144OSM   H15A15692   0.579   5.506   2.047 -1.0156  0.2274  0.1643
  144OSM   H15B15693   0.521   5.511   1.888 -0.7581  0.1994  1.8112
  144OSM   H15C15694   0.550   5.662   1.972 -0.3028  0.1601 -0.2124
  144OSM    C1415695   0.743   5.623   1.785 -0.5692  0.0427 -0.9043
  144OSM   H14A15696   0.847   5.639   1.762 -0.2253 -0.6292  0.0833
  144OSM   H14B15697   0.698   5.722   1.787  0.1851  0.3890  0.4628
  144OSM   H14C15698   0.695   5.572   1.703 -1.2999 -1.6184  0.4988
  144OSM    C1315699   0.815   5.623   2.016 -0.7890 -0.0138 -0.1404
  144OSM   H13A15700   0.920   5.602   1.999 -1.3173 -2.6407 -0.4891
  144OSM   H13B15701   0.799   5.595   2.119 -0.6518 -1.0945 -0.4041
  144OSM   H13C15702   0.802   5.730   2.011  3.3831  0.6168 -2.7093
  144OSM    C1215703   0.777   5.409   1.891 -0.1511 -0.3420  0.3569
  144OSM   H12A15704   0.776   5.370   1.992  1.1399  3.0365  1.8185
  144OSM   H12B15705   0.882   5.412   1.864 -0.1482  0.5129  0.4404
  144OSM    C1115706   0.714   5.307   1.798 -0.2659  0.3808 -0.2453
  144OSM   H11A15707   0.761   5.207   1.808 -0.4795  0.4043  1.1210
  144OSM   H11B15708   0.723   5.340   1.692 -0.3050 -1.2451 -0.7842
  144OSM      P15709   0.494   5.163   1.822 -0.4799  0.2447 -0.2812
  144OSM    O1315710   0.350   5.191   1.814  0.5291  0.5081 -0.6254
  144OSM    O1415711   0.558   5.073   1.721 -0.4203 -0.3696  0.1974
  144OSM    O1115712   0.529   5.103   1.965  0.2173 -0.2476 -0.0741
  144OSM    O1215713   0.578   5.302   1.825  0.3196 -0.0372 -0.2841
  144OSM    C1S15714   0.573   5.172   2.083 -0.1694  0.1949  0.4428
  144OSM    H1S15715   0.506   5.259   2.101 -2.3609 -0.9933 -1.5184
  144OSM    H1T15716   0.678   5.203   2.063  0.2566 -2.8492 -3.1104
  144OSM     NF15717   0.611   5.176   2.333  0.2929 -0.0821 -0.9263
  144OSM    HNF15718   0.702   5.145   2.360  0.1529  0.2254 -0.0747
  144OSM    C2S15719   0.554   5.093   2.220 -0.4052 -0.2286 -0.0484
  144OSM    H2S15720   0.445   5.080   2.234 -0.6487 -0.2819 -1.7125
  144OSM    C3S15721   0.609   4.947   2.206 -0.0007  0.3220  0.2882
  144OSM    H3S15722   0.718   4.959   2.187  0.1353 -1.9728 -0.7786
  144OSM     O315723   0.564   4.874   2.088 -0.1156  0.0565 -0.6382
  144OSM    HO315724   0.544   4.949   2.030 -0.7722  1.2455  1.0486
  144OSM    C4S15725   0.598   4.865   2.340  0.6833  0.0882  0.2753
  144OSM    H4S15726   0.693   4.864   2.395  3.7496 -1.7232 -4.4590
  144OSM    C5S15727   0.495   4.794   2.388  0.7939  0.6097 -0.1085
  144OSM    H5S15728   0.422   4.756   2.315  0.9561  0.7905 -0.3652
  144OSM    C6S15729   0.479   4.729   2.522  0.3516 -0.0295 -0.8101
  144OSM    H6S15730   0.493   4.618   2.519  0.6340  0.0026 -0.7143
  144OSM    H6T15731   0.373   4.735   2.556  0.4064  1.2295 -0.8247
  144OSM    C7S15732   0.577   4.791   2.620 -0.0643 -0.4383  0.5400
  144OSM    H7S15733   0.559   4.901   2.624 -0.0625 -0.4456  0.7707
  144OSM    H7T15734   0.680   4.764   2.590 -0.7006  0.2987 -2.6747
  144OSM    C8S15735   0.553   4.745   2.769 -0.4014 -0.2769  0.2024
  144OSM    H8S15736   0.587   4.639   2.766 -0.0999 -0.1863 -2.7762
  144OSM    H8T15737   0.445   4.753   2.791 -0.5388 -1.6361  0.1114
  144OSM    C9S15738   0.634   4.826   2.871  0.2170 -0.0515 -0.3152
  144OSM    H9S15739   0.615   4.933   2.846 -1.5673 -0.8474 -2.6740
  144OSM    H9T15740   0.743   4.815   2.852  0.4444  0.5495  0.5490
  144OSM   C10S15741   0.588   4.799   3.014  0.0158  0.2995  0.8421
  144OSM   H10S15742   0.480   4.821   3.026  0.1756  0.7491  1.5480
  144OSM   H10T15743   0.645   4.871   3.077  2.1167  0.1487 -0.7750
  144OSM   C11S15744   0.608   4.648   3.044 -0.6303  0.6154 -0.2119
  144OSM   H11S15745   0.716   4.624   3.031 -0.7271 -1.0573  1.6611
  144OSM   H11T15746   0.548   4.586   2.975  3.3149 -2.8709 -0.8959
  144OSM   C12S15747   0.554   4.614   3.188 -0.2897  0.0358  0.6829
  144OSM   H12S15748   0.576   4.507   3.204  2.1455  0.2047 -1.0598
  144OSM   H12T15749   0.444   4.633   3.198 -0.2826 -0.2513  1.3809
  144OSM   C13S15750   0.615   4.708   3.288 -0.1046  0.0613  0.4617
  144OSM   H13S15751   0.569   4.808   3.274 -1.9426 -0.2392  3.4893
  144OSM   H13T15752   0.725   4.711   3.270  0.2228 -1.6737  1.7761
  144OSM   C14S15753   0.582   4.658   3.432 -0.3481 -0.3175  0.4312
  144OSM   H14S15754   0.598   4.548   3.440 -1.6169 -0.5361  0.1653
  144OSM   H14T15755   0.474   4.679   3.447 -0.4543 -0.8039  0.3781
  144OSM   C15S15756   0.667   4.729   3.546 -0.0813  0.0922  0.7399
  144OSM   H15S15757   0.618   4.829   3.543  2.6716  1.5169 -1.2440
  144OSM   H15T15758   0.775   4.724   3.521 -0.4179 -0.6719 -0.6843
  144OSM   C16S15759   0.644   4.660   3.677  0.1886 -0.2400 -0.2444
  144OSM   H16S15760   0.652   4.550   3.661  3.0983 -0.2367  0.6190
  144OSM   H16T15761   0.542   4.684   3.715  0.2311  0.9111 -0.8254
  144OSM   C17S15762   0.751   4.700   3.785 -0.1343  0.0245  0.1311
  144OSM   H17S15763   0.728   4.800   3.827  0.3519 -1.1696  3.5609
  144OSM   H17T15764   0.847   4.718   3.733  0.9336 -1.0693  1.6457
  144OSM   C18S15765   0.763   4.592   3.894  0.2588  0.2050  0.0874
  144OSM   H18S15766   0.768   4.494   3.843 -1.6568  0.6958 -1.1557
  144OSM   H18T15767   0.669   4.582   3.953  0.0669 -0.6120 -0.3403
  144OSM   H18U15768   0.844   4.617   3.967 -2.6857  3.3885  2.6058
  144OSM    C1F15769   0.541   5.276   2.395  0.2683 -0.5908  0.6472
  144OSM     OF15770   0.432   5.302   2.347  0.7201 -0.8304  0.5482
  144OSM    C2F15771   0.596   5.344   2.516 -0.1528 -0.5116 -0.3739
  144OSM    H2F15772   0.561   5.449   2.510 -2.9019 -1.3954 -1.2401
  144OSM    H2G15773   0.706   5.334   2.502  0.3574  1.8880  1.2847
  144OSM    C3F15774   0.558   5.272   2.651  0.4138  0.6418  0.4553
  144OSM    H3F15775   0.595   5.168   2.644 -1.8695 -0.1368 -4.3644
  144OSM    H3G15776   0.448   5.266   2.656  0.3788  1.0640  0.2637
  144OSM    C4F15777   0.618   5.334   2.773  0.0942  0.5742  0.1179
  144OSM    H4F15778   0.566   5.429   2.796 -0.6906 -0.1400  1.3635
  144OSM    H4G15779   0.728   5.344   2.765  0.6354 -3.3504  0.3415
  144OSM    C5F15780   0.595   5.253   2.905 -0.4247  1.3051 -0.4201
  144OSM    H5F15781   0.644   5.154   2.894  1.0819  1.8226  1.2771
  144OSM    H5G15782   0.486   5.232   2.918 -0.1638  0.2898  0.2466
  144OSM    C6F15783   0.648   5.323   3.036 -0.1070 -0.5277 -0.2620
  144OSM    H6F15784   0.579   5.410   3.036 -1.3318 -1.3765 -2.7382
  144OSM    H6G15785   0.747   5.367   3.011  0.1225 -0.3587  0.9133
  144OSM    C7F15786   0.646   5.241   3.167  0.1192  0.1728  0.0229
  144OSM    H7F15787   0.701   5.145   3.169  0.5085  0.4054  1.3465
  144OSM    H7G15788   0.540   5.216   3.191  0.6708 -0.3096  2.2266
  144OSM    C8F15789   0.682   5.335   3.284  0.7446 -0.6339  0.0441
  144OSM    H8F15790   0.621   5.296   3.367  1.4797 -3.2508 -0.5735
  144OSM    H8G15791   0.647   5.437   3.255  1.9445 -0.3379 -0.4227
  144OSM    C9F15792   0.830   5.340   3.324  0.8340 -0.2446  0.2109
  144OSM    H9F15793   0.902   5.279   3.268 -0.7983 -0.0049 -2.2989
  144OSM   C10F15794   0.884   5.427   3.414 -0.5756 -0.4298 -0.0297
  144OSM   H10F15795   0.992   5.434   3.432 -0.8207 -0.6628  1.6655
  144OSM   C11F15796   0.808   5.523   3.512 -0.0794  0.3675 -0.2226
  144OSM   H11F15797   0.698   5.523   3.501 -0.3391 -2.2374  1.6051
  144OSM   H11G15798   0.839   5.628   3.492 -2.0503  0.9682 -0.2979
  144OSM   C12F15799   0.846   5.486   3.655  1.2064  0.5161 -0.5654
  144OSM   H12F15800   0.820   5.568   3.726  0.6277 -0.4555  0.3672
  144OSM   H12G15801   0.957   5.486   3.658  1.1933  1.0398  0.2100
  144OSM   C13F15802   0.778   5.355   3.699 -0.0688  0.4048 -0.5252
  144OSM   H13F15803   0.794   5.271   3.628 -1.8456 -0.3173 -0.1144
  144OSM   H13G15804   0.673   5.387   3.716 -0.5226 -0.5053 -1.5060
  144OSM   C14F15805   0.829   5.302   3.834 -0.5848  0.0885 -0.4593
  144OSM   H14F15806   0.799   5.378   3.910  0.4021 -1.0149  1.0909
  144OSM   H14G15807   0.940   5.302   3.834 -0.5197 -1.8497 -2.5468
  144OSM   C15F15808   0.764   5.164   3.882 -0.5545  0.5750 -0.0574
  144OSM   H15F15809   0.825   5.124   3.966 -1.7029 -3.6935 -1.0316
  144OSM   H15G15810   0.776   5.084   3.805 -4.1100  0.2394 -0.4378
  144OSM   C16F15811   0.620   5.167   3.932  0.1516 -0.4745 -0.6848
  144OSM   H16F15812   0.569   5.167   3.833 -0.6384  3.0182 -0.3971
  144OSM   H16G15813   0.607   5.259   3.992 -2.2657 -0.4078 -1.2186
  144OSM   C17F15814   0.582   5.050   4.025  0.6617 -0.5671  0.0348
  144OSM   H17F15815   0.567   4.953   3.972  1.4318 -0.1232 -1.0327
  144OSM   H17G15816   0.486   5.081   4.071  1.8504 -1.4041  3.4271
  144OSM   C18F15817   0.674   5.025   4.148  0.5373 -0.1331  0.4303
  144OSM   H18F15818   0.745   4.945   4.121 -0.8702 -0.9567 -1.0066
  144OSM   H18G15819   0.612   4.995   4.236 -1.2284 -0.7874 -0.9648
  144OSM   H18H15820   0.731   5.117   4.170  1.3036 -0.0720 -1.6363
  145SAPE     N15821   6.739   0.555   6.858  0.7857 -0.1601  0.2926
  145SAPE   HN115822   6.803   0.611   6.798  0.3550  0.2273  0.1891
  145SAPE   HN215823   6.642   0.581   6.833  0.7350  0.0899  0.7617
  145SAPE   HN315824   6.759   0.566   6.959  2.5202 -1.7441  0.1714
  145SAPE   C1215825   6.757   0.414   6.822  0.0158  0.0250 -0.0185
  145SAPE  H12A15826   6.708   0.405   6.723 -1.5556 -0.6281  0.7889
  145SAPE  H12B15827   6.699   0.358   6.899  0.0355 -0.7036 -0.5271
  145SAPE   C1115828   6.902   0.371   6.839  0.1151 -0.4104  0.1600
  145SAPE  H11A15829   6.946   0.410   6.934  2.5689  0.0014 -1.0647
  145SAPE  H11B15830   6.969   0.421   6.767  0.0360 -0.2839  0.1746
  145SAPE     P15831   6.871   0.137   6.713 -0.2120 -0.1202  0.6820
  145SAPE   O1315832   6.955   0.015   6.715  0.2453 -0.3912  0.1895
  145SAPE   O1415833   6.727   0.121   6.727  0.2961 -0.2910  0.6555
  145SAPE   O1215834   6.915   0.229   6.837  0.2074  0.4901  0.2357
  145SAPE   O1115835   6.893   0.223   6.582  0.3242 -0.0652 -0.0811
  145SAPE    C115836   7.021   0.207   6.513 -0.3988 -0.4091  0.2115
  145SAPE    HA15837   7.050   0.310   6.484 -2.4511 -0.0492 -0.8283
  145SAPE    HB15838   7.106   0.180   6.579  0.2343 -0.5985 -0.6639
  145SAPE    C215839   7.016   0.124   6.387 -0.0171 -0.3860  0.4084
  145SAPE    HS15840   7.095   0.170   6.324 -0.3702  1.1635  1.0451
  145SAPE   O2115841   6.893   0.129   6.318  0.0467  0.1413 -0.0859
  145SAPE   C2115842   6.877   0.227   6.226 -0.1736  0.6587  0.1883
  145SAPE   O2215843   6.960   0.314   6.202 -0.3347 -0.0371 -0.2688
  145SAPE   C2215844   6.754   0.189   6.147 -0.4295 -0.3848  0.5504
  145SAPE   H2R15845   6.780   0.109   6.075 -0.2894  0.2527 -0.1198
  145SAPE   H2S15846   6.679   0.155   6.222 -0.8965  1.8005  1.1406
  145SAPE    C315847   7.050  -0.023   6.406 -0.2053 -0.5303 -0.1473
  145SAPE    HX15848   6.962  -0.067   6.458 -0.6807 -0.9490 -1.2679
  145SAPE    HY15849   7.129  -0.058   6.476 -0.2173  0.0264  0.1461
  145SAPE   O3115850   7.065  -0.089   6.281  0.5595  0.5575  0.6447
  145SAPE   C3115851   7.179  -0.072   6.222  0.2476 -0.0536  0.4433
  145SAPE   O3215852   7.274  -0.007   6.258 -0.7370 -0.2434  0.1201
  145SAPE   C3215853   7.164  -0.129   6.078 -0.1857 -0.1360  0.3079
  145SAPE   H2X15854   7.057  -0.147   6.054 -0.1088 -0.9265  0.5235
  145SAPE   H2Y15855   7.209  -0.230   6.077 -1.3947 -0.7233  1.3723
  145SAPE   C2315856   6.693   0.316   6.077  0.7468  0.1957  0.0626
  145SAPE   H3R15857   6.767   0.342   5.998  0.5060 -0.9005 -0.5414
  145SAPE   H3S15858   6.699   0.403   6.146 -0.5618  2.3208 -2.3148
  145SAPE   C2415859   6.548   0.288   6.033  0.0925 -0.8462  0.5203
  145SAPE   H4R15860   6.515   0.350   5.947  2.3678  0.5789  0.5910
  145SAPE   H4S15861   6.484   0.306   6.122  0.9758 -3.6886  1.8480
  145SAPE   C2515862   6.531   0.147   5.984 -0.1265  0.0241  0.3038
  145SAPE   H5R15863   6.508   0.077   6.066  0.3177 -0.2369  0.2065
  145SAPE   C2615864   6.567   0.104   5.861  0.6874  0.0785  0.0264
  145SAPE   H6R15865   6.553  -0.003   5.839  0.9653  0.1920 -0.7652
  145SAPE   C2715866   6.616   0.174   5.738 -0.7923 -0.0468 -0.3504
  145SAPE   H7R15867   6.628   0.283   5.755 -0.3777 -0.2312  0.5645
  145SAPE   H7S15868   6.540   0.166   5.657  0.5036  1.2761 -1.7747
  145SAPE   C2815869   6.752   0.129   5.682  0.1089 -0.2326 -0.0585
  145SAPE   H8R15870   6.822   0.120   5.766 -2.1113  1.2648  2.0982
  145SAPE   C2915871   6.791   0.158   5.554 -0.3022  0.1513 -1.2572
  145SAPE   H9R15872   6.896   0.150   5.524  0.4957 -0.2749  1.4191
  145SAPE  C21015873   6.700   0.197   5.443  0.2861  0.5498  0.6334
  145SAPE  H10R15874   6.597   0.204   5.484  0.2513  0.8782  0.4923
  145SAPE  H10S15875   6.709   0.121   5.363  0.1408  0.2954  0.8581
  145SAPE  C21115876   6.746   0.330   5.382  0.0626  0.1408  0.0584
  145SAPE  H11R15877   6.778   0.410   5.450 -1.1947  0.3580  0.4106
  145SAPE  C21215878   6.735   0.363   5.250  0.0282  0.2514 -0.7750
  145SAPE  H12R15879   6.773   0.460   5.214  1.9221  0.6951  2.0520
  145SAPE  C21315880   6.687   0.267   5.141 -0.5693  0.0342 -0.4147
  145SAPE  H13R15881   6.601   0.209   5.181 -1.4528 -0.2686 -2.6139
  145SAPE  H13S15882   6.758   0.183   5.126 -3.9667 -3.3370  0.8197
  145SAPE  C21415883   6.659   0.331   5.004 -0.2684 -1.4284 -0.2249
  145SAPE  H14R15884   6.735   0.398   4.961 -0.6624  0.7662  2.2295
  145SAPE  C21515885   6.537   0.335   4.952  0.7106  0.3549 -0.6777
  145SAPE  H15R15886   6.529   0.394   4.859  0.6959  0.8565 -0.3597
  145SAPE  C21615887   6.409   0.265   4.998 -0.1973 -0.2335 -0.1846
  145SAPE  H16R15888   6.427   0.223   5.100 -1.4449  0.9573  0.5633
  145SAPE  H16S15889   6.376   0.178   4.938  0.0447  0.8786 -1.9819
  145SAPE  C21715890   6.296   0.361   5.028 -0.6256 -0.0238  0.1141
  145SAPE  H17R15891   6.322   0.435   5.106  1.8082 -0.5534 -0.1120
  145SAPE  H17S15892   6.210   0.304   5.067  0.8793 -2.0357  0.6554
  145SAPE  C21815893   6.244   0.447   4.910 -0.5758 -0.2141  0.3736
  145SAPE  H18R15894   6.321   0.523   4.884  1.1435 -1.1360  2.4776
  145SAPE  H18S15895   6.150   0.494   4.947 -0.8339 -0.7003  0.3429
  145SAPE  C21915896   6.189   0.370   4.787 -0.6610  0.0395  0.3059
  145SAPE  H19R15897   6.113   0.298   4.824  0.1298 -1.1498 -0.3024
  145SAPE  H19S15898   6.282   0.335   4.737 -0.9876 -1.3348  0.6324
  145SAPE  C22015899   6.118   0.457   4.673 -0.3239  0.4898  0.0081
  145SAPE  H20R15900   6.197   0.515   4.621 -0.9623  1.5358  0.1905
  145SAPE  H20S15901   6.039   0.518   4.722 -2.1752 -2.5910  1.2103
  145SAPE  H20T15902   6.074   0.395   4.592 -1.4643  0.4927  0.6006
  145SAPE   C3315903   7.234  -0.042   5.967 -0.4281  0.2127 -0.2601
  145SAPE   H3X15904   7.239  -0.098   5.871 -1.8888  0.9166 -0.7787
  145SAPE   H3Y15905   7.331  -0.007   6.008  0.7836 -0.8384 -2.0965
  145SAPE   C3415906   7.146   0.078   5.929 -0.5235 -0.4092 -0.7412
  145SAPE   H4X15907   7.120   0.138   6.019  1.6968  0.6611 -0.7254
  145SAPE   H4Y15908   7.057   0.028   5.885 -1.3615  1.0271 -0.7348
  145SAPE   C3515909   7.215   0.181   5.833  0.1403 -0.2001 -0.0714
  145SAPE   H5X15910   7.323   0.195   5.856 -0.2915 -1.8047  3.6894
  145SAPE   H5Y15911   7.157   0.275   5.848 -1.5872 -1.3116  0.5059
  145SAPE   C3615912   7.195   0.134   5.693  0.6510 -0.3368 -0.0202
  145SAPE   H6X15913   7.085   0.123   5.677  1.0243 -2.1963 -1.6132
  145SAPE   H6Y15914   7.235   0.034   5.666 -0.6843 -0.9059  0.0169
  145SAPE   C3715915   7.244   0.236   5.587 -0.0626  0.4910 -0.3706
  145SAPE   H7X15916   7.352   0.254   5.606  0.1214 -0.2040 -0.7298
  145SAPE   H7Y15917   7.193   0.332   5.611  0.0674  0.1309  1.5082
  145SAPE   C3815918   7.221   0.198   5.438  0.1666  0.0389  0.4651
  145SAPE   H8X15919   7.136   0.126   5.433  0.0487  0.0933  1.4743
  145SAPE   H8Y15920   7.309   0.143   5.397 -1.7827 -2.1936 -1.0137
  145SAPE   C3915921   7.196   0.318   5.345  0.6149 -0.0496 -0.3160
  145SAPE   H9X15922   7.288   0.380   5.355  1.1802 -0.7607 -0.9217
  145SAPE   H9Y15923   7.104   0.361   5.389 -1.4457 -3.2513 -1.1976
  145SAPE  C31015924   7.154   0.297   5.198  0.4749  0.4430  0.2186
  145SAPE  H10X15925   7.058   0.241   5.193 -0.0625  1.3624  0.1137
  145SAPE  H10Y15926   7.223   0.228   5.146 -0.5183 -1.0219  0.7649
  145SAPE  C31115927   7.141   0.417   5.103 -0.2704  0.3752 -0.4110
  145SAPE  H11X15928   7.231   0.480   5.087 -0.1008  0.2096 -0.1107
  145SAPE  H11Y15929   7.065   0.475   5.160 -1.3214 -2.4500  1.2752
  145SAPE  C31215930   7.078   0.395   4.964  0.1798 -0.1775  0.4184
  145SAPE  H12X15931   6.993   0.326   4.982 -1.2275  1.3192 -0.2549
  145SAPE  H12Y15932   7.127   0.335   4.885  0.6536 -0.0887  0.6423
  145SAPE  C31315933   7.029   0.526   4.897  0.2019  0.7649  0.0288
  145SAPE  H13X15934   6.956   0.579   4.962 -0.1815 -2.3881  2.3841
  145SAPE  H13Y15935   6.967   0.505   4.807 -0.5412  0.5846  0.5729
  145SAPE  C31415936   7.152   0.620   4.868  0.1319  0.4438 -0.3436
  145SAPE  H14X15937   7.201   0.650   4.963 -1.6184  2.9858 -0.1199
  145SAPE  H14Y15938   7.122   0.714   4.817 -0.8664  0.6262  0.5246
  145SAPE  C31515939   7.256   0.552   4.780 -0.4424 -0.1490 -0.2207
  145SAPE  H15X15940   7.222   0.539   4.675 -3.3509 -1.0423  0.7350
  145SAPE  H15Y15941   7.279   0.451   4.819 -0.0741  0.1955  0.4803
  145SAPE  C31615942   7.384   0.623   4.780  0.7376 -0.8650 -0.7939
  145SAPE  H16X15943   7.420   0.636   4.884  0.6129 -1.7888 -0.6192
  145SAPE  H16Y15944   7.377   0.724   4.736 -1.7629 -0.2266  0.8636
  145SAPE  C31715945   7.489   0.526   4.722 -0.4615 -0.9282 -0.3954
  145SAPE  H17X15946   7.445   0.492   4.626 -1.1405  0.2091 -0.5149
  145SAPE  H17Y15947   7.493   0.440   4.791  0.0130  1.0169  2.1711
  145SAPE  C31815948   7.618   0.592   4.696 -0.7356 -0.7435 -0.1277
  145SAPE  H18X15949   7.681   0.518   4.641  0.4920  1.2103 -1.4948
  145SAPE  H18Y15950   7.659   0.626   4.793 -1.2855  1.5846 -0.6485
  145SAPE  H18Z15951   7.616   0.684   4.634  0.1144 -0.1336  0.7207
  146SAPE     N15952   2.969   5.708   6.794  0.2217 -0.1358 -0.1346
  146SAPE   HN115953   2.941   5.794   6.845 -1.4504 -0.2698 -0.7473
  146SAPE   HN215954   2.949   5.622   6.848 -0.2559 -0.3737 -0.6820
  146SAPE   HN315955   3.069   5.714   6.767 -0.0074  0.4493 -0.8790
  146SAPE   C1215956   2.894   5.674   6.670 -0.0410 -0.1915  0.6343
  146SAPE  H12A15957   2.893   5.761   6.601 -0.2574  0.1903  1.1072
  146SAPE  H12B15958   2.791   5.651   6.705  0.4807 -2.0054  1.0561
  146SAPE   C1115959   2.952   5.550   6.598  0.3579  1.2250  0.1633
  146SAPE  H11A15960   3.043   5.567   6.536  1.4945  1.2097  1.7337
  146SAPE  H11B15961   2.863   5.527   6.536 -0.9033  0.2857  2.2014
  146SAPE     P15962   2.954   5.289   6.652  0.1136 -0.4469 -0.5849
  146SAPE   O1315963   3.041   5.205   6.735  0.4800  0.0292 -0.5607
  146SAPE   O1415964   2.811   5.260   6.645  0.4017 -0.0786 -0.5424
  146SAPE   O1215965   2.975   5.438   6.691 -0.3042 -1.0723 -0.0724
  146SAPE   O1115966   3.001   5.278   6.508 -0.2887  0.1231 -0.2348
  146SAPE    C115967   3.138   5.291   6.479 -0.1097  0.4821 -0.7436
  146SAPE    HA15968   3.186   5.385   6.512 -0.2981  0.3274 -0.0021
  146SAPE    HB15969   3.202   5.212   6.525  0.7385  0.6529 -1.6110
  146SAPE    C215970   3.164   5.275   6.330  0.3154 -1.4553 -0.4449
  146SAPE    HS15971   3.144   5.369   6.273 -3.6807 -1.9553 -0.1668
  146SAPE   O2115972   3.075   5.172   6.285 -0.3109  0.1929  0.0163
  146SAPE   C2115973   3.015   5.196   6.162  0.0297  0.5416  0.4525
  146SAPE   O2215974   3.012   5.301   6.109  0.7616  0.0833  0.2400
  146SAPE   C2215975   2.970   5.069   6.102  0.3681  0.1799  0.0811
  146SAPE   H2R15976   2.974   4.981   6.169 -0.2304 -0.5432 -0.7967
  146SAPE   H2S15977   2.864   5.078   6.069  0.5500 -2.3100 -1.5417
  146SAPE    C315978   3.319   5.239   6.294 -0.3012 -0.2663  0.2538
  146SAPE    HX15979   3.360   5.148   6.343 -3.7174 -1.8640  0.4070
  146SAPE    HY15980   3.384   5.324   6.324 -0.2114  0.3344 -1.5501
  146SAPE   O3115981   3.336   5.208   6.152  0.4155 -0.1178  0.5217
  146SAPE   C3115982   3.347   5.314   6.076 -0.4930 -0.1276 -0.2079
  146SAPE   O3215983   3.353   5.432   6.113 -0.3039  0.1225 -0.4440
  146SAPE   C3215984   3.353   5.275   5.930 -0.2943  0.4256 -0.4486
  146SAPE   H2X15985   3.321   5.169   5.928  0.0910  0.1029  3.1403
  146SAPE   H2Y15986   3.458   5.279   5.892  0.8082 -0.4280  2.1992
  146SAPE   C2315987   3.061   5.025   5.986  0.7148 -0.3375 -0.4317
  146SAPE   H3R15988   3.169   5.007   6.007  0.4018 -0.8799  0.8253
  146SAPE   H3S15989   3.064   5.108   5.913  1.2721 -0.3858 -0.4682
  146SAPE   C2415990   3.010   4.904   5.897 -0.0413 -0.3902  0.1888
  146SAPE   H4R15991   2.982   4.827   5.972 -2.3144 -1.0324 -1.2392
  146SAPE   H4S15992   3.093   4.864   5.836 -0.3431 -1.8228  0.6788
  146SAPE   C2515993   2.877   4.934   5.826  0.9506 -0.0494 -0.4857
  146SAPE   H5R15994   2.795   4.962   5.894  2.4151 -1.3668  1.9365
  146SAPE   C2615995   2.854   4.917   5.696  0.4889 -0.7643  0.7005
  146SAPE   H6R15996   2.755   4.944   5.655  0.1140  1.8248  3.0099
  146SAPE   C2715997   2.963   4.882   5.589  0.0435 -0.0023 -0.4135
  146SAPE   H7R15998   2.930   4.797   5.526  0.1733  1.8586 -3.1733
  146SAPE   H7S15999   3.062   4.874   5.637 -0.4743  1.5075  1.0492
  146SAPE   C2816000   2.969   5.004   5.498 -0.2791 -0.3787 -0.4854
  146SAPE   H8R16001   3.044   5.078   5.528  0.7817 -1.4144 -0.5311
  146SAPE   C2916002   2.910   5.029   5.377  0.3514  0.3601  0.1604
  146SAPE   H9R16003   2.931   5.120   5.318  0.1708 -0.3823 -1.0734
  146SAPE  C21016004   2.814   4.938   5.314 -0.1126 -0.3325  0.2091
  146SAPE  H10R16005   2.813   4.837   5.360 -0.4174 -0.5662 -0.3061
  146SAPE  H10S16006   2.853   4.936   5.209  1.4810  0.2613  0.7603
  146SAPE  C21116007   2.681   5.010   5.314  0.0562  0.3600 -0.1482
  146SAPE  H11R16008   2.635   5.032   5.412 -1.2612  0.5113 -0.7675
  146SAPE  C21216009   2.619   5.072   5.209 -0.3843 -0.3778  0.2859
  146SAPE  H12R16010   2.517   5.111   5.219 -0.2325  0.8939 -2.3160
  146SAPE  C21316011   2.646   5.065   5.060  0.8887  0.9649 -1.4149
  146SAPE  H13R16012   2.552   5.030   5.012 -0.8786  2.8157  0.4842
  146SAPE  H13S16013   2.720   4.984   5.044 -0.5906 -0.6500 -0.4342
  146SAPE  C21416014   2.700   5.188   4.999  0.4738 -0.2385 -0.1205
  146SAPE  H14R16015   2.792   5.213   5.054 -1.0672 -0.1073  2.5397
  146SAPE  C21516016   2.650   5.269   4.902  0.0127  0.4473  0.2694
  146SAPE  H15R16017   2.707   5.359   4.874  1.2316 -0.5210 -0.4574
  146SAPE  C21616018   2.533   5.243   4.818  1.1125  0.0900 -0.1718
  146SAPE  H16R16019   2.504   5.137   4.804 -0.9586  0.4591  0.8624
  146SAPE  H16S16020   2.545   5.285   4.716 -0.5515 -0.7824 -0.7744
  146SAPE  C21716021   2.407   5.316   4.869  0.3028  0.8624  0.9868
  146SAPE  H17R16022   2.406   5.426   4.859 -3.5486  1.1145  2.5541
  146SAPE  H17S16023   2.391   5.296   4.978  2.5795  2.7595  1.7613
  146SAPE  C21816024   2.286   5.273   4.782 -0.5258  0.4384 -0.2955
  146SAPE  H18R16025   2.256   5.173   4.822  1.1824 -0.1329 -0.3529
  146SAPE  H18S16026   2.322   5.253   4.679  1.8580  1.0774  0.3470
  146SAPE  C21916027   2.166   5.364   4.795  0.4384 -0.3112 -0.7853
  146SAPE  H19R16028   2.084   5.341   4.725  0.0714  1.2917 -0.9324
  146SAPE  H19S16029   2.183   5.473   4.812  0.3984 -0.5300  0.9009
  146SAPE  C22016030   2.093   5.338   4.931  0.4821  0.0626  0.2135
  146SAPE  H20R16031   2.055   5.234   4.938 -0.9090  0.4209 -1.6004
  146SAPE  H20S16032   2.003   5.403   4.933  1.4695  1.5548 -1.3275
  146SAPE  H20T16033   2.150   5.360   5.024  1.5762 -1.3306 -0.0893
  146SAPE   C3316034   3.268   5.371   5.843  0.0529  0.3900 -1.0390
  146SAPE   H3X16035   3.310   5.473   5.838 -1.2481  1.0471  0.3544
  146SAPE   H3Y16036   3.168   5.373   5.892  0.9851 -1.2300  1.1036
  146SAPE   C3416037   3.257   5.305   5.709  0.3179 -0.2280  0.4491
  146SAPE   H4X16038   3.174   5.356   5.655 -0.4341 -2.2743 -0.4204
  146SAPE   H4Y16039   3.221   5.201   5.721 -3.2021  0.3149 -3.0516
  146SAPE   C3516040   3.386   5.317   5.626 -0.3690 -0.1569 -0.1567
  146SAPE   H5X16041   3.471   5.268   5.679 -0.3609 -1.1985 -1.0926
  146SAPE   H5Y16042   3.418   5.421   5.606 -0.3421 -0.4057 -1.5499
  146SAPE   C3616043   3.375   5.235   5.499  0.2258 -0.4464 -0.1750
  146SAPE   H6X16044   3.355   5.132   5.534  2.7442 -1.4579 -1.4314
  146SAPE   H6Y16045   3.475   5.222   5.452  0.4704 -0.8695  0.4493
  146SAPE   C3716046   3.276   5.291   5.400 -0.2465  0.2078 -0.0103
  146SAPE   H7X16047   3.315   5.381   5.348 -0.3409  1.0691  1.3309
  146SAPE   H7Y16048   3.179   5.317   5.448  0.0770 -0.7430  1.2235
  146SAPE   C3816049   3.241   5.195   5.286 -0.1779  0.0490  0.4019
  146SAPE   H8X16050   3.170   5.123   5.331  1.5923 -0.9594  1.7224
  146SAPE   H8Y16051   3.326   5.134   5.249 -0.6329 -0.5104  0.2735
  146SAPE   C3916052   3.168   5.262   5.169 -0.0868  0.4777 -0.1484
  146SAPE   H9X16053   3.214   5.357   5.137 -0.0357  0.1893 -0.9611
  146SAPE   H9Y16054   3.061   5.274   5.198 -0.1115  0.3264 -0.1733
  146SAPE  C31016055   3.156   5.173   5.048  0.0602 -0.2570  0.3721
  146SAPE  H10X16056   3.098   5.085   5.084  1.8789 -1.3499  0.7788
  146SAPE  H10Y16057   3.258   5.146   5.015 -0.1136 -0.5759  0.0958
  146SAPE  C31116058   3.083   5.241   4.935  0.1114  0.3882 -0.7918
  146SAPE  H11X16059   3.123   5.345   4.932 -1.4886  1.0753  0.3639
  146SAPE  H11Y16060   2.974   5.246   4.953  0.5638  0.3619  2.5330
  146SAPE  C31216061   3.117   5.169   4.798  0.1735  0.2454 -0.0956
  146SAPE  H12X16062   3.065   5.071   4.796  0.7372 -0.0528 -0.4063
  146SAPE  H12Y16063   3.227   5.155   4.794  0.2987  1.2743 -0.5124
  146SAPE  C31316064   3.073   5.242   4.671  0.2386  0.5065  0.0268
  146SAPE  H13X16065   3.104   5.183   4.581  0.7928 -0.2812  0.7229
  146SAPE  H13Y16066   3.129   5.338   4.672  0.2225  0.6506 -2.7369
  146SAPE  C31416067   2.932   5.274   4.659  1.7083  0.1961  0.0011
  146SAPE  H14X16068   2.892   5.348   4.732  1.1075  0.2291 -0.3519
  146SAPE  H14Y16069   2.869   5.184   4.677  0.4563  0.8943 -0.7881
  146SAPE  C31516070   2.914   5.347   4.525  0.9730 -0.2320 -0.0475
  146SAPE  H15X16071   2.805   5.358   4.509  0.7578 -0.9345  0.9227
  146SAPE  H15Y16072   2.954   5.289   4.439  2.1460  0.3183  0.1051
  146SAPE  C31616073   2.967   5.491   4.522 -0.2146  0.0415  0.2898
  146SAPE  H16X16074   3.076   5.504   4.507 -0.4327  1.5964 -0.0830
  146SAPE  H16Y16075   2.936   5.538   4.617 -3.4754 -2.5932  0.7198
  146SAPE  C31716076   2.897   5.560   4.404 -0.1980  0.6909  0.3594
  146SAPE  H17X16077   2.912   5.670   4.405  2.2521  0.4118  1.8635
  146SAPE  H17Y16078   2.786   5.557   4.416 -0.2344 -0.2517 -0.1348
  146SAPE  C31816079   2.936   5.510   4.266 -0.5057 -0.1322  0.7935
  146SAPE  H18X16080   2.915   5.591   4.192  0.5494 -0.5405  0.0298
  146SAPE  H18Y16081   2.879   5.424   4.225 -1.4063  0.7752  0.0774
  146SAPE  H18Z16082   3.045   5.492   4.255 -0.5400 -0.1259  0.4210
  147SAPE     N16083   2.412   4.539   6.840  0.2374  0.2923  0.1675
  147SAPE   HN116084   2.348   4.590   6.905  0.1710  0.7242 -0.2317
  147SAPE   HN216085   2.461   4.467   6.896  0.4987  0.0602 -0.3515
  147SAPE   HN316086   2.474   4.616   6.807  0.2649  1.4679  2.7583
  147SAPE   C1216087   2.336   4.467   6.727  0.2033 -0.2636 -0.6795
  147SAPE  H12A16088   2.300   4.541   6.653 -1.5582 -2.4114 -2.1064
  147SAPE  H12B16089   2.242   4.427   6.769  1.0106 -1.2209  0.2887
  147SAPE   C1116090   2.420   4.359   6.651  0.3158  0.2778  0.2498
  147SAPE  H11A16091   2.510   4.406   6.606  1.0981  0.5616  2.0262
  147SAPE  H11B16092   2.370   4.324   6.558  0.4219 -2.9663  1.2611
  147SAPE     P16093   2.591   4.221   6.796  0.2178 -0.3734  0.0666
  147SAPE   O1316094   2.613   4.339   6.874 -0.4862 -0.1082 -0.6140
  147SAPE   O1416095   2.591   4.094   6.871  0.2519  0.0556 -0.6055
  147SAPE   O1216096   2.453   4.237   6.726 -0.5933 -0.9767  0.1455
  147SAPE   O1116097   2.688   4.211   6.677 -0.0408 -0.6488  0.2694
  147SAPE    C116098   2.648   4.132   6.565 -0.6393  0.2465 -0.3277
  147SAPE    HA16099   2.566   4.060   6.586  0.8812 -1.1370  1.0556
  147SAPE    HB16100   2.593   4.193   6.489 -0.0376  2.4515  0.9259
  147SAPE    C216101   2.772   4.043   6.522 -0.3792 -0.9874 -0.1423
  147SAPE    HS16102   2.824   3.998   6.609  0.4081  1.2632  0.6325
  147SAPE   O2116103   2.864   4.145   6.468 -0.2541  0.4441 -0.0333
  147SAPE   C2116104   2.987   4.107   6.444  0.7545  0.3685  0.1413
  147SAPE   O2216105   3.037   4.001   6.481 -0.4091  0.2069 -0.3810
  147SAPE   C2216106   3.057   4.212   6.365 -0.3212 -0.4033 -0.2409
  147SAPE   H2R16107   2.988   4.284   6.316 -0.0532 -1.0906 -1.6817
  147SAPE   H2S16108   3.126   4.271   6.429  2.2032 -3.5055  0.1399
  147SAPE    C316109   2.735   3.925   6.422 -0.3102 -0.2052  0.1669
  147SAPE    HX16110   2.664   3.873   6.490  1.1221  0.4873  2.3000
  147SAPE    HY16111   2.828   3.868   6.399  0.3502  0.6978  0.5110
  147SAPE   O3116112   2.658   3.985   6.311 -0.0182  0.2044  0.3238
  147SAPE   C3116113   2.611   3.879   6.243 -0.0075  0.0521  0.1681
  147SAPE   O3216114   2.635   3.761   6.266  0.0492  0.1976 -0.3390
  147SAPE   C3216115   2.533   3.937   6.123  0.4087 -0.8063 -0.9690
  147SAPE   H2X16116   2.608   3.986   6.058 -0.3836  1.3412 -0.3501
  147SAPE   H2Y16117   2.470   4.017   6.167  1.1435 -0.6928 -0.1011
  147SAPE   C2316118   3.132   4.152   6.241  0.5846 -0.3176  0.4256
  147SAPE   H3R16119   3.199   4.066   6.259  0.0421 -0.4863  1.7710
  147SAPE   H3S16120   3.188   4.240   6.201 -2.5916  1.2814 -0.9134
  147SAPE   C2416121   3.017   4.113   6.140 -0.4246 -0.5591 -0.1628
  147SAPE   H4R16122   2.941   4.194   6.133 -2.1913 -2.1331 -0.0576
  147SAPE   H4S16123   2.968   4.030   6.195  1.2034 -0.2382  1.9030
  147SAPE   C2516124   3.100   4.086   6.013 -0.5297 -0.6993 -0.1090
  147SAPE   H5R16125   3.208   4.103   6.028 -0.5108 -1.3355  0.6020
  147SAPE   C2616126   3.047   4.036   5.899 -0.8803  0.0066 -0.1112
  147SAPE   H6R16127   3.107   4.021   5.808 -2.9102 -0.5569 -1.3998
  147SAPE   C2716128   2.903   4.003   5.883 -0.2439  0.1597  0.4209
  147SAPE   H7R16129   2.860   4.048   5.791 -2.6273 -0.6596  1.0622
  147SAPE   H7S16130   2.845   4.063   5.956  2.8513 -0.9506  4.1854
  147SAPE   C2816131   2.880   3.855   5.904 -1.1006  0.3932  0.2341
  147SAPE   H8R16132   2.921   3.823   6.001 -1.6642  1.9175  1.0138
  147SAPE   C2916133   2.843   3.766   5.806  0.8484 -0.2050 -0.3090
  147SAPE   H9R16134   2.835   3.660   5.834  0.3964 -0.1230 -0.1055
  147SAPE  C21016135   2.809   3.804   5.662 -0.7112 -0.3382  0.4376
  147SAPE  H10R16136   2.817   3.913   5.646  1.9334 -0.4065  0.9724
  147SAPE  H10S16137   2.706   3.764   5.646  0.4155 -3.4100  0.2638
  147SAPE  C21116138   2.906   3.731   5.579 -0.7888 -0.2438  0.2260
  147SAPE  H11R16139   2.999   3.697   5.627 -0.1384 -0.5671 -1.1912
  147SAPE  C21216140   2.892   3.717   5.442  0.4293  0.0301  0.5105
  147SAPE  H12R16141   2.968   3.672   5.378  1.3774  1.5171  0.5426
  147SAPE  C21316142   2.771   3.768   5.365  0.0584 -0.1948 -0.2418
  147SAPE  H13R16143   2.681   3.725   5.414  0.4884 -2.7419 -1.5404
  147SAPE  H13S16144   2.768   3.714   5.268  1.3060 -2.2650  0.8030
  147SAPE  C21416145   2.753   3.922   5.341  0.0665 -0.5452 -0.3193
  147SAPE  H14R16146   2.681   3.967   5.411  1.9434 -1.1865  2.1499
  147SAPE  C21516147   2.791   3.991   5.229 -0.2139  0.2167  0.3455
  147SAPE  H15R16148   2.764   4.097   5.225 -0.5022  0.1024 -1.3008
  147SAPE  C21616149   2.865   3.948   5.103 -0.4103  0.1838 -0.1269
  147SAPE  H16R16150   2.924   3.862   5.141 -2.5593 -0.8671  0.9617
  147SAPE  H16S16151   2.937   4.031   5.084 -0.6866  0.2049 -1.1629
  147SAPE  C21716152   2.789   3.931   4.976  0.5813  0.5075 -0.1566
  147SAPE  H17R16153   2.734   3.835   4.988 -0.8275  1.3434  0.2685
  147SAPE  H17S16154   2.845   3.908   4.883 -2.0619 -0.2665 -1.6712
  147SAPE  C21816155   2.694   4.051   4.937  0.4208  0.6600  0.8114
  147SAPE  H18R16156   2.628   4.090   5.017 -0.8629  0.3967 -0.0864
  147SAPE  H18S16157   2.627   4.023   4.853 -0.6976  2.4219  1.0719
  147SAPE  C21916158   2.779   4.169   4.896 -0.7645  0.0005  0.6148
  147SAPE  H19R16159   2.857   4.129   4.827 -0.3532 -1.0023  1.6249
  147SAPE  H19S16160   2.833   4.213   4.982 -0.4621  0.3870  0.2318
  147SAPE  C22016161   2.697   4.279   4.819 -0.0322 -0.1647  0.3183
  147SAPE  H20R16162   2.770   4.355   4.785  1.7154 -1.0499  1.8779
  147SAPE  H20S16163   2.631   4.335   4.888  1.9315  0.4223  1.8147
  147SAPE  H20T16164   2.644   4.244   4.727  1.9855 -2.9491  0.0798
  147SAPE   C3316165   2.431   3.841   6.051 -0.3203  0.2782 -0.3178
  147SAPE   H3X16166   2.365   3.901   5.984 -0.3322  0.7865  0.1495
  147SAPE   H3Y16167   2.369   3.808   6.137  0.0303  0.5725  0.0521
  147SAPE   C3416168   2.503   3.734   5.980  0.2589 -0.4253  0.0704
  147SAPE   H4X16169   2.539   3.658   6.053 -0.6530 -1.3290 -0.4125
  147SAPE   H4Y16170   2.586   3.775   5.919 -1.2501 -0.9536 -2.4565
  147SAPE   C3516171   2.407   3.655   5.894 -0.0842  0.2666  0.1208
  147SAPE   H5X16172   2.386   3.728   5.812 -2.3781 -1.2225 -0.7184
  147SAPE   H5Y16173   2.330   3.612   5.960  1.9175 -3.9220  0.0897
  147SAPE   C3616174   2.481   3.540   5.820 -1.2522  0.7464  0.1894
  147SAPE   H6X16175   2.570   3.508   5.879 -2.6208 -1.1637  1.3456
  147SAPE   H6Y16176   2.517   3.585   5.725 -0.1283 -0.2185  0.1431
  147SAPE   C3716177   2.387   3.420   5.803 -0.0222  0.4645  0.6043
  147SAPE   H7X16178   2.288   3.460   5.774 -0.6556 -1.7607 -0.4436
  147SAPE   H7Y16179   2.379   3.380   5.907 -0.3019  0.3256  0.5299
  147SAPE   C3816180   2.432   3.302   5.712  0.2339  0.0620  0.8494
  147SAPE   H8X16181   2.356   3.222   5.698  1.4893 -1.1836  0.8686
  147SAPE   H8Y16182   2.510   3.245   5.767  0.2696 -0.6939  0.0232
  147SAPE   C3916183   2.495   3.343   5.576 -1.2311  0.1626  0.2435
  147SAPE   H9X16184   2.592   3.392   5.598 -1.2390  0.5612 -0.5661
  147SAPE   H9Y16185   2.439   3.420   5.519 -1.3418  0.3158  0.5587
  147SAPE  C31016186   2.524   3.217   5.488 -0.3855 -0.7632  0.8831
  147SAPE  H10X16187   2.423   3.173   5.474 -0.4722 -1.2586  2.8660
  147SAPE  H10Y16188   2.589   3.140   5.533  0.0209 -2.4443 -2.3015
  147SAPE  C31116189   2.575   3.259   5.341  0.0063  0.1004  0.2322
  147SAPE  H11X16190   2.675   3.304   5.358 -1.1855  3.0706 -0.0353
  147SAPE  H11Y16191   2.510   3.341   5.303 -1.8026 -0.6242  1.5911
  147SAPE  C31216192   2.586   3.144   5.242 -0.0030 -0.1885 -0.4267
  147SAPE  H12X16193   2.489   3.090   5.241  0.1660 -0.4854 -1.5081
  147SAPE  H12Y16194   2.657   3.068   5.280  1.0594  0.4732 -1.0307
  147SAPE  C31316195   2.624   3.182   5.098  0.2169  0.2721  0.2409
  147SAPE  H13X16196   2.732   3.206   5.106  0.2644  0.7479 -1.5530
  147SAPE  H13Y16197   2.579   3.279   5.067  1.1213  0.5841 -0.1201
  147SAPE  C31416198   2.580   3.071   5.001 -0.0239  0.6016 -0.1217
  147SAPE  H14X16199   2.471   3.051   5.005  0.0848 -0.2064 -0.7968
  147SAPE  H14Y16200   2.634   2.980   5.035  0.0203  0.9929  0.8578
  147SAPE  C31516201   2.620   3.094   4.853 -0.5314 -0.5188  0.4249
  147SAPE  H15X16202   2.710   3.159   4.847 -0.8792 -0.1336 -0.7743
  147SAPE  H15Y16203   2.541   3.156   4.806 -0.3434 -1.3718 -1.0872
  147SAPE  C31616204   2.636   2.966   4.771 -0.3529  0.3774 -0.1329
  147SAPE  H16X16205   2.549   2.899   4.782 -1.5347  1.6497 -1.4505
  147SAPE  H16Y16206   2.719   2.905   4.814 -0.1577  0.5048 -0.3289
  147SAPE  C31716207   2.672   2.989   4.629  0.4015  0.3219 -0.4368
  147SAPE  H17X16208   2.676   2.887   4.587  0.3043  0.5921 -1.1116
  147SAPE  H17Y16209   2.771   3.038   4.624 -1.0998  3.5829 -1.2459
  147SAPE  C31816210   2.567   3.072   4.545 -0.0224 -0.5997  0.6344
  147SAPE  H18X16211   2.462   3.059   4.577 -0.0347  1.5546  1.6422
  147SAPE  H18Y16212   2.581   3.059   4.436 -1.9889 -1.8709  0.4978
  147SAPE  H18Z16213   2.581   3.180   4.569  1.8461 -0.5611 -0.4281
  148SAPE     N16214   0.309   5.562   6.791  0.3397  0.1336  0.7329
  148SAPE   HN116215   0.331   5.662   6.807  0.7835  0.0234  0.8225
  148SAPE   HN216216   0.372   5.516   6.860  2.3300  2.0479  0.2754
  148SAPE   HN316217   0.342   5.541   6.695 -0.7773 -0.3146  0.4323
  148SAPE   C1216218   0.164   5.529   6.806 -0.0779  0.0422  0.2561
  148SAPE  H12A16219   0.165   5.418   6.808  1.2900 -0.3008 -4.6097
  148SAPE  H12B16220   0.110   5.563   6.714  1.4450  0.4447 -0.5173
  148SAPE   C1116221   0.106   5.574   6.939  0.0447 -0.2844 -0.2370
  148SAPE  H11A16222   0.172   5.544   7.023  1.5261  0.9056 -0.9263
  148SAPE  H11B16223   0.013   5.516   6.958  0.1964 -1.0834 -1.8273
  148SAPE     P16224  -0.066   5.765   6.982  0.0167 -0.0556  0.3058
  148SAPE   O1316225  -0.104   5.711   7.113 -0.9467  0.3851 -0.0383
  148SAPE   O1416226  -0.084   5.910   6.956 -0.1109 -0.2372  0.1083
  148SAPE   O1216227   0.081   5.712   6.949  0.2087 -0.7617 -0.5449
  148SAPE   O1116228  -0.149   5.697   6.864 -0.4405  0.4479 -0.1020
  148SAPE    C116229  -0.289   5.665   6.878 -0.2770  0.3939 -0.0098
  148SAPE    HA16230  -0.301   5.556   6.898  1.3577 -0.1769 -1.8020
  148SAPE    HB16231  -0.330   5.720   6.965 -0.3909  0.2063  0.0563
  148SAPE    C216232  -0.374   5.696   6.749 -0.0562  0.1284  0.6091
  148SAPE    HS16233  -0.469   5.643   6.771  0.9295 -1.0569  2.2961
  148SAPE   O2116234  -0.316   5.641   6.629  0.4556  0.2683 -0.3278
  148SAPE   C2116235  -0.320   5.512   6.616 -0.8034 -0.3567 -0.0110
  148SAPE   O2216236  -0.378   5.432   6.685  0.6105  0.1470 -0.6295
  148SAPE   C2216237  -0.238   5.467   6.493  0.2304 -0.0078  0.5804
  148SAPE   H2R16238  -0.209   5.555   6.431  0.8272  1.6576  3.0965
  148SAPE   H2S16239  -0.155   5.400   6.526 -0.0646 -0.6882 -0.0172
  148SAPE    C316240  -0.405   5.848   6.722 -0.2042 -0.3439 -0.4984
  148SAPE    HX16241  -0.321   5.887   6.661 -0.5898 -0.1700 -0.9244
  148SAPE    HY16242  -0.399   5.896   6.822  1.3502  0.2307 -0.8424
  148SAPE   O3116243  -0.538   5.849   6.674  0.3485 -0.4031 -0.3648
  148SAPE   C3116244  -0.553   5.855   6.541  0.3891  0.4041  0.0152
  148SAPE   O3216245  -0.463   5.862   6.462 -0.3841  0.4664  0.5219
  148SAPE   C3216246  -0.701   5.839   6.493 -0.2186 -1.2186 -0.0662
  148SAPE   H2X16247  -0.769   5.880   6.571 -1.7691  0.0794 -2.0095
  148SAPE   H2Y16248  -0.710   5.728   6.491  1.2517 -1.4235  1.6475
  148SAPE   C2316249  -0.331   5.373   6.405  0.3384 -0.4799  0.3228
  148SAPE   H3R16250  -0.345   5.277   6.460 -1.0179 -0.3483  0.2201
  148SAPE   H3S16251  -0.281   5.352   6.308 -1.1122  2.9610 -1.3094
  148SAPE   C2416252  -0.466   5.430   6.376 -0.6960  0.6603 -0.1682
  148SAPE   H4R16253  -0.532   5.453   6.462 -3.1041 -1.2442 -1.3823
  148SAPE   H4S16254  -0.522   5.352   6.320 -1.4384  0.3773  0.9282
  148SAPE   C2516255  -0.459   5.551   6.296 -0.3386 -0.1080  0.2278
  148SAPE   H5R16256  -0.400   5.630   6.345 -0.8538  0.1402  0.4499
  148SAPE   C2616257  -0.519   5.585   6.180  0.0149  0.7139 -0.6106
  148SAPE   H6R16258  -0.490   5.680   6.132  0.2842  0.1352 -1.6266
  148SAPE   C2716259  -0.602   5.489   6.093 -0.0482  0.5575 -0.1483
  148SAPE   H7R16260  -0.654   5.407   6.147 -3.8815  2.0416 -1.2386
  148SAPE   H7S16261  -0.538   5.428   6.024  0.1611 -2.4542  2.4559
  148SAPE   C2816262  -0.709   5.564   6.021  0.3571  0.6985  0.5088
  148SAPE   H8R16263  -0.771   5.620   6.093 -1.4674 -0.6742  0.0708
  148SAPE   C2916264  -0.713   5.604   5.888  0.9705  0.8794  0.1674
  148SAPE   H9R16265  -0.794   5.666   5.847  1.3184  0.3476 -1.3714
  148SAPE  C21016266  -0.629   5.535   5.776  0.6216 -0.2186 -0.2443
  148SAPE  H10R16267  -0.693   5.502   5.691 -2.0276  0.6315  1.3188
  148SAPE  H10S16268  -0.588   5.448   5.831  0.4149  0.3211  0.7835
  148SAPE  C21116269  -0.515   5.614   5.728 -0.6384 -0.9617 -1.1205
  148SAPE  H11R16270  -0.465   5.669   5.809 -1.0139 -2.7812  0.4311
  148SAPE  C21216271  -0.459   5.612   5.612  0.1050 -0.4021  0.0954
  148SAPE  H12R16272  -0.374   5.678   5.591 -0.8369  1.2309  1.1386
  148SAPE  C21316273  -0.508   5.547   5.483  0.6862  0.6117  0.0181
  148SAPE  H13R16274  -0.557   5.453   5.515 -0.9526  1.5163  0.2502
  148SAPE  H13S16275  -0.418   5.522   5.423  0.1576  0.3523 -0.6765
  148SAPE  C21416276  -0.606   5.635   5.407 -0.6663  0.2554 -0.0782
  148SAPE  H14R16277  -0.703   5.654   5.456 -0.7804 -1.8340  0.6057
  148SAPE  C21516278  -0.587   5.678   5.276  0.2931 -0.2493 -0.3094
  148SAPE  H15R16279  -0.670   5.734   5.231  0.9936  2.3453  1.3689
  148SAPE  C21616280  -0.462   5.662   5.189 -0.0404  0.0770  0.1092
  148SAPE  H16R16281  -0.376   5.612   5.238 -0.1370 -2.4949 -2.1017
  148SAPE  H16S16282  -0.438   5.760   5.141 -3.7450  0.7562 -0.6567
  148SAPE  C21716283  -0.498   5.555   5.076 -0.3352  0.7002  1.2423
  148SAPE  H17R16284  -0.576   5.605   5.014 -1.4719 -0.8619  1.3516
  148SAPE  H17S16285  -0.531   5.459   5.120 -0.3766 -0.4321 -1.0908
  148SAPE  C21816286  -0.384   5.526   4.975 -0.2348  0.3301 -0.5362
  148SAPE  H18R16287  -0.292   5.505   5.034  0.8319 -2.4732 -2.9653
  148SAPE  H18S16288  -0.377   5.623   4.922 -1.4881  0.7905  0.0790
  148SAPE  C21916289  -0.412   5.411   4.876  0.0792 -1.2643 -0.4797
  148SAPE  H19R16290  -0.442   5.330   4.945  1.7397  1.4282  3.7790
  148SAPE  H19S16291  -0.319   5.400   4.816  1.0301  4.0201 -0.4349
  148SAPE  C22016292  -0.523   5.431   4.779 -0.1965 -0.0118 -0.4440
  148SAPE  H20R16293  -0.621   5.427   4.832  1.8174  1.4432  3.8817
  148SAPE  H20S16294  -0.520   5.360   4.694 -0.9040  0.3333 -0.7627
  148SAPE  H20T16295  -0.500   5.532   4.739  1.1157 -0.7358 -1.6125
  148SAPE   C3316296  -0.737   5.888   6.350  0.0067 -0.2693  0.3798
  148SAPE   H3X16297  -0.673   5.826   6.283  1.1842  0.0103  1.2268
  148SAPE   H3Y16298  -0.691   5.987   6.330  1.6279 -0.3341  3.2809
  148SAPE   C3416299  -0.880   5.879   6.314  0.1008  0.4958  1.1253
  148SAPE   H4X16300  -0.948   5.952   6.363 -0.1968  1.0828 -0.1252
  148SAPE   H4Y16301  -0.914   5.776   6.338  0.9221 -0.6541 -2.1427
  148SAPE   C3516302  -0.906   5.889   6.162 -0.3332  0.4918  0.0940
  148SAPE   H5X16303  -0.821   5.839   6.110 -1.2817 -0.4232 -0.6246
  148SAPE   H5Y16304  -0.916   5.994   6.126  0.2379  0.3908 -0.3828
  148SAPE   C3616305  -1.033   5.819   6.114 -0.3941  0.0873 -0.3842
  148SAPE   H6X16306  -1.123   5.849   6.172 -0.7108 -0.5923 -0.5135
  148SAPE   H6Y16307  -1.018   5.711   6.138  1.6104  1.0326  3.5953
  148SAPE   C3716308  -1.064   5.846   5.968 -0.1426 -0.3377  1.2605
  148SAPE   H7X16309  -0.989   5.802   5.899 -0.8753  1.5114 -0.8816
  148SAPE   H7Y16310  -1.053   5.956   5.955  0.2986 -0.4459  0.6863
  148SAPE   C3816311  -1.203   5.805   5.927 -0.3347  0.2154  0.1971
  148SAPE   H8X16312  -1.266   5.828   6.015  1.1525 -1.4071  1.7809
  148SAPE   H8Y16313  -1.207   5.695   5.907 -0.8209  0.4238 -0.9516
  148SAPE   C3916314  -1.247   5.866   5.791  0.3877 -0.1751 -0.0281
  148SAPE   H9X16315  -1.259   5.976   5.798  0.8272 -0.1349  0.1728
  148SAPE   H9Y16316  -1.341   5.815   5.761  0.6725 -1.3501  0.9921
  148SAPE  C31016317  -1.142   5.842   5.681  0.0169  0.1540  0.6239
  148SAPE  H10X16318  -1.082   5.749   5.685  2.4054  1.6146  0.7603
  148SAPE  H10Y16319  -1.053   5.909   5.687 -0.1237  0.5416 -1.0802
  148SAPE  C31116320  -1.205   5.857   5.536 -0.2528 -0.6729 -0.1729
  148SAPE  H11X16321  -1.251   5.957   5.519 -0.1951 -0.4013  1.1210
  148SAPE  H11Y16322  -1.292   5.789   5.544 -0.7389 -0.0287  0.1400
  148SAPE  C31216323  -1.123   5.831   5.412  0.6329  0.4622  0.2439
  148SAPE  H12X16324  -1.188   5.795   5.330  3.7449 -0.6520 -1.9325
  148SAPE  H12Y16325  -1.045   5.754   5.432 -0.2987 -1.0644 -1.6981
  148SAPE  C31316326  -1.047   5.954   5.360  0.2832  0.1551 -0.2705
  148SAPE  H13X16327  -1.021   6.009   5.452 -1.4470  1.6284 -0.6080
  148SAPE  H13Y16328  -1.102   6.028   5.298  0.8869  0.1239 -0.8482
  148SAPE  C31416329  -0.923   5.927   5.269  0.1329 -0.5666 -0.0227
  148SAPE  H14X16330  -0.862   5.846   5.312  2.0040  0.1336 -1.2294
  148SAPE  H14Y16331  -0.859   6.014   5.296 -0.0832  0.0041 -1.2335
  148SAPE  C31516332  -0.945   5.903   5.121 -0.2739 -0.0101 -1.0748
  148SAPE  H15X16333  -0.842   5.900   5.080  0.0106  2.8725 -0.8032
  148SAPE  H15Y16334  -0.990   5.996   5.080 -1.0334  0.3259  0.4453
  148SAPE  C31616335  -1.036   5.787   5.074 -0.1950  0.0454 -0.7202
  148SAPE  H16X16336  -1.137   5.807   5.115  0.9602  0.5249  2.1079
  148SAPE  H16Y16337  -0.996   5.704   5.136 -3.7543 -1.9834 -0.8601
  148SAPE  C31716338  -1.038   5.768   4.919 -0.5172 -0.2316 -0.2519
  148SAPE  H17X16339  -1.094   5.677   4.890  0.4855 -1.0043  0.1786
  148SAPE  H17Y16340  -0.930   5.747   4.905 -0.0556  1.1764  0.8417
  148SAPE  C31816341  -1.079   5.899   4.844  0.6255  0.0837  0.3441
  148SAPE  H18X16342  -1.187   5.915   4.864  0.8521  1.0369  0.8690
  148SAPE  H18Y16343  -1.066   5.885   4.735 -2.2333  3.4722 -0.6061
  148SAPE  H18Z16344  -1.027   5.994   4.871 -1.7302  1.9842 -1.4346
  149SAPE     N16345   0.295   1.450   6.721 -0.3307 -0.1138 -0.1451
  149SAPE   HN116346   0.362   1.470   6.644  0.6506 -2.2542  0.0934
  149SAPE   HN216347   0.206   1.412   6.682 -1.9505 -1.3462  4.1774
  149SAPE   HN316348   0.270   1.536   6.774 -1.3783 -1.3849  1.5420
  149SAPE   C1216349   0.349   1.358   6.822 -0.4747  0.1612 -0.5110
  149SAPE  H12A16350   0.276   1.335   6.902  2.5146  0.1765  2.4516
  149SAPE  H12B16351   0.437   1.407   6.870  0.9927 -0.2105 -2.6864
  149SAPE   C1116352   0.384   1.234   6.745  0.4200 -0.3643  0.0431
  149SAPE  H11A16353   0.286   1.188   6.719 -1.0088  2.8533 -0.7001
  149SAPE  H11B16354   0.443   1.163   6.808  0.5337  1.2360  1.8454
  149SAPE     P16355   0.466   1.150   6.517 -0.2990  0.5323 -0.1379
  149SAPE   O1316356   0.572   1.172   6.420 -0.1366 -0.5214  0.4819
  149SAPE   O1416357   0.463   1.017   6.585  0.4475 -0.2560  0.5292
  149SAPE   O1216358   0.459   1.265   6.621 -0.1515  0.5853 -0.3825
  149SAPE   O1116359   0.321   1.170   6.450  0.1715  0.2268  0.3856
  149SAPE    C116360   0.282   1.063   6.354  0.0362 -0.5447 -0.1420
  149SAPE    HA16361   0.304   0.964   6.399 -0.0021 -0.0373  1.0337
  149SAPE    HB16362   0.174   1.074   6.330 -0.0670  0.5869  0.7141
  149SAPE    C216363   0.348   1.078   6.214  0.8838  0.1354 -0.3916
  149SAPE    HS16364   0.456   1.103   6.228  1.6962 -0.8605 -3.9024
  149SAPE   O2116365   0.270   1.179   6.146 -0.0541 -0.0158 -0.2088
  149SAPE   C2116366   0.341   1.244   6.053 -0.4979 -0.4303  0.5284
  149SAPE   O2216367   0.458   1.233   6.029 -0.5374  0.8439 -0.4534
  149SAPE   C2216368   0.245   1.345   5.982  0.0747 -0.5259 -0.3837
  149SAPE   H2R16369   0.154   1.346   6.046  1.6097 -1.7697  1.9421
  149SAPE   H2S16370   0.293   1.444   5.998  0.2168 -0.8303  1.2209
  149SAPE    C316371   0.335   0.937   6.143 -0.0122  0.1236  0.1529
  149SAPE    HX16372   0.226   0.918   6.132 -0.6638  3.2633  0.0049
  149SAPE    HY16373   0.373   0.852   6.203 -2.3338 -0.9806  0.1775
  149SAPE   O3116374   0.391   0.932   6.010  0.1407 -0.2807 -0.1031
  149SAPE   C3116375   0.533   0.926   6.015  0.3526  0.5004 -0.7500
  149SAPE   O3216376   0.600   0.919   6.118  0.0070 -0.4348  0.5199
  149SAPE   C3216377   0.587   0.898   5.877 -0.4633 -0.6656  0.4296
  149SAPE   H2X16378   0.550   0.978   5.809  0.1407  1.0814  2.0640
  149SAPE   H2Y16379   0.539   0.807   5.834  0.1082 -0.2634 -1.1226
  149SAPE   C2316380   0.210   1.320   5.835  0.1686 -0.1967 -0.4086
  149SAPE   H3R16381   0.104   1.355   5.831 -0.0611 -0.9135 -0.7727
  149SAPE   H3S16382   0.209   1.210   5.817  1.0554 -0.5962  1.6415
  149SAPE   C2416383   0.294   1.403   5.730 -0.2334 -0.0019 -0.0436
  149SAPE   H4R16384   0.292   1.512   5.751  0.2818  0.1293 -0.6570
  149SAPE   H4S16385   0.242   1.395   5.633 -0.2965  2.4977 -0.2841
  149SAPE   C2516386   0.436   1.349   5.722  0.6303  0.1190 -0.5882
  149SAPE   H5R16387   0.477   1.321   5.821  0.6494  2.4927  0.1343
  149SAPE   C2616388   0.485   1.313   5.602 -0.6200 -0.4263 -0.1265
  149SAPE   H6R16389   0.591   1.285   5.612 -0.4332 -0.8280 -2.5034
  149SAPE   C2716390   0.438   1.377   5.472  0.2077 -0.0600 -0.4546
  149SAPE   H7R16391   0.526   1.419   5.419  0.5935  0.3832  0.5095
  149SAPE   H7S16392   0.374   1.468   5.476  1.9115  1.1421  0.4828
  149SAPE   C2816393   0.390   1.267   5.383  0.2707 -0.0022 -0.1053
  149SAPE   H8R16394   0.427   1.166   5.404  0.8085 -0.0821 -1.3659
  149SAPE   C2916395   0.307   1.278   5.272 -0.0975  0.9591 -0.1206
  149SAPE   H9R16396   0.293   1.194   5.202 -1.8298  2.6421 -1.9406
  149SAPE  C21016397   0.273   1.412   5.209  0.3120 -0.1118  0.3348
  149SAPE  H10R16398   0.231   1.382   5.111  2.6277  4.3482 -2.3123
  149SAPE  H10S16399   0.366   1.471   5.201  0.4473  0.2556  3.3000
  149SAPE  C21116400   0.175   1.505   5.285  0.2404  0.0606 -0.1611
  149SAPE  H11R16401   0.129   1.462   5.376  0.1110  1.7161  0.5968
  149SAPE  C21216402   0.139   1.627   5.253 -0.0175 -1.2195  0.2147
  149SAPE  H12R16403   0.073   1.683   5.320  0.5714 -0.4228  0.1370
  149SAPE  C21316404   0.189   1.709   5.135 -0.5949  0.7286  0.0071
  149SAPE  H13R16405   0.235   1.637   5.063  0.1297  1.1384  0.0581
  149SAPE  H13S16406   0.275   1.769   5.169 -1.2009  1.3607  0.4484
  149SAPE  C21416407   0.094   1.792   5.048  0.2128 -0.8822 -0.5218
  149SAPE  H14R16408   0.038   1.739   4.970  0.3887  1.3553 -2.2616
  149SAPE  C21516409   0.075   1.924   5.050  0.0288 -0.1165  0.0166
  149SAPE  H15R16410   0.009   1.957   4.968 -1.7287  0.4687  1.6093
  149SAPE  C21616411   0.133   2.026   5.132 -0.1123  0.3994 -0.2324
  149SAPE  H16R16412   0.165   2.109   5.066 -0.6294 -0.9607 -2.3012
  149SAPE  H16S16413   0.228   1.997   5.181  0.9882  0.5435 -2.2068
  149SAPE  C21716414   0.042   2.088   5.241  0.3907 -0.1029 -0.3202
  149SAPE  H17R16415  -0.045   2.144   5.202  0.0507 -0.8143 -0.6008
  149SAPE  H17S16416   0.102   2.164   5.296  1.2596 -1.3844  0.5522
  149SAPE  C21816417  -0.023   1.988   5.343  0.2225 -0.4697 -0.1778
  149SAPE  H18R16418   0.052   1.918   5.386 -0.2861 -0.4461  0.7561
  149SAPE  H18S16419  -0.096   1.924   5.289  0.6272  0.1627 -1.5255
  149SAPE  C21916420  -0.097   2.051   5.463  0.3375  0.5930 -0.4294
  149SAPE  H19R16421  -0.195   2.090   5.426 -0.8792 -0.9455  1.0131
  149SAPE  H19S16422  -0.033   2.130   5.508  1.5381 -0.1180 -0.8512
  149SAPE  C22016423  -0.120   1.944   5.573  0.0491 -0.3328  0.7694
  149SAPE  H20R16424  -0.026   1.888   5.591  0.9438  0.9304  0.2313
  149SAPE  H20S16425  -0.193   1.872   5.530 -1.2328  1.8853 -1.0171
  149SAPE  H20T16426  -0.159   1.979   5.671  1.0004  2.1508  0.3235
  149SAPE   C3316427   0.740   0.891   5.877 -0.5070  0.3085  0.1900
  149SAPE   H3X16428   0.775   0.807   5.941  1.8733  0.7907 -0.4009
  149SAPE   H3Y16429   0.786   0.986   5.911  0.5802 -0.0553 -0.2390
  149SAPE   C3416430   0.787   0.869   5.733  0.3960 -0.1847 -0.3187
  149SAPE   H4X16431   0.745   0.782   5.678  0.8415  0.0122 -0.9885
  149SAPE   H4Y16432   0.897   0.849   5.732  0.1904 -1.4922  0.5057
  149SAPE   C3516433   0.769   0.998   5.648 -0.2716  0.0539  0.3369
  149SAPE   H5X16434   0.824   1.080   5.699 -1.5266  0.8625  0.4329
  149SAPE   H5Y16435   0.664   1.035   5.644 -0.0761  1.0969  2.8405
  149SAPE   C3616436   0.834   0.987   5.512  0.6583 -0.3862  0.1228
  149SAPE   H6X16437   0.932   0.935   5.512 -0.0995 -1.8729  1.1244
  149SAPE   H6Y16438   0.843   1.088   5.466 -0.8162 -0.2324  0.1241
  149SAPE   C3716439   0.751   0.910   5.409  0.3183 -0.7906 -0.1325
  149SAPE   H7X16440   0.642   0.929   5.420 -0.1704 -1.3564 -3.0496
  149SAPE   H7Y16441   0.767   0.800   5.418  0.9467 -0.7611 -0.7313
  149SAPE   C3816442   0.801   0.944   5.264  0.1484  0.5779  0.0353
  149SAPE   H8X16443   0.912   0.946   5.270  0.2155 -2.0778  0.9677
  149SAPE   H8Y16444   0.773   1.050   5.245 -3.4708 -0.4346 -1.0256
  149SAPE   C3916445   0.740   0.858   5.156  0.7076 -0.0930 -0.5094
  149SAPE   H9X16446   0.629   0.862   5.150  0.6303  1.0947  1.1100
  149SAPE   H9Y16447   0.761   0.754   5.189 -2.4253 -1.0030 -0.9917
  149SAPE  C31016448   0.782   0.897   5.018  0.4393 -0.1005  0.6978
  149SAPE  H10X16449   0.711   0.847   4.948 -0.8931  0.3824  1.6691
  149SAPE  H10Y16450   0.882   0.854   4.995 -0.0534 -1.6322  1.2486
  149SAPE  C31116451   0.771   1.043   4.971  0.6925  0.0840  0.8684
  149SAPE  H11X16452   0.874   1.085   4.983  0.5049  1.5899 -1.8646
  149SAPE  H11Y16453   0.697   1.098   5.033 -1.3742 -1.2135 -0.3291
  149SAPE  C31216454   0.737   1.045   4.823  0.3692 -0.1396 -0.4757
  149SAPE  H12X16455   0.629   1.020   4.810  0.0028  1.0083  0.2372
  149SAPE  H12Y16456   0.793   0.977   4.756 -0.0546  0.5422 -1.5495
  149SAPE  C31316457   0.755   1.183   4.758 -0.4037 -0.2781  0.0718
  149SAPE  H13X16458   0.703   1.266   4.811 -0.2246  1.8683 -2.8283
  149SAPE  H13Y16459   0.693   1.174   4.666 -0.9135 -0.5526  0.4449
  149SAPE  C31416460   0.905   1.208   4.727  0.0987  0.5503  0.0329
  149SAPE  H14X16461   0.956   1.133   4.662  2.3914  2.2045 -0.1832
  149SAPE  H14Y16462   0.956   1.230   4.823  0.4711  0.1117 -0.0576
  149SAPE  C31516463   0.924   1.339   4.653 -0.5852 -0.3007 -0.6428
  149SAPE  H15X16464   1.032   1.361   4.664 -0.9081  0.4836  1.2289
  149SAPE  H15Y16465   0.872   1.417   4.712  1.9688  0.1549  1.1616
  149SAPE  C31616466   0.902   1.339   4.503  0.0644 -0.0688  0.3047
  149SAPE  H16X16467   0.832   1.256   4.476  0.6999 -1.0657  1.5859
  149SAPE  H16Y16468   1.000   1.312   4.459  0.2269 -0.2539  0.7729
  149SAPE  C31716469   0.856   1.475   4.439  0.2295 -0.0477  0.1414
  149SAPE  H17X16470   0.867   1.471   4.328  0.8444  0.0024  0.1991
  149SAPE  H17Y16471   0.926   1.556   4.468  1.0563 -0.9919  0.8393
  149SAPE  C31816472   0.709   1.504   4.476  0.7470 -0.0809 -0.3932
  149SAPE  H18X16473   0.698   1.517   4.586  0.2484  0.5337 -0.5134
  149SAPE  H18Y16474   0.643   1.418   4.449  0.1621  0.2437 -0.0331
  149SAPE  H18Z16475   0.666   1.594   4.427 -0.0041 -0.3981 -0.3444
  150SAPE     N16476   3.574   1.314   6.841  0.8508  0.0483  0.1018
  150SAPE   HN116477   3.603   1.272   6.750 -0.1764  0.9625 -0.6773
  150SAPE   HN216478   3.474   1.288   6.849  0.9822 -1.5287 -2.1731
  150SAPE   HN316479   3.584   1.417   6.825 -0.9843 -0.0419 -2.2825
  150SAPE   C1216480   3.644   1.273   6.972  0.1058 -0.4259  1.4371
  150SAPE  H12A16481   3.635   1.162   6.962  1.5882 -0.5426  1.1502
  150SAPE  H12B16482   3.590   1.319   7.058  0.8431 -0.2660  1.8161
  150SAPE   C1116483   3.795   1.326   6.968 -0.1677  0.4727 -0.3356
  150SAPE  H11A16484   3.843   1.275   6.882  0.1599 -0.7732  0.5559
  150SAPE  H11B16485   3.843   1.293   7.063 -2.8057  1.3472  1.4429
  150SAPE     P16486   3.940   1.540   6.950  0.0536  0.3317  0.1353
  150SAPE   O1316487   3.919   1.682   6.931  0.0198 -0.6093 -0.0353
  150SAPE   O1416488   4.028   1.495   7.059  0.1015  0.1728  0.3413
  150SAPE   O1216489   3.798   1.474   6.967 -0.1964  0.6207 -0.1620
  150SAPE   O1116490   3.996   1.475   6.814  0.1305  0.1514  0.1711
  150SAPE    C116491   3.943   1.530   6.689  0.9641 -0.1479 -0.6635
  150SAPE    HA16492   3.848   1.479   6.661  0.9617 -0.2795 -0.4222
  150SAPE    HB16493   3.942   1.641   6.694  1.0695 -0.1540 -0.5284
  150SAPE    C216494   4.040   1.510   6.580  0.5632 -0.2139 -0.5049
  150SAPE    HS16495   4.065   1.402   6.570  1.1563 -0.0358 -1.0230
  150SAPE   O2116496   4.158   1.588   6.611 -0.3457  0.8457 -0.4249
  150SAPE   C2116497   4.261   1.551   6.537  0.1401 -0.4206  0.3199
  150SAPE   O2216498   4.269   1.447   6.474 -0.2160 -0.5252 -0.1877
  150SAPE   C2216499   4.375   1.657   6.544  0.7329  0.4151  0.1892
  150SAPE   H2R16500   4.394   1.671   6.653  0.5595 -2.4289  0.6575
  150SAPE   H2S16501   4.465   1.614   6.495  0.1570 -0.0192 -0.4986
  150SAPE    C316502   3.983   1.565   6.445 -0.4274  0.0885 -1.2251
  150SAPE    HX16503   4.007   1.673   6.456  2.8858 -0.7808  2.0783
  150SAPE    HY16504   3.873   1.557   6.458 -0.5626  1.2219 -1.5108
  150SAPE   O3116505   4.040   1.506   6.327 -0.4722 -0.4583 -0.1776
  150SAPE   C3116506   3.988   1.381   6.301 -0.2681 -0.1095  0.1146
  150SAPE   O3216507   3.899   1.328   6.365  0.4775 -0.4533  0.1270
  150SAPE   C3216508   4.074   1.325   6.191  0.3342  0.4952  0.0844
  150SAPE   H2X16509   4.179   1.320   6.228 -0.2601 -0.6663  1.7206
  150SAPE   H2Y16510   4.071   1.399   6.109 -0.5195  0.3856  0.0170
  150SAPE   C2316511   4.334   1.791   6.480 -0.4495 -0.2701  0.4403
  150SAPE   H3R16512   4.405   1.870   6.513  0.0207 -0.9371  1.0532
  150SAPE   H3S16513   4.232   1.810   6.520  0.4304  0.0089  2.7175
  150SAPE   C2416514   4.344   1.777   6.322 -0.2717 -0.0933  0.6044
  150SAPE   H4R16515   4.301   1.681   6.285 -0.7416  0.1812  0.4367
  150SAPE   H4S16516   4.448   1.763   6.284 -1.0265  1.0717 -2.0932
  150SAPE   C2516517   4.288   1.902   6.247  0.8325 -0.1131 -0.5406
  150SAPE   H5R16518   4.353   1.989   6.259  1.4801  0.3396 -5.2889
  150SAPE   C2616519   4.175   1.923   6.179 -0.4151  0.3091 -0.0100
  150SAPE   H6R16520   4.138   2.021   6.146 -4.4522 -1.4456 -1.2784
  150SAPE   C2716521   4.072   1.817   6.152 -0.2378 -0.3317  0.1356
  150SAPE   H7R16522   4.108   1.723   6.199 -0.7414  0.2149  1.6683
  150SAPE   H7S16523   4.080   1.792   6.044  1.1159  0.2614  0.0733
  150SAPE   C2816524   3.928   1.845   6.191  0.1484  0.3198 -0.6360
  150SAPE   H8R16525   3.910   1.911   6.276 -1.7982 -0.1191 -0.6706
  150SAPE   C2916526   3.818   1.787   6.142  0.1033  0.4886  0.4453
  150SAPE   H9R16527   3.723   1.809   6.193 -1.5536 -3.5109 -0.4936
  150SAPE  C21016528   3.795   1.690   6.025 -0.5333 -0.8354  0.1207
  150SAPE  H10R16529   3.888   1.687   5.965 -1.2547 -0.8954 -1.0175
  150SAPE  H10S16530   3.723   1.736   5.954  0.3379  1.6776  0.7672
  150SAPE  C21116531   3.745   1.556   6.067 -0.8380 -0.3233  0.1038
  150SAPE  H11R16532   3.736   1.532   6.174 -1.3926 -0.4985  0.0234
  150SAPE  C21216533   3.719   1.456   5.972  0.2157  0.6033 -0.3259
  150SAPE  H12R16534   3.688   1.356   6.006  0.2703  0.1296 -1.6139
  150SAPE  C21316535   3.732   1.479   5.828  0.2397  0.0885 -0.1862
  150SAPE  H13R16536   3.831   1.523   5.803  0.5370 -0.0627  0.6779
  150SAPE  H13S16537   3.655   1.548   5.787 -0.4367  0.4180  1.5707
  150SAPE  C21416538   3.726   1.340   5.767  0.1721 -1.0601 -0.0285
  150SAPE  H14R16539   3.773   1.261   5.828  0.2599 -0.7424  0.3192
  150SAPE  C21516540   3.670   1.309   5.653  0.8956  0.1055  0.3957
  150SAPE  H15R16541   3.671   1.207   5.610 -0.5290 -0.1315  0.8798
  150SAPE  C21616542   3.611   1.414   5.560 -0.5310  0.1968  0.3614
  150SAPE  H16R16543   3.654   1.511   5.592  2.2023 -0.2541 -1.5713
  150SAPE  H16S16544   3.501   1.426   5.568 -0.5401  1.4958 -1.1779
  150SAPE  C21716545   3.664   1.384   5.417 -0.1726 -0.4158 -0.5247
  150SAPE  H17R16546   3.774   1.383   5.404 -0.0127 -2.1425  0.6156
  150SAPE  H17S16547   3.632   1.471   5.355 -0.8056  1.7728  2.6241
  150SAPE  C21816548   3.606   1.254   5.347 -0.1050  0.2413  0.2012
  150SAPE  H18R16549   3.509   1.283   5.302 -0.2521 -0.0880  0.3042
  150SAPE  H18S16550   3.583   1.179   5.425 -0.3433 -1.0248 -1.0428
  150SAPE  C21916551   3.692   1.190   5.229  1.0741 -0.0734  0.2355
  150SAPE  H19R16552   3.620   1.118   5.185 -0.6335  2.2325 -0.9825
  150SAPE  H19S16553   3.779   1.129   5.263  0.4117 -1.9434 -1.2422
  150SAPE  C22016554   3.742   1.276   5.124 -0.1871  0.0906  0.0325
  150SAPE  H20R16555   3.659   1.344   5.095 -0.4340 -0.6777 -1.1148
  150SAPE  H20S16556   3.785   1.227   5.034  1.4768  1.4203  0.0456
  150SAPE  H20T16557   3.831   1.329   5.165  0.8521 -1.8168  0.3688
  150SAPE   C3316558   4.012   1.183   6.158 -0.0412 -0.7796  0.2863
  150SAPE   H3X16559   3.910   1.186   6.113 -0.1890  1.2812  0.6152
  150SAPE   H3Y16560   3.999   1.123   6.251  2.7645 -1.8063  0.0924
  150SAPE   C3416561   4.111   1.096   6.077  0.4878 -0.3029 -0.3101
  150SAPE   H4X16562   4.056   1.006   6.042 -1.0668  1.7061 -3.5423
  150SAPE   H4Y16563   4.194   1.051   6.136  1.0604  0.5511 -0.4506
  150SAPE   C3516564   4.163   1.174   5.951  0.4356  0.6308 -0.5930
  150SAPE   H5X16565   4.242   1.246   5.981  2.3595 -1.6610  0.2470
  150SAPE   H5Y16566   4.076   1.228   5.909 -1.4653 -0.8059  1.2748
  150SAPE   C3616567   4.220   1.071   5.851 -0.8073 -0.2662  0.4424
  150SAPE   H6X16568   4.277   0.997   5.910 -0.0406 -0.4377 -0.4884
  150SAPE   H6Y16569   4.294   1.122   5.785 -1.0235 -1.5533 -0.8281
  150SAPE   C3716570   4.133   0.993   5.755  0.1195  0.5662 -0.1014
  150SAPE   H7X16571   4.090   1.064   5.681  0.3806 -0.3421 -1.1602
  150SAPE   H7Y16572   4.052   0.944   5.813  0.5807 -0.7235 -0.5017
  150SAPE   C3816573   4.198   0.878   5.683 -0.3781  0.0252 -0.0783
  150SAPE   H8X16574   4.113   0.820   5.642 -1.5236  0.5220  1.5161
  150SAPE   H8Y16575   4.248   0.813   5.760 -1.9699  1.4716  2.3052
  150SAPE   C3916576   4.286   0.917   5.566 -0.1014  0.1413  0.4690
  150SAPE   H9X16577   4.373   0.979   5.595  0.0809 -0.9005  2.2807
  150SAPE   H9Y16578   4.222   0.986   5.507  0.8064  1.8821  1.4618
  150SAPE  C31016579   4.325   0.799   5.469  0.9999  0.1079  0.0454
  150SAPE  H10X16580   4.248   0.741   5.415  2.3073 -4.0904  2.2372
  150SAPE  H10Y16581   4.379   0.723   5.529 -0.6435 -1.9871 -1.0174
  150SAPE  C31116582   4.418   0.848   5.353 -0.4262  0.4488 -1.0545
  150SAPE  H11X16583   4.507   0.909   5.382  1.7373 -2.4079 -1.1793
  150SAPE  H11Y16584   4.361   0.914   5.285  0.8771  0.1922 -2.4710
  150SAPE  C31216585   4.464   0.728   5.282  0.9563  0.3844  0.4272
  150SAPE  H12X16586   4.371   0.680   5.244 -0.0004  1.4362  1.3637
  150SAPE  H12Y16587   4.525   0.659   5.345  1.5636  0.7038  0.1886
  150SAPE  C31316588   4.558   0.765   5.170  0.1363  0.5838  0.4661
  150SAPE  H13X16589   4.654   0.808   5.204 -0.0632  0.5379  1.0950
  150SAPE  H13Y16590   4.515   0.844   5.105 -2.4752  0.9549  2.4669
  150SAPE  C31416591   4.602   0.646   5.076  0.4578 -0.1451 -0.6052
  150SAPE  H14X16592   4.515   0.608   5.017 -0.6210  2.9668 -1.1847
  150SAPE  H14Y16593   4.630   0.561   5.141 -0.1831  1.1426  1.4197
  150SAPE  C31516594   4.707   0.674   4.973 -0.9767 -0.0275  0.1793
  150SAPE  H15X16595   4.804   0.683   5.027  0.5871  0.0594 -2.4655
  150SAPE  H15Y16596   4.663   0.768   4.933 -1.3608 -0.4919 -0.5078
  150SAPE  C31616597   4.708   0.576   4.856  0.5287 -0.2026  0.8785
  150SAPE  H16X16598   4.608   0.566   4.809 -0.1572  0.9812  1.9965
  150SAPE  H16Y16599   4.724   0.476   4.902  1.9212  0.3044  1.5615
  150SAPE  C31716600   4.814   0.604   4.750  0.0324 -0.2351  0.5120
  150SAPE  H17X16601   4.915   0.590   4.794 -0.0472  0.6882  1.0151
  150SAPE  H17Y16602   4.800   0.708   4.712  1.9039  0.2261  0.9478
  150SAPE  C31816603   4.796   0.527   4.615  0.0123 -1.1307 -0.3156
  150SAPE  H18X16604   4.726   0.442   4.632 -1.5291  0.1452 -0.1174
  150SAPE  H18Y16605   4.899   0.495   4.586  0.3527  0.5620 -1.1213
  150SAPE  H18Z16606   4.758   0.588   4.531 -0.8018 -3.4179 -1.7016
  151SAPE     N16607   3.162   4.675   7.236 -0.0028 -0.4398 -0.1487
  151SAPE   HN116608   3.153   4.670   7.339  1.5820  1.7482  0.1659
  151SAPE   HN216609   3.251   4.726   7.222  0.2156 -0.6632  0.4203
  151SAPE   HN316610   3.088   4.725   7.182  1.7444  1.4382 -0.9072
  151SAPE   C1216611   3.176   4.538   7.169 -0.6617 -0.2883 -0.8679
  151SAPE  H12A16612   3.082   4.496   7.129 -1.6358  1.8681 -0.9967
  151SAPE  H12B16613   3.219   4.475   7.250 -0.0040  1.8592  0.5407
  151SAPE   C1116614   3.280   4.534   7.056 -0.0437  0.0192  0.1065
  151SAPE  H11A16615   3.289   4.429   7.022 -0.3144  0.5641 -1.7645
  151SAPE  H11B16616   3.378   4.549   7.105 -0.2389 -0.3110  0.6013
  151SAPE     P16617   3.359   4.649   6.838  0.1402 -0.1194 -0.0037
  151SAPE   O1316618   3.312   4.762   6.758 -0.1159 -0.3436  0.9954
  151SAPE   O1416619   3.490   4.658   6.896 -0.0427  0.6883 -0.0049
  151SAPE   O1216620   3.256   4.630   6.953 -0.0771  0.1820  0.1594
  151SAPE   O1116621   3.349   4.519   6.749  0.4694 -0.4168 -0.2175
  151SAPE    C116622   3.460   4.451   6.684 -0.0221 -0.3167 -0.3300
  151SAPE    HA16623   3.560   4.485   6.718 -0.0794 -2.4048  2.2727
  151SAPE    HB16624   3.445   4.348   6.723  0.0096  0.2647  1.2843
  151SAPE    C216625   3.438   4.455   6.531  0.3311 -1.1121 -0.1709
  151SAPE    HS16626   3.333   4.425   6.511  0.1156 -0.1308 -0.5758
  151SAPE   O2116627   3.543   4.380   6.471 -0.4321 -0.0295  0.0752
  151SAPE   C2116628   3.502   4.272   6.422 -1.2052  0.5190 -0.2819
  151SAPE   O2216629   3.392   4.219   6.440 -0.1471  0.0673 -0.0539
  151SAPE   C2216630   3.621   4.210   6.347  0.3606  0.3094  1.1235
  151SAPE   H2R16631   3.695   4.288   6.316  3.2692 -2.9937 -1.0739
  151SAPE   H2S16632   3.672   4.138   6.414 -1.3745  0.9652  3.2582
  151SAPE    C316633   3.446   4.605   6.482 -0.6128  0.6338  0.5371
  151SAPE    HX16634   3.528   4.645   6.545 -0.8894 -0.2513  1.5102
  151SAPE    HY16635   3.350   4.652   6.514 -0.1015  1.6379  0.6220
  151SAPE   O3116636   3.469   4.619   6.336 -0.1146 -0.1666  0.1149
  151SAPE   C3116637   3.456   4.750   6.297 -0.2778  0.5020  0.2778
  151SAPE   O3216638   3.460   4.842   6.379 -0.2453  0.4361 -0.3316
  151SAPE   C3216639   3.474   4.766   6.150  0.4543 -0.1959  1.0496
  151SAPE   H2X16640   3.571   4.722   6.120 -0.1448 -1.8951  1.5056
  151SAPE   H2Y16641   3.463   4.875   6.127  0.5397 -0.7327 -1.9267
  151SAPE   C2316642   3.572   4.144   6.212 -0.1535 -0.1727 -0.4180
  151SAPE   H3R16643   3.490   4.071   6.229  0.5406 -0.8312  0.1860
  151SAPE   H3S16644   3.653   4.082   6.168 -1.4497 -1.7358 -0.6710
  151SAPE   C2416645   3.511   4.240   6.109 -0.8502 -0.0342 -0.3857
  151SAPE   H4R16646   3.408   4.275   6.130 -0.2947  0.8073  1.1399
  151SAPE   H4S16647   3.510   4.183   6.014  0.8575  0.5495 -0.7993
  151SAPE   C2516648   3.588   4.364   6.083  0.7098  0.1396 -0.2764
  151SAPE   H5R16649   3.553   4.454   6.136 -0.4704  0.1318 -1.0075
  151SAPE   C2616650   3.687   4.386   5.995 -0.1783  0.8145  0.5634
  151SAPE   H6R16651   3.734   4.484   5.983  0.2792  0.3757 -1.6386
  151SAPE   C2716652   3.743   4.268   5.913  0.0345  0.3857 -0.3533
  151SAPE   H7R16653   3.671   4.253   5.830  0.5174  0.3050 -0.7620
  151SAPE   H7S16654   3.750   4.170   5.967  0.5131 -0.0979 -1.2722
  151SAPE   C2816655   3.871   4.279   5.842  0.0558  0.6624 -0.3864
  151SAPE   H8R16656   3.947   4.212   5.882 -1.8375 -1.5130 -0.2398
  151SAPE   C2916657   3.899   4.339   5.726 -0.1013 -0.0773  0.0849
  151SAPE   H9R16658   4.004   4.347   5.694 -0.8357 -0.0451 -2.5724
  151SAPE  C21016659   3.801   4.409   5.637  0.3539 -0.5971  0.2002
  151SAPE  H10R16660   3.856   4.489   5.583 -1.5869 -0.3848 -1.6320
  151SAPE  H10S16661   3.719   4.456   5.696 -0.4097 -0.2753 -1.0802
  151SAPE  C21116662   3.735   4.296   5.537 -0.1479 -0.2284 -0.5868
  151SAPE  H11R16663   3.716   4.204   5.594 -0.1177 -0.6935 -1.3114
  151SAPE  C21216664   3.712   4.307   5.407  0.3123 -0.0446 -0.9565
  151SAPE  H12R16665   3.680   4.217   5.352  0.4019 -0.6605 -0.0288
  151SAPE  C21316666   3.759   4.420   5.322  0.1531 -0.7258  0.1155
  151SAPE  H13R16667   3.805   4.505   5.376 -0.9413  1.3296 -1.9958
  151SAPE  H13S16668   3.676   4.469   5.266 -1.7578 -2.0596  1.6569
  151SAPE  C21416669   3.864   4.370   5.231  0.4271  0.3698  0.6629
  151SAPE  H14R16670   3.944   4.320   5.287  0.7881  1.2799  0.9693
  151SAPE  C21516671   3.871   4.389   5.094 -0.1110 -0.4500 -0.3678
  151SAPE  H15R16672   3.961   4.352   5.044  0.0435  0.9682 -1.1927
  151SAPE  C21616673   3.775   4.455   5.000  0.0267  0.2415  0.5453
  151SAPE  H16R16674   3.827   4.493   4.909  1.7884 -0.1165  1.3504
  151SAPE  H16S16675   3.744   4.550   5.050 -0.6957  0.2208  0.1386
  151SAPE  C21716676   3.655   4.364   4.961 -0.1607  0.0770 -0.7152
  151SAPE  H17R16677   3.581   4.433   4.916  0.4011  0.4844 -1.0314
  151SAPE  H17S16678   3.597   4.326   5.048  0.0760  1.0944 -0.0897
  151SAPE  C21816679   3.693   4.241   4.866  0.1330 -0.1324  0.5642
  151SAPE  H18R16680   3.752   4.164   4.920  2.1984 -0.1051 -1.4979
  151SAPE  H18S16681   3.755   4.275   4.781 -1.1835  2.4502  0.5311
  151SAPE  C21916682   3.567   4.174   4.798 -0.9253  0.9879  0.1906
  151SAPE  H19R16683   3.524   4.250   4.730 -1.1547  0.4771 -0.2364
  151SAPE  H19S16684   3.493   4.148   4.878 -1.0235 -0.7193 -0.4156
  151SAPE  C22016685   3.600   4.047   4.719  0.4173 -0.0051 -0.1034
  151SAPE  H20R16686   3.670   3.983   4.777 -0.3888  0.6957  1.6947
  151SAPE  H20S16687   3.648   4.079   4.624 -0.6691 -0.1496 -0.7259
  151SAPE  H20T16688   3.507   3.995   4.688  0.9589 -0.5560 -0.8699
  151SAPE   C3316689   3.357   4.686   6.079 -0.4084 -0.4808  1.0211
  151SAPE   H3X16690   3.258   4.709   6.123 -1.0725 -0.9203 -0.2160
  151SAPE   H3Y16691   3.357   4.577   6.102 -3.4678 -0.4951  1.3434
  151SAPE   C3416692   3.360   4.721   5.931 -0.4048 -0.2828  0.3364
  151SAPE   H4X16693   3.361   4.831   5.917 -1.5504 -0.2754  0.1570
  151SAPE   H4Y16694   3.270   4.680   5.879  0.0792 -1.4770  0.4199
  151SAPE   C3516695   3.476   4.656   5.860  0.6931  0.1754  0.2160
  151SAPE   H5X16696   3.461   4.552   5.896  2.3287  0.1761  0.9700
  151SAPE   H5Y16697   3.570   4.691   5.908  1.2592 -0.2780 -0.5431
  151SAPE   C3616698   3.477   4.686   5.710 -0.6618  0.3855 -0.1409
  151SAPE   H6X16699   3.586   4.692   5.687  0.0308 -3.9493  1.1557
  151SAPE   H6Y16700   3.422   4.782   5.700 -0.7040  0.6189  1.9238
  151SAPE   C3716701   3.403   4.573   5.636  0.2963  1.0357 -0.7021
  151SAPE   H7X16702   3.304   4.561   5.685  1.9306 -3.1090  2.2185
  151SAPE   H7Y16703   3.455   4.475   5.646  1.8643  1.7331 -1.7710
  151SAPE   C3816704   3.396   4.591   5.487  0.9146 -0.1516 -0.2632
  151SAPE   H8X16705   3.405   4.491   5.441  0.5553  1.1140 -3.2852
  151SAPE   H8Y16706   3.485   4.649   5.452 -0.0954  1.1215 -0.8109
  151SAPE   C3916707   3.268   4.658   5.445 -0.7691 -0.0159  0.0055
  151SAPE   H9X16708   3.246   4.757   5.492 -1.3265  0.3558 -1.0013
  151SAPE   H9Y16709   3.183   4.590   5.467 -1.9601  2.2836  3.3210
  151SAPE  C31016710   3.255   4.707   5.306 -0.4797 -0.0997 -0.1745
  151SAPE  H10X16711   3.184   4.791   5.291 -0.7598 -0.2548  0.2557
  151SAPE  H10Y16712   3.205   4.627   5.246  0.0612  0.6803 -1.7228
  151SAPE  C31116713   3.384   4.759   5.238 -0.7454 -0.1045  0.3072
  151SAPE  H11X16714   3.455   4.675   5.220 -1.5750 -0.5901 -0.8360
  151SAPE  H11Y16715   3.440   4.831   5.301 -0.5085  0.1183 -0.1498
  151SAPE  C31216716   3.362   4.818   5.097 -0.2743 -0.3453 -0.7931
  151SAPE  H12X16717   3.455   4.869   5.066 -0.2668 -0.5564 -1.1185
  151SAPE  H12Y16718   3.280   4.892   5.091 -1.4733 -1.6969 -1.7941
  151SAPE  C31316719   3.330   4.708   5.001 -0.1599  0.0423  0.3063
  151SAPE  H13X16720   3.220   4.695   5.009 -0.0242  0.3207  3.9895
  151SAPE  H13Y16721   3.373   4.618   5.050  1.4365  1.4502  1.6096
  151SAPE  C31416722   3.376   4.743   4.859  0.6103  0.1239 -1.0683
  151SAPE  H14X16723   3.371   4.644   4.810  0.2459 -0.4494  0.0795
  151SAPE  H14Y16724   3.484   4.770   4.864  0.6576  0.3181 -2.5948
  151SAPE  C31516725   3.282   4.851   4.793  0.0100  0.0652 -0.2839
  151SAPE  H15X16726   3.312   4.942   4.848 -0.0094 -0.7841  1.2012
  151SAPE  H15Y16727   3.172   4.834   4.793 -0.1167  0.5714 -2.7240
  151SAPE  C31616728   3.313   4.870   4.643 -0.7063 -0.2770  0.4760
  151SAPE  H16X16729   3.380   4.796   4.595 -0.1320  2.0051 -2.5383
  151SAPE  H16Y16730   3.379   4.959   4.645 -1.2060  0.1293 -0.3036
  151SAPE  C31716731   3.184   4.901   4.562 -0.1650  0.1353 -0.2064
  151SAPE  H17X16732   3.212   4.969   4.479 -3.7750  0.6030 -1.2135
  151SAPE  H17Y16733   3.103   4.943   4.625  0.3181  0.3907  0.2512
  151SAPE  C31816734   3.127   4.773   4.497 -0.1086  0.2812  0.2172
  151SAPE  H18X16735   3.057   4.721   4.566  0.5241 -1.7602 -0.6267
  151SAPE  H18Y16736   3.211   4.712   4.458 -0.1134 -0.2996  1.0660
  151SAPE  H18Z16737   3.074   4.799   4.403 -2.4340 -2.0153  0.7681
  152SAPE     N16738   5.124   6.599   6.528 -0.1000 -0.3823 -0.1039
  152SAPE   HN116739   5.061   6.516   6.533  0.8017 -1.0284  1.3875
  152SAPE   HN216740   5.069   6.684   6.551  1.7853  1.1054 -0.9184
  152SAPE   HN316741   5.155   6.617   6.431  1.4192 -1.3897  0.1652
  152SAPE   C1216742   5.248   6.596   6.618  0.4741  0.2606 -0.1315
  152SAPE  H12A16743   5.224   6.605   6.726  0.6800 -0.2421 -0.0418
  152SAPE  H12B16744   5.301   6.690   6.593 -0.1602  1.0646  1.4179
  152SAPE   C1116745   5.342   6.478   6.586  0.3402  0.2442  0.0371
  152SAPE  H11A16746   5.427   6.501   6.654  0.8418 -0.5483 -0.3020
  152SAPE  H11B16747   5.384   6.488   6.483  1.0201 -0.4552  0.2367
  152SAPE     P16748   5.301   6.257   6.723 -0.4816 -0.0978  0.1415
  152SAPE   O1316749   5.356   6.338   6.832 -0.7532 -0.0030  0.0537
  152SAPE   O1416750   5.195   6.167   6.771  0.4301  0.0288  0.0987
  152SAPE   O1216751   5.264   6.356   6.602 -0.3304  0.8055 -0.2559
  152SAPE   O1116752   5.413   6.174   6.655  0.0347 -0.1584  1.1533
  152SAPE    C116753   5.391   6.042   6.596  0.6157  0.1729 -0.2039
  152SAPE    HA16754   5.469   5.965   6.614  1.0828  0.2878 -1.6487
  152SAPE    HB16755   5.295   5.994   6.625  0.5705  0.5547  0.3000
  152SAPE    C216756   5.402   6.045   6.440  0.0096  0.5394  0.4135
  152SAPE    HS16757   5.447   5.955   6.392 -0.8145  0.9897 -1.2623
  152SAPE   O2116758   5.476   6.159   6.397 -0.3185 -0.3679 -0.2157
  152SAPE   C2116759   5.604   6.152   6.423  0.2870  0.7137 -0.4780
  152SAPE   O2216760   5.663   6.049   6.452 -0.3940  0.1163 -0.0497
  152SAPE   C2216761   5.655   6.290   6.400  0.4539  0.0954 -0.1485
  152SAPE   H2R16762   5.576   6.344   6.343  0.1366  0.3518  0.5292
  152SAPE   H2S16763   5.682   6.345   6.493 -0.1656  0.8899 -0.4206
  152SAPE    C316764   5.263   6.036   6.365  0.9679 -0.2541  0.5300
  152SAPE    HX16765   5.205   6.128   6.386  2.6176  1.7041 -2.7363
  152SAPE    HY16766   5.202   5.954   6.409  0.6202 -0.5173 -0.4238
  152SAPE   O3116767   5.277   6.008   6.224  0.2686  0.6991  0.1758
  152SAPE   C3116768   5.301   6.101   6.136 -0.1983  0.3902 -0.0402
  152SAPE   O3216769   5.322   6.224   6.158 -0.2897  0.5352 -0.2723
  152SAPE   C3216770   5.291   6.034   5.994 -0.3461 -0.9926 -0.3883
  152SAPE   H2X16771   5.187   5.996   5.985 -0.6560  0.0496 -1.5439
  152SAPE   H2Y16772   5.369   5.954   6.001  0.2509 -0.3020  1.4233
  152SAPE   C2316773   5.793   6.278   6.320  0.3206 -0.6485  0.5486
  152SAPE   H3R16774   5.856   6.200   6.367  1.2879 -2.0215 -2.7029
  152SAPE   H3S16775   5.859   6.368   6.326  1.0435 -1.1529  0.3413
  152SAPE   C2416776   5.772   6.252   6.166  0.3207  0.3912  0.1736
  152SAPE   H4R16777   5.721   6.346   6.133 -0.1518  0.4169  0.9530
  152SAPE   H4S16778   5.708   6.162   6.157  0.9870 -0.1408  0.7369
  152SAPE   C2516779   5.896   6.244   6.082 -0.3795 -0.4072  0.6384
  152SAPE   H5R16780   5.998   6.241   6.123  0.8724  0.2262 -2.1794
  152SAPE   C2616781   5.900   6.249   5.946 -0.6977  0.1125 -0.0176
  152SAPE   H6R16782   6.002   6.257   5.905 -0.3558  0.8704  0.9479
  152SAPE   C2716783   5.781   6.254   5.852 -0.2340 -0.3097 -0.1486
  152SAPE   H7R16784   5.686   6.238   5.907 -0.8305  2.5861 -0.2250
  152SAPE   H7S16785   5.799   6.178   5.772  0.6205 -1.5582  1.1713
  152SAPE   C2816786   5.772   6.397   5.795 -1.0355  0.0757  0.3793
  152SAPE   H8R16787   5.768   6.476   5.871  0.1737 -1.4525  2.1252
  152SAPE   C2916788   5.782   6.432   5.667 -0.3215 -0.5259  0.5451
  152SAPE   H9R16789   5.784   6.541   5.652 -0.3653 -0.4592  0.9987
  152SAPE  C21016790   5.789   6.343   5.542 -0.0327 -0.1003  0.1485
  152SAPE  H10R16791   5.726   6.393   5.467 -0.4494  0.3092  0.7599
  152SAPE  H10S16792   5.735   6.246   5.553 -1.5039  0.8532  1.9260
  152SAPE  C21116793   5.931   6.312   5.503 -0.4513  0.2275 -0.3896
  152SAPE  H11R16794   6.012   6.312   5.578 -0.1945 -0.8704 -0.6571
  152SAPE  C21216795   5.984   6.311   5.378  0.3516  0.1494  0.0580
  152SAPE  H12R16796   6.091   6.289   5.371 -0.2871 -2.8179 -1.8963
  152SAPE  C21316797   5.917   6.328   5.249 -0.0779 -0.5264 -0.1903
  152SAPE  H13R16798   5.814   6.362   5.271  0.3926  0.6713  0.2788
  152SAPE  H13S16799   5.913   6.228   5.202  0.4492  0.1773 -1.8338
  152SAPE  C21416800   5.963   6.435   5.153 -0.0502 -0.5305  0.3384
  152SAPE  H14R16801   5.999   6.528   5.200 -1.3234  0.3892 -0.4678
  152SAPE  C21516802   5.973   6.425   5.017 -0.2781  0.1625  0.3658
  152SAPE  H15R16803   6.024   6.507   4.964 -1.2295  0.8849  0.5461
  152SAPE  C21616804   5.937   6.316   4.917 -0.5554 -0.5114  0.5316
  152SAPE  H16R16805   5.864   6.246   4.963 -1.5992  1.4868  2.0806
  152SAPE  H16S16806   6.027   6.256   4.889 -0.7499  0.7600 -3.3647
  152SAPE  C21716807   5.886   6.379   4.786 -0.1569  0.0415 -0.4386
  152SAPE  H17R16808   5.953   6.462   4.754 -0.7336  0.1100 -1.5112
  152SAPE  H17S16809   5.789   6.428   4.803  0.4202  0.3218  2.4797
  152SAPE  C21816810   5.889   6.290   4.661 -0.6882  0.7177 -0.6756
  152SAPE  H18R16811   5.814   6.209   4.676  2.7286 -2.9848 -1.7362
  152SAPE  H18S16812   5.991   6.246   4.659 -0.0405  2.1760 -0.6994
  152SAPE  C21916813   5.855   6.363   4.530  0.0194 -0.0615  0.0101
  152SAPE  H19R16814   5.873   6.293   4.446  0.8776 -2.1528  1.8305
  152SAPE  H19S16815   5.920   6.453   4.524 -1.0585  0.7198 -0.1967
  152SAPE  C22016816   5.705   6.413   4.507 -0.6274  0.5166  0.3430
  152SAPE  H20R16817   5.665   6.424   4.610 -2.3739 -0.9176 -0.1299
  152SAPE  H20S16818   5.643   6.335   4.458 -1.0001  0.1305  1.3863
  152SAPE  H20T16819   5.709   6.504   4.443 -2.3412 -0.3170 -1.0136
  152SAPE   C3316820   5.322   6.136   5.881 -0.3537 -0.5608 -0.2384
  152SAPE   H3X16821   5.428   6.164   5.893 -1.1628  3.3989 -0.8943
  152SAPE   H3Y16822   5.261   6.229   5.888 -1.5267 -1.2216 -1.1657
  152SAPE   C3416823   5.307   6.068   5.746  0.1252  0.3068 -0.2535
  152SAPE   H4X16824   5.200   6.079   5.718 -1.0289  0.3087  3.5316
  152SAPE   H4Y16825   5.338   5.965   5.775 -2.4773 -0.1020  1.4900
  152SAPE   C3516826   5.400   6.146   5.648  0.2793  0.6724  0.3176
  152SAPE   H5X16827   5.508   6.130   5.667 -0.2889 -0.8801  2.6348
  152SAPE   H5Y16828   5.395   6.256   5.655  1.9271  0.8039 -0.2566
  152SAPE   C3616829   5.364   6.116   5.500  0.1214 -0.0274 -0.0971
  152SAPE   H6X16830   5.255   6.123   5.476  0.5322 -0.6840 -2.3726
  152SAPE   H6Y16831   5.393   6.011   5.480 -2.4064 -0.9775  0.7228
  152SAPE   C3716832   5.427   6.209   5.394  0.3123  0.0027  0.2902
  152SAPE   H7X16833   5.533   6.223   5.425  0.7330  0.0331 -1.0966
  152SAPE   H7Y16834   5.389   6.312   5.413  0.8708  0.6402 -1.8395
  152SAPE   C3816835   5.412   6.163   5.247 -0.4841  0.8149 -0.4091
  152SAPE   H8X16836   5.312   6.159   5.200  0.1057 -1.3233 -1.6539
  152SAPE   H8Y16837   5.437   6.055   5.258 -1.0586  0.7624  0.5393
  152SAPE   C3916838   5.520   6.235   5.166  0.4949  0.8202 -0.1888
  152SAPE   H9X16839   5.612   6.204   5.221  1.6620  2.2482 -1.2742
  152SAPE   H9Y16840   5.505   6.344   5.183  1.9648  0.8273  1.3360
  152SAPE  C31016841   5.540   6.200   5.020 -0.3482 -0.2947  0.5475
  152SAPE  H10X16842   5.555   6.090   5.019  1.5840 -0.1115 -2.6568
  152SAPE  H10Y16843   5.631   6.259   4.998 -1.5847  1.9863  1.3023
  152SAPE  C31116844   5.422   6.234   4.932  0.1982  0.0668  0.6900
  152SAPE  H11X16845   5.375   6.326   4.974 -0.4537  0.3267 -0.5684
  152SAPE  H11Y16846   5.357   6.144   4.940  0.1964 -0.1839 -1.6283
  152SAPE  C31216847   5.467   6.259   4.785 -0.3641 -0.5287 -0.1268
  152SAPE  H12X16848   5.514   6.170   4.738 -1.8527 -1.6686  0.4273
  152SAPE  H12Y16849   5.534   6.346   4.797 -1.0382 -0.1198  0.8281
  152SAPE  C31316850   5.340   6.290   4.708  0.4884  0.2659 -0.2464
  152SAPE  H13X16851   5.293   6.381   4.752 -0.8109 -0.3848 -0.2185
  152SAPE  H13Y16852   5.263   6.214   4.736 -0.6027  1.3240 -0.2990
  152SAPE  C31416853   5.361   6.311   4.561 -0.2348  0.4801  0.1621
  152SAPE  H14X16854   5.415   6.218   4.531 -0.0717  0.3089  0.9606
  152SAPE  H14Y16855   5.434   6.392   4.540 -0.7665  2.0428  3.6229
  152SAPE  C31516856   5.228   6.349   4.487  0.1035 -0.6017 -0.5031
  152SAPE  H15X16857   5.181   6.435   4.540 -0.3175 -0.9098 -0.3705
  152SAPE  H15Y16858   5.151   6.269   4.478 -1.0507  0.5324 -1.2222
  152SAPE  C31616859   5.258   6.392   4.343 -0.0126  0.2015 -0.2445
  152SAPE  H16X16860   5.162   6.385   4.287  0.6204 -2.9265 -1.1040
  152SAPE  H16Y16861   5.315   6.315   4.287 -2.9695 -1.4590 -1.2260
  152SAPE  C31716862   5.312   6.537   4.318 -0.1500  0.1287 -0.1039
  152SAPE  H17X16863   5.399   6.546   4.386  0.1503 -1.7925 -0.1543
  152SAPE  H17Y16864   5.230   6.603   4.351 -1.1033  0.0913 -2.2121
  152SAPE  C31816865   5.349   6.568   4.173 -0.7948  0.7136  0.5446
  152SAPE  H18X16866   5.449   6.545   4.133 -1.0956 -0.4243  0.4140
  152SAPE  H18Y16867   5.326   6.676   4.159  1.1979  1.1166  0.1570
  152SAPE  H18Z16868   5.270   6.515   4.114 -0.6459 -0.0239  0.9886
  153SAPE     N16869   5.264   4.603   6.973 -0.0515  0.5156  0.1560
  153SAPE   HN116870   5.164   4.574   6.976  0.4788 -2.5178 -3.6565
  153SAPE   HN216871   5.274   4.655   6.884  2.5285  1.1790  0.7439
  153SAPE   HN316872   5.324   4.518   6.961  0.2875  0.7564  0.1122
  153SAPE   C1216873   5.299   4.683   7.095 -0.6083  0.1807 -0.0599
  153SAPE  H12A16874   5.410   4.694   7.101 -0.5189 -1.1576  1.5962
  153SAPE  H12B16875   5.263   4.620   7.179  0.0046 -0.7809 -0.5030
  153SAPE   C1116876   5.239   4.822   7.094 -0.0093 -0.7691 -0.2508
  153SAPE  H11A16877   5.282   4.884   7.012  0.0309  0.1112  0.4230
  153SAPE  H11B16878   5.267   4.866   7.192 -0.4437 -1.6317  0.2686
  153SAPE     P16879   4.994   4.930   7.126  0.0513 -0.2622 -0.4242
  153SAPE   O1316880   4.855   4.891   7.087  0.0046 -0.2566  0.3974
  153SAPE   O1416881   5.012   4.942   7.276  0.1457 -0.0777  0.6298
  153SAPE   O1216882   5.094   4.817   7.077 -0.0322  0.3047 -0.7546
  153SAPE   O1116883   5.035   5.063   7.043 -0.1922 -0.3681  0.2284
  153SAPE    C116884   5.039   5.043   6.895 -0.4773  0.2663  0.0453
  153SAPE    HA16885   5.100   4.954   6.866 -1.2807 -0.0552 -0.6959
  153SAPE    HB16886   4.940   5.024   6.848  0.1970  3.0700 -2.8556
  153SAPE    C216887   5.085   5.170   6.818  0.6512  0.1571  0.2143
  153SAPE    HS16888   5.180   5.214   6.854 -0.6927  2.8402  0.7462
  153SAPE   O2116889   4.977   5.272   6.834 -0.5486  0.9987  0.3342
  153SAPE   C2116890   5.006   5.384   6.754 -0.0047 -0.8938 -0.1674
  153SAPE   O2216891   5.115   5.422   6.722  0.0107 -0.5725 -0.3495
  153SAPE   C2216892   4.866   5.447   6.718  0.3004 -0.1692 -0.2192
  153SAPE   H2R16893   4.821   5.366   6.657 -0.0382  0.2848 -0.5842
  153SAPE   H2S16894   4.814   5.452   6.816  0.2694  1.6603 -0.2925
  153SAPE    C316895   5.104   5.124   6.672 -0.1085  0.1223  0.4462
  153SAPE    HX16896   5.187   5.052   6.682  0.3991  0.0721 -2.9441
  153SAPE    HY16897   5.152   5.210   6.620  1.8962 -0.8807  0.5602
  153SAPE   O3116898   4.984   5.068   6.616  0.5249 -0.0146 -0.0621
  153SAPE   C3116899   4.928   5.140   6.519 -0.1755 -0.5120 -0.2350
  153SAPE   O3216900   4.979   5.246   6.476  0.4119 -0.3618  0.0283
  153SAPE   C3216901   4.800   5.075   6.465  0.3338  0.7374 -0.4718
  153SAPE   H2X16902   4.743   5.037   6.553  0.1735 -0.6938 -1.1816
  153SAPE   H2Y16903   4.838   4.990   6.406  1.4629  0.9432 -0.0594
  153SAPE   C2316904   4.877   5.588   6.645  0.3871 -0.0489 -0.3027
  153SAPE   H3R16905   4.951   5.654   6.694  0.7203 -1.4927  1.2533
  153SAPE   H3S16906   4.774   5.626   6.659 -0.9863 -2.7144 -2.2278
  153SAPE   C2416907   4.907   5.567   6.493 -0.5392 -0.0271 -0.3651
  153SAPE   H4R16908   4.851   5.480   6.452 -1.4029 -0.2533  1.2126
  153SAPE   H4S16909   5.011   5.530   6.486  0.1389  2.0968 -3.6657
  153SAPE   C2516910   4.895   5.700   6.411 -0.1099  0.0855 -0.6284
  153SAPE   H5R16911   4.820   5.768   6.453 -1.8759 -0.7071 -2.3617
  153SAPE   C2616912   4.981   5.745   6.314  0.1466  0.7790 -0.3768
  153SAPE   H6R16913   4.962   5.846   6.275 -0.2070  1.3428  1.1708
  153SAPE   C2716914   5.110   5.675   6.271  0.0533 -1.0329  0.3760
  153SAPE   H7R16915   5.156   5.637   6.365 -0.4480  3.2494  2.5777
  153SAPE   H7S16916   5.179   5.756   6.238  1.5687 -1.7980  1.5246
  153SAPE   C2816917   5.089   5.569   6.159 -0.0928  0.4839  0.6215
  153SAPE   H8R16918   5.026   5.487   6.196  1.0775  0.6276  3.1179
  153SAPE   C2916919   5.148   5.571   6.035 -0.4610  0.0967 -0.6675
  153SAPE   H9R16920   5.108   5.507   5.955 -1.5982 -0.1523  0.0896
  153SAPE  C21016921   5.252   5.671   5.993  0.0082 -0.6976  0.3755
  153SAPE  H10R16922   5.332   5.686   6.069  1.2257 -1.4740 -0.7044
  153SAPE  H10S16923   5.204   5.769   5.972  2.7906  0.6081 -0.4328
  153SAPE  C21116924   5.335   5.630   5.873  0.2997  0.4717 -0.4066
  153SAPE  H11R16925   5.431   5.578   5.882  1.3003  1.9645 -1.7418
  153SAPE  C21216926   5.290   5.638   5.743 -0.1727 -0.8164  0.1854
  153SAPE  H12R16927   5.367   5.614   5.668  0.0819  0.2381  0.0965
  153SAPE  C21316928   5.163   5.690   5.692 -0.0854 -0.1313  0.6698
  153SAPE  H13R16929   5.182   5.785   5.639 -0.8496  0.2372  1.0367
  153SAPE  H13S16930   5.091   5.713   5.774 -1.0870 -1.2174  0.1270
  153SAPE  C21416931   5.099   5.582   5.605 -0.3822 -0.5272  0.1385
  153SAPE  H14R16932   5.020   5.524   5.654  0.5496 -1.3545  0.6884
  153SAPE  C21516933   5.138   5.554   5.480  0.0891  0.2590 -0.2792
  153SAPE  H15R16934   5.085   5.473   5.428  0.0280  1.0766 -1.5351
  153SAPE  C21616935   5.240   5.629   5.398 -0.8214 -0.4212  0.1106
  153SAPE  H16R16936   5.275   5.722   5.447 -0.0925 -0.6330  0.0005
  153SAPE  H16S16937   5.191   5.673   5.308 -0.8619  2.7273  1.5626
  153SAPE  C21716938   5.346   5.541   5.351  0.1203 -0.2694 -0.1315
  153SAPE  H17R16939   5.390   5.475   5.429 -1.2968 -0.8091  0.2519
  153SAPE  H17S16940   5.426   5.608   5.315 -0.3147  0.6459  0.5744
  153SAPE  C21816941   5.311   5.460   5.229 -0.2679  0.2079 -0.4829
  153SAPE  H18R16942   5.242   5.513   5.159  0.0941  0.9210 -0.3054
  153SAPE  H18S16943   5.241   5.383   5.267 -1.4476  1.5165  0.1074
  153SAPE  C21916944   5.440   5.417   5.158  0.4475 -0.2221 -0.1306
  153SAPE  H19R16945   5.499   5.358   5.231 -1.0685 -1.4609  0.1499
  153SAPE  H19S16946   5.507   5.499   5.123  0.6954  0.0496  0.9421
  153SAPE  C22016947   5.427   5.332   5.031  0.8426  0.2194 -0.3845
  153SAPE  H20R16948   5.525   5.293   4.995  0.7632 -2.2698  1.7872
  153SAPE  H20S16949   5.370   5.387   4.954  0.0561  1.9860  1.3807
  153SAPE  H20T16950   5.375   5.236   5.049  1.4748 -0.3729 -1.5764
  153SAPE   C3316951   4.716   5.170   6.377 -0.4036  1.3434  0.3477
  153SAPE   H3X16952   4.694   5.271   6.417 -1.3551  1.8977 -1.4685
  153SAPE   H3Y16953   4.616   5.123   6.364 -1.0121  2.1042  2.0167
  153SAPE   C3416954   4.765   5.187   6.232  0.7177  0.1576  0.3561
  153SAPE   H4X16955   4.765   5.086   6.186  0.0063  0.7321 -0.9623
  153SAPE   H4Y16956   4.868   5.229   6.235 -0.1417  2.4971 -0.5840
  153SAPE   C3516957   4.677   5.289   6.155  0.0154 -0.3239 -0.5500
  153SAPE   H5X16958   4.697   5.382   6.212  1.0739 -1.4328  0.9722
  153SAPE   H5Y16959   4.569   5.264   6.157 -0.5463  1.9605 -0.1640
  153SAPE   C3616960   4.711   5.299   6.005  0.4179  0.6807 -0.1543
  153SAPE   H6X16961   4.706   5.206   5.945  0.0545  1.1067 -0.7930
  153SAPE   H6Y16962   4.820   5.322   5.998  0.2654  1.1086 -1.2967
  153SAPE   C3716963   4.639   5.415   5.945  0.0978 -0.0497 -0.1362
  153SAPE   H7X16964   4.654   5.506   6.006  0.6084 -0.0963 -0.1896
  153SAPE   H7Y16965   4.530   5.394   5.951  0.2473 -1.3954 -1.4591
  153SAPE   C3816966   4.675   5.449   5.795  0.5144  0.2466 -0.2813
  153SAPE   H8X16967   4.776   5.416   5.761  0.1747 -0.2178 -0.8529
  153SAPE   H8Y16968   4.654   5.558   5.783  2.4695  0.7470  0.5064
  153SAPE   C3916969   4.579   5.392   5.686 -0.2596  0.1545 -0.5809
  153SAPE   H9X16970   4.472   5.417   5.703  0.0711  0.6607  0.8893
  153SAPE   H9Y16971   4.590   5.281   5.694  2.1018  0.2652 -1.4140
  153SAPE  C31016972   4.617   5.433   5.542 -0.1246 -0.5447  0.6915
  153SAPE  H10X16973   4.578   5.348   5.482 -0.8090  0.6194 -0.5613
  153SAPE  H10Y16974   4.725   5.449   5.526 -0.3604  0.0941 -0.3330
  153SAPE  C31116975   4.538   5.564   5.502 -0.3202 -0.8696  0.0758
  153SAPE  H11X16976   4.599   5.640   5.556  1.1869 -0.0790 -2.5874
  153SAPE  H11Y16977   4.439   5.569   5.553  0.1836  1.7426  0.9757
  153SAPE  C31216978   4.539   5.605   5.354 -0.0169 -0.1318  0.1677
  153SAPE  H12X16979   4.511   5.515   5.296 -0.1679  0.1239 -0.1613
  153SAPE  H12Y16980   4.644   5.629   5.327  0.0254  0.3107  0.6952
  153SAPE  C31316981   4.459   5.731   5.322 -0.2634 -0.1604 -0.3236
  153SAPE  H13X16982   4.488   5.808   5.396  0.8914 -0.9595  0.0828
  153SAPE  H13Y16983   4.351   5.710   5.337 -0.1961  0.0688  0.5247
  153SAPE  C31416984   4.493   5.805   5.191 -0.1159  0.2884 -0.0791
  153SAPE  H14X16985   4.599   5.834   5.204 -0.5573  1.0241  2.4332
  153SAPE  H14Y16986   4.425   5.893   5.186  0.6230  0.8118 -1.2970
  153SAPE  C31516987   4.478   5.730   5.054  0.1526  0.0780  0.2198
  153SAPE  H15X16988   4.391   5.662   5.065  0.2264 -0.4645 -2.0557
  153SAPE  H15Y16989   4.552   5.647   5.043 -2.1242 -1.8452 -1.7205
  153SAPE  C31616990   4.466   5.812   4.931 -0.3766 -0.1254  0.8794
  153SAPE  H16X16991   4.385   5.883   4.958  1.2622  2.0144  0.4157
  153SAPE  H16Y16992   4.442   5.756   4.838 -1.2851  2.4275 -0.5286
  153SAPE  C31716993   4.587   5.901   4.901  0.5635 -0.0891  0.2258
  153SAPE  H17X16994   4.629   5.946   4.993  0.8509  1.1209 -0.4663
  153SAPE  H17Y16995   4.550   5.996   4.856  1.8663  0.5018  0.3568
  153SAPE  C31816996   4.706   5.850   4.810 -0.1007  0.3856  0.0634
  153SAPE  H18X16997   4.759   5.771   4.867  0.2802  0.8798  0.4008
  153SAPE  H18Y16998   4.772   5.939   4.799 -0.7171  0.9295  0.7017
  153SAPE  H18Z16999   4.668   5.828   4.708  1.9090 -1.1963 -0.4153
  154SAPE     N17000   2.275   5.917   6.466  0.1004 -0.6372  0.3285
  154SAPE   HN117001   2.280   5.824   6.511 -1.9254 -1.2547 -0.6393
  154SAPE   HN217002   2.370   5.958   6.451  0.4897 -1.7774 -0.4634
  154SAPE   HN317003   2.217   5.977   6.527  0.0656 -0.4546  0.1183
  154SAPE   C1217004   2.204   5.891   6.330 -0.1010 -0.4834 -0.4497
  154SAPE  H12A17005   2.261   5.818   6.268 -0.5948 -0.7969 -0.5363
  154SAPE  H12B17006   2.197   5.988   6.276 -1.7551  1.3291  2.7497
  154SAPE   C1117007   2.067   5.841   6.362 -0.5670 -0.0103 -0.8015
  154SAPE  H11A17008   2.077   5.741   6.409 -0.7520 -0.6606 -2.0873
  154SAPE  H11B17009   2.008   5.830   6.268 -1.6992 -0.5334 -0.0418
  154SAPE     P17010   1.871   5.903   6.519  0.2891  0.4238  0.2526
  154SAPE   O1317011   1.904   5.832   6.648  0.3278  0.0332 -0.4051
  154SAPE   O1417012   1.789   6.030   6.533 -0.3427  0.7285  0.3897
  154SAPE   O1217013   2.003   5.937   6.438  0.0080 -0.7138 -0.3253
  154SAPE   O1117014   1.794   5.805   6.424  0.8564  0.1976  0.6473
  154SAPE    C117015   1.782   5.665   6.439 -0.2437  0.1408  0.0895
  154SAPE    HA17016   1.879   5.615   6.461 -0.0379 -0.1825 -1.4163
  154SAPE    HB17017   1.710   5.640   6.520  0.3111  0.7135  0.7731
  154SAPE    C217018   1.738   5.585   6.311  0.0940 -0.3695  0.1941
  154SAPE    HS17019   1.750   5.475   6.321  0.3248 -0.3964 -0.3354
  154SAPE   O2117020   1.796   5.622   6.186 -0.2235 -0.7179  0.1700
  154SAPE   C2117021   1.925   5.577   6.178  0.7254 -1.4565 -0.0848
  154SAPE   O2217022   1.981   5.514   6.263  0.0543  0.6144  0.0859
  154SAPE   C2217023   1.982   5.632   6.046  0.4603  0.8502 -0.3949
  154SAPE   H2R17024   1.934   5.597   5.952  0.6143 -2.5943  0.6977
  154SAPE   H2S17025   1.957   5.740   6.042 -0.7183  0.7078  2.0330
  154SAPE    C317026   1.585   5.599   6.302 -0.3058 -1.0401  0.1673
  154SAPE    HX17027   1.576   5.703   6.265  0.9451 -0.9771 -0.0038
  154SAPE    HY17028   1.536   5.588   6.400 -1.0544  1.0300  0.0603
  154SAPE   O3117029   1.527   5.518   6.193  0.0557 -0.1809  0.1279
  154SAPE   C3117030   1.393   5.553   6.171  0.5019 -0.5130 -0.6882
  154SAPE   O3217031   1.337   5.630   6.247 -0.4304 -0.4862  0.7003
  154SAPE   C3217032   1.334   5.479   6.047 -0.5626 -0.4454  0.0618
  154SAPE   H2X17033   1.233   5.516   6.021  0.4419  1.6114 -1.1547
  154SAPE   H2Y17034   1.337   5.371   6.074 -1.6042 -1.2319 -2.6860
  154SAPE   C2317035   2.135   5.603   6.042 -0.1026  0.8171 -0.1823
  154SAPE   H3R17036   2.155   5.500   6.079  2.3257  0.7026 -1.5426
  154SAPE   H3S17037   2.205   5.671   6.095  2.8416 -1.2684 -1.1065
  154SAPE   C2417038   2.196   5.589   5.898 -0.1238 -0.3932  0.3784
  154SAPE   H4R17039   2.144   5.509   5.840 -1.9088  0.9099  0.0837
  154SAPE   H4S17040   2.300   5.555   5.916 -0.2393 -0.5229  0.8022
  154SAPE   C2517041   2.213   5.712   5.806 -0.0461 -0.4319  0.4249
  154SAPE   H5R17042   2.241   5.803   5.860  1.1531 -0.0849 -0.7362
  154SAPE   C2617043   2.218   5.718   5.673 -0.0967 -0.1072  0.6006
  154SAPE   H6R17044   2.227   5.816   5.624  1.8652 -0.1621  0.7693
  154SAPE   C2717045   2.183   5.608   5.577  0.4764 -0.6853  0.4513
  154SAPE   H7R17046   2.112   5.643   5.499  0.0751  0.4358  1.2876
  154SAPE   H7S17047   2.149   5.518   5.632  1.1770  0.1809  2.4198
  154SAPE   C2817048   2.309   5.564   5.494  1.0757 -0.0173  0.3843
  154SAPE   H8R17049   2.362   5.481   5.543 -0.4381 -1.1290  0.2369
  154SAPE   C2917050   2.360   5.611   5.378  0.6731  0.0196 -0.5888
  154SAPE   H9R17051   2.457   5.571   5.343  0.2826 -1.4978 -0.0210
  154SAPE  C21017052   2.292   5.718   5.299 -0.5143 -0.1738 -0.3840
  154SAPE  H10R17053   2.368   5.772   5.238  0.0248 -0.7613 -0.2345
  154SAPE  H10S17054   2.239   5.795   5.359 -1.2665 -0.0544 -1.1851
  154SAPE  C21117055   2.192   5.648   5.208  0.2116 -0.2724 -0.5981
  154SAPE  H11R17056   2.137   5.568   5.259  1.7911  0.0239  1.7457
  154SAPE  C21217057   2.172   5.674   5.079 -0.5372 -0.1226 -0.1257
  154SAPE  H12R17058   2.095   5.610   5.034 -0.8335  0.5933 -0.6466
  154SAPE  C21317059   2.246   5.766   4.983 -0.2605 -0.4109  0.2150
  154SAPE  H13R17060   2.345   5.724   4.955  0.3472  0.4216  1.0265
  154SAPE  H13S17061   2.268   5.865   5.029  3.3754 -1.0386  0.0774
  154SAPE  C21417062   2.166   5.800   4.859 -0.0091  0.3722 -0.6133
  154SAPE  H14R17063   2.070   5.848   4.883 -1.5872 -3.4675  1.7989
  154SAPE  C21517064   2.192   5.749   4.737 -0.1960 -0.2809  0.3569
  154SAPE  H15R17065   2.130   5.782   4.652  0.6091 -2.9005 -1.3703
  154SAPE  C21617066   2.307   5.665   4.694  0.1635  0.1641 -0.5107
  154SAPE  H16R17067   2.278   5.589   4.619 -0.1378 -1.7529  1.4522
  154SAPE  H16S17068   2.345   5.601   4.777 -1.8120 -1.6977 -0.9567
  154SAPE  C21717069   2.421   5.751   4.650 -0.9563  0.3420 -0.4151
  154SAPE  H17R17070   2.432   5.841   4.714 -2.5869  1.1296 -1.1827
  154SAPE  H17S17071   2.399   5.798   4.552  1.7803  1.9561 -0.3536
  154SAPE  C21817072   2.564   5.684   4.652 -0.7287 -0.7003 -0.2254
  154SAPE  H18R17073   2.566   5.614   4.565 -0.6096 -0.6969 -0.2255
  154SAPE  H18S17074   2.572   5.614   4.739  0.0756 -0.9146 -0.4618
  154SAPE  C21917075   2.688   5.781   4.658 -0.0013  0.5215  0.0119
  154SAPE  H19R17076   2.772   5.709   4.664 -1.6499 -1.4219  1.1688
  154SAPE  H19S17077   2.681   5.839   4.752 -0.2944 -0.5975  0.7001
  154SAPE  C22017078   2.717   5.875   4.542 -0.0810  0.7318 -0.2642
  154SAPE  H20R17079   2.823   5.897   4.517 -0.4776 -0.9194 -4.0426
  154SAPE  H20S17080   2.667   5.972   4.562 -1.0892  0.1173  0.2722
  154SAPE  H20T17081   2.683   5.843   4.441 -3.3946  1.8623  0.3750
  154SAPE   C3317082   1.421   5.502   5.924  0.1192 -0.2574 -0.1474
  154SAPE   H3X17083   1.412   5.422   5.847 -0.3528 -0.8959  0.5719
  154SAPE   H3Y17084   1.528   5.502   5.953 -0.1810  0.3681  0.9891
  154SAPE   C3417085   1.409   5.640   5.855  0.0663 -0.6334  0.3319
  154SAPE   H4X17086   1.475   5.707   5.914  0.4579  1.0089 -1.8530
  154SAPE   H4Y17087   1.304   5.676   5.858  0.2438 -0.1647  2.7408
  154SAPE   C3517088   1.471   5.631   5.708  1.1601 -0.2679 -0.0194
  154SAPE   H5X17089   1.453   5.714   5.636 -1.0501 -1.8775 -1.4187
  154SAPE   H5Y17090   1.427   5.536   5.673 -1.3319  1.0765 -0.8189
  154SAPE   C3617091   1.623   5.632   5.709 -0.3999  0.1326  0.8742
  154SAPE   H6X17092   1.657   5.534   5.747  0.0782  0.3693  1.0563
  154SAPE   H6Y17093   1.642   5.715   5.781 -0.4921  1.0761 -0.1591
  154SAPE   C3717094   1.689   5.652   5.567 -0.2173 -0.1491  0.2906
  154SAPE   H7X17095   1.782   5.704   5.598  0.8548 -0.8218 -1.6305
  154SAPE   H7Y17096   1.641   5.729   5.504  2.0584  1.5587  0.5389
  154SAPE   C3817097   1.704   5.513   5.491 -0.4334 -0.3351  0.9401
  154SAPE   H8X17098   1.599   5.485   5.470 -0.3082 -0.0109 -0.1916
  154SAPE   H8Y17099   1.749   5.444   5.566  3.1160  0.4167 -0.3159
  154SAPE   C3917100   1.787   5.520   5.357 -0.5707 -0.3964  0.2494
  154SAPE   H9X17101   1.809   5.415   5.326  0.0162 -0.0524 -0.5530
  154SAPE   H9Y17102   1.891   5.558   5.368 -0.5075 -0.8299  1.2845
  154SAPE  C31017103   1.708   5.584   5.244  0.4304  0.6639 -0.9113
  154SAPE  H10X17104   1.713   5.693   5.262  2.3647  0.2624  1.3325
  154SAPE  H10Y17105   1.603   5.547   5.244  0.7520 -0.3340 -2.0351
  154SAPE  C31117106   1.753   5.556   5.098 -0.2396  0.7697  0.0550
  154SAPE  H11X17107   1.778   5.448   5.097 -0.2916  0.7312 -2.0118
  154SAPE  H11Y17108   1.839   5.614   5.058  0.7966 -0.7198  0.0388
  154SAPE  C31217109   1.641   5.583   4.993 -0.0050  0.5834  0.1310
  154SAPE  H12X17110   1.621   5.692   5.002  3.7464  1.3140  1.5744
  154SAPE  H12Y17111   1.552   5.519   5.013 -1.7667  2.9380  0.2638
  154SAPE  C31317112   1.683   5.550   4.853 -0.5542 -0.3980  0.2036
  154SAPE  H13X17113   1.595   5.532   4.788 -0.3479 -0.8841  0.0522
  154SAPE  H13Y17114   1.729   5.449   4.860 -2.3077 -1.1332  2.3274
  154SAPE  C31417115   1.751   5.664   4.777 -0.7112  0.1964  0.6718
  154SAPE  H14X17116   1.850   5.682   4.825 -1.1771  1.1423  1.2943
  154SAPE  H14Y17117   1.698   5.761   4.785  2.3806  1.9594  1.1330
  154SAPE  C31517118   1.755   5.627   4.626 -0.4716  0.6645  1.1519
  154SAPE  H15X17119   1.787   5.715   4.565  0.7304 -0.1732  0.5171
  154SAPE  H15Y17120   1.657   5.598   4.583  0.7573  0.1551 -1.5720
  154SAPE  C31617121   1.843   5.504   4.592 -0.2505 -0.9769 -0.4074
  154SAPE  H16X17122   1.797   5.421   4.650 -1.0847 -0.1490  0.1374
  154SAPE  H16Y17123   1.936   5.525   4.648 -0.9720  0.4439  0.3171
  154SAPE  C31717124   1.861   5.488   4.446 -0.1111 -0.3127 -0.2703
  154SAPE  H17X17125   1.931   5.571   4.419 -2.4874  2.3860  1.2751
  154SAPE  H17Y17126   1.768   5.495   4.385  0.6289  0.0271 -1.3886
  154SAPE  C31817127   1.929   5.355   4.416  0.4883  0.2710 -0.0280
  154SAPE  H18X17128   1.859   5.275   4.448 -1.5251  2.3325  0.9813
  154SAPE  H18Y17129   2.020   5.351   4.480 -0.7685 -1.3202  1.7966
  154SAPE  H18Z17130   1.950   5.354   4.307  0.2477 -1.2115 -0.0865
  155SAPE     N17131   2.883   3.341   6.278  0.3298  0.2510 -0.5404
  155SAPE   HN117132   2.791   3.292   6.276 -0.5789  1.8486 -0.1025
  155SAPE   HN217133   2.874   3.440   6.309  1.3683  0.1663  0.0622
  155SAPE   HN317134   2.933   3.335   6.187 -0.0055  1.6157 -0.8387
  155SAPE   C1217135   2.963   3.260   6.376 -0.3080  0.7114 -0.0171
  155SAPE  H12A17136   2.950   3.155   6.342 -1.8820  1.0262 -0.4544
  155SAPE  H12B17137   2.912   3.271   6.474  0.3360 -0.8578  0.5317
  155SAPE   C1117138   3.108   3.308   6.380 -0.3468  0.0731 -0.1725
  155SAPE  H11A17139   3.173   3.286   6.293 -0.3935  3.4982 -1.2029
  155SAPE  H11B17140   3.151   3.253   6.467  0.6520 -0.2978 -0.8829
  155SAPE     P17141   3.145   3.524   6.533  0.1533 -0.0547 -0.1873
  155SAPE   O1317142   3.130   3.674   6.519 -0.2740 -0.6700  0.4530
  155SAPE   O1417143   3.051   3.473   6.634  0.0973  0.1019 -0.1935
  155SAPE   O1217144   3.110   3.451   6.397  0.0887  0.2083  0.1696
  155SAPE   O1117145   3.295   3.476   6.564 -0.3594 -0.5472 -0.2009
  155SAPE    C117146   3.412   3.533   6.504 -0.7835  0.1002  0.6047
  155SAPE    HA17147   3.384   3.635   6.473 -3.6515 -0.7749  0.0234
  155SAPE    HB17148   3.500   3.537   6.572  2.2580  0.2684 -3.0099
  155SAPE    C217149   3.465   3.445   6.387 -0.6868  0.1365  0.1656
  155SAPE    HS17150   3.570   3.479   6.369 -0.9044  0.9438  0.3980
  155SAPE   O2117151   3.395   3.464   6.263 -0.7621  0.1419 -0.2172
  155SAPE   C2117152   3.398   3.583   6.203  0.2153 -0.7792  0.3617
  155SAPE   O2217153   3.467   3.680   6.231 -0.1898 -0.0709  0.4714
  155SAPE   C2217154   3.306   3.562   6.075  0.0413 -0.6431 -0.0215
  155SAPE   H2R17155   3.331   3.465   6.025 -0.2119 -0.3473 -0.7349
  155SAPE   H2S17156   3.206   3.544   6.120  0.6538 -2.1834  0.8194
  155SAPE    C317157   3.471   3.299   6.425 -0.8098 -0.8815  0.1812
  155SAPE    HX17158   3.369   3.256   6.432 -2.0205  1.8651  0.7879
  155SAPE    HY17159   3.517   3.296   6.526  1.5805  1.9481 -0.6776
  155SAPE   O3117160   3.554   3.223   6.336 -0.6257 -0.0587  0.7491
  155SAPE   C3117161   3.500   3.153   6.238  0.0728  0.0882  0.2444
  155SAPE   O3217162   3.380   3.147   6.208 -0.2817  0.6584 -0.1902
  155SAPE   C3217163   3.611   3.072   6.166  0.2326  0.0351 -1.4249
  155SAPE   H2X17164   3.554   2.987   6.120  0.3068 -1.0578  0.4166
  155SAPE   H2Y17165   3.680   3.027   6.240 -2.6415  1.4587  2.4832
  155SAPE   C2317166   3.300   3.687   5.992 -0.1493  0.5844 -0.4575
  155SAPE   H3R17167   3.273   3.774   6.056  2.0953  0.8562  0.1984
  155SAPE   H3S17168   3.226   3.669   5.911  0.9985 -4.0218 -0.7375
  155SAPE   C2417169   3.424   3.705   5.914  0.7764 -0.0819  0.0490
  155SAPE   H4R17170   3.404   3.642   5.824 -1.0967  0.8587 -0.2392
  155SAPE   H4S17171   3.520   3.672   5.959  1.2394 -0.0535 -0.9037
  155SAPE   C2517172   3.449   3.849   5.875 -0.0579 -0.5597 -0.3416
  155SAPE   H5R17173   3.446   3.920   5.959 -0.8666 -0.1596 -0.6924
  155SAPE   C2617174   3.486   3.895   5.750  0.5041  0.3130 -0.0374
  155SAPE   H6R17175   3.510   3.999   5.722  0.9640  0.2370  0.0794
  155SAPE   C2717176   3.493   3.806   5.628 -0.3607  0.5015 -0.8143
  155SAPE   H7R17177   3.563   3.723   5.650  0.1073  0.6284 -1.7664
  155SAPE   H7S17178   3.555   3.868   5.559  0.1995 -0.1387 -0.8969
  155SAPE   C2817179   3.365   3.753   5.578  0.5590 -0.0095  0.8486
  155SAPE   H8R17180   3.352   3.645   5.592 -0.0729  0.0995  1.1539
  155SAPE   C2917181   3.278   3.818   5.498 -0.2755 -0.0570 -0.2177
  155SAPE   H9R17182   3.192   3.762   5.457 -0.9563  0.5868  0.2979
  155SAPE  C21017183   3.294   3.961   5.452  1.2239  0.1462  0.2141
  155SAPE  H10R17184   3.392   3.977   5.400  0.2230  3.4408 -0.9314
  155SAPE  H10S17185   3.297   4.029   5.539 -0.4009  0.4003  0.0938
  155SAPE  C21117186   3.182   4.019   5.363 -0.1814  0.5804 -0.5560
  155SAPE  H11R17187   3.100   3.949   5.338  1.4293 -2.2061  1.4369
  155SAPE  C21217188   3.182   4.136   5.301 -0.1588 -0.0110 -0.3759
  155SAPE  H12R17189   3.093   4.167   5.244 -1.0331  0.0180  0.9587
  155SAPE  C21317190   3.290   4.245   5.290 -0.0203 -0.2127  0.0104
  155SAPE  H13R17191   3.368   4.236   5.368 -0.3774  3.2787  0.8953
  155SAPE  H13S17192   3.241   4.343   5.302 -0.2551 -0.4577  1.1210
  155SAPE  C21417193   3.358   4.247   5.158  0.5797  0.6020  0.3592
  155SAPE  H14R17194   3.459   4.205   5.163 -0.2744 -1.4257  1.8030
  155SAPE  C21517195   3.301   4.290   5.045 -0.9365  0.1794  0.0707
  155SAPE  H15R17196   3.368   4.307   4.960 -1.3627  0.7525 -0.1623
  155SAPE  C21617197   3.172   4.367   5.033  0.6071  0.7015 -0.0981
  155SAPE  H16R17198   3.198   4.476   5.032  2.2404  0.4842  3.5364
  155SAPE  H16S17199   3.105   4.349   5.120  0.2403 -1.4714 -0.7712
  155SAPE  C21717200   3.097   4.322   4.902  0.4927 -0.7028  0.3126
  155SAPE  H17R17201   2.988   4.337   4.909  0.5644  0.1672 -0.2542
  155SAPE  H17S17202   3.105   4.211   4.895 -2.2535 -1.1392  2.5153
  155SAPE  C21817203   3.146   4.396   4.779  0.2815 -0.3351  0.1511
  155SAPE  H18R17204   3.253   4.386   4.751  0.2077  1.9749 -1.2178
  155SAPE  H18S17205   3.111   4.500   4.798 -0.6325 -0.7118  0.6156
  155SAPE  C21917206   3.074   4.354   4.651 -0.6808  0.4576  0.6251
  155SAPE  H19R17207   3.107   4.419   4.568  0.1848 -0.9718 -0.1873
  155SAPE  H19S17208   2.963   4.358   4.657 -1.0522 -1.2956 -2.8706
  155SAPE  C22017209   3.100   4.206   4.606  0.4464  0.3895 -0.3069
  155SAPE  H20R17210   3.207   4.195   4.579  0.6197 -0.5386  0.7361
  155SAPE  H20S17211   3.044   4.167   4.518  0.7227 -1.5682  0.3531
  155SAPE  H20T17212   3.083   4.141   4.694  0.9504  0.8376  0.1244
  155SAPE   C3317213   3.698   3.146   6.066  0.6505  0.2563 -0.3838
  155SAPE   H3X17214   3.781   3.079   6.035  1.7877  0.4483  2.0567
  155SAPE   H3Y17215   3.752   3.233   6.109  1.1106  0.0733 -0.5849
  155SAPE   C3417216   3.608   3.190   5.949 -0.5522 -0.0654  0.3429
  155SAPE   H4X17217   3.537   3.271   5.977 -0.1591  1.4158 -2.6421
  155SAPE   H4Y17218   3.560   3.094   5.922 -1.3967  0.5817 -0.5110
  155SAPE   C3517219   3.681   3.246   5.824 -0.2366  0.8018 -0.8549
  155SAPE   H5X17220   3.762   3.171   5.807 -1.4921 -0.3894 -1.8581
  155SAPE   H5Y17221   3.723   3.343   5.856 -1.2762  0.8604  0.4309
  155SAPE   C3617222   3.589   3.262   5.706 -0.1077  0.1114  0.3582
  155SAPE   H6X17223   3.498   3.315   5.742  0.9686  0.6316  2.4368
  155SAPE   H6Y17224   3.550   3.164   5.670 -1.2361  0.9718 -0.8557
  155SAPE   C3717225   3.651   3.337   5.588 -0.3821 -0.1193  0.0796
  155SAPE   H7X17226   3.715   3.261   5.539  1.5520 -0.3628  2.7530
  155SAPE   H7Y17227   3.726   3.410   5.625  0.2555 -0.4192 -0.5958
  155SAPE   C3817228   3.566   3.409   5.477 -0.5176  0.2632 -1.2402
  155SAPE   H8X17229   3.518   3.502   5.514  3.0874  1.8854 -0.1083
  155SAPE   H8Y17230   3.477   3.355   5.439 -0.6450 -1.0864  0.7934
  155SAPE   C3917231   3.660   3.454   5.369 -0.4645  0.9406  0.2841
  155SAPE   H9X17232   3.709   3.361   5.335  1.8055  2.2296 -0.1232
  155SAPE   H9Y17233   3.737   3.519   5.415  1.2035  0.4260 -1.6612
  155SAPE  C31017234   3.595   3.501   5.244 -0.0994  0.1419 -0.6639
  155SAPE  H10X17235   3.506   3.442   5.216 -0.5845  0.5483  0.0092
  155SAPE  H10Y17236   3.663   3.489   5.157  0.9648  0.3287  0.1202
  155SAPE  C31117237   3.561   3.652   5.244  0.4848  0.6499  0.5962
  155SAPE  H11X17238   3.651   3.717   5.250 -0.7929  2.6850 -1.0450
  155SAPE  H11Y17239   3.496   3.675   5.331  0.8333  1.6420  0.5950
  155SAPE  C31217240   3.482   3.703   5.123 -0.1213  0.1714  0.2490
  155SAPE  H12X17241   3.403   3.632   5.091  1.2096 -0.3259 -2.1661
  155SAPE  H12Y17242   3.548   3.702   5.033 -2.0515 -1.2055 -1.2402
  155SAPE  C31317243   3.417   3.839   5.142 -0.1948 -0.0043  0.3051
  155SAPE  H13X17244   3.491   3.919   5.163 -0.8954  1.4885 -2.3533
  155SAPE  H13Y17245   3.340   3.830   5.221 -0.7564 -0.8096 -0.3075
  155SAPE  C31417246   3.344   3.881   5.013 -0.3820 -0.7224  0.7031
  155SAPE  H14X17247   3.412   3.873   4.925 -1.3049 -1.4984  0.0360
  155SAPE  H14Y17248   3.314   3.987   5.027 -0.6134 -0.3345 -2.0734
  155SAPE  C31517249   3.217   3.800   4.978 -0.5062  0.5250  0.4608
  155SAPE  H15X17250   3.159   3.791   5.073  1.4172 -0.1419  1.6323
  155SAPE  H15Y17251   3.242   3.692   4.963 -2.3663  0.3126 -1.4779
  155SAPE  C31617252   3.134   3.835   4.858 -0.3221  0.1702  0.0492
  155SAPE  H16X17253   3.086   3.934   4.876 -1.6574 -0.6140  0.9698
  155SAPE  H16Y17254   3.052   3.760   4.853  1.1725 -1.4566 -2.6093
  155SAPE  C31717255   3.207   3.841   4.722  0.3799  0.5682 -0.0866
  155SAPE  H17X17256   3.284   3.922   4.722  0.5202  0.5727 -3.7008
  155SAPE  H17Y17257   3.130   3.854   4.644  1.3656 -1.8960 -1.5652
  155SAPE  C31817258   3.276   3.700   4.697 -0.3660 -0.0574 -0.1199
  155SAPE  H18X17259   3.192   3.631   4.674  0.2663 -0.2097 -2.2188
  155SAPE  H18Y17260   3.336   3.674   4.787 -0.3851  1.7511  0.4603
  155SAPE  H18Z17261   3.334   3.705   4.602  0.0405  1.6461  0.1761
  156SAPE     N17262   6.434   5.183   6.867  0.0668 -0.0064  0.4289
  156SAPE   HN117263   6.491   5.269   6.859  0.2015 -0.0456  0.9848
  156SAPE   HN217264   6.438   5.146   6.964 -0.8238 -1.6615 -0.1226
  156SAPE   HN317265   6.451   5.113   6.792 -2.6852  1.2155 -1.5438
  156SAPE   C1217266   6.291   5.231   6.844  0.1667  0.1617  0.7580
  156SAPE  H12A17267   6.282   5.273   6.741 -0.3515  1.4502  1.3205
  156SAPE  H12B17268   6.287   5.308   6.923  0.7632  1.6510 -0.6116
  156SAPE   C1117269   6.184   5.117   6.862 -0.1625  0.2366  0.5114
  156SAPE  H11A17270   6.187   5.090   6.970 -1.1145  3.4311  1.4277
  156SAPE  H11B17271   6.218   5.046   6.784 -2.7460  2.3363 -2.7639
  156SAPE     P17272   5.978   5.121   6.712  0.0712  0.0520 -0.0888
  156SAPE   O1317273   5.975   4.977   6.704 -0.7107 -0.3287  0.5716
  156SAPE   O1417274   5.849   5.194   6.706 -0.1185  0.4768 -0.2974
  156SAPE   O1217275   6.052   5.171   6.839  0.3288 -0.0792  0.8991
  156SAPE   O1117276   6.068   5.179   6.591  0.5704 -0.1251 -0.5971
  156SAPE    C117277   6.059   5.308   6.538 -0.1969 -0.0665 -0.3443
  156SAPE    HA17278   6.003   5.373   6.609  2.0842  1.0361  0.5305
  156SAPE    HB17279   6.163   5.339   6.517 -0.5661  0.8195 -0.9469
  156SAPE    C217280   5.981   5.309   6.400  0.4455  0.6997  0.2858
  156SAPE    HS17281   5.896   5.242   6.426  1.8677  0.4793  5.4455
  156SAPE   O2117282   6.059   5.248   6.302  0.5997 -0.6985  0.3136
  156SAPE   C2117283   6.002   5.160   6.213  0.0466 -0.1251  0.7277
  156SAPE   O2217284   5.882   5.138   6.204 -0.0253 -0.1013 -0.0531
  156SAPE   C2217285   6.103   5.073   6.150 -0.4978 -0.1879  0.4717
  156SAPE   H2R17286   6.190   5.136   6.122 -0.8720  0.7776  1.4236
  156SAPE   H2S17287   6.142   5.003   6.228 -1.6525 -1.0029  0.3367
  156SAPE    C317288   5.926   5.450   6.349  0.1449  0.2507  0.1598
  156SAPE    HX17289   6.016   5.512   6.330 -1.7677  2.6961 -1.5806
  156SAPE    HY17290   5.869   5.491   6.436  0.6240  1.0846  0.0907
  156SAPE   O3117291   5.842   5.441   6.228 -1.0350 -0.3136 -0.3397
  156SAPE   C3117292   5.726   5.396   6.252  0.7259 -0.2765 -0.6730
  156SAPE   O3217293   5.677   5.360   6.359 -0.3574  0.1027  0.2854
  156SAPE   C3217294   5.652   5.397   6.118 -0.3773  0.0823  0.2587
  156SAPE   H2X17295   5.637   5.503   6.087 -1.1416 -0.2246 -0.4579
  156SAPE   H2Y17296   5.551   5.357   6.143 -0.5450  1.6247  2.3091
  156SAPE   C2317297   6.057   4.982   6.038  0.0146  0.5380 -0.0408
  156SAPE   H3R17298   5.977   4.919   6.081 -0.1764 -0.3127 -1.5570
  156SAPE   H3S17299   6.142   4.914   6.013 -1.4377 -1.7213  0.8511
  156SAPE   C2417300   6.019   5.064   5.908 -0.5015 -0.4979 -0.0492
  156SAPE   H4R17301   5.934   5.133   5.925  0.5764  0.1956  3.3570
  156SAPE   H4S17302   5.992   4.996   5.824  0.7105 -0.8899 -0.1550
  156SAPE   C2517303   6.133   5.152   5.863  0.2110 -0.7517  0.1947
  156SAPE   H5R17304   6.171   5.226   5.935 -0.1209  1.0272 -1.3564
  156SAPE   C2617305   6.187   5.157   5.739  0.1938 -0.4043 -0.3391
  156SAPE   H6R17306   6.276   5.219   5.717 -0.7911  0.6957 -1.3567
  156SAPE   C2717307   6.142   5.076   5.620  0.4405  0.0089  0.1194
  156SAPE   H7R17308   6.130   5.156   5.545  1.5187  1.5284  1.5047
  156SAPE   H7S17309   6.044   5.027   5.639 -0.0158  0.6784 -0.4635
  156SAPE   C2817310   6.250   4.976   5.580  0.6103  0.1958 -0.1514
  156SAPE   H8R17311   6.293   4.921   5.665 -1.3601 -2.2189 -0.5882
  156SAPE   C2917312   6.287   4.956   5.454  0.1061  0.4618 -0.4447
  156SAPE   H9R17313   6.370   4.892   5.422 -0.1415 -0.0695 -0.0373
  156SAPE  C21017314   6.225   5.012   5.325 -0.4446  0.1464  0.2717
  156SAPE  H10R17315   6.120   5.045   5.339 -1.3632 -2.0507 -0.8841
  156SAPE  H10S17316   6.212   4.923   5.260  1.8015  1.7113 -2.5362
  156SAPE  C21117317   6.309   5.118   5.259  0.1800  0.6019  0.1081
  156SAPE  H11R17318   6.375   5.168   5.331 -0.5916  0.3114  1.0358
  156SAPE  C21217319   6.309   5.139   5.128 -0.4813 -1.0437 -0.5624
  156SAPE  H12R17320   6.373   5.218   5.085 -0.5430 -1.2452 -1.0380
  156SAPE  C21317321   6.238   5.062   5.027  0.1939  0.7584  0.5360
  156SAPE  H13R17322   6.223   5.120   4.934 -0.7360  1.6638  1.2188
  156SAPE  H13S17323   6.145   5.026   5.077  0.2838 -0.7197 -0.3065
  156SAPE  C21417324   6.310   4.931   5.002  0.4702  0.2540 -0.0415
  156SAPE  H14R17325   6.385   4.903   5.078 -0.1435 -2.5552 -0.3404
  156SAPE  C21517326   6.298   4.854   4.891 -0.2021  0.0695 -0.4184
  156SAPE  H15R17327   6.364   4.768   4.873  1.6700  1.2694  0.4193
  156SAPE  C21617328   6.201   4.872   4.774  0.3707 -0.1343  0.1050
  156SAPE  H16R17329   6.128   4.953   4.792  1.4627  1.1921 -1.1766
  156SAPE  H16S17330   6.135   4.786   4.754 -0.6452  0.9133 -1.2392
  156SAPE  C21717331   6.276   4.906   4.654  0.3108 -0.1783  0.4789
  156SAPE  H17R17332   6.350   4.826   4.633  0.2049 -0.5549  1.4820
  156SAPE  H17S17333   6.328   5.002   4.675 -0.5715  0.4236 -0.0595
  156SAPE  C21817334   6.197   4.920   4.523 -0.9124 -0.2327  0.0987
  156SAPE  H18R17335   6.274   4.933   4.444  1.7158 -1.5354  2.2666
  156SAPE  H18S17336   6.131   5.009   4.524 -1.5823 -0.7334  0.6466
  156SAPE  C21917337   6.109   4.801   4.497  0.6776 -0.3381  0.2114
  156SAPE  H19R17338   6.024   4.796   4.568 -0.6453  0.6358 -1.2474
  156SAPE  H19S17339   6.174   4.712   4.516  1.5176  0.0900 -0.5933
  156SAPE  C22017340   6.047   4.786   4.359 -0.1916 -0.5106 -0.0937
  156SAPE  H20R17341   6.002   4.883   4.330  2.0896  0.2968 -1.1397
  156SAPE  H20S17342   5.977   4.700   4.357  0.6480 -1.2219  0.2692
  156SAPE  H20T17343   6.130   4.761   4.289  0.3191  0.1442  0.2595
  156SAPE   C3317344   5.734   5.320   6.005  0.6045  0.4300 -0.3122
  156SAPE   H3X17345   5.705   5.214   6.024 -0.4578  0.8237  0.3556
  156SAPE   H3Y17346   5.844   5.337   6.005  0.9086 -1.0444 -2.6684
  156SAPE   C3417347   5.686   5.354   5.860 -0.1997 -0.0041  0.1428
  156SAPE   H4X17348   5.685   5.465   5.851 -2.0534 -0.1564 -2.5353
  156SAPE   H4Y17349   5.589   5.306   5.838  0.1357 -0.9726  0.7414
  156SAPE   C3517350   5.786   5.299   5.750 -0.1678  0.4873 -0.4245
  156SAPE   H5X17351   5.770   5.190   5.737  3.5082 -0.6410  2.7692
  156SAPE   H5Y17352   5.892   5.304   5.782  0.2506 -0.8809 -1.4704
  156SAPE   C3617353   5.773   5.372   5.622 -0.4740 -0.6141  0.3785
  156SAPE   H6X17354   5.786   5.479   5.649  0.1171 -0.5974  0.0410
  156SAPE   H6Y17355   5.669   5.349   5.589 -0.1806  1.2289 -2.1571
  156SAPE   C3717356   5.872   5.330   5.509 -0.1473  0.5895 -0.5922
  156SAPE   H7X17357   5.861   5.222   5.482  0.3534  0.5787 -0.7666
  156SAPE   H7Y17358   5.975   5.335   5.551  0.4583  2.6769 -2.1596
  156SAPE   C3817359   5.864   5.411   5.384  0.2348 -0.2813 -0.2664
  156SAPE   H8X17360   5.900   5.513   5.409 -1.4056 -0.3633  3.0499
  156SAPE   H8Y17361   5.756   5.423   5.364  0.0455  1.1130  1.3119
  156SAPE   C3917362   5.953   5.338   5.292  0.1237  0.0099 -0.1324
  156SAPE   H9X17363   5.933   5.228   5.290 -0.1001  0.0211  1.0553
  156SAPE   H9Y17364   6.051   5.337   5.344  1.6055  3.0163 -2.5069
  156SAPE  C31017365   5.972   5.395   5.156 -1.0572  0.1147 -0.5765
  156SAPE  H10X17366   6.046   5.329   5.105 -0.9256 -1.2359  1.2568
  156SAPE  H10Y17367   6.012   5.497   5.168 -1.4857  0.0351  2.1319
  156SAPE  C31117368   5.844   5.412   5.074 -0.3419  0.4007  0.2362
  156SAPE  H11X17369   5.793   5.502   5.115  1.5098  1.8353 -0.4935
  156SAPE  H11Y17370   5.769   5.330   5.083 -2.5074  2.4163  1.5525
  156SAPE  C31217371   5.874   5.426   4.924  0.0473  0.4181  0.2130
  156SAPE  H12X17372   5.952   5.504   4.906  1.3477 -1.1973 -1.4265
  156SAPE  H12Y17373   5.784   5.464   4.871 -0.9266  0.8703  2.0887
  156SAPE  C31317374   5.894   5.287   4.859  0.0694  0.2392  0.6092
  156SAPE  H13X17375   5.792   5.256   4.828 -0.0361  0.1573  1.0312
  156SAPE  H13Y17376   5.942   5.210   4.923 -0.2999 -0.2165  0.3424
  156SAPE  C31417377   5.973   5.291   4.724  0.4763 -0.5912  1.4088
  156SAPE  H14X17378   5.960   5.192   4.675  1.4081  0.1552 -0.4149
  156SAPE  H14Y17379   6.081   5.306   4.744  0.4165  0.7726  0.8280
  156SAPE  C31517380   5.926   5.408   4.632 -1.1068 -0.0316  0.0676
  156SAPE  H15X17381   5.951   5.504   4.683  1.1245  0.9493 -2.6659
  156SAPE  H15Y17382   5.816   5.409   4.613 -1.3417  0.6519  1.3476
  156SAPE  C31617383   5.996   5.407   4.497  0.3674  0.3920 -0.5745
  156SAPE  H16X17384   5.956   5.313   4.454 -1.2259  0.6286  0.3267
  156SAPE  H16Y17385   6.106   5.389   4.495  0.0721 -1.9819  1.0635
  156SAPE  C31717386   5.962   5.529   4.409  0.1171 -0.1269 -0.1057
  156SAPE  H17X17387   5.973   5.627   4.460  0.7591  1.1079 -2.5077
  156SAPE  H17Y17388   5.855   5.531   4.379 -0.5124  2.6841  1.9740
  156SAPE  C31817389   6.043   5.533   4.286 -0.4826  0.1823  0.7733
  156SAPE  H18X17390   6.010   5.462   4.208  1.0964  1.1692 -0.8670
  156SAPE  H18Y17391   6.144   5.497   4.319  0.0329 -0.4014 -1.3376
  156SAPE  H18Z17392   6.060   5.632   4.240  0.7420  0.1208  1.0540
  157SAPE     N17393   5.607   5.235   6.604 -0.2090 -0.1841 -0.2318
  157SAPE   HN117394   5.624   5.209   6.505  2.0201  0.2971 -0.0408
  157SAPE   HN217395   5.591   5.337   6.609 -1.0966 -0.3638  1.1207
  157SAPE   HN317396   5.699   5.214   6.650 -1.6392 -2.8036  1.7735
  157SAPE   C1217397   5.511   5.146   6.681 -0.1820 -0.0138 -0.2104
  157SAPE  H12A17398   5.407   5.180   6.660 -0.2471  1.0700  1.6250
  157SAPE  H12B17399   5.520   5.167   6.790  0.1876  1.5007 -0.5054
  157SAPE   C1117400   5.519   4.999   6.633  0.1439 -0.0554  0.5113
  157SAPE  H11A17401   5.623   4.974   6.664 -0.2191 -0.5207  1.4009
  157SAPE  H11B17402   5.516   5.005   6.523  0.1454  0.3332  0.5332
  157SAPE     P17403   5.419   4.774   6.650 -0.1551  0.5069  0.1769
  157SAPE   O1317404   5.564   4.733   6.657  0.0275 -0.1790  0.2406
  157SAPE   O1417405   5.330   4.694   6.738  0.2187  0.0965  0.1349
  157SAPE   O1217406   5.415   4.919   6.691  0.3692 -0.2469  0.4466
  157SAPE   O1117407   5.376   4.764   6.503 -0.1497 -0.2504 -0.0570
  157SAPE    C117408   5.285   4.859   6.449 -0.0195 -0.1388  0.0226
  157SAPE    HA17409   5.187   4.813   6.422  0.7607  0.1807 -4.0768
  157SAPE    HB17410   5.277   4.955   6.505  1.8550  1.8704 -2.8960
  157SAPE    C217411   5.341   4.916   6.314  0.2599  0.1438  0.1172
  157SAPE    HS17412   5.431   4.973   6.345  1.0055 -1.0117  0.1628
  157SAPE   O2117413   5.252   5.000   6.239 -0.2195 -0.0550  0.0466
  157SAPE   C2117414   5.231   5.123   6.274  0.3175 -0.6388  0.2256
  157SAPE   O2217415   5.272   5.178   6.379  0.1846 -0.3749  0.1279
  157SAPE   C2217416   5.135   5.182   6.174 -0.2455  0.6847 -0.1335
  157SAPE   H2R17417   5.067   5.102   6.139 -0.3605  0.6168  0.2530
  157SAPE   H2S17418   5.070   5.263   6.214 -1.9070 -0.6722 -0.0127
  157SAPE    C317419   5.383   4.797   6.221 -0.4472  0.1263  0.1673
  157SAPE    HX17420   5.288   4.744   6.200 -0.3317  0.3039 -0.9137
  157SAPE    HY17421   5.451   4.733   6.281  0.6460 -0.4489 -1.6056
  157SAPE   O3117422   5.430   4.846   6.091 -0.7539  0.1504 -0.1820
  157SAPE   C3117423   5.553   4.822   6.059 -0.3726 -0.3575 -0.0605
  157SAPE   O3217424   5.634   4.779   6.143  0.0723 -0.3697  0.2319
  157SAPE   C3217425   5.600   4.878   5.921  0.1124 -0.4088  0.6526
  157SAPE   H2X17426   5.711   4.892   5.924 -0.0961  1.6647  0.1174
  157SAPE   H2Y17427   5.557   4.979   5.902 -0.5058 -1.0594 -1.7397
  157SAPE   C2317428   5.206   5.245   6.049  0.2100  0.3435  0.2682
  157SAPE   H3R17429   5.265   5.327   6.095  0.6946 -0.3350  0.8791
  157SAPE   H3S17430   5.132   5.282   5.974 -0.1219 -0.5363  0.1524
  157SAPE   C2417431   5.310   5.145   5.985  0.3573 -1.8231 -0.0408
  157SAPE   H4R17432   5.362   5.077   6.056  1.1470 -1.7829 -0.5655
  157SAPE   H4S17433   5.391   5.204   5.936  0.1579 -1.9143 -0.4822
  157SAPE   C2517434   5.254   5.051   5.880 -0.3204  0.0528  0.6944
  157SAPE   H5R17435   5.182   4.977   5.917 -2.0660  1.4206  0.1578
  157SAPE   C2617436   5.278   5.053   5.743 -0.0872 -1.1725 -0.9064
  157SAPE   H6R17437   5.246   4.964   5.687  3.2186 -1.5802 -2.3463
  157SAPE   C2717438   5.366   5.148   5.674 -0.6102 -0.0092  0.0342
  157SAPE   H7R17439   5.466   5.101   5.689 -1.6571 -2.3226  0.2356
  157SAPE   H7S17440   5.372   5.237   5.740  0.1360 -0.5633  0.7378
  157SAPE   C2817441   5.326   5.190   5.532  0.2379 -0.2823 -0.9465
  157SAPE   H8R17442   5.217   5.196   5.521 -0.1124 -1.0454  1.4916
  157SAPE   C2917443   5.412   5.189   5.425  0.2357  0.3492  0.2027
  157SAPE   H9R17444   5.376   5.201   5.322 -1.0325 -0.1076  0.5791
  157SAPE  C21017445   5.555   5.154   5.418  0.7786  0.0745 -0.5748
  157SAPE  H10R17446   5.599   5.165   5.520 -2.1142 -1.2413  0.9341
  157SAPE  H10S17447   5.605   5.224   5.347 -0.1762  0.2394 -1.0952
  157SAPE  C21117448   5.591   5.019   5.362  0.4915  0.2205 -0.1906
  157SAPE  H11R17449   5.564   4.939   5.432  0.3180  1.3356  1.0611
  157SAPE  C21217450   5.628   4.974   5.243 -0.8446 -0.3120 -0.5295
  157SAPE  H12R17451   5.659   4.871   5.223  0.0602  0.1748 -1.7823
  157SAPE  C21317452   5.669   5.060   5.128  0.4196  0.4151  0.9273
  157SAPE  H13R17453   5.666   5.166   5.163 -0.0588  0.1008  1.8382
  157SAPE  H13S17454   5.592   5.055   5.048  1.2133  0.1386  0.1651
  157SAPE  C21417455   5.801   5.015   5.071  0.1232 -0.3711  0.3724
  157SAPE  H14R17456   5.890   5.068   5.110  0.9955 -2.2347  1.0514
  157SAPE  C21517457   5.812   4.923   4.972 -0.2174 -0.1510 -0.2695
  157SAPE  H15R17458   5.914   4.895   4.944 -0.8013 -0.8737 -1.7326
  157SAPE  C21617459   5.705   4.848   4.906  0.0954 -0.3824 -0.4524
  157SAPE  H16R17460   5.604   4.885   4.936  0.6197  0.7131  0.0329
  157SAPE  H16S17461   5.705   4.740   4.931  1.1110 -0.8781 -2.3547
  157SAPE  C21717462   5.733   4.868   4.757  0.0257 -0.3569  0.6424
  157SAPE  H17R17463   5.669   4.790   4.711 -0.3590  0.6259 -0.5628
  157SAPE  H17S17464   5.838   4.838   4.738  0.0072  0.2237 -0.5107
  157SAPE  C21817465   5.701   5.006   4.698 -1.3125  0.1204  0.3085
  157SAPE  H18R17466   5.737   4.995   4.593 -1.1938 -0.1538  0.3759
  157SAPE  H18S17467   5.769   5.072   4.755 -0.9850 -2.0620  2.5959
  157SAPE  C21917468   5.551   5.038   4.694  0.0148 -0.5383 -0.1099
  157SAPE  H19R17469   5.514   5.027   4.799  1.9057 -2.9251  0.3815
  157SAPE  H19S17470   5.498   4.972   4.623  0.8097 -0.7829 -0.4845
  157SAPE  C22017471   5.518   5.186   4.677  0.6260 -0.7598  0.7398
  157SAPE  H20R17472   5.547   5.218   4.575  1.5441 -0.7537  0.9931
  157SAPE  H20S17473   5.572   5.259   4.743 -0.1798 -1.3189  2.0509
  157SAPE  H20T17474   5.408   5.200   4.683  0.4199 -2.3484  0.8876
  157SAPE   C3317475   5.568   4.789   5.796 -0.3620  0.0961  0.5486
  157SAPE   H3X17476   5.612   4.849   5.715  0.0300 -0.5376  0.2847
  157SAPE   H3Y17477   5.458   4.789   5.776 -0.2276 -0.9279 -0.2657
  157SAPE   C3417478   5.610   4.640   5.817  0.2377 -0.5719 -0.3064
  157SAPE   H4X17479   5.563   4.617   5.915 -2.4296  1.6406 -0.9089
  157SAPE   H4Y17480   5.720   4.626   5.814  0.3553  0.3088 -3.6483
  157SAPE   C3517481   5.548   4.553   5.713 -0.1632  0.0136 -0.0837
  157SAPE   H5X17482   5.438   4.563   5.725 -0.0195 -0.8182  2.3326
  157SAPE   H5Y17483   5.585   4.452   5.738  0.8986  0.6599  1.0700
  157SAPE   C3617484   5.615   4.573   5.577 -0.4201  0.2799  1.4017
  157SAPE   H6X17485   5.726   4.562   5.571 -0.4950 -0.3688  1.1141
  157SAPE   H6Y17486   5.588   4.670   5.529 -0.8577 -1.4319 -2.0998
  157SAPE   C3717487   5.562   4.468   5.475 -0.4248 -0.5821 -0.3465
  157SAPE   H7X17488   5.452   4.481   5.479 -0.4801  0.2567 -2.8289
  157SAPE   H7Y17489   5.589   4.367   5.512  0.2899 -1.4093 -2.8945
  157SAPE   C3817490   5.605   4.493   5.330  0.0744  0.0350  0.0774
  157SAPE   H8X17491   5.714   4.472   5.322  0.1602  1.2059 -3.4193
  157SAPE   H8Y17492   5.589   4.602   5.312  0.6845  0.1432  0.1835
  157SAPE   C3917493   5.532   4.399   5.232 -0.3557 -0.0620  0.7528
  157SAPE   H9X17494   5.422   4.417   5.234 -0.6670 -1.7892  0.5426
  157SAPE   H9Y17495   5.542   4.293   5.261 -3.0215 -0.4406  0.4979
  157SAPE  C31017496   5.592   4.426   5.084  0.8605 -0.2030 -0.8626
  157SAPE  H10X17497   5.701   4.404   5.082  0.9020 -0.1512  0.1888
  157SAPE  H10Y17498   5.585   4.534   5.061 -0.1144  0.2399  1.2440
  157SAPE  C31117499   5.506   4.335   4.988 -0.4178  0.4760  0.1723
  157SAPE  H11X17500   5.406   4.384   4.987 -1.2481 -1.1518 -0.8540
  157SAPE  H11Y17501   5.503   4.237   5.041 -1.3323  0.2826 -0.2176
  157SAPE  C31217502   5.569   4.310   4.851  0.8988 -0.1893 -0.2323
  157SAPE  H12X17503   5.668   4.266   4.876 -0.0354 -0.8961  2.5051
  157SAPE  H12Y17504   5.589   4.403   4.793  0.3559 -0.2281 -0.4898
  157SAPE  C31317505   5.495   4.211   4.764  0.5969 -0.6175 -0.1518
  157SAPE  H13X17506   5.482   4.112   4.813 -1.4392  0.8721  2.5572
  157SAPE  H13Y17507   5.551   4.206   4.668  1.7467  1.4534  0.3614
  157SAPE  C31417508   5.347   4.259   4.728 -0.1075  0.1751  0.7637
  157SAPE  H14X17509   5.349   4.359   4.679 -2.2574 -0.0580  0.0932
  157SAPE  H14Y17510   5.300   4.260   4.828 -0.1633  2.7800  0.7759
  157SAPE  C31517511   5.280   4.157   4.630 -0.0395  0.2617 -0.6068
  157SAPE  H15X17512   5.314   4.052   4.645 -1.2699 -0.3141 -1.6298
  157SAPE  H15Y17513   5.303   4.183   4.525 -0.7145  0.2429 -0.7657
  157SAPE  C31617514   5.128   4.143   4.642 -0.7605 -0.3891 -0.6292
  157SAPE  H16X17515   5.089   4.226   4.581  1.7555  1.9885  0.7871
  157SAPE  H16Y17516   5.091   4.152   4.747  0.5452 -0.6797 -0.1184
  157SAPE  C31717517   5.054   4.014   4.603 -0.5910  0.0131  1.0893
  157SAPE  H17X17518   4.945   4.021   4.622 -0.9324 -1.0344 -0.2890
  157SAPE  H17Y17519   5.087   3.925   4.662 -2.4003 -0.3331  1.6192
  157SAPE  C31817520   5.066   3.972   4.459 -1.0913  0.3295 -0.7365
  157SAPE  H18X17521   5.172   3.952   4.433 -0.4846 -0.4665  1.9830
  157SAPE  H18Y17522   5.031   4.059   4.401 -0.1065  1.9345  0.9593
  157SAPE  H18Z17523   5.004   3.881   4.441  1.7080 -1.7460 -0.6200
  158SAPE     N17524   1.631   2.198   6.315  0.2246  0.2091  0.2388
  158SAPE   HN117525   1.723   2.220   6.360  0.3616 -0.8464  0.5111
  158SAPE   HN217526   1.605   2.260   6.236 -0.7646 -1.1235 -0.5304
  158SAPE   HN317527   1.558   2.194   6.389  0.5287 -2.4805  0.4949
  158SAPE   C1217528   1.615   2.054   6.280 -0.3941  0.0756  0.4474
  158SAPE  H12A17529   1.692   2.040   6.201 -0.6372  3.6613 -0.6331
  158SAPE  H12B17530   1.512   2.040   6.243  0.5383 -0.3384 -2.1706
  158SAPE   C1117531   1.658   1.964   6.386  0.2466  0.6354 -0.3396
  158SAPE  H11A17532   1.767   1.949   6.397  0.0132 -1.5689 -0.5758
  158SAPE  H11B17533   1.633   1.862   6.350 -0.6723  0.8511 -0.3570
  158SAPE     P17534   1.465   1.916   6.560  0.0775 -0.3595 -0.3005
  158SAPE   O1317535   1.511   1.776   6.601 -0.0706  0.1737 -0.1484
  158SAPE   O1417536   1.404   2.000   6.669  0.0429  0.2393 -0.0849
  158SAPE   O1217537   1.593   1.991   6.509  0.2473 -0.1439 -0.1753
  158SAPE   O1117538   1.384   1.910   6.431  0.3678  0.0219  0.1554
  158SAPE    C117539   1.246   1.895   6.441  0.4185 -0.5700  0.7579
  158SAPE    HA17540   1.234   1.794   6.487  1.9837 -1.3782 -0.5004
  158SAPE    HB17541   1.186   1.965   6.502 -0.7347 -1.0453  0.2083
  158SAPE    C217542   1.174   1.903   6.302 -0.9337 -0.1527 -0.0166
  158SAPE    HS17543   1.067   1.881   6.321 -1.0098  1.9117  2.3806
  158SAPE   O2117544   1.232   1.803   6.218  0.2987  0.0350  0.2898
  158SAPE   C2117545   1.218   1.674   6.255  0.1335 -0.5494 -0.0057
  158SAPE   O2217546   1.147   1.631   6.342  0.0492 -0.6112  0.2382
  158SAPE   C2217547   1.288   1.584   6.150  0.0874  0.0254  0.6667
  158SAPE   H2R17548   1.360   1.644   6.091  0.3354 -1.4411 -0.5730
  158SAPE   H2S17549   1.338   1.496   6.196  0.2310 -0.2146  0.0552
  158SAPE    C317550   1.181   2.042   6.224 -0.2778  0.4186 -0.4029
  158SAPE    HX17551   1.285   2.079   6.208 -0.0293 -0.1605 -0.1606
  158SAPE    HY17552   1.126   2.110   6.292 -0.0732  0.0414  0.1498
  158SAPE   O3117553   1.102   2.043   6.106  0.3949 -0.5802 -0.5356
  158SAPE   C3117554   1.160   2.058   5.993 -0.0357  0.1400 -0.5604
  158SAPE   O3217555   1.276   2.066   5.977  0.2062  0.1664 -0.3941
  158SAPE   C3217556   1.056   2.068   5.882 -0.9851 -0.4284 -0.4331
  158SAPE   H2X17557   0.955   2.083   5.926 -0.4516 -2.0258  1.5338
  158SAPE   H2Y17558   1.050   1.965   5.840  0.0681  0.0123 -1.7284
  158SAPE   C2317559   1.191   1.514   6.055  0.1978  0.1955  0.7957
  158SAPE   H3R17560   1.091   1.499   6.103 -0.8353  0.1647 -1.2537
  158SAPE   H3S17561   1.239   1.420   6.024 -1.5851 -1.0649  1.6596
  158SAPE   C2417562   1.164   1.605   5.932 -0.6838 -0.2919  0.2382
  158SAPE   H4R17563   1.261   1.619   5.880 -0.3509 -0.2906  0.8416
  158SAPE   H4S17564   1.135   1.704   5.974 -0.3471  0.6154 -1.5816
  158SAPE   C2517565   1.059   1.547   5.839  0.1834 -0.0580  0.1926
  158SAPE   H5R17566   0.995   1.470   5.885  0.8151 -0.4826  0.3694
  158SAPE   C2617567   1.045   1.562   5.706  0.8165 -0.4744 -0.3017
  158SAPE   H6R17568   0.952   1.525   5.660 -0.8415  1.7847  1.0338
  158SAPE   C2717569   1.132   1.652   5.617 -0.2386 -0.7794  0.8381
  158SAPE   H7R17570   1.205   1.605   5.548  0.6921  0.9888  0.5611
  158SAPE   H7S17571   1.201   1.713   5.679 -1.3672  1.2108  0.2323
  158SAPE   C2817572   1.047   1.741   5.523  0.0210  0.4224  0.3750
  158SAPE   H8R17573   0.940   1.718   5.520  0.3757 -1.4023  0.2695
  158SAPE   C2917574   1.096   1.824   5.434 -0.2193 -0.2716  0.3926
  158SAPE   H9R17575   1.021   1.870   5.367 -0.9213  0.2807  1.5261
  158SAPE  C21017576   1.240   1.866   5.408  0.2622  0.6281 -0.3826
  158SAPE  H10R17577   1.307   1.827   5.487  2.0917  3.0338 -0.6369
  158SAPE  H10S17578   1.244   1.976   5.412 -0.6964  0.6254  1.0967
  158SAPE  C21117579   1.280   1.807   5.274 -0.1834  0.3913  0.6701
  158SAPE  H11R17580   1.314   1.703   5.277 -1.7427 -0.1753 -0.2556
  158SAPE  C21217581   1.273   1.874   5.160 -0.4902 -0.1487  0.3450
  158SAPE  H12R17582   1.309   1.836   5.064  2.2437  1.0181  0.8122
  158SAPE  C21317583   1.214   2.014   5.140 -0.6394 -0.3222 -0.3672
  158SAPE  H13R17584   1.222   2.075   5.233 -1.9856 -0.6990  0.0109
  158SAPE  H13S17585   1.107   2.011   5.111 -0.4841 -1.4458 -0.8564
  158SAPE  C21417586   1.298   2.086   5.037 -0.3811  0.0752 -0.4395
  158SAPE  H14R17587   1.390   2.127   5.082 -0.6058 -0.0885  0.1732
  158SAPE  C21517588   1.252   2.123   4.915  0.1610  0.1304 -0.1121
  158SAPE  H15R17589   1.309   2.201   4.862  1.0137  0.0539  0.6497
  158SAPE  C21617590   1.138   2.071   4.833  0.4066 -0.3352 -0.0305
  158SAPE  H16R17591   1.063   2.153   4.828  1.9614  1.2021  0.7040
  158SAPE  H16S17592   1.089   1.990   4.890  0.0772 -0.9010 -1.1009
  158SAPE  C21717593   1.175   2.021   4.695 -0.4274  0.2450  0.2189
  158SAPE  H17R17594   1.248   1.939   4.710 -1.9909 -0.9009  2.1075
  158SAPE  H17S17595   1.218   2.103   4.633  0.2097 -0.3778 -0.1701
  158SAPE  C21817596   1.055   1.954   4.617 -0.0409 -0.3395 -0.5099
  158SAPE  H18R17597   1.022   1.859   4.663 -1.8024  0.9150  0.9872
  158SAPE  H18S17598   1.100   1.928   4.519 -1.0709  0.9728 -1.3641
  158SAPE  C21917599   0.934   2.048   4.586  0.3812 -0.6266 -0.0473
  158SAPE  H19R17600   0.971   2.146   4.550  0.1160 -0.7696 -0.7254
  158SAPE  H19S17601   0.889   2.078   4.683  0.1948  2.8576 -1.0793
  158SAPE  C22017602   0.831   1.997   4.481 -0.2236  0.9483 -0.6364
  158SAPE  H20R17603   0.806   1.890   4.501  1.1221  1.0993  2.4382
  158SAPE  H20S17604   0.883   2.002   4.383  0.0986  0.9990 -0.4646
  158SAPE  H20T17605   0.740   2.059   4.471  0.8548  2.9929  1.3406
  158SAPE   C3317606   1.077   2.164   5.761  0.1103 -0.3001  0.2048
  158SAPE   H3X17607   1.184   2.164   5.730  0.2854  3.1606  0.4602
  158SAPE   H3Y17608   1.074   2.272   5.788  2.4557  0.0953 -0.8421
  158SAPE   C3417609   0.982   2.139   5.640 -0.1879 -0.0302  0.9167
  158SAPE   H4X17610   0.878   2.165   5.669 -0.4303 -1.1859  1.1194
  158SAPE   H4Y17611   0.988   2.030   5.618 -0.6157  0.3705 -1.5114
  158SAPE   C3517612   1.030   2.225   5.516 -0.7038 -0.5275  0.0502
  158SAPE   H5X17613   1.130   2.199   5.474 -0.5528 -0.4534  0.3563
  158SAPE   H5Y17614   1.021   2.333   5.543  0.3156 -0.6551  0.9796
  158SAPE   C3617615   0.939   2.200   5.397 -0.6039 -0.0877  0.7804
  158SAPE   H6X17616   0.836   2.224   5.433 -1.0761  0.5142 -0.8635
  158SAPE   H6Y17617   0.941   2.093   5.365 -4.5840  0.8436 -3.9251
  158SAPE   C3717618   0.974   2.280   5.270 -0.2672 -0.3021  0.6148
  158SAPE   H7X17619   1.080   2.276   5.239 -1.0903  1.7405 -3.0816
  158SAPE   H7Y17620   0.963   2.385   5.305 -2.3325  0.3178 -1.5905
  158SAPE   C3817621   0.896   2.240   5.140 -0.2426 -0.7390  0.2905
  158SAPE   H8X17622   0.882   2.130   5.142 -0.2702 -0.9110 -3.4632
  158SAPE   H8Y17623   0.960   2.256   5.051 -0.4638  0.4961  0.3394
  158SAPE   C3917624   0.765   2.317   5.123  0.3662 -0.2075  0.0402
  158SAPE   H9X17625   0.800   2.422   5.114 -1.7925  0.9964  3.8483
  158SAPE   H9Y17626   0.697   2.308   5.210  0.2234  1.8380  0.1843
  158SAPE  C31017627   0.669   2.268   5.013 -0.2112 -0.0834  0.4833
  158SAPE  H10X17628   0.576   2.328   5.011 -0.6725 -0.8069  0.1975
  158SAPE  H10Y17629   0.648   2.160   5.023  1.0652 -0.2674  1.4998
  158SAPE  C31117630   0.720   2.287   4.867 -0.7759 -0.0976 -1.2759
  158SAPE  H11X17631   0.638   2.248   4.803 -1.8654 -0.0512  0.0460
  158SAPE  H11Y17632   0.804   2.218   4.847 -0.2702  0.3631 -0.7778
  158SAPE  C31217633   0.763   2.438   4.826  0.3554 -0.4438 -0.5880
  158SAPE  H12X17634   0.822   2.467   4.916 -2.1405 -0.1263  1.0487
  158SAPE  H12Y17635   0.670   2.498   4.830 -0.4176 -1.6096 -0.4287
  158SAPE  C31317636   0.848   2.457   4.705 -0.5859  0.6146  0.9531
  158SAPE  H13X17637   0.839   2.362   4.648 -1.3320  0.1225  1.8760
  158SAPE  H13Y17638   0.956   2.464   4.729  0.0247 -0.1425 -1.2830
  158SAPE  C31417639   0.793   2.567   4.624 -0.3392  0.1984  0.5164
  158SAPE  H14X17640   0.878   2.609   4.566 -0.7124  0.1275 -0.0881
  158SAPE  H14Y17641   0.757   2.645   4.695  0.5761 -1.5230  3.0059
  158SAPE  C31517642   0.678   2.549   4.526 -0.0206 -0.1788 -0.1589
  158SAPE  H15X17643   0.650   2.654   4.502 -2.1724 -0.0997  2.2458
  158SAPE  H15Y17644   0.589   2.516   4.584  0.5738  0.4348  1.1327
  158SAPE  C31617645   0.707   2.462   4.400 -0.1823  0.4682 -0.1380
  158SAPE  H16X17646   0.740   2.363   4.439 -2.1200 -0.7689 -1.4520
  158SAPE  H16Y17647   0.791   2.515   4.351  0.0481  0.9745  0.7817
  158SAPE  C31717648   0.586   2.436   4.305 -0.2262 -0.0503 -0.4185
  158SAPE  H17X17649   0.556   2.529   4.251 -0.1399  0.9553  1.2084
  158SAPE  H17Y17650   0.488   2.409   4.351 -1.7211  3.2676 -1.3273
  158SAPE  C31817651   0.616   2.321   4.200 -0.0126  0.1733 -0.3982
  158SAPE  H18X17652   0.686   2.374   4.132  0.5801  1.6912  1.2982
  158SAPE  H18Y17653   0.526   2.281   4.149  0.6707  0.3691 -1.8042
  158SAPE  H18Z17654   0.663   2.231   4.245  0.2952  0.2440 -0.5720
  159SAPE     N17655   0.020   2.663   2.367  0.0430 -0.0896 -0.5966
  159SAPE   HN117656  -0.053   2.634   2.436 -1.0487 -0.0913 -1.7170
  159SAPE   HN217657   0.093   2.715   2.419 -0.8807  1.3643 -0.7009
  159SAPE   HN317658  -0.025   2.736   2.310  0.2112  2.2583  2.0511
  159SAPE   C1217659   0.076   2.542   2.302  0.8434  0.9904 -0.2271
  159SAPE  H12A17660   0.163   2.580   2.244 -0.6111  1.8996 -1.9105
  159SAPE  H12B17661   0.007   2.513   2.220 -0.1492  0.8100  0.6523
  159SAPE   C1117662   0.097   2.428   2.412 -0.3320 -0.1800 -0.1309
  159SAPE  H11A17663   0.187   2.446   2.474 -0.4582 -0.4299  0.1253
  159SAPE  H11B17664   0.116   2.337   2.351 -1.2785 -1.1964  1.0350
  159SAPE     P17665  -0.144   2.331   2.444 -0.1867 -0.1530  0.3944
  159SAPE   O1317666  -0.203   2.420   2.346  0.5348 -0.3373  0.4786
  159SAPE   O1417667  -0.109   2.192   2.403  0.0170 -0.4454 -0.4631
  159SAPE   O1217668  -0.012   2.401   2.502  0.1398  0.2430 -0.1176
  159SAPE   O1117669  -0.243   2.316   2.567  0.1210  0.3938 -0.2454
  159SAPE    C117670  -0.196   2.360   2.695  0.6973 -0.1513  0.6492
  159SAPE    HA17671  -0.159   2.464   2.688  0.8648 -0.1295  1.6882
  159SAPE    HB17672  -0.283   2.342   2.762  0.3091  2.4022  0.9316
  159SAPE    C217673  -0.089   2.267   2.765 -0.4466  0.4797 -0.7754
  159SAPE    HS17674   0.007   2.269   2.708  0.9799 -0.4743  1.4723
  159SAPE   O2117675  -0.147   2.136   2.777  0.2684 -0.4927  0.5095
  159SAPE   C2117676  -0.066   2.046   2.811  0.0142  0.0186  0.3851
  159SAPE   O2217677   0.056   2.056   2.832  0.2559 -0.8064  0.4140
  159SAPE   C2217678  -0.145   1.922   2.822  0.7187  0.2170  0.7338
  159SAPE   H2R17679  -0.253   1.938   2.841  0.0778 -2.7936  0.1946
  159SAPE   H2S17680  -0.143   1.865   2.726 -0.4647 -3.3398  2.6528
  159SAPE    C317681  -0.062   2.319   2.910  0.2510 -0.8035 -0.1391
  159SAPE    HX17682  -0.003   2.413   2.900  1.8792 -1.9115 -1.3771
  159SAPE    HY17683   0.007   2.256   2.970  0.0191 -0.3729  0.5926
  159SAPE   O3117684  -0.185   2.329   2.986 -0.0202 -0.1575  0.4764
  159SAPE   C3117685  -0.163   2.378   3.114  0.0634 -0.5317  0.4291
  159SAPE   O3217686  -0.055   2.410   3.163  0.6957 -0.0105 -0.6679
  159SAPE   C3217687  -0.297   2.373   3.195 -0.1559 -0.3956  0.0318
  159SAPE   H2X17688  -0.350   2.276   3.183 -1.1342 -0.0777  1.5045
  159SAPE   H2Y17689  -0.354   2.456   3.148  1.7770  0.6517 -0.5774
  159SAPE   C2317690  -0.098   1.828   2.929  0.9034 -0.0852  0.0277
  159SAPE   H3R17691   0.011   1.841   2.941  0.8634 -0.7075  1.1477
  159SAPE   H3S17692  -0.126   1.729   2.888  0.0092 -0.9192  2.4653
  159SAPE   C2417693  -0.177   1.853   3.059  0.3185  0.8782 -0.2032
  159SAPE   H4R17694  -0.204   1.768   3.125  0.7521  0.0367 -1.0834
  159SAPE   H4S17695  -0.278   1.881   3.023 -0.5164 -2.3921 -0.7599
  159SAPE   C2517696  -0.116   1.961   3.139 -0.3359 -0.0555  0.1289
  159SAPE   H5R17697  -0.029   2.006   3.088 -0.6455  1.4373  0.8708
  159SAPE   C2617698  -0.166   2.011   3.257 -0.8286 -0.0364  0.7008
  159SAPE   H6R17699  -0.117   2.097   3.306 -0.3177  1.5096 -2.2668
  159SAPE   C2717700  -0.295   1.967   3.327 -0.8398 -0.2134 -0.1642
  159SAPE   H7R17701  -0.304   2.028   3.419  2.5733  2.5988 -1.4694
  159SAPE   H7S17702  -0.290   1.857   3.346 -1.5311 -0.4504 -1.2500
  159SAPE   C2817703  -0.425   1.980   3.252  0.0154 -0.4805 -0.8798
  159SAPE   H8R17704  -0.428   2.034   3.156 -0.8692 -1.9790 -1.7346
  159SAPE   C2917705  -0.542   1.913   3.289 -0.9102 -1.0880  0.1425
  159SAPE   H9R17706  -0.631   1.925   3.226 -0.7337  0.9216  0.2103
  159SAPE  C21017707  -0.555   1.813   3.404  0.1104 -0.2464 -0.0328
  159SAPE  H10R17708  -0.456   1.792   3.450 -0.6264 -2.1767  0.7727
  159SAPE  H10S17709  -0.598   1.716   3.370 -0.5696  0.0977 -0.1785
  159SAPE  C21117710  -0.638   1.868   3.518  0.5659 -0.2912 -0.0724
  159SAPE  H11R17711  -0.733   1.909   3.480 -0.2522 -0.9229  1.1832
  159SAPE  C21217712  -0.613   1.863   3.649  0.1912  0.5587 -0.2394
  159SAPE  H12R17713  -0.685   1.912   3.716  0.8875  0.3599  0.6842
  159SAPE  C21317714  -0.491   1.796   3.707 -0.5443 -0.3744 -0.5837
  159SAPE  H13R17715  -0.398   1.817   3.651  0.0607 -3.1552 -0.7593
  159SAPE  H13S17716  -0.517   1.688   3.711 -3.0317  0.1520  2.7891
  159SAPE  C21417717  -0.450   1.823   3.851  0.5664 -0.1807  0.6771
  159SAPE  H14R17718  -0.345   1.854   3.858  0.8749 -0.5487 -1.5613
  159SAPE  C21517719  -0.533   1.809   3.958  0.3353  0.0179  0.6873
  159SAPE  H15R17720  -0.494   1.836   4.057 -1.8228 -0.6528  1.7929
  159SAPE  C21617721  -0.678   1.767   3.970 -0.1662 -1.1541 -0.4129
  159SAPE  H16R17722  -0.687   1.671   4.026  0.3256  0.3601  2.4201
  159SAPE  H16S17723  -0.733   1.764   3.873 -0.4491  0.7916 -0.3493
  159SAPE  C21717724  -0.755   1.873   4.049 -0.5137 -0.1790  0.0881
  159SAPE  H17R17725  -0.859   1.853   4.017 -0.0819 -2.2243 -0.1946
  159SAPE  H17S17726  -0.720   1.976   4.025  1.8623 -1.0975 -0.6798
  159SAPE  C21817727  -0.751   1.850   4.205  0.2415 -0.3835 -0.5775
  159SAPE  H18R17728  -0.651   1.887   4.236  2.0706 -2.8718 -3.0195
  159SAPE  H18S17729  -0.764   1.745   4.239 -0.6793  0.3114  1.3721
  159SAPE  C21917730  -0.856   1.945   4.271 -0.0204 -0.0538  0.1041
  159SAPE  H19R17731  -0.954   1.893   4.263  0.3872 -1.4002  2.7085
  159SAPE  H19S17732  -0.861   2.035   4.208 -1.4513  0.3532  0.7449
  159SAPE  C22017733  -0.838   1.970   4.421  0.2946 -0.1969  0.2592
  159SAPE  H20R17734  -0.793   1.878   4.463 -1.1757 -0.7100  0.7942
  159SAPE  H20S17735  -0.929   2.004   4.476 -0.2542  0.6656 -1.1173
  159SAPE  H20T17736  -0.758   2.046   4.431  0.1247 -0.1074  0.9835
  159SAPE   C3317737  -0.277   2.410   3.342 -0.1427  0.4563  0.6094
  159SAPE   H3X17738  -0.269   2.520   3.354  0.6681  0.7189 -1.7463
  159SAPE   H3Y17739  -0.185   2.376   3.393 -0.3099 -0.2737  0.4306
  159SAPE   C3417740  -0.393   2.352   3.426 -0.0395  0.6887 -0.6870
  159SAPE   H4X17741  -0.370   2.245   3.440 -0.3171  0.4417 -2.0056
  159SAPE   H4Y17742  -0.492   2.361   3.375 -0.1766  2.4847 -0.1963
  159SAPE   C3517743  -0.397   2.415   3.574 -0.5295 -0.3926 -0.1243
  159SAPE   H5X17744  -0.421   2.524   3.566  1.6860  0.1323 -0.4393
  159SAPE   H5Y17745  -0.298   2.404   3.624 -0.9278 -2.4463  0.2656
  159SAPE   C3617746  -0.501   2.342   3.663  0.1881  0.2096 -0.3008
  159SAPE   H6X17747  -0.599   2.336   3.610  1.0729 -2.6942 -1.8411
  159SAPE   H6Y17748  -0.507   2.405   3.754 -0.5541 -0.0980 -0.1312
  159SAPE   C3717749  -0.454   2.200   3.703  0.5144  0.2148 -0.4850
  159SAPE   H7X17750  -0.455   2.138   3.611 -1.3208  0.0147 -0.3605
  159SAPE   H7Y17751  -0.533   2.157   3.768  1.9002  0.0211  1.1363
  159SAPE   C3817752  -0.316   2.195   3.770 -0.4346  0.2930  0.2640
  159SAPE   H8X17753  -0.241   2.242   3.702 -0.7334 -0.3242 -0.5059
  159SAPE   H8Y17754  -0.286   2.088   3.769 -0.5713  0.2543 -0.3174
  159SAPE   C3917755  -0.299   2.262   3.903 -0.3343  0.3073 -0.2727
  159SAPE   H9X17756  -0.342   2.364   3.906  2.5199  1.5790  0.9473
  159SAPE   H9Y17757  -0.194   2.265   3.938 -0.0426 -0.2987 -1.0619
  159SAPE  C31017758  -0.374   2.177   4.016 -0.9226 -0.5460  0.6583
  159SAPE  H10X17759  -0.338   2.072   4.023 -0.3138 -0.2997  1.4307
  159SAPE  H10Y17760  -0.479   2.174   3.981 -1.0461  0.9546  0.8499
  159SAPE  C31117761  -0.359   2.256   4.147 -0.1527 -0.5600  0.4747
  159SAPE  H11X17762  -0.404   2.357   4.150  0.7809 -0.0938 -0.4287
  159SAPE  H11Y17763  -0.250   2.266   4.170  0.1600  0.4165 -1.2231
  159SAPE  C31217764  -0.411   2.181   4.269 -0.0353 -0.1598  0.3696
  159SAPE  H12X17765  -0.366   2.080   4.264  3.9495  1.4303  0.2023
  159SAPE  H12Y17766  -0.521   2.172   4.257  0.1089  0.7164 -2.7950
  159SAPE  C31317767  -0.381   2.255   4.401  0.0810  0.1228 -0.3158
  159SAPE  H13X17768  -0.430   2.355   4.402 -3.3949 -1.4324  1.1418
  159SAPE  H13Y17769  -0.271   2.268   4.409  0.1581  0.5321 -1.6872
  159SAPE  C31417770  -0.430   2.174   4.521 -0.2950  0.0183  0.2716
  159SAPE  H14X17771  -0.409   2.065   4.510 -0.8939 -0.1596  0.8409
  159SAPE  H14Y17772  -0.541   2.172   4.521 -0.3145  0.5574 -0.3024
  159SAPE  C31517773  -0.382   2.228   4.658 -0.4108  0.5628  0.1996
  159SAPE  H15X17774  -0.440   2.314   4.698 -1.6846 -0.3401  0.3472
  159SAPE  H15Y17775  -0.280   2.271   4.647  1.1095 -2.5770  0.9734
  159SAPE  C31617776  -0.385   2.116   4.772 -0.3439  0.4906  0.5284
  159SAPE  H16X17777  -0.322   2.030   4.742  1.3067  1.5752  0.7247
  159SAPE  H16Y17778  -0.489   2.079   4.783 -1.2481  2.5785 -0.4647
  159SAPE  C31717779  -0.321   2.165   4.903 -0.0948  0.6531 -0.4317
  159SAPE  H17X17780  -0.321   2.074   4.966 -0.2541  0.2001 -1.0689
  159SAPE  H17Y17781  -0.395   2.230   4.954 -0.4137  0.6376 -0.8576
  159SAPE  C31817782  -0.178   2.239   4.900 -0.1809  0.8548  0.3870
  159SAPE  H18X17783  -0.109   2.177   4.838 -0.2160  1.2437 -0.0426
  159SAPE  H18Y17784  -0.129   2.242   5.000  0.3736 -0.7050  0.1949
  159SAPE  H18Z17785  -0.195   2.342   4.864 -0.1768 -0.3279 -3.4419
  160SAPE     N17786   5.020   6.812   2.124  0.2039  0.0572  0.0906
  160SAPE   HN117787   5.025   6.800   2.228 -1.0248 -0.2159  0.1331
  160SAPE   HN217788   5.105   6.757   2.099  0.2051 -0.0164  0.2532
  160SAPE   HN317789   5.030   6.912   2.097 -1.4954  1.9311  5.0982
  160SAPE   C1217790   4.894   6.742   2.090  0.9337  0.5309 -0.5448
  160SAPE  H12A17791   4.893   6.710   1.984  0.5639  1.0333 -0.6967
  160SAPE  H12B17792   4.806   6.807   2.109  0.4590 -0.6236  1.5225
  160SAPE   C1117793   4.881   6.621   2.181 -0.0996  0.1454  0.7950
  160SAPE  H11A17794   4.972   6.558   2.167 -0.5767 -0.2175 -0.9473
  160SAPE  H11B17795   4.793   6.567   2.140  0.3888  0.0549 -0.1728
  160SAPE     P17796   4.773   6.572   2.415  0.4338  0.0375  0.2225
  160SAPE   O1317797   4.631   6.595   2.382  0.7447 -0.2070  0.4025
  160SAPE   O1417798   4.826   6.438   2.407  0.1647  0.4512  0.4350
  160SAPE   O1217799   4.866   6.662   2.318  0.3255  0.4438 -0.1359
  160SAPE   O1117800   4.802   6.646   2.550  0.5634 -0.0783 -0.2728
  160SAPE    C117801   4.817   6.784   2.543  0.1222  0.0467 -0.1811
  160SAPE    HA17802   4.917   6.809   2.503  0.4558 -1.9562 -0.6725
  160SAPE    HB17803   4.738   6.836   2.483  1.1723  1.3528 -0.4805
  160SAPE    C217804   4.794   6.854   2.682  0.1539 -0.3878  0.3061
  160SAPE    HS17805   4.796   6.964   2.668  1.4394 -0.5226 -0.7796
  160SAPE   O2117806   4.892   6.819   2.779 -0.5802 -0.1031 -0.1498
  160SAPE   C2117807   5.011   6.880   2.772 -0.2518 -0.3887  0.3290
  160SAPE   O2217808   5.047   6.949   2.679  0.4668 -0.3164 -0.0226
  160SAPE   C2217809   5.078   6.865   2.910  0.2794 -0.0316  0.1027
  160SAPE   H2R17810   5.060   6.767   2.960  1.0574  0.0719  0.6127
  160SAPE   H2S17811   5.184   6.891   2.891  0.6358  1.8655  3.6286
  160SAPE    C317812   4.650   6.804   2.725  0.2478 -0.2785  0.4386
  160SAPE    HX17813   4.650   6.695   2.747  0.8037 -0.3260  0.2065
  160SAPE    HY17814   4.570   6.809   2.648  0.9099 -0.3857 -0.2685
  160SAPE   O3117815   4.618   6.877   2.848 -0.3810 -0.4242 -0.0113
  160SAPE   C3117816   4.494   6.901   2.869 -0.0208  0.1054 -0.0508
  160SAPE   O3217817   4.399   6.859   2.807  0.2090  0.3685  0.0996
  160SAPE   C3217818   4.481   6.959   3.013 -1.0580  0.5120 -0.5596
  160SAPE   H2X17819   4.541   7.052   3.021  0.1220 -0.2383 -0.3097
  160SAPE   H2Y17820   4.529   6.878   3.073 -1.2297  0.6235 -0.2727
  160SAPE   C2317821   5.041   6.983   2.998  0.3941  0.0082  0.6425
  160SAPE   H3R17822   4.939   6.977   3.043 -0.2443  2.7188 -0.2719
  160SAPE   H3S17823   5.041   7.075   2.937 -2.1949 -0.6587 -0.5019
  160SAPE   C2417824   5.139   7.019   3.120  0.2363 -0.1776 -0.2048
  160SAPE   H4R17825   5.102   7.103   3.183 -1.3162  0.1022 -1.4205
  160SAPE   H4S17826   5.229   7.067   3.074  1.0636 -0.1052  1.4304
  160SAPE   C2517827   5.170   6.902   3.208  0.2448  0.4537  0.6780
  160SAPE   H5R17828   5.237   6.827   3.163  0.4438  0.5494  0.8183
  160SAPE   C2617829   5.107   6.878   3.324  1.0493  0.3041  0.0747
  160SAPE   H6R17830   5.135   6.788   3.379 -1.9632 -0.3266  0.7540
  160SAPE   C2717831   5.018   6.986   3.394  0.6449 -0.2947 -0.6077
  160SAPE   H7R17832   4.939   6.931   3.450  0.5125 -1.2172 -1.6515
  160SAPE   H7S17833   4.960   7.051   3.325  0.5045  0.0864 -0.1301
  160SAPE   C2817834   5.111   7.072   3.479 -0.2109  0.1023  0.4175
  160SAPE   H8R17835   5.183   7.133   3.422 -1.7558 -0.3613 -2.1680
  160SAPE   C2917836   5.114   7.100   3.608  0.0285 -0.0895  0.7677
  160SAPE   H9R17837   5.185   7.170   3.656 -0.0276  0.7469 -0.3257
  160SAPE  C21017838   5.021   7.039   3.712 -0.0419 -0.4815 -0.2334
  160SAPE  H10R17839   4.915   7.028   3.682 -0.6947  0.7779  1.4267
  160SAPE  H10S17840   5.012   7.118   3.790  0.1031  0.5058 -1.2012
  160SAPE  C21117841   5.074   6.899   3.758  0.5361 -0.2253  0.0844
  160SAPE  H11R17842   5.084   6.830   3.673  2.0669 -1.5854  1.3023
  160SAPE  C21217843   5.116   6.860   3.880 -0.0479 -0.2186  0.3778
  160SAPE  H12R17844   5.154   6.758   3.891 -3.0893 -1.2194  4.6971
  160SAPE  C21317845   5.096   6.933   4.006 -0.1220 -0.7013 -0.8245
  160SAPE  H13R17846   5.007   6.999   4.005  1.4975  1.7640  1.6660
  160SAPE  H13S17847   5.181   7.003   4.022 -0.3982 -0.0030 -2.2293
  160SAPE  C21417848   5.084   6.848   4.128 -0.2015  0.3620 -0.1232
  160SAPE  H14R17849   5.075   6.742   4.101  1.5197  0.5209 -1.4617
  160SAPE  C21517850   5.074   6.892   4.255 -0.0662 -0.7174  0.0361
  160SAPE  H15R17851   5.065   6.817   4.335 -0.9152 -0.3236  0.3125
  160SAPE  C21617852   5.070   7.038   4.300  0.0908  0.3196  0.7257
  160SAPE  H16R17853   4.969   7.065   4.336  0.7144  1.0810  1.9804
  160SAPE  H16S17854   5.096   7.108   4.217  0.7926 -1.0403 -0.2424
  160SAPE  C21717855   5.152   7.067   4.425  0.7267  0.5181 -0.1677
  160SAPE  H17R17856   5.252   7.023   4.405  0.5316  1.6121 -4.7608
  160SAPE  H17S17857   5.129   7.017   4.521  1.4708 -0.7907 -0.6390
  160SAPE  C21817858   5.157   7.222   4.441  0.5293 -0.7593 -0.1026
  160SAPE  H18R17859   5.054   7.256   4.466  0.9128  0.8426 -0.5802
  160SAPE  H18S17860   5.187   7.268   4.344 -1.2191 -0.5024 -0.5536
  160SAPE  C21917861   5.246   7.278   4.551 -0.5926  0.3995 -0.3553
  160SAPE  H19R17862   5.349   7.239   4.537 -0.1222  0.7836  1.7417
  160SAPE  H19S17863   5.218   7.250   4.655 -1.7716 -0.7353 -0.9416
  160SAPE  C22017864   5.245   7.429   4.557  0.6404  0.4746  0.4686
  160SAPE  H20R17865   5.142   7.470   4.549  0.3564 -0.4770 -1.1254
  160SAPE  H20S17866   5.305   7.458   4.468 -1.1888  0.7554 -0.7051
  160SAPE  H20T17867   5.301   7.457   4.650 -0.3024  0.6131  1.0053
  160SAPE   C3317868   4.336   6.970   3.077 -0.3450  0.2205  0.1273
  160SAPE   H3X17869   4.281   6.878   3.044 -2.0622  0.7061  1.5017
  160SAPE   H3Y17870   4.277   7.049   3.026 -0.4373 -0.3641 -0.6934
  160SAPE   C3417871   4.334   6.989   3.222  0.0143  0.2037  0.0207
  160SAPE   H4X17872   4.411   7.062   3.256 -1.1857  1.0043  1.1126
  160SAPE   H4Y17873   4.378   6.896   3.265 -0.1823  0.2071  0.2262
  160SAPE   C3517874   4.187   7.000   3.268  0.1186 -0.1059  0.5308
  160SAPE   H5X17875   4.125   6.909   3.255  0.3376 -0.2864  0.7500
  160SAPE   H5Y17876   4.138   7.082   3.211  0.0329  0.4567  1.4005
  160SAPE   C3617877   4.179   7.019   3.423  1.0628 -0.1788 -0.1496
  160SAPE   H6X17878   4.246   7.102   3.453 -2.1084  1.0255  4.8752
  160SAPE   H6Y17879   4.215   6.936   3.488  2.3609  1.1091  0.8404
  160SAPE   C3717880   4.034   7.042   3.458  0.2737  0.0933 -0.2922
  160SAPE   H7X17881   3.964   6.969   3.412  0.3889 -0.4851  0.4411
  160SAPE   H7Y17882   4.000   7.135   3.408 -1.8971 -0.9295 -0.8450
  160SAPE   C3817883   3.998   7.066   3.605 -1.0745  0.1097  0.5652
  160SAPE   H8X17884   3.964   6.975   3.660 -1.1238  0.2675  0.7967
  160SAPE   H8Y17885   3.907   7.127   3.618 -2.4470 -2.1083  2.1642
  160SAPE   C3917886   4.115   7.115   3.688 -0.2485  0.6662  0.4270
  160SAPE   H9X17887   4.165   7.199   3.635 -1.5822  1.9403  1.0978
  160SAPE   H9Y17888   4.193   7.038   3.704 -0.5922 -0.3487 -2.2879
  160SAPE  C31017889   4.062   7.170   3.822 -0.5984  0.4508 -0.4356
  160SAPE  H10X17890   3.999   7.091   3.867 -1.9460  1.5819 -0.2916
  160SAPE  H10Y17891   3.991   7.255   3.820 -0.2289  0.8275  1.1079
  160SAPE  C31117892   4.178   7.212   3.923 -0.5432  0.0253  0.4167
  160SAPE  H11X17893   4.239   7.293   3.877  0.0302 -0.0657  1.0053
  160SAPE  H11Y17894   4.254   7.132   3.930 -1.7248 -0.9841  2.8682
  160SAPE  C31217895   4.131   7.256   4.064 -0.3024  0.0333  0.0149
  160SAPE  H12X17896   4.090   7.161   4.104  1.9446 -1.2981 -0.6961
  160SAPE  H12Y17897   4.042   7.322   4.049 -0.8088 -0.6078  0.1692
  160SAPE  C31317898   4.245   7.311   4.151 -0.0357  0.0814  0.5003
  160SAPE  H13X17899   4.286   7.410   4.123  0.6402 -0.5900 -0.9692
  160SAPE  H13Y17900   4.335   7.247   4.144 -0.6589 -0.8224  0.5120
  160SAPE  C31417901   4.186   7.327   4.293 -0.4211  0.1925  0.1579
  160SAPE  H14X17902   4.280   7.334   4.352  0.4085  0.9574 -1.2042
  160SAPE  H14Y17903   4.127   7.239   4.326 -2.2068  0.2975 -2.4534
  160SAPE  C31517904   4.091   7.441   4.303  0.4061 -0.0730 -1.0007
  160SAPE  H15X17905   4.003   7.416   4.240 -0.0413 -1.5867  0.1676
  160SAPE  H15Y17906   4.137   7.533   4.260  1.7896 -0.6357 -0.7590
  160SAPE  C31617907   4.035   7.450   4.443 -0.1526  0.2321  0.5154
  160SAPE  H16X17908   4.128   7.465   4.502 -0.2045 -2.1441  1.3200
  160SAPE  H16Y17909   3.997   7.349   4.471  1.1031 -0.7283 -1.0793
  160SAPE  C31717910   3.923   7.557   4.456 -0.1440 -0.9870  0.1683
  160SAPE  H17X17911   3.878   7.572   4.355  0.9334  0.7522 -0.1103
  160SAPE  H17Y17912   3.971   7.654   4.483  1.0984 -0.6710 -2.7753
  160SAPE  C31817913   3.807   7.516   4.545 -0.0510  0.0865 -0.0993
  160SAPE  H18X17914   3.717   7.581   4.539  0.1478  0.4362  0.5874
  160SAPE  H18Y17915   3.838   7.528   4.651 -3.0226 -0.7512  0.9645
  160SAPE  H18Z17916   3.777   7.411   4.526  0.9998 -0.2891  0.2447
  161SAPE     N17917   2.886   3.775   2.234 -0.0378  0.0524 -0.9575
  161SAPE   HN117918   2.989   3.761   2.240 -0.4740 -3.4282  3.0192
  161SAPE   HN217919   2.866   3.872   2.267  0.6002 -0.5230  1.2614
  161SAPE   HN317920   2.848   3.706   2.302 -0.5069  1.1581 -0.0680
  161SAPE   C1217921   2.826   3.726   2.104 -0.2737 -0.2004 -0.6897
  161SAPE  H12A17922   2.897   3.764   2.028  0.0991  0.8607  0.1635
  161SAPE  H12B17923   2.727   3.777   2.106 -0.4996 -0.6271 -0.8591
  161SAPE   C1117924   2.833   3.573   2.095 -0.1723 -0.1913 -0.2071
  161SAPE  H11A17925   2.780   3.542   2.002  0.8115  0.2164 -0.9151
  161SAPE  H11B17926   2.764   3.537   2.174 -1.6911 -1.7243 -2.1280
  161SAPE     P17927   2.983   3.361   2.090  0.1159  0.2031 -0.5397
  161SAPE   O1317928   2.854   3.290   2.098  0.4231 -0.6396  0.5854
  161SAPE   O1417929   3.082   3.321   1.990 -0.0484 -0.6784 -0.3782
  161SAPE   O1217930   2.964   3.518   2.101 -0.0608  0.0227 -0.4454
  161SAPE   O1117931   3.046   3.326   2.231  0.8871  0.2597  0.5778
  161SAPE    C117932   3.011   3.395   2.351  0.6309  0.1184 -0.3528
  161SAPE    HA17933   3.084   3.374   2.432 -0.6644 -1.6515  0.4281
  161SAPE    HB17934   3.006   3.506   2.343 -1.6386  0.4245  3.0044
  161SAPE    C217935   2.878   3.342   2.404  0.6508 -0.6140  0.5227
  161SAPE    HS17936   2.803   3.362   2.325  0.8835  3.3823  1.0614
  161SAPE   O2117937   2.837   3.403   2.532  0.6971 -0.5875 -0.1249
  161SAPE   C2117938   2.795   3.530   2.527  0.7678 -0.1592  0.0413
  161SAPE   O2217939   2.786   3.594   2.426  0.0647 -0.3125 -0.4759
  161SAPE   C2217940   2.751   3.571   2.666 -0.1937  0.0819 -0.3242
  161SAPE   H2R17941   2.833   3.530   2.728  1.8069  2.1001 -1.4798
  161SAPE   H2S17942   2.776   3.679   2.675  0.3839  0.0533 -1.4493
  161SAPE    C317943   2.889   3.195   2.429  0.0193 -0.0122  0.4477
  161SAPE    HX17944   2.955   3.161   2.512  1.2041 -1.2597 -0.9439
  161SAPE    HY17945   2.935   3.142   2.343  0.0493  0.8188 -0.0614
  161SAPE   O3117946   2.756   3.150   2.457  0.1627 -0.7687  0.3931
  161SAPE   C3117947   2.758   3.015   2.477  0.4044 -0.3805 -0.3197
  161SAPE   O3217948   2.853   2.941   2.459  0.3938 -0.8405 -0.3806
  161SAPE   C3217949   2.606   2.980   2.481  0.6107 -0.1884  0.1427
  161SAPE   H2X17950   2.563   3.004   2.381  0.5985 -2.8226 -0.5414
  161SAPE   H2Y17951   2.570   3.037   2.570  0.3177  0.8173 -0.5935
  161SAPE   C2317952   2.608   3.523   2.684 -0.1830  0.1177  0.0012
  161SAPE   H3R17953   2.609   3.412   2.685  1.9064  0.0973 -0.9054
  161SAPE   H3S17954   2.550   3.562   2.598 -0.7276 -0.9576 -0.1400
  161SAPE   C2417955   2.541   3.563   2.817 -1.4192 -0.2772 -0.3757
  161SAPE   H4R17956   2.570   3.670   2.815 -2.7490  0.0985 -1.7711
  161SAPE   H4S17957   2.606   3.511   2.891 -0.0799 -0.6613 -1.7839
  161SAPE   C2517958   2.391   3.550   2.827  0.3299  0.4714 -0.0708
  161SAPE   H5R17959   2.339   3.593   2.739 -0.6282  0.2056  0.3569
  161SAPE   C2617960   2.317   3.491   2.916 -0.0748  0.5931  0.5512
  161SAPE   H6R17961   2.208   3.485   2.903 -0.2365  3.3730  0.0465
  161SAPE   C2717962   2.376   3.431   3.040 -0.1352  0.4450 -0.3011
  161SAPE   H7R17963   2.417   3.511   3.104  0.5458 -0.5080  0.4900
  161SAPE   H7S17964   2.441   3.345   3.010 -3.7105 -1.8020 -2.4405
  161SAPE   C2817965   2.266   3.363   3.120  0.8649 -0.1936  0.5706
  161SAPE   H8R17966   2.196   3.296   3.068  0.9940 -0.1704  0.3625
  161SAPE   C2917967   2.261   3.364   3.256  0.3594  0.4640 -0.2628
  161SAPE   H9R17968   2.177   3.313   3.304  1.1498 -0.7299 -0.0932
  161SAPE  C21017969   2.342   3.433   3.361  0.0869  0.6900  0.2316
  161SAPE  H10R17970   2.277   3.480   3.438  0.2688 -2.2354  2.3387
  161SAPE  H10S17971   2.403   3.518   3.323 -0.4228  0.3527 -1.4060
  161SAPE  C21117972   2.428   3.327   3.432 -0.4806 -0.1254 -0.1649
  161SAPE  H11R17973   2.493   3.270   3.364  1.1717 -0.1025  1.3287
  161SAPE  C21217974   2.456   3.308   3.562 -0.3529  0.2111  0.0635
  161SAPE  H12R17975   2.531   3.233   3.591  0.1756  0.9843  0.7368
  161SAPE  C21317976   2.384   3.375   3.677  0.1398 -0.5410  0.0715
  161SAPE  H13R17977   2.351   3.477   3.650 -1.2082 -0.9947 -0.0820
  161SAPE  H13S17978   2.457   3.390   3.760 -0.5179 -0.5592  0.6690
  161SAPE  C21417979   2.265   3.300   3.731  0.7404  0.3625  0.2514
  161SAPE  H14R17980   2.225   3.216   3.672 -1.7474  1.2731  0.5050
  161SAPE  C21517981   2.206   3.329   3.844  0.4138  0.2921 -0.3249
  161SAPE  H15R17982   2.122   3.267   3.876 -0.1722  0.1912 -1.9612
  161SAPE  C21617983   2.248   3.437   3.938  0.2400  0.0569  0.1865
  161SAPE  H16R17984   2.292   3.525   3.886  0.4086 -0.3613 -0.3744
  161SAPE  H16S17985   2.326   3.406   4.012  2.4798 -0.1633 -2.1429
  161SAPE  C21717986   2.127   3.495   4.020 -0.6467  0.1067 -0.6270
  161SAPE  H17R17987   2.036   3.501   3.957 -1.8088 -1.1963  0.8873
  161SAPE  H17S17988   2.164   3.598   4.043  0.3281 -0.1952 -0.7963
  161SAPE  C21817989   2.096   3.425   4.157 -0.3933 -0.2062  0.5294
  161SAPE  H18R17990   2.188   3.430   4.218 -0.1541  1.9152  0.0976
  161SAPE  H18S17991   2.084   3.317   4.134 -2.0654  0.2365 -0.9377
  161SAPE  C21917992   1.978   3.490   4.233 -0.4587 -0.1987  0.4381
  161SAPE  H19R17993   2.009   3.594   4.257 -0.6927  0.7157 -2.7187
  161SAPE  H19S17994   1.956   3.432   4.325 -0.7178  1.6070  1.5745
  161SAPE  C22017995   1.851   3.502   4.145  0.0239 -0.3329 -0.3226
  161SAPE  H20R17996   1.816   3.403   4.107 -1.4312 -0.9228  2.3058
  161SAPE  H20S17997   1.863   3.562   4.052  1.1000  1.3197  0.8253
  161SAPE  H20T17998   1.768   3.553   4.199  1.5587  2.2115 -0.1968
  161SAPE   C3317999   2.588   2.835   2.511  0.7054  0.8819  0.0343
  161SAPE   H3X18000   2.623   2.776   2.423 -1.8149  0.5722 -0.8359
  161SAPE   H3Y18001   2.481   2.806   2.518  0.5308  1.9839  3.1651
  161SAPE   C3418002   2.647   2.786   2.645  0.2007 -0.4977 -0.1913
  161SAPE   H4X18003   2.750   2.827   2.659 -0.1972  0.5939 -0.3710
  161SAPE   H4Y18004   2.661   2.676   2.635  0.5542 -0.5515  0.8115
  161SAPE   C3518005   2.568   2.828   2.757  0.7703 -0.4397  0.3974
  161SAPE   H5X18006   2.467   2.786   2.741  0.9764 -0.7728 -0.0318
  161SAPE   H5Y18007   2.576   2.938   2.772  3.6939 -0.5870  0.5998
  161SAPE   C3618008   2.618   2.772   2.890 -0.9221 -0.2437  0.0617
  161SAPE   H6X18009   2.698   2.841   2.923 -1.2442  0.1695 -0.0010
  161SAPE   H6Y18010   2.663   2.671   2.881  1.1804  0.6074  0.3874
  161SAPE   C3718011   2.507   2.763   2.998  0.0759 -0.1896  0.1007
  161SAPE   H7X18012   2.523   2.692   3.082 -0.1363 -1.9940 -1.3380
  161SAPE   H7Y18013   2.421   2.715   2.948  0.2400 -0.9610  0.5434
  161SAPE   C3818014   2.458   2.893   3.062 -1.3292  1.1495 -0.2844
  161SAPE   H8X18015   2.442   2.962   2.976  2.2091  2.2992 -0.2057
  161SAPE   H8Y18016   2.532   2.943   3.128 -0.5738  1.3604 -1.2707
  161SAPE   C3918017   2.322   2.872   3.140  0.1165 -0.0386  0.3658
  161SAPE   H9X18018   2.255   2.821   3.067 -0.5517 -1.3492  1.8211
  161SAPE   H9Y18019   2.285   2.973   3.168 -1.2003 -0.4618  0.2414
  161SAPE  C31018020   2.324   2.773   3.259 -0.3770  0.3448  0.5854
  161SAPE  H10X18021   2.337   2.666   3.234  1.3832  0.3303  1.4290
  161SAPE  H10Y18022   2.223   2.786   3.304  0.4289  1.4253  2.2121
  161SAPE  C31118023   2.423   2.801   3.380 -0.0623 -0.4960 -0.2101
  161SAPE  H11X18024   2.409   2.906   3.414 -3.0955 -0.4225 -1.3516
  161SAPE  H11Y18025   2.527   2.794   3.341 -0.2760  2.7554 -1.7201
  161SAPE  C31218026   2.399   2.703   3.498  0.2756  0.5845  0.0077
  161SAPE  H12X18027   2.463   2.613   3.483  0.4434  0.7949 -0.5749
  161SAPE  H12Y18028   2.295   2.667   3.511  0.8003 -0.1135  2.8544
  161SAPE  C31318029   2.428   2.769   3.636  0.1846 -0.0281  0.2299
  161SAPE  H13X18030   2.357   2.853   3.652 -1.6054 -1.5290  0.4432
  161SAPE  H13Y18031   2.528   2.814   3.620 -0.6402  1.5073 -0.8450
  161SAPE  C31418032   2.424   2.677   3.767 -0.2774 -0.0115 -0.1681
  161SAPE  H14X18033   2.485   2.584   3.762  1.6164  0.7570  4.1766
  161SAPE  H14Y18034   2.321   2.638   3.776 -0.1552 -0.2092  0.4003
  161SAPE  C31518035   2.449   2.765   3.893  0.2415  0.1601  1.2733
  161SAPE  H15X18036   2.353   2.821   3.905  0.1742  0.2741  0.2801
  161SAPE  H15Y18037   2.533   2.833   3.869  0.8402 -0.1003  2.5775
  161SAPE  C31618038   2.478   2.694   4.025 -0.3654 -0.5442 -0.3130
  161SAPE  H16X18039   2.438   2.595   4.057 -0.2723  0.5880  3.9769
  161SAPE  H16Y18040   2.439   2.754   4.110  3.6942  1.5712  0.3254
  161SAPE  C31718041   2.634   2.680   4.048  0.4777 -0.4728  0.1474
  161SAPE  H17X18042   2.687   2.777   4.033  0.1402 -0.5551 -1.9014
  161SAPE  H17Y18043   2.672   2.610   3.970 -0.7514  0.8934 -1.7808
  161SAPE  C31818044   2.685   2.635   4.179  0.1296  0.1912  0.4911
  161SAPE  H18X18045   2.651   2.696   4.266 -3.0536  0.2969 -0.7007
  161SAPE  H18Y18046   2.796   2.631   4.175  0.1219  0.0445  0.4471
  161SAPE  H18Z18047   2.650   2.532   4.200  1.6200 -0.2124  1.1135
  162SAPE     N18048   2.169   0.384   2.206 -0.3302 -0.4361 -0.1457
  162SAPE   HN118049   2.209   0.302   2.257  3.1357  2.7268  2.9115
  162SAPE   HN218050   2.192   0.464   2.269 -0.5075 -0.5706  0.0913
  162SAPE   HN318051   2.066   0.389   2.197 -0.2184  3.0937 -0.8633
  162SAPE   C1218052   2.234   0.394   2.071 -0.1954  0.2770 -0.0166
  162SAPE  H12A18053   2.217   0.496   2.032 -0.9659  0.2213  0.1621
  162SAPE  H12B18054   2.202   0.312   2.004  0.7478 -0.3791  0.3019
  162SAPE   C1118055   2.387   0.386   2.090 -0.1297  0.3204 -0.4124
  162SAPE  H11A18056   2.422   0.468   2.156  1.9715 -0.6893 -0.1894
  162SAPE  H11B18057   2.432   0.410   1.991  2.5760 -1.6732  0.2245
  162SAPE     P18058   2.500   0.157   2.016  0.3072  0.0914 -0.0266
  162SAPE   O1318059   2.439   0.190   1.883 -0.5640  0.0110 -0.6106
  162SAPE   O1418060   2.648   0.162   2.028  0.3316  0.6662 -0.1040
  162SAPE   O1218061   2.434   0.251   2.127 -0.1200 -0.1159 -1.0303
  162SAPE   O1118062   2.446   0.015   2.058  0.2184 -0.5463 -0.5267
  162SAPE    C118063   2.327  -0.005   2.131 -0.2975  0.0021  0.5091
  162SAPE    HA18064   2.263   0.086   2.125 -1.5521 -0.9537 -2.9185
  162SAPE    HB18065   2.276  -0.082   2.070  1.8445 -0.4404 -0.8585
  162SAPE    C218066   2.346  -0.075   2.270  0.2210 -0.6503 -0.6048
  162SAPE    HS18067   2.248  -0.089   2.320 -0.7324 -0.2570 -2.2552
  162SAPE   O2118068   2.422   0.010   2.359  0.2596  0.0758 -0.3564
  162SAPE   C2118069   2.368   0.124   2.388 -0.7448 -0.1397  0.1687
  162SAPE   O2218070   2.265   0.171   2.346 -0.1875 -0.1306 -0.7310
  162SAPE   C2218071   2.458   0.197   2.488 -0.6528  0.2815  0.1077
  162SAPE   H2R18072   2.462   0.143   2.585  1.9097  0.1922  0.0279
  162SAPE   H2S18073   2.561   0.192   2.446 -0.2547 -0.4084  1.1284
  162SAPE    C318074   2.414  -0.211   2.260 -0.1449 -0.2413 -0.1553
  162SAPE    HX18075   2.513  -0.196   2.210 -0.4643 -0.1716 -0.7826
  162SAPE    HY18076   2.358  -0.285   2.199  0.4011  0.3767 -1.4482
  162SAPE   O3118077   2.420  -0.265   2.395  0.5187  0.9018  0.3171
  162SAPE   C3118078   2.541  -0.259   2.458 -0.0960  0.4488  0.3883
  162SAPE   O3218079   2.649  -0.220   2.410  0.3570 -0.2577  0.0356
  162SAPE   C3218080   2.534  -0.334   2.592 -0.2752 -1.0787  0.2040
  162SAPE   H2X18081   2.615  -0.303   2.662 -0.3839  1.3845 -0.6733
  162SAPE   H2Y18082   2.529  -0.444   2.581 -1.8911 -0.9963 -0.0674
  162SAPE   C2318083   2.408   0.339   2.529 -0.5095 -0.3716 -0.3559
  162SAPE   H3R18084   2.388   0.388   2.431 -0.6906  0.2207 -0.0278
  162SAPE   H3S18085   2.496   0.383   2.580  0.0787 -1.5596 -0.3022
  162SAPE   C2418086   2.288   0.346   2.629  0.1496 -0.1181  0.1775
  162SAPE   H4R18087   2.323   0.337   2.734 -0.2383  2.6418  0.6208
  162SAPE   H4S18088   2.221   0.262   2.606  0.5313 -0.4196  0.1584
  162SAPE   C2518089   2.219   0.486   2.621 -0.0349  0.8402  0.1185
  162SAPE   H5R18090   2.142   0.490   2.543 -1.0628  1.9656  1.1403
  162SAPE   C2618091   2.264   0.604   2.670  0.0333  0.6957 -0.7707
  162SAPE   H6R18092   2.200   0.693   2.659 -0.0414  0.8079  0.3937
  162SAPE   C2718093   2.381   0.628   2.763 -0.0426 -0.2163  0.1576
  162SAPE   H7R18094   2.456   0.689   2.708 -0.8694 -0.5227 -1.3747
  162SAPE   H7S18095   2.430   0.530   2.775  0.4893 -0.4484 -3.0763
  162SAPE   C2818096   2.338   0.688   2.895 -0.0002  0.0372 -0.7508
  162SAPE   H8R18097   2.301   0.791   2.892 -1.4218 -0.2840  2.2783
  162SAPE   C2918098   2.334   0.623   3.016 -0.5612 -0.1648  0.1091
  162SAPE   H9R18099   2.299   0.677   3.105  2.8745  0.2364  1.3673
  162SAPE  C21018100   2.364   0.477   3.033 -0.6975 -0.0291 -0.0685
  162SAPE  H10R18101   2.461   0.458   2.981 -0.9594  0.5234 -0.7676
  162SAPE  H10S18102   2.293   0.419   2.970  0.5747 -1.0302 -0.6345
  162SAPE  C21118103   2.367   0.434   3.174  0.5968 -0.2316 -0.2735
  162SAPE  H11R18104   2.407   0.502   3.251 -0.8176 -0.3546  0.6108
  162SAPE  C21218105   2.285   0.335   3.222 -0.3832 -0.2923  0.2751
  162SAPE  H12R18106   2.281   0.324   3.331  0.0926 -2.6916  0.0852
  162SAPE  C21318107   2.206   0.227   3.152 -0.6056 -0.1077  0.5394
  162SAPE  H13R18108   2.255   0.203   3.055 -1.2234  1.2584 -0.1353
  162SAPE  H13S18109   2.106   0.263   3.121 -1.2729 -3.6020 -2.0074
  162SAPE  C21418110   2.193   0.095   3.226 -0.1783 -0.4915  0.1449
  162SAPE  H14R18111   2.200   0.098   3.335 -1.0716  1.4529  0.1944
  162SAPE  C21518112   2.199  -0.029   3.168  0.6287  0.9613 -0.5979
  162SAPE  H15R18113   2.199  -0.113   3.239  0.3784  3.0431  2.0477
  162SAPE  C21618114   2.210  -0.059   3.018  0.0692 -0.9538  0.1594
  162SAPE  H16R18115   2.220  -0.169   3.007  0.9950 -0.8398 -0.3080
  162SAPE  H16S18116   2.305  -0.019   2.975  0.0708 -1.8323 -0.6859
  162SAPE  C21718117   2.089   0.002   2.941  0.2441  0.6215  0.3512
  162SAPE  H17R18118   2.064   0.110   2.932 -1.0329  0.2971 -0.3672
  162SAPE  H17S18119   1.992  -0.040   2.978 -0.3213  2.3023  0.8682
  162SAPE  C21818120   2.101  -0.019   2.783  0.5388 -0.4742  0.1644
  162SAPE  H18R18121   2.115  -0.126   2.754 -2.5114 -0.3883 -2.1940
  162SAPE  H18S18122   2.190   0.037   2.748  1.3521  0.8413  3.8719
  162SAPE  C21918123   1.987   0.013   2.703  0.2033 -0.4161  0.4915
  162SAPE  H19R18124   1.962   0.117   2.732 -0.3155 -0.1854 -0.6924
  162SAPE  H19S18125   1.903  -0.052   2.736 -0.4985  0.3376  0.2499
  162SAPE  C22018126   2.003  -0.006   2.554  0.2915 -0.0665  0.0268
  162SAPE  H20R18127   2.026  -0.110   2.521  3.5394  0.3840  0.4722
  162SAPE  H20S18128   2.093   0.043   2.511 -0.3163  1.0476 -0.0076
  162SAPE  H20T18129   1.921   0.038   2.494  0.1468 -0.5414 -0.1283
  162SAPE   C3318130   2.400  -0.289   2.654  0.4294 -0.3560 -0.8637
  162SAPE   H3X18131   2.319  -0.330   2.590 -0.7799  1.4296 -0.5686
  162SAPE   H3Y18132   2.390  -0.178   2.656 -0.9127 -0.4411 -1.5641
  162SAPE   C3418133   2.370  -0.343   2.791 -0.0959  0.0981  0.0423
  162SAPE   H4X18134   2.271  -0.299   2.816 -1.7809 -2.7649 -1.1111
  162SAPE   H4Y18135   2.444  -0.303   2.863  0.8777 -1.5199 -0.0323
  162SAPE   C3518136   2.375  -0.493   2.797 -0.2446 -0.0320  0.7251
  162SAPE   H5X18137   2.470  -0.532   2.756 -0.1338 -2.1055  2.7330
  162SAPE   H5Y18138   2.301  -0.536   2.726  0.8977 -1.1581  0.1773
  162SAPE   C3618139   2.335  -0.549   2.935  1.0638 -0.2398 -0.0971
  162SAPE   H6X18140   2.233  -0.518   2.968  1.0558 -0.7033  0.3217
  162SAPE   H6Y18141   2.386  -0.506   3.024  0.7353  0.8571 -0.4194
  162SAPE   C3718142   2.346  -0.701   2.955  0.2859  0.2691  0.3968
  162SAPE   H7X18143   2.453  -0.722   2.976 -0.1782 -1.4124  1.2665
  162SAPE   H7Y18144   2.313  -0.746   2.859  2.1765 -0.0947 -0.1179
  162SAPE   C3818145   2.267  -0.763   3.068  0.4047 -0.0227 -0.0832
  162SAPE   H8X18146   2.251  -0.867   3.032  0.0976  0.4800 -1.4541
  162SAPE   H8Y18147   2.167  -0.716   3.076  1.1053  1.1543  3.3724
  162SAPE   C3918148   2.328  -0.757   3.205  0.0005  0.1680 -0.5784
  162SAPE   H9X18149   2.326  -0.649   3.231  0.3112  0.0745 -0.1314
  162SAPE   H9Y18150   2.438  -0.771   3.202 -0.2117 -2.1176  0.2117
  162SAPE  C31018151   2.247  -0.845   3.309  0.1444 -0.0813 -0.1563
  162SAPE  H10X18152   2.276  -0.952   3.294  1.2645  0.1183  0.4496
  162SAPE  H10Y18153   2.139  -0.822   3.295 -0.1447 -0.4701  1.2878
  162SAPE  C31118154   2.284  -0.802   3.450 -0.1571  0.0773  0.3725
  162SAPE  H11X18155   2.292  -0.692   3.456  1.4297  0.0391 -0.5518
  162SAPE  H11Y18156   2.376  -0.858   3.479  0.2283  0.0311 -0.8796
  162SAPE  C31218157   2.181  -0.830   3.565  0.4790 -0.2414  0.1906
  162SAPE  H12X18158   2.185  -0.932   3.608  1.7907 -0.4174 -0.3041
  162SAPE  H12Y18159   2.080  -0.811   3.524  0.3291  2.0678  1.4519
  162SAPE  C31318160   2.203  -0.725   3.678  0.3957 -0.1707 -0.1528
  162SAPE  H13X18161   2.188  -0.627   3.627 -0.6523  0.2242  0.8560
  162SAPE  H13Y18162   2.305  -0.734   3.721  0.6694  3.2786  0.1950
  162SAPE  C31418163   2.094  -0.743   3.787  0.9121  0.0577 -0.6850
  162SAPE  H14X18164   2.103  -0.845   3.830 -3.0244  0.0115  0.4056
  162SAPE  H14Y18165   1.997  -0.734   3.733  1.0215 -1.5088 -1.1973
  162SAPE  C31518166   2.104  -0.641   3.898  0.2692 -0.2194 -0.3895
  162SAPE  H15X18167   2.014  -0.644   3.963 -0.7508  2.3917 -1.5511
  162SAPE  H15Y18168   2.108  -0.537   3.859  0.9350 -0.0671  0.0589
  162SAPE  C31618169   2.220  -0.648   3.996 -0.6475 -0.3149  0.0497
  162SAPE  H16X18170   2.318  -0.650   3.944 -1.1067  0.4558 -0.8661
  162SAPE  H16Y18171   2.210  -0.736   4.063  1.1445  0.2436  1.1502
  162SAPE  C31718172   2.227  -0.513   4.081 -0.1892  0.5127  0.2900
  162SAPE  H17X18173   2.293  -0.536   4.167  0.8569  1.5895 -0.1793
  162SAPE  H17Y18174   2.126  -0.477   4.108 -1.8516  0.5251 -4.8701
  162SAPE  C31818175   2.305  -0.402   4.009 -0.1516 -0.2187  0.2997
  162SAPE  H18X18176   2.235  -0.368   3.929 -1.4329 -0.0945  1.4333
  162SAPE  H18Y18177   2.407  -0.430   3.976 -0.4863  0.7498 -1.7263
  162SAPE  H18Z18178   2.306  -0.324   4.089  1.2978  1.2680 -1.0800
  163SAPE     N18179   1.587   3.249   2.577  0.0351 -0.2898  0.1315
  163SAPE   HN118180   1.606   3.319   2.652  2.5521 -2.0584  1.2600
  163SAPE   HN218181   1.577   3.299   2.486 -0.4860 -3.0585 -1.4207
  163SAPE   HN318182   1.492   3.211   2.597 -0.0625 -1.3135 -2.0688
  163SAPE   C1218183   1.685   3.139   2.572  0.6482  0.1041  0.7699
  163SAPE  H12A18184   1.659   3.067   2.652 -0.1903  0.1729  0.5618
  163SAPE  H12B18185   1.790   3.173   2.586  0.8866 -0.7800  1.2281
  163SAPE   C1118186   1.675   3.081   2.426 -0.1151 -1.1705  0.0003
  163SAPE  H11A18187   1.759   3.008   2.416  1.5281  0.5211  0.7858
  163SAPE  H11B18188   1.692   3.156   2.346 -0.5086 -1.7740 -0.6637
  163SAPE     P18189   1.528   2.879   2.367 -0.2004 -0.2386  0.0459
  163SAPE   O1318190   1.382   2.856   2.365  0.2340  0.2199 -0.8062
  163SAPE   O1418191   1.622   2.850   2.258 -0.4997 -0.4395  0.8749
  163SAPE   O1218192   1.547   3.028   2.403  0.1152 -0.0164 -0.0592
  163SAPE   O1118193   1.576   2.813   2.502  0.7346 -0.4703  0.2427
  163SAPE    C118194   1.614   2.674   2.525  0.4573 -0.2660  0.2597
  163SAPE    HA18195   1.524   2.619   2.559  1.0813 -1.1109  0.5836
  163SAPE    HB18196   1.650   2.625   2.432  1.3496 -0.3386  0.6333
  163SAPE    C218197   1.729   2.665   2.623  0.5623  0.7334  0.5188
  163SAPE    HS18198   1.777   2.564   2.625  0.8900  0.8867  1.9641
  163SAPE   O2118199   1.678   2.684   2.757 -0.2694 -0.6089 -0.4332
  163SAPE   C2118200   1.590   2.596   2.808 -0.6304  0.6993 -0.3618
  163SAPE   O2218201   1.556   2.492   2.752  0.2228 -0.5264 -0.5784
  163SAPE   C2218202   1.550   2.644   2.954 -0.2638  0.5300  0.6999
  163SAPE   H2R18203   1.633   2.712   2.984 -0.7325  1.5864 -0.3228
  163SAPE   H2S18204   1.454   2.697   2.937 -1.4880 -2.0202 -0.8539
  163SAPE    C318205   1.841   2.764   2.591  0.2126 -0.5036 -0.2644
  163SAPE    HX18206   1.790   2.862   2.605 -0.0533 -0.4142 -1.7276
  163SAPE    HY18207   1.865   2.768   2.483  0.0731 -0.3965 -0.2926
  163SAPE   O3118208   1.962   2.746   2.675  0.4892 -0.0623  0.3315
  163SAPE   C3118209   2.046   2.644   2.638  0.3559 -0.1092 -0.2342
  163SAPE   O3218210   2.045   2.587   2.532 -0.0689 -0.4625  0.6380
  163SAPE   C3218211   2.153   2.622   2.743  0.3510 -0.3707 -0.5020
  163SAPE   H2X18212   2.222   2.708   2.732  1.4342 -1.0760  0.5638
  163SAPE   H2Y18213   2.196   2.527   2.704  0.4876 -0.2204 -0.7203
  163SAPE   C2318214   1.521   2.527   3.044  0.2260 -0.5433 -0.3690
  163SAPE   H3R18215   1.618   2.490   3.085  2.3469  2.9845 -1.7378
  163SAPE   H3S18216   1.459   2.451   2.992  0.6617 -0.5953 -0.8333
  163SAPE   C2418217   1.436   2.573   3.170 -0.0145  0.1409  0.1484
  163SAPE   H4R18218   1.421   2.469   3.207  0.0676 -0.0198 -0.2707
  163SAPE   H4S18219   1.336   2.610   3.140  0.7101  1.0066 -1.3464
  163SAPE   C2518220   1.511   2.667   3.260 -0.0971  0.8041  0.5625
  163SAPE   H5R18221   1.534   2.763   3.212 -0.8445  1.5859  1.7179
  163SAPE   C2618222   1.528   2.654   3.392 -0.2410 -0.2242  0.2735
  163SAPE   H6R18223   1.584   2.732   3.446 -1.3181  1.9834 -1.6235
  163SAPE   C2718224   1.499   2.537   3.482 -0.2830 -0.3821  0.3627
  163SAPE   H7R18225   1.596   2.483   3.489 -0.1478 -0.0727  0.9346
  163SAPE   H7S18226   1.422   2.475   3.432 -0.5018  1.6924 -2.1005
  163SAPE   C2818227   1.451   2.588   3.617 -0.6611 -0.4718 -0.4387
  163SAPE   H8R18228   1.344   2.614   3.626 -0.7258 -0.1833 -1.8962
  163SAPE   C2918229   1.525   2.590   3.734  0.2314 -0.3559  0.7529
  163SAPE   H9R18230   1.486   2.641   3.823  0.3382 -0.3081  0.7730
  163SAPE  C21018231   1.669   2.554   3.747  0.0244  0.2316 -0.5172
  163SAPE  H10R18232   1.727   2.648   3.744  0.3620  0.0133 -1.1438
  163SAPE  H10S18233   1.714   2.491   3.666  2.1195 -1.1198  1.5728
  163SAPE  C21118234   1.675   2.471   3.869  0.0714  0.3038  0.4306
  163SAPE  H11R18235   1.628   2.372   3.858  0.7295  0.2089 -2.2898
  163SAPE  C21218236   1.734   2.499   3.983  0.1511 -0.0241  0.1153
  163SAPE  H12R18237   1.726   2.428   4.066  0.3386  0.6869  0.7448
  163SAPE  C21318238   1.805   2.633   4.018  0.2297  0.7581  0.2713
  163SAPE  H13R18239   1.764   2.708   3.947 -1.1193  0.3353  0.5684
  163SAPE  H13S18240   1.914   2.622   4.007  0.7364  1.1939  3.6953
  163SAPE  C21418241   1.789   2.677   4.159  0.1442 -0.4762  0.3403
  163SAPE  H14R18242   1.878   2.668   4.223 -0.4461 -0.1653  1.2165
  163SAPE  C21518243   1.680   2.737   4.214  1.0944  0.0477  0.2425
  163SAPE  H15R18244   1.676   2.761   4.321 -1.8999 -0.6533  0.3661
  163SAPE  C21618245   1.548   2.760   4.144 -0.0161  0.3302 -0.6217
  163SAPE  H16R18246   1.551   2.716   4.041  1.0981  1.0044 -0.8877
  163SAPE  H16S18247   1.536   2.870   4.137 -0.3294  0.3840  0.5733
  163SAPE  C21718248   1.426   2.704   4.215 -0.2523  0.1790  0.7966
  163SAPE  H17R18249   1.412   2.749   4.316 -2.6234 -1.3920  1.2269
  163SAPE  H17S18250   1.447   2.601   4.250 -2.6046  0.0199  1.8865
  163SAPE  C21818251   1.303   2.714   4.133  0.4042 -0.3393  0.5548
  163SAPE  H18R18252   1.233   2.634   4.165  0.5299 -0.7761 -0.2291
  163SAPE  H18S18253   1.326   2.687   4.028 -3.6971 -0.9845 -0.3276
  163SAPE  C21918254   1.233   2.853   4.129 -0.4434  0.6772  0.1322
  163SAPE  H19R18255   1.152   2.835   4.056 -0.6419 -1.4509  0.7893
  163SAPE  H19S18256   1.303   2.926   4.084  2.0229 -1.1484  0.7728
  163SAPE  C22018257   1.187   2.904   4.269  0.9910  0.4214 -0.2914
  163SAPE  H20R18258   1.274   2.952   4.319  3.0094 -4.5466  1.6508
  163SAPE  H20S18259   1.151   2.824   4.337  0.3221  0.5227 -0.5220
  163SAPE  H20T18260   1.102   2.976   4.265 -0.1626 -0.8235  0.9200
  163SAPE   C3318261   2.093   2.607   2.883  0.4020 -0.4615 -0.2177
  163SAPE   H3X18262   2.049   2.701   2.921  2.1253 -0.9631  3.4732
  163SAPE   H3Y18263   2.170   2.589   2.961  0.2708  1.7073  0.4873
  163SAPE   C3418264   1.980   2.502   2.900  0.1462 -0.5309 -0.1788
  163SAPE   H4X18265   2.034   2.404   2.903  0.4441 -0.3906 -0.7914
  163SAPE   H4Y18266   1.914   2.508   2.811  0.0610  1.3163 -0.0136
  163SAPE   C3518267   1.910   2.518   3.039 -0.1941 -0.1461  0.1477
  163SAPE   H5X18268   1.836   2.435   3.047 -0.8778  0.4676  0.3570
  163SAPE   H5Y18269   1.842   2.606   3.037 -3.4058 -2.3977 -2.0709
  163SAPE   C3618270   2.000   2.516   3.162  0.4250  0.5545 -0.2430
  163SAPE   H6X18271   2.070   2.602   3.154  1.3383  0.0545  1.6607
  163SAPE   H6Y18272   2.062   2.425   3.153  1.3881  1.0215  1.2927
  163SAPE   C3718273   1.922   2.521   3.295 -0.1041  0.5554 -0.0409
  163SAPE   H7X18274   1.854   2.433   3.304  0.9454 -0.1047  2.9127
  163SAPE   H7Y18275   1.866   2.615   3.311 -0.1403  0.4588  0.4391
  163SAPE   C3818276   2.015   2.508   3.412 -0.2865  0.1263  1.2071
  163SAPE   H8X18277   1.956   2.524   3.505 -2.0208 -1.8543  0.5261
  163SAPE   H8Y18278   2.099   2.579   3.396 -1.5563  1.4710  0.3227
  163SAPE   C3918279   2.076   2.365   3.425 -0.5334 -0.1636  0.3650
  163SAPE   H9X18280   2.129   2.330   3.334  0.1788 -1.7872  1.3662
  163SAPE   H9Y18281   1.989   2.299   3.444 -0.8005  0.4058  1.1664
  163SAPE  C31018282   2.177   2.346   3.536 -0.2953 -0.3108 -0.2777
  163SAPE  H10X18283   2.258   2.422   3.525  0.5509 -0.9219  1.3340
  163SAPE  H10Y18284   2.213   2.241   3.532 -0.4962 -0.3423 -1.5290
  163SAPE  C31118285   2.104   2.374   3.673 -0.2692  0.3496  0.3597
  163SAPE  H11X18286   2.012   2.312   3.683  0.9702 -1.8983 -1.1818
  163SAPE  H11Y18287   2.083   2.482   3.687 -0.2325  0.2449  1.2165
  163SAPE  C31218288   2.189   2.315   3.792  0.0666 -0.3322 -0.1265
  163SAPE  H12X18289   2.291   2.359   3.783 -0.0318 -0.4462 -2.4774
  163SAPE  H12Y18290   2.205   2.206   3.799  0.0999 -0.2382  1.7160
  163SAPE  C31318291   2.131   2.354   3.931  0.0015 -0.5457 -0.2585
  163SAPE  H13X18292   2.033   2.305   3.949 -0.0101 -0.5362 -0.2945
  163SAPE  H13Y18293   2.103   2.460   3.908  1.8874  0.2064  0.6812
  163SAPE  C31418294   2.216   2.342   4.045  0.0629 -0.2499  0.2061
  163SAPE  H14X18295   2.310   2.386   4.006 -0.9585  1.8508 -0.0454
  163SAPE  H14Y18296   2.235   2.236   4.073  0.1430  0.0762  1.4086
  163SAPE  C31518297   2.179   2.420   4.171 -0.0979  0.4201 -0.4602
  163SAPE  H15X18298   2.173   2.530   4.153  0.7143  0.9244  2.0227
  163SAPE  H15Y18299   2.254   2.409   4.252 -2.1641  1.7391  1.7631
  163SAPE  C31618300   2.060   2.361   4.243  0.7574 -0.6782  0.1016
  163SAPE  H16X18301   2.062   2.251   4.257 -1.2233 -0.8021 -0.2386
  163SAPE  H16Y18302   1.969   2.378   4.181  1.4059  0.5952 -0.5325
  163SAPE  C31718303   2.037   2.436   4.380  0.0406  0.1804 -0.2136
  163SAPE  H17X18304   2.022   2.544   4.355  1.5894  0.2803 -0.7978
  163SAPE  H17Y18305   2.130   2.419   4.437  0.2454 -0.5333 -0.7579
  163SAPE  C31818306   1.916   2.383   4.450  0.4602 -0.7801  0.2034
  163SAPE  H18X18307   1.928   2.276   4.477 -0.7058 -0.7954  0.7084
  163SAPE  H18Y18308   1.822   2.390   4.392  0.4776  1.8066  0.3434
  163SAPE  H18Z18309   1.899   2.429   4.550  1.0724  1.2237 -0.5563
  164SAPE     N18310   5.886   2.818   2.368 -0.2850  1.0607 -0.1735
  164SAPE   HN118311   5.937   2.742   2.318 -0.0831  2.0411 -1.5235
  164SAPE   HN218312   5.900   2.907   2.317  0.0775  0.3026 -1.4533
  164SAPE   HN318313   5.936   2.841   2.455  0.4326 -0.1149 -0.2529
  164SAPE   C1218314   5.743   2.781   2.389  0.2837  0.1289 -0.0458
  164SAPE  H12A18315   5.742   2.684   2.444  2.3057  0.3957  0.5481
  164SAPE  H12B18316   5.690   2.762   2.294 -0.7075 -0.8751  0.6778
  164SAPE   C1118317   5.669   2.882   2.480 -0.8261  0.2145  0.2773
  164SAPE  H11A18318   5.710   2.873   2.583  0.5875 -0.5634 -0.3346
  164SAPE  H11B18319   5.564   2.845   2.480 -0.6051 -0.4076  0.3485
  164SAPE     P18320   5.568   3.089   2.360 -0.2228 -0.1561  0.1920
  164SAPE   O1318321   5.626   3.216   2.314  0.3050  0.0649  0.0361
  164SAPE   O1418322   5.501   3.005   2.266  0.2207  0.0644  0.4984
  164SAPE   O1218323   5.687   3.016   2.434 -0.2047 -0.0146  0.6347
  164SAPE   O1118324   5.458   3.127   2.471  0.4535  0.1497 -0.5970
  164SAPE    C118325   5.506   3.194   2.590  0.3795  0.3372  0.2528
  164SAPE    HA18326   5.609   3.233   2.578  1.0642 -0.5703  2.6462
  164SAPE    HB18327   5.433   3.273   2.621 -0.1011  0.3317 -0.8119
  164SAPE    C218328   5.514   3.089   2.704 -0.0317  0.8806 -0.8382
  164SAPE    HS18329   5.600   3.022   2.681  0.7634  1.4818  0.3081
  164SAPE   O2118330   5.394   3.017   2.714 -0.8631  0.3087  1.0331
  164SAPE   C2118331   5.409   2.894   2.769  0.3406  0.7891  0.1143
  164SAPE   O2218332   5.512   2.841   2.799  0.4018  0.0938 -0.0080
  164SAPE   C2218333   5.271   2.829   2.779  0.1456 -0.1270 -1.0874
  164SAPE   H2R18334   5.284   2.750   2.857  0.6257 -0.9092 -1.9447
  164SAPE   H2S18335   5.204   2.912   2.811  2.3842  0.9803  1.1921
  164SAPE    C318336   5.560   3.164   2.836  0.0790  0.5210 -0.7605
  164SAPE    HX18337   5.485   3.239   2.870  1.0682  0.8539  0.8058
  164SAPE    HY18338   5.643   3.236   2.817 -0.2296  1.4956  1.2691
  164SAPE   O3118339   5.580   3.064   2.942 -0.0707 -0.2999 -0.0046
  164SAPE   C3118340   5.704   3.007   2.931  0.0514  0.9469  0.2239
  164SAPE   O3218341   5.790   3.037   2.848 -0.1693 -0.1201 -0.1567
  164SAPE   C3218342   5.714   2.879   3.019 -0.1676  0.5694 -0.0554
  164SAPE   H2X18343   5.817   2.842   3.038  0.1722  1.1889 -0.6449
  164SAPE   H2Y18344   5.669   2.788   2.975  2.8003 -0.9533 -0.1284
  164SAPE   C2318345   5.221   2.769   2.643  0.1809 -0.3720 -0.3019
  164SAPE   H3R18346   5.303   2.717   2.590 -1.0724 -0.7497 -1.9299
  164SAPE   H3S18347   5.195   2.851   2.573  3.0722 -0.7866 -2.0148
  164SAPE   C2418348   5.106   2.666   2.672 -0.9513  0.2429 -0.6616
  164SAPE   H4R18349   5.135   2.591   2.748 -3.2650  1.5645  1.6964
  164SAPE   H4S18350   5.098   2.605   2.580  0.1230 -3.2541  1.3610
  164SAPE   C2518351   4.989   2.748   2.709  0.5768 -0.3101 -0.1508
  164SAPE   H5R18352   4.961   2.822   2.633 -0.3579  1.1075  1.4961
  164SAPE   C2618353   4.924   2.752   2.825  0.5480  0.4396 -0.1272
  164SAPE   H6R18354   4.830   2.809   2.833  0.4446  0.4609 -1.3068
  164SAPE   C2718355   4.954   2.678   2.954  0.3089 -0.1183  0.0337
  164SAPE   H7R18356   4.975   2.757   3.029  0.0687  2.1669 -2.1656
  164SAPE   H7S18357   5.043   2.612   2.954 -0.2552 -0.8941 -0.1697
  164SAPE   C2818358   4.832   2.593   2.995  0.0787  0.2993  0.2815
  164SAPE   H8R18359   4.794   2.523   2.918 -0.3067  0.5494  0.2415
  164SAPE   C2918360   4.767   2.594   3.114  0.5944  0.4855  0.2128
  164SAPE   H9R18361   4.686   2.520   3.116  0.1663  0.9645  1.8151
  164SAPE  C21018362   4.782   2.668   3.238  0.2635 -0.0945 -0.3597
  164SAPE  H10R18363   4.873   2.730   3.233 -1.1050  2.1314  0.7105
  164SAPE  H10S18364   4.796   2.589   3.314 -1.6639 -0.0968  0.0638
  164SAPE  C21118365   4.671   2.770   3.272 -0.5375 -0.0523  0.0575
  164SAPE  H11R18366   4.635   2.835   3.191  0.0530  0.5638  0.2752
  164SAPE  C21218367   4.621   2.792   3.396 -0.6182  0.1850  0.1240
  164SAPE  H12R18368   4.553   2.877   3.406  1.9656  2.2410  1.7739
  164SAPE  C21318369   4.655   2.720   3.517  0.9166 -0.2239 -0.0466
  164SAPE  H13R18370   4.693   2.800   3.584 -0.3209 -0.3202  0.8080
  164SAPE  H13S18371   4.738   2.648   3.509 -0.2612 -1.5098 -1.3273
  164SAPE  C21418372   4.541   2.655   3.595  0.3132  0.1125  0.5149
  164SAPE  H14R18373   4.477   2.588   3.534  0.3225  0.4382  0.1428
  164SAPE  C21518374   4.497   2.666   3.722  0.1899 -0.1438 -0.4068
  164SAPE  H15R18375   4.411   2.606   3.755 -1.5835  1.2903 -2.2413
  164SAPE  C21618376   4.563   2.741   3.831 -0.4104  0.1451 -0.3314
  164SAPE  H16R18377   4.505   2.834   3.847 -1.8620 -0.7751 -0.0682
  164SAPE  H16S18378   4.665   2.775   3.802 -0.5386  0.2750 -0.6295
  164SAPE  C21718379   4.576   2.671   3.969 -0.1968 -0.1828 -0.1860
  164SAPE  H17R18380   4.482   2.675   4.028  1.1841  0.8673  2.1120
  164SAPE  H17S18381   4.642   2.740   4.027 -0.1682 -1.3743  1.2754
  164SAPE  C21818382   4.643   2.532   3.974  0.3001  0.0421 -0.0301
  164SAPE  H18R18383   4.596   2.447   3.919  2.8287 -0.4735 -1.5696
  164SAPE  H18S18384   4.648   2.496   4.079 -3.3605 -0.0949  0.2138
  164SAPE  C21918385   4.786   2.538   3.907  0.3422 -0.2284 -0.5478
  164SAPE  H19R18386   4.840   2.620   3.959 -1.2163  0.2644  0.3679
  164SAPE  H19S18387   4.783   2.582   3.804 -2.0628 -0.8848 -0.8317
  164SAPE  C22018388   4.856   2.400   3.915 -0.1546  0.0029 -0.6704
  164SAPE  H20R18389   4.851   2.353   4.016  2.7072 -2.6296 -1.5972
  164SAPE  H20S18390   4.965   2.418   3.902  0.0611 -0.3353  0.5583
  164SAPE  H20T18391   4.826   2.334   3.831  1.5353  1.1653 -2.2720
  164SAPE   C3318392   5.655   2.900   3.159  0.1357  0.2449 -0.2267
  164SAPE   H3X18393   5.549   2.929   3.146  0.2032  1.2634  1.3105
  164SAPE   H3Y18394   5.703   2.985   3.213 -0.4180  0.9441 -0.8179
  164SAPE   C3418395   5.649   2.780   3.249  0.5719  0.4473  0.0977
  164SAPE   H4X18396   5.755   2.752   3.266  0.4330 -0.0535  0.1651
  164SAPE   H4Y18397   5.589   2.693   3.214 -1.4949  0.7493  2.5335
  164SAPE   C3518398   5.579   2.815   3.378 -0.4619  0.5228 -0.3859
  164SAPE   H5X18399   5.471   2.830   3.357 -0.4039  0.9731 -0.3865
  164SAPE   H5Y18400   5.629   2.906   3.418  0.5292  0.2277 -0.9179
  164SAPE   C3618401   5.590   2.694   3.475 -0.2860  0.0158 -0.4721
  164SAPE   H6X18402   5.698   2.683   3.500  0.0079  3.5616  0.4002
  164SAPE   H6Y18403   5.547   2.606   3.422 -1.6429 -0.6741  1.6477
  164SAPE   C3718404   5.507   2.719   3.603  0.7065  0.4109  0.0762
  164SAPE   H7X18405   5.400   2.742   3.583 -0.2142 -1.6890  2.0695
  164SAPE   H7Y18406   5.566   2.797   3.655 -1.3406  1.8500  0.3593
  164SAPE   C3818407   5.498   2.591   3.685  0.0798  0.1945 -0.0825
  164SAPE   H8X18408   5.593   2.534   3.679  1.4801  2.4763 -0.8084
  164SAPE   H8Y18409   5.421   2.525   3.640  0.5128 -0.1237 -0.3541
  164SAPE   C3918410   5.453   2.621   3.827 -0.4190 -0.4271  0.8262
  164SAPE   H9X18411   5.370   2.695   3.815  2.2112  2.4200 -1.3887
  164SAPE   H9Y18412   5.531   2.674   3.886 -1.1791  2.6445 -0.7026
  164SAPE  C31018413   5.402   2.504   3.906  0.7380 -0.9767 -0.2045
  164SAPE  H10X18414   5.481   2.430   3.931  2.8041  1.4807  1.0811
  164SAPE  H10Y18415   5.312   2.464   3.856  0.5473 -0.9063  0.0774
  164SAPE  C31118416   5.345   2.547   4.038 -0.7441  0.3074 -0.1928
  164SAPE  H11X18417   5.275   2.632   4.022  2.5264  3.7076  1.8932
  164SAPE  H11Y18418   5.427   2.593   4.097 -0.7181  1.0056 -0.7446
  164SAPE  C31218419   5.282   2.425   4.098  0.3992  0.1429 -0.0436
  164SAPE  H12X18420   5.354   2.368   4.162 -0.8461 -0.2808  1.0205
  164SAPE  H12Y18421   5.251   2.353   4.020 -0.4569 -0.2575  0.6442
  164SAPE  C31318422   5.161   2.450   4.197 -0.5225 -0.2415 -0.8382
  164SAPE  H13X18423   5.123   2.353   4.235  0.5382 -0.1175  0.6329
  164SAPE  H13Y18424   5.077   2.502   4.147 -2.2387 -0.9877  1.0979
  164SAPE  C31418425   5.201   2.528   4.323  0.0844 -0.5040  0.6188
  164SAPE  H14X18426   5.228   2.625   4.278 -0.8328 -0.2953  0.4987
  164SAPE  H14Y18427   5.293   2.492   4.375  0.7047  0.2167  0.0321
  164SAPE  C31518428   5.085   2.553   4.423 -0.3249  0.5185  0.2984
  164SAPE  H15X18429   5.114   2.638   4.490  0.2940  0.4610  0.1078
  164SAPE  H15Y18430   5.062   2.472   4.495 -1.8084 -0.6497 -1.3995
  164SAPE  C31618431   4.954   2.604   4.351  0.4428  0.0573  0.5749
  164SAPE  H16X18432   4.880   2.613   4.434 -0.5338  1.2984 -0.3906
  164SAPE  H16Y18433   4.898   2.538   4.282 -0.8702  0.9204  0.7786
  164SAPE  C31718434   4.966   2.747   4.298 -0.6635 -0.4434  0.9907
  164SAPE  H17X18435   4.874   2.763   4.237  0.8173  0.0916 -1.2225
  164SAPE  H17Y18436   5.050   2.750   4.226 -1.7023  0.3359 -0.2461
  164SAPE  C31818437   4.971   2.861   4.397  0.0328  0.5967  0.2288
  164SAPE  H18X18438   4.944   2.961   4.356 -0.9128  0.7037  1.0758
  164SAPE  H18Y18439   5.077   2.860   4.430  0.2041 -1.3560 -0.2616
  164SAPE  H18Z18440   4.908   2.855   4.488  1.2300 -0.0049  1.0463
  165SAPE     N18441   6.846   4.400   1.761  0.3402 -0.2859  0.2481
  165SAPE   HN118442   6.905   4.315   1.746 -1.8887 -2.1808  1.3854
  165SAPE   HN218443   6.824   4.434   1.665 -1.3853  1.3808  1.1633
  165SAPE   HN318444   6.903   4.473   1.807  0.6654  0.2942 -1.0103
  165SAPE   C1218445   6.715   4.368   1.828  0.0542 -1.3041 -0.5537
  165SAPE  H12A18446   6.679   4.266   1.802 -2.4336 -0.3065 -1.2452
  165SAPE  H12B18447   6.638   4.442   1.799  1.0159  0.8639  2.0083
  165SAPE   C1118448   6.730   4.377   1.986  0.6550  0.1015  0.5757
  165SAPE  H11A18449   6.636   4.367   2.044 -1.0091  2.8094 -1.4014
  165SAPE  H11B18450   6.771   4.479   2.005  2.6638 -0.3864 -0.7707
  165SAPE     P18451   6.804   4.138   2.044  0.2325  0.4942  0.6547
  165SAPE   O1318452   6.670   4.110   1.989  0.1158 -0.2306 -0.0727
  165SAPE   O1418453   6.913   4.054   1.987  0.3062 -0.0479 -0.6210
  165SAPE   O1218454   6.833   4.292   2.022  0.5042  0.0359 -0.2725
  165SAPE   O1118455   6.794   4.122   2.199 -0.1839  0.1687 -0.4121
  165SAPE    C118456   6.719   4.205   2.292  0.2946  0.9457  0.8989
  165SAPE    HA18457   6.789   4.291   2.308  2.7497 -0.6525 -0.5399
  165SAPE    HB18458   6.625   4.238   2.242  0.8292 -0.3846 -1.1161
  165SAPE    C218459   6.696   4.134   2.424  1.2923 -0.3399  0.2283
  165SAPE    HS18460   6.635   4.043   2.409 -1.7142  1.7366 -1.2136
  165SAPE   O2118461   6.632   4.230   2.510  0.5072  0.4492 -0.5506
  165SAPE   C2118462   6.501   4.233   2.499  0.2687 -0.4874  0.0212
  165SAPE   O2218463   6.435   4.172   2.414 -0.3429  0.2268 -0.1440
  165SAPE   C2218464   6.437   4.334   2.600  0.4612  0.0985 -0.4201
  165SAPE   H2R18465   6.514   4.352   2.678  0.7177 -0.1993 -0.6059
  165SAPE   H2S18466   6.415   4.433   2.553  2.0203  0.2257 -0.9265
  165SAPE    C318467   6.824   4.100   2.501 -0.1072  0.8736 -0.1898
  165SAPE    HX18468   6.888   4.190   2.514  2.4491 -1.1092  2.2429
  165SAPE    HY18469   6.879   4.028   2.437  0.1525  0.4165  0.5296
  165SAPE   O3118470   6.793   4.037   2.624  0.1082  0.3939  0.1249
  165SAPE   C3118471   6.775   3.909   2.627  0.2166 -0.2950  0.4394
  165SAPE   O3218472   6.753   3.832   2.533  0.0670  0.5552  0.0454
  165SAPE   C3218473   6.780   3.861   2.775 -0.3306 -0.6767 -0.0681
  165SAPE   H2X18474   6.862   3.787   2.782 -1.5620 -2.1171 -0.4186
  165SAPE   H2Y18475   6.682   3.814   2.802 -0.4800 -0.6773 -0.6049
  165SAPE   C2318476   6.299   4.290   2.654  0.2816  0.0717 -0.5992
  165SAPE   H3R18477   6.230   4.294   2.567 -1.1876  2.6600  0.5766
  165SAPE   H3S18478   6.264   4.360   2.733  0.1593 -0.5462 -0.0967
  165SAPE   C2418479   6.299   4.146   2.722 -0.2805  0.1358  0.5251
  165SAPE   H4R18480   6.315   4.074   2.640 -0.4046  1.6210 -0.8546
  165SAPE   H4S18481   6.199   4.129   2.767 -0.7921 -3.2429 -1.5682
  165SAPE   C2518482   6.405   4.126   2.831  0.3772  0.5135 -0.0528
  165SAPE   H5R18483   6.510   4.148   2.805  0.6933  3.7706  3.1135
  165SAPE   C2618484   6.386   4.101   2.963 -0.2514  0.0215 -0.1655
  165SAPE   H6R18485   6.485   4.099   3.011 -0.3438  0.3870  0.0420
  165SAPE   C2718486   6.266   4.068   3.047  0.0653  0.0553 -0.0144
  165SAPE   H7R18487   6.196   4.153   3.033  0.6712  0.3519 -1.4498
  165SAPE   H7S18488   6.294   4.074   3.154  0.2542  1.0224 -0.1078
  165SAPE   C2818489   6.212   3.934   2.999 -0.5614  0.0763 -0.4380
  165SAPE   H8R18490   6.261   3.884   2.914 -0.0090  0.4945 -0.3667
  165SAPE   C2918491   6.115   3.877   3.077 -0.4737  0.3874  0.3686
  165SAPE   H9R18492   6.075   3.783   3.036  0.5259  1.0515 -2.3405
  165SAPE  C21018493   6.041   3.929   3.201  0.8268  0.4890 -0.0677
  165SAPE  H10R18494   6.053   4.039   3.213 -0.3258  0.6795 -0.5293
  165SAPE  H10S18495   6.097   3.891   3.289 -0.3396 -2.8600 -0.6443
  165SAPE  C21118496   5.892   3.878   3.196 -0.1886  0.2652  0.4134
  165SAPE  H11R18497   5.830   3.932   3.123 -0.6148 -0.5093  0.1922
  165SAPE  C21218498   5.839   3.780   3.266  0.1715  0.0507 -0.0551
  165SAPE  H12R18499   5.732   3.758   3.251 -1.2211  3.5623  3.1038
  165SAPE  C21318500   5.904   3.691   3.373 -0.2333 -0.6102 -0.0176
  165SAPE  H13R18501   6.015   3.686   3.373 -0.2220 -0.5037  1.1421
  165SAPE  H13S18502   5.872   3.590   3.341 -1.4570  0.0676 -1.0162
  165SAPE  C21418503   5.858   3.728   3.511  0.4225 -0.2581  0.2784
  165SAPE  H14R18504   5.852   3.837   3.528  0.4113  0.1200 -1.8187
  165SAPE  C21518505   5.841   3.644   3.611 -0.6290  0.1539 -0.0567
  165SAPE  H15R18506   5.804   3.681   3.708 -0.8361 -2.9912  1.2127
  165SAPE  C21618507   5.857   3.491   3.597  0.8120  0.5297 -0.4408
  165SAPE  H16R18508   5.908   3.460   3.691 -0.3089 -1.3000 -0.4022
  165SAPE  H16S18509   5.936   3.470   3.522 -0.0934 -0.7752 -1.0603
  165SAPE  C21718510   5.723   3.421   3.577  0.6353 -0.5113 -0.8532
  165SAPE  H17R18511   5.758   3.316   3.570  2.9177  0.1540 -0.2353
  165SAPE  H17S18512   5.677   3.454   3.481 -0.2624 -0.6329 -0.4810
  165SAPE  C21818513   5.619   3.438   3.684 -0.3869 -0.5745  0.3035
  165SAPE  H18R18514   5.540   3.370   3.645 -2.1204  1.1405  0.6913
  165SAPE  H18S18515   5.578   3.540   3.690  0.1388 -0.2884 -0.6937
  165SAPE  C21918516   5.663   3.399   3.835  0.3478  0.3022  0.1062
  165SAPE  H19R18517   5.713   3.485   3.886 -1.0949  1.8196 -0.9598
  165SAPE  H19S18518   5.742   3.321   3.823 -0.2430 -0.0182 -2.1228
  165SAPE  C22018519   5.550   3.357   3.926  0.1180 -0.2188 -0.1760
  165SAPE  H20R18520   5.453   3.371   3.873 -1.7510 -0.2519  2.9721
  165SAPE  H20S18521   5.560   3.414   4.021  2.4598 -2.2318  0.8989
  165SAPE  H20T18522   5.566   3.248   3.940 -0.4095 -0.2447  0.2925
  165SAPE   C3318523   6.818   3.975   2.876  0.2242 -0.2275  0.3009
  165SAPE   H3X18524   6.748   4.059   2.859 -1.0182 -0.9653  1.5985
  165SAPE   H3Y18525   6.916   4.024   2.858 -0.3345  1.0730  0.6951
  165SAPE   C3418526   6.789   3.926   3.024 -0.1838  1.2131  0.0372
  165SAPE   H4X18527   6.852   3.839   3.052 -1.1986  0.5771  0.3822
  165SAPE   H4Y18528   6.685   3.887   3.021  0.7073 -1.3161 -0.4612
  165SAPE   C3518529   6.812   4.034   3.128  0.4430  0.2523  0.2850
  165SAPE   H5X18530   6.736   4.115   3.130 -0.9374 -0.9621 -0.8799
  165SAPE   H5Y18531   6.911   4.081   3.110  1.8571 -2.9254 -1.2451
  165SAPE   C3618532   6.827   3.975   3.267  0.4988  0.0017 -0.1889
  165SAPE   H6X18533   6.915   3.908   3.280  1.3533  1.2538  0.6567
  165SAPE   H6Y18534   6.741   3.905   3.283  0.9319 -0.4014  0.4122
  165SAPE   C3718535   6.818   4.077   3.383  1.2169 -0.4104 -0.0996
  165SAPE   H7X18536   6.723   4.134   3.371  2.7608  1.9506 -2.2226
  165SAPE   H7Y18537   6.909   4.141   3.377  2.8030 -2.6871 -2.7098
  165SAPE   C3818538   6.800   4.022   3.527  0.0382  0.4579 -0.6567
  165SAPE   H8X18539   6.890   3.958   3.545 -1.0915 -0.7763  0.9099
  165SAPE   H8Y18540   6.722   3.944   3.534  0.9893 -0.5002 -0.2911
  165SAPE   C3918541   6.790   4.126   3.645 -0.1751  0.1596 -0.1227
  165SAPE   H9X18542   6.722   4.208   3.614 -0.1310 -0.6486 -2.5781
  165SAPE   H9Y18543   6.894   4.164   3.660 -0.1609 -0.1599  0.6369
  165SAPE  C31018544   6.755   4.059   3.780 -0.1340  0.0937 -0.5812
  165SAPE  H10X18545   6.838   3.985   3.789 -0.9167 -0.9033 -1.3369
  165SAPE  H10Y18546   6.660   4.001   3.778 -2.3420  3.1135  3.1082
  165SAPE  C31118547   6.749   4.155   3.899 -0.2549 -0.3834 -0.1028
  165SAPE  H11X18548   6.851   4.200   3.905  0.1494 -1.1027 -1.1384
  165SAPE  H11Y18549   6.720   4.095   3.987 -1.6122 -1.6061 -1.3343
  165SAPE  C31218550   6.652   4.275   3.890 -0.2271  0.8156 -0.2353
  165SAPE  H12X18551   6.568   4.222   3.840 -0.2909  0.1140  0.5904
  165SAPE  H12Y18552   6.681   4.360   3.825 -1.5293  1.1603 -0.3994
  165SAPE  C31318553   6.595   4.330   4.017  0.2278  0.2433  0.6630
  165SAPE  H13X18554   6.551   4.247   4.077  0.5280  0.1127  0.7024
  165SAPE  H13Y18555   6.515   4.400   3.984 -0.1688 -0.4426  0.1428
  165SAPE  C31418556   6.700   4.399   4.107  0.2310  0.1809  0.3943
  165SAPE  H14X18557   6.689   4.508   4.089 -0.1099  0.2730  1.0979
  165SAPE  H14Y18558   6.806   4.372   4.090  0.0958 -1.4849  1.9334
  165SAPE  C31518559   6.672   4.371   4.257  0.5751  0.1138  0.2611
  165SAPE  H15X18560   6.762   4.411   4.309  1.0502  0.3099 -0.6877
  165SAPE  H15Y18561   6.675   4.269   4.302  0.0886  0.8983  2.1749
  165SAPE  C31618562   6.538   4.415   4.311  0.1627 -0.3732  0.8271
  165SAPE  H16X18563   6.540   4.377   4.416 -1.0029 -1.9909  0.3053
  165SAPE  H16Y18564   6.465   4.365   4.244  0.3996 -1.3467  1.2728
  165SAPE  C31718565   6.522   4.560   4.317 -0.4407 -0.3192 -0.9619
  165SAPE  H17X18566   6.508   4.585   4.210 -1.4461 -0.0944 -0.7843
  165SAPE  H17Y18567   6.618   4.598   4.359 -0.3052 -0.3058 -1.2839
  165SAPE  C31818568   6.409   4.621   4.402  0.1737  0.0150  0.0871
  165SAPE  H18X18569   6.421   4.604   4.511 -0.5962  1.6130  0.4489
  165SAPE  H18Y18570   6.317   4.573   4.361  0.5454 -1.0041  0.4084
  165SAPE  H18Z18571   6.403   4.730   4.383  2.6945  0.2018  0.0016
  166SAPE     N18572   6.233   3.837   2.394 -0.8023 -0.4810 -0.0165
  166SAPE   HN118573   6.253   3.851   2.495  1.3697  0.9892 -0.5645
  166SAPE   HN218574   6.169   3.914   2.364 -1.1268 -0.5412  0.5155
  166SAPE   HN318575   6.169   3.755   2.390 -0.7698 -0.5247  0.3608
  166SAPE   C1218576   6.351   3.817   2.310 -0.3831 -0.9392 -0.8607
  166SAPE  H12A18577   6.417   3.906   2.320 -0.2740 -1.0175 -0.8671
  166SAPE  H12B18578   6.317   3.829   2.205  1.1714  0.6178 -1.2272
  166SAPE   C1118579   6.400   3.678   2.341 -0.1020  0.4701 -0.0390
  166SAPE  H11A18580   6.407   3.673   2.452 -4.8382  3.2487  0.6545
  166SAPE  H11B18581   6.498   3.670   2.290  1.4434 -0.9370  2.8671
  166SAPE     P18582   6.360   3.432   2.310 -0.0454 -0.1632 -0.2895
  166SAPE   O1318583   6.249   3.346   2.262 -1.0024 -0.3132 -1.0143
  166SAPE   O1418584   6.493   3.423   2.247  0.6875  0.6425  0.6165
  166SAPE   O1218585   6.307   3.579   2.289  0.0212  0.3755  0.6088
  166SAPE   O1118586   6.366   3.427   2.473  0.4056  0.1949 -0.3059
  166SAPE    C118587   6.451   3.333   2.541 -0.3703 -0.2933 -0.4518
  166SAPE    HA18588   6.441   3.226   2.511  2.0028 -0.7361  0.0922
  166SAPE    HB18589   6.554   3.367   2.516 -0.6137  0.1534 -0.8455
  166SAPE    C218590   6.441   3.349   2.695  0.0922 -0.4263  0.0276
  166SAPE    HS18591   6.526   3.299   2.747 -0.1660  1.1869  2.1159
  166SAPE   O2118592   6.315   3.312   2.752 -0.3851 -0.0756  0.3802
  166SAPE   C2118593   6.302   3.190   2.777 -0.2123  0.3966  0.0967
  166SAPE   O2218594   6.390   3.104   2.775 -0.1178  0.0316 -0.1452
  166SAPE   C2218595   6.159   3.161   2.798 -0.4629 -0.1113  0.4184
  166SAPE   H2R18596   6.117   3.178   2.697  0.7039 -2.4477 -0.5363
  166SAPE   H2S18597   6.160   3.054   2.828  1.5860 -0.1826  0.2406
  166SAPE    C318598   6.448   3.495   2.724 -0.1340  0.1703  0.7870
  166SAPE    HX18599   6.344   3.532   2.707 -0.6823 -1.2900  0.8486
  166SAPE    HY18600   6.523   3.554   2.667 -1.3995  2.3315  1.2446
  166SAPE   O3118601   6.475   3.513   2.865  0.1000 -0.2840 -0.4975
  166SAPE   C3118602   6.470   3.630   2.919 -0.2929 -0.2028  0.6072
  166SAPE   O3218603   6.447   3.736   2.858 -0.4829 -0.4458  0.8321
  166SAPE   C3218604   6.483   3.617   3.069 -0.1025  0.0282  0.8707
  166SAPE   H2X18605   6.535   3.706   3.110  0.2698 -0.5601  1.7012
  166SAPE   H2Y18606   6.558   3.535   3.073 -1.4311 -1.2829  0.0487
  166SAPE   C2318607   6.083   3.253   2.897  0.5638 -0.1223  0.6193
  166SAPE   H3R18608   5.976   3.223   2.903  0.0064  1.8106  0.9719
  166SAPE   H3S18609   6.089   3.359   2.863  3.0900 -0.6698 -0.8879
  166SAPE   C2418610   6.122   3.250   3.047 -0.3741  0.4850 -0.2028
  166SAPE   H4R18611   6.053   3.306   3.113 -1.4201  0.3904 -1.1798
  166SAPE   H4S18612   6.227   3.285   3.056 -0.1020 -0.7262  1.9905
  166SAPE   C2518613   6.127   3.110   3.102 -0.6103 -0.1812 -0.0015
  166SAPE   H5R18614   6.136   3.033   3.024  3.0457 -1.0987  1.1477
  166SAPE   C2618615   6.159   3.081   3.233  0.2964 -0.3250 -0.9637
  166SAPE   H6R18616   6.183   2.978   3.263 -1.1410 -0.3424  0.2137
  166SAPE   C2718617   6.149   3.178   3.347  0.4293 -0.5382 -0.0153
  166SAPE   H7R18618   6.169   3.282   3.315  0.7898 -0.4016  0.6233
  166SAPE   H7S18619   6.225   3.152   3.425 -2.1927 -1.2975  2.4491
  166SAPE   C2818620   6.015   3.174   3.423 -0.5770  0.1013  0.6269
  166SAPE   H8R18621   5.929   3.159   3.356 -0.0869 -1.2974  0.2863
  166SAPE   C2918622   6.005   3.159   3.555 -0.0011 -0.5179 -1.2685
  166SAPE   H9R18623   5.907   3.156   3.606  0.1962 -1.2794 -0.9141
  166SAPE  C21018624   6.112   3.154   3.664 -0.0678 -0.1832  0.1069
  166SAPE  H10R18625   6.206   3.206   3.639  0.2840 -0.3384  1.0870
  166SAPE  H10S18626   6.135   3.047   3.681 -1.6325 -0.3814  1.2271
  166SAPE  C21118627   6.061   3.212   3.795 -0.2131 -0.6680  0.6660
  166SAPE  H11R18628   5.962   3.172   3.823 -0.5307  0.2954  0.9574
  166SAPE  C21218629   6.110   3.311   3.872 -0.5824 -0.0319  0.4131
  166SAPE  H12R18630   6.065   3.338   3.969 -2.4787  1.2701 -0.7440
  166SAPE  C21318631   6.243   3.372   3.840 -0.1367 -1.1128 -0.5673
  166SAPE  H13R18632   6.254   3.379   3.729  0.1030  1.1654 -0.4438
  166SAPE  H13S18633   6.330   3.309   3.868 -0.3093 -0.5343  1.4446
  166SAPE  C21418634   6.253   3.514   3.890 -0.0976 -0.6613  0.7201
  166SAPE  H14R18635   6.174   3.573   3.842  3.0900  2.0804 -1.6643
  166SAPE  C21518636   6.346   3.576   3.968  0.2987  0.0780  0.6029
  166SAPE  H15R18637   6.327   3.681   3.995 -0.2442 -0.1174  1.0007
  166SAPE  C21618638   6.467   3.524   4.043 -0.3618  0.1896 -0.1029
  166SAPE  H16R18639   6.555   3.591   4.030  0.8369 -1.5047 -1.0481
  166SAPE  H16S18640   6.489   3.420   4.011  1.2622  0.7591 -0.9511
  166SAPE  C21718641   6.432   3.536   4.196 -0.3093 -0.3905  0.3077
  166SAPE  H17R18642   6.330   3.498   4.220 -0.6834  0.0287 -0.5666
  166SAPE  H17S18643   6.431   3.644   4.223 -3.7591 -0.5810  1.3859
  166SAPE  C21818644   6.529   3.461   4.291  0.8285 -0.5235 -1.2463
  166SAPE  H18R18645   6.511   3.353   4.271 -0.7584 -0.3005 -1.1499
  166SAPE  H18S18646   6.490   3.474   4.394  1.2220  1.6819 -1.3152
  166SAPE  C21918647   6.677   3.491   4.275 -0.3133  0.5099  0.0404
  166SAPE  H19R18648   6.703   3.599   4.284  2.0210 -0.1538  2.5809
  166SAPE  H19S18649   6.710   3.455   4.175  1.8933  0.4707  0.7283
  166SAPE  C22018650   6.750   3.413   4.386 -0.4571  0.3925 -0.8886
  166SAPE  H20R18651   6.742   3.472   4.480 -0.2470  1.1898 -1.3646
  166SAPE  H20S18652   6.860   3.406   4.376 -0.4560  1.2430 -1.5722
  166SAPE  H20T18653   6.715   3.308   4.399  0.5660  0.2128  0.6010
  166SAPE   C3318654   6.354   3.571   3.137 -0.3595  0.0138 -0.1034
  166SAPE   H3X18655   6.326   3.476   3.087  0.5127 -0.1976 -0.2035
  166SAPE   H3Y18656   6.274   3.647   3.123  0.6128  0.9947 -0.4066
  166SAPE   C3418657   6.384   3.547   3.287  0.0602  0.0069 -0.4200
  166SAPE   H4X18658   6.466   3.474   3.305 -0.2707 -0.3931 -0.5106
  166SAPE   H4Y18659   6.283   3.507   3.310  0.1726 -0.2062 -0.2887
  166SAPE   C3518660   6.400   3.683   3.353 -0.0174  0.1966 -0.1813
  166SAPE   H5X18661   6.340   3.764   3.306  0.4658  1.3479  1.0910
  166SAPE   H5Y18662   6.502   3.725   3.341  0.8227 -1.4910  0.7292
  166SAPE   C3618663   6.349   3.679   3.498 -0.1250  0.2304  0.8566
  166SAPE   H6X18664   6.413   3.613   3.560  1.8861  0.7457 -0.5684
  166SAPE   H6Y18665   6.245   3.647   3.518  0.5882 -1.1833  2.6272
  166SAPE   C3718666   6.384   3.810   3.559  0.0195  0.6096  0.5014
  166SAPE   H7X18667   6.334   3.898   3.515 -1.9224  0.9131  3.1113
  166SAPE   H7Y18668   6.492   3.814   3.533 -0.5160 -0.1348 -2.1281
  166SAPE   C3818669   6.367   3.826   3.716 -0.7151 -0.0961 -0.1105
  166SAPE   H8X18670   6.456   3.774   3.757 -0.3575 -0.8948 -1.8167
  166SAPE   H8Y18671   6.278   3.766   3.747 -0.5487 -0.6242 -0.6511
  166SAPE   C3918672   6.354   3.968   3.769  0.5753 -0.1097 -0.3411
  166SAPE   H9X18673   6.261   4.004   3.722  0.7165  1.5969  0.5755
  166SAPE   H9Y18674   6.445   4.031   3.755  0.9820 -0.7539 -0.6539
  166SAPE  C31018675   6.322   3.972   3.925 -0.3508  0.3465 -0.1793
  166SAPE  H10X18676   6.244   3.893   3.934 -0.6143  0.7087  0.8453
  166SAPE  H10Y18677   6.280   4.072   3.948 -2.4833 -0.6852  0.7188
  166SAPE  C31118678   6.446   3.950   4.010 -0.0576  0.1876 -0.4551
  166SAPE  H11X18679   6.512   4.038   3.994  2.8900 -2.1079 -1.9020
  166SAPE  H11Y18680   6.503   3.860   3.977 -1.6804 -1.4027  0.8439
  166SAPE  C31218681   6.411   3.955   4.159 -0.2954  1.0683  0.8321
  166SAPE  H12X18682   6.330   3.883   4.184 -0.5509  0.3157 -1.8447
  166SAPE  H12Y18683   6.378   4.060   4.174  0.8567  1.5789 -0.0425
  166SAPE  C31318684   6.541   3.935   4.244 -0.6444  0.3181 -0.6157
  166SAPE  H13X18685   6.620   4.001   4.202 -3.8386  4.2137 -1.1038
  166SAPE  H13Y18686   6.583   3.833   4.234  2.7292  1.3988  0.9408
  166SAPE  C31418687   6.525   3.966   4.395  0.7430  0.0874 -0.6742
  166SAPE  H14X18688   6.456   3.883   4.419 -0.4153  1.5056  1.1879
  166SAPE  H14Y18689   6.471   4.064   4.391  0.1159 -0.2609 -0.9482
  166SAPE  C31518690   6.646   3.963   4.495  0.6350  0.5353  0.4949
  166SAPE  H15X18691   6.607   4.000   4.593  1.4383  2.3331  0.1818
  166SAPE  H15Y18692   6.716   4.042   4.461  0.3869 -0.7518 -3.4576
  166SAPE  C31618693   6.715   3.832   4.521  0.3456 -0.1668  0.3275
  166SAPE  H16X18694   6.812   3.825   4.469  1.1838  0.7591  1.6945
  166SAPE  H16Y18695   6.642   3.754   4.490  0.5708 -1.1097  2.0240
  166SAPE  C31718696   6.741   3.802   4.670  0.5271  0.2816  0.2199
  166SAPE  H17X18697   6.795   3.879   4.729 -1.1306  0.3315  1.7607
  166SAPE  H17Y18698   6.808   3.714   4.678  0.8711  0.5784  0.6715
  166SAPE  C31818699   6.625   3.786   4.766  0.4447 -0.2240 -0.2158
  166SAPE  H18X18700   6.662   3.802   4.870 -2.7833 -0.0622  1.0105
  166SAPE  H18Y18701   6.584   3.684   4.749 -0.8569  0.4209 -1.0889
  166SAPE  H18Z18702   6.543   3.858   4.746  1.7672  0.8984 -1.8719
  167SAPE     N18703   6.158   1.648   2.685 -0.1332 -0.4388 -0.8297
  167SAPE   HN118704   6.089   1.580   2.722  0.6020 -0.7253  0.0756
  167SAPE   HN218705   6.153   1.727   2.753 -0.5905 -1.8191  0.8279
  167SAPE   HN318706   6.120   1.692   2.599  0.5845 -1.3497 -1.6334
  167SAPE   C1218707   6.300   1.591   2.674  0.1384  0.0212  0.9153
  167SAPE  H12A18708   6.315   1.514   2.753  0.0651 -2.3774 -1.3040
  167SAPE  H12B18709   6.375   1.672   2.687 -0.1175  0.7340 -1.5737
  167SAPE   C1118710   6.306   1.537   2.535 -0.4047 -0.5291  0.1663
  167SAPE  H11A18711   6.412   1.508   2.516 -0.2152  0.6303 -0.6419
  167SAPE  H11B18712   6.278   1.613   2.458 -0.2329 -1.0068 -0.3811
  167SAPE     P18713   6.210   1.330   2.405  0.0141 -0.1164  0.5990
  167SAPE   O1318714   6.289   1.377   2.286  0.1537  0.2808  0.2042
  167SAPE   O1418715   6.241   1.192   2.453 -0.2462 -0.0706 -0.2398
  167SAPE   O1218716   6.216   1.425   2.529 -0.3890  0.1070 -0.0262
  167SAPE   O1118717   6.057   1.334   2.365  0.2959  0.3198 -0.2798
  167SAPE    C118718   5.959   1.412   2.442 -0.3270 -0.3970  0.6248
  167SAPE    HA18719   6.000   1.507   2.480 -0.4518  1.6866 -3.8925
  167SAPE    HB18720   5.878   1.450   2.376 -1.2419  0.1182  1.9929
  167SAPE    C218721   5.885   1.319   2.543 -0.4762 -0.3004  0.5609
  167SAPE    HS18722   5.799   1.381   2.576  0.0697  1.3995 -0.9826
  167SAPE   O2118723   5.973   1.284   2.653  0.5132 -0.2772  0.2525
  167SAPE   C2118724   6.006   1.364   2.757 -0.2579  0.1673 -0.0094
  167SAPE   O2218725   5.972   1.482   2.767 -0.5205 -0.0653 -0.2453
  167SAPE   C2218726   6.108   1.304   2.854 -0.1756  0.0671  0.1841
  167SAPE   H2R18727   6.083   1.197   2.868 -0.3578 -0.4691 -3.2304
  167SAPE   H2S18728   6.206   1.314   2.803  0.1414  1.2832  0.9935
  167SAPE    C318729   5.825   1.183   2.481  0.4210 -0.5681 -0.5572
  167SAPE    HX18730   5.911   1.127   2.438  0.0457 -2.3877  0.9572
  167SAPE    HY18731   5.755   1.213   2.401  0.7333  0.2942 -0.5256
  167SAPE   O3118732   5.757   1.099   2.572 -0.1139 -0.2935  0.0187
  167SAPE   C3118733   5.824   1.018   2.640 -0.0590 -0.0425 -0.5715
  167SAPE   O3218734   5.943   1.018   2.656 -0.0185 -0.0645  0.0238
  167SAPE   C3218735   5.716   0.929   2.713  0.2134 -0.6315  0.0659
  167SAPE   H2X18736   5.745   0.822   2.708 -1.6365 -1.1228 -2.4562
  167SAPE   H2Y18737   5.612   0.932   2.672 -0.5012 -0.1495  1.8357
  167SAPE   C2318738   6.115   1.378   2.990  0.9639 -0.0174  0.6085
  167SAPE   H3R18739   6.128   1.488   2.995 -0.7299  0.2102  5.2349
  167SAPE   H3S18740   6.206   1.345   3.045  3.2830  2.1225 -1.6983
  167SAPE   C2418741   5.993   1.338   3.075 -0.8483  0.7460  0.0033
  167SAPE   H4R18742   6.021   1.349   3.182 -0.1054  0.5728 -0.1666
  167SAPE   H4S18743   5.974   1.229   3.062 -1.0922  0.2582  3.4925
  167SAPE   C2518744   5.860   1.410   3.050 -0.0196 -0.1597  0.1286
  167SAPE   H5R18745   5.782   1.348   3.004 -2.3353  2.2641  0.5398
  167SAPE   C2618746   5.827   1.541   3.075 -0.2091  0.0048 -0.1508
  167SAPE   H6R18747   5.728   1.575   3.041  0.5347  1.7357 -0.6835
  167SAPE   C2718748   5.928   1.637   3.130  0.5050 -0.8335 -0.3478
  167SAPE   H7R18749   5.951   1.715   3.054 -2.3973  0.9282  0.4252
  167SAPE   H7S18750   6.033   1.603   3.145  1.3896  2.3903  2.1017
  167SAPE   C2818751   5.889   1.707   3.261 -0.5188  0.5391 -0.1315
  167SAPE   H8R18752   5.851   1.808   3.243  1.0885  1.2913  0.5294
  167SAPE   C2918753   5.882   1.659   3.385 -0.1212 -0.4842 -0.2802
  167SAPE   H9R18754   5.872   1.739   3.460 -1.0950 -0.7817 -0.0777
  167SAPE  C21018755   5.916   1.525   3.438  0.3207 -0.3458 -0.7898
  167SAPE  H10R18756   5.934   1.445   3.364  0.2773 -2.5847  1.4906
  167SAPE  H10S18757   5.826   1.482   3.485  0.8242 -1.7892 -1.1041
  167SAPE  C21118758   6.028   1.531   3.541  0.1890 -0.2957  0.4596
  167SAPE  H11R18759   6.125   1.506   3.496 -0.2764 -0.5488 -0.4166
  167SAPE  C21218760   6.022   1.585   3.662  0.3106  0.2905 -0.3191
  167SAPE  H12R18761   6.114   1.573   3.721 -1.3895 -2.0002  2.1018
  167SAPE  C21318762   5.897   1.633   3.721  0.6770 -0.2903 -0.0334
  167SAPE  H13R18763   5.807   1.605   3.663  0.2502  0.7544  0.1081
  167SAPE  H13S18764   5.897   1.742   3.700 -0.0522 -0.2482  0.1536
  167SAPE  C21418765   5.875   1.592   3.868 -0.0967 -0.4555 -0.5262
  167SAPE  H14R18766   5.956   1.532   3.912 -0.9911 -0.7351  0.7926
  167SAPE  C21518767   5.766   1.619   3.943  0.6863 -0.3008  0.3058
  167SAPE  H15R18768   5.758   1.598   4.050 -1.9337 -1.9680 -0.1229
  167SAPE  C21618769   5.651   1.689   3.887  0.1442  0.0946  0.4185
  167SAPE  H16R18770   5.558   1.656   3.938 -0.5992 -0.6253 -1.3354
  167SAPE  H16S18771   5.631   1.666   3.780 -2.2169  0.9959  0.6219
  167SAPE  C21718772   5.680   1.841   3.913 -0.3818  0.3345  0.4723
  167SAPE  H17R18773   5.597   1.892   3.861  1.2335  1.1539 -1.4186
  167SAPE  H17S18774   5.778   1.863   3.865 -1.2354  1.0446 -1.0141
  167SAPE  C21818775   5.683   1.899   4.055 -0.0453  0.0004  0.0221
  167SAPE  H18R18776   5.750   1.839   4.120  1.6930  1.2988 -0.4971
  167SAPE  H18S18777   5.579   1.877   4.086 -0.2736  1.1260  0.0927
  167SAPE  C21918778   5.718   2.050   4.061  0.1033  0.3618  0.0354
  167SAPE  H19R18779   5.811   2.079   4.009  1.6829 -0.5679  2.2024
  167SAPE  H19S18780   5.742   2.062   4.169  0.6678 -2.2400  0.2683
  167SAPE  C22018781   5.596   2.133   4.031  0.5751 -0.3523  0.0704
  167SAPE  H20R18782   5.517   2.113   4.105  0.5009  4.4383  1.6560
  167SAPE  H20S18783   5.551   2.110   3.932 -1.8338 -0.8211  1.2042
  167SAPE  H20T18784   5.623   2.241   4.037  2.4073 -0.8398  1.4565
  167SAPE   C3318785   5.692   0.968   2.862  0.1801 -0.8611 -0.0079
  167SAPE   H3X18786   5.600   0.918   2.900  0.7479 -1.5051  0.5400
  167SAPE   H3Y18787   5.665   1.076   2.857  1.2647 -0.6340 -2.5030
  167SAPE   C3418788   5.814   0.941   2.951 -0.1833  0.7902 -0.1659
  167SAPE   H4X18789   5.895   0.994   2.896  0.2492  0.1251 -0.1637
  167SAPE   H4Y18790   5.837   0.833   2.943 -0.9565  0.6070 -0.0493
  167SAPE   C3518791   5.815   0.987   3.096  0.4354 -1.2568  0.4639
  167SAPE   H5X18792   5.748   0.941   3.171 -0.2791  2.3493  2.2805
  167SAPE   H5Y18793   5.791   1.096   3.102  2.7865 -0.6193 -0.6524
  167SAPE   C3618794   5.955   0.958   3.164 -0.0010 -0.3587 -0.6233
  167SAPE   H6X18795   6.045   0.995   3.110  1.0268 -0.2159  1.1314
  167SAPE   H6Y18796   5.958   0.848   3.172 -1.5103 -0.7321 -3.6101
  167SAPE   C3718797   5.991   1.033   3.294  0.5735 -0.2701  0.2756
  167SAPE   H7X18798   5.946   1.134   3.286 -0.4994 -0.5589  2.1792
  167SAPE   H7Y18799   6.101   1.045   3.303  0.7084 -2.1616  1.8193
  167SAPE   C3818800   5.948   0.961   3.427 -0.4094 -0.6749 -0.4718
  167SAPE   H8X18801   5.977   0.854   3.436 -2.9071 -1.2954  1.3787
  167SAPE   H8Y18802   5.838   0.961   3.436 -0.2105 -0.8619  4.1288
  167SAPE   C3918803   5.993   1.033   3.556 -0.6922 -0.6830 -0.2607
  167SAPE   H9X18804   5.912   1.107   3.573 -1.1520 -0.9626 -1.1604
  167SAPE   H9Y18805   6.089   1.086   3.537 -1.3686  0.5523 -0.3046
  167SAPE  C31018806   6.004   0.935   3.668 -0.1794  0.0667 -0.1895
  167SAPE  H10X18807   6.071   0.851   3.639  1.1177  0.7996  0.5593
  167SAPE  H10Y18808   5.902   0.894   3.685 -0.2002  0.7054  1.4250
  167SAPE  C31118809   6.057   0.993   3.802  0.2800  0.2868  0.4413
  167SAPE  H11X18810   6.052   1.102   3.780 -1.8041 -0.2174 -2.0061
  167SAPE  H11Y18811   6.161   0.960   3.821  0.5808  0.7760 -0.3203
  167SAPE  C31218812   5.975   0.951   3.920  0.0182  0.8920 -0.6828
  167SAPE  H12X18813   5.943   0.844   3.913 -1.9402  1.3741  0.2366
  167SAPE  H12Y18814   5.882   1.008   3.904 -1.0237 -0.6878 -0.4597
  167SAPE  C31318815   6.029   0.976   4.068  0.9751  0.7489  0.4012
  167SAPE  H13X18816   6.049   1.082   4.096  0.8357  0.9241 -0.1542
  167SAPE  H13Y18817   6.117   0.916   4.098 -0.6515 -2.4761 -0.8311
  167SAPE  C31418818   5.902   0.947   4.152  0.6573  0.1210  0.2891
  167SAPE  H14X18819   5.868   0.844   4.127  0.2066  1.0825 -3.6393
  167SAPE  H14Y18820   5.814   1.013   4.134 -0.8650 -2.0854 -0.7852
  167SAPE  C31518821   5.923   0.935   4.307 -0.4332 -0.2417  0.4640
  167SAPE  H15X18822   5.988   1.016   4.344 -2.0219  1.0430  0.5472
  167SAPE  H15Y18823   5.988   0.846   4.317  0.4468  0.0382 -1.9258
  167SAPE  C31618824   5.799   0.916   4.392 -0.1619  0.3059 -1.5716
  167SAPE  H16X18825   5.729   1.003   4.391 -1.3592 -0.5997 -0.5393
  167SAPE  H16Y18826   5.838   0.900   4.495  0.4950  0.0273 -1.8603
  167SAPE  C31718827   5.700   0.802   4.359  0.9504 -0.2678  0.5294
  167SAPE  H17X18828   5.750   0.710   4.395  0.7967  0.2670  2.1834
  167SAPE  H17Y18829   5.696   0.809   4.248  1.9664 -0.3054  0.4803
  167SAPE  C31818830   5.560   0.809   4.430 -0.4026  0.3269  0.5779
  167SAPE  H18X18831   5.523   0.913   4.446 -0.4684  0.7064 -1.6481
  167SAPE  H18Y18832   5.579   0.768   4.531 -1.0277  0.7298  0.8653
  167SAPE  H18Z18833   5.487   0.746   4.375  0.5726 -1.3868  1.1772
  168SAPE     N18834   1.677   5.764   2.306 -0.4319 -0.5654  0.2481
  168SAPE   HN118835   1.759   5.735   2.363 -0.2404 -2.4478 -0.9237
  168SAPE   HN218836   1.658   5.866   2.304 -2.2170 -0.8718 -1.4275
  168SAPE   HN318837   1.592   5.711   2.337  0.0691 -0.9495  0.9906
  168SAPE   C1218838   1.730   5.722   2.170  0.2796  0.1351 -0.2445
  168SAPE  H12A18839   1.833   5.760   2.154  1.7955 -2.0911  2.9641
  168SAPE  H12B18840   1.664   5.773   2.097  0.0888 -0.0818 -0.2237
  168SAPE   C1118841   1.714   5.569   2.139 -0.6175  0.1214  0.2898
  168SAPE  H11A18842   1.757   5.550   2.039  0.9596 -0.4716  1.0515
  168SAPE  H11B18843   1.609   5.541   2.116 -0.6926  0.6628 -0.0583
  168SAPE     P18844   1.903   5.415   2.237  0.1929  0.1216  0.2102
  168SAPE   O1318845   1.920   5.321   2.349 -0.2118 -0.1104 -0.0003
  168SAPE   O1418846   1.921   5.361   2.098  0.0601 -0.0102  0.0220
  168SAPE   O1218847   1.766   5.486   2.242 -0.0168 -0.7342  0.0632
  168SAPE   O1118848   2.023   5.525   2.237  0.1181 -0.0347  0.3889
  168SAPE    C118849   2.139   5.514   2.317 -0.4702  0.4344 -0.2470
  168SAPE    HA18850   2.162   5.405   2.322 -2.7962 -0.1313 -0.5830
  168SAPE    HB18851   2.217   5.570   2.261 -0.3953 -1.2283 -1.9167
  168SAPE    C218852   2.123   5.558   2.474  0.2159 -1.0161  0.7339
  168SAPE    HS18853   2.027   5.514   2.509  0.7324 -0.5923  2.8115
  168SAPE   O2118854   2.124   5.704   2.489 -0.4490 -0.1244 -0.3771
  168SAPE   C2118855   2.014   5.769   2.454 -0.0155 -0.1578  0.3602
  168SAPE   O2218856   1.908   5.726   2.418 -0.7404  0.3475  0.2438
  168SAPE   C2218857   2.039   5.917   2.456  0.3393 -0.4044  0.0283
  168SAPE   H2R18858   2.144   5.933   2.424 -0.7420  1.9822 -2.7124
  168SAPE   H2S18859   1.971   5.966   2.383 -1.0278 -0.3232  1.2977
  168SAPE    C318860   2.234   5.499   2.561  0.0066 -0.1094  0.7424
  168SAPE    HX18861   2.232   5.518   2.671  1.6387 -2.9497  1.3747
  168SAPE    HY18862   2.324   5.555   2.528 -1.0546  1.7964  0.9280
  168SAPE   O3118863   2.255   5.359   2.540  0.2592 -0.7212  0.1341
  168SAPE   C3118864   2.156   5.285   2.587  0.4313  0.1283 -0.4874
  168SAPE   O3218865   2.058   5.335   2.641 -0.2745 -0.0323 -0.3830
  168SAPE   C3218866   2.187   5.142   2.581 -0.2548  0.0661 -0.9485
  168SAPE   H2X18867   2.297   5.126   2.583 -0.2214  0.3188 -0.4936
  168SAPE   H2Y18868   2.150   5.112   2.481  0.6964 -1.4006 -0.8901
  168SAPE   C2318869   2.008   5.974   2.594 -0.1569  0.4848 -0.6884
  168SAPE   H3R18870   2.030   6.083   2.592 -0.2144  0.5362  0.5967
  168SAPE   H3S18871   2.086   5.927   2.657  0.5706  2.0650 -0.3517
  168SAPE   C2418872   1.867   5.940   2.646  0.6479 -0.6785  0.0253
  168SAPE   H4R18873   1.872   5.946   2.757  0.9382 -0.7242  0.0159
  168SAPE   H4S18874   1.833   5.837   2.623  2.4623 -0.9105 -1.9715
  168SAPE   C2518875   1.777   6.053   2.600 -0.0493 -0.2121 -0.0953
  168SAPE   H5R18876   1.790   6.081   2.494 -1.6739  2.2175  0.2786
  168SAPE   C2618877   1.690   6.120   2.673 -0.9728  0.1376 -0.2094
  168SAPE   H6R18878   1.618   6.191   2.630 -2.7505 -1.9019 -0.8114
  168SAPE   C2718879   1.662   6.099   2.818  0.2461 -0.3239 -0.5401
  168SAPE   H7R18880   1.758   6.086   2.872  1.4705  2.9601 -1.6634
  168SAPE   H7S18881   1.619   5.999   2.841  2.1126 -0.8350  1.0466
  168SAPE   C2818882   1.575   6.210   2.881  0.3783  0.8348  0.1265
  168SAPE   H8R18883   1.546   6.288   2.809 -1.1329 -1.8472 -2.3701
  168SAPE   C2918884   1.544   6.222   3.014  0.5510 -0.3098  0.8146
  168SAPE   H9R18885   1.482   6.310   3.039 -1.0114 -0.7559 -1.1788
  168SAPE  C21018886   1.584   6.134   3.132 -0.9018 -0.0256  0.4435
  168SAPE  H10R18887   1.511   6.161   3.212 -0.8329 -0.0395  0.5111
  168SAPE  H10S18888   1.682   6.168   3.172 -0.9872  1.0433 -0.2379
  168SAPE  C21118889   1.562   5.984   3.117  0.2039 -0.7047 -0.2117
  168SAPE  H11R18890   1.502   5.945   3.032 -0.4820 -3.1411  1.2758
  168SAPE  C21218891   1.589   5.895   3.215  0.2661 -0.0521 -0.4383
  168SAPE  H12R18892   1.588   5.790   3.183  0.0788 -0.4960  0.9962
  168SAPE  C21318893   1.662   5.921   3.346  0.7738 -0.1365  0.3788
  168SAPE  H13R18894   1.606   5.856   3.417 -2.0273  1.0937 -0.5760
  168SAPE  H13S18895   1.642   6.025   3.380 -0.5446 -0.2531  0.0250
  168SAPE  C21418896   1.809   5.894   3.356  0.5423 -0.7958 -0.5800
  168SAPE  H14R18897   1.867   5.979   3.316 -0.6379 -0.3693 -1.4554
  168SAPE  C21518898   1.859   5.783   3.413 -0.2627 -0.1382 -0.0403
  168SAPE  H15R18899   1.968   5.769   3.411 -0.2077  0.3105 -1.6759
  168SAPE  C21618900   1.787   5.671   3.480  0.2779  0.7325  0.9216
  168SAPE  H16R18901   1.730   5.615   3.403 -1.1876  0.9195  1.8175
  168SAPE  H16S18902   1.707   5.709   3.547 -1.1074 -2.6592  1.4118
  168SAPE  C21718903   1.866   5.565   3.560 -0.5509  0.5060 -0.1486
  168SAPE  H17R18904   1.929   5.504   3.491 -3.1667 -0.2079 -2.0667
  168SAPE  H17S18905   1.792   5.501   3.611  0.0052  0.0024  0.0493
  168SAPE  C21818906   1.968   5.622   3.655  0.7259  0.1767 -0.3240
  168SAPE  H18R18907   1.927   5.693   3.731  0.3189 -0.6468  0.2363
  168SAPE  H18S18908   2.044   5.679   3.597  0.2310  1.1785 -0.0119
  168SAPE  C21918909   2.047   5.521   3.737 -0.7549  0.4558 -0.9255
  168SAPE  H19R18910   2.148   5.542   3.695 -0.6290  0.1040 -0.7983
  168SAPE  H19S18911   2.021   5.417   3.711 -1.2463  0.7064 -1.4541
  168SAPE  C22018912   2.035   5.530   3.893  0.3348  0.4291  0.5056
  168SAPE  H20R18913   2.075   5.433   3.931  0.9028  0.4589  0.0093
  168SAPE  H20S18914   1.933   5.547   3.933  0.6585  1.0249  1.0885
  168SAPE  H20T18915   2.093   5.612   3.940  0.7711 -0.4892  1.6158
  168SAPE   C3318916   2.113   5.062   2.684 -0.1979  0.1850  0.5537
  168SAPE   H3X18917   2.120   4.953   2.665  2.2527  0.3076  0.3260
  168SAPE   H3Y18918   2.006   5.087   2.696 -0.2552 -0.3180  1.1011
  168SAPE   C3418919   2.180   5.073   2.820 -0.4139  0.0224  0.3991
  168SAPE   H4X18920   2.153   5.176   2.851 -0.8124  0.2723 -0.7334
  168SAPE   H4Y18921   2.290   5.084   2.809 -0.5694  2.2485  0.5792
  168SAPE   C3518922   2.134   4.976   2.923 -0.7056  0.8801 -0.2935
  168SAPE   H5X18923   2.185   4.992   3.020 -0.2179 -2.3674  0.1069
  168SAPE   H5Y18924   2.149   4.870   2.892 -2.0265  1.2063 -2.3079
  168SAPE   C3618925   1.986   4.993   2.958  0.3719  0.0446 -0.0386
  168SAPE   H6X18926   1.924   4.958   2.872 -0.6973 -1.4844  1.2987
  168SAPE   H6Y18927   1.962   5.102   2.964  1.3642  0.2342  0.7663
  168SAPE   C3718928   1.931   4.908   3.073  0.0980  0.3828  0.6054
  168SAPE   H7X18929   1.960   4.803   3.050  0.8825  1.2686 -3.1790
  168SAPE   H7Y18930   1.820   4.910   3.075  0.1004  2.5079  2.0874
  168SAPE   C3818931   1.984   4.946   3.213  0.0555 -0.5557  0.1204
  168SAPE   H8X18932   1.955   5.050   3.240  3.0529  0.3482  0.1250
  168SAPE   H8Y18933   2.094   4.939   3.224  0.3642 -1.4573 -2.7774
  168SAPE   C3918934   1.928   4.847   3.316 -0.0572  0.4695 -0.3235
  168SAPE   H9X18935   1.975   4.749   3.294 -0.6944 -0.3253  1.5921
  168SAPE   H9Y18936   1.819   4.834   3.299 -0.4045  3.9981 -1.6935
  168SAPE  C31018937   1.967   4.885   3.454 -0.0779 -0.2511  0.0539
  168SAPE  H10X18938   1.930   4.987   3.478  0.2466  0.5204 -2.4444
  168SAPE  H10Y18939   2.077   4.882   3.471 -0.3727 -0.4331  2.2817
  168SAPE  C31118940   1.910   4.790   3.563 -0.2770 -0.3489  0.4985
  168SAPE  H11X18941   1.960   4.691   3.562  1.3415  0.4135  1.4382
  168SAPE  H11Y18942   1.805   4.771   3.532  0.0887 -1.2410 -0.2298
  168SAPE  C31218943   1.888   4.844   3.707 -0.1730  0.0999 -0.3960
  168SAPE  H12X18944   1.828   4.936   3.694  0.4605  0.7802  1.1901
  168SAPE  H12Y18945   1.986   4.876   3.749 -0.7493  1.2679  0.0969
  168SAPE  C31318946   1.813   4.745   3.796 -0.1546 -0.6010  0.2501
  168SAPE  H13X18947   1.860   4.644   3.803  1.6960  0.1684 -0.3793
  168SAPE  H13Y18948   1.710   4.751   3.755  0.1953  1.4006 -0.4394
  168SAPE  C31418949   1.805   4.804   3.940 -0.4111  0.1929 -0.4062
  168SAPE  H14X18950   1.784   4.912   3.926  1.4373  0.5445 -0.7338
  168SAPE  H14Y18951   1.895   4.793   4.005  0.0302  1.4465 -0.7843
  168SAPE  C31518952   1.687   4.740   4.012  0.1253 -0.1017 -0.0934
  168SAPE  H15X18953   1.702   4.631   4.003 -1.6144 -0.2171 -2.8414
  168SAPE  H15Y18954   1.593   4.755   3.954  1.2578 -0.0403 -1.9858
  168SAPE  C31618955   1.661   4.788   4.156 -0.7174 -0.1496 -0.3367
  168SAPE  H16X18956   1.671   4.899   4.164  0.4314 -0.3234  1.2684
  168SAPE  H16Y18957   1.746   4.749   4.216 -0.2822 -1.5070 -1.7745
  168SAPE  C31718958   1.530   4.724   4.208 -0.0722 -0.0305  0.3761
  168SAPE  H17X18959   1.513   4.755   4.313 -1.2881  1.0924 -0.1131
  168SAPE  H17Y18960   1.537   4.614   4.210 -2.5719 -0.2952 -0.8837
  168SAPE  C31818961   1.396   4.762   4.138 -0.3591  0.0588  0.3123
  168SAPE  H18X18962   1.391   4.713   4.038  0.5566  0.8659 -0.1369
  168SAPE  H18Y18963   1.398   4.871   4.122  1.4820 -0.1716 -1.4031
  168SAPE  H18Z18964   1.304   4.728   4.191 -0.2435  0.8833  1.0516
  169SAPE     N18965   0.997   1.810   2.121 -0.6715  0.6073 -0.6959
  169SAPE   HN118966   1.009   1.909   2.092  0.8287  0.2730 -1.2847
  169SAPE   HN218967   1.085   1.781   2.166 -0.4709 -0.1213 -1.5382
  169SAPE   HN318968   0.995   1.756   2.032  0.5408 -2.2231  0.8742
  169SAPE   C1218969   0.875   1.790   2.202 -0.1538 -0.1884  0.6496
  169SAPE  H12A18970   0.874   1.688   2.246  0.6186  0.1372  1.4601
  169SAPE  H12B18971   0.783   1.811   2.143 -0.4540 -3.0411 -0.0238
  169SAPE   C1118972   0.875   1.882   2.329  0.1269  0.6099 -0.2346
  169SAPE  H11A18973   0.970   1.859   2.381 -0.6667  0.1846  1.0623
  169SAPE  H11B18974   0.795   1.856   2.401 -0.2877  0.7024 -0.6534
  169SAPE     P18975   0.739   2.105   2.262 -0.2977  0.0303  0.0481
  169SAPE   O1318976   0.764   2.248   2.221  0.2828 -0.0216 -0.2140
  169SAPE   O1418977   0.665   2.023   2.167  0.2188  1.0284  0.0669
  169SAPE   O1218978   0.876   2.023   2.291 -0.3021  0.1629  0.2242
  169SAPE   O1118979   0.660   2.110   2.396 -0.3205  0.1605 -0.5795
  169SAPE    C118980   0.729   2.119   2.520  0.3688 -0.5620  0.3857
  169SAPE    HA18981   0.794   2.031   2.538  3.0426  1.1740 -0.2889
  169SAPE    HB18982   0.793   2.210   2.524  2.4520 -2.0189  2.0347
  169SAPE    C218983   0.633   2.119   2.640 -0.6754 -0.9251 -0.0885
  169SAPE    HS18984   0.688   2.144   2.733 -0.5425  2.5602 -0.9609
  169SAPE   O2118985   0.561   1.997   2.651  0.0473 -0.3849  0.0751
  169SAPE   C2118986   0.599   1.920   2.751 -0.4041 -0.1343  0.4379
  169SAPE   O2218987   0.693   1.944   2.828 -0.7662 -0.3777  0.1624
  169SAPE   C2218988   0.513   1.798   2.746 -0.3588  0.3021  0.5352
  169SAPE   H2R18989   0.404   1.818   2.743 -0.5553 -0.7205  0.1547
  169SAPE   H2S18990   0.533   1.742   2.652  0.7904  1.4114  0.1000
  169SAPE    C318991   0.531   2.246   2.641  0.2574  0.0222 -0.0087
  169SAPE    HX18992   0.476   2.242   2.545 -0.5492  1.0612  0.3851
  169SAPE    HY18993   0.586   2.343   2.650  1.2621 -0.6312  1.3862
  169SAPE   O3118994   0.425   2.227   2.741 -0.0787  0.0982  0.1161
  169SAPE   C3118995   0.467   2.262   2.867 -0.5274 -0.2108 -0.7900
  169SAPE   O3218996   0.572   2.322   2.892 -0.3072 -0.2907  0.3592
  169SAPE   C3218997   0.352   2.243   2.966 -0.2655 -0.0327 -0.0762
  169SAPE   H2X18998   0.283   2.158   2.944 -1.4860  0.6120  1.0761
  169SAPE   H2Y18999   0.286   2.332   2.971  0.4387  0.4303  1.5950
  169SAPE   C2319000   0.529   1.693   2.860 -0.0669  0.0521  0.2862
  169SAPE   H3R19001   0.505   1.728   2.963  0.0108  0.8338  0.0461
  169SAPE   H3S19002   0.638   1.681   2.873 -0.1503  0.4779  1.5704
  169SAPE   C2419003   0.453   1.561   2.847  0.2493  0.4172  0.3267
  169SAPE   H4R19004   0.484   1.500   2.936 -1.0629  0.0250  0.5322
  169SAPE   H4S19005   0.497   1.506   2.761  0.5809 -2.4685  2.2021
  169SAPE   C2519006   0.305   1.569   2.832  0.3703 -0.0162  0.4493
  169SAPE   H5R19007   0.270   1.573   2.728 -0.6317 -0.4825  0.7592
  169SAPE   C2619008   0.212   1.579   2.927 -0.1154  0.3558 -0.2110
  169SAPE   H6R19009   0.107   1.602   2.901 -1.2124 -2.8251  0.8078
  169SAPE   C2719010   0.242   1.583   3.075 -0.6267 -0.1137  0.7119
  169SAPE   H7R19011   0.336   1.643   3.084 -0.0137 -0.3220 -2.9409
  169SAPE   H7S19012   0.273   1.480   3.102 -0.8282 -1.0431 -2.3162
  169SAPE   C2819013   0.129   1.624   3.169  0.0974  0.1712  0.1434
  169SAPE   H8R19014   0.038   1.668   3.125 -1.9792 -1.8571  2.1154
  169SAPE   C2919015   0.143   1.632   3.301 -0.0945  0.2193  0.0366
  169SAPE   H9R19016   0.063   1.684   3.356  0.6796  2.3284 -0.7130
  169SAPE  C21019017   0.253   1.583   3.389  0.2952 -0.2568  0.5218
  169SAPE  H10R19018   0.280   1.653   3.470  1.3313 -1.2524  1.0696
  169SAPE  H10S19019   0.341   1.568   3.323 -0.1670 -0.4628 -0.0563
  169SAPE  C21119020   0.208   1.453   3.454 -0.1663  1.4109  0.4822
  169SAPE  H11R19021   0.183   1.368   3.388 -1.8823  1.4729  0.9997
  169SAPE  C21219022   0.184   1.431   3.584 -1.0491 -0.3608  0.6108
  169SAPE  H12R19023   0.165   1.327   3.614  3.1472 -1.7095 -0.6672
  169SAPE  C21319024   0.191   1.526   3.703 -0.3958  0.5926 -0.1710
  169SAPE  H13R19025   0.143   1.621   3.673  0.4972  0.1402 -3.3312
  169SAPE  H13S19026   0.299   1.551   3.713 -0.1211  0.1498 -1.7921
  169SAPE  C21419027   0.130   1.490   3.833 -0.1170 -0.3526 -0.1322
  169SAPE  H14R19028   0.022   1.506   3.841  0.3963  2.9367  2.3813
  169SAPE  C21519029   0.198   1.429   3.934  0.0025  0.1053  0.0934
  169SAPE  H15R19030   0.145   1.392   4.022  2.1253  0.2861  1.5154
  169SAPE  C21619031   0.342   1.406   3.936  0.0192 -0.3065 -0.3070
  169SAPE  H16R19032   0.390   1.459   4.021 -1.4207  0.3099  0.1684
  169SAPE  H16S19033   0.392   1.461   3.854  0.1735  0.5113  0.3269
  169SAPE  C21719034   0.390   1.267   3.942 -1.0178 -0.9740  0.8348
  169SAPE  H17R19035   0.500   1.269   3.935 -1.0292  0.1151  0.8511
  169SAPE  H17S19036   0.351   1.203   3.860 -2.5334  2.0239 -0.9143
  169SAPE  C21819037   0.368   1.200   4.079  0.1055 -0.1283  0.2459
  169SAPE  H18R19038   0.406   1.096   4.079  0.6756  0.0475 -1.3673
  169SAPE  H18S19039   0.261   1.200   4.109 -0.6781 -1.4151 -2.2781
  169SAPE  C21919040   0.442   1.267   4.197 -0.0643  1.2563 -0.5977
  169SAPE  H19R19041   0.386   1.362   4.211 -2.0826  0.1004 -0.4905
  169SAPE  H19S19042   0.546   1.299   4.177  0.1035  0.7356 -0.5810
  169SAPE  C22019043   0.440   1.177   4.318  0.4943  0.4812 -0.5808
  169SAPE  H20R19044   0.339   1.139   4.343 -0.0915  3.0670  1.4977
  169SAPE  H20S19045   0.480   1.229   4.408 -1.1803 -0.1829  0.6044
  169SAPE  H20T19046   0.502   1.085   4.306 -1.0722 -1.4023  3.5262
  169SAPE   C3319047   0.397   2.212   3.109 -0.1326 -0.4395  0.1823
  169SAPE   H3X19048   0.387   2.306   3.168 -0.8076 -0.1863 -0.3218
  169SAPE   H3Y19049   0.505   2.186   3.115 -0.4757 -2.1580 -0.5698
  169SAPE   C3419050   0.309   2.099   3.170 -0.9308 -0.5067 -0.3798
  169SAPE   H4X19051   0.329   2.003   3.119  0.6447  0.2402 -1.2554
  169SAPE   H4Y19052   0.202   2.118   3.150 -1.7536  1.4671  4.4644
  169SAPE   C3519053   0.328   2.087   3.319 -0.3066  0.2065  0.6029
  169SAPE   H5X19054   0.311   2.184   3.370  2.9915  2.1228 -1.5551
  169SAPE   H5Y19055   0.436   2.068   3.339  0.0464  1.4018 -0.0839
  169SAPE   C3619056   0.238   1.981   3.382  0.0154  0.3554  0.3415
  169SAPE   H6X19057   0.312   1.902   3.407 -0.2945  0.7469  2.7113
  169SAPE   H6Y19058   0.162   1.957   3.304  1.7594  0.3359 -1.4486
  169SAPE   C3719059   0.170   2.029   3.513 -0.0969  0.5739  0.7925
  169SAPE   H7X19060   0.098   2.112   3.500 -0.5068  0.0081 -0.6945
  169SAPE   H7Y19061   0.249   2.052   3.588 -1.2349 -1.4488  2.7341
  169SAPE   C3819062   0.100   1.921   3.594 -0.0974  0.0026 -0.5286
  169SAPE   H8X19063   0.174   1.850   3.635  0.9623  1.7544  0.7176
  169SAPE   H8Y19064   0.033   1.867   3.524 -0.0880 -0.0325 -0.5101
  169SAPE   C3919065   0.009   1.969   3.710  0.7241  0.5547 -0.0828
  169SAPE   H9X19066  -0.069   2.038   3.670  0.8444 -0.2504 -1.7725
  169SAPE   H9Y19067   0.073   2.032   3.776 -2.8746  1.9795  2.3888
  169SAPE  C31019068  -0.037   1.859   3.809  0.1927  0.1066 -0.2631
  169SAPE  H10X19069   0.051   1.793   3.819  0.6894  0.9654  1.3603
  169SAPE  H10Y19070  -0.130   1.815   3.767 -1.2560  1.4013  1.4116
  169SAPE  C31119071  -0.087   1.909   3.942 -0.3294 -0.2978  0.4621
  169SAPE  H11X19072  -0.093   1.817   4.004  0.1005 -0.3159  0.4791
  169SAPE  H11Y19073  -0.182   1.967   3.945  0.1201  0.5623 -0.9491
  169SAPE  C31219074   0.010   1.989   4.034 -0.4518  0.5710 -0.1703
  169SAPE  H12X19075   0.030   2.085   3.984 -2.7983  0.9994 -0.4056
  169SAPE  H12Y19076   0.102   1.927   4.037 -0.4085  0.6006 -0.7968
  169SAPE  C31319077  -0.036   2.008   4.175  0.1454  0.2761  0.9167
  169SAPE  H13X19078  -0.060   1.910   4.222  3.2728 -0.2934  1.5522
  169SAPE  H13Y19079  -0.129   2.066   4.159  1.7220  2.2389 -2.1722
  169SAPE  C31419080   0.071   2.090   4.257  0.4310  0.0324 -0.0844
  169SAPE  H14X19081   0.075   2.190   4.209 -2.6808 -0.3913 -1.4743
  169SAPE  H14Y19082   0.167   2.034   4.253  0.2945 -0.5432  2.7255
  169SAPE  C31519083   0.031   2.104   4.407 -0.7728 -0.6469 -0.2093
  169SAPE  H15X19084  -0.046   2.185   4.412 -1.3450 -1.1450 -0.6788
  169SAPE  H15Y19085   0.121   2.139   4.462 -0.9643 -0.6810  0.1284
  169SAPE  C31619086  -0.014   1.971   4.474 -0.4702  0.5132  0.3432
  169SAPE  H16X19087   0.054   1.887   4.449 -0.5809 -0.5730  3.2976
  169SAPE  H16Y19088  -0.117   1.939   4.449 -0.8132  1.3177  0.7153
  169SAPE  C31719089  -0.018   1.993   4.623 -0.0264 -0.2187  0.2052
  169SAPE  H17X19090  -0.104   2.063   4.635  0.6553  0.4061  1.7735
  169SAPE  H17Y19091   0.077   2.035   4.663  0.6718 -0.5768 -1.0104
  169SAPE  C31819092  -0.057   1.861   4.693 -0.1884 -0.6490 -0.1795
  169SAPE  H18X19093  -0.119   1.800   4.625 -0.6995 -1.4705  0.9936
  169SAPE  H18Y19094  -0.108   1.886   4.789  0.6173  1.2678 -0.2053
  169SAPE  H18Z19095   0.033   1.811   4.734 -0.1198 -0.9008 -0.6288
  170SAPE     N19096   0.748   2.480   2.319  0.3882  0.0918  0.1600
  170SAPE   HN119097   0.810   2.494   2.402  0.4886 -0.6820  0.2270
  170SAPE   HN219098   0.749   2.380   2.290  0.6597 -0.0487  0.6335
  170SAPE   HN319099   0.782   2.547   2.247  0.1610 -0.5137 -0.5259
  170SAPE   C1219100   0.616   2.532   2.382  0.3668  0.7676  0.0663
  170SAPE  H12A19101   0.599   2.456   2.461  1.9949  1.1064  0.7882
  170SAPE  H12B19102   0.545   2.529   2.297  0.4061 -2.5211  0.0361
  170SAPE   C1119103   0.632   2.671   2.440 -0.8825 -0.4521 -0.1919
  170SAPE  H11A19104   0.720   2.669   2.508 -0.6465 -1.2081 -0.5072
  170SAPE  H11B19105   0.549   2.706   2.505  0.0766  0.1081  0.7806
  170SAPE     P19106   0.546   2.884   2.308  0.4113  0.0271 -0.0112
  170SAPE   O1319107   0.598   2.976   2.202 -0.2901 -0.7141  0.1455
  170SAPE   O1419108   0.413   2.825   2.285 -0.4663  0.1500 -0.4288
  170SAPE   O1219109   0.652   2.762   2.328  0.3746  0.4681  0.2784
  170SAPE   O1119110   0.545   2.953   2.448  0.3744  0.0628  0.1243
  170SAPE    C119111   0.582   3.090   2.473 -0.4959 -0.2724  0.2345
  170SAPE    HA19112   0.557   3.160   2.391  1.7341 -3.0512 -3.0910
  170SAPE    HB19113   0.531   3.120   2.567  0.0925  1.9746 -0.1241
  170SAPE    C219114   0.736   3.111   2.496  0.3245 -0.6852 -0.6149
  170SAPE    HS19115   0.783   3.094   2.396 -1.2706  1.1547 -1.7466
  170SAPE   O2119116   0.786   3.009   2.588 -0.0672 -0.1960  0.2422
  170SAPE   C2119117   0.912   3.003   2.605 -0.2403  0.2388 -0.0976
  170SAPE   O2219118   1.005   3.062   2.542 -0.1628  0.2031 -0.0937
  170SAPE   C2219119   0.943   2.906   2.721  0.0134 -0.0135  0.7497
  170SAPE   H2R19120   0.866   2.827   2.733 -1.1103  1.1438  1.4445
  170SAPE   H2S19121   1.038   2.857   2.691  0.7038  0.7646  1.6036
  170SAPE    C319122   0.770   3.256   2.538 -0.6551 -1.2468  0.5900
  170SAPE    HX19123   0.739   3.329   2.460  2.5810  0.0553  0.3614
  170SAPE    HY19124   0.881   3.265   2.543 -0.7170  1.2107 -0.6159
  170SAPE   O3119125   0.715   3.293   2.668 -0.5359 -0.0515 -0.1588
  170SAPE   C3119126   0.601   3.364   2.669 -0.2142 -0.0644  0.0748
  170SAPE   O3219127   0.564   3.429   2.572  0.1134  0.0404 -0.0296
  170SAPE   C3219128   0.539   3.360   2.809 -0.0657 -0.6127  0.6608
  170SAPE   H2X19129   0.510   3.463   2.840  0.0510 -0.1592 -0.6634
  170SAPE   H2Y19130   0.616   3.346   2.887  1.8227  2.1225 -0.5554
  170SAPE   C2319131   0.970   2.991   2.846 -0.3747 -0.1238 -0.1915
  170SAPE   H3R19132   1.047   3.068   2.823  0.5279 -0.6316  1.0290
  170SAPE   H3S19133   1.010   2.920   2.922  2.1971  2.0105  0.6207
  170SAPE   C2419134   0.850   3.049   2.915 -0.0083  0.3450 -0.2186
  170SAPE   H4R19135   0.814   3.141   2.863  2.4152  1.8098  0.5449
  170SAPE   H4S19136   0.878   3.073   3.019  1.2205 -0.5055 -0.3276
  170SAPE   C2519137   0.721   2.957   2.916 -0.5398 -0.4198 -0.0977
  170SAPE   H5R19138   0.647   2.993   2.843  0.0071 -0.6184 -0.7581
  170SAPE   C2619139   0.687   2.862   3.011  0.2806  0.2391  0.5557
  170SAPE   H6R19140   0.584   2.824   3.006  1.2852 -3.2068  2.8474
  170SAPE   C2719141   0.763   2.817   3.128 -1.0066 -0.2248  0.1347
  170SAPE   H7R19142   0.851   2.881   3.150  0.1488 -2.2973  2.0410
  170SAPE   H7S19143   0.798   2.715   3.102  0.3046  0.0974  0.5749
  170SAPE   C2819144   0.696   2.802   3.260 -0.0161 -0.2572 -0.1463
  170SAPE   H8R19145   0.679   2.897   3.313  2.2924 -0.6528  1.4333
  170SAPE   C2919146   0.656   2.687   3.315  0.1308  0.6022  0.5239
  170SAPE   H9R19147   0.608   2.693   3.414 -0.0526 -3.5719  0.8473
  170SAPE  C21019148   0.674   2.544   3.256 -0.3146  0.1462 -0.2942
  170SAPE  H10R19149   0.680   2.556   3.146 -1.4254  1.0951 -0.2687
  170SAPE  H10S19150   0.582   2.483   3.255  0.5864 -1.3107 -2.4809
  170SAPE  C21119151   0.789   2.463   3.314  0.1018 -0.0281 -0.7784
  170SAPE  H11R19152   0.889   2.509   3.314  1.7176 -3.2195  0.9364
  170SAPE  C21219153   0.782   2.336   3.370  0.2402 -1.0069 -0.5015
  170SAPE  H12R19154   0.875   2.279   3.383  0.9111  0.3357  0.8162
  170SAPE  C21319155   0.657   2.256   3.401 -0.4035  0.6924  0.6717
  170SAPE  H13R19156   0.695   2.157   3.436  1.1563  1.8315  2.3647
  170SAPE  H13S19157   0.605   2.238   3.304 -0.0812 -2.4588  0.9667
  170SAPE  C21419158   0.588   2.318   3.518 -0.2420 -0.6551  0.0970
  170SAPE  H14R19159   0.499   2.370   3.481 -0.0723 -1.5267 -1.6929
  170SAPE  C21519160   0.617   2.310   3.648 -0.0916  0.3208 -0.1146
  170SAPE  H15R19161   0.546   2.357   3.718  0.4900 -0.0942  0.7772
  170SAPE  C21619162   0.732   2.231   3.714 -0.4045 -0.3922  0.4272
  170SAPE  H16R19163   0.790   2.175   3.638  0.5958  2.0295 -0.6873
  170SAPE  H16S19164   0.679   2.161   3.782  0.2025 -0.9700  0.3155
  170SAPE  C21719165   0.811   2.327   3.801  0.4731  0.5369  1.1336
  170SAPE  H17R19166   0.894   2.261   3.834 -0.4605 -1.9757 -1.2638
  170SAPE  H17S19167   0.752   2.358   3.890  0.9142  3.3303  0.5511
  170SAPE  C21819168   0.868   2.456   3.736 -0.6132  0.3677  0.2062
  170SAPE  H18R19169   0.776   2.509   3.705 -0.5793  1.2538  1.5435
  170SAPE  H18S19170   0.942   2.419   3.662  0.0506 -0.7251  1.3778
  170SAPE  C21919171   0.941   2.547   3.840  0.4413  0.5553 -0.0755
  170SAPE  H19R19172   0.864   2.615   3.883  0.4633  0.3376  0.3168
  170SAPE  H19S19173   1.021   2.602   3.787  0.8627  0.5740  0.5692
  170SAPE  C22019174   1.006   2.480   3.961 -0.0468  0.1009  0.2540
  170SAPE  H20R19175   1.095   2.423   3.928  0.2330 -0.0356  1.2053
  170SAPE  H20S19176   0.936   2.407   4.006 -1.2075  0.8955 -0.2037
  170SAPE  H20T19177   1.034   2.557   4.037 -1.5970  0.4715  0.4902
  170SAPE   C3319178   0.431   3.247   2.808  1.0338 -0.1374  0.1476
  170SAPE   H3X19179   0.487   3.153   2.788  2.1316  0.7732 -1.2764
  170SAPE   H3Y19180   0.366   3.264   2.720  0.7899  1.3055  0.5721
  170SAPE   C3419181   0.352   3.232   2.940  1.0725 -0.2348  0.6024
  170SAPE   H4X19182   0.293   3.138   2.931  1.4917 -0.4230 -0.2516
  170SAPE   H4Y19183   0.281   3.318   2.946 -0.5571 -1.5121  0.1949
  170SAPE   C3519184   0.445   3.210   3.069 -0.1423  0.1463  0.4644
  170SAPE   H5X19185   0.513   3.298   3.078  0.8175 -0.5113 -0.0831
  170SAPE   H5Y19186   0.510   3.122   3.049 -1.3917 -1.0480  1.4714
  170SAPE   C3619187   0.366   3.212   3.200 -0.4694  0.6006 -0.4701
  170SAPE   H6X19188   0.321   3.311   3.220  1.3669  1.9220 -2.4172
  170SAPE   H6Y19189   0.436   3.186   3.282 -0.3627 -0.9674 -1.0204
  170SAPE   C3719190   0.259   3.102   3.199  0.2648  0.7021  0.1871
  170SAPE   H7X19191   0.302   3.006   3.165 -0.0412  0.8156 -0.5542
  170SAPE   H7Y19192   0.183   3.137   3.126 -0.9140 -1.5244  0.2640
  170SAPE   C3819193   0.187   3.074   3.333  0.2347 -0.2138 -0.0726
  170SAPE   H8X19194   0.111   2.995   3.315  0.2371 -0.5201  1.1920
  170SAPE   H8Y19195   0.122   3.162   3.351 -3.5038 -3.1125  2.1764
  170SAPE   C3919196   0.275   3.038   3.447 -0.8972  0.3532 -0.3502
  170SAPE   H9X19197   0.349   3.118   3.470 -1.2226  0.5309  0.0886
  170SAPE   H9Y19198   0.344   2.956   3.418  0.6799  1.7249 -0.6177
  170SAPE  C31019199   0.215   3.004   3.582 -0.2464 -0.1713  0.2215
  170SAPE  H10X19200   0.148   2.917   3.568  0.4119 -0.8579  1.2368
  170SAPE  H10Y19201   0.166   3.098   3.617  0.9083  0.7206 -0.4901
  170SAPE  C31119202   0.325   2.964   3.690  0.4558 -0.1694 -0.2770
  170SAPE  H11X19203   0.389   3.051   3.714  3.5582 -2.3369 -0.1174
  170SAPE  H11Y19204   0.393   2.889   3.644 -1.1626 -1.1283 -1.1970
  170SAPE  C31219205   0.266   2.904   3.815  0.5131  0.3210  0.0842
  170SAPE  H12X19206   0.231   2.802   3.789  0.5443 -0.3250  2.3828
  170SAPE  H12Y19207   0.172   2.956   3.844 -0.7689 -1.9703  0.2993
  170SAPE  C31319208   0.368   2.891   3.927  0.3848  0.1184 -0.1759
  170SAPE  H13X19209   0.391   2.990   3.973  1.5909  2.1882 -4.6860
  170SAPE  H13Y19210   0.469   2.860   3.895 -0.6618 -2.1125 -1.5634
  170SAPE  C31419211   0.338   2.786   4.038 -0.1766 -0.0692  0.3261
  170SAPE  H14X19212   0.431   2.769   4.096  0.1233 -0.0001 -0.1382
  170SAPE  H14Y19213   0.312   2.688   3.992  2.9518 -0.5452 -0.6627
  170SAPE  C31519214   0.245   2.821   4.156  0.3184 -0.4904 -0.0729
  170SAPE  H15X19215   0.143   2.839   4.115  1.2670 -0.6982 -2.7323
  170SAPE  H15Y19216   0.277   2.924   4.180 -0.0686  0.0223 -1.6034
  170SAPE  C31619217   0.259   2.716   4.262 -0.1228 -0.5576 -0.8128
  170SAPE  H16X19218   0.363   2.699   4.298  0.2395  1.1486 -0.9553
  170SAPE  H16Y19219   0.223   2.614   4.236  0.0082 -1.6320  2.6945
  170SAPE  C31719220   0.175   2.758   4.384 -0.2338 -0.1083 -0.4141
  170SAPE  H17X19221   0.074   2.774   4.341  0.0261 -3.0499 -2.4109
  170SAPE  H17Y19222   0.221   2.851   4.423  0.1006 -0.7297  0.7341
  170SAPE  C31819223   0.164   2.659   4.496 -0.2093  0.4855 -0.2725
  170SAPE  H18X19224   0.259   2.640   4.550 -0.4114  1.0107  0.2715
  170SAPE  H18Y19225   0.136   2.562   4.449  0.0673  1.0170 -1.5683
  170SAPE  H18Z19226   0.091   2.687   4.574  0.2459  0.7078  0.0772
  171SAPE     N19227   1.740   2.025   2.177  0.9089  0.2145  0.1306
  171SAPE   HN119228   1.657   2.065   2.129  0.5177 -0.4925  0.1987
  171SAPE   HN219229   1.817   2.094   2.188  0.6203  0.7566 -1.1501
  171SAPE   HN319230   1.767   1.950   2.110  1.2029 -0.8775  1.4067
  171SAPE   C1219231   1.698   1.940   2.299 -0.5767 -0.3142  0.2555
  171SAPE  H12A19232   1.638   2.001   2.370 -1.1921 -1.9986  1.2529
  171SAPE  H12B19233   1.795   1.912   2.346  0.0333  1.1109 -0.0856
  171SAPE   C1119234   1.617   1.820   2.258  0.1906  0.0603 -0.4486
  171SAPE  H11A19235   1.596   1.754   2.345 -1.8610  1.5884  0.3024
  171SAPE  H11B19236   1.676   1.757   2.188  0.5225 -1.4498  1.1158
  171SAPE     P19237   1.357   1.870   2.240 -0.4115 -0.1091 -0.3186
  171SAPE   O1319238   1.293   1.992   2.194  1.3227  0.6027 -0.1097
  171SAPE   O1419239   1.298   1.744   2.199  0.3038  0.1448  0.5602
  171SAPE   O1219240   1.502   1.861   2.192  0.0235  0.1181  0.2935
  171SAPE   O1119241   1.376   1.884   2.394  0.7889  0.0465  0.1488
  171SAPE    C119242   1.310   1.791   2.477 -1.2396  0.1171 -0.3319
  171SAPE    HA19243   1.202   1.777   2.457 -1.1625  0.6666 -1.2040
  171SAPE    HB19244   1.358   1.691   2.479 -0.1355  0.6341  1.7089
  171SAPE    C219245   1.328   1.845   2.615 -0.2614  0.4456 -0.6779
  171SAPE    HS19246   1.276   1.779   2.687  0.9683 -0.9434 -1.0223
  171SAPE   O2119247   1.293   1.981   2.623 -0.0705  0.2719  0.1729
  171SAPE   C2119248   1.170   2.001   2.643  0.8956 -0.4190  0.0869
  171SAPE   O2219249   1.085   1.918   2.671  0.2952 -0.1903 -0.4308
  171SAPE   C2219250   1.142   2.153   2.640 -0.0310 -0.3286 -0.0269
  171SAPE   H2R19251   1.155   2.203   2.542  0.9232  0.2463  0.3849
  171SAPE   H2S19252   1.035   2.166   2.666  0.2838  2.8218  0.0078
  171SAPE    C319253   1.479   1.846   2.648 -0.2532 -0.0212 -0.6649
  171SAPE    HX19254   1.540   1.910   2.581  0.5245 -0.5828 -0.5155
  171SAPE    HY19255   1.522   1.745   2.631 -0.1448 -0.0427 -0.2804
  171SAPE   O3119256   1.502   1.884   2.788  0.2026  0.1213  0.1921
  171SAPE   C3119257   1.567   1.999   2.810 -0.7371  0.8396 -0.2847
  171SAPE   O3219258   1.612   2.068   2.723  0.2406 -0.9472  0.1493
  171SAPE   C3219259   1.588   2.011   2.964  0.7247 -0.1645  0.1749
  171SAPE   H2X19260   1.696   2.018   2.986  0.8921 -2.0151  0.0759
  171SAPE   H2Y19261   1.548   1.917   3.009 -0.9843  0.4587  0.0219
  171SAPE   C2319262   1.234   2.212   2.746  0.5203 -0.3279  0.3175
  171SAPE   H3R19263   1.325   2.248   2.693  1.4633 -2.5577  0.3145
  171SAPE   H3S19264   1.259   2.141   2.828  1.4538 -0.9732 -0.4945
  171SAPE   C2419265   1.175   2.336   2.821 -0.2383 -0.3697 -0.8828
  171SAPE   H4R19266   1.125   2.399   2.744 -0.9042 -1.4001 -1.3110
  171SAPE   H4S19267   1.254   2.402   2.864 -1.2282  0.6820 -0.6203
  171SAPE   C2519268   1.062   2.287   2.914  1.0481 -0.2719  0.6151
  171SAPE   H5R19269   0.967   2.278   2.860  0.4873  1.0242  1.3368
  171SAPE   C2619270   1.064   2.257   3.044  0.3739 -0.1728 -0.0404
  171SAPE   H6R19271   0.966   2.231   3.087 -1.1424  2.8075 -1.4213
  171SAPE   C2719272   1.181   2.265   3.136 -0.4495  0.3596 -0.2320
  171SAPE   H7R19273   1.271   2.305   3.084 -1.6778  3.0912 -0.4390
  171SAPE   H7S19274   1.205   2.169   3.185  1.3888  1.4382  1.1148
  171SAPE   C2819275   1.146   2.376   3.236  0.0201 -0.0050  0.5985
  171SAPE   H8R19276   1.097   2.465   3.195 -0.5685  0.5310  2.3832
  171SAPE   C2919277   1.167   2.371   3.369 -0.8969  0.0950  0.1653
  171SAPE   H9R19278   1.140   2.462   3.426 -1.4655 -0.0131  0.0782
  171SAPE  C21019279   1.225   2.265   3.451 -0.7112 -0.2833  0.2570
  171SAPE  H10R19280   1.314   2.313   3.498  0.2773 -1.4878 -0.3202
  171SAPE  H10S19281   1.276   2.195   3.382 -0.5343  1.5398 -1.5436
  171SAPE  C21119282   1.137   2.202   3.557 -0.2163  0.4665  0.3216
  171SAPE  H11R19283   1.029   2.211   3.537 -0.4034  0.4283  1.2502
  171SAPE  C21219284   1.184   2.128   3.657 -0.2222  0.9696 -0.5502
  171SAPE  H12R19285   1.116   2.088   3.734 -1.1416 -0.7270 -2.1564
  171SAPE  C21319286   1.323   2.104   3.710  0.0853 -1.2030 -0.2016
  171SAPE  H13R19287   1.391   2.074   3.627 -2.2925 -2.9872 -1.6346
  171SAPE  H13S19288   1.315   2.012   3.770  1.0417 -1.7007 -0.7939
  171SAPE  C21419289   1.367   2.227   3.786  0.0238  0.0533  0.2869
  171SAPE  H14R19290   1.390   2.318   3.728  0.3166 -0.6966 -0.8096
  171SAPE  C21519291   1.386   2.241   3.918  0.2705  0.1225  0.8073
  171SAPE  H15R19292   1.415   2.339   3.958 -3.7171  2.1323 -0.6465
  171SAPE  C21619293   1.392   2.119   4.014 -0.1390 -0.2022 -0.0280
  171SAPE  H16R19294   1.495   2.116   4.057 -0.0825  0.6334 -0.0938
  171SAPE  H16S19295   1.375   2.022   3.962 -0.2705 -0.3487  0.2859
  171SAPE  C21719296   1.292   2.138   4.127  0.4076  0.1802 -0.4148
  171SAPE  H17R19297   1.316   2.232   4.180  0.3136  1.2325 -2.1637
  171SAPE  H17S19298   1.309   2.058   4.203 -0.6880 -1.1762 -1.5331
  171SAPE  C21819299   1.144   2.130   4.075  0.8589 -0.6284 -0.2256
  171SAPE  H18R19300   1.132   2.032   4.025  3.0321 -1.3730  0.5891
  171SAPE  H18S19301   1.136   2.210   3.998 -2.1034  2.7354  3.1457
  171SAPE  C21919302   1.026   2.152   4.179 -0.2956  0.2282 -0.0672
  171SAPE  H19R19303   1.010   2.068   4.249 -3.1345 -1.1481 -2.1705
  171SAPE  H19S19304   0.927   2.159   4.130 -0.5485  1.0342  0.5257
  171SAPE  C22019305   1.040   2.276   4.274 -0.4688 -0.3293 -0.1562
  171SAPE  H20R19306   1.117   2.265   4.354  1.0318 -1.7245 -1.7112
  171SAPE  H20S19307   0.949   2.279   4.338 -0.9607  0.0374 -0.8648
  171SAPE  H20T19308   1.032   2.372   4.218  0.2865  1.5540  2.7260
  171SAPE   C3319309   1.513   2.128   3.020 -0.2413 -0.2452 -0.2845
  171SAPE   H3X19310   1.407   2.132   2.987 -0.9335 -1.2635  1.6857
  171SAPE   H3Y19311   1.573   2.207   2.969  1.3970  0.4169  2.4564
  171SAPE   C3419312   1.510   2.139   3.172 -0.9271 -0.0545  0.2525
  171SAPE   H4X19313   1.448   2.059   3.218 -3.7921  1.5834 -0.5202
  171SAPE   H4Y19314   1.464   2.236   3.200  0.3626  0.5980  0.1496
  171SAPE   C3519315   1.644   2.140   3.242 -0.7292 -0.4817  0.1890
  171SAPE   H5X19316   1.711   2.198   3.174  0.4432 -2.7202 -0.6431
  171SAPE   H5Y19317   1.701   2.046   3.254  1.4779  0.7644  0.0164
  171SAPE   C3619318   1.640   2.207   3.382 -0.2213 -0.4445 -0.4238
  171SAPE   H6X19319   1.540   2.208   3.431 -0.8135 -0.9918 -1.6023
  171SAPE   H6Y19320   1.678   2.312   3.379 -0.2696 -0.4518 -1.6246
  171SAPE   C3719321   1.736   2.132   3.481 -0.4818  0.0045  0.3762
  171SAPE   H7X19322   1.842   2.138   3.449 -0.4850 -1.0441  0.1347
  171SAPE   H7Y19323   1.703   2.026   3.480  1.0703 -0.4998 -0.0705
  171SAPE   C3819324   1.731   2.179   3.634 -0.2568  0.3457  0.5380
  171SAPE   H8X19325   1.625   2.175   3.665 -1.0169  1.0713 -1.7388
  171SAPE   H8Y19326   1.775   2.281   3.638 -0.2892  0.3884 -0.0598
  171SAPE   C3919327   1.796   2.075   3.728 -0.2708 -0.5262 -0.5630
  171SAPE   H9X19328   1.904   2.067   3.700 -0.2941  0.3021 -0.9099
  171SAPE   H9Y19329   1.760   1.970   3.715 -1.9146 -0.0219 -0.2140
  171SAPE  C31019330   1.764   2.115   3.875  0.8753 -0.7024  0.3834
  171SAPE  H10X19331   1.653   2.110   3.880  0.9130 -1.8848  0.3596
  171SAPE  H10Y19332   1.808   2.216   3.885 -0.0664 -0.5547  4.8516
  171SAPE  C31119333   1.818   2.025   3.987 -0.2786 -0.2691  0.0726
  171SAPE  H11X19334   1.927   2.005   3.973  0.5601  2.0915  2.3758
  171SAPE  H11Y19335   1.768   1.927   3.978 -0.0120 -0.2854 -1.6219
  171SAPE  C31219336   1.798   2.076   4.135 -0.7039 -0.4208 -0.3831
  171SAPE  H12X19337   1.692   2.104   4.154 -0.4950  0.2142 -0.1241
  171SAPE  H12Y19338   1.846   2.175   4.141  0.5453 -1.0295  0.0163
  171SAPE  C31319339   1.847   1.978   4.234  0.1021 -0.4757 -0.4707
  171SAPE  H13X19340   1.957   1.980   4.222  0.4939 -1.1994  2.2227
  171SAPE  H13Y19341   1.810   1.876   4.209  0.0605 -0.2593 -1.3323
  171SAPE  C31419342   1.816   1.993   4.385 -0.5914 -0.4779 -0.1458
  171SAPE  H14X19343   1.869   2.079   4.431 -0.1785 -1.4529  1.2457
  171SAPE  H14Y19344   1.847   1.899   4.434  1.1266  0.5887  0.9079
  171SAPE  C31519345   1.668   2.018   4.415 -0.2118  0.4018  0.1089
  171SAPE  H15X19346   1.603   1.978   4.335  1.0275 -3.9312  0.9572
  171SAPE  H15Y19347   1.653   2.126   4.437 -0.7802 -0.0092  1.9032
  171SAPE  C31619348   1.626   1.942   4.545 -0.3409  0.0846  0.1353
  171SAPE  H16X19349   1.682   1.846   4.551 -0.2032  0.1076 -0.6392
  171SAPE  H16Y19350   1.522   1.903   4.545 -1.0025  1.7867  0.2076
  171SAPE  C31719351   1.623   2.031   4.666  0.1149  0.2149 -0.1615
  171SAPE  H17X19352   1.572   2.129   4.653 -0.1257  0.2671  1.0350
  171SAPE  H17Y19353   1.726   2.064   4.693 -0.7931  3.0932  0.1961
  171SAPE  C31819354   1.550   1.960   4.782 -0.0815 -0.1359 -0.3418
  171SAPE  H18X19355   1.615   1.874   4.806  1.3052  0.2515 -2.4012
  171SAPE  H18Y19356   1.448   1.925   4.753 -0.7144 -1.1542  2.7649
  171SAPE  H18Z19357   1.534   2.033   4.864  0.7205 -0.9944  0.5858
  172SAPE     N19358   1.219   3.889   1.861 -0.1558 -0.0255 -0.8297
  172SAPE   HN119359   1.299   3.833   1.826 -0.3027 -0.9964  0.3136
  172SAPE   HN219360   1.163   3.905   1.775  1.7392 -2.4832 -2.6855
  172SAPE   HN319361   1.249   3.982   1.895  2.2431  0.6485 -4.3293
  172SAPE   C1219362   1.159   3.813   1.969 -0.4314  0.1551  0.3329
  172SAPE  H12A19363   1.174   3.705   1.948  1.1992  0.4300 -0.0552
  172SAPE  H12B19364   1.051   3.835   1.967 -0.8706 -1.8759 -1.3114
  172SAPE   C1119365   1.217   3.837   2.110 -0.0852 -0.3955  0.0504
  172SAPE  H11A19366   1.317   3.788   2.115 -0.7907 -1.9434 -0.2598
  172SAPE  H11B19367   1.154   3.780   2.181 -0.7610 -0.4403 -0.5706
  172SAPE     P19368   1.111   4.057   2.202 -0.0655 -0.3994  0.1895
  172SAPE   O1319369   1.170   4.191   2.236 -0.0643  0.4119  0.2268
  172SAPE   O1419370   1.002   4.063   2.103 -0.0646  0.0127 -0.8186
  172SAPE   O1219371   1.227   3.974   2.140 -1.0362 -0.4482  0.4363
  172SAPE   O1119372   1.057   3.977   2.324 -0.4237 -0.0571  0.0567
  172SAPE    C119373   1.139   3.889   2.397  0.2257  0.1797 -0.9310
  172SAPE    HA19374   1.098   3.787   2.381  1.6572 -0.4827 -0.5031
  172SAPE    HB19375   1.244   3.895   2.363  0.8616  0.2969  0.9738
  172SAPE    C219376   1.151   3.922   2.554 -0.0973 -0.2933  0.5904
  172SAPE    HS19377   1.230   3.857   2.597 -0.5445 -1.6239 -0.5504
  172SAPE   O2119378   1.027   3.910   2.623  0.0016  0.4080  0.2019
  172SAPE   C2119379   0.998   3.782   2.650  0.4646  0.1855 -0.4174
  172SAPE   O2219380   1.071   3.684   2.640  0.3986 -0.0318  0.2289
  172SAPE   C2219381   0.852   3.775   2.700 -0.6086 -0.0039  0.0312
  172SAPE   H2R19382   0.824   3.853   2.774  0.1855  1.5086 -1.2188
  172SAPE   H2S19383   0.794   3.786   2.606 -0.8195 -1.7618 -0.0897
  172SAPE    C319384   1.206   4.071   2.572 -0.3506  0.0391  0.1817
  172SAPE    HX19385   1.134   4.136   2.518  1.0826  0.3122 -1.5085
  172SAPE    HY19386   1.304   4.086   2.522  1.0506  0.5962  2.8975
  172SAPE   O3119387   1.215   4.117   2.708  0.0458  0.3092 -0.2543
  172SAPE   C3119388   1.284   4.052   2.794  0.5829  0.7643  0.4207
  172SAPE   O3219389   1.352   3.951   2.771 -0.2920 -0.4577 -0.7797
  172SAPE   C3219390   1.255   4.106   2.943  0.3044 -0.4380 -0.1206
  172SAPE   H2X19391   1.151   4.130   2.973  0.8473  2.3653 -0.1469
  172SAPE   H2Y19392   1.317   4.199   2.939 -0.7975  0.3177  0.0038
  172SAPE   C2319393   0.818   3.631   2.767 -0.4485  0.2267  0.4707
  172SAPE   H3R19394   0.847   3.564   2.683  3.6223  3.0980 -0.7442
  172SAPE   H3S19395   0.709   3.634   2.787 -0.3675  1.4560  0.7677
  172SAPE   C2419396   0.880   3.606   2.900  0.7816  0.0945  0.7173
  172SAPE   H4R19397   0.839   3.663   2.986  1.9741  2.3699 -0.1436
  172SAPE   H4S19398   0.985   3.644   2.895  0.2492  1.4822 -1.2366
  172SAPE   C2519399   0.880   3.459   2.930  0.1564  0.4814  0.5035
  172SAPE   H5R19400   0.928   3.407   2.846 -0.5737  2.2110 -1.0516
  172SAPE   C2619401   0.830   3.401   3.044 -0.6302 -0.0359  0.8849
  172SAPE   H6R19402   0.825   3.291   3.049  2.0000 -0.4532 -2.1294
  172SAPE   C2719403   0.755   3.470   3.161 -1.0077  0.1066  0.2625
  172SAPE   H7R19404   0.647   3.494   3.150 -0.7160  3.7439  3.3943
  172SAPE   H7S19405   0.794   3.573   3.176  0.8198  0.0709 -3.1540
  172SAPE   C2819406   0.787   3.391   3.288 -0.5160 -0.6261 -0.3621
  172SAPE   H8R19407   0.851   3.302   3.280 -1.9427 -2.0049  2.2331
  172SAPE   C2919408   0.727   3.414   3.409 -0.2921 -0.4231 -0.6088
  172SAPE   H9R19409   0.764   3.346   3.488 -1.6396 -1.9596 -1.2370
  172SAPE  C21019410   0.628   3.526   3.451  0.6633  0.1916 -0.2399
  172SAPE  H10R19411   0.645   3.614   3.385 -0.8448 -0.0401 -0.9824
  172SAPE  H10S19412   0.657   3.567   3.550  3.0006  0.9527 -1.1779
  172SAPE  C21119413   0.482   3.497   3.433  0.4498 -0.3025  0.9097
  172SAPE  H11R19414   0.443   3.499   3.330 -1.8573 -1.8601  1.6789
  172SAPE  C21219415   0.387   3.479   3.523 -0.0082 -0.0514  0.0958
  172SAPE  H12R19416   0.285   3.459   3.489 -0.2852 -0.0378  0.8927
  172SAPE  C21319417   0.407   3.487   3.677 -0.7743 -0.5287 -0.3163
  172SAPE  H13R19418   0.316   3.494   3.741 -0.0656 -1.8586  0.8984
  172SAPE  H13S19419   0.466   3.578   3.701  0.1583 -1.0399 -0.6141
  172SAPE  C21419420   0.479   3.372   3.733 -0.3117 -0.3079 -1.0844
  172SAPE  H14R19421   0.514   3.304   3.654 -0.7187  1.7607 -3.1615
  172SAPE  C21519422   0.516   3.357   3.867  0.7210 -0.9891  0.2148
  172SAPE  H15R19423   0.567   3.265   3.898 -0.8254 -1.9221  0.0975
  172SAPE  C21619424   0.496   3.451   3.983  0.4375  0.8474  0.6034
  172SAPE  H16R19425   0.410   3.516   3.953  2.7827  3.2748 -1.3888
  172SAPE  H16S19426   0.595   3.499   4.000  0.4349  1.8043 -1.7433
  172SAPE  C21719427   0.458   3.373   4.118 -0.1585 -0.6243 -0.6374
  172SAPE  H17R19428   0.439   3.451   4.195  1.6411 -2.1557  1.4854
  172SAPE  H17S19429   0.540   3.310   4.159  0.0791  0.3519  0.4360
  172SAPE  C21819430   0.335   3.280   4.097  0.0604  0.3779  0.9307
  172SAPE  H18R19431   0.310   3.222   4.189  0.2795 -0.2803  0.5853
  172SAPE  H18S19432   0.356   3.197   4.027 -0.2535 -1.9350  3.3845
  172SAPE  C21919433   0.203   3.353   4.046  0.2558 -0.1871  0.3555
  172SAPE  H19R19434   0.226   3.404   3.950 -0.6160  1.0962  0.8092
  172SAPE  H19S19435   0.197   3.429   4.127 -0.4530  1.2584 -1.0030
  172SAPE  C22019436   0.086   3.263   4.031  0.1499 -0.3157  0.3167
  172SAPE  H20R19437   0.104   3.175   3.966  1.6221 -1.1520  1.7817
  172SAPE  H20S19438  -0.005   3.320   4.004 -1.4970 -3.1177 -0.4486
  172SAPE  H20T19439   0.061   3.232   4.135  2.9997 -1.1514  0.8493
  172SAPE   C3319440   1.326   4.038   3.055 -0.2348  0.2251 -0.1134
  172SAPE   H3X19441   1.318   4.099   3.147 -1.9766  2.6856 -1.7825
  172SAPE   H3Y19442   1.434   4.042   3.029 -0.7409  2.0742 -2.2050
  172SAPE   C3419443   1.267   3.896   3.104 -0.0772 -0.1927  0.3288
  172SAPE   H4X19444   1.341   3.857   3.177 -0.7799 -1.0177  0.6092
  172SAPE   H4Y19445   1.293   3.831   3.018  1.7489  0.9192 -0.0272
  172SAPE   C3519446   1.123   3.897   3.157 -0.6565 -0.0469 -0.2501
  172SAPE   H5X19447   1.049   3.916   3.076 -2.1442 -3.0526  0.2774
  172SAPE   H5Y19448   1.119   3.984   3.227 -0.2609 -1.4104  1.5386
  172SAPE   C3619449   1.058   3.766   3.219  0.8037 -0.5237 -0.3403
  172SAPE   H6X19450   1.106   3.681   3.165  0.5943 -0.7692 -0.1423
  172SAPE   H6Y19451   0.949   3.773   3.199  0.5493 -2.3756  0.2423
  172SAPE   C3719452   1.081   3.752   3.368 -0.0892 -0.3321  0.3228
  172SAPE   H7X19453   1.164   3.825   3.380  0.1873 -0.0809 -2.4976
  172SAPE   H7Y19454   1.116   3.652   3.402  0.9093 -0.0898  0.0256
  172SAPE   C3819455   0.959   3.789   3.449  0.4359 -0.3173 -0.0391
  172SAPE   H8X19456   0.875   3.719   3.433  2.0998 -2.5276  0.4893
  172SAPE   H8Y19457   0.935   3.892   3.413  1.6384 -0.2934 -0.8411
  172SAPE   C3919458   0.973   3.798   3.603 -0.2195  0.5465  0.3146
  172SAPE   H9X19459   1.044   3.876   3.636 -0.3799  1.2478 -0.9486
  172SAPE   H9Y19460   1.032   3.713   3.643 -0.4920  1.3820  2.6442
  172SAPE  C31019461   0.838   3.809   3.681 -0.2297 -0.2924 -0.6209
  172SAPE  H10X19462   0.766   3.729   3.654  0.6771 -1.6603  0.8653
  172SAPE  H10Y19463   0.798   3.907   3.646  1.7223  0.6277 -0.4490
  172SAPE  C31119464   0.850   3.826   3.831 -0.2222 -0.7861  0.0784
  172SAPE  H11X19465   0.913   3.915   3.854 -1.5083  0.2957 -0.4919
  172SAPE  H11Y19466   0.903   3.735   3.867  0.8325 -0.7767 -1.3268
  172SAPE  C31219467   0.718   3.856   3.900  0.7665  0.2854 -0.1763
  172SAPE  H12X19468   0.640   3.789   3.857 -1.5919  3.1191 -0.5822
  172SAPE  H12Y19469   0.682   3.958   3.874 -1.5402 -0.5336 -0.4044
  172SAPE  C31319470   0.720   3.826   4.054  0.6280  0.1534 -0.1003
  172SAPE  H13X19471   0.801   3.886   4.099  0.0399 -1.5516  3.5880
  172SAPE  H13Y19472   0.729   3.718   4.078 -1.4327 -0.1018 -0.2331
  172SAPE  C31419473   0.596   3.866   4.125  0.5216  0.0766  0.0364
  172SAPE  H14X19474   0.515   3.807   4.077  1.5346  0.8246 -2.8005
  172SAPE  H14Y19475   0.572   3.971   4.097 -0.9549 -0.4756 -0.9154
  172SAPE  C31519476   0.596   3.852   4.273 -0.4650 -0.1156  0.2139
  172SAPE  H15X19477   0.624   3.745   4.283 -0.8670 -0.4058 -1.4975
  172SAPE  H15Y19478   0.497   3.871   4.320 -0.8106  0.5845 -0.7598
  172SAPE  C31619479   0.709   3.933   4.346  0.2311  0.3110  0.4858
  172SAPE  H16X19480   0.808   3.902   4.306 -0.1323  2.1634 -2.1333
  172SAPE  H16Y19481   0.692   3.901   4.451  1.2321  1.3101  0.9764
  172SAPE  C31719482   0.707   4.080   4.335 -0.0930  0.3566 -0.6241
  172SAPE  H17X19483   0.614   4.123   4.379  0.2836 -0.7264  1.3525
  172SAPE  H17Y19484   0.702   4.102   4.226  1.8290  0.1510 -0.7968
  172SAPE  C31819485   0.831   4.146   4.394 -0.2040  0.2877 -0.0028
  172SAPE  H18X19486   0.926   4.113   4.348  0.2124  1.2532  0.1469
  172SAPE  H18Y19487   0.852   4.144   4.503  1.6598  0.6624 -0.3266
  172SAPE  H18Z19488   0.819   4.252   4.362 -0.0840 -0.0261 -1.1217
  173SLPC     N19489   4.795   3.872   6.807 -0.1474 -0.3368 -0.5605
  173SLPC   C1319490   4.712   3.756   6.861  0.0129 -0.5831  0.1516
  173SLPC  H13A19491   4.641   3.780   6.939  0.4850  0.3371  0.3060
  173SLPC  H13B19492   4.657   3.725   6.773  1.6775  1.1403 -1.6142
  173SLPC  H13C19493   4.778   3.677   6.892 -0.4163 -0.6485  0.9121
  173SLPC   C1419494   4.895   3.905   6.911 -0.2403 -0.0069 -0.0454
  173SLPC  H14A19495   4.960   3.986   6.881 -1.4651  0.9647 -0.1299
  173SLPC  H14B19496   4.850   3.927   7.006  2.5751 -2.1779  1.9674
  173SLPC  H14C19497   4.954   3.815   6.926 -0.0111  0.4777  2.3588
  173SLPC   C1519498   4.703   3.997   6.801 -0.5417 -0.3760  0.2438
  173SLPC  H15A19499   4.647   4.007   6.893 -1.5809 -0.5249 -0.3586
  173SLPC  H15B19500   4.757   4.088   6.781  0.6758 -1.1528 -0.1606
  173SLPC  H15C19501   4.642   3.979   6.713  0.7563 -1.4400 -0.4791
  173SLPC   C1219502   4.847   3.839   6.668 -0.3275 -1.0206 -0.0764
  173SLPC  H12A19503   4.757   3.810   6.616 -1.2653  0.0086  0.9331
  173SLPC  H12B19504   4.910   3.751   6.675 -0.7425 -1.4140 -1.1451
  173SLPC   C1119505   4.935   3.937   6.581  0.1658 -0.2495  0.1894
  173SLPC  H11A19506   4.886   4.036   6.581 -1.9404 -1.0926  4.0790
  173SLPC  H11B19507   4.932   3.900   6.476 -0.3805 -2.3423  0.8957
  173SLPC     P19508   5.183   3.841   6.599 -0.5031 -0.0752 -0.0341
  173SLPC   O1319509   5.299   3.864   6.691  0.3356  0.2645 -0.2679
  173SLPC   O1419510   5.120   3.708   6.618 -0.3692  0.6092  0.2816
  173SLPC   O1219511   5.072   3.945   6.632  0.1391 -0.4975  0.2332
  173SLPC   O1119512   5.225   3.876   6.447  0.3434  0.6806 -0.0074
  173SLPC    C119513   5.244   4.013   6.421 -0.1677 -0.1208  0.0674
  173SLPC    HA19514   5.166   4.078   6.465  0.7522  0.4605  0.8945
  173SLPC    HB19515   5.336   4.051   6.471  0.5474 -0.5624 -0.8785
  173SLPC    C219516   5.258   4.044   6.275 -0.0263  0.0471  0.1448
  173SLPC    HS19517   5.300   4.146   6.260 -0.3595 -0.1347 -2.7960
  173SLPC   O2119518   5.128   4.027   6.207 -0.2972 -0.4104  0.1800
  173SLPC   C2119519   5.041   4.119   6.220  0.3035  0.0048  0.4416
  173SLPC   O2219520   5.061   4.222   6.280  0.1565  0.1241 -0.3815
  173SLPC   C2219521   4.908   4.092   6.137  0.0629  0.1470  0.0641
  173SLPC   H2R19522   4.940   4.052   6.038 -0.6146  0.3222 -0.2355
  173SLPC   H2S19523   4.844   4.013   6.182  0.0585  0.2739  0.2782
  173SLPC    C319524   5.357   3.944   6.204 -0.0659  0.5177  0.6315
  173SLPC    HX19525   5.331   3.842   6.240  3.5566 -1.3318 -1.4792
  173SLPC    HY19526   5.458   3.968   6.242 -0.1682  0.3074  1.0380
  173SLPC   O3119527   5.336   3.948   6.053 -0.1080 -0.0955 -0.9506
  173SLPC   C3119528   5.429   4.033   5.990 -0.6666 -0.2509  0.3280
  173SLPC   O3219529   5.526   4.077   6.049  0.0965 -0.4548  0.0383
  173SLPC   C3219530   5.390   4.061   5.845  0.5209  0.1755  0.8699
  173SLPC   H2X19531   5.279   4.057   5.832  0.8246 -2.7835 -1.9233
  173SLPC   H2Y19532   5.430   3.982   5.778  1.1642  1.3368 -0.1442
  173SLPC   C2319533   4.832   4.223   6.108  0.5371 -0.1815 -0.3142
  173SLPC   H3R19534   4.886   4.317   6.134 -0.7475  0.3443  0.5497
  173SLPC   H3S19535   4.738   4.228   6.167  0.9024 -1.1144  0.3718
  173SLPC   C2419536   4.790   4.232   5.958  0.8413  0.3165  0.6695
  173SLPC   H4R19537   4.708   4.163   5.929  0.6048  1.2057 -0.8987
  173SLPC   H4S19538   4.873   4.211   5.887  0.2675 -0.2545  0.1579
  173SLPC   C2519539   4.742   4.375   5.927  0.3166 -0.4474 -0.2337
  173SLPC   H5R19540   4.825   4.436   5.968  1.1864 -0.8385 -1.3591
  173SLPC   H5S19541   4.650   4.386   5.988 -0.2375  1.2672 -1.3092
  173SLPC   C2619542   4.727   4.393   5.776  0.7212  0.3980 -0.6300
  173SLPC   H6R19543   4.706   4.297   5.725  0.8342 -0.7203  1.3343
  173SLPC   H6S19544   4.831   4.420   5.745  1.4725  1.4659  2.4393
  173SLPC   C2719545   4.625   4.501   5.738  0.1110  0.7801 -0.7099
  173SLPC   H7R19546   4.642   4.573   5.821  0.3508 -0.2961  0.2165
  173SLPC   H7S19547   4.520   4.468   5.752  0.2131  1.4454  2.5541
  173SLPC   C2819548   4.624   4.544   5.592 -0.1899 -0.0196 -0.3560
  173SLPC   H8R19549   4.711   4.610   5.573 -0.0895  0.1345  0.5701
  173SLPC   H8S19550   4.537   4.613   5.585  1.0977  1.9233  1.5203
  173SLPC   C2919551   4.620   4.421   5.503  0.0941 -0.6918 -0.0930
  173SLPC   H9R19552   4.537   4.350   5.519  0.0686 -0.5756  0.2977
  173SLPC  C21019553   4.712   4.385   5.411 -0.0343  0.8399  0.1786
  173SLPC  H10R19554   4.694   4.293   5.353 -1.8345  1.9021 -1.0547
  173SLPC  C21119555   4.836   4.465   5.380 -0.2010 -0.0671  0.3308
  173SLPC  H11R19556   4.912   4.440   5.458  1.6573  0.1683 -1.3301
  173SLPC  H11S19557   4.818   4.575   5.387  1.1575  0.2808 -1.1036
  173SLPC  C21219558   4.880   4.428   5.239  0.7893 -0.1429  1.3328
  173SLPC  H12R19559   4.948   4.343   5.231  2.3571  0.9914  2.0753
  173SLPC  C21319560   4.853   4.471   5.112 -0.2988  0.6740  0.8157
  173SLPC  H13R19561   4.905   4.420   5.030 -0.5846 -1.2914  1.7918
  173SLPC  C21419562   4.771   4.590   5.076  0.4659 -0.1217  0.0090
  173SLPC  H14R19563   4.681   4.604   5.139  1.4399  0.3667  1.3310
  173SLPC  H14S19564   4.744   4.594   4.968 -0.1527 -0.6643  0.1409
  173SLPC  C21519565   4.850   4.720   5.087  0.7542  0.1677  0.5027
  173SLPC  H15R19566   4.931   4.727   5.012 -1.2651  0.4673 -1.7749
  173SLPC  H15S19567   4.908   4.731   5.181 -1.5104 -0.7701  2.1234
  173SLPC  C21619568   4.762   4.847   5.084  0.3558 -0.6122  0.3486
  173SLPC  H16R19569   4.820   4.936   5.117 -0.8035 -0.1513  1.1816
  173SLPC  H16S19570   4.677   4.840   5.154 -0.5191 -0.9620 -0.7181
  173SLPC  C21719571   4.693   4.867   4.947 -0.5814  0.7949 -0.1280
  173SLPC  H17R19572   4.615   4.946   4.945 -1.1478  0.2309 -0.5545
  173SLPC  H17S19573   4.638   4.775   4.918  0.2678  0.7854 -1.8485
  173SLPC  C21819574   4.784   4.901   4.835 -0.5083 -0.0284 -0.0513
  173SLPC  H18R19575   4.857   4.981   4.857 -0.6298  0.6106 -1.7967
  173SLPC  H18S19576   4.728   4.927   4.743  1.9370 -0.5342 -1.7885
  173SLPC  H18T19577   4.851   4.818   4.802  0.5197  0.0745  1.6646
  173SLPC   C3319578   5.442   4.201   5.795 -0.1032  0.3969 -0.5245
  173SLPC   H3X19579   5.551   4.195   5.773 -0.4168  1.1169 -2.4842
  173SLPC   H3Y19580   5.427   4.280   5.871  1.4334  1.5193 -1.3199
  173SLPC   C3419581   5.372   4.233   5.669  0.0971 -0.3581  0.0700
  173SLPC   H4X19582   5.395   4.335   5.631 -1.0280  0.3013  1.1045
  173SLPC   H4Y19583   5.264   4.236   5.697  0.2635 -1.2681  0.8464
  173SLPC   C3519584   5.387   4.126   5.557 -0.6774 -0.2199  0.0973
  173SLPC   H5X19585   5.360   4.024   5.591 -2.7836  0.4979  0.8159
  173SLPC   H5Y19586   5.494   4.120   5.531 -0.9168 -0.9571 -0.7709
  173SLPC   C3619587   5.310   4.165   5.431 -0.1127  0.3647  0.0118
  173SLPC   H6X19588   5.352   4.261   5.396 -0.8695  0.7502  0.1427
  173SLPC   H6Y19589   5.201   4.182   5.448 -0.6663 -0.3125 -2.4777
  173SLPC   C3719590   5.328   4.061   5.322 -0.6362 -0.5916 -0.4087
  173SLPC   H7X19591   5.290   3.960   5.349 -0.6742 -0.5373 -0.2605
  173SLPC   H7Y19592   5.438   4.046   5.311 -0.2843  0.3488  1.4505
  173SLPC   C3819593   5.268   4.099   5.185 -0.6103  0.9317  0.6997
  173SLPC   H8X19594   5.324   4.191   5.154  1.3072 -0.5395 -0.4445
  173SLPC   H8Y19595   5.158   4.114   5.189 -1.3146 -2.4844 -1.6518
  173SLPC   C3919596   5.297   4.007   5.068  0.7956 -0.0234  0.0470
  173SLPC   H9X19597   5.407   3.999   5.050  0.5302  1.9363 -3.0964
  173SLPC   H9Y19598   5.261   4.054   4.974  1.9051 -1.4458 -1.1549
  173SLPC  C31019599   5.217   3.878   5.082  0.0942 -0.0108  0.0186
  173SLPC  H10X19600   5.110   3.907   5.091  0.0097 -0.2739 -0.1199
  173SLPC  H10Y19601   5.248   3.831   5.178  1.6195  1.2460  0.1793
  173SLPC  C31119602   5.217   3.773   4.964  0.2690  0.5304  0.0120
  173SLPC  H11X19603   5.277   3.682   4.986 -1.1759 -0.5766 -0.5206
  173SLPC  H11Y19604   5.267   3.827   4.881 -0.1603  0.2096 -0.4568
  173SLPC  C31219605   5.082   3.711   4.923 -0.1319  0.3226 -0.1835
  173SLPC  H12X19606   4.999   3.785   4.921  1.0466  1.6837 -0.2796
  173SLPC  H12Y19607   5.050   3.649   5.010 -0.0690  1.8437  0.9641
  173SLPC  C31319608   5.099   3.644   4.786 -0.1891  0.8253  0.0079
  173SLPC  H13X19609   5.108   3.726   4.711  0.0710  1.5012  0.7687
  173SLPC  H13Y19610   4.994   3.607   4.782 -0.9286  2.8440 -0.6957
  173SLPC  C31419611   5.208   3.535   4.766  0.2228 -0.0001 -0.6977
  173SLPC  H14X19612   5.199   3.469   4.855 -0.4151  0.8266 -0.1438
  173SLPC  H14Y19613   5.307   3.585   4.754  0.4345 -0.1035  0.4711
  173SLPC  C31519614   5.191   3.437   4.649  0.7371 -0.6315 -0.6089
  173SLPC  H15X19615   5.198   3.486   4.549  1.2834  1.0284  0.1946
  173SLPC  H15Y19616   5.090   3.393   4.662 -0.4792  1.8212 -1.1773
  173SLPC  C31619617   5.304   3.334   4.654  0.6273  0.0924  0.7175
  173SLPC  H16X19618   5.301   3.287   4.754 -1.3042 -1.6518 -0.0842
  173SLPC  H16Y19619   5.400   3.384   4.631 -0.0821  1.0885 -0.1650
  173SLPC  C31719620   5.279   3.222   4.550  0.8767  0.2452 -0.1712
  173SLPC  H17X19621   5.379   3.183   4.523  0.5111 -0.2401 -0.8876
  173SLPC  H17Y19622   5.253   3.271   4.454  3.3545 -0.3592 -1.2222
  173SLPC  C31819623   5.174   3.120   4.589  0.3054  0.2894 -0.4736
  173SLPC  H18X19624   5.146   3.048   4.510 -3.6344 -0.7846  1.6722
  173SLPC  H18Y19625   5.077   3.167   4.614  0.4963  1.6197 -2.0395
  173SLPC  H18Z19626   5.219   3.065   4.674  3.0471  2.1506 -0.5827
  174SLPC     N19627   2.859   6.223   6.769  0.5588 -0.1422  0.3267
  174SLPC   C1319628   2.712   6.252   6.768 -0.0424  0.1395 -0.2654
  174SLPC  H13A19629   2.658   6.160   6.784 -0.2108 -0.0235 -1.7217
  174SLPC  H13B19630   2.693   6.320   6.850  0.5738  0.9787 -0.7997
  174SLPC  H13C19631   2.664   6.290   6.680 -3.7759 -1.3248  0.9477
  174SLPC   C1419632   2.909   6.173   6.901 -0.0137  0.3422 -0.1424
  174SLPC  H14A19633   2.894   6.248   6.977  1.0087  1.0751 -0.6335
  174SLPC  H14B19634   2.861   6.089   6.948 -1.0300  0.2474 -1.3056
  174SLPC  H14C19635   3.017   6.161   6.898  0.0506  0.7156  0.4498
  174SLPC   C1519636   2.940   6.356   6.750  0.8919 -0.1959  0.2628
  174SLPC  H15A19637   2.916   6.393   6.651  0.1247  0.1916  0.5835
  174SLPC  H15B19638   2.908   6.429   6.823  0.2341  0.7436 -0.9146
  174SLPC  H15C19639   3.047   6.348   6.751  1.0042  0.6529 -1.1521
  174SLPC   C1219640   2.886   6.117   6.670  0.0322  0.3393 -0.1074
  174SLPC  H12A19641   2.850   6.017   6.684  0.6402 -0.1236 -1.6774
  174SLPC  H12B19642   2.990   6.089   6.671 -0.6851 -2.6446 -0.5042
  174SLPC   C1119643   2.844   6.155   6.529  0.0176 -0.1431  0.5795
  174SLPC  H11A19644   2.912   6.103   6.458 -0.4480 -0.0679  0.0745
  174SLPC  H11B19645   2.866   6.261   6.506 -0.7962 -0.1347 -0.2182
  174SLPC     P19646   2.662   5.973   6.501 -0.0903  0.0247  0.0194
  174SLPC   O1319647   2.679   5.906   6.632  0.0725 -1.0961 -0.2521
  174SLPC   O1419648   2.526   5.983   6.449 -0.1908  0.0498 -0.3510
  174SLPC   O1219649   2.712   6.121   6.505 -0.4636 -0.4313  0.1968
  174SLPC   O1119650   2.751   5.903   6.398  0.2104  0.1376 -0.3627
  174SLPC    C119651   2.725   5.892   6.252 -0.0066  0.0255  0.0883
  174SLPC    HA19652   2.720   5.992   6.205  4.6790  0.3441 -0.2078
  174SLPC    HB19653   2.819   5.854   6.207  1.7553  3.9570  0.1052
  174SLPC    C219654   2.613   5.790   6.214 -0.0519  0.0901  0.0471
  174SLPC    HS19655   2.531   5.819   6.284 -2.0267  0.2402 -2.2115
  174SLPC   O2119656   2.652   5.657   6.240 -0.0634  0.2758  0.0187
  174SLPC   C2119657   2.553   5.576   6.277  0.6352  0.0380 -0.0325
  174SLPC   O2219658   2.430   5.607   6.275 -0.6023 -0.3829 -0.2108
  174SLPC   C2219659   2.608   5.441   6.307  0.1237  0.1960  0.4468
  174SLPC   H2R19660   2.689   5.457   6.381  1.0301  0.7142 -0.6152
  174SLPC   H2S19661   2.528   5.376   6.348  1.3100 -0.3672  1.9700
  174SLPC    C319662   2.561   5.813   6.071  0.3427  1.1824 -0.1428
  174SLPC    HX19663   2.467   5.755   6.069 -0.9701  3.1200  1.5912
  174SLPC    HY19664   2.637   5.777   5.998 -1.3354 -0.3325 -1.2205
  174SLPC   O3119665   2.538   5.954   6.060 -0.0331  0.8152 -0.1548
  174SLPC   C3119666   2.410   5.981   6.051  0.0392  0.3233  0.4787
  174SLPC   O3219667   2.317   5.903   6.063  0.0920 -0.0303 -0.7432
  174SLPC   C3219668   2.382   6.125   6.034 -0.1840  0.3674 -0.1147
  174SLPC   H2X19669   2.480   6.166   6.000  0.9545 -0.3803  2.0995
  174SLPC   H2Y19670   2.360   6.174   6.131 -0.9490  0.3464 -0.2730
  174SLPC   C2319671   2.667   5.379   6.182  0.0001  0.5234 -0.3677
  174SLPC   H3R19672   2.680   5.271   6.203  0.4003  1.0029  2.1543
  174SLPC   H3S19673   2.767   5.423   6.157 -0.2208  0.8371 -0.7100
  174SLPC   C2419674   2.568   5.386   6.063  0.0318 -0.0882 -0.0583
  174SLPC   H4R19675   2.559   5.489   6.022 -0.6206 -0.3832 -0.6622
  174SLPC   H4S19676   2.468   5.353   6.099 -0.3504 -0.0383 -1.0541
  174SLPC   C2519677   2.591   5.291   5.947 -0.3161 -0.0501  0.3308
  174SLPC   H5R19678   2.502   5.297   5.879  0.5418  1.5922 -0.7121
  174SLPC   H5S19679   2.612   5.187   5.980  2.5080 -1.0567 -3.8647
  174SLPC   C2619680   2.710   5.328   5.850  0.3082  0.0085 -0.3182
  174SLPC   H6R19681   2.734   5.248   5.778 -0.5938  0.2684 -0.9219
  174SLPC   H6S19682   2.797   5.326   5.920  0.5678 -0.1762 -0.6389
  174SLPC   C2719683   2.708   5.463   5.778 -0.2906  0.0394 -0.0402
  174SLPC   H7R19684   2.808   5.472   5.729  0.9253  1.0770  2.4610
  174SLPC   H7S19685   2.706   5.550   5.848 -0.5220  0.0610 -0.0743
  174SLPC   C2819686   2.602   5.466   5.666  0.5648  0.8822  0.5820
  174SLPC   H8R19687   2.606   5.569   5.625  3.2407  0.1286 -1.3909
  174SLPC   H8S19688   2.501   5.459   5.712  0.6894 -0.7990  0.6638
  174SLPC   C2919689   2.630   5.372   5.552  0.2782  0.6311 -0.5124
  174SLPC   H9R19690   2.581   5.277   5.580  0.5090  0.8760  0.7617
  174SLPC  C21019691   2.713   5.383   5.444  0.4505 -0.6136 -0.2823
  174SLPC  H10R19692   2.740   5.301   5.376  1.6253 -2.1176  1.8849
  174SLPC  C21119693   2.792   5.509   5.416  0.7131 -0.1769 -0.0654
  174SLPC  H11R19694   2.825   5.565   5.506  1.8248 -0.9554  0.0306
  174SLPC  H11S19695   2.719   5.576   5.365  0.3753 -0.4875  0.0033
  174SLPC  C21219696   2.912   5.494   5.323  0.5243  0.3833  0.7722
  174SLPC  H12R19697   2.995   5.453   5.382  0.3135 -2.4889 -0.7523
  174SLPC  C21319698   2.921   5.506   5.190 -0.1938 -0.1650 -0.0546
  174SLPC  H13R19699   3.021   5.515   5.145 -0.2816  2.2770  0.1048
  174SLPC  C21419700   2.811   5.550   5.095 -0.4008 -0.2290 -0.9002
  174SLPC  H14R19701   2.714   5.578   5.141  0.5677  1.5159  0.2087
  174SLPC  H14S19702   2.779   5.468   5.027  1.0962 -0.0333 -1.9188
  174SLPC  C21519703   2.862   5.680   5.019 -0.1819 -0.1405 -0.2878
  174SLPC  H15R19704   2.862   5.758   5.098  1.5515 -0.6021  0.2300
  174SLPC  H15S19705   2.778   5.713   4.955 -0.7870  0.4911  0.8033
  174SLPC  C21619706   2.994   5.662   4.943  0.9404 -0.9251 -0.0162
  174SLPC  H16R19707   2.978   5.577   4.873 -1.1506 -1.2999  0.8427
  174SLPC  H16S19708   3.084   5.643   5.005  0.8704 -2.1602 -0.2646
  174SLPC  C21719709   3.022   5.795   4.868 -0.1923  0.3158  0.1166
  174SLPC  H17R19710   3.032   5.876   4.943  1.3540  0.1876  0.0797
  174SLPC  H17S19711   2.940   5.813   4.795  1.1936  1.4470 -1.2351
  174SLPC  C21819712   3.161   5.779   4.803  0.0008 -0.3194  0.5563
  174SLPC  H18R19713   3.236   5.750   4.880  0.4045 -0.1752  0.2225
  174SLPC  H18S19714   3.183   5.871   4.745 -0.3275 -2.3010 -3.0090
  174SLPC  H18T19715   3.157   5.691   4.735 -1.6090 -0.0780  0.3112
  174SLPC   C3319716   2.292   6.166   5.914  0.2050 -0.6718 -0.6439
  174SLPC   H3X19717   2.294   6.276   5.897 -0.4100 -0.4534  0.5549
  174SLPC   H3Y19718   2.183   6.155   5.933  0.3116  0.9382  1.3782
  174SLPC   C3419719   2.350   6.116   5.787 -0.3170  0.7082 -0.1525
  174SLPC   H4X19720   2.391   6.013   5.791 -1.3183  0.2811 -0.4386
  174SLPC   H4Y19721   2.440   6.173   5.757  1.5834 -1.4800  1.1154
  174SLPC   C3519722   2.258   6.130   5.662  0.1214  0.1545  0.0686
  174SLPC   H5X19723   2.234   6.238   5.658  5.2150  1.5121 -2.7495
  174SLPC   H5Y19724   2.163   6.072   5.672 -0.0954  0.2359 -1.3321
  174SLPC   C3619725   2.332   6.101   5.534 -0.1129  1.0745  0.3355
  174SLPC   H6X19726   2.378   6.000   5.529  0.6634  1.3275  1.7743
  174SLPC   H6Y19727   2.406   6.181   5.512 -0.6929  0.8022 -3.0124
  174SLPC   C3719728   2.248   6.117   5.403 -0.6028  0.5330 -0.4472
  174SLPC   H7X19729   2.190   6.212   5.394 -0.5303  0.7118  0.8535
  174SLPC   H7Y19730   2.168   6.040   5.399  0.5315 -0.6266 -1.6275
  174SLPC   C3819731   2.341   6.124   5.278 -0.2379  0.0765 -0.1677
  174SLPC   H8X19732   2.392   6.025   5.279 -0.8204 -0.2247  0.2962
  174SLPC   H8Y19733   2.416   6.206   5.273 -0.0931 -0.1495 -2.7935
  174SLPC   C3919734   2.258   6.136   5.148 -0.0820 -0.3655 -0.6212
  174SLPC   H9X19735   2.195   6.226   5.164 -1.1311 -1.2208  0.1826
  174SLPC   H9Y19736   2.201   6.041   5.137  0.9102 -0.9037 -1.2660
  174SLPC  C31019737   2.347   6.149   5.028  0.6743 -0.6504 -1.0303
  174SLPC  H10X19738   2.415   6.062   5.039  2.3046  0.8255  1.4624
  174SLPC  H10Y19739   2.408   6.242   5.036 -0.6151  0.0937  0.6844
  174SLPC  C31119740   2.273   6.152   4.893 -0.2221  0.5222  0.0401
  174SLPC  H11X19741   2.210   6.243   4.886  1.7837  2.0585  0.8545
  174SLPC  H11Y19742   2.208   6.063   4.881 -0.2107  0.6505 -1.1166
  174SLPC  C31219743   2.368   6.152   4.772 -0.3134 -0.0397  0.1471
  174SLPC  H12X19744   2.404   6.051   4.746  0.7544 -0.0902  1.6673
  174SLPC  H12Y19745   2.458   6.209   4.805 -1.4937  0.5313  2.6860
  174SLPC  C31319746   2.315   6.229   4.652 -0.4957 -0.2027  0.3941
  174SLPC  H13X19747   2.380   6.228   4.562  0.4764 -1.2141  1.0804
  174SLPC  H13Y19748   2.290   6.332   4.684 -0.4076 -0.3292  0.8702
  174SLPC  C31419749   2.182   6.177   4.585  0.0592 -0.2646 -0.2665
  174SLPC  H14X19750   2.152   6.254   4.511 -1.1666 -1.6749 -1.2944
  174SLPC  H14Y19751   2.113   6.164   4.671 -0.1478  0.1025 -0.3753
  174SLPC  C31519752   2.200   6.052   4.503  0.1594 -0.0294  0.2037
  174SLPC  H15X19753   2.241   5.971   4.567 -1.6484 -3.0359 -2.1793
  174SLPC  H15Y19754   2.277   6.068   4.424 -0.7548 -0.7130 -0.8461
  174SLPC  C31619755   2.071   5.997   4.454 -0.0817 -0.0180  0.5636
  174SLPC  H16X19756   2.000   6.081   4.440  0.2586  0.5293  1.9389
  174SLPC  H16Y19757   2.021   5.913   4.507 -1.2139  0.9202  1.0233
  174SLPC  C31719758   2.090   5.945   4.305 -0.1997  0.2719  0.2254
  174SLPC  H17X19759   2.109   6.025   4.230  1.1334  0.1675  0.4144
  174SLPC  H17Y19760   1.989   5.906   4.283  0.4257  0.1632 -2.9708
  174SLPC  C31819761   2.201   5.838   4.291  0.0643  0.6052  0.0919
  174SLPC  H18X19762   2.295   5.887   4.321 -0.0811  1.9698 -1.5083
  174SLPC  H18Y19763   2.209   5.807   4.184  0.2941 -0.1351  0.3180
  174SLPC  H18Z19764   2.185   5.757   4.366 -0.1719  0.6831  0.1277
  175SLPC     N19765   4.886   0.954   6.733  0.1666  0.0133 -0.7432
  175SLPC   C1319766   4.869   0.972   6.884  0.0225  0.2011  0.1585
  175SLPC  H13A19767   4.827   0.884   6.931 -0.3808 -0.5592 -1.5640
  175SLPC  H13B19768   4.953   1.014   6.939 -0.2923 -0.2088  0.9653
  175SLPC  H13C19769   4.797   1.051   6.900  0.1250  0.2590  0.3479
  175SLPC   C1419770   4.913   1.087   6.669  0.3243 -0.3077 -0.0267
  175SLPC  H14A19771   5.009   1.128   6.700  0.5672 -0.8963 -0.0008
  175SLPC  H14B19772   4.897   1.073   6.564 -0.9554  0.0055  0.1055
  175SLPC  H14C19773   4.837   1.160   6.694  0.8915  1.0012 -1.9130
  175SLPC   C1519774   4.751   0.903   6.688 -0.3640 -0.1375  0.0071
  175SLPC  H15A19775   4.744   0.884   6.581 -1.7497 -0.3593  0.1186
  175SLPC  H15B19776   4.742   0.807   6.737  3.0249 -0.8963 -0.5692
  175SLPC  H15C19777   4.667   0.960   6.723  0.3448  0.4232  0.8496
  175SLPC   C1219778   4.993   0.854   6.700 -0.2744 -0.2492 -0.2991
  175SLPC  H12A19779   5.083   0.906   6.728 -0.7378 -1.0854  3.1753
  175SLPC  H12B19780   4.982   0.835   6.594  0.9808  0.9520 -0.6888
  175SLPC   C1119781   4.997   0.716   6.769 -0.0875 -0.2334  0.8138
  175SLPC  H11A19782   5.024   0.726   6.876 -1.0825  2.4761  0.8887
  175SLPC  H11B19783   5.080   0.665   6.715 -0.5275  2.5652 -2.9063
  175SLPC     P19784   4.863   0.491   6.795 -0.2383  0.0022  0.0501
  175SLPC   O1319785   5.008   0.456   6.829  0.5274 -0.0034  0.2336
  175SLPC   O1419786   4.758   0.452   6.892  0.2533  0.2123  0.4828
  175SLPC   O1219787   4.869   0.645   6.766  0.4966  0.2553  0.3150
  175SLPC   O1119788   4.827   0.427   6.653 -0.2946 -0.4684 -0.5122
  175SLPC    C119789   4.884   0.480   6.527 -0.0461 -0.4756  0.2176
  175SLPC    HA19790   4.981   0.528   6.550  0.6159 -1.4205 -0.5617
  175SLPC    HB19791   4.904   0.403   6.451 -1.6027  0.3565 -1.0979
  175SLPC    C219792   4.790   0.579   6.460  0.3989 -0.1981  0.2876
  175SLPC    HS19793   4.763   0.666   6.524  0.0355 -0.5109  0.5685
  175SLPC   O2119794   4.668   0.510   6.422 -0.3387 -0.0297 -0.0752
  175SLPC   C2119795   4.552   0.581   6.429 -1.2644 -0.1658 -1.1359
  175SLPC   O2219796   4.537   0.696   6.468 -0.4561 -0.7418  0.2225
  175SLPC   C2219797   4.436   0.495   6.385 -0.4551 -0.4093 -0.4398
  175SLPC   H2R19798   4.455   0.387   6.406  0.6354 -0.2073 -0.3045
  175SLPC   H2S19799   4.341   0.523   6.434 -0.8028 -2.1184 -0.0722
  175SLPC    C319800   4.857   0.651   6.336 -0.2388 -0.3044 -0.6716
  175SLPC    HX19801   4.901   0.567   6.278  1.0310  1.1278 -1.8642
  175SLPC    HY19802   4.933   0.717   6.383  0.2758 -1.7420  0.5989
  175SLPC   O3119803   4.762   0.723   6.257 -0.4706 -0.4128  1.0323
  175SLPC   C3119804   4.740   0.843   6.289  0.2257 -0.4489  0.0536
  175SLPC   O3219805   4.788   0.907   6.377  0.3361  0.5096 -0.1382
  175SLPC   C3219806   4.636   0.918   6.192  0.0229  0.4916  0.2708
  175SLPC   H2X19807   4.605   1.010   6.248  0.5212  2.0606 -1.9110
  175SLPC   H2Y19808   4.549   0.850   6.183  0.7876 -0.6935  1.4137
  175SLPC   C2319809   4.413   0.526   6.233  0.1826  0.0571 -0.1819
  175SLPC   H3R19810   4.400   0.636   6.217  1.1923  0.0444 -1.1961
  175SLPC   H3S19811   4.317   0.482   6.199 -0.8862  2.1074 -0.0341
  175SLPC   C2419812   4.531   0.496   6.133  0.3159 -0.4219  0.1563
  175SLPC   H4R19813   4.547   0.387   6.146 -2.7104 -0.7979  1.8162
  175SLPC   H4S19814   4.619   0.553   6.168  0.4963 -0.8372  0.3896
  175SLPC   C2519815   4.491   0.544   5.989  0.6736 -0.8320  0.3117
  175SLPC   H5R19816   4.536   0.646   5.990  1.5399 -1.2010  1.1244
  175SLPC   H5S19817   4.382   0.533   5.973  0.3926  1.4806  0.2526
  175SLPC   C2619818   4.564   0.470   5.868  0.6777  0.0350  0.0752
  175SLPC   H6R19819   4.507   0.385   5.825 -0.0853  0.1700  0.7878
  175SLPC   H6S19820   4.651   0.423   5.919  0.5053 -0.0194  0.3240
  175SLPC   C2719821   4.603   0.569   5.757  0.2810 -0.5014  0.1548
  175SLPC   H7R19822   4.669   0.643   5.808 -1.0498  0.7779  0.0734
  175SLPC   H7S19823   4.508   0.620   5.729 -0.8975 -3.5128 -1.8938
  175SLPC   C2819824   4.682   0.503   5.642  0.1870 -0.4857 -0.3824
  175SLPC   H8R19825   4.758   0.435   5.685  0.8655 -1.0642 -2.3832
  175SLPC   H8S19826   4.748   0.575   5.589  0.4833  0.9161  1.7717
  175SLPC   C2919827   4.592   0.427   5.552 -0.5961 -0.1540  0.5621
  175SLPC   H9R19828   4.485   0.423   5.575 -0.4804 -2.3248  0.9827
  175SLPC  C21019829   4.639   0.371   5.436 -0.4403  0.7029 -0.3162
  175SLPC  H10R19830   4.568   0.322   5.369  0.9778 -1.3563 -0.4033
  175SLPC  C21119831   4.780   0.366   5.376  0.0040  0.4597  0.1029
  175SLPC  H11R19832   4.844   0.428   5.444  0.6458 -1.2895  1.1525
  175SLPC  H11S19833   4.785   0.413   5.275  0.8430 -0.8306 -0.4709
  175SLPC  C21219834   4.848   0.228   5.379  0.1850 -0.4300 -0.5088
  175SLPC  H12R19835   4.907   0.209   5.471 -1.4247  0.1683  0.6954
  175SLPC  C21319836   4.871   0.156   5.269  0.1650 -0.6420  0.3917
  175SLPC  H13R19837   4.936   0.067   5.258 -0.7323 -1.1580 -0.9982
  175SLPC  C21419838   4.817   0.174   5.129  0.3820  0.2469  0.7040
  175SLPC  H14R19839   4.783   0.277   5.103 -0.6529 -0.6537 -1.7884
  175SLPC  H14S19840   4.725   0.113   5.114 -0.4487  1.4748  0.6435
  175SLPC  C21519841   4.932   0.151   5.026  0.1979 -0.6392  0.0221
  175SLPC  H15R19842   4.888   0.153   4.924  2.8147  1.4007 -1.1936
  175SLPC  H15S19843   4.974   0.048   5.040 -0.0684 -0.8040 -0.3743
  175SLPC  C21619844   5.048   0.249   5.029  0.1306  0.2670 -0.9267
  175SLPC  H16R19845   5.139   0.214   4.974  0.3934  0.1374 -0.4121
  175SLPC  H16S19846   5.077   0.274   5.133  0.0943 -2.6231 -0.1488
  175SLPC  C21719847   5.017   0.390   4.971  0.1489 -0.2064 -0.1650
  175SLPC  H17R19848   4.936   0.428   5.036  1.3544  3.4453 -0.5663
  175SLPC  H17S19849   4.991   0.390   4.862  0.5865  1.3268 -0.3018
  175SLPC  C21819850   5.130   0.497   4.987 -0.2615 -0.0550 -0.5150
  175SLPC  H18R19851   5.114   0.590   4.928  2.1146  0.4912 -0.4124
  175SLPC  H18S19852   5.224   0.446   4.957 -1.2097 -2.1010 -0.1948
  175SLPC  H18T19853   5.145   0.534   5.091  2.9807  0.5965 -1.0974
  175SLPC   C3319854   4.682   0.952   6.048  0.0074  0.2180  0.2496
  175SLPC   H3X19855   4.699   0.855   5.998 -1.0438  0.1960 -0.0862
  175SLPC   H3Y19856   4.776   1.011   6.059  0.7861 -0.8415 -0.5702
  175SLPC   C3419857   4.578   1.027   5.966 -0.6331 -0.0402  0.0177
  175SLPC   H4X19858   4.540   1.108   6.031  1.5035  0.8772  0.1930
  175SLPC   H4Y19859   4.502   0.952   5.933  1.6623 -1.5972 -2.1120
  175SLPC   C3519860   4.635   1.078   5.832 -0.0922  0.3287 -0.3968
  175SLPC   H5X19861   4.712   1.157   5.849 -0.7481  0.4174  2.9096
  175SLPC   H5Y19862   4.549   1.123   5.778 -0.6208 -1.0040 -0.7031
  175SLPC   C3619863   4.677   0.968   5.734 -0.6869 -0.1228 -0.3561
  175SLPC   H6X19864   4.581   0.920   5.706 -0.9934 -0.2267  0.8227
  175SLPC   H6Y19865   4.742   0.889   5.779  2.1103  2.3681  0.2427
  175SLPC   C3719866   4.746   1.021   5.612 -0.3663  0.0111  0.3357
  175SLPC   H7X19867   4.769   0.935   5.546  1.1375  0.3600  0.3708
  175SLPC   H7Y19868   4.842   1.070   5.638 -0.6245  0.7865 -0.1443
  175SLPC   C3819869   4.669   1.130   5.544  0.2051 -0.2997 -0.2542
  175SLPC   H8X19870   4.681   1.229   5.594 -0.0251  0.4389 -1.6121
  175SLPC   H8Y19871   4.563   1.107   5.564 -0.0329  0.8362 -0.1322
  175SLPC   C3919872   4.708   1.142   5.397  0.1673  0.2226 -0.4284
  175SLPC   H9X19873   4.683   1.043   5.354  0.5098  0.3597 -0.9582
  175SLPC   H9Y19874   4.818   1.155   5.382  0.2398  1.6793  1.1553
  175SLPC  C31019875   4.637   1.259   5.323 -0.1088  0.9428 -0.1781
  175SLPC  H10X19876   4.653   1.355   5.377  0.3425  0.4536  0.5735
  175SLPC  H10Y19877   4.530   1.233   5.332 -0.1753  1.6553  1.3155
  175SLPC  C31119878   4.684   1.270   5.167  0.1831 -0.3548 -0.2497
  175SLPC  H11X19879   4.795   1.276   5.163  0.1615 -0.7471 -1.9883
  175SLPC  H11Y19880   4.640   1.366   5.135 -1.3157  0.3108  3.2464
  175SLPC  C31219881   4.639   1.155   5.085  0.3435  0.3031 -0.1679
  175SLPC  H12X19882   4.528   1.167   5.092  0.4443  0.1354  3.1251
  175SLPC  H12Y19883   4.649   1.054   5.129  0.1230  0.9322  1.3886
  175SLPC  C31319884   4.680   1.162   4.934 -0.0249  0.8358 -0.0350
  175SLPC  H13X19885   4.790   1.152   4.939  0.1528  2.7041  0.5896
  175SLPC  H13Y19886   4.676   1.259   4.881  0.8374  1.0659  0.3056
  175SLPC  C31419887   4.612   1.046   4.851 -0.0152 -0.0490  0.0386
  175SLPC  H14X19888   4.510   1.036   4.893  0.4297  0.5953  1.3132
  175SLPC  H14Y19889   4.683   0.962   4.867 -0.2382 -0.0993  0.7867
  175SLPC  C31519890   4.598   1.089   4.705  0.3243  0.3712 -0.2065
  175SLPC  H15X19891   4.528   1.175   4.698  0.0261  0.2380  0.8298
  175SLPC  H15Y19892   4.553   1.003   4.652 -0.2207  1.4468 -1.5240
  175SLPC  C31619893   4.722   1.122   4.627  0.7464 -0.5406  0.3731
  175SLPC  H16X19894   4.808   1.057   4.656  1.2670  0.5257  1.3141
  175SLPC  H16Y19895   4.746   1.227   4.655 -1.3081  0.3662 -1.0458
  175SLPC  C31719896   4.712   1.112   4.482  0.2555  0.5402  0.5454
  175SLPC  H17X19897   4.608   1.128   4.449  0.2769 -1.1412 -0.4153
  175SLPC  H17Y19898   4.722   1.005   4.454 -2.6284  0.4979 -0.6263
  175SLPC  C31819899   4.800   1.208   4.402 -0.1751 -0.6576 -0.1602
  175SLPC  H18X19900   4.786   1.310   4.442  0.0863 -1.7253  2.8936
  175SLPC  H18Y19901   4.770   1.198   4.295 -0.4342 -2.1414  0.0209
  175SLPC  H18Z19902   4.909   1.188   4.412  0.3018  1.6050 -0.3866
  176SLPC     N19903   4.141   3.944   7.005 -0.3477 -0.1641 -0.2282
  176SLPC   C1319904   4.044   3.959   6.883 -0.3703  0.1805 -0.1024
  176SLPC  H13A19905   3.943   3.951   6.919  0.2012 -0.0709  1.5260
  176SLPC  H13B19906   4.072   4.047   6.827 -1.3250 -0.0036 -0.8986
  176SLPC  H13C19907   4.065   3.878   6.814 -1.6476 -1.1084  0.9488
  176SLPC   C1419908   4.282   3.935   6.967 -0.3656  0.1798 -0.1513
  176SLPC  H14A19909   4.304   3.839   6.922 -0.1278  0.8410 -1.5053
  176SLPC  H14B19910   4.308   4.017   6.902 -1.0279 -0.8536 -1.7778
  176SLPC  H14C19911   4.355   3.921   7.046  1.1808 -0.0363 -1.5743
  176SLPC   C1519912   4.099   3.816   7.068 -0.1894 -0.4005 -0.5891
  176SLPC  H15A19913   4.002   3.808   7.116 -0.2771 -0.4823 -0.7786
  176SLPC  H15B19914   4.110   3.739   6.992 -1.4029 -0.0192 -1.1769
  176SLPC  H15C19915   4.179   3.793   7.137 -0.5624  1.3345  0.4819
  176SLPC   C1219916   4.105   4.054   7.106 -0.7264  0.3325  0.9481
  176SLPC  H12A19917   4.162   4.029   7.194  0.6952 -2.2514 -0.5690
  176SLPC  H12B19918   4.002   4.042   7.136 -1.8405  3.5903 -1.0318
  176SLPC   C1119919   4.140   4.197   7.066  0.4671 -0.2881  0.2216
  176SLPC  H11A19920   4.086   4.271   7.129 -0.8565 -0.1726 -1.0145
  176SLPC  H11B19921   4.103   4.215   6.963 -0.8293  1.2503  0.9208
  176SLPC     P19922   4.356   4.308   6.974  0.0194  0.7825 -0.0466
  176SLPC   O1319923   4.501   4.302   7.004  0.2410 -0.7801  0.2130
  176SLPC   O1419924   4.312   4.277   6.838 -0.2009 -0.0721 -0.2788
  176SLPC   O1219925   4.281   4.213   7.071  0.4008  0.5861 -0.1313
  176SLPC   O1119926   4.293   4.444   7.016  0.3987 -0.3469 -0.0195
  176SLPC    C119927   4.318   4.563   6.942 -0.2062 -0.5613 -0.3984
  176SLPC    HA19928   4.289   4.647   7.009  2.3259 -0.0146  0.1216
  176SLPC    HB19929   4.426   4.579   6.919  0.1482 -0.4072  1.2502
  176SLPC    C219930   4.224   4.586   6.820  0.3434 -0.1263 -0.2239
  176SLPC    HS19931   4.238   4.508   6.742  1.6957 -0.7532  0.6194
  176SLPC   O2119932   4.255   4.712   6.758  0.1974  0.9151 -0.5326
  176SLPC   C2119933   4.347   4.704   6.662 -0.0981 -0.1006  0.0473
  176SLPC   O2219934   4.402   4.603   6.619  0.8442 -0.1627 -0.2302
  176SLPC   C2219935   4.371   4.848   6.609 -0.5487  0.0822 -0.5582
  176SLPC   H2R19936   4.387   4.907   6.702  0.6748 -0.2031 -0.5631
  176SLPC   H2S19937   4.473   4.845   6.566 -0.6371 -1.6374 -0.7231
  176SLPC    C319938   4.073   4.571   6.871  0.4799 -0.5365  0.1810
  176SLPC    HX19939   4.056   4.654   6.943 -1.2535 -1.2382  0.6304
  176SLPC    HY19940   4.052   4.475   6.923 -1.3800 -1.1651 -1.6257
  176SLPC   O3119941   3.972   4.579   6.773  0.5438 -0.0228 -0.1901
  176SLPC   C3119942   3.916   4.706   6.754  0.4117 -0.2692 -0.0144
  176SLPC   O3219943   3.967   4.808   6.795 -0.4816  0.9893 -0.4282
  176SLPC   C3219944   3.788   4.690   6.668 -0.4791 -0.0255 -0.6596
  176SLPC   H2X19945   3.709   4.735   6.733  0.8258  4.0095 -1.5330
  176SLPC   H2Y19946   3.759   4.584   6.657 -0.9561 -0.1602  1.3980
  176SLPC   C2319947   4.247   4.892   6.525 -0.5298 -0.3428 -0.7482
  176SLPC   H3R19948   4.159   4.826   6.537 -0.3346 -0.2228  2.0938
  176SLPC   H3S19949   4.288   4.895   6.422 -1.4804  0.6928 -1.1114
  176SLPC   C2419950   4.203   5.038   6.558  0.4276 -0.0497  0.1883
  176SLPC   H4R19951   4.192   5.030   6.668 -0.4062 -1.6572  0.0247
  176SLPC   H4S19952   4.103   5.070   6.522  1.0056  2.2894  0.5558
  176SLPC   C2519953   4.304   5.148   6.530 -0.4152  0.5457 -0.3438
  176SLPC   H5R19954   4.405   5.106   6.552 -1.5249 -1.1867  2.0048
  176SLPC   H5S19955   4.279   5.224   6.608 -1.7500 -0.9086  0.7093
  176SLPC   C2619956   4.314   5.188   6.393 -0.2216  0.4731  0.0175
  176SLPC   H6R19957   4.273   5.109   6.325 -0.7347  1.3677 -0.7383
  176SLPC   H6S19958   4.419   5.212   6.366 -0.1851 -0.5724 -0.8693
  176SLPC   C2719959   4.225   5.308   6.367  0.1681  0.9214 -0.1643
  176SLPC   H7R19960   4.254   5.382   6.445 -0.2215 -1.1180  2.0385
  176SLPC   H7S19961   4.121   5.292   6.401  0.0942  0.8072 -0.4464
  176SLPC   C2819962   4.222   5.377   6.231 -0.3476 -0.4101  0.3605
  176SLPC   H8R19963   4.217   5.301   6.150  2.2038 -2.3881  1.8938
  176SLPC   H8S19964   4.317   5.434   6.226 -0.3676 -0.3662  0.4883
  176SLPC   C2919965   4.119   5.486   6.214 -0.2104  0.2938  0.4781
  176SLPC   H9R19966   4.079   5.532   6.306  1.3541  0.2175  1.2310
  176SLPC  C21019967   4.059   5.518   6.099 -0.7870 -0.3940 -0.2910
  176SLPC  H10R19968   3.989   5.603   6.097  0.5742  0.7921 -3.5394
  176SLPC  C21119969   4.091   5.458   5.965 -0.1224  0.4702  0.9952
  176SLPC  H11R19970   4.061   5.351   5.960  2.8457 -0.4380  0.9053
  176SLPC  H11S19971   4.200   5.451   5.948 -0.2270  0.5637  0.2063
  176SLPC  C21219972   4.032   5.520   5.841 -0.2593  0.6108 -0.0131
  176SLPC  H12R19973   3.956   5.598   5.858 -1.7246 -0.0740 -2.8043
  176SLPC  C21319974   4.079   5.504   5.715 -0.0224 -0.2905 -0.0671
  176SLPC  H13R19975   4.020   5.556   5.638  1.8629  0.2240 -1.2311
  176SLPC  C21419976   4.185   5.414   5.650 -0.4476 -0.4610 -0.5345
  176SLPC  H14R19977   4.235   5.345   5.721  0.1829  1.4877  1.0173
  176SLPC  H14S19978   4.266   5.476   5.607 -0.4840  1.3175  1.7129
  176SLPC  C21519979   4.116   5.330   5.542 -0.1665 -0.4244  0.2604
  176SLPC  H15R19980   4.010   5.312   5.568 -0.5222  2.0552  0.7477
  176SLPC  H15S19981   4.168   5.232   5.537  0.9459  0.1701 -0.3936
  176SLPC  C21619982   4.101   5.401   5.412  0.1775  0.9475 -0.1861
  176SLPC  H16R19983   4.199   5.382   5.362 -0.7918 -1.3308 -1.3832
  176SLPC  H16S19984   4.077   5.508   5.430 -0.5511  0.7550  0.0018
  176SLPC  C21719985   4.001   5.345   5.307 -0.5421  0.5507 -0.2571
  176SLPC  H17R19986   3.897   5.359   5.343  0.5590  0.0097  3.5292
  176SLPC  H17S19987   4.004   5.235   5.298 -1.0109  0.4917  0.2778
  176SLPC  C21819988   4.016   5.410   5.166  0.0894  0.1724  0.3607
  176SLPC  H18R19989   3.950   5.358   5.094 -0.7387 -0.3702  1.4855
  176SLPC  H18S19990   4.120   5.410   5.128 -0.3573  2.0984 -1.0191
  176SLPC  H18T19991   3.980   5.515   5.163  1.0373  0.5535 -3.8691
  176SLPC   C3319992   3.797   4.780   6.543 -0.2162 -0.1044  0.2825
  176SLPC   H3X19993   3.836   4.884   6.551 -0.2818  0.3555 -3.3078
  176SLPC   H3Y19994   3.694   4.790   6.503 -0.4495  3.6449  1.3744
  176SLPC   C3419995   3.870   4.706   6.428  0.5099 -0.0704 -0.3196
  176SLPC   H4X19996   3.840   4.599   6.421  1.0756 -0.2842  0.5072
  176SLPC   H4Y19997   3.977   4.700   6.457  0.4710  2.0361  0.3862
  176SLPC   C3519998   3.865   4.782   6.289  0.2409 -0.5379 -0.5831
  176SLPC   H5X19999   3.893   4.889   6.292 -0.0685 -0.4422 -1.0427
  176SLPC   H5Y20000   3.758   4.772   6.263  0.0785  0.1924 -0.2124
  176SLPC   C3620001   3.957   4.715   6.184  0.3484  0.8739  0.7796
  176SLPC   H6X20002   3.909   4.617   6.163  0.4509  0.9049  0.3872
  176SLPC   H6Y20003   4.062   4.711   6.222  0.9714  3.7097 -0.4051
  176SLPC   C3720004   3.960   4.791   6.052 -0.0529 -0.9869 -0.1382
  176SLPC   H7X20005   4.007   4.891   6.068 -1.6247 -0.2502  0.0536
  176SLPC   H7Y20006   3.857   4.817   6.019  1.2749  2.2525 -2.2779
  176SLPC   C3820007   4.015   4.704   5.936  0.9246  0.0622 -0.3647
  176SLPC   H8X20008   3.973   4.602   5.927 -4.3091  1.9896 -0.8891
  176SLPC   H8Y20009   4.126   4.700   5.936  1.1153  2.6229 -2.1982
  176SLPC   C3920010   3.972   4.773   5.803 -0.3825 -0.0231  0.4132
  176SLPC   H9X20011   3.990   4.882   5.800 -0.5591  0.0099  0.4899
  176SLPC   H9Y20012   3.860   4.771   5.806 -0.4451  0.4937 -0.9324
  176SLPC  C31020013   4.028   4.712   5.680  0.2990 -0.3421  0.1579
  176SLPC  H10X20014   3.995   4.606   5.685  1.6787 -0.7913  0.2485
  176SLPC  H10Y20015   4.139   4.706   5.684  0.3652 -1.4275 -2.0501
  176SLPC  C31120016   3.992   4.775   5.546  0.5837  0.1139 -0.1257
  176SLPC  H11X20017   4.040   4.875   5.552  0.0204  0.4889 -1.3858
  176SLPC  H11Y20018   3.883   4.792   5.529  1.0250  0.6784 -2.7864
  176SLPC  C31220019   4.052   4.699   5.422  0.2030 -0.2501 -0.1319
  176SLPC  H12X20020   3.996   4.604   5.413  1.6273 -1.2481  1.1643
  176SLPC  H12Y20021   4.161   4.679   5.431  0.1280 -0.1688  1.1819
  176SLPC  C31320022   4.041   4.772   5.289 -0.4537 -0.3093 -0.0291
  176SLPC  H13X20023   4.069   4.877   5.308  2.1743 -1.3063  2.2932
  176SLPC  H13Y20024   3.932   4.765   5.267 -0.6800 -2.2427  1.4018
  176SLPC  C31420025   4.127   4.727   5.176 -0.6099 -0.0780 -0.2351
  176SLPC  H14X20026   4.124   4.616   5.177 -0.6206 -0.0749  0.5487
  176SLPC  H14Y20027   4.231   4.752   5.207 -1.0678  1.6361  0.0243
  176SLPC  C31520028   4.098   4.790   5.043 -0.0652 -0.6124  0.3819
  176SLPC  H15X20029   3.994   4.765   5.010 -0.0685  1.2699 -1.1963
  176SLPC  H15Y20030   4.156   4.732   4.969 -0.7619 -2.9638  1.5796
  176SLPC  C31620031   4.117   4.942   5.033  0.1624 -1.0766 -0.1937
  176SLPC  H16X20032   4.218   4.965   5.072 -0.1163  0.0880 -0.1163
  176SLPC  H16Y20033   4.047   4.991   5.105  0.4835 -0.4953 -0.2653
  176SLPC  C31720034   4.093   4.994   4.892  0.9262 -0.6750  0.3965
  176SLPC  H17X20035   4.007   4.935   4.854  1.1770  0.4505 -2.0952
  176SLPC  H17Y20036   4.184   4.957   4.842  0.6357 -0.4176 -0.3304
  176SLPC  C31820037   4.068   5.145   4.881 -0.1633  0.2344  0.1298
  176SLPC  H18X20038   4.159   5.200   4.914 -0.1221  1.1350 -1.4001
  176SLPC  H18Y20039   3.981   5.179   4.940  0.2382  0.0496  0.8428
  176SLPC  H18Z20040   4.067   5.161   4.771  0.7234  2.8221  0.4405
  177SLPC     N20041   4.797   6.441   7.258 -0.4211 -0.3192 -0.7135
  177SLPC   C1320042   4.894   6.560   7.259  0.2304  0.1214 -0.0692
  177SLPC  H13A20043   4.847   6.657   7.260 -0.4890 -0.1885 -1.2624
  177SLPC  H13B20044   4.962   6.548   7.342 -0.2647 -0.0389  0.3126
  177SLPC  H13C20045   4.946   6.548   7.164 -1.7825 -0.6801 -1.1246
  177SLPC   C1420046   4.729   6.430   7.392 -0.1708 -0.0811  0.5740
  177SLPC  H14A20047   4.797   6.411   7.473 -0.9651 -1.5984  0.9135
  177SLPC  H14B20048   4.695   6.527   7.426  0.3029  0.4502 -0.4032
  177SLPC  H14C20049   4.653   6.353   7.396 -0.9271  0.6595  0.6992
  177SLPC   C1520050   4.877   6.316   7.226 -0.3075  0.6796 -0.1914
  177SLPC  H15A20051   4.974   6.307   7.273 -0.6352  0.5760  0.4653
  177SLPC  H15B20052   4.827   6.220   7.224 -3.2269  2.0836  0.3066
  177SLPC  H15C20053   4.913   6.328   7.124 -0.9812 -4.1020 -1.2109
  177SLPC   C1220054   4.687   6.468   7.157 -0.4898 -0.0991 -0.4695
  177SLPC  H12A20055   4.630   6.556   7.183 -0.9133 -0.5303  0.1152
  177SLPC  H12B20056   4.618   6.387   7.177  0.3465 -0.5159  0.8674
  177SLPC   C1120057   4.721   6.479   7.005 -0.8294  0.1513 -0.2138
  177SLPC  H11A20058   4.794   6.562   6.994 -0.6837  0.1167  0.4323
  177SLPC  H11B20059   4.630   6.505   6.946 -0.9018 -0.9381 -0.6024
  177SLPC     P20060   4.712   6.248   6.870 -0.1728  0.2361 -0.2947
  177SLPC   O1320061   4.811   6.162   6.803  0.1498  0.2962  0.4700
  177SLPC   O1420062   4.628   6.171   6.963 -0.3486 -0.1916 -0.6177
  177SLPC   O1220063   4.786   6.364   6.947 -0.1126  0.5101  0.5935
  177SLPC   O1120064   4.626   6.334   6.778 -0.2908  0.6242  0.2962
  177SLPC    C120065   4.500   6.297   6.714  0.0516 -0.3002 -0.4131
  177SLPC    HA20066   4.419   6.282   6.788  1.0254  1.7568  1.1841
  177SLPC    HB20067   4.472   6.379   6.645 -2.7511 -0.2596  0.6729
  177SLPC    C220068   4.502   6.181   6.616 -0.3692  0.2004 -0.1165
  177SLPC    HS20069   4.534   6.088   6.669 -0.6095  0.0065 -0.3082
  177SLPC   O2120070   4.592   6.208   6.504 -0.3236 -0.5123 -0.1275
  177SLPC   C2120071   4.647   6.102   6.445 -0.0489 -0.7244 -0.4836
  177SLPC   O2220072   4.644   5.989   6.491 -0.0473 -0.3095  0.1145
  177SLPC   C2220073   4.740   6.141   6.331 -0.6645 -0.1393 -0.6586
  177SLPC   H2R20074   4.723   6.249   6.312  0.3212  0.6175  2.2092
  177SLPC   H2S20075   4.844   6.126   6.369 -1.7352  1.1973  3.3235
  177SLPC    C320076   4.358   6.151   6.563  0.5873 -0.3457 -0.1101
  177SLPC    HX20077   4.290   6.142   6.651  1.3503  2.5187  0.8656
  177SLPC    HY20078   4.362   6.052   6.512 -0.5558  0.1668 -1.2549
  177SLPC   O3120079   4.301   6.260   6.492  0.3893 -0.1208  0.1375
  177SLPC   C3120080   4.334   6.260   6.361 -0.3449 -0.2211 -0.3262
  177SLPC   O3220081   4.381   6.165   6.303 -0.4521 -0.3460  0.0593
  177SLPC   C3220082   4.316   6.400   6.302  0.0663 -0.5317  0.0373
  177SLPC   H2X20083   4.380   6.475   6.354 -0.9485  0.7688 -0.5256
  177SLPC   H2Y20084   4.217   6.445   6.323  0.4412  0.5364 -0.4155
  177SLPC   C2320085   4.722   6.067   6.198  0.4854  0.6937 -0.3493
  177SLPC   H3R20086   4.631   6.103   6.146 -0.4654 -1.5612 -0.3353
  177SLPC   H3S20087   4.717   5.958   6.217  2.7933  0.8000  1.4670
  177SLPC   C2420088   4.837   6.085   6.103  0.2893  0.1320 -0.6034
  177SLPC   H4R20089   4.914   6.011   6.136  0.0662  0.3521  0.4601
  177SLPC   H4S20090   4.876   6.189   6.110  1.4920 -0.3260 -0.1014
  177SLPC   C2520091   4.809   6.073   5.954 -0.3962 -0.3705  0.0499
  177SLPC   H5R20092   4.769   6.165   5.908  1.9717  0.6165 -0.1850
  177SLPC   H5S20093   4.742   5.985   5.941  0.2074 -0.7025 -0.9247
  177SLPC   C2620094   4.929   6.040   5.853  0.0933  0.4659 -0.9749
  177SLPC   H6R20095   4.973   5.941   5.878 -2.8612 -0.0495  3.1563
  177SLPC   H6S20096   5.013   6.109   5.875 -0.7913  1.2613 -0.0257
  177SLPC   C2720097   4.884   6.055   5.707  0.4427  0.0610  0.3492
  177SLPC   H7R20098   4.970   6.066   5.638  0.2031 -0.5988 -0.0630
  177SLPC   H7S20099   4.827   6.151   5.708  1.1653  0.4999  0.2510
  177SLPC   C2820100   4.792   5.946   5.643 -0.3038 -0.5461  0.0110
  177SLPC   H8R20101   4.741   6.005   5.565 -1.6346  0.0299  1.2720
  177SLPC   H8S20102   4.719   5.914   5.721  1.6679 -2.2133  1.2912
  177SLPC   C2920103   4.869   5.831   5.578  0.3312  0.0935 -0.2166
  177SLPC   H9R20104   4.897   5.767   5.663 -3.9289 -0.0603  1.2859
  177SLPC  C21020105   4.896   5.806   5.453 -0.4077  0.0680  1.4362
  177SLPC  H10R20106   4.975   5.732   5.431  1.3919  2.4174 -0.7703
  177SLPC  C21120107   4.874   5.892   5.333 -0.1192  0.3602 -0.0134
  177SLPC  H11R20108   4.774   5.939   5.340 -0.3208 -0.2805  1.8994
  177SLPC  H11S20109   4.865   5.831   5.240  0.7909 -0.7771  0.6244
  177SLPC  C21220110   4.980   5.997   5.325  0.0943 -0.9006 -0.3979
  177SLPC  H12R20111   5.013   6.046   5.418 -1.7202  1.3589 -0.8491
  177SLPC  C21320112   5.031   6.034   5.208  0.0025  0.0227  0.8384
  177SLPC  H13R20113   5.111   6.109   5.201 -1.6788  1.7607 -1.4230
  177SLPC  C21420114   4.986   5.981   5.079  0.6548 -0.0372 -0.4180
  177SLPC  H14R20115   5.006   6.063   5.006  1.1997 -0.0681 -0.3061
  177SLPC  H14S20116   4.876   5.966   5.071  1.0587 -2.5753 -2.7494
  177SLPC  C21520117   5.061   5.855   5.040  0.4289  0.3641  0.4559
  177SLPC  H15R20118   5.017   5.808   4.949  1.8739 -1.8310  0.8095
  177SLPC  H15S20119   5.051   5.773   5.115 -0.2340 -1.7696 -1.8080
  177SLPC  C21620120   5.212   5.881   5.019 -0.8605  0.0760  0.3522
  177SLPC  H16R20121   5.262   5.894   5.117  3.1108 -3.0936 -0.9499
  177SLPC  H16S20122   5.223   5.979   4.967  1.9652 -0.4568 -0.2559
  177SLPC  C21720123   5.276   5.767   4.934  0.2345  0.0630  0.8977
  177SLPC  H17R20124   5.225   5.756   4.836  3.3495 -0.7968 -0.7666
  177SLPC  H17S20125   5.275   5.676   4.998 -2.0988  0.1580  1.0697
  177SLPC  C21820126   5.427   5.795   4.905 -0.0657  0.4403 -0.1006
  177SLPC  H18R20127   5.461   5.737   4.817 -0.1816  0.7438 -0.3470
  177SLPC  H18S20128   5.483   5.741   4.985  0.6937  1.1626 -0.1425
  177SLPC  H18T20129   5.451   5.903   4.902  1.4397  0.2486  2.3661
  177SLPC   C3320130   4.335   6.404   6.150 -0.0024  0.9507 -0.1955
  177SLPC   H3X20131   4.414   6.332   6.120  1.3310  1.8978  0.8967
  177SLPC   H3Y20132   4.373   6.501   6.111 -2.0725  1.4957 -0.9684
  177SLPC   C3420133   4.207   6.366   6.070  0.0403 -0.1354 -0.9697
  177SLPC   H4X20134   4.116   6.389   6.130  1.3364 -0.7031  1.3556
  177SLPC   H4Y20135   4.220   6.256   6.056 -0.6653 -0.9725  3.3625
  177SLPC   C3520136   4.209   6.440   5.933  0.1064 -0.0878 -0.4386
  177SLPC   H5X20137   4.310   6.427   5.889  0.0340 -2.6719 -0.0032
  177SLPC   H5Y20138   4.193   6.549   5.948 -0.1961 -0.0804 -0.8111
  177SLPC   C3620139   4.103   6.388   5.841  0.5535 -0.0400  0.8536
  177SLPC   H6X20140   3.997   6.385   5.872 -0.7468  0.8688 -3.0425
  177SLPC   H6Y20141   4.113   6.285   5.800  0.0747  0.0208  0.5795
  177SLPC   C3720142   4.097   6.457   5.704  0.0180 -0.0967  0.2753
  177SLPC   H7X20143   4.196   6.477   5.656 -0.2745  0.3542 -0.1428
  177SLPC   H7Y20144   4.061   6.559   5.727 -3.3851 -1.4033  1.2752
  177SLPC   C3820145   4.010   6.392   5.596  0.0455 -0.5260  0.0746
  177SLPC   H8X20146   3.903   6.390   5.625 -0.0147  0.9848  0.0581
  177SLPC   H8Y20147   4.036   6.284   5.590  2.2290 -0.0309 -0.0612
  177SLPC   C3920148   4.022   6.450   5.457 -0.1282  0.0831  0.1351
  177SLPC   H9X20149   4.065   6.374   5.388 -1.3882 -1.2412  0.7301
  177SLPC   H9Y20150   4.089   6.538   5.463  0.4271 -0.4208  1.8306
  177SLPC  C31020151   3.896   6.508   5.395 -0.0047 -0.7045 -0.2619
  177SLPC  H10X20152   3.892   6.610   5.440  0.7651 -1.0276  0.5752
  177SLPC  H10Y20153   3.803   6.451   5.415 -0.9218  0.0201 -2.1784
  177SLPC  C31120154   3.900   6.531   5.246 -0.1190  0.1462  0.3266
  177SLPC  H11X20155   4.005   6.521   5.212 -0.9946 -0.9073 -2.3410
  177SLPC  H11Y20156   3.856   6.632   5.228 -0.1146 -0.1093 -1.2997
  177SLPC  C31220157   3.807   6.438   5.161  0.2312 -0.7125  0.3143
  177SLPC  H12X20158   3.701   6.443   5.195 -0.0958 -0.0091 -0.7548
  177SLPC  H12Y20159   3.844   6.334   5.174 -0.9567 -1.2008  0.0075
  177SLPC  C31320160   3.807   6.472   5.013  0.1951  0.6094 -0.3301
  177SLPC  H13X20161   3.770   6.575   4.992 -1.8956  0.0527  0.4088
  177SLPC  H13Y20162   3.741   6.411   4.949  0.2856  0.2974 -0.1272
  177SLPC  C31420163   3.944   6.461   4.943 -0.5746 -0.8807 -0.3357
  177SLPC  H14X20164   3.980   6.365   4.985 -0.6392  0.2157  2.4058
  177SLPC  H14Y20165   4.021   6.529   4.984 -2.3735 -0.1681  2.0428
  177SLPC  C31520166   3.948   6.470   4.790 -0.6612 -0.1853 -0.0936
  177SLPC  H15X20167   3.876   6.397   4.748 -2.0569  0.1210  1.6690
  177SLPC  H15Y20168   4.051   6.440   4.760 -1.3743 -3.8862  0.6532
  177SLPC  C31620169   3.925   6.612   4.736 -0.6219 -0.3112  0.4703
  177SLPC  H16X20170   4.001   6.689   4.763  0.8081 -1.5298  0.0501
  177SLPC  H16Y20171   3.818   6.639   4.751 -0.4254  0.6033  0.2936
  177SLPC  C31720172   3.943   6.618   4.573  0.1852 -0.4449 -0.4440
  177SLPC  H17X20173   3.893   6.529   4.529 -3.1360  0.8747  0.3437
  177SLPC  H17Y20174   4.049   6.599   4.547  0.3084 -0.1045 -0.2062
  177SLPC  C31820175   3.896   6.753   4.528  0.1613  0.1529  0.1422
  177SLPC  H18X20176   3.802   6.790   4.574  0.5217  1.6548 -0.2694
  177SLPC  H18Y20177   3.866   6.757   4.421 -1.9107  0.6148  0.6899
  177SLPC  H18Z20178   3.964   6.838   4.549  0.3863  0.2722 -1.0088
  178SLPC     N20179   0.264   6.058   7.122  0.7127 -0.3841  0.2422
  178SLPC   C1320180   0.156   6.055   7.230 -0.1943 -0.0859  0.4308
  178SLPC  H13A20181   0.091   5.969   7.226  1.9256 -1.7964  0.8324
  178SLPC  H13B20182   0.209   6.041   7.323  1.6327  0.7254 -0.4339
  178SLPC  H13C20183   0.095   6.144   7.234 -0.1922 -0.0268 -0.5024
  178SLPC   C1420184   0.376   5.963   7.157 -0.5512 -0.6941  0.1027
  178SLPC  H14A20185   0.336   5.868   7.189 -0.2621 -0.2078  2.0728
  178SLPC  H14B20186   0.443   5.953   7.073 -0.3820  1.2488 -0.0217
  178SLPC  H14C20187   0.439   5.988   7.242 -0.2547  2.3497 -0.9261
  178SLPC   C1520188   0.315   6.194   7.091  0.2887 -0.4368 -0.0222
  178SLPC  H15A20189   0.380   6.191   7.005 -0.1534  0.9276 -0.4345
  178SLPC  H15B20190   0.238   6.270   7.077 -1.7458 -1.8973  2.3201
  178SLPC  H15C20191   0.378   6.221   7.174  1.4106 -1.4774 -0.5160
  178SLPC   C1220192   0.204   6.014   6.992 -0.2652 -0.0349  0.1195
  178SLPC  H12A20193   0.099   6.032   6.978  0.1298  0.4200 -2.8640
  178SLPC  H12B20194   0.206   5.906   7.001  1.2386 -0.0427  0.0099
  178SLPC   C1120195   0.266   6.056   6.853  0.2245  0.6029 -0.1396
  178SLPC  H11A20196   0.240   6.157   6.816  0.9969  0.2271 -1.8211
  178SLPC  H11B20197   0.212   5.985   6.786 -0.6780 -1.1292  2.3014
  178SLPC     P20198   0.481   5.920   6.785 -0.0953  0.4009  0.6120
  178SLPC   O1320199   0.626   5.933   6.812  0.1341 -0.4020  0.2611
  178SLPC   O1420200   0.414   5.795   6.827  0.7104  0.0249 -0.1007
  178SLPC   O1220201   0.410   6.050   6.849  0.4885  0.9506  0.4113
  178SLPC   O1120202   0.459   5.932   6.625  0.0555  0.1131 -0.0816
  178SLPC    C120203   0.546   5.848   6.545  0.6825 -0.1531 -0.0850
  178SLPC    HA20204   0.651   5.871   6.572  1.3717 -0.9363 -1.9567
  178SLPC    HB20205   0.506   5.745   6.557 -2.1448  1.0420  1.8559
  178SLPC    C220206   0.533   5.878   6.394 -0.0411 -0.5212  0.4163
  178SLPC    HS20207   0.608   5.811   6.346 -1.5224 -0.3810 -2.3128
  178SLPC   O2120208   0.565   6.020   6.384 -0.6101  0.3162  0.0253
  178SLPC   C2120209   0.604   6.052   6.268  0.0048  0.0553  0.0207
  178SLPC   O2220210   0.654   5.973   6.185 -0.2864  0.1445  0.3060
  178SLPC   C2220211   0.593   6.205   6.254 -0.6184  0.3500 -0.2012
  178SLPC   H2R20212   0.516   6.223   6.177  1.0523 -1.2149 -2.3645
  178SLPC   H2S20213   0.575   6.239   6.358  0.5286 -1.4736  0.6491
  178SLPC    C320214   0.398   5.850   6.329  0.3364  0.2194  0.2534
  178SLPC    HX20215   0.335   5.941   6.333 -0.5494 -0.3434 -0.4312
  178SLPC    HY20216   0.340   5.773   6.385  0.8222  1.4475  2.5711
  178SLPC   O3120217   0.425   5.822   6.194  0.3326 -0.4267 -0.5452
  178SLPC   C3120218   0.464   5.696   6.176  0.3695 -0.2401  0.0666
  178SLPC   O3220219   0.479   5.614   6.263 -0.4678 -0.0244  0.3078
  178SLPC   C3220220   0.507   5.668   6.032 -0.0198  0.5820 -0.2572
  178SLPC   H2X20221   0.618   5.666   6.029 -0.0202  1.0257 -1.2179
  178SLPC   H2Y20222   0.473   5.759   5.976 -1.3628  2.5944  3.5080
  178SLPC   C2320223   0.718   6.280   6.204 -0.6133  1.1045 -0.7907
  178SLPC   H3R20224   0.741   6.248   6.100 -0.4389 -0.4669 -0.2932
  178SLPC   H3S20225   0.805   6.243   6.263 -2.9907 -2.0289  1.0577
  178SLPC   C2420226   0.698   6.431   6.209  0.1168  0.4811 -0.0424
  178SLPC   H4R20227   0.680   6.472   6.311  1.9882  0.7842  0.1894
  178SLPC   H4S20228   0.614   6.450   6.138  0.6682  0.2944 -0.7607
  178SLPC   C2520229   0.819   6.507   6.158 -0.6583  0.2102 -0.1475
  178SLPC   H5R20230   0.875   6.451   6.080 -1.6138  0.4775 -1.0496
  178SLPC   H5S20231   0.888   6.527   6.244  1.5805 -1.5751 -1.4098
  178SLPC   C2620232   0.765   6.636   6.091  0.4600 -0.6451  0.0081
  178SLPC   H6R20233   0.692   6.690   6.156  0.3208  0.2327 -0.8549
  178SLPC   H6S20234   0.710   6.603   6.001 -1.2983  3.0168 -0.4589
  178SLPC   C2720235   0.873   6.742   6.062  0.2239 -0.2087  0.3531
  178SLPC   H7R20236   0.959   6.694   6.010  1.5410  1.8637  0.5180
  178SLPC   H7S20237   0.927   6.776   6.153  1.5975 -2.0315  0.2762
  178SLPC   C2820238   0.825   6.868   5.981 -0.3815  0.2008  0.6684
  178SLPC   H8R20239   0.914   6.929   5.954  0.9542 -2.1010 -0.4425
  178SLPC   H8S20240   0.763   6.937   6.042  0.3504 -0.0979  1.7773
  178SLPC   C2920241   0.740   6.832   5.861 -0.9090  0.0581 -0.3347
  178SLPC   H9R20242   0.635   6.844   5.890 -0.3452  2.0101  1.1457
  178SLPC  C21020243   0.785   6.786   5.740  0.2189 -0.0421 -0.3448
  178SLPC  H10R20244   0.712   6.799   5.658  0.9302 -3.0139 -1.5752
  178SLPC  C21120245   0.926   6.771   5.695 -0.4285 -0.0364  0.4098
  178SLPC  H11R20246   0.929   6.687   5.622 -2.0679 -0.0822  0.3470
  178SLPC  H11S20247   0.983   6.736   5.783 -0.0810  0.0789  0.2302
  178SLPC  C21220248   0.992   6.900   5.649 -0.1373  0.3211 -0.3031
  178SLPC  H12R20249   0.984   6.978   5.726 -0.5134 -1.3609  1.4597
  178SLPC  C21320250   1.063   6.937   5.539  0.1827 -0.5475  0.7171
  178SLPC  H13R20251   1.093   7.042   5.538 -1.8079  0.0788 -1.2740
  178SLPC  C21420252   1.099   6.864   5.411  0.1022 -0.3880 -0.2552
  178SLPC  H14R20253   1.204   6.831   5.418  0.1740  0.1202  1.3851
  178SLPC  H14S20254   1.076   6.937   5.330  1.5704 -0.8736 -1.1551
  178SLPC  C21520255   1.027   6.731   5.378  0.0834  0.6272  0.7288
  178SLPC  H15R20256   0.918   6.733   5.399 -0.4014 -1.5464 -1.2001
  178SLPC  H15S20257   1.059   6.651   5.448 -0.0573 -0.4528 -0.3984
  178SLPC  C21620258   1.062   6.679   5.232  0.1843  0.6762 -0.2588
  178SLPC  H16R20259   1.032   6.572   5.232  3.2125 -0.3025 -1.8325
  178SLPC  H16S20260   1.171   6.693   5.213  0.6906 -0.3284  1.6255
  178SLPC  C21720261   0.990   6.767   5.129  0.2069  0.5728  0.8245
  178SLPC  H17R20262   1.021   6.873   5.135 -0.9628  1.0357 -0.6614
  178SLPC  H17S20263   0.880   6.771   5.149  0.5993  1.4303  3.1302
  178SLPC  C21820264   1.003   6.711   4.990 -0.7069  0.5957  0.4032
  178SLPC  H18R20265   0.985   6.791   4.914 -1.8462 -0.9360 -1.0095
  178SLPC  H18S20266   0.934   6.625   4.985  1.5823 -1.3540  0.2107
  178SLPC  H18T20267   1.101   6.664   4.966 -1.2980 -0.7590  0.5517
  178SLPC   C3320268   0.441   5.540   5.969  0.4492  0.2985  0.2123
  178SLPC   H3X20269   0.331   5.549   5.965  0.4686  0.1916 -0.6767
  178SLPC   H3Y20270   0.458   5.456   6.040 -1.1664  0.6970  1.1010
  178SLPC   C3420271   0.489   5.522   5.823 -1.0931  0.4028 -0.3225
  178SLPC   H4X20272   0.455   5.420   5.794 -0.1631 -0.3462  1.1207
  178SLPC   H4Y20273   0.599   5.534   5.824 -1.1142  0.6410 -0.5146
  178SLPC   C3520274   0.430   5.620   5.723  0.2133  0.3260 -0.3525
  178SLPC   H5X20275   0.471   5.719   5.749  0.1057  0.0572  0.8834
  178SLPC   H5Y20276   0.319   5.618   5.730  0.1400  1.3343 -1.0047
  178SLPC   C3620277   0.465   5.591   5.578 -0.1479 -0.1298 -0.0528
  178SLPC   H6X20278   0.427   5.489   5.554  0.1725 -0.6411  1.5171
  178SLPC   H6Y20279   0.574   5.608   5.564 -0.2183 -0.0896 -0.5880
  178SLPC   C3720280   0.385   5.694   5.488 -0.5292 -0.2216  0.3430
  178SLPC   H7X20281   0.425   5.797   5.502  0.0861 -0.4980  0.6543
  178SLPC   H7Y20282   0.274   5.698   5.493 -0.7937 -1.7085 -2.7050
  178SLPC   C3820283   0.419   5.669   5.338  0.3018 -0.3463  0.1507
  178SLPC   H8X20284   0.394   5.565   5.309  1.6308 -0.4458 -0.7154
  178SLPC   H8Y20285   0.529   5.681   5.330  0.4669  1.0811  2.9924
  178SLPC   C3920286   0.338   5.763   5.244 -0.1711 -0.3220  0.0460
  178SLPC   H9X20287   0.353   5.863   5.290 -0.3286 -0.6175  0.7486
  178SLPC   H9Y20288   0.231   5.737   5.250  0.0595 -1.5712 -0.8525
  178SLPC  C31020289   0.396   5.755   5.104  0.1021 -0.5242 -0.4279
  178SLPC  H10X20290   0.346   5.669   5.053  0.9902 -1.6430  0.5410
  178SLPC  H10Y20291   0.506   5.739   5.103 -0.1737 -3.3700  1.9315
  178SLPC  C31120292   0.363   5.883   5.022 -0.2791 -0.1416  0.6444
  178SLPC  H11X20293   0.413   5.976   5.057 -0.9218  0.5509 -0.2300
  178SLPC  H11Y20294   0.256   5.910   5.034  0.0344  1.1159  0.7051
  178SLPC  C31220295   0.399   5.866   4.878 -0.1275 -0.5549 -0.1671
  178SLPC  H12X20296   0.346   5.779   4.835  1.0180 -1.7506  0.7564
  178SLPC  H12Y20297   0.508   5.848   4.869 -0.4281 -1.7709 -1.7863
  178SLPC  C31320298   0.384   5.995   4.788  0.4972 -0.6869 -0.3629
  178SLPC  H13X20299   0.430   6.085   4.835 -2.8213  1.8006 -1.5268
  178SLPC  H13Y20300   0.274   6.011   4.782  0.2618 -2.6375 -2.4509
  178SLPC  C31420301   0.453   5.977   4.654 -0.2972  0.3303 -0.2052
  178SLPC  H14X20302   0.418   5.883   4.608 -1.7526  1.2422 -1.0524
  178SLPC  H14Y20303   0.562   5.965   4.670 -0.6997 -2.1687  1.2122
  178SLPC  C31520304   0.416   6.094   4.547  0.1216  0.2675 -0.5096
  178SLPC  H15X20305   0.454   6.045   4.454 -1.6350 -3.2744  0.4751
  178SLPC  H15Y20306   0.480   6.180   4.575 -0.0156  0.0101  0.6371
  178SLPC  C31620307   0.258   6.123   4.532 -0.2068 -0.5039  0.2464
  178SLPC  H16X20308   0.242   6.211   4.466 -0.7396  0.0803  1.1377
  178SLPC  H16Y20309   0.207   6.151   4.627  1.4014  1.4756  0.5958
  178SLPC  C31720310   0.201   5.991   4.466 -0.8739  0.1354 -0.0131
  178SLPC  H17X20311   0.235   5.913   4.536  0.6479  1.4205  0.7514
  178SLPC  H17Y20312   0.246   5.976   4.366  0.7999  0.2858  0.6873
  178SLPC  C31820313   0.048   5.991   4.457 -0.4465  0.4052 -0.1366
  178SLPC  H18X20314   0.008   6.074   4.394 -0.2640  0.2992 -0.3964
  178SLPC  H18Y20315  -0.006   6.008   4.552 -0.9216  1.6495 -0.6134
  178SLPC  H18Z20316   0.022   5.890   4.419 -2.2772  1.3347 -1.5361
  179SLPC     N20317   3.284   6.302   2.327 -0.2550 -0.0319 -0.1424
  179SLPC   C1320318   3.410   6.253   2.388 -0.2609  0.2066  0.0549
  179SLPC  H13A20319   3.485   6.330   2.403  0.5240 -0.4241 -0.5278
  179SLPC  H13B20320   3.393   6.206   2.484  1.9259 -1.5402 -0.3165
  179SLPC  H13C20321   3.460   6.177   2.330 -1.5234 -0.2969 -0.3918
  179SLPC   C1420322   3.186   6.185   2.319  0.7273  0.4339 -0.1402
  179SLPC  H14A20323   3.214   6.109   2.247 -1.1806 -0.7314  0.3010
  179SLPC  H14B20324   3.164   6.151   2.419 -0.9583  1.8735  0.0262
  179SLPC  H14C20325   3.092   6.222   2.280 -0.3448 -1.6681  0.3226
  179SLPC   C1520326   3.309   6.360   2.191 -0.7946  0.3308 -0.5097
  179SLPC  H15A20327   3.354   6.281   2.133 -0.2964 -1.7256  2.4708
  179SLPC  H15B20328   3.218   6.380   2.135  0.7695  0.2270 -3.2498
  179SLPC  H15C20329   3.373   6.447   2.190 -0.5074  0.2061  1.6021
  179SLPC   C1220330   3.217   6.399   2.419 -0.7878  0.4096 -0.1502
  179SLPC  H12A20331   3.170   6.341   2.497  0.3766  0.5462  0.6698
  179SLPC  H12B20332   3.124   6.419   2.368 -0.8176 -0.9586 -0.6804
  179SLPC   C1120333   3.290   6.531   2.454  0.1400 -0.3640  0.3031
  179SLPC  H11A20334   3.379   6.498   2.512 -1.3459 -2.5380  1.5052
  179SLPC  H11B20335   3.230   6.581   2.533 -0.9638 -2.8709  1.1904
  179SLPC     P20336   3.194   6.694   2.265  0.0904  0.1277  0.1164
  179SLPC   O1320337   3.247   6.809   2.185  0.2850 -0.0377 -0.0588
  179SLPC   O1420338   3.101   6.600   2.200  0.3889 -0.0050  0.2998
  179SLPC   O1220339   3.311   6.616   2.338 -0.0011 -0.2811 -0.0997
  179SLPC   O1120340   3.110   6.746   2.396  0.0565  0.6082  0.0258
  179SLPC    C120341   3.151   6.873   2.446 -0.0425  0.1365 -0.7173
  179SLPC    HA20342   3.258   6.873   2.478 -0.7678  0.0151  1.9496
  179SLPC    HB20343   3.128   6.949   2.368 -0.4096  2.0045  1.1097
  179SLPC    C220344   3.067   6.908   2.579 -0.2351  0.0699 -0.2752
  179SLPC    HS20345   3.105   6.998   2.631 -0.5743  1.0015 -1.5947
  179SLPC   O2120346   3.082   6.799   2.668  0.1901  0.7388  0.2454
  179SLPC   C2120347   3.188   6.797   2.740 -1.2189  0.1433 -0.1458
  179SLPC   O2220348   3.284   6.874   2.728 -0.0387  0.1493 -0.6553
  179SLPC   C2220349   3.191   6.674   2.833  0.0617  0.1472 -0.7959
  179SLPC   H2R20350   3.165   6.585   2.771 -0.4111 -1.2192  1.2582
  179SLPC   H2S20351   3.295   6.660   2.870 -0.1648  0.6888  0.0642
  179SLPC    C320352   2.917   6.936   2.545  0.5822  0.0654 -0.7655
  179SLPC    HX20353   2.880   6.842   2.498 -1.0296 -1.4951  3.1801
  179SLPC    HY20354   2.920   7.016   2.468  0.5419 -0.3121 -1.1582
  179SLPC   O3120355   2.832   6.984   2.655 -0.3526  0.2554  0.1044
  179SLPC   C3120356   2.769   6.884   2.729 -0.7402  0.1130  0.3574
  179SLPC   O3220357   2.762   6.772   2.689 -0.3587  0.0017  0.8145
  179SLPC   C3220358   2.743   6.940   2.872  0.3353  0.3466  0.6595
  179SLPC   H2X20359   2.657   7.007   2.853  0.2277 -0.7090 -3.5076
  179SLPC   H2Y20360   2.835   6.995   2.902  0.2048  1.0518 -0.2037
  179SLPC   C2320361   3.081   6.689   2.942  1.1369 -0.1763 -0.7301
  179SLPC   H3R20362   2.985   6.683   2.887  0.4818  0.1127  0.3340
  179SLPC   H3S20363   3.096   6.790   2.986  1.4893 -0.9643  1.0819
  179SLPC   C2420364   3.090   6.585   3.058 -0.2914  0.6068 -0.0123
  179SLPC   H4R20365   3.198   6.566   3.077 -0.2818 -0.9719 -1.3789
  179SLPC   H4S20366   3.044   6.492   3.017  2.2037  0.2406 -2.2555
  179SLPC   C2520367   3.030   6.632   3.193 -0.3056  0.4841  0.7035
  179SLPC   H5R20368   2.934   6.679   3.164  0.0509 -1.0362 -3.6698
  179SLPC   H5S20369   3.104   6.702   3.236  2.9465 -0.9193 -2.1729
  179SLPC   C2620370   3.019   6.510   3.282  0.3744 -0.3897 -0.1828
  179SLPC   H6R20371   3.101   6.436   3.290  0.1691 -0.5480  0.4785
  179SLPC   H6S20372   2.930   6.454   3.247 -0.4486 -0.6810  2.2174
  179SLPC   C2720373   2.995   6.532   3.438  0.1291 -0.3683 -0.3863
  179SLPC   H7R20374   2.959   6.434   3.478  1.2390 -0.1555  1.2118
  179SLPC   H7S20375   2.910   6.601   3.455 -1.0132 -2.0539  1.1307
  179SLPC   C2820376   3.125   6.577   3.512 -0.1595 -0.2078 -0.2211
  179SLPC   H8R20377   3.156   6.668   3.456 -2.2848 -0.6472 -2.2841
  179SLPC   H8S20378   3.205   6.500   3.499 -0.6476 -1.2129  2.1526
  179SLPC   C2920379   3.093   6.612   3.647  0.1605 -0.5371  0.3565
  179SLPC   H9R20380   3.053   6.715   3.646 -0.8626 -0.9101  1.0981
  179SLPC  C21020381   3.104   6.556   3.768 -0.5777  0.4322  0.3056
  179SLPC  H10R20382   3.069   6.609   3.858  0.0466  1.1041  0.1580
  179SLPC  C21120383   3.154   6.415   3.793 -0.3127 -0.3740 -0.4341
  179SLPC  H11R20384   3.196   6.365   3.703 -0.5782  0.5034 -1.0668
  179SLPC  H11S20385   3.070   6.352   3.828 -1.3281  2.1398  2.0454
  179SLPC  C21220386   3.253   6.406   3.900 -0.5684  0.0989  0.0723
  179SLPC  H12R20387   3.354   6.442   3.872  0.0467 -1.5974  0.0112
  179SLPC  C21320388   3.238   6.370   4.032  0.4221 -0.2574 -0.0671
  179SLPC  H13R20389   3.324   6.363   4.100  0.5229 -0.3700 -0.2033
  179SLPC  C21420390   3.102   6.325   4.086 -0.2150  0.7299 -0.1267
  179SLPC  H14R20391   3.034   6.397   4.035 -0.5893  0.3807 -0.1254
  179SLPC  H14S20392   3.096   6.355   4.192  1.4975  0.7903 -0.0204
  179SLPC  C21520393   3.066   6.179   4.057  0.4031 -0.1940 -0.8033
  179SLPC  H15R20394   3.092   6.159   3.951 -1.8760 -0.5123 -1.3606
  179SLPC  H15S20395   2.956   6.165   4.054  0.4863 -1.3897  0.4803
  179SLPC  C21620396   3.128   6.072   4.149 -0.6207  0.3239  0.0233
  179SLPC  H16R20397   3.233   6.103   4.130 -0.8530  0.5026 -1.0414
  179SLPC  H16S20398   3.094   5.971   4.117  0.0741  0.7932 -2.3757
  179SLPC  C21720399   3.085   6.074   4.297 -1.0348 -0.1191 -0.3987
  179SLPC  H17R20400   2.976   6.098   4.296 -0.7271  1.3376 -1.3706
  179SLPC  H17S20401   3.137   6.156   4.351  0.3025 -1.1128 -0.1166
  179SLPC  C21820402   3.110   5.940   4.375  0.4143 -0.2213  0.6215
  179SLPC  H18R20403   3.221   5.931   4.369  0.4649  0.5562  0.2184
  179SLPC  H18S20404   3.062   5.854   4.324 -1.1243  1.3040 -0.6563
  179SLPC  H18T20405   3.086   5.949   4.483  1.3909  0.6307  0.7903
  179SLPC   C3320406   2.725   6.821   2.974 -0.2481  0.1648  0.1482
  179SLPC   H3X20407   2.822   6.789   3.018 -0.3109  1.3174  1.1617
  179SLPC   H3Y20408   2.683   6.732   2.921 -3.0861 -0.5590  3.2459
  179SLPC   C3420409   2.624   6.856   3.082 -0.7522 -0.3116  0.1914
  179SLPC   H4X20410   2.527   6.893   3.042 -0.8981 -1.2307 -0.3167
  179SLPC   H4Y20411   2.663   6.947   3.134 -0.4036 -0.4343  0.1475
  179SLPC   C3520412   2.599   6.748   3.190  0.4653  0.1975 -0.7555
  179SLPC   H5X20413   2.696   6.722   3.238  1.5154  1.0620 -2.3276
  179SLPC   H5Y20414   2.523   6.791   3.259 -0.0266 -2.0004  0.1717
  179SLPC   C3620415   2.541   6.616   3.136 -0.3417  0.0875  0.8712
  179SLPC   H6X20416   2.602   6.579   3.050 -2.6869 -1.5575 -0.2167
  179SLPC   H6Y20417   2.435   6.621   3.103 -0.0507  1.3581  0.0463
  179SLPC   C3720418   2.549   6.500   3.240  0.6671 -0.0949 -0.2228
  179SLPC   H7X20419   2.657   6.484   3.263  0.7464  0.3425 -0.2756
  179SLPC   H7Y20420   2.522   6.408   3.184  1.0554  0.5372 -1.4780
  179SLPC   C3820421   2.453   6.503   3.360  0.3338 -0.0502  0.0989
  179SLPC   H8X20422   2.349   6.495   3.322  0.2182  0.3589  0.3222
  179SLPC   H8Y20423   2.459   6.605   3.402  2.1381 -0.1683  0.1821
  179SLPC   C3920424   2.477   6.404   3.474 -0.2842 -0.2200  0.1940
  179SLPC   H9X20425   2.583   6.413   3.504 -0.1943 -1.0466  0.1557
  179SLPC   H9Y20426   2.468   6.297   3.444  1.9430 -0.7361  1.1741
  179SLPC  C31020427   2.416   6.438   3.610 -0.0918  0.3306  0.9459
  179SLPC  H10X20428   2.399   6.349   3.674  1.3912 -1.5479 -1.1376
  179SLPC  H10Y20429   2.318   6.485   3.588 -0.2483 -1.0438 -1.6647
  179SLPC  C31120430   2.506   6.540   3.675  0.1453 -0.6130 -1.1195
  179SLPC  H11X20431   2.439   6.608   3.732  0.0761 -1.0221 -0.7119
  179SLPC  H11Y20432   2.549   6.612   3.602  2.4257 -0.3720  0.3879
  179SLPC  C31220433   2.618   6.484   3.762  0.0875  0.0742 -0.0978
  179SLPC  H12X20434   2.699   6.464   3.688 -1.1007 -2.7933 -0.7493
  179SLPC  H12Y20435   2.588   6.400   3.828  0.3431  0.7683  0.9115
  179SLPC  C31320436   2.668   6.592   3.860 -0.0809  0.7772  0.0166
  179SLPC  H13X20437   2.582   6.650   3.900  1.2349  2.5647  0.3847
  179SLPC  H13Y20438   2.731   6.655   3.793 -0.0283  0.1734 -0.5176
  179SLPC  C31420439   2.766   6.539   3.967  0.0718  0.4416  0.0159
  179SLPC  H14X20440   2.833   6.626   3.987  0.3267  0.6125 -1.4827
  179SLPC  H14Y20441   2.820   6.450   3.930 -0.7248 -0.1702  0.3093
  179SLPC  C31520442   2.700   6.502   4.101 -0.0422  0.4366  0.2389
  179SLPC  H15X20443   2.782   6.467   4.167  0.8761 -2.0322 -2.0320
  179SLPC  H15Y20444   2.634   6.415   4.081  1.7910 -0.7903 -0.7467
  179SLPC  C31620445   2.632   6.617   4.173  0.7677 -0.0220 -0.1510
  179SLPC  H16X20446   2.550   6.659   4.112  0.4272  1.3075  1.1789
  179SLPC  H16Y20447   2.694   6.706   4.197  0.0349  0.4310  0.0604
  179SLPC  C31720448   2.558   6.582   4.298  0.1293  0.4976  0.9731
  179SLPC  H17X20449   2.492   6.495   4.275  1.4446 -0.0511 -1.0358
  179SLPC  H17Y20450   2.478   6.656   4.319 -0.7549  0.2136 -1.1028
  179SLPC  C31820451   2.633   6.542   4.422 -0.2791 -0.4075 -0.4719
  179SLPC  H18X20452   2.579   6.579   4.512  2.1177  1.2932  0.3466
  179SLPC  H18Y20453   2.741   6.566   4.420 -0.0612 -1.1632  0.6224
  179SLPC  H18Z20454   2.625   6.431   4.431 -1.0841 -0.4268 -1.3158
  180SLPC     N20455   2.720   1.249   2.162 -0.2028 -0.8247  0.1967
  180SLPC   C1320456   2.787   1.243   2.032 -0.1768 -0.1465  0.5118
  180SLPC  H13A20457   2.764   1.161   1.966 -1.0666  0.1484  0.4393
  180SLPC  H13B20458   2.765   1.332   1.974 -0.8469  0.3561  1.5069
  180SLPC  H13C20459   2.895   1.238   2.042 -0.3689 -0.9439  2.4160
  180SLPC   C1420460   2.769   1.154   2.266  0.0695  0.4110  0.1494
  180SLPC  H14A20461   2.874   1.163   2.290  0.2299 -0.3668 -0.2574
  180SLPC  H14B20462   2.717   1.159   2.361  0.7264  2.4676  0.4489
  180SLPC  H14C20463   2.761   1.050   2.237 -1.3629  0.2225  1.0777
  180SLPC   C1520464   2.581   1.236   2.143  0.4716 -0.3427  0.2872
  180SLPC  H15A20465   2.526   1.311   2.089 -1.2357 -0.1010  2.2317
  180SLPC  H15B20466   2.558   1.137   2.106  0.4883 -0.1251 -0.3131
  180SLPC  H15C20467   2.523   1.233   2.234 -1.5698  2.0726 -0.7998
  180SLPC   C1220468   2.749   1.389   2.219 -0.8087 -0.0839  0.8631
  180SLPC  H12A20469   2.724   1.461   2.142  0.3397 -0.9393 -0.3462
  180SLPC  H12B20470   2.856   1.388   2.230 -0.9947 -0.4480  3.3083
  180SLPC   C1120471   2.695   1.425   2.361  0.0452 -0.5038 -0.3128
  180SLPC  H11A20472   2.748   1.519   2.387 -0.3690  0.1046 -1.5811
  180SLPC  H11B20473   2.716   1.349   2.439 -0.3570 -0.6774 -0.3704
  180SLPC     P20474   2.477   1.564   2.298 -0.2329 -0.1827  0.3467
  180SLPC   O1320475   2.573   1.640   2.210 -0.3643  0.2731  0.2563
  180SLPC   O1420476   2.351   1.515   2.228 -0.0882 -0.1227 -0.7674
  180SLPC   O1220477   2.554   1.439   2.361  0.2957  0.0611 -0.0397
  180SLPC   O1120478   2.456   1.644   2.434 -0.2993  0.0207  0.1663
  180SLPC    C120479   2.349   1.600   2.523 -0.4719 -0.3471 -0.0658
  180SLPC    HA20480   2.278   1.685   2.516 -0.2972 -0.1276  0.7557
  180SLPC    HB20481   2.303   1.503   2.491 -2.8485  0.4733  0.6187
  180SLPC    C220482   2.394   1.585   2.677  0.1255 -0.0393 -0.1905
  180SLPC    HS20483   2.477   1.655   2.700  0.1219 -0.1823  0.2750
  180SLPC   O2120484   2.436   1.445   2.700  0.1899 -0.1012 -0.5098
  180SLPC   C2120485   2.560   1.431   2.735 -0.2748 -0.1187 -0.0027
  180SLPC   O2220486   2.632   1.517   2.782  0.4491  0.3586  0.1389
  180SLPC   C2220487   2.592   1.277   2.734 -0.8804 -0.0894 -0.0878
  180SLPC   H2R20488   2.540   1.230   2.648  0.0604 -0.3783 -0.5049
  180SLPC   H2S20489   2.701   1.275   2.712 -0.2314  2.1471  2.4039
  180SLPC    C320490   2.287   1.620   2.782  0.7423  0.7232  0.6286
  180SLPC    HX20491   2.215   1.536   2.797 -0.1721  0.7243 -2.8565
  180SLPC    HY20492   2.221   1.703   2.749 -0.6962 -0.3427  0.6894
  180SLPC   O3120493   2.344   1.661   2.906  0.0616  0.5569  0.0745
  180SLPC   C3120494   2.383   1.782   2.914  0.1039 -0.6708  0.2704
  180SLPC   O3220495   2.393   1.854   2.815  0.7052  0.5840  0.0486
  180SLPC   C3220496   2.445   1.813   3.049 -0.1185  0.5665  0.1468
  180SLPC   H2X20497   2.375   1.884   3.097 -1.5115 -0.6151 -0.0761
  180SLPC   H2Y20498   2.537   1.873   3.030 -1.3767  2.5586  0.1521
  180SLPC   C2320499   2.558   1.211   2.872 -0.6851  0.3269 -0.7306
  180SLPC   H3R20500   2.448   1.206   2.886 -1.0216  0.7248 -2.8464
  180SLPC   H3S20501   2.597   1.284   2.946  2.4937 -0.4953 -1.4337
  180SLPC   C2420502   2.608   1.065   2.886  0.2001 -0.0162  0.2187
  180SLPC   H4R20503   2.717   1.069   2.907 -0.0992  0.4557  1.7907
  180SLPC   H4S20504   2.592   1.018   2.787  1.1305  0.0382  0.0295
  180SLPC   C2520505   2.547   0.980   2.993  0.1960  0.3731  0.1874
  180SLPC   H5R20506   2.589   0.878   3.005 -1.1658 -0.3378 -0.6907
  180SLPC   H5S20507   2.442   0.971   2.957  0.7016 -1.5835 -0.9409
  180SLPC   C2620508   2.560   1.048   3.128  0.3594  0.3370  0.6500
  180SLPC   H6R20509   2.518   1.150   3.133  2.7949  1.5136 -0.9487
  180SLPC   H6S20510   2.670   1.054   3.141  0.8717 -0.2712 -2.6045
  180SLPC   C2720511   2.507   0.965   3.241  0.0504  0.1611 -0.0338
  180SLPC   H7R20512   2.532   0.859   3.219 -1.9843 -0.1856 -0.8484
  180SLPC   H7S20513   2.397   0.977   3.239  0.1603  1.3042 -0.6083
  180SLPC   C2820514   2.567   1.003   3.379  0.0568 -0.5052 -0.6292
  180SLPC   H8R20515   2.577   1.110   3.406 -0.4540 -1.2857  3.2884
  180SLPC   H8S20516   2.674   0.972   3.380  0.0307 -0.6241 -1.1418
  180SLPC   C2920517   2.490   0.935   3.488  0.6348  0.2834 -0.4516
  180SLPC   H9R20518   2.439   1.009   3.552  0.4070  0.7029 -1.1041
  180SLPC  C21020519   2.486   0.802   3.525  0.2241 -0.1773  0.5002
  180SLPC  H10R20520   2.430   0.771   3.614  1.1045 -0.9717  0.8045
  180SLPC  C21120521   2.549   0.692   3.442 -0.1403  0.6529 -0.2874
  180SLPC  H11R20522   2.600   0.743   3.358 -0.9499  0.1148 -1.1324
  180SLPC  H11S20523   2.468   0.634   3.392 -0.2166  2.2035 -2.0505
  180SLPC  C21220524   2.638   0.603   3.525 -0.2941 -0.2501  0.1436
  180SLPC  H12R20525   2.747   0.619   3.518  0.2813 -2.8526  1.7251
  180SLPC  C21320526   2.602   0.502   3.603 -0.1203  0.3903  0.1776
  180SLPC  H13R20527   2.677   0.469   3.676  0.5132  2.4102  0.4826
  180SLPC  C21420528   2.466   0.452   3.629  0.4041  0.5179 -0.0390
  180SLPC  H14R20529   2.397   0.515   3.569  1.1275  2.1002  0.7555
  180SLPC  H14S20530   2.452   0.466   3.738  2.0759  2.2171  0.0070
  180SLPC  C21520531   2.464   0.302   3.587  0.6557 -0.0843  0.2163
  180SLPC  H15R20532   2.537   0.245   3.649  2.7191 -1.1593 -2.9608
  180SLPC  H15S20533   2.483   0.303   3.478 -1.6630 -1.6002 -0.2762
  180SLPC  C21620534   2.338   0.223   3.628  0.2995 -0.2171  0.6673
  180SLPC  H16R20535   2.259   0.257   3.557  2.4371  0.5196 -1.5127
  180SLPC  H16S20536   2.294   0.256   3.724 -1.9113 -2.7812  0.6395
  180SLPC  C21720537   2.344   0.060   3.641 -0.3984 -0.4645 -0.0205
  180SLPC  H17R20538   2.398   0.029   3.734  0.4037 -1.3112 -0.7458
  180SLPC  H17S20539   2.402   0.010   3.561  1.0403 -0.7713  1.1494
  180SLPC  C21820540   2.210   0.001   3.632  0.0930 -0.1613  0.7175
  180SLPC  H18R20541   2.171   0.012   3.529  1.1357 -0.0855  0.3231
  180SLPC  H18S20542   2.150   0.051   3.711 -0.1572  1.0259 -0.1997
  180SLPC  H18T20543   2.207  -0.108   3.654 -0.1735 -0.6530 -1.5792
  180SLPC   C3320544   2.487   1.694   3.143 -0.4078 -0.4380 -0.7465
  180SLPC   H3X20545   2.538   1.616   3.083 -1.8359 -0.2761 -2.2529
  180SLPC   H3Y20546   2.403   1.640   3.192  0.6915 -0.2065  1.5184
  180SLPC   C3420547   2.581   1.744   3.251  0.8901  0.5625 -0.0291
  180SLPC   H4X20548   2.557   1.846   3.286 -0.6198 -0.2378  1.3891
  180SLPC   H4Y20549   2.683   1.757   3.207 -0.5000 -0.5159 -4.0755
  180SLPC   C3520550   2.577   1.651   3.370 -1.1858 -0.4007 -0.0785
  180SLPC   H5X20551   2.590   1.546   3.338  0.2530 -0.4827  0.7203
  180SLPC   H5Y20552   2.474   1.645   3.413 -2.2883  2.5317 -1.9909
  180SLPC   C3620553   2.684   1.673   3.480  0.0903 -0.0075  0.2948
  180SLPC   H6X20554   2.783   1.684   3.431 -0.2951  0.8891 -0.3204
  180SLPC   H6Y20555   2.673   1.583   3.543 -0.9892  0.5236  0.9074
  180SLPC   C3720556   2.646   1.806   3.544 -0.1539  0.4169 -0.6614
  180SLPC   H7X20557   2.540   1.792   3.575 -0.1854  2.0105  0.0411
  180SLPC   H7Y20558   2.655   1.893   3.476  0.2348  1.9534  1.2718
  180SLPC   C3820559   2.737   1.832   3.669  0.2730  0.2410 -0.3381
  180SLPC   H8X20560   2.735   1.941   3.691 -0.8057  0.5131 -1.6426
  180SLPC   H8Y20561   2.843   1.816   3.640  0.6533  1.5502  0.2530
  180SLPC   C3920562   2.709   1.741   3.789  0.6230  0.3880  0.1761
  180SLPC   H9X20563   2.743   1.637   3.767  2.0614  1.4389 -3.2999
  180SLPC   H9Y20564   2.601   1.729   3.814  0.1451 -1.5239 -2.4195
  180SLPC  C31020565   2.769   1.793   3.918 -0.2508  0.5345  0.0442
  180SLPC  H10X20566   2.732   1.897   3.934 -0.5217  0.6138 -1.0072
  180SLPC  H10Y20567   2.879   1.798   3.926 -0.3760  3.4190  1.6927
  180SLPC  C31120568   2.727   1.698   4.038 -0.0064 -0.0651  0.5705
  180SLPC  H11X20569   2.691   1.606   3.987  1.8380  0.4497 -1.8677
  180SLPC  H11Y20570   2.640   1.751   4.083 -0.9000  1.5704 -2.8212
  180SLPC  C31220571   2.829   1.675   4.148 -0.3557 -0.2125  0.7510
  180SLPC  H12X20572   2.857   1.768   4.202  0.0804  0.3856 -0.4650
  180SLPC  H12Y20573   2.915   1.641   4.088 -0.8724  0.1996 -0.2534
  180SLPC  C31320574   2.792   1.566   4.253  0.7758 -0.3105  0.3542
  180SLPC  H13X20575   2.872   1.583   4.329 -0.1224  1.7747  0.9122
  180SLPC  H13Y20576   2.795   1.461   4.216  0.7854  0.1759 -1.0864
  180SLPC  C31420577   2.664   1.594   4.333  0.3952  0.0464  0.0168
  180SLPC  H14X20578   2.583   1.527   4.296  0.3186  0.2661 -0.2169
  180SLPC  H14Y20579   2.624   1.696   4.314 -1.0632 -0.2664  1.2626
  180SLPC  C31520580   2.683   1.566   4.477  0.1233 -0.7442 -0.2622
  180SLPC  H15X20581   2.770   1.631   4.501  0.1347 -0.7971 -0.1628
  180SLPC  H15Y20582   2.707   1.465   4.516  1.3919 -1.0399 -1.6931
  180SLPC  C31620583   2.555   1.617   4.541 -0.5080 -0.0130 -1.2346
  180SLPC  H16X20584   2.469   1.548   4.529 -2.1758  1.9656 -1.2935
  180SLPC  H16Y20585   2.520   1.714   4.500  0.3151  1.9171  2.2237
  180SLPC  C31720586   2.575   1.642   4.693  0.3342  0.4097 -0.4943
  180SLPC  H17X20587   2.482   1.690   4.731  0.1739 -0.4043  0.1621
  180SLPC  H17Y20588   2.657   1.716   4.700 -0.7572  1.6099  0.0341
  180SLPC  C31820589   2.628   1.526   4.787  0.4898 -0.1712  0.6476
  180SLPC  H18X20590   2.568   1.434   4.772 -2.0094  1.5144 -0.2367
  180SLPC  H18Y20591   2.614   1.538   4.896 -2.2751  1.9131  0.1727
  180SLPC  H18Z20592   2.729   1.497   4.750 -0.9404 -2.2684 -1.9681
  181SLPC     N20593   0.886   6.435   1.891 -0.3045 -0.8370 -0.3332
  181SLPC   C1320594   0.896   6.290   1.906  0.5571  0.2144 -0.4587
  181SLPC  H13A20595   0.960   6.246   1.831  2.3205  1.0757  0.4565
  181SLPC  H13B20596   0.936   6.256   2.000 -0.5495  0.3294  0.0671
  181SLPC  H13C20597   0.796   6.250   1.905  1.2134 -1.6089  1.0958
  181SLPC   C1420598   0.789   6.484   1.991 -0.7928  0.0624  0.2679
  181SLPC  H14A20599   0.691   6.440   1.981 -0.5498 -0.3458 -0.3847
  181SLPC  H14B20600   0.816   6.472   2.095  0.2951 -1.9991 -0.2128
  181SLPC  H14C20601   0.787   6.590   1.970  2.0530  0.1572  0.2054
  181SLPC   C1520602   0.832   6.463   1.748 -0.3186  0.8560 -0.9519
  181SLPC  H15A20603   0.904   6.433   1.674 -0.7704 -0.8190 -0.7387
  181SLPC  H15B20604   0.742   6.405   1.736 -1.0166  1.7391 -0.2001
  181SLPC  H15C20605   0.813   6.569   1.738  0.7089  1.2405  0.7593
  181SLPC   C1220606   1.025   6.503   1.903  0.1520  0.1538 -0.3838
  181SLPC  H12A20607   1.076   6.491   1.997  1.8221 -0.0098 -1.2692
  181SLPC  H12B20608   1.010   6.610   1.901 -2.0097 -0.0743  0.2390
  181SLPC   C1120609   1.133   6.461   1.798  0.1921  0.7457 -0.2215
  181SLPC  H11A20610   1.217   6.534   1.804  1.4387 -0.5224 -1.5218
  181SLPC  H11B20611   1.092   6.487   1.698  0.3321  2.1714  0.0724
  181SLPC     P20612   1.255   6.272   1.930 -0.5254 -0.1058 -0.3410
  181SLPC   O1320613   1.211   6.132   1.965  0.0942 -0.0030 -0.1378
  181SLPC   O1420614   1.402   6.285   1.892 -0.0368  0.0614 -0.5096
  181SLPC   O1220615   1.172   6.328   1.812 -0.5234 -0.9688  0.2353
  181SLPC   O1120616   1.229   6.367   2.055  0.7496 -0.0769  0.0738
  181SLPC    C120617   1.329   6.446   2.116 -0.0922  0.4141  0.2979
  181SLPC    HA20618   1.396   6.491   2.040  0.1606 -1.1089 -0.4289
  181SLPC    HB20619   1.281   6.530   2.170 -0.6728 -0.4053  1.0911
  181SLPC    C220620   1.411   6.369   2.233  0.1218  0.1682  0.4305
  181SLPC    HS20621   1.462   6.285   2.181  1.6044  0.3548  1.5124
  181SLPC   O2120622   1.303   6.314   2.323 -0.7860  0.0438 -0.1630
  181SLPC   C2120623   1.346   6.217   2.408 -0.3817 -0.2778 -1.2433
  181SLPC   O2220624   1.442   6.142   2.395  0.6389  0.5744  0.1050
  181SLPC   C2220625   1.239   6.198   2.514 -0.3147  0.3378 -0.6551
  181SLPC   H2R20626   1.230   6.295   2.567  2.7244  1.2331 -1.5619
  181SLPC   H2S20627   1.140   6.175   2.468 -0.3673  1.5252 -1.1532
  181SLPC    C320628   1.527   6.452   2.302  0.1276 -0.1367  0.8024
  181SLPC    HX20629   1.586   6.481   2.213 -0.2856  0.3308  0.6752
  181SLPC    HY20630   1.592   6.387   2.365  0.0642 -1.4004 -0.3996
  181SLPC   O3120631   1.474   6.577   2.360  0.0018 -0.1247  0.1042
  181SLPC   C3120632   1.411   6.567   2.479 -0.6063 -0.1032 -0.2147
  181SLPC   O3220633   1.408   6.464   2.543 -0.3209 -0.4417 -0.0487
  181SLPC   C3220634   1.377   6.712   2.521  0.5680 -0.3077 -0.0920
  181SLPC   H2X20635   1.273   6.739   2.491  0.6837  1.8405  1.2207
  181SLPC   H2Y20636   1.452   6.776   2.468 -0.4931  0.7604 -0.3533
  181SLPC   C2320637   1.255   6.087   2.625  0.1166 -0.4786 -0.0754
  181SLPC   H3R20638   1.355   6.102   2.670 -0.2276  2.5380 -0.1174
  181SLPC   H3S20639   1.260   5.984   2.583  1.4208 -0.8594  0.9897
  181SLPC   C2420640   1.140   6.087   2.735  0.1369 -1.0747  0.2159
  181SLPC   H4R20641   1.039   6.111   2.697  0.1203 -0.5460  0.5808
  181SLPC   H4S20642   1.164   6.178   2.794  2.4663 -0.1139 -2.0290
  181SLPC   C2520643   1.146   5.956   2.824  0.8364  0.0830  0.3077
  181SLPC   H5R20644   1.123   5.876   2.751 -1.0066  1.7003 -0.9936
  181SLPC   H5S20645   1.059   5.955   2.893  0.7200 -0.0354  0.1592
  181SLPC   C2620646   1.271   5.929   2.910  0.4310 -0.1955  0.5350
  181SLPC   H6R20647   1.279   6.007   2.989  1.4310  1.1394 -0.8129
  181SLPC   H6S20648   1.357   5.931   2.840  1.7226  1.3695  2.0798
  181SLPC   C2720649   1.261   5.798   2.980  0.0456 -0.4672 -0.1623
  181SLPC   H7R20650   1.365   5.783   3.017 -0.2700 -0.8076  0.6151
  181SLPC   H7S20651   1.239   5.711   2.915 -0.8944 -1.9438  2.0017
  181SLPC   C2820652   1.176   5.785   3.107  0.7412 -0.3150 -0.0690
  181SLPC   H8R20653   1.068   5.787   3.080  0.9260 -1.2465 -0.9425
  181SLPC   H8S20654   1.204   5.861   3.183  0.5773 -2.0677  1.8352
  181SLPC   C2920655   1.184   5.642   3.168  0.0303 -0.2094  0.4611
  181SLPC   H9R20656   1.146   5.558   3.108  0.5574  0.6457 -1.1216
  181SLPC  C21020657   1.229   5.626   3.291  0.3390  0.9013  0.4817
  181SLPC  H10R20658   1.231   5.521   3.325 -0.2186  1.1313  1.2486
  181SLPC  C21120659   1.276   5.723   3.394  0.0386 -0.6540 -0.1738
  181SLPC  H11R20660   1.192   5.774   3.446 -0.2391 -0.9451 -0.3314
  181SLPC  H11S20661   1.323   5.812   3.347 -0.7340 -0.1877 -0.0758
  181SLPC  C21220662   1.375   5.665   3.493  0.3622 -0.1413 -0.0214
  181SLPC  H12R20663   1.471   5.648   3.442  1.2463 -0.4118  1.6653
  181SLPC  C21320664   1.363   5.643   3.622 -0.0560  0.0672 -0.2139
  181SLPC  H13R20665   1.443   5.597   3.683  0.9403  0.8365 -0.9040
  181SLPC  C21420666   1.231   5.667   3.697  0.4127  0.4656  0.1503
  181SLPC  H14R20667   1.152   5.614   3.640 -0.0297  0.7444  0.5050
  181SLPC  H14S20668   1.215   5.776   3.711  2.1924  0.5952  1.6029
  181SLPC  C21520669   1.234   5.596   3.838 -0.1560  0.7945  0.4590
  181SLPC  H15R20670   1.329   5.632   3.882 -0.1583  1.9494 -0.4319
  181SLPC  H15S20671   1.242   5.485   3.834 -0.8041  0.7689 -0.7751
  181SLPC  C21620672   1.116   5.639   3.930 -0.0527  0.3017  0.1055
  181SLPC  H16R20673   1.018   5.604   3.891 -0.2859  0.2467  0.7302
  181SLPC  H16S20674   1.116   5.749   3.922  0.9476  0.2639 -0.7333
  181SLPC  C21720675   1.125   5.615   4.080  0.6330  0.4097 -0.2545
  181SLPC  H17R20676   1.131   5.506   4.100  0.5627  0.7117  1.6020
  181SLPC  H17S20677   1.027   5.644   4.124 -1.8256 -3.4789 -2.5672
  181SLPC  C21820678   1.232   5.682   4.162 -0.0061  0.5599 -0.3565
  181SLPC  H18R20679   1.208   5.788   4.188  1.0389 -0.1187  4.1876
  181SLPC  H18S20680   1.332   5.669   4.115  0.1748 -1.3383  0.4524
  181SLPC  H18T20681   1.234   5.628   4.259  1.8582 -1.3800 -1.4001
  181SLPC   C3320682   1.377   6.730   2.674  0.0875 -0.8390 -0.5906
  181SLPC   H3X20683   1.316   6.647   2.717  0.5788 -1.0537 -0.3018
  181SLPC   H3Y20684   1.335   6.831   2.690  2.4587  0.5446 -2.4258
  181SLPC   C3420685   1.517   6.725   2.731  0.2026  0.8749  0.3950
  181SLPC   H4X20686   1.579   6.813   2.702 -0.8559  0.9369 -1.8651
  181SLPC   H4Y20687   1.569   6.633   2.694 -1.6032 -0.0716  0.1272
  181SLPC   C3520688   1.506   6.692   2.875 -0.0665 -0.7235 -0.5646
  181SLPC   H5X20689   1.471   6.589   2.898  2.7405 -1.4658  0.8251
  181SLPC   H5Y20690   1.426   6.758   2.915 -0.5743 -0.2508 -2.2857
  181SLPC   C3620691   1.628   6.703   2.961  0.2232  0.4975 -0.6000
  181SLPC   H6X20692   1.702   6.639   2.908  0.2056 -0.2870  0.2983
  181SLPC   H6Y20693   1.603   6.665   3.062  2.6005  0.1518 -0.0936
  181SLPC   C3720694   1.670   6.848   2.970 -0.3472  0.1374  0.1924
  181SLPC   H7X20695   1.578   6.905   2.946 -0.7375 -1.3373 -2.2234
  181SLPC   H7Y20696   1.748   6.881   2.898 -0.4019  0.2300  0.1760
  181SLPC   C3820697   1.721   6.882   3.120  0.3158  0.4734  0.2989
  181SLPC   H8X20698   1.814   6.822   3.128  0.0991  0.0556 -0.2010
  181SLPC   H8Y20699   1.647   6.837   3.190 -0.0701  0.4840 -0.0993
  181SLPC   C3920700   1.741   7.038   3.146 -0.5083  0.7169  0.5245
  181SLPC   H9X20701   1.642   7.087   3.154 -0.5260  0.4918  1.9126
  181SLPC   H9Y20702   1.803   7.074   3.062 -1.9887  1.6839 -0.1996
  181SLPC  C31020703   1.810   7.065   3.284 -0.3188 -0.3729  0.0890
  181SLPC  H10X20704   1.898   6.997   3.284 -1.2752 -1.6545  0.9356
  181SLPC  H10Y20705   1.751   7.019   3.366 -0.0900  0.3176  0.6452
  181SLPC  C31120706   1.866   7.204   3.314  0.1684 -0.0378  0.3864
  181SLPC  H11X20707   1.783   7.275   3.334  0.5230  0.1960  1.0805
  181SLPC  H11Y20708   1.923   7.231   3.223  1.0979 -0.8952  0.6996
  181SLPC  C31220709   1.958   7.195   3.439 -0.0583  0.5563  0.0708
  181SLPC  H12X20710   2.057   7.244   3.431  0.2172  0.3754  1.8648
  181SLPC  H12Y20711   1.987   7.088   3.442  1.4559  0.9226 -0.6078
  181SLPC  C31320712   1.889   7.231   3.570 -0.6749 -0.2091  0.4494
  181SLPC  H13X20713   1.805   7.163   3.597  0.7252 -1.8575  0.9122
  181SLPC  H13Y20714   1.866   7.338   3.555  2.8944  0.5397 -0.7488
  181SLPC  C31420715   1.972   7.223   3.701  0.0777 -0.6100  0.7020
  181SLPC  H14X20716   2.067   7.279   3.694 -0.1686 -0.3328 -0.8052
  181SLPC  H14Y20717   1.989   7.116   3.725 -0.0589 -0.8749 -0.3085
  181SLPC  C31520718   1.907   7.307   3.814 -0.4899 -0.2853 -0.4478
  181SLPC  H15X20719   1.802   7.271   3.822 -0.6321 -0.5220 -2.7370
  181SLPC  H15Y20720   1.898   7.415   3.792 -1.4413 -0.7352 -2.5686
  181SLPC  C31620721   1.990   7.310   3.943 -0.1783 -0.2702  0.5878
  181SLPC  H16X20722   2.074   7.382   3.940 -0.9427  0.6124 -1.0729
  181SLPC  H16Y20723   2.028   7.208   3.968 -0.2292 -1.1938 -2.5998
  181SLPC  C31720724   1.897   7.346   4.058  0.0599  0.5346  0.5159
  181SLPC  H17X20725   1.802   7.289   4.048 -0.6527  1.7282  0.1784
  181SLPC  H17Y20726   1.874   7.455   4.055 -0.4895  0.4321  0.8354
  181SLPC  C31820727   1.958   7.304   4.184 -0.7949  0.0529 -0.1551
  181SLPC  H18X20728   1.894   7.326   4.272 -0.3407 -0.2354  0.2521
  181SLPC  H18Y20729   2.055   7.359   4.193 -0.0274 -1.2496 -0.2568
  181SLPC  H18Z20730   1.981   7.196   4.176 -1.4720 -0.1206  0.2001
  182SLPC     N20731   2.512   5.695   2.094 -0.4659 -0.2950  0.0765
  182SLPC   C1320732   2.665   5.705   2.072  0.2153 -0.1466  0.2910
  182SLPC  H13A20733   2.701   5.618   2.018  1.6108 -0.1394  1.1562
  182SLPC  H13B20734   2.684   5.794   2.014  0.9817 -2.4020 -3.1979
  182SLPC  H13C20735   2.720   5.710   2.165  0.4254 -1.9444  0.3063
  182SLPC   C1420736   2.448   5.685   1.961 -0.2888  0.0346 -0.3101
  182SLPC  H14A20737   2.450   5.581   1.932 -0.1086 -0.8168  2.4300
  182SLPC  H14B20738   2.341   5.698   1.971 -0.0036  2.9164 -0.1931
  182SLPC  H14C20739   2.492   5.741   1.881 -3.2508  0.9165 -1.4572
  182SLPC   C1520740   2.471   5.824   2.167 -0.4046 -0.1557  0.7648
  182SLPC  H15A20741   2.520   5.830   2.263  2.1372  0.6641 -0.4826
  182SLPC  H15B20742   2.487   5.918   2.115  1.8257  0.7007  2.8065
  182SLPC  H15C20743   2.364   5.826   2.183 -0.3816  1.4789  0.9131
  182SLPC   C1220744   2.485   5.575   2.183  0.5845 -1.3966  0.2780
  182SLPC  H12A20745   2.530   5.489   2.135  1.4247 -2.0022  2.0709
  182SLPC  H12B20746   2.378   5.563   2.180  0.3927  0.2840 -1.0817
  182SLPC   C1120747   2.539   5.563   2.326  0.2997 -0.1042  0.0919
  182SLPC  H11A20748   2.484   5.485   2.382 -1.3862  0.0906 -1.2226
  182SLPC  H11B20749   2.531   5.663   2.374 -1.5334 -1.0689  1.9581
  182SLPC     P20750   2.737   5.388   2.329 -0.1871  0.3134  0.0076
  182SLPC   O1320751   2.660   5.310   2.229  0.3118  0.4888  0.1209
  182SLPC   O1420752   2.885   5.381   2.315 -0.4874  0.0750 -0.4196
  182SLPC   O1220753   2.679   5.530   2.337  0.0911  0.2472  0.0967
  182SLPC   O1120754   2.693   5.331   2.472  0.2350 -0.2121  0.1435
  182SLPC    C120755   2.720   5.413   2.589 -0.2807 -0.2159 -0.3181
  182SLPC    HA20756   2.824   5.453   2.592 -0.8342  1.3827 -1.3426
  182SLPC    HB20757   2.659   5.505   2.602  1.4700  0.9532 -0.0064
  182SLPC    C220758   2.713   5.329   2.717  0.2175 -0.1539 -0.0147
  182SLPC    HS20759   2.738   5.405   2.794 -1.9341  0.6662 -0.0509
  182SLPC   O2120760   2.803   5.219   2.700 -0.1204  0.8768 -0.1203
  182SLPC   C2120761   2.909   5.211   2.783  0.7840 -0.3824 -0.2591
  182SLPC   O2220762   2.911   5.269   2.890  0.5531  0.1475 -0.7673
  182SLPC   C2220763   3.024   5.129   2.725 -0.0706 -0.5609 -0.2236
  182SLPC   H2R20764   3.041   5.153   2.618  1.5218  0.4873  0.2227
  182SLPC   H2S20765   3.117   5.158   2.778 -0.5484 -1.3970  1.1256
  182SLPC    C320766   2.567   5.279   2.755 -0.5297  0.6674  0.3597
  182SLPC    HX20767   2.524   5.217   2.673  0.4951  0.4016  0.0081
  182SLPC    HY20768   2.494   5.363   2.764 -2.7009 -1.1595  0.5770
  182SLPC   O3120769   2.566   5.197   2.879  0.3743  0.0762  0.8555
  182SLPC   C3120770   2.573   5.268   2.992  0.3449  0.8065 -0.0345
  182SLPC   O3220771   2.548   5.385   3.001 -0.4870  0.3970 -0.2091
  182SLPC   C3220772   2.588   5.169   3.115 -0.5558 -0.0275  0.2522
  182SLPC   H2X20773   2.665   5.094   3.088 -0.3732 -0.0910  0.9378
  182SLPC   H2Y20774   2.490   5.117   3.127  0.3729 -1.7328  0.8357
  182SLPC   C2320775   2.995   4.975   2.744  0.4946  0.1197 -0.2568
  182SLPC   H3R20776   3.076   4.920   2.691  1.0055  0.5840  0.0337
  182SLPC   H3S20777   2.903   4.940   2.693  1.6674 -0.2396 -2.2205
  182SLPC   C2420778   3.001   4.945   2.894 -0.2202  0.1309  0.1206
  182SLPC   H4R20779   2.983   4.836   2.900  1.3042 -0.0736  1.8491
  182SLPC   H4S20780   2.923   5.000   2.951 -1.1689 -0.7809 -0.2633
  182SLPC   C2520781   3.146   4.946   2.955  0.7301  0.0252 -0.0190
  182SLPC   H5R20782   3.184   5.047   2.982 -0.0903  0.2374  0.3848
  182SLPC   H5S20783   3.220   4.901   2.886  1.3385  1.7794 -0.5707
  182SLPC   C2620784   3.155   4.860   3.090  0.9149  0.4269 -0.0029
  182SLPC   H6R20785   3.256   4.848   3.135 -0.0690  1.9390  2.9232
  182SLPC   H6S20786   3.104   4.763   3.072  0.4330  1.0329 -2.2073
  182SLPC   C2720787   3.082   4.937   3.201 -0.0995  0.0609  0.0711
  182SLPC   H7R20788   2.979   4.946   3.162 -0.1592 -1.4390 -0.1809
  182SLPC   H7S20789   3.114   5.043   3.208  0.2404  0.0103 -0.6629
  182SLPC   C2820790   3.091   4.871   3.338 -0.0795  0.4103 -0.2218
  182SLPC   H8R20791   3.036   4.934   3.411 -0.3765 -2.0220  1.7858
  182SLPC   H8S20792   3.197   4.874   3.372  0.5720 -0.7597 -2.0083
  182SLPC   C2920793   3.029   4.735   3.345  0.3288 -0.2646 -0.4153
  182SLPC   H9R20794   2.949   4.719   3.272 -1.5862  2.5284  0.8699
  182SLPC  C21020795   3.064   4.636   3.432  0.3730 -1.0657 -0.9647
  182SLPC  H10R20796   3.006   4.543   3.422 -1.0307 -0.1670 -1.4844
  182SLPC  C21120797   3.175   4.633   3.531  0.4492  0.1818  0.0438
  182SLPC  H11R20798   3.159   4.721   3.596  2.1171  0.1366  0.5500
  182SLPC  H11S20799   3.267   4.634   3.469 -0.6498 -0.0901 -1.6940
  182SLPC  C21220800   3.167   4.506   3.619  0.2302 -0.5052 -0.1256
  182SLPC  H12R20801   3.229   4.419   3.592  0.7214 -0.6924  1.4829
  182SLPC  C21320802   3.081   4.491   3.726  0.1246  0.1634  0.5912
  182SLPC  H13R20803   3.094   4.397   3.782  1.7562  0.0130 -0.0045
  182SLPC  C21420804   2.990   4.594   3.797 -0.3453 -1.1754 -0.3620
  182SLPC  H14R20805   2.884   4.564   3.781 -0.7486  0.3119 -0.6337
  182SLPC  H14S20806   2.987   4.692   3.745  2.1469 -1.3578 -0.9475
  182SLPC  C21520807   3.034   4.616   3.946  0.3579  0.7446 -0.1435
  182SLPC  H15R20808   3.038   4.515   3.991  0.9076  1.0160  0.4275
  182SLPC  H15S20809   2.952   4.675   3.993 -0.9560 -0.6915 -0.5489
  182SLPC  C21620810   3.164   4.679   3.966  0.3746  0.5460  0.6412
  182SLPC  H16R20811   3.152   4.786   3.935  1.5608  0.5617  0.1864
  182SLPC  H16S20812   3.242   4.637   3.900  0.3346 -3.6687  2.9777
  182SLPC  C21720813   3.209   4.680   4.113 -0.2041  0.7273 -0.1158
  182SLPC  H17R20814   3.207   4.572   4.138 -0.4001  1.0432  1.2653
  182SLPC  H17S20815   3.131   4.720   4.181 -1.1740  0.3629 -0.9762
  182SLPC  C21820816   3.348   4.737   4.145  0.1365 -1.0466 -0.4220
  182SLPC  H18R20817   3.364   4.767   4.250 -0.0876  1.9738 -1.1697
  182SLPC  H18S20818   3.352   4.831   4.085 -3.3356 -0.8210 -0.5030
  182SLPC  H18T20819   3.433   4.677   4.107  0.6550 -1.1346  0.8272
  182SLPC   C3320820   2.629   5.250   3.238 -0.1849  0.1064  0.0635
  182SLPC   H3X20821   2.557   5.322   3.282 -0.1636  0.7082 -0.8571
  182SLPC   H3Y20822   2.725   5.299   3.212  2.6012 -4.5931  0.4845
  182SLPC   C3420823   2.660   5.151   3.355 -0.5593 -0.6956  0.1572
  182SLPC   H4X20824   2.744   5.093   3.311 -1.1978 -0.4337 -1.4786
  182SLPC   H4Y20825   2.569   5.089   3.370 -2.1174  1.5293  0.4546
  182SLPC   C3520826   2.694   5.228   3.483  0.0160  1.2357 -0.1863
  182SLPC   H5X20827   2.605   5.289   3.509 -0.0054  0.9272  0.4914
  182SLPC   H5Y20828   2.776   5.291   3.443 -1.1781  1.7064 -2.0298
  182SLPC   C3620829   2.729   5.137   3.592 -0.5473  0.0085 -0.4938
  182SLPC   H6X20830   2.820   5.081   3.563 -0.0924  0.4480  0.0509
  182SLPC   H6Y20831   2.650   5.062   3.614 -0.8480  0.2373 -0.7787
  182SLPC   C3720832   2.740   5.230   3.725  0.1693  0.5473 -1.2830
  182SLPC   H7X20833   2.638   5.273   3.724 -0.0727  0.0890  0.4860
  182SLPC   H7Y20834   2.825   5.300   3.711  0.5131  0.0130 -1.9134
  182SLPC   C3820835   2.753   5.152   3.864  0.5326  0.1091  0.6720
  182SLPC   H8X20836   2.666   5.083   3.873  0.9817 -0.4289  0.9132
  182SLPC   H8Y20837   2.734   5.234   3.936 -0.5606 -0.6129  1.2325
  182SLPC   C3920838   2.887   5.085   3.900  0.4105  0.0268  0.0127
  182SLPC   H9X20839   2.962   5.167   3.903 -0.1704  0.6883 -2.0076
  182SLPC   H9Y20840   2.908   5.008   3.822 -1.1417 -0.8304  0.3995
  182SLPC  C31020841   2.874   5.014   4.039  0.0935  0.3136  0.5074
  182SLPC  H10X20842   2.973   4.992   4.084 -0.2484  1.6109  1.9676
  182SLPC  H10Y20843   2.820   4.917   4.024 -1.7291  1.0233  2.0644
  182SLPC  C31120844   2.791   5.089   4.148 -0.0580  0.1164  0.3513
  182SLPC  H11X20845   2.688   5.104   4.111  0.1559 -1.6619 -1.1409
  182SLPC  H11Y20846   2.829   5.192   4.166 -1.7367  0.8709 -0.1973
  182SLPC  C31220847   2.789   5.013   4.281  0.2294  0.3178 -1.0243
  182SLPC  H12X20848   2.890   5.030   4.323  0.4250 -2.6511 -0.0332
  182SLPC  H12Y20849   2.776   4.903   4.270 -0.8009  0.2851  0.2959
  182SLPC  C31320850   2.674   5.061   4.375  0.0802  0.7666 -0.0031
  182SLPC  H13X20851   2.582   5.081   4.316 -0.4214 -1.1270  0.0595
  182SLPC  H13Y20852   2.712   5.154   4.422  2.2006  0.2645 -0.6037
  182SLPC  C31420853   2.639   4.950   4.466 -0.1728  0.2466 -0.5347
  182SLPC  H14X20854   2.614   4.852   4.421 -1.5842 -0.2845  1.2598
  182SLPC  H14Y20855   2.546   4.983   4.518  0.8966  2.0675  0.3152
  182SLPC  C31520856   2.751   4.921   4.566 -0.0185 -0.1087 -0.1721
  182SLPC  H15X20857   2.775   5.018   4.615  0.8299 -1.1333  1.5360
  182SLPC  H15Y20858   2.842   4.880   4.518 -0.7235 -2.8501  0.6233
  182SLPC  C31620859   2.710   4.830   4.685  0.6904 -0.1440 -0.1374
  182SLPC  H16X20860   2.676   4.732   4.646 -2.8360  1.4175 -1.4639
  182SLPC  H16Y20861   2.620   4.866   4.739 -0.4564 -3.9766  0.7829
  182SLPC  C31720862   2.816   4.813   4.790  0.0407 -0.3568 -0.0616
  182SLPC  H17X20863   2.840   4.913   4.831  0.1908 -0.1876 -0.5461
  182SLPC  H17Y20864   2.904   4.778   4.730 -0.9875  1.6579 -2.9942
  182SLPC  C31820865   2.773   4.706   4.902  0.9517 -0.6980  0.5199
  182SLPC  H18X20866   2.687   4.747   4.961  1.8866 -0.5916  1.8563
  182SLPC  H18Y20867   2.859   4.680   4.967 -0.0949 -3.7947  0.8410
  182SLPC  H18Z20868   2.755   4.606   4.857  2.0432 -1.1032  0.9695
  183SLPC     N20869   6.763   0.768   1.800 -0.4540 -0.3778  0.0593
  183SLPC   C1320870   6.901   0.839   1.813  0.3284  0.5419 -0.3388
  183SLPC  H13A20871   6.955   0.851   1.720  1.2152 -1.7468 -0.1848
  183SLPC  H13B20872   6.883   0.937   1.854 -0.1727  0.6202 -0.7424
  183SLPC  H13C20873   6.961   0.791   1.889 -0.3339  0.2362  0.0002
  183SLPC   C1420874   6.786   0.653   1.713 -0.5645 -0.8628 -0.2861
  183SLPC  H14A20875   6.698   0.593   1.698 -1.1227  0.3012 -1.8856
  183SLPC  H14B20876   6.841   0.681   1.625 -3.2291 -1.2879 -2.2110
  183SLPC  H14C20877   6.848   0.583   1.768  0.6301  0.9759  0.7866
  183SLPC   C1520878   6.668   0.858   1.724 -0.2726  0.1457  0.4229
  183SLPC  H15A20879   6.713   0.930   1.658 -0.8752  1.2704  1.1960
  183SLPC  H15B20880   6.581   0.802   1.693  1.3658 -3.4714  1.7889
  183SLPC  H15C20881   6.622   0.920   1.800 -2.1304 -0.0107 -0.5273
  183SLPC   C1220882   6.708   0.722   1.941  0.3197 -0.1136  0.1674
  183SLPC  H12A20883   6.772   0.649   1.987  1.1876  0.7533  0.3693
  183SLPC  H12B20884   6.613   0.671   1.931 -0.2096  0.3692  2.3416
  183SLPC   C1120885   6.678   0.828   2.047 -0.7453 -0.0346  0.3103
  183SLPC  H11A20886   6.775   0.875   2.075 -0.8894  1.1603 -1.1151
  183SLPC  H11B20887   6.650   0.793   2.149  1.2876 -0.8184  0.6416
  183SLPC     P20888   6.430   0.913   2.013 -0.1890 -0.1495  0.2321
  183SLPC   O1320889   6.361   1.041   1.988  0.2121 -0.0288  0.1130
  183SLPC   O1420890   6.386   0.804   1.918  0.2878 -0.1480 -0.0613
  183SLPC   O1220891   6.588   0.937   1.999 -0.0924  1.2183  0.4303
  183SLPC   O1120892   6.420   0.863   2.168 -0.6117 -0.3974  0.1282
  183SLPC    C120893   6.456   0.956   2.273 -0.6074  0.8475  0.9403
  183SLPC    HA20894   6.556   1.004   2.265 -0.1622 -0.1138  0.5766
  183SLPC    HB20895   6.379   1.035   2.285  0.0437  1.6611 -0.0295
  183SLPC    C220896   6.450   0.868   2.399  0.0606  0.2805  0.1982
  183SLPC    HS20897   6.519   0.781   2.392  1.5394  1.5436 -1.9987
  183SLPC   O2120898   6.314   0.821   2.420 -0.1435  0.3506 -0.6435
  183SLPC   C2120899   6.309   0.704   2.486  0.5679 -0.7012  0.3989
  183SLPC   O2220900   6.400   0.626   2.504  1.0762 -0.5069 -1.2179
  183SLPC   C2220901   6.163   0.681   2.519  0.4256  0.6189 -0.2502
  183SLPC   H2R20902   6.115   0.774   2.556  0.4315  0.9356 -1.0083
  183SLPC   H2S20903   6.109   0.656   2.425 -0.8436 -1.6024  0.9789
  183SLPC    C320904   6.500   0.950   2.526 -0.3647  0.6135 -0.1976
  183SLPC    HX20905   6.431   1.037   2.531  0.8541  1.6929 -1.0947
  183SLPC    HY20906   6.604   0.981   2.500  0.4858 -0.0159  2.2061
  183SLPC   O3120907   6.504   0.869   2.644 -0.2124  1.4449  0.7623
  183SLPC   C3120908   6.574   0.917   2.753  0.1853 -1.1470 -0.0307
  183SLPC   O3220909   6.595   1.040   2.764  0.0006  0.2527 -0.4027
  183SLPC   C3220910   6.617   0.800   2.844 -0.3444  0.1531  0.0218
  183SLPC   H2X20911   6.719   0.762   2.818 -0.0734 -0.0218  1.2880
  183SLPC   H2Y20912   6.540   0.722   2.829 -0.7842  0.2955  1.4855
  183SLPC   C2320913   6.148   0.549   2.603 -0.0983  0.6582 -0.7594
  183SLPC   H3R20914   6.199   0.465   2.551 -1.1873 -1.1955  1.0001
  183SLPC   H3S20915   6.038   0.539   2.600 -0.0981  0.6560 -0.7488
  183SLPC   C2420916   6.197   0.561   2.747  0.4497 -0.6407 -0.3237
  183SLPC   H4R20917   6.303   0.595   2.745  0.6083 -1.0365  0.5754
  183SLPC   H4S20918   6.192   0.464   2.801  0.8656 -1.0859 -1.0630
  183SLPC   C2520919   6.115   0.667   2.817  0.8399  0.1991 -0.2184
  183SLPC   H5R20920   6.008   0.637   2.825  1.0460 -0.0656  2.2985
  183SLPC   H5S20921   6.128   0.768   2.774  0.9788  0.6753  0.9272
  183SLPC   C2620922   6.135   0.663   2.970 -0.3893  0.0057  0.1005
  183SLPC   H6R20923   6.082   0.748   3.018  2.4008  0.5932  2.4562
  183SLPC   H6S20924   6.245   0.674   2.987 -0.0231 -1.6643 -0.9102
  183SLPC   C2720925   6.085   0.538   3.030  0.9756  0.4684 -0.4204
  183SLPC   H7R20926   6.165   0.462   3.045  0.1637 -0.2966  0.1861
  183SLPC   H7S20927   6.018   0.496   2.951  0.0693  0.2791  0.4308
  183SLPC   C2820928   5.997   0.563   3.154 -0.1635  0.7379 -0.4104
  183SLPC   H8R20929   5.930   0.478   3.175  1.1281 -0.6310 -1.5558
  183SLPC   H8S20930   5.934   0.652   3.135  0.1393  1.1776  0.5943
  183SLPC   C2920931   6.088   0.602   3.270  0.0011 -0.1644  0.0920
  183SLPC   H9R20932   6.175   0.661   3.238  0.0690 -0.5333 -0.4148
  183SLPC  C21020933   6.064   0.576   3.400  0.2516  0.8303 -0.2736
  183SLPC  H10R20934   6.139   0.601   3.477 -0.2098 -1.4817  1.0461
  183SLPC  C21120935   5.944   0.504   3.455 -0.1687 -0.3952  0.4887
  183SLPC  H11R20936   5.968   0.401   3.488  2.4208  0.0390  0.1531
  183SLPC  H11S20937   5.865   0.499   3.377  0.5292  0.3317 -0.2928
  183SLPC  C21220938   5.888   0.589   3.571  0.3976 -0.0395  0.6598
  183SLPC  H12R20939   5.795   0.639   3.539  1.7865  2.0536 -0.4110
  183SLPC  C21320940   5.934   0.616   3.690 -0.3079 -0.7474  0.2185
  183SLPC  H13R20941   5.871   0.675   3.758  1.0522  2.2953 -0.9951
  183SLPC  C21420942   6.071   0.574   3.744  1.0133  0.2336  0.4731
  183SLPC  H14R20943   6.140   0.660   3.761 -0.0652  0.7730  2.4825
  183SLPC  H14S20944   6.127   0.504   3.678 -0.9973 -1.8336  0.8557
  183SLPC  C21520945   6.053   0.495   3.875  0.3909  0.0291  0.7785
  183SLPC  H15R20946   5.980   0.413   3.860  1.5283 -0.8827  0.0366
  183SLPC  H15S20947   5.999   0.568   3.940  1.1893 -0.4767  2.0371
  183SLPC  C21620948   6.181   0.446   3.947  0.2914  0.1269 -0.5561
  183SLPC  H16R20949   6.248   0.534   3.960  0.4197 -0.1463  0.7695
  183SLPC  H16S20950   6.235   0.374   3.882  3.3652  1.1270  0.6607
  183SLPC  C21720951   6.162   0.392   4.086 -0.2930  0.1214 -0.7628
  183SLPC  H17R20952   6.257   0.354   4.129 -0.4061  0.0471 -0.5752
  183SLPC  H17S20953   6.092   0.305   4.087  0.3527 -0.5166  2.5541
  183SLPC  C21820954   6.108   0.495   4.192  0.0178  0.4029 -0.3428
  183SLPC  H18R20955   6.170   0.587   4.200 -1.7948  1.5276  1.8559
  183SLPC  H18S20956   6.106   0.442   4.289  0.4450  0.4621 -0.3006
  183SLPC  H18T20957   6.001   0.514   4.170  0.4628  2.2193 -1.1176
  183SLPC   C3320958   6.619   0.852   2.991 -0.2759  0.0111  0.1548
  183SLPC   H3X20959   6.650   0.958   3.002 -2.2410  0.4288  2.5889
  183SLPC   H3Y20960   6.694   0.787   3.041 -1.1163 -0.6520  0.5851
  183SLPC   C3420961   6.485   0.841   3.068 -0.1633  0.5387  0.1303
  183SLPC   H4X20962   6.472   0.731   3.076  1.1455  0.2349 -1.3921
  183SLPC   H4Y20963   6.394   0.886   3.024 -1.0612 -1.0848  0.2544
  183SLPC   C3520964   6.492   0.903   3.205  0.5547  0.1283 -0.1395
  183SLPC   H5X20965   6.519   1.011   3.206  0.3709  0.1727  0.4687
  183SLPC   H5Y20966   6.562   0.847   3.271  0.3302 -0.5446 -0.4652
  183SLPC   C3620967   6.350   0.901   3.273  0.0016 -0.3336 -0.0009
  183SLPC   H6X20968   6.296   0.804   3.268  0.1035 -0.4140  0.4248
  183SLPC   H6Y20969   6.273   0.966   3.226 -2.1228 -1.1521  2.1236
  183SLPC   C3720970   6.368   0.942   3.415 -0.2446  0.2046 -0.9514
  183SLPC   H7X20971   6.271   0.981   3.451  0.3492  0.6149  0.2432
  183SLPC   H7Y20972   6.423   1.038   3.422 -2.1525  1.2780  0.2453
  183SLPC   C3820973   6.422   0.835   3.508  0.3005  0.1423  0.5750
  183SLPC   H8X20974   6.523   0.807   3.472  0.8962  0.8892  1.6132
  183SLPC   H8Y20975   6.360   0.743   3.496 -0.5139  0.8029 -0.3867
  183SLPC   C3920976   6.438   0.867   3.663  0.3005 -0.2812  0.6379
  183SLPC   H9X20977   6.346   0.913   3.704  1.1307  3.0612 -0.9028
  183SLPC   H9Y20978   6.522   0.940   3.663  1.4758 -1.4271 -2.6346
  183SLPC  C31020979   6.475   0.738   3.741 -0.7206 -0.3304  0.0776
  183SLPC  H10X20980   6.548   0.682   3.680 -1.2331 -0.9573  0.0314
  183SLPC  H10Y20981   6.386   0.672   3.743 -0.5398 -0.5558  0.9646
  183SLPC  C31120982   6.519   0.761   3.889 -0.3205  0.3421  0.2028
  183SLPC  H11X20983   6.431   0.795   3.948  0.4515 -1.0152  2.2637
  183SLPC  H11Y20984   6.595   0.841   3.903 -1.2372  1.4569 -0.9874
  183SLPC  C31220985   6.576   0.634   3.946 -0.5335  0.1005  0.3914
  183SLPC  H12X20986   6.672   0.615   3.894 -1.3426 -0.6363 -0.8826
  183SLPC  H12Y20987   6.505   0.553   3.920  0.0694  0.2003 -1.7430
  183SLPC  C31320988   6.593   0.647   4.099 -0.0308  0.3452 -0.2319
  183SLPC  H13X20989   6.493   0.682   4.131 -0.1396  0.1861 -0.3924
  183SLPC  H13Y20990   6.664   0.724   4.135 -0.5542  0.3480  0.8188
  183SLPC  C31420991   6.632   0.517   4.171 -0.5141 -0.1644  0.0969
  183SLPC  H14X20992   6.738   0.487   4.159 -0.5195 -0.2630  0.2977
  183SLPC  H14Y20993   6.572   0.437   4.123 -1.8664  0.7267  0.2421
  183SLPC  C31520994   6.592   0.525   4.316  0.2315 -0.3660 -0.2321
  183SLPC  H15X20995   6.481   0.519   4.311  0.1106 -0.9337  2.2681
  183SLPC  H15Y20996   6.627   0.627   4.341  1.9825 -0.5819 -1.5184
  183SLPC  C31620997   6.647   0.410   4.413  0.1599  0.2476  0.2306
  183SLPC  H16X20998   6.714   0.440   4.497  0.2468 -2.6187  1.2847
  183SLPC  H16Y20999   6.708   0.340   4.353  0.1283 -0.8002  1.3872
  183SLPC  C31721000   6.526   0.319   4.461  0.0969 -0.4854 -0.2905
  183SLPC  H17X21001   6.461   0.289   4.376 -0.0682 -1.9223  0.3158
  183SLPC  H17Y21002   6.470   0.394   4.520  0.1820  1.2262 -2.2632
  183SLPC  C31821003   6.568   0.208   4.553 -0.8811  0.2207  0.3436
  183SLPC  H18X21004   6.487   0.166   4.617 -0.0392  0.0903  1.3516
  183SLPC  H18Y21005   6.646   0.239   4.625  0.1586  2.2661 -1.5679
  183SLPC  H18Z21006   6.612   0.125   4.494 -0.1599  1.4364 -0.8682
  184SLPC     N21007   0.507   0.954   1.752 -0.0279  0.5052  0.0859
  184SLPC   C1321008   0.392   1.045   1.795  0.8679 -0.2577  0.5467
  184SLPC  H13A21009   0.376   1.109   1.710 -0.6401 -3.4702 -1.7687
  184SLPC  H13B21010   0.302   0.990   1.814 -1.5632  3.6362  1.5566
  184SLPC  H13C21011   0.414   1.104   1.883  0.8953  1.4154 -0.5329
  184SLPC   C1421012   0.631   1.036   1.727 -0.2398 -0.5057 -0.2172
  184SLPC  H14A21013   0.627   1.105   1.644  2.4867 -0.1635 -0.1545
  184SLPC  H14B21014   0.660   1.096   1.812 -0.7088  1.0391 -1.0908
  184SLPC  H14C21015   0.707   0.964   1.703  0.4372 -0.8623  2.6832
  184SLPC   C1521016   0.465   0.886   1.622 -0.0236  0.0033 -0.4414
  184SLPC  H15A21017   0.539   0.831   1.566  1.3392 -0.6378  1.8453
  184SLPC  H15B21018   0.393   0.809   1.646  0.2784 -0.2123 -0.2239
  184SLPC  H15C21019   0.413   0.959   1.561 -1.2757 -0.7731 -0.3382
  184SLPC   C1221020   0.529   0.854   1.864 -0.3778 -0.4965 -0.5847
  184SLPC  H12A21021   0.542   0.921   1.948  1.7498 -0.9264 -0.5138
  184SLPC  H12B21022   0.624   0.803   1.855  0.2143  0.6892 -1.4701
  184SLPC   C1121023   0.426   0.748   1.896 -0.4008  0.4477  0.4397
  184SLPC  H11A21024   0.454   0.675   1.976 -1.8195  0.3544  0.8721
  184SLPC  H11B21025   0.395   0.696   1.803 -2.0316 -0.6112  1.5129
  184SLPC     P21026   0.281   0.835   2.096  0.5568 -0.1824 -0.6304
  184SLPC   O1321027   0.176   0.942   2.095  0.1460 -0.3062  0.5392
  184SLPC   O1421028   0.243   0.706   2.152  0.0184 -0.0215  0.2978
  184SLPC   O1221029   0.309   0.811   1.943  0.4015  0.2805  0.2542
  184SLPC   O1121030   0.421   0.895   2.145 -0.1658 -0.0601  0.5189
  184SLPC    C121031   0.479   0.842   2.268  0.5301  0.7220 -0.6500
  184SLPC    HA21032   0.493   0.733   2.257 -1.6616  0.4062 -0.7478
  184SLPC    HB21033   0.584   0.880   2.273 -0.4920  3.7058  0.2334
  184SLPC    C221034   0.411   0.899   2.399 -0.5863  0.4154  0.4023
  184SLPC    HS21035   0.477   0.898   2.489  0.4964 -2.1969 -0.3449
  184SLPC   O2121036   0.288   0.831   2.431  0.3888 -0.2868 -0.1117
  184SLPC   C2121037   0.297   0.735   2.513  0.0873  0.0898 -0.6561
  184SLPC   O2221038   0.402   0.690   2.561  0.0557 -0.1352  0.5970
  184SLPC   C2221039   0.163   0.676   2.558 -0.3093  0.1738  0.8885
  184SLPC   H2R21040   0.088   0.747   2.518 -0.4215 -0.5691 -0.2840
  184SLPC   H2S21041   0.143   0.579   2.506 -1.4648  1.4771 -1.2229
  184SLPC    C321042   0.365   1.045   2.392 -0.3542  0.2533  0.1129
  184SLPC    HX21043   0.312   1.058   2.295 -0.6111 -2.2176 -0.1481
  184SLPC    HY21044   0.446   1.120   2.380 -0.1983  0.1250  0.3538
  184SLPC   O3121045   0.272   1.086   2.502 -0.2050  0.2573  0.5570
  184SLPC   C3121046   0.330   1.111   2.622 -0.0497  0.0373  0.3776
  184SLPC   O3221047   0.448   1.098   2.645 -0.5226 -0.1063  0.0045
  184SLPC   C3221048   0.226   1.138   2.725 -0.4856 -0.6925 -0.7450
  184SLPC   H2X21049   0.167   1.045   2.729 -2.0584  0.1678 -2.5336
  184SLPC   H2Y21050   0.169   1.223   2.682  0.5389  1.0785  1.1780
  184SLPC   C2321051   0.135   0.661   2.712 -0.4981 -0.6030  0.0135
  184SLPC   H3R21052   0.025   0.651   2.718 -0.5395 -1.4405 -1.5694
  184SLPC   H3S21053   0.174   0.753   2.760  0.9616 -1.0550 -0.2481
  184SLPC   C2421054   0.182   0.533   2.790  0.6331 -0.3267 -0.1631
  184SLPC   H4R21055   0.290   0.550   2.807  0.5452  1.4554 -1.1641
  184SLPC   H4S21056   0.151   0.447   2.726 -0.6625 -1.3337  1.7361
  184SLPC   C2521057   0.109   0.526   2.929 -0.2265 -0.7686  0.1409
  184SLPC   H5R21058   0.001   0.515   2.909 -0.4874  0.0204  1.0904
  184SLPC   H5S21059   0.131   0.613   2.994  1.5944 -0.1640 -1.1751
  184SLPC   C2621060   0.151   0.397   2.996 -1.0079 -0.4174 -0.4678
  184SLPC   H6R21061   0.249   0.420   3.043 -0.3973  1.0134 -2.3409
  184SLPC   H6S21062   0.157   0.317   2.919  0.1338 -3.4992  2.5269
  184SLPC   C2721063   0.053   0.365   3.105  0.0495  0.2229 -0.4736
  184SLPC   H7R21064  -0.053   0.344   3.078  0.2845 -0.8480 -0.6362
  184SLPC   H7S21065   0.053   0.445   3.182  1.1053  0.2173 -0.4488
  184SLPC   C2821066   0.100   0.232   3.178 -0.3757  0.1654  0.3051
  184SLPC   H8R21067   0.211   0.239   3.182 -0.5309  2.8525  1.6536
  184SLPC   H8S21068   0.090   0.141   3.114 -0.6268  0.7502 -0.5100
  184SLPC   C2921069   0.034   0.205   3.314 -0.1196 -0.1145 -0.0349
  184SLPC   H9R21070  -0.071   0.239   3.309  0.0313  0.3402 -0.1847
  184SLPC  C21021071   0.101   0.148   3.419 -0.7757  0.1593 -0.2482
  184SLPC  H10R21072   0.053   0.154   3.518 -2.6542 -2.5899 -0.8709
  184SLPC  C21121073   0.245   0.092   3.422 -0.1383 -0.2761 -1.0855
  184SLPC  H11R21074   0.300   0.096   3.325  1.1593  0.7623 -0.3319
  184SLPC  H11S21075   0.221  -0.013   3.450 -0.3614  0.5968  2.4102
  184SLPC  C21221076   0.327   0.144   3.537 -0.5665 -0.5472  0.0607
  184SLPC  H12R21077   0.328   0.254   3.544  1.1083 -0.4242 -1.4655
  184SLPC  C21321078   0.401   0.070   3.615  0.3123 -0.2158  0.8698
  184SLPC  H13R21079   0.462   0.119   3.693  2.4234  1.0887 -1.4808
  184SLPC  C21421080   0.416  -0.081   3.605  0.1304  0.3708 -1.0981
  184SLPC  H14R21081   0.522  -0.114   3.608 -0.0626 -0.3498 -1.7943
  184SLPC  H14S21082   0.389  -0.117   3.504  0.9357  0.0759 -1.2206
  184SLPC  C21521083   0.340  -0.157   3.719 -0.2397 -0.6798 -0.4667
  184SLPC  H15R21084   0.319  -0.260   3.684 -0.5807 -0.1642 -1.8830
  184SLPC  H15S21085   0.244  -0.104   3.738 -0.1962 -0.8107  0.1154
  184SLPC  C21621086   0.422  -0.154   3.851  0.3733 -0.4786  0.4415
  184SLPC  H16R21087   0.441  -0.049   3.882  0.1077 -0.2566 -0.1312
  184SLPC  H16S21088   0.520  -0.204   3.835 -1.1319 -3.8528  0.8335
  184SLPC  C21721089   0.352  -0.224   3.968  1.3056  0.7765  0.0593
  184SLPC  H17R21090   0.421  -0.230   4.055 -0.9556  3.1264  2.2010
  184SLPC  H17S21091   0.325  -0.326   3.934  1.8005  0.9410 -0.8847
  184SLPC  C21821092   0.229  -0.152   4.029 -0.1270 -0.8785  0.0629
  184SLPC  H18R21093   0.244  -0.042   4.040 -2.6516 -0.5759  1.2892
  184SLPC  H18S21094   0.206  -0.188   4.131  0.6503 -0.2085  0.4897
  184SLPC  H18T21095   0.138  -0.170   3.968  0.0403  0.0454 -0.4792
  184SLPC   C3321096   0.275   1.179   2.874  0.7411 -0.8649  0.1610
  184SLPC   H3X21097   0.346   1.263   2.864 -0.2916 -0.1571 -1.5838
  184SLPC   H3Y21098   0.335   1.092   2.910  0.9843 -0.9614 -0.4566
  184SLPC   C3421099   0.158   1.227   2.952 -0.5701 -0.0000  0.2904
  184SLPC   H4X21100   0.109   1.311   2.898 -0.3131  0.4299  0.7226
  184SLPC   H4Y21101   0.195   1.264   3.050  0.8386 -1.0425  0.1789
  184SLPC   C3521102   0.051   1.117   2.979 -0.1644  0.9870 -0.3989
  184SLPC   H5X21103   0.009   1.096   2.878 -0.1553  1.6209 -0.5383
  184SLPC   H5Y21104  -0.018   1.172   3.045  0.5853  1.9165 -0.3743
  184SLPC   C3621105   0.109   0.996   3.059 -0.0547 -0.6474 -0.6414
  184SLPC   H6X21106   0.202   0.963   3.009  0.0658 -0.1108 -0.7816
  184SLPC   H6Y21107   0.042   0.908   3.055  2.4478 -2.6357 -1.3758
  184SLPC   C3721108   0.164   1.030   3.201 -0.1302 -0.4624  0.1675
  184SLPC   H7X21109   0.251   1.099   3.203 -0.7710  0.3623  0.2922
  184SLPC   H7Y21110   0.200   0.935   3.246 -4.4796 -2.6051 -0.3355
  184SLPC   C3821111   0.055   1.091   3.294  1.3810  0.7508  0.8357
  184SLPC   H8X21112  -0.046   1.080   3.249  2.0407  0.3088 -0.5853
  184SLPC   H8Y21113   0.061   1.202   3.288  2.1696  0.6688 -0.2866
  184SLPC   C3921114   0.032   1.034   3.432  0.2787  0.2843  0.1780
  184SLPC   H9X21115  -0.037   1.097   3.491 -0.4136 -0.6066  0.3360
  184SLPC   H9Y21116   0.132   1.036   3.481 -0.0438 -1.2440  0.9628
  184SLPC  C31021117  -0.006   0.884   3.434 -0.2112  0.1284 -0.6768
  184SLPC  H10X21118   0.076   0.824   3.390  0.7996  1.0838 -0.1530
  184SLPC  H10Y21119  -0.097   0.866   3.374 -0.4230 -2.3684  0.2523
  184SLPC  C31121120  -0.021   0.833   3.583 -0.2784  0.1053  0.2440
  184SLPC  H11X21121  -0.048   0.726   3.574  0.6970 -0.0102 -2.4130
  184SLPC  H11Y21122  -0.108   0.880   3.633  0.9466  0.7018  1.9153
  184SLPC  C31221123   0.095   0.864   3.687  1.3248  1.0330 -0.0592
  184SLPC  H12X21124   0.106   0.971   3.714  1.7133  1.6651 -2.4895
  184SLPC  H12Y21125   0.192   0.828   3.646  0.7090  0.8900 -1.4575
  184SLPC  C31321126   0.088   0.777   3.818 -0.4634  1.2720 -0.1532
  184SLPC  H13X21127   0.117   0.672   3.796  1.5784  2.2167 -2.4084
  184SLPC  H13Y21128  -0.017   0.789   3.854 -1.5731 -1.2713 -2.1631
  184SLPC  C31421129   0.187   0.821   3.934  0.4594  0.0977 -0.3509
  184SLPC  H14X21130   0.172   0.931   3.941  1.2156  0.2407 -0.8666
  184SLPC  H14Y21131   0.288   0.807   3.889  0.4065 -0.0383 -0.4260
  184SLPC  C31521132   0.173   0.741   4.070 -0.1064 -0.8746 -0.0204
  184SLPC  H15X21133   0.204   0.637   4.045  0.2014 -0.2220 -2.6428
  184SLPC  H15Y21134   0.071   0.754   4.112 -0.1074  1.1314 -0.5336
  184SLPC  C31621135   0.275   0.802   4.171  0.0217  0.3515  0.0968
  184SLPC  H16X21136   0.284   0.908   4.138  1.1592  0.3235  0.2776
  184SLPC  H16Y21137   0.372   0.758   4.139  0.2498  2.1935 -2.0407
  184SLPC  C31721138   0.250   0.773   4.318 -0.2201 -0.2601  0.1781
  184SLPC  H17X21139   0.240   0.662   4.326  0.0719 -0.3557 -0.6144
  184SLPC  H17Y21140   0.144   0.801   4.335  0.2231  0.9388  1.0665
  184SLPC  C31821141   0.346   0.818   4.428  0.0028  0.1501 -0.1738
  184SLPC  H18X21142   0.341   0.743   4.510  0.2030  1.0416  0.6760
  184SLPC  H18Y21143   0.322   0.916   4.476  1.0752 -0.0110  0.7552
  184SLPC  H18Z21144   0.452   0.806   4.396  0.3056 -0.3828  0.9617
  185POPC     N21145   0.368   4.928   6.823 -0.2233 -0.3151  0.4725
  185POPC   C1221146   0.257   4.832   6.796  0.8331 -0.0949 -0.0323
  185POPC  H12A21147   0.192   4.885   6.729 -1.0574 -0.2162  1.6070
  185POPC  H12B21148   0.207   4.821   6.891  1.5631 -0.5525  0.3072
  185POPC   C1321149   0.333   5.073   6.824  0.2823 -0.8872 -0.0956
  185POPC  H13A21150   0.267   5.093   6.908  1.5957  2.4187  0.3008
  185POPC  H13B21151   0.424   5.130   6.837 -0.1733 -0.3360  0.7796
  185POPC  H13C21152   0.284   5.105   6.733 -0.9780  0.1165  0.8884
  185POPC   C1421153   0.438   4.898   6.953  0.2805 -0.4198  0.4093
  185POPC  H14A21154   0.441   4.790   6.956  1.9828 -0.4817 -1.1427
  185POPC  H14B21155   0.543   4.921   6.953  0.1981  0.0145 -0.5587
  185POPC  H14C21156   0.381   4.938   7.036  0.5726  0.3334  0.2548
  185POPC   C1521157   0.476   4.909   6.722  0.1579 -0.4601  0.1262
  185POPC  H15A21158   0.557   4.975   6.749  0.1034  0.7299 -2.3356
  185POPC  H15B21159   0.447   4.928   6.619  2.0715 -0.3954 -0.4441
  185POPC  H15C21160   0.518   4.810   6.722 -0.3345 -0.6752 -0.3524
  185POPC   C1121161   0.292   4.687   6.750 -0.6247  0.4366  0.3308
  185POPC  H11A21162   0.335   4.695   6.648  2.2986  0.7400  1.4942
  185POPC  H11B21163   0.200   4.627   6.733 -0.0750 -0.3930  0.2056
  185POPC     P21164   0.486   4.538   6.811  0.1833 -0.0037 -0.1524
  185POPC   O1321165   0.443   4.413   6.748  0.6597 -0.4722  0.2446
  185POPC   O1421166   0.588   4.530   6.916  0.3916  0.3377  0.0789
  185POPC   O1221167   0.369   4.628   6.853  0.3680  0.6153 -0.0049
  185POPC   O1121168   0.548   4.616   6.690  0.7905 -0.0009  0.0191
  185POPC    C121169   0.686   4.594   6.640 -0.4140  0.0817 -0.0310
  185POPC    HA21170   0.742   4.512   6.690  0.0446  0.6915  0.4705
  185POPC    HB21171   0.742   4.690   6.645 -2.4176  1.3186 -0.0147
  185POPC    C221172   0.667   4.560   6.489  0.9482  0.5274 -0.0559
  185POPC    HS21173   0.659   4.450   6.481 -1.4677  0.7285 -1.8737
  185POPC   O2121174   0.773   4.600   6.400 -0.0466 -0.7944 -0.0928
  185POPC   C2121175   0.894   4.560   6.437 -0.5614 -0.3266  0.0639
  185POPC   O2221176   0.922   4.496   6.537 -0.3494 -0.1954  0.1590
  185POPC   C2221177   1.001   4.606   6.335  0.3322  0.5330  0.5816
  185POPC   H2R21178   1.093   4.646   6.383  2.6307 -1.6345 -1.6854
  185POPC   H2S21179   0.948   4.693   6.289 -1.8845 -0.4687  1.1238
  185POPC    C321180   0.531   4.614   6.430 -0.0045 -0.1749 -1.0107
  185POPC    HX21181   0.542   4.722   6.450 -1.8567 -0.3357  1.4124
  185POPC    HY21182   0.449   4.574   6.494  0.0386 -1.0896 -1.4992
  185POPC   O3121183   0.506   4.577   6.291 -0.1536  0.1318  0.5070
  185POPC   C3121184   0.497   4.667   6.199 -0.1097 -0.6949 -0.4449
  185POPC   O3221185   0.481   4.788   6.218 -0.2052 -0.2031 -0.4357
  185POPC   C3221186   0.495   4.601   6.065 -0.0231  0.1135 -0.3821
  185POPC   H2X21187   0.393   4.565   6.037 -0.8124  2.1929 -0.3719
  185POPC   H2Y21188   0.555   4.508   6.072 -0.4214 -0.0244  1.6764
  185POPC   C2321189   1.042   4.502   6.227 -0.3550 -0.6930  0.0030
  185POPC   H3R21190   1.068   4.406   6.276  0.0583  0.3297  1.9261
  185POPC   H3S21191   1.131   4.542   6.173 -0.0520 -0.9943  0.2795
  185POPC   C2421192   0.928   4.464   6.126 -0.0891 -0.4344 -0.1628
  185POPC   H4R21193   0.893   4.557   6.077  0.0614 -0.8846 -1.1325
  185POPC   H4S21194   0.845   4.428   6.191 -1.5668  1.6433 -0.7726
  185POPC   C2521195   0.970   4.347   6.036  0.2893 -0.8856 -0.7222
  185POPC   H5R21196   0.875   4.310   5.992  0.8499 -1.0102 -1.8903
  185POPC   H5S21197   1.032   4.274   6.093 -1.5864 -2.1822 -0.2607
  185POPC   C2621198   1.069   4.395   5.929 -0.3105 -0.4174  0.1314
  185POPC   H6R21199   1.160   4.437   5.978  1.0253 -0.6586 -2.0201
  185POPC   H6S21200   1.032   4.484   5.875  1.8645  1.0037  0.8360
  185POPC   C2721201   1.109   4.283   5.833  0.0052 -0.2873  0.0926
  185POPC   H7R21202   1.013   4.248   5.788  0.6697  0.9885 -2.5054
  185POPC   H7S21203   1.155   4.202   5.894  3.2356  0.7546 -0.8051
  185POPC   C2821204   1.211   4.312   5.719  0.5489 -0.0602  0.8425
  185POPC   H8R21205   1.228   4.213   5.672  3.4387  0.4670  0.5672
  185POPC   H8S21206   1.311   4.342   5.758  1.2421 -0.6587 -0.3991
  185POPC   C2921207   1.156   4.422   5.630 -0.4602 -0.0409  0.5522
  185POPC   H9121208   1.193   4.521   5.659 -1.8666 -0.3169  3.6811
  185POPC  C21021209   1.074   4.411   5.524 -0.7622 -0.1499 -0.2166
  185POPC  H10121210   1.056   4.501   5.464 -0.3556 -1.0513 -1.7323
  185POPC  C21121211   1.027   4.281   5.472  0.0472 -0.5968 -0.5692
  185POPC  H11R21212   0.920   4.293   5.443  0.3251 -0.0699 -1.4192
  185POPC  H11S21213   1.033   4.202   5.550 -0.2438  0.0903  0.1613
  185POPC  C21221214   1.078   4.242   5.338  0.3930 -0.3281  0.0509
  185POPC  H12R21215   1.024   4.153   5.298 -0.4960 -0.0976  0.7011
  185POPC  H12S21216   1.187   4.223   5.346  0.7286  0.9652 -1.1212
  185POPC  C21321217   1.066   4.344   5.226 -0.0134  0.3156  0.4146
  185POPC  H13R21218   1.123   4.437   5.247 -0.7130  0.5368  1.3809
  185POPC  H13S21219   0.960   4.366   5.202  0.0735 -1.1780 -1.6565
  185POPC  C21421220   1.133   4.292   5.096  0.6169  0.0451  0.2464
  185POPC  H14R21221   1.104   4.191   5.061  0.7584  0.1937 -0.3126
  185POPC  H14S21222   1.243   4.305   5.110  0.8714  0.9171 -2.0434
  185POPC  C21521223   1.104   4.397   4.981 -0.4772  0.0773 -0.2764
  185POPC  H15R21224   1.116   4.502   5.014 -1.3275  0.1361 -0.1255
  185POPC  H15S21225   0.997   4.380   4.957 -0.2327 -1.0864 -0.6143
  185POPC  C21621226   1.170   4.385   4.844  1.0815  0.0103  0.5697
  185POPC  H16R21227   1.172   4.281   4.806 -2.4153  0.2066 -0.5017
  185POPC  H16S21228   1.274   4.425   4.845  0.7087  0.9952  1.5854
  185POPC  C21721229   1.083   4.445   4.727  0.4162 -0.2501  0.5475
  185POPC  H17R21230   1.088   4.556   4.717 -0.3104 -0.1667  0.9794
  185POPC  H17S21231   0.976   4.416   4.738 -0.3225 -0.2246 -4.1316
  185POPC  C21821232   1.120   4.382   4.591 -0.1946 -0.6948  0.2313
  185POPC  H18R21233   1.222   4.394   4.549  0.5440  0.0689  2.1204
  185POPC  H18S21234   1.052   4.416   4.510 -0.0869 -0.9036  0.0537
  185POPC  H18T21235   1.103   4.272   4.591 -0.3399 -0.6745  0.5763
  185POPC   C3321236   0.546   4.689   5.953 -0.2091 -1.0673 -0.1979
  185POPC   H3X21237   0.634   4.750   5.985 -1.3550  0.2630  0.5543
  185POPC   H3Y21238   0.472   4.770   5.934 -0.0617  0.6322  4.8998
  185POPC   C3421239   0.571   4.613   5.823 -0.1872 -0.2827  0.4284
  185POPC   H4X21240   0.473   4.602   5.773 -0.2409  3.0378 -0.3914
  185POPC   H4Y21241   0.618   4.516   5.851  1.6069 -0.2922 -2.2058
  185POPC   C3521242   0.660   4.686   5.713  0.3293 -0.1098 -0.3462
  185POPC   H5X21243   0.759   4.702   5.759  1.0582  1.0323 -2.1778
  185POPC   H5Y21244   0.616   4.787   5.695  0.1962  0.1103  1.1431
  185POPC   C3621245   0.672   4.601   5.580 -0.3902  0.1211  0.2374
  185POPC   H6X21246   0.569   4.568   5.556 -0.7269  0.3323  1.3077
  185POPC   H6Y21247   0.738   4.515   5.605 -0.2117  0.3436  0.5417
  185POPC   C3721248   0.708   4.689   5.459  0.2176  0.1825 -0.0113
  185POPC   H7X21249   0.817   4.708   5.459  0.4461 -1.0405 -0.3724
  185POPC   H7Y21250   0.662   4.790   5.464  1.8146  0.9710 -0.6391
  185POPC   C3821251   0.657   4.620   5.332 -0.6038  0.3251  0.4267
  185POPC   H8X21252   0.547   4.610   5.324 -0.3486 -1.1705 -2.2085
  185POPC   H8Y21253   0.689   4.515   5.341 -1.9621 -0.2490 -0.9736
  185POPC   C3921254   0.705   4.690   5.199 -0.7451 -0.0697  0.1014
  185POPC   H9X21255   0.815   4.692   5.193 -0.8336  2.2912 -2.5599
  185POPC   H9Y21256   0.669   4.795   5.201  1.4699  0.7316  0.7081
  185POPC  C31021257   0.653   4.616   5.078 -0.6105  0.4385 -0.5227
  185POPC  H10X21258   0.543   4.633   5.069 -0.6562  1.1692  1.1124
  185POPC  H10Y21259   0.669   4.506   5.072 -2.1362  0.1442  0.2368
  185POPC  C31121260   0.720   4.670   4.950  0.5202 -0.5969  0.5429
  185POPC  H11X21261   0.827   4.641   4.951  1.3857  1.8114 -2.8504
  185POPC  H11Y21262   0.713   4.780   4.935 -0.4559 -0.7033  0.1524
  185POPC  C31221263   0.645   4.616   4.827  0.5071 -0.7439  0.9533
  185POPC  H12X21264   0.536   4.617   4.848  0.3626  0.3041  0.2059
  185POPC  H12Y21265   0.671   4.508   4.819  0.0560 -0.6989 -1.8393
  185POPC  C31321266   0.666   4.695   4.694  0.5798  0.0020 -0.4752
  185POPC  H13X21267   0.769   4.687   4.653 -0.0608 -1.8784 -1.8652
  185POPC  H13Y21268   0.636   4.802   4.702 -0.5307 -0.3872  0.8181
  185POPC  C31421269   0.581   4.641   4.581 -0.3050  0.1490  0.5005
  185POPC  H14X21270   0.478   4.662   4.617  0.1983 -0.4699  2.4606
  185POPC  H14Y21271   0.604   4.533   4.592 -1.1713  0.1316  2.6756
  185POPC  C31521272   0.591   4.693   4.444 -0.4224  0.5932 -0.1749
  185POPC  H15X21273   0.692   4.663   4.410 -0.0626  0.1034  1.2617
  185POPC  H15Y21274   0.593   4.804   4.452 -1.8788  0.5497  1.2785
  185POPC  C31621275   0.478   4.646   4.348 -0.0992  0.6507  0.0352
  185POPC  H16X21276   0.381   4.663   4.400  1.0811  0.1827  2.5392
  185POPC  H16Y21277   0.494   4.540   4.318  0.6545  0.8019 -0.1157
  185POPC  H16Z21278   0.478   4.705   4.254  0.5030  0.8820  0.1720
  186POPC     N21279   2.234   1.402   6.571  0.3296 -0.5104  0.4802
  186POPC   C1221280   2.325   1.525   6.570 -0.1633  0.5346 -0.0418
  186POPC  H12A21281   2.408   1.500   6.634 -1.6896 -1.6454  1.1936
  186POPC  H12B21282   2.264   1.597   6.623  0.6487 -0.4461  2.3311
  186POPC   C1321283   2.208   1.362   6.709  0.2816 -0.0539  0.4487
  186POPC  H13A21284   2.144   1.434   6.758  1.0980  0.7017  0.4255
  186POPC  H13B21285   2.161   1.265   6.717 -1.1523  0.5286 -0.6151
  186POPC  H13C21286   2.292   1.354   6.776 -1.0867 -0.9714  2.1403
  186POPC   C1421287   2.114   1.427   6.493 -0.1464  0.0587 -0.3132
  186POPC  H14A21288   2.071   1.514   6.541  1.0747  0.1617  0.6457
  186POPC  H14B21289   2.136   1.444   6.389  2.9884 -0.1829  0.2340
  186POPC  H14C21290   2.041   1.348   6.501  2.6001 -2.6846 -0.7574
  186POPC   C1521291   2.298   1.283   6.503 -0.3108 -0.0446  0.2653
  186POPC  H15A21292   2.226   1.203   6.513  0.5914 -0.9167 -0.0762
  186POPC  H15B21293   2.394   1.263   6.548 -0.4451  3.0586  2.2345
  186POPC  H15C21294   2.310   1.294   6.397 -1.1119 -0.4956  0.1156
  186POPC   C1121295   2.382   1.589   6.447 -0.0019 -0.3560 -0.0847
  186POPC  H11A21296   2.447   1.517   6.394  0.7830  1.0039 -1.0271
  186POPC  H11B21297   2.447   1.676   6.471 -0.3612  0.7690 -2.8484
  186POPC     P21298   2.228   1.784   6.367  0.2121 -0.1977  0.1972
  186POPC   O1321299   2.195   1.816   6.511  0.0181  0.3291  0.0342
  186POPC   O1421300   2.120   1.813   6.277 -0.0145 -0.1139  0.9427
  186POPC   O1221301   2.281   1.631   6.358 -0.5620 -0.3114  0.6537
  186POPC   O1121302   2.361   1.873   6.331  0.2590 -0.0029  0.1424
  186POPC    C121303   2.432   1.876   6.209 -0.6545  0.3548  0.8297
  186POPC    HA21304   2.383   1.949   6.140  1.1670 -1.5733 -2.8141
  186POPC    HB21305   2.419   1.782   6.152  2.5258 -0.8513  1.8399
  186POPC    C221306   2.590   1.907   6.210 -0.3055  0.7434 -0.1159
  186POPC    HS21307   2.628   1.832   6.283 -1.6044  1.5983  1.4972
  186POPC   O2121308   2.624   2.044   6.236 -0.1919  0.9433  0.0238
  186POPC   C2121309   2.723   2.056   6.330  0.0256 -0.1791  0.8150
  186POPC   O2221310   2.796   1.973   6.373  0.2709  0.6648  0.0926
  186POPC   C2221311   2.740   2.208   6.349  0.0866  0.2047 -0.4365
  186POPC   H2R21312   2.676   2.229   6.437 -1.2961  2.0150 -1.7814
  186POPC   H2S21313   2.699   2.263   6.261 -0.9122  1.1178  0.5722
  186POPC    C321314   2.643   1.871   6.071  1.2667  0.0835  0.1536
  186POPC    HX21315   2.580   1.934   6.004 -2.3330 -1.8571  1.4133
  186POPC    HY21316   2.604   1.770   6.047 -0.7636  0.3997  1.8329
  186POPC   O3121317   2.783   1.889   6.066  0.3097 -0.2366 -0.1227
  186POPC   C3121318   2.824   1.922   5.945 -0.4599  1.0633 -0.0803
  186POPC   O3221319   2.747   1.936   5.850  0.0126  0.2986 -0.7816
  186POPC   C3221320   2.976   1.945   5.950 -0.0588 -0.3849  0.4898
  186POPC   H2X21321   3.030   1.848   5.959  0.4483 -0.0216  1.5681
  186POPC   H2Y21322   3.004   1.994   6.045 -3.1560 -0.9900  1.8085
  186POPC   C2321323   2.877   2.246   6.374  0.5465 -0.0326 -0.5905
  186POPC   H3R21324   2.913   2.170   6.446 -2.0345 -0.4189  0.3869
  186POPC   H3S21325   2.901   2.349   6.409 -0.9912  1.0551 -2.5021
  186POPC   C2421326   2.973   2.249   6.250 -0.0844  0.6830  0.9642
  186POPC   H4R21327   2.964   2.163   6.180  3.4181  1.2829 -0.4497
  186POPC   H4S21328   3.074   2.229   6.293 -0.2622 -0.2341  0.9630
  186POPC   C2521329   2.958   2.370   6.154  0.5516 -0.1496  0.0874
  186POPC   H5R21330   2.965   2.458   6.221 -5.0826  0.2083  0.6686
  186POPC   H5S21331   2.860   2.368   6.101 -0.3847 -0.3472  1.7555
  186POPC   C2621332   3.058   2.360   6.038  0.3370 -0.0443  1.3742
  186POPC   H6R21333   3.028   2.279   5.969  0.0345  0.8433  0.4358
  186POPC   H6S21334   3.153   2.333   6.088  1.1479 -2.5547 -1.2888
  186POPC   C2721335   3.073   2.496   5.960  0.5320 -0.4927 -0.6592
  186POPC   H7R21336   3.107   2.570   6.036  1.9954 -0.3283 -1.4366
  186POPC   H7S21337   2.966   2.523   5.948  0.7794  1.1430  0.4310
  186POPC   C2821338   3.158   2.519   5.829 -0.9386 -0.6114 -0.2447
  186POPC   H8R21339   3.140   2.437   5.757 -1.6079  0.2392 -1.0681
  186POPC   H8S21340   3.266   2.518   5.854 -0.3486  1.3189 -2.3743
  186POPC   C2921341   3.127   2.649   5.764  0.3212  0.2179  0.2129
  186POPC   H9121342   3.042   2.702   5.811 -0.2710 -1.8730  1.6745
  186POPC  C21021343   3.182   2.687   5.653  0.4947 -0.3443 -0.6736
  186POPC  H10121344   3.128   2.774   5.612 -2.3391 -0.4996  2.3480
  186POPC  C21121345   3.291   2.635   5.563 -0.0669  1.0398 -0.5138
  186POPC  H11R21346   3.308   2.525   5.573  0.8277  1.2326  0.2730
  186POPC  H11S21347   3.393   2.677   5.578  1.4747 -1.5623 -2.6833
  186POPC  C21221348   3.264   2.674   5.420  0.1089  0.5444 -0.7293
  186POPC  H12R21349   3.233   2.780   5.407 -0.2059  0.6854  1.0019
  186POPC  H12S21350   3.172   2.620   5.387 -0.2287  0.6939 -0.0556
  186POPC  C21321351   3.378   2.630   5.324 -0.1776  0.2223  0.3863
  186POPC  H13R21352   3.401   2.523   5.341  0.6153  0.0749 -1.3891
  186POPC  H13S21353   3.464   2.693   5.357 -2.3747  2.3400  2.4438
  186POPC  C21421354   3.339   2.645   5.173 -0.7616  1.3431 -0.2506
  186POPC  H14R21355   3.302   2.748   5.155 -2.3404  1.1932  1.7553
  186POPC  H14S21356   3.252   2.578   5.163 -0.6898  0.8350  1.9949
  186POPC  C21521357   3.449   2.592   5.072  0.4870 -0.0686 -0.4923
  186POPC  H15R21358   3.409   2.516   5.000  2.8880 -2.0251  0.0968
  186POPC  H15S21359   3.514   2.527   5.134  0.7297 -2.7747 -3.3253
  186POPC  C21621360   3.534   2.697   5.004  0.0617 -0.7707 -0.1333
  186POPC  H16R21361   3.617   2.637   4.961 -0.1715 -1.7390  0.7301
  186POPC  H16S21362   3.560   2.771   5.081 -2.3711  1.5775 -1.3852
  186POPC  C21721363   3.460   2.774   4.890 -1.2190  0.7555 -0.3075
  186POPC  H17R21364   3.361   2.812   4.925 -0.9840  0.9710  0.1372
  186POPC  H17S21365   3.441   2.710   4.801 -0.4304  0.0404  0.0259
  186POPC  C21821366   3.539   2.886   4.827 -0.2407 -0.1604 -0.5966
  186POPC  H18R21367   3.608   2.855   4.746 -1.5875 -2.8879 -0.8176
  186POPC  H18S21368   3.598   2.930   4.911  1.0969 -2.6845 -0.0984
  186POPC  H18T21369   3.462   2.954   4.786 -1.9506 -0.1679  2.3286
  186POPC   C3321370   3.025   2.033   5.837 -0.0946 -0.5150  0.4441
  186POPC   H3X21371   3.133   2.036   5.860 -0.0400 -5.3969  2.0352
  186POPC   H3Y21372   2.972   2.129   5.824 -1.1079 -0.9645  1.1185
  186POPC   C3421373   3.018   1.967   5.694  0.5501  0.8309 -0.0929
  186POPC   H4X21374   2.914   1.946   5.661  0.2573  1.9096  0.0978
  186POPC   H4Y21375   3.075   1.874   5.715 -2.1781 -0.3562  2.9582
  186POPC   C3521376   3.070   2.067   5.595  0.4920 -0.0018  0.1198
  186POPC   H5X21377   3.180   2.073   5.612  0.1978  2.3088  1.5723
  186POPC   H5Y21378   3.032   2.169   5.613  0.9424 -0.1209  1.9891
  186POPC   C3621379   3.049   2.011   5.447 -0.2411  0.1445 -0.3565
  186POPC   H6X21380   2.942   1.986   5.432 -0.7128  2.0372 -0.3153
  186POPC   H6Y21381   3.121   1.927   5.434  1.8647  1.9667 -1.1313
  186POPC   C3721382   3.098   2.109   5.341  0.5629 -0.0214  0.2812
  186POPC   H7X21383   3.202   2.141   5.363 -0.7342  2.1672  4.0001
  186POPC   H7Y21384   3.034   2.200   5.334  0.6416 -0.0437 -1.0503
  186POPC   C3821385   3.092   2.048   5.199 -0.3519 -0.1429 -0.0760
  186POPC   H8X21386   2.985   2.032   5.172 -0.6398  3.4812 -1.6311
  186POPC   H8Y21387   3.144   1.950   5.196  0.3265  0.2249 -1.9495
  186POPC   C3921388   3.170   2.135   5.098 -0.2844 -0.9900  0.2773
  186POPC   H9X21389   3.274   2.149   5.135 -0.1832  2.6147 -0.9307
  186POPC   H9Y21390   3.147   2.243   5.108  4.3405  0.1421  0.8684
  186POPC  C31021391   3.171   2.082   4.961  0.2005  0.0954  0.8045
  186POPC  H10X21392   3.064   2.075   4.934  0.3032  0.3158  0.3374
  186POPC  H10Y21393   3.216   1.980   4.959  1.8091  0.7636 -1.9911
  186POPC  C31121394   3.248   2.172   4.855  1.1044  0.1219 -0.0331
  186POPC  H11X21395   3.197   2.270   4.839  0.4253 -0.3027 -0.5626
  186POPC  H11Y21396   3.241   2.117   4.759 -0.0261 -0.2438  0.2447
  186POPC  C31221397   3.401   2.192   4.892  0.1648  0.2730  0.3127
  186POPC  H12X21398   3.441   2.089   4.902  0.4937  0.3010 -0.6434
  186POPC  H12Y21399   3.394   2.241   4.991  0.0289 -2.2526  1.6038
  186POPC  C31321400   3.474   2.281   4.797 -0.5296  0.0163 -0.0944
  186POPC  H13X21401   3.410   2.371   4.785 -2.1231 -1.1820 -0.9444
  186POPC  H13Y21402   3.475   2.227   4.700  2.2071 -0.9214  0.3882
  186POPC  C31421403   3.615   2.297   4.843 -0.3422 -0.2703  0.3826
  186POPC  H14X21404   3.667   2.204   4.875  1.0110  0.8550  1.5661
  186POPC  H14Y21405   3.618   2.349   4.941 -1.7279  1.0217 -0.2144
  186POPC  C31521406   3.693   2.383   4.744  0.9066  1.1115 -0.1375
  186POPC  H15X21407   3.630   2.474   4.743 -1.5625 -0.4907  1.4775
  186POPC  H15Y21408   3.693   2.336   4.644  0.9922  0.2689  0.2547
  186POPC  C31621409   3.834   2.421   4.785 -0.0871  0.0936  0.1429
  186POPC  H16X21410   3.839   2.489   4.872  1.2027  0.8143 -0.4750
  186POPC  H16Y21411   3.893   2.466   4.702  1.1631  0.2838  1.1070
  186POPC  H16Z21412   3.890   2.328   4.808  1.0393  1.1498  1.7942
  187POPC     N21413   5.758   3.799   2.011  0.2446 -0.6101  0.1909
  187POPC   C1221414   5.675   3.879   2.111 -0.2964 -0.1308  0.4224
  187POPC  H12A21415   5.686   3.840   2.211  2.5689  0.6875  0.5249
  187POPC  H12B21416   5.571   3.873   2.081  0.0855 -2.7419 -0.6433
  187POPC   C1321417   5.903   3.781   2.043 -0.7834 -0.0603  0.4933
  187POPC  H13A21418   5.960   3.869   2.069  0.8171 -0.3971 -1.6249
  187POPC  H13B21419   5.916   3.714   2.127 -0.0236  1.1840  1.4080
  187POPC  H13C21420   5.950   3.747   1.952 -1.6467  0.5695 -0.1900
  187POPC   C1421421   5.695   3.668   2.004 -0.1955  0.3723 -0.2355
  187POPC  H14A21422   5.600   3.668   1.954  0.1974 -0.5823 -1.0076
  187POPC  H14B21423   5.759   3.602   1.947 -3.1714 -0.8586 -2.4040
  187POPC  H14C21424   5.687   3.619   2.100  0.4111  1.6948  0.5274
  187POPC   C1521425   5.753   3.867   1.879  0.1656 -0.6949  0.2770
  187POPC  H15A21426   5.649   3.875   1.849  0.1437  0.9817  0.7003
  187POPC  H15B21427   5.801   3.807   1.804  0.0239  0.6449 -0.9223
  187POPC  H15C21428   5.806   3.961   1.882  0.9770 -1.1494  0.5454
  187POPC   C1121429   5.727   4.021   2.140 -0.0417 -0.0850 -0.5099
  187POPC  H11A21430   5.656   4.072   2.208  1.3157 -0.5981  1.3498
  187POPC  H11B21431   5.740   4.071   2.041  0.2377  0.4599 -0.2013
  187POPC     P21432   5.881   3.977   2.350  0.2633 -0.0358 -0.0729
  187POPC   O1321433   6.027   3.998   2.374 -0.4172  0.5925  0.2064
  187POPC   O1421434   5.828   3.841   2.384  0.0676 -0.0540 -0.5580
  187POPC   O1221435   5.860   4.010   2.197  0.4091 -0.0743 -0.2888
  187POPC   O1121436   5.798   4.090   2.430 -0.3481  0.2168 -0.2932
  187POPC    C121437   5.862   4.206   2.487  0.3181  0.0728  0.2593
  187POPC    HA21438   5.787   4.287   2.480 -0.7550 -0.9939 -1.4362
  187POPC    HB21439   5.947   4.236   2.422  0.4279  0.5278  0.6146
  187POPC    C221440   5.909   4.188   2.626 -0.3545  0.1759 -0.6197
  187POPC    HS21441   6.011   4.145   2.623  0.1857  1.2380  0.7925
  187POPC   O2121442   5.813   4.097   2.697 -0.0297 -0.6831  0.0436
  187POPC   C2121443   5.858   3.969   2.717 -0.0481  0.6694 -0.6078
  187POPC   O2221444   5.971   3.938   2.708  0.0652  0.6024  0.4327
  187POPC   C2221445   5.741   3.872   2.764  0.8531 -0.1784  0.5729
  187POPC   H2R21446   5.661   3.881   2.688  2.0599 -1.4633 -0.9220
  187POPC   H2S21447   5.712   3.918   2.861  2.1554  3.9169 -0.7752
  187POPC    C321448   5.922   4.325   2.697  0.9330 -0.8328  0.0390
  187POPC    HX21449   5.834   4.392   2.691  1.6026  0.0886  0.1980
  187POPC    HY21450   5.999   4.381   2.639 -0.0926 -0.2549 -0.7936
  187POPC   O3121451   5.967   4.315   2.836 -0.7820  0.1484 -0.1885
  187POPC   C3121452   5.879   4.285   2.928  0.6858  0.3265 -0.6523
  187POPC   O3221453   5.759   4.262   2.904 -0.2440 -0.0399  0.6579
  187POPC   C3221454   5.939   4.293   3.061  0.4554 -0.0948 -0.1702
  187POPC   H2X21455   6.009   4.379   3.064 -0.7683  0.9340 -0.0669
  187POPC   H2Y21456   5.995   4.204   3.097 -1.1733 -0.3854  1.8749
  187POPC   C2321457   5.793   3.731   2.749 -0.4697 -0.0095  0.4621
  187POPC   H3R21458   5.888   3.709   2.802  1.1466 -1.1849 -2.6433
  187POPC   H3S21459   5.801   3.687   2.647 -1.0093 -1.6029  1.0690
  187POPC   C2421460   5.683   3.632   2.799 -0.0993  0.1805  0.2702
  187POPC   H4R21461   5.697   3.531   2.754 -1.2916 -0.5467  1.4424
  187POPC   H4S21462   5.582   3.659   2.763 -1.4173 -0.1301  3.4105
  187POPC   C2521463   5.682   3.618   2.954  0.0635 -0.0123 -0.2744
  187POPC   H5R21464   5.646   3.716   2.993 -1.5762 -1.0713  1.0284
  187POPC   H5S21465   5.778   3.588   3.000  0.7206 -1.1529 -2.2616
  187POPC   C2621466   5.592   3.500   3.008 -0.1163 -0.1956 -0.2933
  187POPC   H6R21467   5.637   3.403   2.975  0.6015 -0.3768  1.1433
  187POPC   H6S21468   5.484   3.502   2.984 -0.6425  2.7755  1.8714
  187POPC   C2721469   5.597   3.498   3.161 -0.4533  0.7014 -0.1331
  187POPC   H7R21470   5.581   3.606   3.181 -0.6834  0.6076  0.1862
  187POPC   H7S21471   5.699   3.477   3.199 -0.0694  1.0036 -0.9661
  187POPC   C2821472   5.491   3.408   3.226 -0.1355 -0.7973 -0.3068
  187POPC   H8R21473   5.406   3.418   3.156  0.9581  0.2192 -1.5467
  187POPC   H8S21474   5.454   3.450   3.321 -1.1825  1.0928 -1.5023
  187POPC   C2921475   5.537   3.260   3.236  0.6968 -1.2776 -0.1901
  187POPC   H9121476   5.606   3.231   3.155 -0.6501 -5.3882 -0.0815
  187POPC  C21021477   5.511   3.171   3.333  0.0288 -0.2474 -0.3608
  187POPC  H10121478   5.559   3.072   3.333  0.3458 -0.1120  0.4774
  187POPC  C21121479   5.413   3.198   3.448 -0.0350 -0.2380  0.6658
  187POPC  H11R21480   5.313   3.186   3.401 -0.3674  2.8924  0.3724
  187POPC  H11S21481   5.417   3.302   3.486 -3.3054  0.5150 -0.7563
  187POPC  C21221482   5.438   3.108   3.574  0.0709  0.9753 -0.2187
  187POPC  H12R21483   5.547   3.116   3.593  0.8124  0.4840 -3.6424
  187POPC  H12S21484   5.416   3.004   3.541 -1.2029  1.4295 -0.8692
  187POPC  C21321485   5.342   3.160   3.680  0.2641 -0.6810 -0.2659
  187POPC  H13R21486   5.239   3.159   3.637 -0.5646  0.3315  1.5821
  187POPC  H13S21487   5.365   3.265   3.707  1.0235 -0.6516 -0.9784
  187POPC  C21421488   5.340   3.059   3.792 -0.4062 -0.3450 -0.5789
  187POPC  H14R21489   5.443   3.054   3.833 -0.4938 -2.2621 -0.5198
  187POPC  H14S21490   5.327   2.957   3.750  1.5369 -0.7188 -0.3599
  187POPC  C21521491   5.240   3.074   3.904  0.1795  0.0343  0.4058
  187POPC  H15R21492   5.146   3.073   3.846  0.4756  0.0256 -0.0759
  187POPC  H15S21493   5.246   3.174   3.952 -1.8965 -0.1902  1.2355
  187POPC  C21621494   5.238   2.963   4.018 -0.5950 -0.4240  0.0506
  187POPC  H16R21495   5.218   2.866   3.968 -1.1602 -1.7045  2.5827
  187POPC  H16S21496   5.149   2.984   4.082 -1.1319 -1.6255 -0.2769
  187POPC  C21721497   5.357   2.971   4.111  0.6584  0.3446  0.6495
  187POPC  H17R21498   5.372   3.079   4.132 -0.4720  1.3795 -3.1743
  187POPC  H17S21499   5.442   2.923   4.059  0.0047  0.0436 -0.1617
  187POPC  C21821500   5.329   2.896   4.247 -0.3089 -0.3284 -0.0794
  187POPC  H18R21501   5.242   2.940   4.300  0.8907 -0.5406  2.1761
  187POPC  H18S21502   5.407   2.925   4.320 -1.0915  2.3890 -0.2207
  187POPC  H18T21503   5.320   2.785   4.238  0.8130 -0.4630  0.2828
  187POPC   C3321504   5.832   4.335   3.176  0.0137  0.2135  0.4523
  187POPC   H3X21505   5.753   4.257   3.169  1.3183 -1.0264 -1.2096
  187POPC   H3Y21506   5.808   4.441   3.154 -2.1793 -0.1438  0.8768
  187POPC   C3421507   5.905   4.323   3.306  0.0342 -0.1586 -0.4902
  187POPC   H4X21508   6.002   4.375   3.295  0.8893 -0.9326  2.4263
  187POPC   H4Y21509   5.934   4.219   3.332 -0.6047 -0.1122  0.4650
  187POPC   C3521510   5.845   4.394   3.425  0.0557 -0.5287 -0.0180
  187POPC   H5X21511   5.742   4.352   3.432  1.0339 -3.4735 -1.6733
  187POPC   H5Y21512   5.838   4.505   3.419  1.7285 -0.1101  3.2772
  187POPC   C3621513   5.933   4.374   3.553  0.0576 -0.6482  0.2429
  187POPC   H6X21514   5.902   4.449   3.628 -0.3610  0.5112 -1.0435
  187POPC   H6Y21515   6.038   4.397   3.524  0.9956 -1.4710  2.7303
  187POPC   C3721516   5.918   4.234   3.614  0.1003 -0.6002 -0.2569
  187POPC   H7X21517   5.990   4.177   3.552 -0.3785  1.6074 -3.0411
  187POPC   H7Y21518   5.816   4.192   3.600 -0.1404 -0.1187  0.0116
  187POPC   C3821519   5.954   4.238   3.765 -0.1937 -0.5083 -0.7510
  187POPC   H8X21520   5.889   4.301   3.829 -1.0420  0.2862 -2.3689
  187POPC   H8Y21521   6.051   4.292   3.759  0.6874 -1.4707  2.5725
  187POPC   C3921522   5.978   4.096   3.824 -0.5006  0.0454 -0.0013
  187POPC   H9X21523   6.040   4.101   3.916 -0.2843 -1.1396 -0.0664
  187POPC   H9Y21524   6.042   4.046   3.749  2.2615  1.7593  1.0770
  187POPC  C31021525   5.850   4.014   3.838 -0.5489 -1.0891 -0.0147
  187POPC  H10X21526   5.794   4.030   3.743 -0.2955 -2.9455 -0.5049
  187POPC  H10Y21527   5.783   4.059   3.914  0.3206  1.1524 -0.4903
  187POPC  C31121528   5.875   3.867   3.866 -0.3274 -0.3600  0.1825
  187POPC  H11X21529   5.945   3.816   3.796 -0.7997 -2.3539  1.0950
  187POPC  H11Y21530   5.773   3.823   3.863 -0.3218 -0.4134  0.7913
  187POPC  C31221531   5.945   3.854   4.001 -0.1081 -0.8811 -0.3502
  187POPC  H12X21532   5.891   3.921   4.072  1.4396  0.0534 -0.0095
  187POPC  H12Y21533   6.049   3.892   4.004 -0.5404  0.3463 -0.4332
  187POPC  C31321534   5.956   3.711   4.041  0.2231 -0.1098 -0.4014
  187POPC  H13X21535   6.003   3.653   3.959  1.7008 -0.3082  0.5407
  187POPC  H13Y21536   5.852   3.673   4.050  0.2315  0.2726  2.2057
  187POPC  C31421537   6.033   3.708   4.172  0.2578  0.0840 -0.0451
  187POPC  H14X21538   5.973   3.768   4.243  0.3266 -0.6109  0.6164
  187POPC  H14Y21539   6.133   3.757   4.175  1.8533 -2.9092 -0.5043
  187POPC  C31521540   6.049   3.567   4.228  0.0374  0.2064  0.0070
  187POPC  H15X21541   6.097   3.558   4.328  0.8733 -1.2051 -0.4870
  187POPC  H15Y21542   6.119   3.510   4.164  2.2032 -0.2424  2.5734
  187POPC  C31621543   5.919   3.489   4.236 -0.2145  0.1075 -0.1273
  187POPC  H16X21544   5.886   3.455   4.136  1.8888  0.5312 -1.0086
  187POPC  H16Y21545   5.842   3.552   4.287  1.5106  0.4661  2.2094
  187POPC  H16Z21546   5.940   3.395   4.291  0.2751  0.4430  0.2704
  188POPC     N21547   4.624   5.829   2.439  0.1914 -0.2314 -0.3375
  188POPC   C1221548   4.773   5.840   2.410 -0.5284 -0.2640 -0.9604
  188POPC  H12A21549   4.818   5.847   2.508 -0.0226 -0.1858 -1.1961
  188POPC  H12B21550   4.800   5.938   2.374  2.2826 -0.7524 -0.4179
  188POPC   C1321551   4.540   5.811   2.311 -0.1538  0.0495 -0.5102
  188POPC  H13A21552   4.435   5.818   2.333 -0.6990  1.4023 -3.1089
  188POPC  H13B21553   4.577   5.883   2.239  0.9020 -0.2790 -0.3198
  188POPC  H13C21554   4.562   5.713   2.270 -1.5616 -1.0695  1.2485
  188POPC   C1421555   4.586   5.713   2.533 -0.8906 -0.4227 -0.0290
  188POPC  H14A21556   4.613   5.615   2.496  1.9958  0.3984 -0.4096
  188POPC  H14B21557   4.640   5.717   2.627 -0.7996  0.4898 -0.1077
  188POPC  H14C21558   4.483   5.723   2.562 -1.4003 -0.0733 -1.8496
  188POPC   C1521559   4.574   5.955   2.501 -0.3555 -0.3889 -0.0769
  188POPC  H15A21560   4.633   5.978   2.588 -0.4224 -0.2561 -0.0676
  188POPC  H15B21561   4.476   5.949   2.545 -1.4215  0.8860 -2.1146
  188POPC  H15C21562   4.586   6.040   2.435 -1.2100 -0.6085 -0.5314
  188POPC   C1121563   4.846   5.728   2.330  0.8447 -0.2940 -0.7062
  188POPC  H11A21564   4.955   5.748   2.335  1.0883 -1.8297  1.1088
  188POPC  H11B21565   4.804   5.740   2.228 -0.6280  0.1288 -0.0884
  188POPC     P21566   4.893   5.534   2.506 -0.0909 -0.3324 -0.6767
  188POPC   O1321567   5.038   5.523   2.492  0.0085 -0.3072 -0.2254
  188POPC   O1421568   4.833   5.403   2.539  0.0880  0.0081  0.4256
  188POPC   O1221569   4.830   5.597   2.385 -0.2298 -1.0308 -0.0191
  188POPC   O1121570   4.857   5.630   2.632  0.0341 -0.1063  0.1859
  188POPC    C121571   4.958   5.703   2.703 -0.4342  0.2929 -0.6282
  188POPC    HA21572   4.920   5.789   2.763 -0.0891  1.2093 -1.6782
  188POPC    HB21573   5.023   5.745   2.623 -2.1268  1.6966 -1.3489
  188POPC    C221574   5.048   5.613   2.807 -0.0950 -0.0995  0.9857
  188POPC    HS21575   5.092   5.539   2.737  1.6558 -0.1299  2.0674
  188POPC   O2121576   4.953   5.546   2.897 -0.4392 -0.9222  0.5501
  188POPC   C2121577   5.006   5.427   2.938  0.4561 -0.2855  0.3537
  188POPC   O2221578   5.095   5.363   2.892 -0.2657  0.0324  0.6504
  188POPC   C2221579   4.948   5.397   3.078  0.4634  0.4505  0.6029
  188POPC   H2R21580   4.971   5.291   3.101 -5.5259 -1.5153 -0.4901
  188POPC   H2S21581   4.838   5.412   3.069  0.2930 -1.0247 -0.0934
  188POPC    C321582   5.163   5.697   2.868  0.8141 -0.1458  0.1013
  188POPC    HX21583   5.112   5.775   2.929 -1.1895 -1.6306  0.4376
  188POPC    HY21584   5.211   5.766   2.796 -1.3864  1.1930 -0.1788
  188POPC   O3121585   5.253   5.621   2.956  0.2415 -0.1624 -0.3268
  188POPC   C3121586   5.344   5.554   2.880 -0.5227 -0.5301  0.4285
  188POPC   O3221587   5.348   5.560   2.756 -0.4750 -0.4394 -0.7250
  188POPC   C3221588   5.459   5.510   2.979 -0.4264  1.0391 -0.0674
  188POPC   H2X21589   5.416   5.524   3.080 -1.8301  0.2390 -0.5238
  188POPC   H2Y21590   5.544   5.578   2.958 -0.1034  0.4425 -0.7569
  188POPC   C2321591   5.002   5.482   3.197  0.1874 -0.2066  1.3575
  188POPC   H3R21592   4.971   5.588   3.182  1.4293  0.1651  1.3348
  188POPC   H3S21593   5.112   5.477   3.206  0.4111  0.1453 -0.7067
  188POPC   C2421594   4.941   5.431   3.325 -0.1047 -0.2743 -1.1955
  188POPC   H4R21595   4.970   5.323   3.329  1.6682  0.2133  0.4148
  188POPC   H4S21596   4.831   5.424   3.315 -0.2383 -0.5915  0.3412
  188POPC   C2521597   4.987   5.502   3.447 -0.5942  0.4149 -0.7159
  188POPC   H5R21598   4.953   5.608   3.439 -4.6788 -0.5710  0.7032
  188POPC   H5S21599   5.096   5.494   3.463 -0.5817  0.8534 -0.5510
  188POPC   C2621600   4.916   5.448   3.581  0.1065 -0.0692 -0.1421
  188POPC   H6R21601   4.966   5.353   3.613  0.6067  0.4630  0.6848
  188POPC   H6S21602   4.810   5.437   3.550  0.2030  1.9862 -1.3520
  188POPC   C2721603   4.913   5.559   3.687  0.5710 -1.1819  0.0084
  188POPC   H7R21604   4.872   5.654   3.644 -0.4690 -1.1254  1.0622
  188POPC   H7S21605   5.018   5.569   3.722  0.5285 -1.0738  0.1067
  188POPC   C2821606   4.812   5.515   3.799  0.8444 -0.1993 -0.0945
  188POPC   H8R21607   4.710   5.521   3.756  0.2184 -3.3021  0.6740
  188POPC   H8S21608   4.814   5.602   3.868  2.7774 -0.1413 -0.1797
  188POPC   C2921609   4.833   5.385   3.873 -0.6055 -0.4665 -0.0184
  188POPC   H9121610   4.812   5.298   3.809 -0.9244  0.0439 -0.6214
  188POPC  C21021611   4.859   5.371   4.002 -0.3378  0.2315 -0.2595
  188POPC  H10121612   4.888   5.273   4.041 -0.3258  1.4396  3.0149
  188POPC  C21121613   4.870   5.484   4.099 -0.1970  0.7474  0.2276
  188POPC  H11R21614   4.870   5.585   4.055 -1.5257  0.5371 -0.2902
  188POPC  H11S21615   4.958   5.471   4.166 -0.1572 -0.8491 -0.0968
  188POPC  C21221616   4.756   5.487   4.198  0.3666  0.4820  0.1383
  188POPC  H12R21617   4.716   5.393   4.242  0.4997  1.7267  3.1963
  188POPC  H12S21618   4.671   5.535   4.144  1.8775 -0.0502 -2.9227
  188POPC  C21321619   4.784   5.582   4.305 -1.1745 -0.0777 -0.5083
  188POPC  H13R21620   4.693   5.609   4.363 -1.7300  1.0819 -1.8769
  188POPC  H13S21621   4.840   5.670   4.266  0.7654 -0.0671  2.0087
  188POPC  C21421622   4.886   5.531   4.411 -0.1290  0.7759 -0.3744
  188POPC  H14R21623   4.884   5.600   4.498 -2.7861  0.2443  0.0761
  188POPC  H14S21624   4.986   5.535   4.363  0.2594 -1.0990  0.2120
  188POPC  C21521625   4.864   5.386   4.466 -0.0704 -0.3518 -0.1804
  188POPC  H15R21626   4.876   5.321   4.377 -0.9984  1.5188 -1.7707
  188POPC  H15S21627   4.760   5.382   4.504  0.6059 -0.0541  1.8201
  188POPC  C21621628   4.953   5.351   4.591 -0.5478 -0.4407 -0.2975
  188POPC  H16R21629   4.905   5.381   4.687 -0.3365 -0.7565 -0.0938
  188POPC  H16S21630   5.047   5.409   4.582 -0.2249 -0.9573 -0.2726
  188POPC  C21721631   4.990   5.206   4.592  0.1696 -0.0543  0.1832
  188POPC  H17R21632   5.051   5.178   4.504  1.1822 -1.1522  1.1938
  188POPC  H17S21633   4.897   5.145   4.603 -1.1748  0.7993 -4.3456
  188POPC  C21821634   5.066   5.166   4.718 -0.3383  1.0458  0.2975
  188POPC  H18R21635   5.079   5.058   4.739 -0.4040  1.4640  2.7572
  188POPC  H18S21636   5.019   5.205   4.810 -1.1992  0.2998  0.1886
  188POPC  H18T21637   5.168   5.209   4.723 -0.8166  2.1686  0.6568
  188POPC   C3321638   5.501   5.361   2.951 -0.0842 -0.8422 -0.1234
  188POPC   H3X21639   5.513   5.344   2.842  0.0438 -0.1433 -0.2264
  188POPC   H3Y21640   5.423   5.288   2.980 -1.6670  0.8857  0.1355
  188POPC   C3421641   5.638   5.330   3.028  0.3671 -0.2632  1.2661
  188POPC   H4X21642   5.718   5.402   3.000 -0.8372  0.1474 -1.4338
  188POPC   H4Y21643   5.679   5.231   2.999  0.8704  0.4422 -0.5520
  188POPC   C3521644   5.611   5.334   3.180 -0.5135  0.8857 -0.0749
  188POPC   H5X21645   5.525   5.269   3.207 -1.3773  1.9581 -0.1956
  188POPC   H5Y21646   5.582   5.438   3.207  0.8397  0.9239  1.3418
  188POPC   C3621647   5.735   5.294   3.259 -0.6901 -0.2383  0.7643
  188POPC   H6X21648   5.807   5.370   3.221 -3.0473  1.7779  0.0995
  188POPC   H6Y21649   5.772   5.196   3.219  0.1813  0.5518 -0.4635
  188POPC   C3721650   5.714   5.292   3.407 -0.0474  1.2454 -0.7053
  188POPC   H7X21651   5.650   5.206   3.436 -1.5773  2.7028  0.4450
  188POPC   H7Y21652   5.662   5.382   3.444  0.0658  1.4542 -1.0521
  188POPC   C3821653   5.848   5.271   3.485  0.0145 -0.2322  1.2726
  188POPC   H8X21654   5.920   5.347   3.449 -0.9242 -0.0802 -0.3312
  188POPC   H8Y21655   5.897   5.177   3.453 -3.3116 -1.6894 -0.0114
  188POPC   C3921656   5.824   5.261   3.634 -0.2278  0.7320 -0.6877
  188POPC   H9X21657   5.922   5.220   3.668 -0.4710  0.5996 -0.1251
  188POPC   H9Y21658   5.743   5.192   3.667  0.7350  0.2096  0.6664
  188POPC  C31021659   5.803   5.391   3.707 -0.0932 -0.4042 -0.0830
  188POPC  H10X21660   5.728   5.459   3.660 -0.1651 -0.8139 -0.5605
  188POPC  H10Y21661   5.899   5.446   3.718  0.0320 -0.4313 -1.0432
  188POPC  C31121662   5.753   5.368   3.848 -0.0156 -0.6396  0.1305
  188POPC  H11X21663   5.779   5.265   3.879  1.8041  0.2552  1.7377
  188POPC  H11Y21664   5.642   5.358   3.851  0.0684 -3.5309 -2.0070
  188POPC  C31221665   5.809   5.461   3.951  0.6656 -1.0690  0.3108
  188POPC  H12X21666   5.919   5.468   3.936  0.2719  2.0670 -2.2876
  188POPC  H12Y21667   5.788   5.421   4.053  0.6863 -0.7601  0.4368
  188POPC  C31321668   5.769   5.609   3.926  0.0170  0.0524 -0.4103
  188POPC  H13X21669   5.659   5.598   3.927  0.0875 -1.0112 -1.7470
  188POPC  H13Y21670   5.788   5.643   3.822 -1.3323  1.9723 -0.0742
  188POPC  C31421671   5.847   5.710   4.009 -0.0744  0.0097 -0.0121
  188POPC  H14X21672   5.872   5.795   3.942 -1.2383  0.7582  0.4733
  188POPC  H14Y21673   5.942   5.663   4.041 -0.6805 -1.8124 -0.7114
  188POPC  C31521674   5.780   5.747   4.143 -0.4280  0.4446  0.1795
  188POPC  H15X21675   5.781   5.651   4.201  1.4395 -0.0659 -0.6156
  188POPC  H15Y21676   5.677   5.775   4.114 -0.8353  0.1712  1.3052
  188POPC  C31621677   5.856   5.862   4.207  0.2438  0.1957 -0.1914
  188POPC  H16X21678   5.959   5.830   4.234 -0.7886 -2.2912  1.1819
  188POPC  H16Y21679   5.804   5.898   4.299  1.2741  0.3298  0.3477
  188POPC  H16Z21680   5.844   5.947   4.136 -2.5166  1.1234  1.2247
  189SAPI   C1221681   1.959   2.301   6.427  0.5216 -0.5066  0.5034
  189SAPI    H221682   1.981   2.399   6.380 -2.7033 -0.0181 -0.2323
  189SAPI    O221683   1.899   2.205   6.333 -0.6213  0.0390 -0.2371
  189SAPI   HO221684   1.968   2.158   6.284 -0.8982 -0.5611 -0.0629
  189SAPI   C1321685   2.087   2.242   6.474  0.1857 -0.4126 -0.7226
  189SAPI    H321686   2.124   2.315   6.550 -0.6134  0.7948 -1.4583
  189SAPI    O321687   2.191   2.236   6.379  0.5782 -0.0035  0.1587
  189SAPI   HO321688   2.228   2.322   6.360  3.0696 -1.2689 -1.3963
  189SAPI   C1421689   2.062   2.109   6.547 -0.5498 -0.2959  0.2330
  189SAPI    H421690   2.028   2.033   6.473  0.3519  1.1199 -1.7219
  189SAPI    O421691   2.182   2.067   6.610  0.1212  0.5242  0.2201
  189SAPI   HO421692   2.195   1.972   6.606  2.3195  0.6715  1.7926
  189SAPI   C1521693   1.956   2.120   6.657  0.2708  0.3378  0.2882
  189SAPI    H521694   2.007   2.151   6.751  0.6275 -0.7647  0.4730
  189SAPI    O521695   1.915   1.983   6.695 -0.0184 -0.9562 -0.4685
  189SAPI   HO521696   1.965   1.936   6.763 -0.3101  1.9916  1.9924
  189SAPI   C1621697   1.839   2.211   6.629 -0.3643  0.1886 -0.6482
  189SAPI    H621698   1.770   2.142   6.575  0.8136 -1.9990  0.5192
  189SAPI    O621699   1.785   2.258   6.751 -0.3270  0.0259  0.2948
  189SAPI   HO621700   1.693   2.230   6.761 -0.2917  0.1430  1.0323
  189SAPI   C1121701   1.874   2.335   6.540  0.5512 -0.0640  0.2282
  189SAPI    H121702   1.925   2.412   6.602  2.4398  0.9533 -2.4298
  189SAPI     P21703   1.684   2.535   6.533  0.1307  0.3167  0.0471
  189SAPI   O1321704   1.752   2.584   6.658 -0.0672 -0.2191  0.6255
  189SAPI   O1421705   1.537   2.519   6.534 -0.3888 -0.2408 -0.4875
  189SAPI   O1221706   1.743   2.385   6.499 -0.2334  0.2251 -0.0263
  189SAPI   O1121707   1.729   2.628   6.417  0.2759  0.1078 -0.6652
  189SAPI    C121708   1.864   2.678   6.409 -0.6810 -0.2794 -0.0083
  189SAPI    HA21709   1.878   2.753   6.490  0.5167 -0.4034 -0.0804
  189SAPI    HB21710   1.943   2.601   6.424 -2.6047 -2.4502 -0.4713
  189SAPI    C221711   1.890   2.738   6.264 -0.4265 -0.1565  0.1486
  189SAPI    HS21712   1.970   2.814   6.269  0.2326 -0.8988  1.3283
  189SAPI   O2121713   1.770   2.788   6.211  0.1647 -0.2953 -0.0057
  189SAPI   C2121714   1.711   2.886   6.270 -0.0449  0.6949 -0.0473
  189SAPI   O2221715   1.759   2.974   6.342 -0.4657  0.0771  0.1165
  189SAPI   C2221716   1.562   2.881   6.241 -0.4548  0.3505 -0.8905
  189SAPI   H2R21717   1.543   2.779   6.201 -0.1031  0.2252 -0.7401
  189SAPI   H2S21718   1.512   2.906   6.337 -0.4266  0.7410 -0.9760
  189SAPI    C321719   1.927   2.621   6.168  0.3718 -0.4851  0.1063
  189SAPI    HX21720   1.840   2.552   6.177  0.2244 -0.4474 -0.8867
  189SAPI    HY21721   2.017   2.577   6.216  0.3565  0.0747  0.6545
  189SAPI   O3121722   1.953   2.657   6.036 -0.3435 -0.0559 -0.0412
  189SAPI   C3121723   1.890   2.586   5.943 -0.1131 -0.2740  1.0200
  189SAPI   O3221724   1.825   2.484   5.953  0.8143 -1.0403  0.2024
  189SAPI   C3221725   1.911   2.654   5.804  0.4304  0.4727 -0.3060
  189SAPI   H2X21726   1.916   2.761   5.834 -1.8082  0.2090  1.2566
  189SAPI   H2Y21727   1.813   2.637   5.755  0.7811  1.8638 -1.5809
  189SAPI   C2321728   1.516   2.988   6.141 -0.3181  0.1331  0.3126
  189SAPI   H3R21729   1.596   3.023   6.071 -0.7622 -0.5769 -0.5826
  189SAPI   H3S21730   1.489   3.081   6.195 -1.6646  0.0055 -0.1102
  189SAPI   C2421731   1.390   2.938   6.056 -0.6639 -0.3253  0.2253
  189SAPI   H4R21732   1.309   2.887   6.111  0.3139 -1.7845  0.3698
  189SAPI   H4S21733   1.431   2.874   5.976  1.0812  3.4671 -2.2357
  189SAPI   C2521734   1.328   3.062   5.987  0.0443  0.2770  0.5059
  189SAPI   H5R21735   1.316   3.145   6.058  0.3689  0.5805  0.2154
  189SAPI   C2621736   1.308   3.084   5.857  0.9861  0.2569 -0.4468
  189SAPI   H6R21737   1.257   3.179   5.833  1.2421  0.1805 -1.3285
  189SAPI   C2721738   1.314   2.983   5.745 -0.4390 -0.7952 -0.6674
  189SAPI   H7R21739   1.211   2.982   5.704 -0.8391 -1.8611  0.3053
  189SAPI   H7S21740   1.330   2.881   5.786 -1.9708  0.2755  2.9885
  189SAPI   C2821741   1.418   3.021   5.640 -0.5109  0.3972 -0.5877
  189SAPI   H8R21742   1.521   3.026   5.678 -0.5522  1.0132 -0.5532
  189SAPI   C2921743   1.404   3.045   5.507 -0.0841  0.0194  0.5313
  189SAPI   H9R21744   1.476   3.082   5.432 -2.1421  0.0042 -1.5428
  189SAPI  C21021745   1.262   3.047   5.446 -0.0234  0.1196  0.4975
  189SAPI  H10R21746   1.198   2.987   5.514  0.4266 -2.2774 -1.0596
  189SAPI  H10S21747   1.261   2.991   5.350  1.0508 -0.9876  1.1032
  189SAPI  C21121748   1.191   3.178   5.436  0.0131  0.0959  0.3048
  189SAPI  H11R21749   1.207   3.247   5.520  1.9569 -1.3322  1.1867
  189SAPI  C21221750   1.103   3.223   5.343  0.0444 -0.6708 -0.9656
  189SAPI  H12R21751   1.051   3.319   5.354  0.9662 -0.0744 -1.6331
  189SAPI  C21321752   1.065   3.144   5.222 -0.2415 -0.3816  0.0977
  189SAPI  H13R21753   1.063   3.033   5.231  0.4401 -0.9216 -4.2438
  189SAPI  H13S21754   1.144   3.163   5.147  0.0082  1.4124  0.7651
  189SAPI  C21421755   0.930   3.196   5.181  0.2554 -0.3632 -0.2456
  189SAPI  H14R21756   0.852   3.195   5.259  0.1594  0.2198 -0.3251
  189SAPI  C21521757   0.896   3.234   5.057  0.1180 -0.4607  0.1772
  189SAPI  H15R21758   0.792   3.264   5.034  0.4909  0.9889  0.2832
  189SAPI  C21621759   0.992   3.239   4.938  0.0367  0.5869  0.3646
  189SAPI  H16R21760   1.043   3.141   4.946 -2.9460 -1.1516 -0.2049
  189SAPI  H16S21761   1.059   3.326   4.927  0.9033  0.0415  1.1720
  189SAPI  C21721762   0.911   3.247   4.804 -0.2127  0.1681  0.4727
  189SAPI  H17R21763   0.839   3.332   4.814  0.9432  1.1834  0.3573
  189SAPI  H17S21764   0.854   3.152   4.798 -0.5092  0.2592  1.6045
  189SAPI  C21821765   0.997   3.268   4.678  0.0654 -0.9761 -0.3588
  189SAPI  H18R21766   1.069   3.184   4.668 -0.2145 -1.1143 -1.2741
  189SAPI  H18S21767   1.058   3.361   4.687 -1.5158 -0.0365  1.7389
  189SAPI  C21921768   0.908   3.280   4.552  0.7883 -0.2023  0.3471
  189SAPI  H19R21769   0.848   3.187   4.547  1.8792 -1.0692  2.2832
  189SAPI  H19S21770   0.991   3.278   4.477  0.4472 -0.2830 -0.0291
  189SAPI  C22021771   0.835   3.413   4.529  0.3634  0.3931  0.2200
  189SAPI  H20R21772   0.900   3.503   4.529  0.3946  0.4093 -1.6500
  189SAPI  H20S21773   0.745   3.426   4.592  0.3469  0.3251  0.2100
  189SAPI  H20T21774   0.812   3.413   4.421  2.8532 -1.0678 -0.3867
  189SAPI   C3321775   2.030   2.591   5.734 -0.1626 -0.5547 -0.7787
  189SAPI   H3X21776   1.999   2.488   5.706  1.0334 -0.7350 -1.5072
  189SAPI   H3Y21777   2.109   2.573   5.809 -1.5324 -0.7461  0.6685
  189SAPI   C3421778   2.083   2.681   5.622  0.3220  0.0535  0.1529
  189SAPI   H4X21779   2.156   2.754   5.662  1.3888 -0.4681 -0.8011
  189SAPI   H4Y21780   1.995   2.729   5.574 -1.0640  0.5077  2.8825
  189SAPI   C3521781   2.166   2.587   5.529  0.1989 -0.7765  0.2034
  189SAPI   H5X21782   2.087   2.518   5.494 -0.3578 -0.8738  1.6204
  189SAPI   H5Y21783   2.243   2.529   5.586 -1.0509 -2.2135  0.4960
  189SAPI   C3621784   2.236   2.666   5.417 -0.1336  0.8452 -0.3398
  189SAPI   H6X21785   2.292   2.594   5.354  1.1597  1.0599  0.5153
  189SAPI   H6Y21786   2.311   2.731   5.468 -0.1091 -1.0614  2.2911
  189SAPI   C3721787   2.148   2.733   5.325  1.1560 -0.9183  0.2815
  189SAPI   H7X21788   2.120   2.837   5.354  0.7846 -0.3474 -1.9515
  189SAPI   H7Y21789   2.055   2.673   5.315 -0.8026  1.5797  1.9307
  189SAPI   C3821790   2.208   2.765   5.179  0.2994  0.3980  0.1898
  189SAPI   H8X21791   2.304   2.815   5.203  0.7457 -1.1541  1.8099
  189SAPI   H8Y21792   2.139   2.833   5.124  0.4937 -0.8311 -1.6661
  189SAPI   C3921793   2.238   2.644   5.094 -0.1375  1.0540 -0.5548
  189SAPI   H9X21794   2.134   2.619   5.063 -0.2544  0.5864  0.1867
  189SAPI   H9Y21795   2.282   2.562   5.154 -1.3030 -0.5762 -1.8524
  189SAPI  C31021796   2.330   2.673   4.973 -0.0271 -0.8128  0.0877
  189SAPI  H10X21797   2.432   2.713   4.995 -1.1830  1.9749  0.7216
  189SAPI  H10Y21798   2.275   2.757   4.926  0.7118  0.4686  1.4613
  189SAPI  C31121799   2.334   2.552   4.884 -0.1503  0.2337 -0.1377
  189SAPI  H11X21800   2.229   2.516   4.883 -0.1211 -0.2307  3.0411
  189SAPI  H11Y21801   2.403   2.471   4.915 -0.8848 -0.4493 -0.2525
  189SAPI  C31221802   2.382   2.590   4.742  0.5385  0.6282 -0.7586
  189SAPI  H12X21803   2.393   2.490   4.694 -3.4396 -0.4049  0.0984
  189SAPI  H12Y21804   2.482   2.640   4.738  1.3822 -0.7625  1.3566
  189SAPI  C31321805   2.276   2.660   4.661 -0.8365 -0.1908 -0.5229
  189SAPI  H13X21806   2.248   2.752   4.718  0.4112 -0.0770 -0.0682
  189SAPI  H13Y21807   2.181   2.604   4.644 -0.0741 -2.7313  2.7178
  189SAPI  C31421808   2.326   2.691   4.527  0.9350 -0.7763  1.0308
  189SAPI  H14X21809   2.326   2.596   4.470 -1.5878 -0.2914  0.1074
  189SAPI  H14Y21810   2.429   2.733   4.526 -0.2322  2.3835 -0.7740
  189SAPI  C31521811   2.235   2.801   4.467 -1.2086  0.1827 -1.1279
  189SAPI  H15X21812   2.215   2.880   4.543 -0.4391 -0.0292 -0.6933
  189SAPI  H15Y21813   2.134   2.757   4.453 -1.1860 -0.2837  0.0317
  189SAPI  C31621814   2.287   2.857   4.337 -0.5001 -0.4736  0.2413
  189SAPI  H16X21815   2.296   2.777   4.261  1.7008  0.1406 -0.2143
  189SAPI  H16Y21816   2.389   2.896   4.356 -0.9075  0.8456 -0.1388
  189SAPI  C31721817   2.183   2.969   4.284 -0.6651 -0.0064  0.1367
  189SAPI  H17X21818   2.190   3.057   4.351  1.2145  0.6139 -0.7923
  189SAPI  H17Y21819   2.079   2.934   4.302 -0.7948 -0.7129 -1.7233
  189SAPI  C31821820   2.201   3.024   4.140 -0.8911 -0.3464 -0.6811
  189SAPI  H18X21821   2.308   3.043   4.117 -1.0327  0.8220 -0.4633
  189SAPI  H18Y21822   2.163   3.128   4.141  0.5909  0.2250 -0.6414
  189SAPI  H18Z21823   2.142   2.966   4.066 -2.4420  0.7591 -0.3569
  190SAPI   C1221824   5.944   0.816   6.911 -0.2020 -0.0950 -0.3313
  190SAPI    H221825   5.930   0.926   6.905  1.1177  0.0048 -3.2755
  190SAPI    O221826   6.070   0.809   6.978  0.1068 -0.0099  0.3783
  190SAPI   HO221827   6.099   0.899   6.995 -3.0743  0.8044  2.2595
  190SAPI   C1321828   5.829   0.755   6.988  0.1108  0.9463  0.9217
  190SAPI    H321829   5.732   0.771   6.937  0.3622  1.4635  0.5982
  190SAPI    O321830   5.832   0.809   7.126  0.2174 -0.9233 -0.4168
  190SAPI   HO321831   5.925   0.805   7.149  0.3717  0.2185 -0.7586
  190SAPI   C1421832   5.855   0.600   7.002  0.2325 -0.0377  0.6476
  190SAPI    H421833   5.944   0.590   7.067  1.2470  0.9002 -0.5401
  190SAPI    O421834   5.744   0.540   7.072 -0.7851 -0.1638  0.0201
  190SAPI   HO421835   5.769   0.458   7.116 -0.2167 -0.0042  0.0002
  190SAPI   C1521836   5.879   0.542   6.865  0.8627  0.0857 -0.6293
  190SAPI    H521837   5.780   0.533   6.816  0.0727  1.2439  0.6820
  190SAPI    O521838   5.927   0.410   6.887 -0.4359 -0.2547 -0.0527
  190SAPI   HO521839   5.861   0.372   6.945 -1.5949  0.0829 -1.1105
  190SAPI   C1621840   5.956   0.618   6.760  0.1664 -0.4823  0.1314
  190SAPI    H621841   6.064   0.601   6.782  0.1210 -0.4523  0.3858
  190SAPI    O621842   5.918   0.572   6.629 -0.0715  0.7021 -0.2230
  190SAPI   HO621843   5.827   0.601   6.618 -0.6157 -0.4848  0.7803
  190SAPI   C1121844   5.928   0.768   6.764 -0.0550  0.5218  0.5419
  190SAPI    H121845   5.828   0.781   6.717  2.0187 -0.7471 -5.0135
  190SAPI     P21846   5.996   0.973   6.611  0.3534 -0.3144 -0.1068
  190SAPI   O1321847   6.125   1.033   6.572 -0.3463  0.0857  0.4817
  190SAPI   O1421848   5.898   1.057   6.682 -0.2006 -0.0001  0.3573
  190SAPI   O1221849   6.031   0.835   6.695 -0.1347  0.2067  0.0725
  190SAPI   O1121850   5.922   0.920   6.480  0.6364  0.4760  0.3651
  190SAPI    C121851   5.990   0.844   6.382  0.5026 -0.5001 -0.0948
  190SAPI    HA21852   6.099   0.863   6.385  0.7860 -1.7103 -1.3788
  190SAPI    HB21853   5.975   0.735   6.398  2.2894 -0.5688  1.3559
  190SAPI    C221854   5.951   0.892   6.245 -0.1254  0.1255  0.3091
  190SAPI    HS21855   5.984   0.996   6.229 -0.6921  0.1842 -0.6146
  190SAPI   O2121856   5.804   0.884   6.235  0.4424  0.0316  0.0404
  190SAPI   C2121857   5.750   0.974   6.160  0.6007 -1.1494  0.3020
  190SAPI   O2221858   5.806   1.083   6.135  0.2899 -0.2309 -0.3393
  190SAPI   C2221859   5.607   0.932   6.116  0.0855  0.4137 -0.8751
  190SAPI   H2R21860   5.591   0.824   6.134 -0.3992  0.9224  2.4103
  190SAPI   H2S21861   5.547   0.986   6.192  0.6594 -1.5713  1.0785
  190SAPI    C321862   6.012   0.806   6.132 -0.1316 -0.4695  0.1702
  190SAPI    HX21863   5.974   0.702   6.124  0.2104 -0.5284 -1.0180
  190SAPI    HY21864   6.117   0.775   6.151 -0.0159  0.4537  1.1106
  190SAPI   O3121865   5.997   0.875   6.007 -0.2905 -0.0009 -0.2393
  190SAPI   C3121866   6.103   0.953   5.982 -0.0245 -0.6724  0.0778
  190SAPI   O3221867   6.193   0.979   6.061  0.2772 -0.7757 -0.4896
  190SAPI   C3221868   6.091   0.991   5.830 -0.3786 -0.2723 -0.0621
  190SAPI   H2X21869   6.180   1.053   5.805 -1.2742  0.6577 -1.0350
  190SAPI   H2Y21870   6.000   1.054   5.832 -0.6412 -0.6560  0.3489
  190SAPI   C2321871   5.582   0.978   5.971  0.1884  0.3748  0.7998
  190SAPI   H3R21872   5.557   1.087   5.970  2.1112  0.8490 -0.0063
  190SAPI   H3S21873   5.489   0.930   5.936  1.8303 -2.3923 -0.0524
  190SAPI   C2421874   5.679   0.949   5.862 -0.5749 -0.4617  0.3195
  190SAPI   H4R21875   5.776   1.004   5.865  0.5820 -2.3099 -1.3020
  190SAPI   H4S21876   5.639   0.990   5.767  0.3860 -0.4784 -0.1036
  190SAPI   C2521877   5.721   0.805   5.848  0.6250  0.2970 -0.1071
  190SAPI   H5R21878   5.789   0.767   5.926 -0.7721 -1.6251  0.2318
  190SAPI   C2621879   5.662   0.712   5.762 -0.6185  0.6097 -0.4695
  190SAPI   H6R21880   5.719   0.618   5.761 -0.5696  0.5114  2.3186
  190SAPI   C2721881   5.559   0.732   5.651  0.2800  0.5069 -0.7888
  190SAPI   H7R21882   5.480   0.806   5.672 -2.0982 -1.7958 -1.0849
  190SAPI   H7S21883   5.501   0.637   5.648 -1.4265  1.4443  0.7097
  190SAPI   C2821884   5.627   0.755   5.518 -0.2847  1.0289 -0.0185
  190SAPI   H8R21885   5.710   0.686   5.499 -0.3290  1.0615 -0.3324
  190SAPI   C2921886   5.588   0.842   5.420 -0.2225  0.0002  0.3325
  190SAPI   H9R21887   5.652   0.849   5.330  3.3554  3.1049  2.7843
  190SAPI  C21021888   5.481   0.949   5.426 -0.9581 -0.1162  0.1698
  190SAPI  H10R21889   5.396   0.914   5.489 -1.2221 -0.2351 -0.2529
  190SAPI  H10S21890   5.433   0.972   5.329 -0.8648 -0.0619  0.1369
  190SAPI  C21121891   5.538   1.079   5.473 -0.5440 -0.0157 -0.2569
  190SAPI  H11R21892   5.537   1.088   5.583 -1.6012 -0.0423 -0.2529
  190SAPI  C21221893   5.617   1.163   5.408 -0.3164  0.0479  1.0466
  190SAPI  H12R21894   5.654   1.256   5.454  1.9964 -0.1084 -0.3337
  190SAPI  C21321895   5.653   1.139   5.262  0.8152  0.3918 -0.6607
  190SAPI  H13R21896   5.555   1.124   5.212 -0.2885 -0.2925  1.5738
  190SAPI  H13S21897   5.711   1.045   5.253  0.4839 -0.1337  1.7934
  190SAPI  C21421898   5.725   1.249   5.206 -0.1450 -0.4783  0.8732
  190SAPI  H14R21899   5.810   1.280   5.267  3.1314 -0.8010 -3.1070
  190SAPI  C21521900   5.698   1.318   5.093 -0.7905 -0.1162 -1.0060
  190SAPI  H15R21901   5.769   1.398   5.069 -1.2145  0.2351 -1.0951
  190SAPI  C21621902   5.580   1.298   5.008 -0.2008 -0.4662  0.3371
  190SAPI  H16R21903   5.495   1.250   5.060  0.6262 -1.4147  0.8405
  190SAPI  H16S21904   5.607   1.231   4.923 -0.8522  0.0877 -0.3187
  190SAPI  C21721905   5.511   1.425   4.965  0.0624  0.0986  0.1035
  190SAPI  H17R21906   5.578   1.512   4.944 -0.9764  0.7851 -0.5021
  190SAPI  H17S21907   5.455   1.455   5.056  0.9918  1.2560  0.3163
  190SAPI  C21821908   5.419   1.399   4.847 -0.2368  0.2106  0.3741
  190SAPI  H18R21909   5.343   1.480   4.849 -2.4899 -1.6644 -1.8028
  190SAPI  H18S21910   5.369   1.300   4.856 -0.7664  0.4438  0.0736
  190SAPI  C21921911   5.486   1.405   4.712  0.7681  0.1055  0.9311
  190SAPI  H19R21912   5.593   1.383   4.731  0.9832  1.2384  1.1080
  190SAPI  H19S21913   5.485   1.511   4.679 -0.8254 -0.4427 -0.9553
  190SAPI  C22021914   5.436   1.308   4.604 -0.5610 -0.5114 -0.3605
  190SAPI  H20R21915   5.440   1.208   4.653 -3.2181 -0.1407  0.8292
  190SAPI  H20S21916   5.485   1.306   4.505 -0.0835 -0.8572 -0.1210
  190SAPI  H20T21917   5.328   1.320   4.579 -0.5883 -0.3282 -0.1627
  190SAPI   C3321918   6.077   0.873   5.732  0.0313  0.6379 -0.2019
  190SAPI   H3X21919   5.992   0.807   5.757 -0.5318  1.4997  0.2287
  190SAPI   H3Y21920   6.167   0.809   5.722  0.5334  1.2028  0.6058
  190SAPI   C3421921   6.045   0.929   5.585  0.1617  0.0236  0.0827
  190SAPI   H4X21922   6.128   0.992   5.548 -0.2176  0.1123 -0.6202
  190SAPI   H4Y21923   5.952   0.989   5.587  1.3620  1.9696 -0.3702
  190SAPI   C3521924   6.038   0.810   5.482  0.0751  0.6669  0.3453
  190SAPI   H5X21925   5.951   0.746   5.509 -0.6225  0.6896 -1.6709
  190SAPI   H5Y21926   6.128   0.746   5.485 -0.7107 -0.5830 -1.5445
  190SAPI   C3621927   6.023   0.840   5.336  1.0817  0.1718  0.5728
  190SAPI   H6X21928   6.121   0.868   5.293  0.9565 -0.3089 -0.0352
  190SAPI   H6Y21929   5.957   0.927   5.315  3.1719  1.0902 -2.9322
  190SAPI   C3721930   5.965   0.721   5.258 -0.4625  0.4585  0.8166
  190SAPI   H7X21931   5.856   0.715   5.280 -1.0239  0.6661 -1.5641
  190SAPI   H7Y21932   6.015   0.630   5.297  0.2489  1.5607  2.5918
  190SAPI   C3821933   5.975   0.733   5.107  0.1501  0.2824  0.1079
  190SAPI   H8X21934   5.944   0.642   5.052 -0.7655  0.0654  0.9640
  190SAPI   H8Y21935   6.085   0.745   5.093  0.6130 -0.6572  2.3841
  190SAPI   C3921936   5.899   0.853   5.048  0.0114  0.0014 -0.6277
  190SAPI   H9X21937   5.927   0.949   5.097  0.3819  0.8412 -2.4190
  190SAPI   H9Y21938   5.789   0.844   5.059 -0.0474 -0.1007 -1.3033
  190SAPI  C31021939   5.921   0.893   4.901 -0.8447 -0.1068 -0.6170
  190SAPI  H10X21940   5.879   0.807   4.844 -0.3029  0.0894 -1.3207
  190SAPI  H10Y21941   6.029   0.902   4.878 -0.2656  1.7284  2.3113
  190SAPI  C31121942   5.851   1.024   4.878  0.1749 -0.0614  0.3453
  190SAPI  H11X21943   5.900   1.109   4.929  0.1037  0.0363  0.2504
  190SAPI  H11Y21944   5.747   1.027   4.918  0.2657 -1.3142  0.7310
  190SAPI  C31221945   5.855   1.061   4.730 -0.1416 -0.3859  0.1345
  190SAPI  H12X21946   5.778   0.991   4.691 -1.6357  1.5761 -0.6655
  190SAPI  H12Y21947   5.948   1.021   4.684  0.2360 -1.2104  1.5473
  190SAPI  C31321948   5.829   1.210   4.701 -1.3636 -0.2692 -0.0103
  190SAPI  H13X21949   5.768   1.256   4.780 -1.5021  0.6157 -0.6227
  190SAPI  H13Y21950   5.771   1.211   4.606  0.3080 -0.7127 -1.0948
  190SAPI  C31421951   5.961   1.284   4.683  0.6993  0.2449  0.8190
  190SAPI  H14X21952   6.019   1.252   4.772 -1.9136 -4.1335  1.2375
  190SAPI  H14Y21953   5.950   1.395   4.684  2.6209  0.4780  2.3611
  190SAPI  C31521954   6.035   1.253   4.548 -0.3050  0.6670  0.4128
  190SAPI  H15X21955   6.051   1.145   4.532 -1.0503  0.5072  0.7127
  190SAPI  H15Y21956   6.140   1.289   4.554  0.1721 -0.9277  3.5056
  190SAPI  C31621957   5.961   1.321   4.432 -0.2442 -0.1389 -0.0038
  190SAPI  H16X21958   5.939   1.424   4.466  0.9286  0.4756 -1.0328
  190SAPI  H16Y21959   5.866   1.265   4.415 -1.2723  1.0991  1.4010
  190SAPI  C31721960   6.049   1.340   4.308  0.2640  0.1422 -0.0904
  190SAPI  H17X21961   6.092   1.240   4.288 -2.5345 -1.8995  3.1178
  190SAPI  H17Y21962   6.128   1.414   4.336 -0.6497  0.6762  1.1547
  190SAPI  C31821963   5.966   1.396   4.193  0.2922  0.4672  0.2615
  190SAPI  H18X21964   5.909   1.485   4.227  0.8709  0.3006  1.7401
  190SAPI  H18Y21965   5.891   1.318   4.169 -0.9576  1.5765  0.4078
  190SAPI  H18Z21966   6.030   1.408   4.103 -2.1932  1.0873 -1.5380
  191SAPI   C1221967   4.886   3.910   2.216  0.2354 -0.5729  0.1177
  191SAPI    H221968   4.986   3.862   2.203  0.5419 -0.5998  2.1873
  191SAPI    O221969   4.908   4.035   2.268  0.4011 -0.5044 -0.2843
  191SAPI   HO221970   4.961   4.029   2.348 -0.6869 -0.2654  0.4723
  191SAPI   C1321971   4.813   3.928   2.087 -0.1432  0.4294  0.0437
  191SAPI    H321972   4.801   3.827   2.043 -0.0771  0.2582  0.4164
  191SAPI    O321973   4.888   3.997   1.985  0.4726  0.0399 -0.4443
  191SAPI   HO321974   4.880   4.092   1.995 -0.8456  0.1185 -1.9302
  191SAPI   C1421975   4.669   3.980   2.095 -0.3091  0.5138  0.1556
  191SAPI    H421976   4.682   4.086   2.126  0.4134  0.1015  1.3508
  191SAPI    O421977   4.607   3.985   1.969 -0.2030 -0.8168  0.2079
  191SAPI   HO421978   4.592   4.077   1.949 -0.0322 -1.0866 -1.2949
  191SAPI   C1521979   4.585   3.907   2.207 -0.1307  0.2880 -1.3042
  191SAPI    H521980   4.561   3.810   2.157 -0.3545 -1.4036  1.8129
  191SAPI    O521981   4.453   3.956   2.242 -0.7788  0.4015  0.3284
  191SAPI   HO521982   4.405   3.898   2.301  0.3612 -2.1840 -1.1337
  191SAPI   C1621983   4.666   3.858   2.334  0.3753 -0.4351  0.3932
  191SAPI    H621984   4.662   3.946   2.402 -1.1226 -0.7612  0.7804
  191SAPI    O621985   4.596   3.751   2.392 -0.3561  0.0606 -0.1172
  191SAPI   HO621986   4.525   3.798   2.438  1.3779  0.3730  2.4876
  191SAPI   C1121987   4.812   3.818   2.309  0.2556  0.7539 -0.2367
  191SAPI    H121988   4.803   3.723   2.254 -0.6417  1.8210 -2.0021
  191SAPI     P21989   4.991   3.671   2.449  0.2583  0.0099  0.2287
  191SAPI   O1321990   5.092   3.713   2.550  0.4921  0.4137  0.2572
  191SAPI   O1421991   5.051   3.634   2.318 -0.0965  0.3942  0.0571
  191SAPI   O1221992   4.885   3.792   2.436  0.0875  0.3155  0.2247
  191SAPI   O1121993   4.908   3.549   2.506 -0.6232  0.0400  0.2769
  191SAPI    C121994   4.840   3.583   2.629  0.3150 -0.3022 -0.3469
  191SAPI    HA21995   4.905   3.642   2.697 -1.3860  0.3831  0.7563
  191SAPI    HB21996   4.748   3.643   2.614  0.4524 -0.0452 -0.1616
  191SAPI    C221997   4.812   3.451   2.712 -0.1380  0.1218 -0.3642
  191SAPI    HS21998   4.765   3.480   2.809 -1.1625  2.3621 -1.4610
  191SAPI   O2121999   4.929   3.365   2.728 -0.6089 -0.3383 -0.0977
  191SAPI   C2122000   5.016   3.419   2.822 -0.0523  0.0871 -0.6769
  191SAPI   O2222001   4.997   3.525   2.881 -0.6792  0.7617 -0.0659
  191SAPI   C2222002   5.132   3.322   2.836  0.3235  0.0757 -0.4460
  191SAPI   H2R22003   5.158   3.288   2.733  0.7965  1.2938 -0.7487
  191SAPI   H2S22004   5.217   3.371   2.888 -1.3163 -1.1120  3.6728
  191SAPI    C322005   4.694   3.367   2.640 -0.0742  0.1758  0.2452
  191SAPI    HX22006   4.728   3.346   2.536  1.5116 -1.0567  0.9708
  191SAPI    HY22007   4.596   3.418   2.636  0.0707  0.5555  1.2739
  191SAPI   O3122008   4.684   3.240   2.704  0.0276 -0.0210  1.0590
  191SAPI   C3122009   4.618   3.231   2.817 -0.8770  0.1555  0.4692
  191SAPI   O3222010   4.563   3.325   2.868 -0.0242  0.0526 -0.2645
  191SAPI   C3222011   4.618   3.093   2.868  0.7772  0.2909 -0.3741
  191SAPI   H2X22012   4.721   3.054   2.884  0.6797  0.7007  1.5080
  191SAPI   H2Y22013   4.565   3.026   2.797  1.2393 -0.8564  0.3276
  191SAPI   C2322014   5.090   3.201   2.918  0.1499  0.4128  0.1662
  191SAPI   H3R22015   5.040   3.127   2.851  0.4625  1.0000 -0.7353
  191SAPI   H3S22016   5.013   3.239   2.988 -0.7296 -0.8397 -0.0928
  191SAPI   C2422017   5.210   3.150   2.995  0.0706  0.2596 -0.9007
  191SAPI   H4R22018   5.230   3.233   3.066  0.3884 -1.0882  0.6452
  191SAPI   H4S22019   5.299   3.144   2.928  0.3500 -1.0488 -0.4313
  191SAPI   C2522020   5.190   3.030   3.081 -0.0690  0.6426  0.7881
  191SAPI   H5R22021   5.247   2.942   3.050 -2.4514 -0.3892 -0.9431
  191SAPI   C2622022   5.097   3.020   3.181  0.2212 -0.1666 -1.0987
  191SAPI   H6R22023   5.109   2.935   3.249 -1.8806  0.7071  0.4840
  191SAPI   C2722024   5.019   3.135   3.231  0.0346  0.6464 -0.0119
  191SAPI   H7R22025   4.929   3.149   3.168  0.3227  0.1573 -0.5375
  191SAPI   H7S22026   5.082   3.227   3.223 -0.5076  0.8517 -3.6623
  191SAPI   C2822027   4.988   3.101   3.372 -0.1077  0.5085 -0.5836
  191SAPI   H8R22028   4.950   2.998   3.384  0.3127  0.3316 -0.7454
  191SAPI   C2922029   5.027   3.175   3.482  0.9154  0.7289  0.3194
  191SAPI   H9R22030   4.998   3.140   3.582 -0.2929 -0.4144 -0.3971
  191SAPI  C21022031   5.068   3.317   3.472 -0.5267  0.4712  0.1650
  191SAPI  H10R22032   5.118   3.339   3.375 -1.4571 -0.9401 -0.6724
  191SAPI  H10S22033   5.147   3.336   3.548 -0.4775  0.0904  0.2107
  191SAPI  C21122034   4.954   3.419   3.494 -0.3621  0.1802 -0.2531
  191SAPI  H11R22035   4.877   3.411   3.415 -0.8136 -1.1218  0.2764
  191SAPI  C21222036   4.938   3.513   3.593 -0.5031  0.2134 -0.1107
  191SAPI  H12R22037   4.859   3.588   3.577 -0.4368  0.6031  1.2585
  191SAPI  C21322038   5.038   3.542   3.707 -0.2295 -0.0355  0.6753
  191SAPI  H13R22039   5.041   3.653   3.712 -3.2652  0.1331  0.7053
  191SAPI  H13S22040   5.137   3.494   3.693  0.6434  1.6776  0.6742
  191SAPI  C21422041   5.000   3.478   3.834 -0.4075  0.2943 -0.4982
  191SAPI  H14R22042   4.996   3.368   3.831  0.6644  0.2630 -2.4825
  191SAPI  C21522043   4.954   3.537   3.946 -0.6376 -0.1206  0.3485
  191SAPI  H15R22044   4.937   3.470   4.032 -1.6633 -2.6046 -1.6538
  191SAPI  C21622045   4.931   3.686   3.979 -0.6956  0.1306 -0.4911
  191SAPI  H16R22046   4.930   3.754   3.891 -1.6913  2.2585  1.0730
  191SAPI  H16S22047   5.016   3.729   4.037 -0.1300  1.1895 -2.0392
  191SAPI  C21722048   4.800   3.716   4.049 -0.0370 -0.0139  0.1893
  191SAPI  H17R22049   4.775   3.642   4.129  0.3694  0.6735  0.9698
  191SAPI  H17S22050   4.735   3.701   3.960  3.2514 -0.4547 -2.3499
  191SAPI  C21822051   4.794   3.859   4.104 -0.1448 -0.0122 -0.7382
  191SAPI  H18R22052   4.790   3.922   4.012 -0.1164 -0.9496 -1.3884
  191SAPI  H18S22053   4.897   3.871   4.145  0.1072 -1.2320 -0.9770
  191SAPI  C21922054   4.675   3.887   4.198  0.2659  0.7311  0.0482
  191SAPI  H19R22055   4.692   3.827   4.290 -0.7044  1.4874  0.7297
  191SAPI  H19S22056   4.583   3.852   4.146  0.0477 -1.4970  1.7695
  191SAPI  C22022057   4.674   4.031   4.239  0.3539  0.2545  0.0436
  191SAPI  H20R22058   4.768   4.055   4.293 -0.4672  1.3547  1.0406
  191SAPI  H20S22059   4.582   4.054   4.297 -0.9476 -0.4756 -1.6397
  191SAPI  H20T22060   4.671   4.088   4.143 -3.1139 -0.2687 -0.2829
  191SAPI   C3322061   4.551   3.078   3.007 -0.1923 -0.5641  0.1034
  191SAPI   H3X22062   4.526   2.971   3.021 -1.4894 -0.1912  0.7372
  191SAPI   H3Y22063   4.455   3.131   2.992 -0.0409  0.2441  1.7398
  191SAPI   C3422064   4.639   3.131   3.125  0.7916 -0.6695  0.0147
  191SAPI   H4X22065   4.684   3.227   3.093 -0.8987 -0.0609 -0.6853
  191SAPI   H4Y22066   4.723   3.062   3.150 -0.1119 -1.0388  2.2675
  191SAPI   C3522067   4.547   3.146   3.249  0.0044  0.1387  0.1768
  191SAPI   H5X22068   4.512   3.043   3.273  0.7866  0.0760  1.1058
  191SAPI   H5Y22069   4.463   3.214   3.226 -0.9837 -1.7964 -2.4398
  191SAPI   C3622070   4.624   3.210   3.362  0.8557 -0.0767  0.5184
  191SAPI   H6X22071   4.631   3.316   3.330  1.0093 -0.9800 -2.8144
  191SAPI   H6Y22072   4.727   3.168   3.369  0.3278 -1.3809  0.8732
  191SAPI   C3722073   4.574   3.175   3.503  0.3408  0.3492 -0.4825
  191SAPI   H7X22074   4.566   3.065   3.504  4.3733 -0.1204  2.3474
  191SAPI   H7Y22075   4.470   3.208   3.524  0.2222 -1.6398  2.7403
  191SAPI   C3822076   4.666   3.216   3.619 -0.0102 -0.5487  0.3866
  191SAPI   H8X22077   4.669   3.326   3.634  1.3959 -0.5958  0.5892
  191SAPI   H8Y22078   4.769   3.180   3.598  0.2373  0.5491 -0.3735
  191SAPI   C3922079   4.622   3.156   3.753  0.4578 -0.2483 -0.2588
  191SAPI   H9X22080   4.606   3.048   3.729  0.6149  0.0002 -1.5694
  191SAPI   H9Y22081   4.520   3.186   3.784 -0.2599 -0.6702 -2.0661
  191SAPI  C31022082   4.714   3.190   3.870 -0.6437  0.0188 -0.0742
  191SAPI  H10X22083   4.724   3.300   3.882 -1.2922  0.2044 -1.1590
  191SAPI  H10Y22084   4.819   3.158   3.851 -1.1877 -1.1637 -1.2348
  191SAPI  C31122085   4.663   3.133   4.002  0.3751 -0.0275 -0.5197
  191SAPI  H11X22086   4.633   3.028   3.981 -0.5965  0.1264  0.0279
  191SAPI  H11Y22087   4.578   3.195   4.037  0.0508  0.3405 -1.9111
  191SAPI  C31222088   4.778   3.126   4.104 -0.5011 -0.4190 -0.9642
  191SAPI  H12X22089   4.879   3.157   4.070 -0.2497 -0.7408 -0.5111
  191SAPI  H12Y22090   4.775   3.017   4.123 -0.0312 -0.7310 -2.4964
  191SAPI  C31322091   4.753   3.204   4.234 -0.0807 -0.3208  0.1818
  191SAPI  H13X22092   4.835   3.178   4.306  0.2719 -0.1355 -0.1519
  191SAPI  H13Y22093   4.670   3.159   4.294 -2.2135  1.1922 -1.5083
  191SAPI  C31422094   4.741   3.353   4.231  0.2615  0.0278  0.5962
  191SAPI  H14X22095   4.652   3.388   4.173  0.1803  2.2739  1.9420
  191SAPI  H14Y22096   4.828   3.400   4.180  1.9636 -2.4458  1.0679
  191SAPI  C31522097   4.732   3.405   4.374 -0.4102 -0.2561  0.1277
  191SAPI  H15X22098   4.821   3.362   4.425 -0.4304 -1.4956 -0.8275
  191SAPI  H15Y22099   4.637   3.374   4.422  0.5268 -0.0839  2.1688
  191SAPI  C31622100   4.729   3.555   4.394 -0.1812  0.2213  0.3521
  191SAPI  H16X22101   4.633   3.604   4.368 -1.8732 -1.8289  2.3559
  191SAPI  H16Y22102   4.807   3.612   4.339 -1.0755  1.1578  0.0115
  191SAPI  C31722103   4.766   3.598   4.535  0.2820 -0.3262 -0.6752
  191SAPI  H17X22104   4.867   3.563   4.566  1.7203  1.4576 -2.9613
  191SAPI  H17Y22105   4.700   3.544   4.605  0.2542  0.1467 -0.3268
  191SAPI  C31822106   4.751   3.753   4.565 -0.0112 -0.3312  0.7255
  191SAPI  H18X22107   4.768   3.779   4.672  1.9307  2.7997 -0.2053
  191SAPI  H18Y22108   4.646   3.764   4.533  0.4299  1.1236 -0.3563
  191SAPI  H18Z22109   4.809   3.805   4.486 -3.5943  0.1097 -1.8605
  192SAPI   C1222110   1.115   4.929   2.121  0.0122  0.0192  0.2459
  192SAPI    H222111   1.082   4.856   2.198 -1.7662 -0.3802 -0.8339
  192SAPI    O222112   1.254   4.947   2.105  0.0012 -0.5486  0.1273
  192SAPI   HO222113   1.302   4.883   2.158 -0.6349 -0.8033  0.4066
  192SAPI   C1322114   1.056   4.870   1.994  0.1596  0.1463  0.4449
  192SAPI    H322115   0.946   4.885   1.988  0.2898  0.6255 -2.1260
  192SAPI    O322116   1.085   4.731   1.985  0.0483 -0.3999  0.0123
  192SAPI   HO322117   1.170   4.709   2.023  0.3296 -2.7553 -1.7214
  192SAPI   C1422118   1.121   4.949   1.879  0.0210 -0.7474 -0.0777
  192SAPI    H422119   1.229   4.923   1.877  0.1933 -0.0200 -0.3177
  192SAPI    O422120   1.061   4.920   1.752 -0.1682 -0.1983 -0.2155
  192SAPI   HO422121   0.966   4.916   1.767  0.0208 -0.4351  1.0611
  192SAPI   C1522122   1.111   5.107   1.897  0.0629  0.5589  0.5372
  192SAPI    H522123   1.025   5.143   1.837  1.9302  1.1548 -1.9429
  192SAPI    O522124   1.233   5.172   1.852  0.1537  0.5562 -0.8377
  192SAPI   HO522125   1.207   5.264   1.843  1.7764  1.4269  2.1148
  192SAPI   C1622126   1.076   5.159   2.039  0.8378  0.0710 -0.0699
  192SAPI    H622127   1.168   5.212   2.073  0.6328 -0.1676  0.8736
  192SAPI    O622128   0.979   5.268   2.040  0.1454 -0.1905  0.3327
  192SAPI   HO622129   0.937   5.275   2.126 -0.1564 -2.9625  0.5181
  192SAPI   C1122130   1.052   5.061   2.156 -0.4740 -1.0363  0.0767
  192SAPI    H122131   0.943   5.041   2.158 -0.6051 -0.2722  1.3300
  192SAPI     P22132   0.983   5.177   2.383 -0.2800 -0.2579 -0.3167
  192SAPI   O1322133   0.901   5.267   2.300  0.3591 -1.2371 -0.6616
  192SAPI   O1422134   1.055   5.232   2.500  0.3082  0.2941  0.2858
  192SAPI   O1222135   1.098   5.104   2.284  0.4246 -0.4669 -0.1462
  192SAPI   O1122136   0.895   5.054   2.436 -0.5022  0.4522  0.3803
  192SAPI    C122137   0.940   4.968   2.540  0.5714 -0.8272  0.1357
  192SAPI    HA22138   1.024   5.013   2.598  1.0311 -1.1273 -0.2857
  192SAPI    HB22139   0.854   4.954   2.609 -2.6637 -0.8680 -3.5689
  192SAPI    C222140   0.982   4.820   2.499  0.1685 -0.0181 -0.2727
  192SAPI    HS22141   1.083   4.831   2.453  0.1010  0.9240 -0.2132
  192SAPI   O2122142   0.886   4.763   2.402  0.5695 -0.7301 -0.5168
  192SAPI   C2122143   0.933   4.659   2.330  0.4552  0.2504  0.2037
  192SAPI   O2222144   1.043   4.608   2.342 -0.3755 -0.2373 -0.0646
  192SAPI   C2222145   0.826   4.619   2.231  0.1942 -0.6104 -0.4434
  192SAPI   H2R22146   0.725   4.632   2.276 -0.4885 -0.3130 -1.9860
  192SAPI   H2S22147   0.828   4.680   2.138  1.0560 -1.7024 -1.1676
  192SAPI    C322148   0.995   4.735   2.627  0.4201  0.5095  1.0466
  192SAPI    HX22149   1.059   4.645   2.614  3.2531  2.7625 -2.7090
  192SAPI    HY22150   0.892   4.701   2.651  0.9024 -1.8333  0.1090
  192SAPI   O3122151   1.044   4.815   2.737  0.1549 -0.3941 -0.4577
  192SAPI   C3122152   1.019   4.758   2.859  0.2638  0.3787  0.2782
  192SAPI   O3222153   0.960   4.652   2.868 -0.1604  0.1402  0.4091
  192SAPI   C3222154   1.054   4.852   2.977  0.1354 -0.4162 -0.0871
  192SAPI   H2X22155   1.010   4.948   2.944  0.4068 -0.6101 -1.0542
  192SAPI   H2Y22156   1.163   4.874   2.987 -0.2215  1.6674 -0.2968
  192SAPI   C2322157   0.829   4.469   2.185 -0.6227 -0.0170 -0.4604
  192SAPI   H3R22158   0.904   4.449   2.105 -0.1449 -0.2949  0.0519
  192SAPI   H3S22159   0.736   4.445   2.129 -0.2935 -0.2534 -0.9133
  192SAPI   C2422160   0.827   4.360   2.296 -0.3541  0.0105 -0.2764
  192SAPI   H4R22161   0.894   4.377   2.383 -2.5880  0.0740  1.5308
  192SAPI   H4S22162   0.871   4.263   2.266  1.2050  0.3022  0.9495
  192SAPI   C2522163   0.690   4.340   2.348  0.8072  0.8092 -0.1833
  192SAPI   H5R22164   0.614   4.314   2.273 -1.0165 -2.4524  2.5281
  192SAPI   C2622165   0.645   4.373   2.469  0.4060  0.2530 -0.1594
  192SAPI   H6R22166   0.540   4.351   2.491  0.6618  0.5575  1.4944
  192SAPI   C2722167   0.723   4.411   2.585 -0.1899 -0.1538  0.8180
  192SAPI   H7R22168   0.753   4.518   2.584  0.0623 -0.2156  1.5268
  192SAPI   H7S22169   0.815   4.349   2.581 -0.6291 -0.7802 -0.0993
  192SAPI   C2822170   0.651   4.388   2.715 -0.1023  0.5012  0.0749
  192SAPI   H8R22171   0.542   4.393   2.704 -0.5636 -2.6138  2.0606
  192SAPI   C2922172   0.700   4.339   2.832  0.3562 -0.2372  0.1067
  192SAPI   H9R22173   0.630   4.333   2.916 -0.2528 -0.4200 -0.4017
  192SAPI  C21022174   0.845   4.316   2.872  1.2105 -0.1077 -0.0340
  192SAPI  H10R22175   0.879   4.369   2.964 -2.6649 -1.6126  2.5411
  192SAPI  H10S22176   0.918   4.349   2.795  4.5246 -1.2984  2.3513
  192SAPI  C21122177   0.845   4.171   2.903 -0.0596  0.3631 -0.1695
  192SAPI  H11R22178   0.863   4.104   2.818 -1.6672 -0.0492 -0.2206
  192SAPI  C21222179   0.845   4.115   3.024  0.3930 -0.0327 -0.4061
  192SAPI  H12R22180   0.849   4.006   3.039  0.1351  0.2326  1.9357
  192SAPI  C21322181   0.837   4.198   3.150 -0.2931 -0.0104 -1.0638
  192SAPI  H13R22182   0.782   4.143   3.229 -0.4603  1.6803  0.0485
  192SAPI  H13S22183   0.771   4.287   3.139  0.3964  0.5348 -0.8328
  192SAPI  C21422184   0.966   4.234   3.210  0.1453 -0.3090 -0.0404
  192SAPI  H14R22185   1.053   4.198   3.153  0.2350  0.1302 -0.1915
  192SAPI  C21522186   0.982   4.319   3.313 -0.8784  0.2751 -0.0740
  192SAPI  H15R22187   1.083   4.330   3.354 -0.7761 -4.4235  1.4524
  192SAPI  C21622188   0.876   4.392   3.395  0.1428 -0.1612  0.8017
  192SAPI  H16R22189   0.785   4.406   3.333  0.9861 -2.2401 -1.0103
  192SAPI  H16S22190   0.913   4.497   3.404  1.6794 -0.3031 -2.2330
  192SAPI  C21722191   0.836   4.313   3.515 -0.1208 -0.2399 -0.2565
  192SAPI  H17R22192   0.837   4.205   3.491  2.1958 -0.0233 -1.4096
  192SAPI  H17S22193   0.742   4.346   3.564  0.3477 -1.4334  1.5448
  192SAPI  C21822194   0.933   4.339   3.633  0.0457  0.1458 -0.9786
  192SAPI  H18R22195   0.926   4.442   3.673 -0.8920  0.2820 -1.4549
  192SAPI  H18S22196   1.037   4.327   3.598  1.4775 -0.7671  3.0822
  192SAPI  C21922197   0.938   4.225   3.737 -0.2604 -0.6431 -0.3976
  192SAPI  H19R22198   0.970   4.130   3.689 -0.2780 -1.5202  1.2438
  192SAPI  H19S22199   0.830   4.206   3.758  0.0120 -0.6228  1.0991
  192SAPI  C22022200   1.000   4.254   3.874 -0.0299 -0.1888  0.0514
  192SAPI  H20R22201   0.929   4.323   3.925  2.3254  2.4968 -0.0276
  192SAPI  H20S22202   1.099   4.303   3.861 -1.6166  3.0257 -1.0802
  192SAPI  H20T22203   1.023   4.162   3.931  1.1155  0.9704  1.5535
  192SAPI   C3322204   0.988   4.827   3.117 -0.2443  0.6765  0.9158
  192SAPI   H3X22205   1.021   4.727   3.152 -0.4731  0.6313  1.0044
  192SAPI   H3Y22206   0.877   4.824   3.103 -0.0476 -1.0284 -0.8009
  192SAPI   C3422207   1.032   4.922   3.228  0.1287  0.2946 -0.4006
  192SAPI   H4X22208   1.003   5.023   3.192 -2.9668 -0.5428 -0.5652
  192SAPI   H4Y22209   1.141   4.907   3.249 -0.0702 -0.0736  0.4394
  192SAPI   C3522210   0.950   4.910   3.358 -0.3507  0.6719  0.0402
  192SAPI   H5X22211   0.943   4.808   3.400 -0.5733  0.7834  0.2713
  192SAPI   H5Y22212   0.846   4.939   3.331 -1.0783 -0.6452  1.3372
  192SAPI   C3622213   0.972   5.005   3.475  0.3451 -0.3949  0.0482
  192SAPI   H6X22214   0.882   5.016   3.539  0.4180  1.0336 -0.0562
  192SAPI   H6Y22215   0.996   5.108   3.443  0.8573 -0.5005  0.0925
  192SAPI   C3722216   1.083   4.946   3.571 -0.4584  0.2787  0.3242
  192SAPI   H7X22217   1.178   4.982   3.525  0.4181 -1.7414  0.4612
  192SAPI   H7Y22218   1.082   4.836   3.564  1.6941  0.1694  1.0173
  192SAPI   C3822219   1.060   4.987   3.720  0.2060  0.0414  0.3629
  192SAPI   H8X22220   0.979   4.926   3.764  1.9643 -0.1020  3.7804
  192SAPI   H8Y22221   1.023   5.092   3.717 -1.0846 -0.4056  0.4962
  192SAPI   C3922222   1.184   4.983   3.801 -0.1444 -0.2593 -0.4289
  192SAPI   H9X22223   1.239   5.076   3.775 -2.8939  1.4181 -0.6466
  192SAPI   H9Y22224   1.242   4.889   3.788  0.3798  0.1559 -1.1782
  192SAPI  C31022225   1.150   5.003   3.946  0.2227  0.1868  0.2340
  192SAPI  H10X22226   1.106   5.102   3.972  2.1799  1.6466 -1.6406
  192SAPI  H10Y22227   1.252   5.004   3.989  0.3276 -0.5631  0.0181
  192SAPI  C31122228   1.068   4.894   4.010 -0.5832 -0.4684 -0.4665
  192SAPI  H11X22229   1.121   4.796   4.001  1.0001  0.2670  0.3821
  192SAPI  H11Y22230   0.965   4.881   3.972 -0.7529  1.4456 -0.7275
  192SAPI  C31222231   1.054   4.904   4.163 -0.1039 -0.6571  0.2729
  192SAPI  H12X22232   1.013   5.003   4.194 -0.2033 -0.6863  0.2346
  192SAPI  H12Y22233   1.159   4.904   4.199 -0.0963  1.7452  0.4027
  192SAPI  C31322234   1.001   4.772   4.231  0.7099  0.3700 -0.0084
  192SAPI  H13X22235   1.050   4.676   4.203 -0.3836 -0.1665 -0.1318
  192SAPI  H13Y22236   0.894   4.771   4.202  0.1764 -0.1348  1.8830
  192SAPI  C31422237   0.995   4.778   4.380 -0.6837 -0.1600 -0.0812
  192SAPI  H14X22238   0.928   4.698   4.418 -1.0962  0.3817  0.3555
  192SAPI  H14Y22239   0.938   4.868   4.412 -0.7984 -0.4866  0.6551
  192SAPI  C31522240   1.134   4.778   4.446  0.1740 -0.1250 -0.1479
  192SAPI  H15X22241   1.203   4.843   4.387 -0.2974  0.7201  0.2070
  192SAPI  H15Y22242   1.175   4.675   4.436 -3.1099 -1.5086 -0.7674
  192SAPI  C31622243   1.126   4.826   4.590 -0.4113 -0.2267 -0.0825
  192SAPI  H16X22244   1.064   4.746   4.636 -2.5072  0.6894 -1.2093
  192SAPI  H16Y22245   1.063   4.916   4.606 -1.6655 -1.2125  0.7131
  192SAPI  C31722246   1.263   4.832   4.659 -0.1700 -0.2809  0.2806
  192SAPI  H17X22247   1.327   4.912   4.615 -0.1344  1.4941  3.2568
  192SAPI  H17Y22248   1.314   4.734   4.657 -0.1016 -0.3350  2.2906
  192SAPI  C31822249   1.240   4.871   4.809  0.5370 -0.2299  0.1607
  192SAPI  H18X22250   1.247   4.981   4.811  0.9845 -0.2411 -0.3558
  192SAPI  H18Y22251   1.318   4.824   4.872  0.9061 -0.2919 -0.3355
  192SAPI  H18Z22252   1.139   4.833   4.835  1.6692 -1.9396  2.5058
  193SOD    SOD22253   4.033   4.905   2.420  0.5322  0.1083  0.0100
  194SOD    SOD22254   2.367   5.142   6.856 -0.1266  0.5530  0.3623
  195SOD    SOD22255   6.179   4.388   6.608  0.0235  0.4860  0.2269
  196SOD    SOD22256   4.917   3.624   1.341  0.1160 -0.3225  0.4797
  197SOD    SOD22257   4.842   5.276   7.570  0.0160 -0.1060 -0.2391
  198SOD    SOD22258   3.217   3.869   6.597  0.0331 -0.2175 -0.0379
  199SOD    SOD22259   3.303   1.123   0.520 -0.6302 -0.6076 -0.5004
  200SOD    SOD22260   1.329   6.736   0.006 -0.4005  0.7692  0.3598
  201SOD    SOD22261   6.533   2.208   7.356 -0.1650 -0.1831  0.6130
  202SOD    SOD22262   0.005   2.872   6.612 -0.6790  0.1536 -0.0688
  203SOD    SOD22263   4.472   4.489   0.355 -0.1129 -0.1134 -0.5006
  204SOD    SOD22264   4.659   1.537   7.288 -0.2303  0.3592  0.0552
  205SOD    SOD22265   4.288   5.801   0.253 -0.0621 -0.0640  0.0211
  206SOD    SOD22266   0.257   6.130   0.046  0.1541 -0.3293 -0.2011
  207SOD    SOD22267   1.907   3.677   7.527  0.2520  0.1998  0.1708
  208SOD    SOD22268   4.508   3.410   1.084  0.0797  0.3754  0.5592
  209SOD    SOD22269   5.002   1.985   1.759  0.2027 -0.3500 -0.1133
  210SOD    SOD22270   6.840   3.697   2.360 -0.1048 -0.1748  0.3818
  211SOD    SOD22271   2.696   3.916   0.356 -0.6026  0.2657  0.0429
  212SOD    SOD22272   6.193   2.959   1.027  0.1227  0.1361  0.0630
  213SOD    SOD22273   0.313   5.605   1.742 -0.5750  0.9353 -0.2540
  214SOD    SOD22274   0.052   0.435   8.159 -0.3096 -0.2158 -0.0471
  215SOD    SOD22275   4.372   5.318   2.596 -0.6702 -0.2301  0.1405
  216SOD    SOD22276   0.631   3.303   7.501 -0.3616 -0.5760  0.1189
  217SOD    SOD22277   0.226   1.962   2.370  0.0010 -0.4769  0.9143
  218SOD    SOD22278   5.733   1.676   0.754  0.1724 -0.4573  0.1577
  219SOD    SOD22279   6.205   6.432   8.702  0.3630  0.3702 -0.3573
  220SOD    SOD22280   2.047   5.804   1.370 -0.6678  0.0692  0.2566
  221SOD    SOD22281   5.041   1.866   7.092  0.1668 -0.0056 -0.0906
  222SOD    SOD22282   5.691   4.291   1.072 -0.1652 -0.2523 -0.1205
  223SOD    SOD22283   5.667   6.094   8.418  0.1094 -0.1041  0.3829
  224SOD    SOD22284   1.562   1.607   6.978 -0.2765 -0.0397  0.3563
  225SOD    SOD22285   1.675   4.340   2.032  0.3547 -0.5334  0.2714
  226SOD    SOD22286   3.326   0.299   2.443 -0.2774  0.2291 -0.2624
  227SOD    SOD22287   2.804   2.777   1.983  0.0808  0.1880 -0.0523
  228SOD    SOD22288   6.597   2.077   1.451  0.2325 -0.0777  0.2733
  229SOD    SOD22289   3.127   0.105   7.267  0.1412  0.1379  0.6024
  230SOD    SOD22290   1.843   2.488   6.846 -0.3288  0.5940  0.2922
  231SOD    SOD22291   2.164   0.015   6.557  0.3752  0.1344  0.4022
  232SOD    SOD22292   5.457   5.624   2.577  0.5731  0.6535  0.2276
  233SOD    SOD22293   6.832   5.355   1.506 -0.1214  0.2407  0.3821
  234CLA    CLA22294   0.721   2.075   0.330 -0.1941  0.0207 -0.0314
  235CLA    CLA22295   2.357   3.732   1.336 -0.3003 -0.1105 -0.3958
  236CLA    CLA22296   3.758   4.240   7.668  0.2444  0.0747 -0.1592
  237CLA    CLA22297   3.199   4.970   7.711  0.0336  0.0829 -0.1587
  238CLA    CLA22298   5.677   3.156   0.148  0.2946 -0.6788 -0.1818
  239CLA    CLA22299   6.130   1.637   7.287  0.0692 -0.2307  0.1757
  240CLA    CLA22300   1.008   3.783   0.761  0.0888  0.1810 -0.1292
  241CLA    CLA22301   4.325   4.634   0.836 -0.1764  0.6679  0.2224
  242CLA    CLA22302   0.584   6.673   0.164 -0.1158 -0.3437  0.2603
  243CLA    CLA22303   4.407   5.188   8.003 -0.0263 -0.4023  0.1011
  244CLA    CLA22304   2.633   5.492   1.597 -0.3946  0.1437  0.1564
  245CLA    CLA22305   3.199   2.143   0.831  0.2999 -0.1920  0.0027
  246CLA    CLA22306   1.688   4.257   0.511 -0.3134 -0.0998 -0.5179
  247CLA    CLA22307   5.215   1.109   1.364 -0.3979  0.2711 -0.1348
  248CLA    CLA22308   5.684   5.993   0.775 -0.2605 -0.1071  0.0905
  249CLA    CLA22309   0.699   2.627   0.360  0.3629  0.0858 -0.1608
  250CLA    CLA22310   6.103   5.395   8.551  0.0794 -0.0047  0.4949
  251TIP3   OH222311   1.279   0.123   0.447 -0.4025  0.9049 -0.2533
  251TIP3    H122312   1.261   0.053   0.510  0.3606  1.2821  0.3938
  251TIP3    H222313   1.340   0.181   0.492  0.1199  1.2110 -1.3240
  252TIP3   OH222314   5.864   6.520   2.027 -0.2560 -0.2131  0.1271
  252TIP3    H122315   5.788   6.477   1.986  1.3312 -1.5475 -1.6180
  252TIP3    H222316   5.836   6.536   2.117 -2.7204 -0.3210 -0.5279
  253TIP3   OH222317   2.976   6.488   7.937 -0.0331 -0.1404  0.2013
  253TIP3    H122318   2.893   6.446   7.912 -1.5551  2.6519  0.0964
  253TIP3    H222319   3.016   6.514   7.854 -0.2236  0.5542  0.3227
  254TIP3   OH222320   0.060   3.953   7.151 -0.4634  0.7961  0.1702
  254TIP3    H122321   0.024   3.923   7.068 -1.2480  0.7129  0.5375
  254TIP3    H222322  -0.015   3.988   7.199  0.0346  1.1336  0.7209
  255TIP3   OH222323   6.188   3.296   0.802 -0.8462 -0.4421 -0.0184
  255TIP3    H122324   6.185   3.219   0.745 -1.1350  0.5576 -1.3951
  255TIP3    H222325   6.274   3.335   0.787 -1.2659  0.3352 -0.4790
  256TIP3   OH222326   0.247   4.122   8.561  0.1466  0.3905 -0.5232
  256TIP3    H122327   0.155   4.103   8.540 -0.1029  0.3957  0.5058
  256TIP3    H222328   0.257   4.094   8.652  0.9134  1.2588 -0.3223
  257TIP3   OH222329   6.684   0.649   7.893 -0.4259  0.1911  0.3957
  257TIP3    H122330   6.698   0.564   7.850 -0.7815 -0.4514  1.4953
  257TIP3    H222331   6.681   0.712   7.821  1.1579 -0.5338 -0.3674
  258TIP3   OH222332   5.106   1.132   7.197 -0.0896  0.0743  0.2894
  258TIP3    H122333   5.096   1.130   7.101  0.7922 -1.2581  0.2066
  258TIP3    H222334   5.175   1.197   7.213  0.7667 -0.7307 -0.0876
  259TIP3   OH222335   0.185   0.806   1.117  0.0454  0.4166  0.1947
  259TIP3    H122336   0.232   0.747   1.058  0.3704  0.3101  0.5576
  259TIP3    H222337   0.104   0.760   1.137  0.8310 -0.4816  1.4636
  260TIP3   OH222338   3.490   4.643   1.501  0.2682  0.3386  0.5116
  260TIP3    H122339   3.566   4.646   1.559  0.0254 -2.3085  1.1352
  260TIP3    H222340   3.415   4.648   1.560  0.0024  0.1559  0.1947
  261TIP3   OH222341   5.961   2.696   8.463  0.1523  0.0291  0.1581
  261TIP3    H122342   6.004   2.610   8.469  0.3314  0.0456 -0.7101
  261TIP3    H222343   5.868   2.676   8.451  0.2718 -0.0596 -0.6487
  262TIP3   OH222344   4.102   2.917   8.679  0.5638  0.0849 -0.7737
  262TIP3    H122345   4.197   2.908   8.694  0.2985 -1.2752  0.2744
  262TIP3    H222346   4.071   2.827   8.665 -0.3905  0.6336 -2.4826
  263TIP3   OH222347   3.010   5.207   7.027  0.6574 -0.3501 -0.0336
  263TIP3    H122348   3.045   5.239   6.944 -2.8070  0.2384 -1.4417
  263TIP3    H222349   3.057   5.125   7.042  3.4534  0.9475 -0.9580
  264TIP3   OH222350   5.993   4.869   6.960 -0.3900  0.0289 -0.1727
  264TIP3    H122351   6.018   4.878   6.867  0.4571 -0.5547 -0.0185
  264TIP3    H222352   5.898   4.866   6.959 -0.3644 -1.5160 -1.1940
  265TIP3   OH222353   4.654   6.382   1.979  0.4893 -0.0678 -0.2693
  265TIP3    H122354   4.617   6.324   1.913 -0.6192 -0.0488  0.3112
  265TIP3    H222355   4.631   6.340   2.063  1.1903  0.3134  0.1293
  266TIP3   OH222356   2.236   3.663   0.708  0.0461  0.5855 -0.2284
  266TIP3    H122357   2.309   3.703   0.755  0.2670  0.3534 -0.3709
  266TIP3    H222358   2.185   3.620   0.777 -0.0272  0.8545 -0.1133
  267TIP3   OH222359   0.323   6.158   6.518  0.2791  0.3146 -0.1149
  267TIP3    H122360   0.378   6.085   6.546  1.0558  0.6794 -0.6445
  267TIP3    H222361   0.233   6.126   6.527  0.5914 -1.7325 -2.9662
  268TIP3   OH222362   0.622   2.755   8.452 -0.4677  0.0816 -0.3594
  268TIP3    H122363   0.709   2.727   8.481 -0.0873  0.8715 -0.7290
  268TIP3    H222364   0.590   2.812   8.522 -0.8563 -0.5138 -0.0433
  269TIP3   OH222365   0.655   0.122   0.531  0.3710  0.0371 -0.1474
  269TIP3    H122366   0.708   0.102   0.454 -0.4532  1.6011 -1.1803
  269TIP3    H222367   0.706   0.091   0.605  0.7754 -2.3794 -1.3594
  270TIP3   OH222368   1.879   3.388   0.603  0.2063 -0.1170 -0.1214
  270TIP3    H122369   1.900   3.481   0.616  1.6402 -0.5227  0.7438
  270TIP3    H222370   1.853   3.358   0.690 -0.9680 -0.3820 -0.5471
  271TIP3   OH222371   5.124   5.565   7.384 -0.1526 -0.1397 -0.3655
  271TIP3    H122372   5.113   5.506   7.459  0.6431  0.8916  0.6003
  271TIP3    H222373   5.067   5.529   7.316 -1.5731 -0.6150  1.0160
  272TIP3   OH222374   3.695   3.453   8.471 -0.2572 -0.5980 -0.0053
  272TIP3    H122375   3.777   3.474   8.425 -0.2967  1.3716  0.7568
  272TIP3    H222376   3.635   3.428   8.400  0.3258  0.1951 -0.8068
  273TIP3   OH222377   1.619   0.969   0.834 -0.0094  0.3289 -0.1583
  273TIP3    H122378   1.611   1.061   0.862 -0.1362 -0.1715  1.5372
  273TIP3    H222379   1.610   0.973   0.738  0.0511  2.0866 -0.1331
  274TIP3   OH222380   5.945   4.008   1.414 -0.3790 -0.0817  0.2950
  274TIP3    H122381   5.895   3.939   1.371  0.8145 -0.9948  0.3109
  274TIP3    H222382   5.880   4.074   1.438 -1.1929  0.1198 -2.2090
  275TIP3   OH222383   2.016   1.783   7.836  0.5477 -0.6282  0.6612
  275TIP3    H122384   2.045   1.873   7.818  1.2952 -1.4529 -2.9806
  275TIP3    H222385   1.922   1.784   7.819  0.5493 -0.5439  0.6545
  276TIP3   OH222386   0.114   0.869   7.133  0.0595  0.3853 -0.5554
  276TIP3    H122387   0.066   0.787   7.146  1.2217 -0.2186  0.0399
  276TIP3    H222388   0.111   0.912   7.219  1.1309  0.0354 -0.3370
  277TIP3   OH222389   0.333   2.888   8.426  0.2377 -0.2436 -0.0592
  277TIP3    H122390   0.361   2.910   8.337  2.7998  0.1458  0.7845
  277TIP3    H222391   0.399   2.827   8.458 -1.4418 -1.5203  1.1155
  278TIP3   OH222392   2.466   4.052   2.016  0.4061 -0.0720 -0.4032
  278TIP3    H122393   2.383   4.033   1.973  0.2837  2.1353 -1.2724
  278TIP3    H222394   2.471   4.148   2.018  1.9057 -0.1212  1.6614
  279TIP3   OH222395   5.631   6.813   1.711 -0.7958 -0.1266 -0.2309
  279TIP3    H122396   5.613   6.738   1.655  0.1831 -0.9835  0.5429
  279TIP3    H222397   5.623   6.889   1.654 -0.9201 -0.8845 -1.2512
  280TIP3   OH222398   6.683   0.946   0.363 -0.4482 -0.0386 -0.3416
  280TIP3    H122399   6.666   0.862   0.404 -1.5094 -0.3248 -1.3017
  280TIP3    H222400   6.700   0.925   0.271  0.0576  0.7335 -0.4383
  281TIP3   OH222401   0.768   6.483   7.286 -0.0744  0.2242 -0.0892
  281TIP3    H122402   0.721   6.487   7.203 -0.0443  0.2623 -0.1043
  281TIP3    H222403   0.700   6.494   7.352 -0.5030 -2.3579 -0.0108
  282TIP3   OH222404   3.317   1.944   8.372 -0.1784 -0.2230  0.3119
  282TIP3    H122405   3.403   1.966   8.407  0.1750  0.7329 -1.0697
  282TIP3    H222406   3.255   1.993   8.425  0.3256  1.0397 -0.2376
  283TIP3   OH222407   0.852   1.501   7.787 -0.0496 -0.0830  0.3546
  283TIP3    H122408   0.859   1.406   7.776  1.6934 -0.2358  2.1937
  283TIP3    H222409   0.875   1.537   7.702 -2.3256 -1.2728 -0.8678
  284TIP3   OH222410   5.461   1.301   8.659  0.7025 -0.3333  0.3618
  284TIP3    H122411   5.389   1.274   8.717  1.3416  0.2247  1.4540
  284TIP3    H222412   5.528   1.233   8.671  0.5747 -0.5695 -0.2448
  285TIP3   OH222413   0.863   0.103   1.692  0.1912  0.0054  0.1068
  285TIP3    H122414   0.920   0.028   1.710 -0.2560 -0.7095 -1.3230
  285TIP3    H222415   0.808   0.075   1.619  1.5933  2.5105 -2.0962
  286TIP3   OH222416   5.013   5.593   7.755 -0.1223  0.9546 -0.1475
  286TIP3    H122417   4.936   5.561   7.708  0.3960 -0.4605 -0.0817
  286TIP3    H222418   4.979   5.665   7.809 -1.3453  0.5345 -0.3141
  287TIP3   OH222419   2.398   6.805   0.555  0.0667 -0.4040 -0.3672
  287TIP3    H122420   2.388   6.852   0.472  1.6043  1.0734  0.2225
  287TIP3    H222421   2.491   6.813   0.576 -0.3865 -0.1827  1.8051
  288TIP3   OH222422   5.886   6.398   8.050  0.3731 -0.2122 -0.2782
  288TIP3    H122423   5.915   6.475   8.002  1.2815  0.7398  1.6654
  288TIP3    H222424   5.908   6.324   7.993 -0.0091  0.9028 -1.9442
  289TIP3   OH222425   3.343   5.652   8.334  0.4103  0.0809 -0.2018
  289TIP3    H122426   3.347   5.646   8.430 -1.0022 -1.6802 -0.2028
  289TIP3    H222427   3.305   5.739   8.317 -1.7068 -0.5540  0.9573
  290TIP3   OH222428   1.185   5.951   6.364 -0.2982 -0.3480  0.2612
  290TIP3    H122429   1.268   5.987   6.332  0.7758 -2.2662  0.7175
  290TIP3    H222430   1.147   6.021   6.417  0.2641  1.1174 -1.1873
  291TIP3   OH222431   1.708   4.961   6.810  0.0576  0.0305 -0.1891
  291TIP3    H122432   1.615   4.982   6.814  0.0464  0.1530 -0.9810
  291TIP3    H222433   1.748   5.035   6.765  0.4165 -0.4022 -0.5889
  292TIP3   OH222434   4.696   0.587   7.531  0.0059 -0.9010  0.3132
  292TIP3    H122435   4.658   0.514   7.581  1.3456 -2.2430 -0.5586
  292TIP3    H222436   4.782   0.602   7.570 -0.6157  0.9035  1.1032
  293TIP3   OH222437   4.842   5.834   0.454 -0.8705  0.3262  0.1997
  293TIP3    H122438   4.824   5.773   0.382 -0.4999  1.7103 -1.1111
  293TIP3    H222439   4.755   5.859   0.486 -1.0300 -1.0004  0.8944
  294TIP3   OH222440   1.902   3.323   8.412 -0.0879  0.1681 -0.4030
  294TIP3    H122441   1.873   3.235   8.386 -0.8771 -0.4142  2.1731
  294TIP3    H222442   1.851   3.382   8.356 -1.6317 -0.9982 -0.2927
  295TIP3   OH222443   4.035   4.982   0.438 -0.0708 -0.0218  0.3028
  295TIP3    H122444   4.057   5.062   0.486 -1.4861  1.0838 -0.8098
  295TIP3    H222445   4.007   5.012   0.352 -1.5649 -1.6240  0.1651
  296TIP3   OH222446   6.494   2.037   1.245 -0.2239 -0.3952 -0.5166
  296TIP3    H122447   6.573   2.020   1.194  1.4091  3.8588  0.2001
  296TIP3    H222448   6.430   2.068   1.181 -0.4970 -1.4141 -0.7586
  297TIP3   OH222449   4.037   5.276   0.577  0.2499  0.0178  0.1772
  297TIP3    H122450   4.023   5.282   0.672  0.6086  0.3500  0.2106
  297TIP3    H222451   3.978   5.342   0.540 -0.7406 -0.8880  0.0807
  298TIP3   OH222452   4.672   3.849   7.578  0.0169 -0.3947  0.0810
  298TIP3    H122453   4.585   3.816   7.557  1.1361 -2.0231 -2.6325
  298TIP3    H222454   4.684   3.925   7.522 -0.0317  0.5107  1.2681
  299TIP3   OH222455   2.400   2.882   8.550  0.0856  0.2484 -0.1607
  299TIP3    H122456   2.337   2.901   8.480  0.2555 -0.9420 -0.6673
  299TIP3    H222457   2.403   2.786   8.554  0.5544  0.2940  1.0577
  300TIP3   OH222458   4.890   4.046   2.600 -0.1826  0.5423 -0.1630
  300TIP3    H122459   4.972   4.019   2.641 -1.5115 -1.5675  1.3305
  300TIP3    H222460   4.879   3.984   2.527 -1.1887 -0.2292  0.6251
  301TIP3   OH222461   2.645   1.146   8.428  0.6887  0.1977  0.1219
  301TIP3    H122462   2.719   1.139   8.367  0.2305 -0.3133 -0.3888
  301TIP3    H222463   2.576   1.094   8.387 -0.3207  1.5529  0.0364
  302TIP3   OH222464   2.143   2.052   7.900  0.3162 -0.4737  0.1941
  302TIP3    H122465   2.049   2.068   7.904  0.6626  2.2048 -0.3564
  302TIP3    H222466   2.166   2.018   7.987 -0.9083  0.5738  0.9570
  303TIP3   OH222467   1.682   4.253   8.036  0.5308 -0.2761  0.2371
  303TIP3    H122468   1.708   4.162   8.024 -1.1794 -0.7896  0.1833
  303TIP3    H222469   1.743   4.286   8.103  1.6599 -1.2084 -0.2816
  304TIP3   OH222470   3.140   4.696   7.513 -0.1199  0.0225 -0.1619
  304TIP3    H122471   3.116   4.775   7.562  0.3403 -0.3130  0.6227
  304TIP3    H222472   3.193   4.645   7.574  3.1944  1.0045 -1.9475
  305TIP3   OH222473   6.538   3.017   8.493 -0.2417 -0.6055  0.1781
  305TIP3    H122474   6.594   2.973   8.556  1.5132 -1.3145 -1.7612
  305TIP3    H222475   6.570   2.988   8.408 -3.1836 -0.5531 -1.0698
  306TIP3   OH222476   0.309   0.288   1.889  0.3430  0.0585 -0.4656
  306TIP3    H122477   0.240   0.256   1.948  0.1801  1.2479  0.0151
  306TIP3    H222478   0.341   0.210   1.845 -1.1383 -0.5520 -0.5040
  307TIP3   OH222479   2.648   2.311   1.042 -0.5019 -0.0890 -0.2566
  307TIP3    H122480   2.614   2.249   0.977 -0.2069 -0.4536 -0.0714
  307TIP3    H222481   2.602   2.288   1.123 -0.7950  0.2973 -0.3113
  308TIP3   OH222482   2.482   5.454   6.618 -0.7945  0.3659  0.0352
  308TIP3    H122483   2.456   5.455   6.710  0.0167 -0.7380  0.2892
  308TIP3    H222484   2.463   5.365   6.589  3.1148 -0.7592  0.3979
  309TIP3   OH222485   0.487   0.486   8.108 -0.3161 -0.2216  0.3243
  309TIP3    H122486   0.497   0.474   8.202  0.1141 -0.2313  0.2791
  309TIP3    H222487   0.566   0.534   8.081 -0.5039 -0.0925 -0.0076
  310TIP3   OH222488   3.029   5.850   7.971  0.7095 -0.1731  0.5018
  310TIP3    H122489   2.983   5.813   8.045  1.8470 -1.8517  0.4265
  310TIP3    H222490   3.095   5.784   7.948  1.2723  0.8934 -1.1404
  311TIP3   OH222491   0.283   2.257   0.911  0.0576 -0.1735  0.1474
  311TIP3    H122492   0.219   2.187   0.898  0.1927 -0.2346 -0.2223
  311TIP3    H222493   0.261   2.295   0.996 -0.0469 -0.6327  0.3289
  312TIP3   OH222494   3.982   1.075   0.125 -0.1509  0.2812  0.1227
  312TIP3    H122495   3.957   1.141   0.191 -1.7054 -0.0061 -0.1486
  312TIP3    H222496   3.993   1.125   0.044  1.7163  0.6284  0.5407
  313TIP3   OH222497   0.563   1.761   7.283 -0.5018  0.1559 -0.3852
  313TIP3    H122498   0.601   1.700   7.347 -1.0919  0.6290  0.4277
  313TIP3    H222499   0.511   1.705   7.225  0.3312 -0.3227 -0.6870
  314TIP3   OH222500   5.600   4.673   0.884  0.5671 -0.0256  0.3564
  314TIP3    H122501   5.547   4.691   0.806 -0.7606  0.4129  1.3364
  314TIP3    H222502   5.585   4.748   0.941  2.5531  0.3031  0.5378
  315TIP3   OH222503   6.773   4.973   7.948  0.3692 -0.2911 -0.3492
  315TIP3    H122504   6.708   5.033   7.983  0.8215 -0.6207  1.1630
  315TIP3    H222505   6.739   4.947   7.862 -0.8750  0.4693 -0.1104
  316TIP3   OH222506   4.973   1.105   2.645 -0.3039  0.2888 -0.1294
  316TIP3    H122507   4.892   1.055   2.642  0.2121 -0.5527 -3.3273
  316TIP3    H222508   4.959   1.177   2.583  1.6550 -0.3655 -1.4071
  317TIP3   OH222509   5.493   0.542   6.776 -0.6319 -0.0368 -0.0580
  317TIP3    H122510   5.415   0.539   6.833 -2.6066 -0.7194 -2.6090
  317TIP3    H222511   5.516   0.634   6.771 -1.1717  0.1593  0.8695
  318TIP3   OH222512   2.055   0.244   7.769  0.1901  0.4208 -0.1233
  318TIP3    H122513   1.980   0.259   7.713  0.3703  0.7727 -0.2733
  318TIP3    H222514   2.061   0.149   7.777 -1.0161  0.4153  0.9007
  319TIP3   OH222515   0.738   0.599   1.829  0.3102 -0.1315  0.2564
  319TIP3    H122516   0.677   0.570   1.762 -1.4852  1.4847  1.0802
  319TIP3    H222517   0.715   0.547   1.907  2.1922 -1.7976 -0.2061
  320TIP3   OH222518   1.342   1.107   0.889  0.1453  0.0963  0.8559
  320TIP3    H122519   1.307   1.105   0.800  1.5570 -1.6247  0.2765
  320TIP3    H222520   1.396   1.186   0.892 -1.4981  1.2782  0.8937
  321TIP3   OH222521   4.813   4.107   0.311 -0.0435 -0.2906 -0.4124
  321TIP3    H122522   4.788   4.166   0.382  1.2272 -1.3825  1.0018
  321TIP3    H222523   4.785   4.021   0.341 -1.6190 -0.5215 -2.3227
  322TIP3   OH222524   1.741   2.382   2.087  0.4159  0.2140 -0.7185
  322TIP3    H122525   1.690   2.460   2.071  1.1313  0.7246 -0.5680
  322TIP3    H222526   1.711   2.349   2.171 -0.9510 -0.5486 -1.4643
  323TIP3   OH222527   2.431   1.551   8.075  0.6265  0.5783  0.6389
  323TIP3    H122528   2.522   1.565   8.050  0.3680  0.9723 -0.1538
  323TIP3    H222529   2.388   1.635   8.055 -0.4958 -0.4839 -1.8930
  324TIP3   OH222530   1.177   6.337   1.212 -0.0277 -0.0910 -0.1657
  324TIP3    H122531   1.181   6.258   1.265 -0.4566 -0.3105 -0.4562
  324TIP3    H222532   1.244   6.324   1.144  0.1535 -0.0448  0.0055
  325TIP3   OH222533   2.318   4.606   2.014 -0.3221 -0.4521 -0.3636
  325TIP3    H122534   2.331   4.686   2.065  3.0618 -0.6176 -0.7582
  325TIP3    H222535   2.320   4.635   1.923  3.3523 -1.0499 -0.6289
  326TIP3   OH222536   3.160   6.230   0.543 -0.0441  0.7652  0.1591
  326TIP3    H122537   3.104   6.297   0.579 -1.9090  1.0785 -2.9234
  326TIP3    H222538   3.181   6.261   0.454  0.7686 -1.7203 -0.6138
  327TIP3   OH222539   3.013   6.673   6.753 -0.0546 -0.1236  0.2195
  327TIP3    H122540   3.017   6.654   6.659  0.2348  2.5303 -0.3742
  327TIP3    H222541   2.942   6.737   6.762 -0.2565 -0.5249  1.8718
  328TIP3   OH222542   6.724   3.468   8.166 -0.4213 -0.0038 -0.4358
  328TIP3    H122543   6.652   3.509   8.214 -0.5264  1.8737 -2.1033
  328TIP3    H222544   6.715   3.500   8.077  2.3484  0.1308 -0.7507
  329TIP3   OH222545   3.056   0.855   7.896  0.1145 -0.1560  0.0033
  329TIP3    H122546   2.970   0.852   7.938  0.6015 -0.0752  1.0416
  329TIP3    H222547   3.074   0.764   7.872 -0.3463 -0.1412 -0.4277
  330TIP3   OH222548   1.032   0.316   1.176  0.3109  0.0416 -0.0281
  330TIP3    H122549   1.080   0.252   1.227  4.1273  2.9183  0.4299
  330TIP3    H222550   1.070   0.310   1.088  0.7902  1.6341  0.0442
  331TIP3   OH222551   4.553   3.500   8.388 -0.1369  0.6904  0.1758
  331TIP3    H122552   4.638   3.527   8.422 -0.6048  3.0176 -0.3085
  331TIP3    H222553   4.517   3.443   8.455  1.1175  0.9909  1.1367
  332TIP3   OH222554   1.563   6.471   1.424 -0.8526  0.3813  0.4279
  332TIP3    H122555   1.570   6.462   1.519  2.1079 -2.3974  0.1085
  332TIP3    H222556   1.549   6.565   1.410  2.1110  1.5172  3.5543
  333TIP3   OH222557   4.555   4.232   8.143 -0.2601 -0.1508 -0.2168
  333TIP3    H122558   4.586   4.205   8.229  1.2852  0.7327 -0.4587
  333TIP3    H222559   4.527   4.322   8.154 -0.2628 -0.1027 -0.5768
  334TIP3   OH222560   6.314   4.607   1.469 -0.8728 -0.3879  0.3809
  334TIP3    H122561   6.287   4.588   1.379  2.7818 -2.0741 -0.5687
  334TIP3    H222562   6.358   4.527   1.498 -0.2201  0.7962  2.9573
  335TIP3   OH222563   2.004   5.980   8.651  0.0316  0.8507  0.0191
  335TIP3    H122564   2.046   6.058   8.614  2.1914  0.5837  1.6752
  335TIP3    H222565   1.985   6.004   8.742 -0.9544  0.0135  0.0534
  336TIP3   OH222566   2.660   6.625   0.866  0.2829  0.4713 -0.0425
  336TIP3    H122567   2.643   6.717   0.886  0.8603  0.4945  0.3542
  336TIP3    H222568   2.575   6.591   0.838 -0.3782  0.6521  1.6519
  337TIP3   OH222569   1.485   5.346   1.067  0.0320 -0.3479 -0.5104
  337TIP3    H122570   1.564   5.295   1.084  0.1373 -0.1662 -0.4487
  337TIP3    H222571   1.484   5.357   0.971 -0.7364 -1.6497 -0.6729
  338TIP3   OH222572   1.598   3.726   8.470  0.2170 -0.1638 -0.0982
  338TIP3    H122573   1.613   3.655   8.408 -0.0487 -0.2440 -0.0736
  338TIP3    H222574   1.637   3.696   8.552  0.3573 -0.1595 -0.1641
  339TIP3   OH222575   4.845   0.354   8.538  0.3280 -0.4691  0.1681
  339TIP3    H122576   4.822   0.362   8.630 -3.3681  0.3084 -0.6646
  339TIP3    H222577   4.786   0.287   8.504  0.1805  0.6762 -2.0054
  340TIP3   OH222578   2.213   4.042   0.452  0.5391 -0.4359  0.5291
  340TIP3    H122579   2.171   4.065   0.534 -0.1949 -1.0144  0.3253
  340TIP3    H222580   2.294   4.094   0.450 -0.9094  1.9332  0.1955
  341TIP3   OH222581   1.712   5.148   8.319  0.5474  0.0034  0.2009
  341TIP3    H122582   1.674   5.117   8.237  1.7903  0.5647 -0.6160
  341TIP3    H222583   1.806   5.128   8.311  0.8051  0.7942  1.1347
  342TIP3   OH222584   6.372   0.260   1.466 -0.1755 -0.1625 -0.3038
  342TIP3    H122585   6.430   0.184   1.470  1.6906  1.1881 -0.1914
  342TIP3    H222586   6.420   0.324   1.414 -0.6757  1.7320  1.4040
  343TIP3   OH222587   1.987   0.648   8.602  0.5496 -0.1071 -0.4232
  343TIP3    H122588   1.990   0.731   8.554 -0.6750 -0.1421 -0.5952
  343TIP3    H222589   1.932   0.666   8.678 -2.0906 -1.4047 -1.8762
  344TIP3   OH222590   6.276   2.792   0.838 -0.2178  0.2855 -0.1272
  344TIP3    H122591   6.370   2.812   0.847 -0.1782 -0.0532  0.2402
  344TIP3    H222592   6.271   2.698   0.850 -0.5631  0.2537 -0.5339
  345TIP3   OH222593   3.049   1.360   0.432 -0.0274 -0.2416 -0.4646
  345TIP3    H122594   2.993   1.286   0.408 -1.0260  0.4535 -0.3164
  345TIP3    H222595   2.993   1.437   0.422  0.9597  0.4920 -0.4971
  346TIP3   OH222596   0.735   0.653   8.131 -0.6342  0.1114 -0.0459
  346TIP3    H122597   0.724   0.745   8.156  1.1377  0.7025 -1.1929
  346TIP3    H222598   0.829   0.639   8.135 -0.9338 -1.9062  0.8027
  347TIP3   OH222599   3.606   3.900   0.036 -0.5871 -0.0924  0.2999
  347TIP3    H122600   3.696   3.934   0.039 -0.6602  0.4632 -1.7398
  347TIP3    H222601   3.613   3.818  -0.013 -1.3544  0.8218 -1.4496
  348TIP3   OH222602   0.962   6.359   0.728  0.3015 -0.0663  0.0900
  348TIP3    H122603   1.013   6.314   0.795 -1.3374 -0.6811  0.9682
  348TIP3    H222604   0.871   6.347   0.755 -0.3383  0.6946 -1.6209
  349TIP3   OH222605   3.768   3.655   1.093  0.4226 -0.4156 -0.2532
  349TIP3    H122606   3.745   3.729   1.037 -0.6071 -1.0632 -0.6971
  349TIP3    H222607   3.775   3.693   1.181 -1.1494  0.0307 -0.3004
  350TIP3   OH222608   4.306   3.674   7.960  0.2754  0.1840  0.6820
  350TIP3    H122609   4.368   3.647   8.028  1.5263 -0.6539 -0.7332
  350TIP3    H222610   4.343   3.754   7.924 -0.1843  0.4176  0.7206
  351TIP3   OH222611   1.131   1.682   7.603 -0.3043  0.9772  0.0423
  351TIP3    H122612   1.167   1.656   7.519  0.1494 -0.7859  0.7152
  351TIP3    H222613   1.040   1.651   7.601  0.1451 -0.5009  0.7291
  352TIP3   OH222614   0.301   1.301   7.929  0.5555 -0.6132 -0.7272
  352TIP3    H122615   0.292   1.345   7.844 -1.0017 -1.7413 -1.2060
  352TIP3    H222616   0.394   1.307   7.951  0.6505  1.4732 -1.5230
  353TIP3   OH222617   0.929   1.477   0.476 -0.0820  0.0732  0.4520
  353TIP3    H122618   1.021   1.500   0.465 -0.1051 -0.7521 -2.2461
  353TIP3    H222619   0.886   1.557   0.506  1.2241  0.9583 -0.0008
  354TIP3   OH222620   3.143   3.008   6.245 -0.1368  0.0644 -0.1560
  354TIP3    H122621   3.146   2.966   6.331 -0.6612 -0.1567 -0.2436
  354TIP3    H222622   3.229   3.049   6.235  0.3667 -0.9269 -0.0326
  355TIP3   OH222623   6.097   0.255   7.370  0.1867 -0.2704  0.1715
  355TIP3    H122624   6.012   0.255   7.325  0.5084 -1.0143 -0.4687
  355TIP3    H222625   6.155   0.208   7.310  1.2660  0.9651  0.2249
  356TIP3   OH222626   2.693   1.675   8.033 -0.9473  0.2743 -0.2099
  356TIP3    H122627   2.773   1.727   8.034 -0.9984  0.3813 -1.0406
  356TIP3    H222628   2.658   1.687   7.945  0.2542 -2.9522 -1.2911
  357TIP3   OH222629   0.911   2.377   0.069  0.3960 -0.0850  0.3674
  357TIP3    H122630   0.931   2.430   0.146  0.1761  0.8238 -0.1826
  357TIP3    H222631   0.955   2.421  -0.004  2.3808 -2.0897  0.2507
  358TIP3   OH222632   2.347   2.111   0.037  0.2872 -0.1363 -0.1669
  358TIP3    H122633   2.401   2.059  -0.022  0.3186 -1.0777  0.6656
  358TIP3    H222634   2.306   2.047   0.095  0.8681  0.8009  1.3254
  359TIP3   OH222635   2.172   5.703   1.607  0.2117 -0.8227  0.0504
  359TIP3    H122636   2.255   5.750   1.597  0.4502 -1.3568 -0.5877
  359TIP3    H222637   2.142   5.724   1.696  0.0404  0.9507 -0.3836
  360TIP3   OH222638   2.248   3.988   1.884  0.0555  0.4330 -0.1293
  360TIP3    H122639   2.154   4.005   1.882  0.0155  0.5557  1.5135
  360TIP3    H222640   2.263   3.927   1.812 -1.4900 -0.5817  0.3664
  361TIP3   OH222641   6.179   1.080   1.786 -0.3892 -0.1624  0.3249
  361TIP3    H122642   6.237   1.076   1.862 -0.4863 -3.1716  0.3593
  361TIP3    H222643   6.092   1.096   1.823 -0.2858 -0.6217  0.7887
  362TIP3   OH222644   5.151   1.648   0.746 -0.4772 -0.2703  0.0521
  362TIP3    H122645   5.088   1.622   0.812  0.4744  1.0969  1.5737
  362TIP3    H222646   5.216   1.578   0.745 -2.1238 -1.9116 -1.8438
  363TIP3   OH222647   0.354   0.099   6.932 -0.0847  0.0279 -0.3115
  363TIP3    H122648   0.271   0.063   6.963 -0.2591  0.2545 -0.5156
  363TIP3    H222649   0.391   0.029   6.877 -0.0965 -0.1061 -0.1520
  364TIP3   OH222650   5.801   4.143   8.240  0.5335  0.2270 -0.3546
  364TIP3    H122651   5.753   4.074   8.195  0.3749  0.0550  0.0674
  364TIP3    H222652   5.878   4.158   8.186  0.0937  0.3879 -0.9553
  365TIP3   OH222653   3.273   5.226   2.518 -1.0414 -0.2190  0.1537
  365TIP3    H122654   3.227   5.150   2.484 -1.6306 -0.8348  2.1686
  365TIP3    H222655   3.317   5.194   2.597  0.4925  1.0384 -0.1498
  366TIP3   OH222656   0.420   2.514   0.400 -0.4635 -0.1506 -0.6436
  366TIP3    H122657   0.456   2.426   0.412  0.1134  0.0857 -0.5896
  366TIP3    H222658   0.497   2.571   0.394 -0.7817  0.1672 -2.1748
  367TIP3   OH222659   1.887   0.409   1.091  0.7145 -0.0958  0.1146
  367TIP3    H122660   1.804   0.443   1.058  0.6006  0.5626  1.0465
  367TIP3    H222661   1.926   0.482   1.139  1.0564 -0.8931  1.0883
  368TIP3   OH222662   6.312   5.783   8.170 -0.3519  1.0650  0.3760
  368TIP3    H122663   6.245   5.718   8.192  0.6241 -0.3726 -0.7152
  368TIP3    H222664   6.369   5.785   8.247 -1.0400  1.5381  0.8944
  369TIP3   OH222665   3.185   2.895   2.272 -0.5255 -0.2677 -0.1639
  369TIP3    H122666   3.108   2.880   2.217 -0.6390  1.4717 -0.5359
  369TIP3    H222667   3.202   2.989   2.265  0.2836 -0.2257  1.7105
  370TIP3   OH222668   1.449   3.178   0.299 -0.1922  0.0174  0.0732
  370TIP3    H122669   1.497   3.253   0.335 -0.0822 -0.3277  0.6644
  370TIP3    H222670   1.357   3.203   0.306 -0.1336  0.3915 -0.4071
  371TIP3   OH222671   4.401   0.438   7.524 -0.3748  0.1273  0.2804
  371TIP3    H122672   4.437   0.468   7.608  1.5752  2.1115 -1.1565
  371TIP3    H222673   4.443   0.354   7.509  0.6139  0.5713  0.4942
  372TIP3   OH222674   0.134   6.385   0.436 -0.1024 -0.4085 -0.6262
  372TIP3    H122675   0.173   6.429   0.361 -1.2850  1.4679 -0.1757
  372TIP3    H222676   0.048   6.425   0.447  0.0064 -0.6631  1.6863
  373TIP3   OH222677   4.588   0.815   7.895  0.0493 -0.5608  0.2557
  373TIP3    H122678   4.540   0.853   7.968  0.7857 -0.3100  0.6201
  373TIP3    H222679   4.651   0.755   7.936  1.0056  0.1701 -0.1121
  374TIP3   OH222680   3.827   0.718   7.147 -0.5247  0.4696  0.0585
  374TIP3    H122681   3.827   0.643   7.087 -0.3509  1.3652 -1.1018
  374TIP3    H222682   3.753   0.771   7.118  0.1895  1.4332 -0.0292
  375TIP3   OH222683   4.427   3.622   1.130  0.2698 -1.0513  0.1181
  375TIP3    H122684   4.341   3.660   1.151  0.7851 -1.2597  2.9466
  375TIP3    H222685   4.474   3.692   1.086 -1.2764 -0.9161 -1.4589
  376TIP3   OH222686   1.148   1.852   7.250 -0.0930  0.1991 -0.4530
  376TIP3    H122687   1.235   1.862   7.289 -1.0801  2.2571  1.4552
  376TIP3    H222688   1.151   1.905   7.171  0.0545  1.3101  0.2737
  377TIP3   OH222689   5.079   3.734   7.795 -0.6713 -0.4275 -0.2442
  377TIP3    H122690   5.021   3.740   7.719 -1.5927  2.1489  0.5491
  377TIP3    H222691   5.153   3.682   7.765 -2.2359 -1.7354 -2.0607
  378TIP3   OH222692   5.830   3.059   8.622 -0.9344 -0.0048  0.2991
  378TIP3    H122693   5.780   3.097   8.695  1.2449  0.1323  1.8196
  378TIP3    H222694   5.881   3.132   8.587 -1.6821 -0.1561 -1.1888
  379TIP3   OH222695   4.049   2.197   8.194 -0.4059 -0.1273  0.1047
  379TIP3    H122696   4.106   2.124   8.170  0.1821  1.2620 -3.2047
  379TIP3    H222697   3.972   2.156   8.232  0.4990 -2.3723 -0.3566
  380TIP3   OH222698   5.057   0.653   1.982  0.0379 -0.2713  0.4552
  380TIP3    H122699   5.108   0.729   1.953 -1.3605  0.4997 -0.0993
  380TIP3    H222700   4.974   0.662   1.936  0.1909 -2.7156 -0.3913
  381TIP3   OH222701   6.466   0.435   0.747  0.1328 -0.1282  0.4803
  381TIP3    H122702   6.429   0.353   0.714 -0.4636  0.1350  0.4826
  381TIP3    H222703   6.391   0.495   0.753  0.6173  0.5405  0.1049
  382TIP3   OH222704   3.738   6.022   7.434 -0.5975 -0.3881  0.0623
  382TIP3    H122705   3.755   6.060   7.520  1.4276 -1.3511  0.1313
  382TIP3    H222706   3.685   6.088   7.389 -1.7439  0.1135  2.0282
  383TIP3   OH222707   5.695   5.598   0.910 -0.2582  0.2958  0.7887
  383TIP3    H122708   5.725   5.673   0.962  0.0665 -0.0480  1.1017
  383TIP3    H222709   5.701   5.524   0.970  0.1322 -0.1108  0.2541
  384TIP3   OH222710   4.486   6.715   6.315  0.5261 -0.1234  0.3585
  384TIP3    H122711   4.499   6.796   6.265  2.2881 -0.5109  0.1347
  384TIP3    H222712   4.558   6.659   6.289  0.0914 -1.2664  1.5326
  385TIP3   OH222713   0.526   4.097   8.582  0.2281  0.2387  0.0314
  385TIP3    H122714   0.437   4.094   8.547 -0.4487 -0.4328  1.6866
  385TIP3    H222715   0.514   4.092   8.677  1.9814  1.5217  0.3717
  386TIP3   OH222716   2.431   4.808   7.356  0.4293  0.2749 -0.0776
  386TIP3    H122717   2.483   4.756   7.417  0.0000 -0.3194 -0.2076
  386TIP3    H222718   2.384   4.871   7.410  2.5548  1.9990 -0.0802
  387TIP3   OH222719   6.359   2.669   6.827 -0.3632 -0.3233  0.4302
  387TIP3    H122720   6.265   2.683   6.820 -1.1402 -3.1747  3.0053
  387TIP3    H222721   6.383   2.626   6.745 -1.2786  0.2695 -0.1784
  388TIP3   OH222722   2.452   3.652   0.070  0.2060 -0.0845  0.6623
  388TIP3    H122723   2.471   3.729   0.124  1.0968 -0.4532  0.8816
  388TIP3    H222724   2.360   3.663   0.045 -0.4282 -0.2250  2.7415
  389TIP3   OH222725   6.702   5.053   7.310  0.4391 -0.4575 -0.2647
  389TIP3    H122726   6.639   5.119   7.340 -0.7418 -1.0976 -1.2303
  389TIP3    H222727   6.775   5.059   7.372 -0.5501  0.3538  0.8675
  390TIP3   OH222728   6.138   6.729   7.066  0.3559  0.2022 -0.0103
  390TIP3    H122729   6.165   6.670   7.135 -0.5833 -1.5965 -1.1055
  390TIP3    H222730   6.101   6.672   6.998  0.5216  1.9441 -1.6568
  391TIP3   OH222731   3.115   5.187   8.705 -0.0245 -0.4754 -0.4093
  391TIP3    H122732   3.053   5.205   8.775  1.1562 -0.7119  0.7327
  391TIP3    H222733   3.093   5.099   8.675 -0.4674 -0.4158 -0.2604
  392TIP3   OH222734   2.027   4.817   1.316  0.5128  0.0475  0.0426
  392TIP3    H122735   1.991   4.879   1.253 -0.4189  1.0969  1.5265
  392TIP3    H222736   2.094   4.867   1.362  1.8945 -1.0107 -0.7362
  393TIP3   OH222737   6.800   5.049   8.570  0.0762  0.1234 -0.5485
  393TIP3    H122738   6.737   5.062   8.640  0.2957 -2.3434  0.1998
  393TIP3    H222739   6.756   5.082   8.491 -1.7442 -0.5597  0.1294
  394TIP3   OH222740   0.410   2.101   2.156 -1.0092  0.0589  1.0789
  394TIP3    H122741   0.393   2.127   2.066 -1.6664  0.9352  1.4374
  394TIP3    H222742   0.504   2.082   2.158 -0.7852  1.0078  0.4341
  395TIP3   OH222743   5.309   3.314   1.981  0.4722 -0.3627 -0.3468
  395TIP3    H122744   5.293   3.408   1.987  0.7415 -0.4148  2.7364
  395TIP3    H222745   5.403   3.305   1.993  0.2069 -1.0515  1.7396
  396TIP3   OH222746   5.602   5.604   8.038 -0.0607 -0.3709 -0.1999
  396TIP3    H122747   5.680   5.611   8.094  0.1124  0.1373 -0.4965
  396TIP3    H222748   5.634   5.561   7.959 -0.1560 -0.4524 -0.1941
  397TIP3   OH222749   1.586   1.984   0.865  0.4411 -0.3267  0.7215
  397TIP3    H122750   1.644   2.043   0.817 -0.7636  0.2102 -0.1361
  397TIP3    H222751   1.640   1.948   0.935  1.9069 -0.1925 -0.3143
  398TIP3   OH222752   5.203   2.510   1.819  0.2113  0.4088  0.8349
  398TIP3    H122753   5.143   2.465   1.878 -1.3780 -0.0129 -1.0055
  398TIP3    H222754   5.153   2.585   1.786 -0.2061 -1.1004 -2.3366
  399TIP3   OH222755   4.058   0.951   1.043  0.0465 -0.1913 -0.3062
  399TIP3    H122756   4.144   0.951   1.001  0.7266  1.7367  0.9528
  399TIP3    H222757   4.000   0.992   0.980  0.7592  1.3794  0.0081
  400TIP3   OH222758   2.271   2.819   1.606  0.6584  0.2645  0.1550
  400TIP3    H122759   2.359   2.826   1.643  0.2654 -0.5435  1.3133
  400TIP3    H222760   2.280   2.756   1.535  1.0174  0.1671  0.2848
  401TIP3   OH222761   5.484   2.324   2.137 -0.1709  0.5275  0.2981
  401TIP3    H122762   5.430   2.250   2.112  1.2299 -0.1997 -0.7220
  401TIP3    H222763   5.542   2.338   2.062  1.6005  0.7175  1.6317
  402TIP3   OH222764   4.503   6.841   8.387  0.3285 -0.2656 -0.0413
  402TIP3    H122765   4.488   6.842   8.293 -1.7120 -1.2407  0.2240
  402TIP3    H222766   4.584   6.791   8.398  2.0290  2.0399 -1.3787
  403TIP3   OH222767   0.134   3.968   0.146 -0.2506  0.4439 -0.1213
  403TIP3    H122768   0.069   3.899   0.156  0.1760  0.0981  0.2970
  403TIP3    H222769   0.084   4.043   0.113 -0.7235 -0.0394 -0.5104
  404TIP3   OH222770   3.926   6.655   2.790  0.5287 -0.2792  0.3227
  404TIP3    H122771   3.999   6.627   2.734  0.3988  0.6600 -0.3328
  404TIP3    H222772   3.924   6.590   2.860  2.0304 -0.2927  0.3869
  405TIP3   OH222773   2.837   2.889   8.519 -0.7357  0.2481  0.4743
  405TIP3    H122774   2.813   2.796   8.518 -1.3313  0.3940 -0.2010
  405TIP3    H222775   2.770   2.931   8.465 -0.8189  1.1620  1.2600
  406TIP3   OH222776   5.823   6.653   7.248  0.5162  0.2240 -0.2478
  406TIP3    H122777   5.916   6.670   7.232  0.0828  1.2676 -1.9270
  406TIP3    H222778   5.817   6.558   7.255  1.6497  0.1150 -0.5463
  407TIP3   OH222779   1.078   4.400   1.166  0.4899 -0.5278  0.2628
  407TIP3    H122780   1.051   4.490   1.185 -0.2446 -0.9149  1.1227
  407TIP3    H222781   1.163   4.390   1.211 -0.5761 -0.9976  2.3250
  408TIP3   OH222782   6.773   6.773   7.357 -0.3247  0.3882  0.3092
  408TIP3    H122783   6.708   6.762   7.287 -0.5766  1.9578  0.2589
  408TIP3    H222784   6.797   6.683   7.382 -2.5909 -0.2725  0.3987
  409TIP3   OH222785   4.072   2.627   8.666 -0.6408  0.1690  0.3490
  409TIP3    H122786   4.124   2.619   8.746  1.1335  0.2065 -0.7616
  409TIP3    H222787   4.100   2.554   8.611 -0.9331  0.8445 -0.7273
  410TIP3   OH222788   0.654   6.322   7.083 -0.0034 -0.5809  0.3821
  410TIP3    H122789   0.749   6.324   7.065  0.0346  1.6992  0.4968
  410TIP3    H222790   0.614   6.316   6.996  0.2865  2.4748 -0.0958
  411TIP3   OH222791   3.153   2.639   6.253 -0.0506  0.2814  0.5014
  411TIP3    H122792   3.217   2.701   6.288  2.6474 -1.9031 -0.1983
  411TIP3    H222793   3.113   2.600   6.331  0.2394  0.9074  0.9710
  412TIP3   OH222794   4.400   0.377   8.204 -0.0883 -0.2293 -0.6875
  412TIP3    H122795   4.371   0.464   8.230  1.6148  0.3645 -0.6337
  412TIP3    H222796   4.406   0.381   8.109 -0.8020 -0.5663 -0.7532
  413TIP3   OH222797   0.490   3.222   8.481 -0.6311  0.2092 -0.0349
  413TIP3    H122798   0.561   3.254   8.537 -1.1597 -0.7662  1.2335
  413TIP3    H222799   0.452   3.301   8.443 -0.2202  0.8889  0.9298
  414TIP3   OH222800   5.224   4.130   8.275  0.5356 -0.6749 -0.8116
  414TIP3    H122801   5.300   4.154   8.221  1.5431 -0.1215  0.7830
  414TIP3    H222802   5.216   4.035   8.264 -1.0081 -0.3067 -4.0251
  415TIP3   OH222803   0.438   4.596   0.803  0.3134 -0.2090 -0.3983
  415TIP3    H122804   0.525   4.577   0.839  0.6845 -0.3399 -1.3247
  415TIP3    H222805   0.382   4.528   0.838  0.4544  0.1956  0.6543
  416TIP3   OH222806   5.251   3.575   2.147  0.0429  0.5336  0.5363
  416TIP3    H122807   5.315   3.543   2.210  1.1058  0.9864 -0.2858
  416TIP3    H222808   5.174   3.594   2.200 -0.1649 -1.9442  1.2763
  417TIP3   OH222809   0.282   4.485   7.402 -0.3064 -0.0965 -0.1734
  417TIP3    H122810   0.187   4.485   7.408 -0.3108 -0.2426 -0.2344
  417TIP3    H222811   0.307   4.577   7.415 -0.5360  0.1645 -1.4495
  418TIP3   OH222812   5.573   1.347   8.126  0.1712  0.1838  0.2622
  418TIP3    H122813   5.612   1.311   8.205 -1.2378 -0.8184  0.5297
  418TIP3    H222814   5.505   1.407   8.157 -1.7060 -1.6404 -0.1026
  419TIP3   OH222815   3.175   0.090   7.485  0.0175 -0.0043  0.1373
  419TIP3    H122816   3.224   0.009   7.501  0.1886 -0.1936 -1.2386
  419TIP3    H222817   3.216   0.154   7.542  1.7081 -0.2307 -0.7481
  420TIP3   OH222818   5.592   0.643   1.437 -0.2752  0.2069 -0.5809
  420TIP3    H122819   5.541   0.724   1.438  0.6829  0.8452 -1.4283
  420TIP3    H222820   5.551   0.588   1.504 -0.9882  1.3633 -0.0327
  421TIP3   OH222821   4.803   2.975   8.461 -0.6363  0.2295 -0.6672
  421TIP3    H122822   4.793   2.904   8.524 -0.8676  0.9763  0.1531
  421TIP3    H222823   4.716   2.986   8.424 -0.1797 -1.2673 -2.3183
  422TIP3   OH222824   2.300   0.616   7.834  0.8027  0.1798  0.5620
  422TIP3    H122825   2.209   0.606   7.805  1.0602 -0.1315 -0.1878
  422TIP3    H222826   2.301   0.695   7.887  0.7214  2.1460 -2.1741
  423TIP3   OH222827   0.270   3.242   0.734 -0.4363  0.9307 -0.2785
  423TIP3    H122828   0.352   3.290   0.745 -1.3742  2.3628  0.7906
  423TIP3    H222829   0.266   3.183   0.810  1.0829 -1.5583 -1.9744
  424TIP3   OH222830   0.051   2.816   0.719 -0.2930 -0.2434 -0.0204
  424TIP3    H122831   0.051   2.772   0.804 -2.1174 -0.5464 -0.1437
  424TIP3    H222832   0.122   2.773   0.671  0.4408 -0.4020  1.1557
  425TIP3   OH222833   4.713   2.216   0.248 -0.1621  0.1836 -0.0389
  425TIP3    H122834   4.628   2.260   0.244 -0.6714 -0.8244 -0.9658
  425TIP3    H222835   4.776   2.283   0.222 -0.6663  0.9382  0.6391
  426TIP3   OH222836   5.961   6.847   0.027 -0.1014 -0.0358  0.3185
  426TIP3    H122837   5.903   6.919   0.004 -0.8518 -1.1560 -1.5407
  426TIP3    H222838   5.903   6.780   0.064  0.2471 -0.5190  0.0016
  427TIP3   OH222839   5.781   5.675   0.643 -0.1274 -0.5319 -0.0025
  427TIP3    H122840   5.760   5.615   0.714 -0.4086 -0.8364 -0.3345
  427TIP3    H222841   5.775   5.762   0.681 -0.8797 -0.6653  0.1914
  428TIP3   OH222842   4.091   6.385   8.355  0.6932 -0.2054  0.1411
  428TIP3    H122843   4.164   6.357   8.299  0.4807 -1.0857  0.2830
  428TIP3    H222844   4.132   6.407   8.439  0.6725 -2.2174  0.7417
  429TIP3   OH222845   5.031   5.274   2.280  0.2364 -0.1846 -0.1560
  429TIP3    H122846   5.001   5.277   2.189  0.9793  0.8745 -0.3842
  429TIP3    H222847   5.126   5.276   2.274  0.3219  2.6482  0.6520
  430TIP3   OH222848   6.478   5.647   1.327  0.0766  0.3890  0.2036
  430TIP3    H122849   6.472   5.673   1.235 -2.2463 -0.0107  0.1785
  430TIP3    H222850   6.391   5.666   1.363  0.7807  0.0497  2.1913
  431TIP3   OH222851   5.503   3.884   0.591  0.4484  0.6188 -0.0946
  431TIP3    H122852   5.497   3.813   0.655  0.6563  0.4402 -0.2743
  431TIP3    H222853   5.472   3.961   0.638 -2.9203 -0.1422 -0.7967
  432TIP3   OH222854   3.891   5.496   0.482  0.3248  0.3498 -0.0724
  432TIP3    H122855   3.882   5.591   0.490  3.2061  0.6994  0.1346
  432TIP3    H222856   3.856   5.461   0.564  2.3566  1.5865  1.4247
  433TIP3   OH222857   2.771   5.879   6.905  0.6328  0.4565  0.8174
  433TIP3    H122858   2.718   5.894   6.983  0.4725  2.4441  0.3849
  433TIP3    H222859   2.715   5.908   6.833  1.5319  0.5634  0.1472
  434TIP3   OH222860   3.958   2.741   1.102  0.0255 -0.6850 -0.9316
  434TIP3    H122861   3.963   2.661   1.049 -0.9592 -0.0319 -2.0693
  434TIP3    H222862   3.867   2.771   1.092  0.3768  0.5890 -0.5538
  435TIP3   OH222863   5.353   2.696   7.322  0.1669 -0.4962  0.4312
  435TIP3    H122864   5.302   2.745   7.257  0.6472 -0.3625  0.1461
  435TIP3    H222865   5.307   2.709   7.404 -0.4892 -0.7215  0.1038
  436TIP3   OH222866   1.289   2.991   7.493  0.7619 -0.7273  0.1300
  436TIP3    H122867   1.306   2.896   7.496 -1.0024 -1.0509  1.8039
  436TIP3    H222868   1.335   3.025   7.569  3.2761  0.2019 -1.6694
  437TIP3   OH222869   5.909   1.794   7.165  0.0500  0.0755 -0.3367
  437TIP3    H122870   5.912   1.741   7.086 -0.8356 -2.0962  0.9922
  437TIP3    H222871   5.959   1.745   7.229 -0.9435  0.7347  1.0055
  438TIP3   OH222872   4.293   2.102   1.167  0.2168 -0.2026 -0.5423
  438TIP3    H122873   4.362   2.120   1.230  1.7614 -0.5252 -2.0453
  438TIP3    H222874   4.214   2.139   1.206  1.8521  3.4289 -0.2599
  439TIP3   OH222875   5.820   2.017   2.107  0.1269 -0.4297  0.3589
  439TIP3    H122876   5.831   2.056   2.194  2.0273 -0.7115  0.2940
  439TIP3    H222877   5.838   1.924   2.119  1.2683 -0.3351 -0.4659
  440TIP3   OH222878   2.143   2.921   1.974  0.0328  0.0797 -0.8425
  440TIP3    H122879   2.073   2.921   1.909  0.6390 -0.1927 -1.5173
  440TIP3    H222880   2.102   2.954   2.054 -0.9236 -0.3407 -1.1476
  441TIP3   OH222881   4.262   6.780   1.799 -0.1338  0.3672 -0.5551
  441TIP3    H122882   4.169   6.794   1.781 -0.9609 -0.6840  2.2485
  441TIP3    H222883   4.298   6.868   1.809 -1.2910  0.7807  0.1888
  442TIP3   OH222884   5.124   6.678   1.463 -0.2463  0.3894  0.7374
  442TIP3    H122885   5.173   6.670   1.381 -1.5846 -2.6677  0.1029
  442TIP3    H222886   5.036   6.707   1.435 -1.3572 -2.6985  0.7013
  443TIP3   OH222887   1.971   6.764   2.249 -0.7360  0.1027  0.7210
  443TIP3    H122888   1.973   6.739   2.157 -0.4615  1.9404  0.1912
  443TIP3    H222889   1.908   6.836   2.253 -0.6847  0.1024  1.9686
  444TIP3   OH222890   4.629   5.562   6.947  0.5566 -0.4335 -0.0811
  444TIP3    H122891   4.587   5.557   6.861  1.0953 -1.3249 -0.3016
  444TIP3    H222892   4.555   5.559   7.009  0.0302  1.9657 -0.4983
  445TIP3   OH222893   0.346   4.283   0.136  0.4073  0.4998 -0.3221
  445TIP3    H122894   0.394   4.337   0.073 -1.3078  2.1080 -0.3315
  445TIP3    H222895   0.398   4.203   0.143  2.6101  1.7786 -0.9632
  446TIP3   OH222896   3.532   5.700   0.647  0.0284  0.7432  0.5437
  446TIP3    H122897   3.554   5.614   0.610  0.0709  0.5669  0.9737
  446TIP3    H222898   3.541   5.761   0.573 -1.1346  0.2152 -0.0568
  447TIP3   OH222899   4.303   4.694   8.707  0.1679  0.3444  0.4844
  447TIP3    H122900   4.367   4.751   8.665  0.8394 -0.8754 -0.1739
  447TIP3    H222901   4.252   4.658   8.635 -0.1511 -0.0147  0.8865
  448TIP3   OH222902   2.528   1.676   1.324  0.1706  0.5471  0.1495
  448TIP3    H122903   2.549   1.760   1.366 -1.3158  0.3270  1.4400
  448TIP3    H222904   2.437   1.660   1.348  0.2718 -1.1970 -0.5195
  449TIP3   OH222905   4.206   6.718   6.399  0.4240  0.0166  0.7608
  449TIP3    H122906   4.214   6.811   6.420 -0.8050  0.5403 -0.8980
  449TIP3    H222907   4.285   6.699   6.347 -0.2190  0.6451 -0.4982
  450TIP3   OH222908   5.868   1.793   1.507  0.2616 -0.0297 -0.0178
  450TIP3    H122909   5.955   1.827   1.529 -0.1983  0.8124  0.5888
  450TIP3    H222910   5.849   1.728   1.574  1.0871 -1.4336 -1.1006
  451TIP3   OH222911   0.018   0.358   7.315 -0.3105 -0.3844  0.4101
  451TIP3    H122912   0.039   0.297   7.245  0.0263 -2.0213  1.8588
  451TIP3    H222913  -0.054   0.316   7.363 -1.0527  1.0554  0.6140
  452TIP3   OH222914   1.507   2.153   2.093 -0.1136  0.4998  0.0815
  452TIP3    H122915   1.490   2.244   2.114 -3.1689  0.1659 -0.5069
  452TIP3    H222916   1.444   2.104   2.146  0.8868 -1.2326 -0.2479
  453TIP3   OH222917   5.306   3.432   8.380 -0.5448 -0.1201  0.5882
  453TIP3    H122918   5.216   3.432   8.347 -0.2126  0.6954 -0.3484
  453TIP3    H222919   5.320   3.343   8.412 -1.4552 -0.4414  0.1139
  454TIP3   OH222920   4.038   1.407   8.315  0.0482  0.2016 -0.0918
  454TIP3    H122921   3.954   1.408   8.361 -0.6209 -3.2024 -0.9326
  454TIP3    H222922   4.015   1.424   8.224  0.2373 -0.6832 -0.3152
  455TIP3   OH222923   6.424   5.734   7.499  0.0909  0.1812  0.1221
  455TIP3    H122924   6.449   5.762   7.411  0.6854  1.1745  0.5918
  455TIP3    H222925   6.505   5.734   7.549 -0.3456  0.2788  0.8434
  456TIP3   OH222926   0.191   3.772   8.127  0.2243 -0.7171  0.0605
  456TIP3    H122927   0.133   3.725   8.067  1.2236  0.4272 -1.8953
  456TIP3    H222928   0.136   3.789   8.204 -1.1166 -2.1882 -0.5104
  457TIP3   OH222929   1.123   0.093   7.202  0.8694  0.0628 -0.3210
  457TIP3    H122930   1.156   0.053   7.283  1.4174  1.9083  0.4213
  457TIP3    H222931   1.067   0.025   7.163  1.5551 -1.3103  0.9719
  458TIP3   OH222932   3.214   4.633   0.882  0.1105  0.1550 -0.0026
  458TIP3    H122933   3.122   4.637   0.909  0.5812  3.3118  1.6355
  458TIP3    H222934   3.243   4.545   0.907 -2.0717 -0.3667  0.9054
  459TIP3   OH222935   1.982   2.125   1.238  1.1527  0.4688  0.3537
  459TIP3    H122936   1.980   2.032   1.262  2.2437  0.2954 -0.1694
  459TIP3    H222937   2.024   2.127   1.152 -0.1140  1.3346 -0.2673
  460TIP3   OH222938   2.306   0.392   0.782 -0.6777 -0.2896  0.2608
  460TIP3    H122939   2.325   0.369   0.873  0.1795 -2.6738 -0.4417
  460TIP3    H222940   2.216   0.365   0.768 -0.4604 -0.9641  0.1237
  461TIP3   OH222941   2.446   5.985   0.065 -0.0565 -0.2193 -0.1872
  461TIP3    H122942   2.410   6.071   0.087 -1.8939 -0.7853 -0.8636
  461TIP3    H222943   2.491   5.957   0.144 -0.9709  0.5922  0.6446
  462TIP3   OH222944   2.600   5.502   0.939 -0.7162 -0.0903 -0.1778
  462TIP3    H122945   2.572   5.558   1.012  1.1073  0.1548  0.3822
  462TIP3    H222946   2.550   5.421   0.951  0.0434 -0.3308  1.8063
  463TIP3   OH222947   2.380   3.821   6.771  0.2097  0.8932  0.2379
  463TIP3    H122948   2.375   3.879   6.695  2.8698 -1.5638 -2.1018
  463TIP3    H222949   2.311   3.756   6.757 -0.4603  1.4410  0.9339
  464TIP3   OH222950   1.094   5.249   0.419  0.2606 -0.2311 -0.3703
  464TIP3    H122951   1.082   5.311   0.348  0.2042  0.2617  0.0607
  464TIP3    H222952   1.167   5.194   0.392  0.6861  0.3946 -0.5056
  465TIP3   OH222953   0.923   6.384   6.775  0.4763  0.6665 -0.4233
  465TIP3    H122954   0.827   6.383   6.770  0.4611  0.7194 -0.1734
  465TIP3    H222955   0.952   6.387   6.684  0.2272  1.4046 -0.4833
  466TIP3   OH222956   2.971   0.090   7.751 -0.7634 -0.1558 -0.3387
  466TIP3    H122957   2.995   0.180   7.731 -1.8691 -0.2000 -2.0150
  466TIP3    H222958   2.952   0.090   7.845  2.0670  0.6603  0.3481
  467TIP3   OH222959   5.297   5.264   1.783  0.0766  0.2895 -0.8754
  467TIP3    H122960   5.301   5.359   1.770 -3.1293  0.6770  0.0775
  467TIP3    H222961   5.228   5.235   1.723  0.7953 -1.4113 -0.9297
  468TIP3   OH222962   1.740   6.483   1.920  0.1633  0.1525 -0.1118
  468TIP3    H122963   1.833   6.460   1.918  0.4482  1.2530 -1.7858
  468TIP3    H222964   1.734   6.556   1.982  0.5100  0.3954 -0.3581
  469TIP3   OH222965   4.737   0.101   1.653  0.1550  0.3420 -0.1768
  469TIP3    H122966   4.803   0.153   1.609  0.3327  0.8017  0.6151
  469TIP3    H222967   4.673   0.164   1.685  2.7137  0.8736  5.0280
  470TIP3   OH222968   1.599   4.980   7.242 -0.7266 -0.2312  0.0942
  470TIP3    H122969   1.693   4.988   7.227 -0.5116 -0.9375  1.0439
  470TIP3    H222970   1.567   4.928   7.168 -0.7516  1.8180 -1.4196
  471TIP3   OH222971   3.892   0.296   7.294  0.4799  0.6000 -0.2956
  471TIP3    H122972   3.916   0.333   7.209 -1.2977  0.0737 -1.0741
  471TIP3    H222973   3.946   0.217   7.302  0.7529  0.7198 -0.8986
  472TIP3   OH222974   2.165   5.523   7.956 -0.5787 -0.0726 -0.1912
  472TIP3    H122975   2.128   5.436   7.970 -2.0130  0.1801 -2.0060
  472TIP3    H222976   2.150   5.541   7.864 -1.0953  2.4514  0.3114
  473TIP3   OH222977   6.513   5.916   0.242  0.2453 -0.3419  0.1005
  473TIP3    H122978   6.589   5.969   0.268 -0.3190 -0.4963  2.2099
  473TIP3    H222979   6.523   5.834   0.291 -0.6543 -0.8634 -0.5627
  474TIP3   OH222980   4.225   4.184   2.916 -0.0970 -0.4016  0.6187
  474TIP3    H122981   4.266   4.103   2.886 -0.0826  0.1967 -1.0950
  474TIP3    H222982   4.289   4.252   2.897 -0.5414  0.1463  1.0379
  475TIP3   OH222983   2.219   2.930   7.876 -0.3574 -0.0946 -0.0106
  475TIP3    H122984   2.147   2.898   7.930  0.5278 -1.3374  0.4937
  475TIP3    H222985   2.292   2.941   7.937  0.2949 -0.2681 -0.7361
  476TIP3   OH222986   1.709   3.675   0.001  0.2287 -0.1770 -0.3024
  476TIP3    H122987   1.643   3.619   0.042  0.5094  1.0695  2.0732
  476TIP3    H222988   1.792   3.637   0.029  0.4717 -0.0887 -0.8923
  477TIP3   OH222989   5.737   3.795   8.684 -0.0991  0.1282 -0.3624
  477TIP3    H122990   5.764   3.874   8.731 -0.0598 -0.4488  0.6182
  477TIP3    H222991   5.655   3.819   8.640 -1.0521  0.1998  1.3898
  478TIP3   OH222992   5.926   1.199   7.129  0.0862  0.0582 -0.4681
  478TIP3    H122993   5.951   1.148   7.052 -0.5237 -0.4517 -0.3372
  478TIP3    H222994   6.002   1.195   7.187 -0.3641 -1.7104  0.0487
  479TIP3   OH222995   3.962   3.108   7.680 -0.2598  0.3741  0.0215
  479TIP3    H122996   3.944   3.102   7.774  2.1944  2.9353  0.7972
  479TIP3    H222997   4.001   3.194   7.669  2.0281 -0.8605 -2.8845
  480TIP3   OH222998   1.140   4.728   7.040 -0.1237 -0.2194  0.4209
  480TIP3    H122999   1.101   4.782   7.109  0.4277 -0.4060  0.8945
  480TIP3    H223000   1.207   4.784   7.001  1.6062 -1.0673  2.0237
  481TIP3   OH223001   1.745   6.387   7.669 -0.3765 -0.3715  0.0417
  481TIP3    H123002   1.670   6.328   7.677 -1.4923  1.0002  0.1235
  481TIP3    H223003   1.732   6.430   7.584  1.1402 -1.1748 -0.6330
  482TIP3   OH223004   1.136   6.075   6.059  0.3522 -0.7924 -0.1124
  482TIP3    H123005   1.111   5.992   6.101 -1.6861 -0.5237 -0.7086
  482TIP3    H223006   1.160   6.050   5.970  0.8656 -0.8630  0.0394
  483TIP3   OH223007   2.363   1.505   6.922  0.1654 -0.7905  0.1990
  483TIP3    H123008   2.314   1.456   6.988 -0.2063 -1.0007 -0.2318
  483TIP3    H223009   2.438   1.541   6.970 -1.3119  1.0390  1.2989
  484TIP3   OH223010   4.992   6.313   7.516  0.5127 -0.0117 -0.1886
  484TIP3    H123011   5.047   6.292   7.441 -1.0177  0.1097 -1.4064
  484TIP3    H223012   5.014   6.404   7.538  0.5881  0.1264 -0.8380
  485TIP3   OH223013   4.530   2.974   1.783  0.2075 -0.0131 -0.1754
  485TIP3    H123014   4.492   3.015   1.861 -1.0110  0.4297 -0.9597
  485TIP3    H223015   4.595   2.913   1.817 -0.5699 -0.1148  1.2090
  486TIP3   OH223016   5.991   4.696   1.441 -0.5179 -0.2092 -0.6296
  486TIP3    H123017   6.033   4.713   1.525 -0.8687  0.9693 -0.6830
  486TIP3    H223018   5.919   4.637   1.462 -0.1478 -0.5205 -0.2229
  487TIP3   OH223019   5.253   0.416   6.661  0.1236 -0.1261 -0.1406
  487TIP3    H123020   5.166   0.375   6.660 -0.4042  0.8058  1.8755
  487TIP3    H223021   5.259   0.456   6.747  3.3694 -1.7948  0.5347
  488TIP3   OH223022   1.493   3.431   1.870 -0.0851  0.1312 -0.3226
  488TIP3    H123023   1.465   3.434   1.962  0.3454 -1.4907 -0.1035
  488TIP3    H223024   1.411   3.433   1.820 -0.3700  0.0713  0.1391
  489TIP3   OH223025   6.479   0.439   1.286 -0.0097  0.1376  0.9729
  489TIP3    H123026   6.405   0.501   1.283 -0.0794  0.0263 -0.5643
  489TIP3    H223027   6.552   0.491   1.321  0.2414  1.5076 -1.3403
  490TIP3   OH223028   3.752   5.307   8.659 -0.3813  0.1634  0.4967
  490TIP3    H123029   3.664   5.289   8.693 -0.3978  3.4006  2.6050
  490TIP3    H223030   3.739   5.322   8.565 -1.5910 -1.8166  0.2858
  491TIP3   OH223031   0.428   5.668   7.071 -0.3508  0.5777  0.6939
  491TIP3    H123032   0.500   5.607   7.081  0.6052  1.6917  0.8251
  491TIP3    H223033   0.439   5.704   6.983 -1.5777 -0.2480  0.1721
  492TIP3   OH223034   3.494   6.770   7.384  0.3650  0.1259 -0.0538
  492TIP3    H123035   3.481   6.833   7.313 -3.2594 -3.2500 -2.8466
  492TIP3    H223036   3.553   6.704   7.347  0.1511 -0.6192  0.8971
  493TIP3   OH223037   6.797   2.606   7.742  0.0004 -0.4941 -0.5924
  493TIP3    H123038   6.861   2.538   7.765 -2.0875 -2.6831 -0.8125
  493TIP3    H223039   6.808   2.673   7.809  0.7549 -2.0473  0.9276
  494TIP3   OH223040   1.025   6.681   7.314  0.6211  1.0018 -0.2633
  494TIP3    H123041   1.099   6.621   7.316  1.8919  2.4821 -0.9499
  494TIP3    H223042   0.994   6.677   7.224 -0.5378 -0.0209  0.1454
  495TIP3   OH223043   6.157   4.485   8.466  0.2831 -0.5889 -0.0359
  495TIP3    H123044   6.102   4.551   8.509  0.1495 -0.3781 -0.5254
  495TIP3    H223045   6.096   4.425   8.424  0.3824  0.6893 -2.1736
  496TIP3   OH223046   6.198   4.594   7.671 -0.1765  0.1719  0.2596
  496TIP3    H123047   6.208   4.506   7.635  0.6035 -0.4358  1.8576
  496TIP3    H223048   6.104   4.609   7.673 -0.3054 -0.5624 -0.1627
  497TIP3   OH223049   0.608   1.692   1.838  0.2321 -0.3055  0.2460
  497TIP3    H123050   0.609   1.603   1.872  0.9358 -0.5093 -0.2939
  497TIP3    H223051   0.592   1.747   1.915  3.1837 -0.6453  1.2443
  498TIP3   OH223052   3.292   6.236   7.737 -0.2441  0.0425 -0.0941
  498TIP3    H123053   3.211   6.210   7.692 -1.5956  4.3852 -0.6852
  498TIP3    H223054   3.353   6.257   7.666 -0.1846  0.9581  0.2160
  499TIP3   OH223055   5.652   1.135   2.144  0.1118  0.3172 -0.3694
  499TIP3    H123056   5.733   1.086   2.159 -0.5618 -0.3166  1.4256
  499TIP3    H223057   5.582   1.074   2.166 -0.8012  1.5529  0.2932
  500TIP3   OH223058   4.956   5.889   7.905 -0.1937 -0.6537 -0.2022
  500TIP3    H123059   4.882   5.946   7.887  1.9349  3.1031  1.5355
  500TIP3    H223060   5.013   5.899   7.829 -0.7486 -2.3534 -0.8789
  501TIP3   OH223061   0.119   5.742   0.631  0.2893  0.2074  0.1193
  501TIP3    H123062   0.191   5.746   0.568 -0.4711 -1.6278 -0.9705
  501TIP3    H223063   0.162   5.734   0.716  1.3425  1.1928 -0.2939
  502TIP3   OH223064   5.223   6.131   8.596  0.1859 -0.4603 -0.2622
  502TIP3    H123065   5.223   6.039   8.572  0.7055 -0.3076 -0.8852
  502TIP3    H223066   5.308   6.164   8.566  1.2041 -0.4037  2.3892
  503TIP3   OH223067   1.823   5.362   7.681 -0.4762  0.4102 -0.2639
  503TIP3    H123068   1.854   5.273   7.698 -0.4233  0.5916  0.6085
  503TIP3    H223069   1.736   5.350   7.642 -0.7943 -0.0050  0.5604
  504TIP3   OH223070   5.507   0.124   0.179 -0.2943  0.0744  0.3842
  504TIP3    H123071   5.496   0.166   0.093  1.7894 -0.5031 -0.2063
  504TIP3    H223072   5.447   0.049   0.176 -0.6102  0.3432 -0.3670
  505TIP3   OH223073   5.951   6.426   7.038 -0.4064  0.4705  0.8004
  505TIP3    H123074   5.919   6.386   7.119 -0.0937 -2.9761 -0.5907
  505TIP3    H223075   5.899   6.505   7.028 -0.1091  1.3455  4.5641
  506TIP3   OH223076   3.183   2.564   8.647 -0.0426  0.3116  0.6170
  506TIP3    H123077   3.187   2.601   8.559 -3.3715 -1.1444 -0.3142
  506TIP3    H223078   3.174   2.640   8.705 -3.4639  1.2586 -0.9170
  507TIP3   OH223079   6.170   3.688   1.374 -0.7271  0.8211 -0.3740
  507TIP3    H123080   6.212   3.749   1.313 -1.6268 -0.0137 -1.9102
  507TIP3    H223081   6.229   3.684   1.449  0.4703  1.8498 -1.2150
  508TIP3   OH223082   5.126   2.251   1.340  0.2558 -0.6272 -0.0254
  508TIP3    H123083   5.099   2.203   1.262 -1.2838 -1.2962  0.8881
  508TIP3    H223084   5.069   2.328   1.342 -1.2617 -1.7296  1.5835
  509TIP3   OH223085   3.235   6.850   8.517  0.1548  0.0972  0.3678
  509TIP3    H123086   3.221   6.907   8.593  0.6868 -0.7348  1.1154
  509TIP3    H223087   3.287   6.902   8.456  1.3479  0.1518  1.3982
  510TIP3   OH223088   4.345   5.785   1.593  0.6969  0.3867  0.3838
  510TIP3    H123089   4.285   5.859   1.603  1.4738  0.9342  1.0705
  510TIP3    H223090   4.313   5.720   1.656 -0.6233 -0.3254 -0.9488
  511TIP3   OH223091   3.884   6.718   8.652  0.0253  0.3094 -0.0547
  511TIP3    H123092   3.882   6.812   8.673 -1.2506  0.3629 -0.3544
  511TIP3    H223093   3.962   6.708   8.598  0.2879  1.1644  0.1391
  512TIP3   OH223094   1.017   5.511   7.674 -0.9006  0.1554  0.0149
  512TIP3    H123095   0.970   5.429   7.663 -0.4025 -0.2447  0.7986
  512TIP3    H223096   1.096   5.488   7.723 -0.4885  1.0128 -0.2148
  513TIP3   OH223097   5.896   6.089   0.985  0.2219 -0.1526 -0.4649
  513TIP3    H123098   5.825   6.070   0.923 -0.7340  0.7179  0.3109
  513TIP3    H223099   5.933   6.004   1.007 -0.9363 -0.6744 -0.4907
  514TIP3   OH223100   3.113   3.270   1.313 -0.6195  0.0283 -0.2364
  514TIP3    H123101   3.127   3.175   1.309  1.5850  0.3343 -2.0850
  514TIP3    H223102   3.166   3.298   1.387  2.5860  0.2209 -2.3958
  515TIP3   OH223103   6.393   5.149   0.187 -0.1735 -0.1285  0.1026
  515TIP3    H123104   6.358   5.107   0.108  1.9238  0.3900 -1.2009
  515TIP3    H223105   6.345   5.231   0.194  1.4675  1.2031 -2.4124
  516TIP3   OH223106   5.778   0.109   8.351  0.5892 -0.2319  0.3346
  516TIP3    H123107   5.748   0.054   8.279  1.8503 -0.6312  0.0895
  516TIP3    H223108   5.874   0.110   8.343  0.7865 -0.4453  2.0968
  517TIP3   OH223109   4.409   2.729   2.387  0.2836 -0.0804  0.1808
  517TIP3    H123110   4.449   2.791   2.327  1.7398 -0.3053  0.8714
  517TIP3    H223111   4.433   2.761   2.474 -0.4149 -0.6570  0.5979
  518TIP3   OH223112   0.995   6.735   1.687 -0.5585  0.4278 -0.3648
  518TIP3    H123113   1.059   6.717   1.618 -2.0429 -1.8435 -1.2878
  518TIP3    H223114   1.048   6.747   1.766  1.0935  1.1732 -1.5261
  519TIP3   OH223115   4.169   1.264   0.770 -0.2601  0.3329 -0.1712
  519TIP3    H123116   4.227   1.338   0.749 -0.0711  0.1005 -0.4779
  519TIP3    H223117   4.226   1.202   0.816 -0.4316  0.3988  0.1310
  520TIP3   OH223118   2.910   2.022   1.982 -0.2469  0.2172  0.3708
  520TIP3    H123119   2.927   1.930   1.963 -0.3530 -0.0544  1.5294
  520TIP3    H223120   2.994   2.066   1.965 -0.8124  0.3571 -2.6037
  521TIP3   OH223121   5.384   5.962   0.819  0.0280  0.2952  0.4573
  521TIP3    H123122   5.356   6.038   0.768  0.5316 -1.4485 -2.6494
  521TIP3    H223123   5.478   5.957   0.806  0.4862  0.6672  3.0167
  522TIP3   OH223124   5.305   6.031   7.443  0.2664  0.0661 -0.1851
  522TIP3    H123125   5.221   6.058   7.406  0.3509  1.4631  0.5724
  522TIP3    H223126   5.362   6.016   7.368 -0.2599  0.4654 -0.6663
  523TIP3   OH223127   3.917   4.963   7.321 -1.0075  0.2741 -0.1323
  523TIP3    H123128   3.878   4.908   7.389  1.1075  1.0014  1.7552
  523TIP3    H223129   3.952   5.039   7.367  0.5966  0.7662 -2.0119
  524TIP3   OH223130   3.640   6.202   1.062 -0.0746 -0.0012  0.5807
  524TIP3    H123131   3.607   6.272   1.005 -2.2947 -0.5281  1.1089
  524TIP3    H223132   3.628   6.122   1.011 -1.1001 -0.3596  1.3403
  525TIP3   OH223133   4.317   2.622   0.554 -0.3379 -0.1427  0.0644
  525TIP3    H123134   4.411   2.637   0.544 -0.1061 -1.2730  0.3735
  525TIP3    H223135   4.298   2.648   0.644 -0.0827 -0.9572  0.3663
  526TIP3   OH223136   1.257   0.954   6.854  0.0695  0.4226  0.3000
  526TIP3    H123137   1.244   0.929   6.762  0.6970 -1.2004  0.6123
  526TIP3    H223138   1.173   0.936   6.896  0.6793 -1.9688  0.6476
  527TIP3   OH223139   3.678   4.058   7.445 -0.2418  0.1728 -0.2357
  527TIP3    H123140   3.710   4.125   7.505  1.1200  0.0931 -0.8426
  527TIP3    H223141   3.609   4.101   7.395  1.2795  1.4854 -1.3217
  528TIP3   OH223142   1.274   5.739   7.431  0.0197  0.0322 -0.0078
  528TIP3    H123143   1.194   5.781   7.400 -0.7792  2.2844  4.3289
  528TIP3    H223144   1.344   5.796   7.401 -0.6193  1.5407  1.2450
  529TIP3   OH223145   4.753   3.754   7.821  0.2166 -0.0663  0.4065
  529TIP3    H123146   4.749   3.791   7.733 -1.4602 -1.1146 -0.0063
  529TIP3    H223147   4.786   3.825   7.876  0.8512  0.7492 -0.9806
  530TIP3   OH223148   6.769   4.100   6.739 -0.7218 -0.3951 -0.1159
  530TIP3    H123149   6.855   4.090   6.698 -1.2729 -0.3240 -1.3416
  530TIP3    H223150   6.746   4.012   6.767 -0.2401 -0.4082  0.2631
  531TIP3   OH223151   1.149   3.732   7.474  0.7445 -0.1038  0.3053
  531TIP3    H123152   1.066   3.769   7.505  0.6370 -0.1206  0.0419
  531TIP3    H223153   1.200   3.808   7.447  0.7952 -0.0969  0.4215
  532TIP3   OH223154   3.454   2.141   7.239  0.2812 -0.7647  0.8141
  532TIP3    H123155   3.522   2.076   7.254  0.2026 -1.9029 -2.8694
  532TIP3    H223156   3.500   2.218   7.207  0.0122 -0.7634  0.4217
  533TIP3   OH223157   0.162   1.571   1.468 -0.4398  0.2553  0.3018
  533TIP3    H123158   0.193   1.628   1.397  0.6174 -0.3884  0.2384
  533TIP3    H223159   0.238   1.519   1.492 -1.0083 -0.1000  1.3724
  534TIP3   OH223160   5.255   1.882   1.458 -0.1728  0.4245 -0.3129
  534TIP3    H123161   5.168   1.905   1.494 -0.6676 -0.3014 -1.0158
  534TIP3    H223162   5.306   1.962   1.468 -1.3645  1.3407 -1.2334
  535TIP3   OH223163   2.090   4.619   1.139 -0.9581  0.5533 -0.0367
  535TIP3    H123164   2.079   4.684   1.070 -1.5789  1.4098  0.8528
  535TIP3    H223165   2.070   4.665   1.220 -1.5855 -0.7778  0.6095
  536TIP3   OH223166   5.859   5.551   1.727  0.2205  0.0372 -0.0981
  536TIP3    H123167   5.840   5.622   1.788  0.1052 -1.4619  1.7043
  536TIP3    H223168   5.775   5.531   1.686 -0.0319  0.0636  0.3944
  537TIP3   OH223169   4.627   0.778   8.491  0.0578  0.4805 -0.2334
  537TIP3    H123170   4.716   0.768   8.522 -0.0418 -0.6189 -0.2769
  537TIP3    H223171   4.633   0.845   8.422  0.9790 -0.1510 -0.7861
  538TIP3   OH223172   3.054   3.356   7.135  0.6172 -0.0681 -0.3682
  538TIP3    H123173   3.005   3.313   7.065  0.0320  0.7272 -0.4691
  538TIP3    H223174   3.014   3.324   7.216 -0.9810  1.5102 -0.4520
  539TIP3   OH223175   6.732   0.386   0.499 -0.2345 -0.0452  0.3547
  539TIP3    H123176   6.707   0.347   0.582 -0.8994  0.2235  0.2855
  539TIP3    H223177   6.777   0.467   0.523 -0.1208 -0.1387  0.4592
  540TIP3   OH223178   5.927   6.063   1.383  0.0308  0.3023 -0.3149
  540TIP3    H123179   5.851   6.040   1.330 -0.2271  2.3639 -0.9188
  540TIP3    H223180   6.003   6.045   1.328 -0.0087 -1.2030  0.0765
  541TIP3   OH223181   5.284   4.989   1.200  0.3581 -0.5013  0.2451
  541TIP3    H123182   5.246   4.901   1.201 -1.5435  0.2559  1.7392
  541TIP3    H223183   5.234   5.036   1.133  2.6550 -0.9751 -1.9601
  542TIP3   OH223184   3.105   3.881   0.361  0.6402 -0.5502  0.2093
  542TIP3    H123185   3.092   3.841   0.447 -1.7159  2.8863  1.6512
  542TIP3    H223186   3.043   3.837   0.304 -0.4072 -0.4121  1.2200
  543TIP3   OH223187   2.974   2.085   8.189 -0.0682  0.0866  0.4502
  543TIP3    H123188   3.019   2.169   8.192 -0.6670  0.5681 -1.8638
  543TIP3    H223189   2.927   2.079   8.272 -0.7826  2.5030  0.2773
  544TIP3   OH223190   4.540   5.680   7.519  0.1020  0.2843  0.9012
  544TIP3    H123191   4.535   5.658   7.426 -2.1542 -0.4613  1.1425
  544TIP3    H223192   4.543   5.776   7.520 -0.0163  0.3083  0.0618
  545TIP3   OH223193   5.643   1.383   6.432  0.2514  0.2946 -0.4173
  545TIP3    H123194   5.677   1.472   6.437  1.5029 -0.1825 -0.0149
  545TIP3    H223195   5.578   1.378   6.502  0.1004  0.9196 -0.5083
  546TIP3   OH223196   0.737   6.842   8.684 -0.6541  0.6116  0.1578
  546TIP3    H123197   0.677   6.811   8.751  0.1304  1.3109  1.2009
  546TIP3    H223198   0.734   6.773   8.617 -3.1514  0.9582 -0.1920
  547TIP3   OH223199   4.049   2.489   8.100 -0.0503  0.0076  0.4174
  547TIP3    H123200   3.959   2.456   8.099 -0.0662 -0.0688 -2.2329
  547TIP3    H223201   4.079   2.475   8.190 -1.7899 -2.4535  0.7149
  548TIP3   OH223202   1.738   2.322   0.951 -0.3529 -0.1023 -0.4084
  548TIP3    H123203   1.737   2.300   0.858  1.2549  2.6269 -1.2005
  548TIP3    H223204   1.829   2.308   0.978 -0.6063 -0.0512  0.5372
  549TIP3   OH223205   6.457   5.670   0.373  0.1378 -0.0118  0.0259
  549TIP3    H123206   6.391   5.628   0.429 -0.0078 -0.0902 -0.1987
  549TIP3    H223207   6.438   5.636   0.285  0.7922 -0.4251  0.0349
  550TIP3   OH223208   6.421   5.546   8.569  0.4493  0.1060  0.0351
  550TIP3    H123209   6.369   5.480   8.524 -1.0904  0.9364  0.5182
  550TIP3    H223210   6.381   5.630   8.543 -1.5575  0.6067  3.9721
  551TIP3   OH223211   3.064   2.477   1.812  0.1688  0.1651 -0.6274
  551TIP3    H123212   3.039   2.390   1.781 -1.6420 -0.0070  1.1169
  551TIP3    H223213   3.158   2.482   1.798  0.2208 -1.8531 -1.2597
  552TIP3   OH223214   2.541   0.267   8.593 -0.1140 -0.4217  0.2576
  552TIP3    H123215   2.481   0.309   8.530  0.1432 -0.3112  0.0870
  552TIP3    H223216   2.597   0.338   8.623  0.6749 -0.7355 -0.4250
  553TIP3   OH223217   2.078   0.657   8.154 -0.6073 -0.4323  0.0815
  553TIP3    H123218   2.006   0.614   8.201 -0.4290  0.5074  1.2656
  553TIP3    H223219   2.052   0.749   8.151  0.0815 -0.2507 -0.3951
  554TIP3   OH223220   2.112   3.305   1.173  0.0737  0.2165 -0.2298
  554TIP3    H123221   2.126   3.212   1.193 -1.6885 -0.2375 -0.8862
  554TIP3    H223222   2.180   3.351   1.222 -1.0478 -1.1555  2.8802
  555TIP3   OH223223   3.414   1.210   0.699  0.2279  0.0279 -0.1327
  555TIP3    H123224   3.419   1.290   0.752  1.2133  0.2023 -0.4760
  555TIP3    H223225   3.498   1.167   0.712  0.8115  0.4502 -2.1372
  556TIP3   OH223226   2.659   1.659   1.070  0.4017 -0.0126 -0.5635
  556TIP3    H123227   2.652   1.660   1.166  2.2258  1.6403 -0.3883
  556TIP3    H223228   2.685   1.748   1.047  1.6557 -0.7993 -2.4347
  557TIP3   OH223229   4.575   1.544   0.408  0.6467  0.0374  0.0363
  557TIP3    H123230   4.564   1.455   0.373 -0.1239 -0.5347  1.6269
  557TIP3    H223231   4.503   1.593   0.369  0.5136 -0.2756 -0.1210
  558TIP3   OH223232   6.627   1.389   0.336  0.4106  0.2152 -0.2744
  558TIP3    H123233   6.659   1.318   0.280 -1.0083  0.0101 -0.8696
  558TIP3    H223234   6.690   1.460   0.324  2.1258 -1.0635  0.6959
  559TIP3   OH223235   0.106   6.561   8.671 -0.6404 -0.1044 -0.4646
  559TIP3    H123236   0.143   6.633   8.721 -0.4205 -1.0693  0.8053
  559TIP3    H223237   0.017   6.552   8.703 -0.3191 -1.0902  0.1994
  560TIP3   OH223238   1.602   2.028   0.460 -0.0431  0.1473 -0.3258
  560TIP3    H123239   1.656   1.950   0.475  0.6552  0.2152 -2.2280
  560TIP3    H223240   1.651   2.099   0.500 -0.7512 -0.3627  1.5552
  561TIP3   OH223241   6.836   5.825   7.368  0.1395  0.1312  0.0614
  561TIP3    H123242   6.917   5.785   7.336 -0.2284 -0.8522  0.3298
  561TIP3    H223243   6.769   5.798   7.305 -0.1017  0.4326  0.1847
  562TIP3   OH223244   6.206   1.317   7.834 -0.2684 -0.3685  0.2463
  562TIP3    H123245   6.238   1.299   7.923  0.8055 -1.3987 -0.3168
  562TIP3    H223246   6.125   1.365   7.847 -0.9076 -1.7742  1.8284
  563TIP3   OH223247   3.615   1.300   0.470 -1.1660  0.4260 -0.2461
  563TIP3    H123248   3.532   1.286   0.424 -0.5064  1.6397 -1.9362
  563TIP3    H223249   3.622   1.395   0.479 -0.3031  0.3028  0.5681
  564TIP3   OH223250   2.176   6.128   7.803 -0.5803 -0.2643 -0.1352
  564TIP3    H123251   2.242   6.089   7.747 -1.7719 -1.3225 -0.8631
  564TIP3    H223252   2.187   6.222   7.792  2.2303 -0.3047  1.5123
  565TIP3   OH223253   0.465   0.934   7.120  0.2023 -0.3719 -0.0793
  565TIP3    H123254   0.503   0.861   7.070 -0.6299 -0.2333 -0.9597
  565TIP3    H223255   0.381   0.950   7.077  0.1413  0.7702  0.4375
  566TIP3   OH223256   1.371   3.936   8.538  0.1443  0.1381 -0.1227
  566TIP3    H123257   1.399   3.978   8.619 -0.1025  0.7904 -0.3701
  566TIP3    H223258   1.426   3.857   8.531 -0.4544 -0.4183  1.1409
  567TIP3   OH223259   6.686   0.896   8.245 -0.0590  0.1423 -0.3440
  567TIP3    H123260   6.690   0.923   8.153 -3.6502  0.3309 -0.5976
  567TIP3    H223261   6.633   0.816   8.245 -0.6015  0.4304  1.5627
  568TIP3   OH223262   3.907   1.738   8.031  0.1172  0.7664 -0.1080
  568TIP3    H123263   3.890   1.740   8.125  1.7723  2.1459  0.2132
  568TIP3    H223264   3.839   1.794   7.994 -0.5866  0.1614  0.2511
  569TIP3   OH223265   5.664   1.141   0.329 -0.1480 -0.1235  0.0058
  569TIP3    H123266   5.683   1.234   0.315 -0.3844 -0.4156 -2.8374
  569TIP3    H223267   5.671   1.102   0.242 -0.5797 -2.6967  1.0416
  570TIP3   OH223268   6.791   0.405   8.597 -0.0062  0.3972 -0.4860
  570TIP3    H123269   6.837   0.474   8.547  0.4569  0.5315  0.1137
  570TIP3    H223270   6.724   0.452   8.647  0.3138  0.4201 -0.0719
  571TIP3   OH223271   3.585   2.863   1.847 -0.0768  0.3962  0.1198
  571TIP3    H123272   3.541   2.889   1.928 -1.8126 -0.3956 -0.5279
  571TIP3    H223273   3.548   2.778   1.825  3.0863 -1.2229  0.4399
  572TIP3   OH223274   0.837   1.046   1.209  0.5736  0.1335  0.1805
  572TIP3    H123275   0.886   1.042   1.127  0.5428 -2.1406  0.2049
  572TIP3    H223276   0.896   1.091   1.270  1.4223  0.0733 -0.5705
  573TIP3   OH223277   3.854   1.721   0.399 -0.3222 -0.3031 -0.0591
  573TIP3    H123278   3.921   1.785   0.374  2.2961 -2.9278 -0.2819
  573TIP3    H223279   3.822   1.685   0.316  0.1679 -1.0940  0.0804
  574TIP3   OH223280   3.463   6.783   0.468 -0.6055  0.2742 -0.6802
  574TIP3    H123281   3.405   6.715   0.435 -1.7957  1.2273 -0.6322
  574TIP3    H223282   3.405   6.846   0.511  0.4868  1.1689 -0.4499
  575TIP3   OH223283   4.749   0.276   1.217  0.2819  0.1237 -0.1435
  575TIP3    H123284   4.714   0.204   1.270  0.9243  0.0434  0.1776
  575TIP3    H223285   4.702   0.354   1.247 -0.2728 -0.1271 -0.3535
  576TIP3   OH223286   0.781   0.863   0.709  0.3722 -0.1000  0.2278
  576TIP3    H123287   0.715   0.793   0.707  0.4049 -0.1324  0.2638
  576TIP3    H223288   0.730   0.943   0.716  0.3572 -0.1709  0.9900
  577TIP3   OH223289   3.063   6.704   7.328  0.2959 -0.3590  0.1135
  577TIP3    H123290   3.063   6.635   7.261  1.4859 -0.8927  0.6240
  577TIP3    H223291   3.134   6.678   7.388  0.2052  0.8736  0.7747
  578TIP3   OH223292   5.060   3.556   8.325  0.0569  0.5930 -0.1408
  578TIP3    H123293   5.092   3.595   8.406  2.6777 -2.6791  0.6216
  578TIP3    H223294   4.983   3.609   8.302 -0.7884  1.8035  4.3752
  579TIP3   OH223295   2.193   2.578   8.021  0.0095  0.0104 -0.1908
  579TIP3    H123296   2.252   2.507   7.997 -0.6807 -0.6260 -0.0419
  579TIP3    H223297   2.216   2.599   8.111 -0.4441 -0.7062  0.0990
  580TIP3   OH223298   1.914   6.786   8.478  0.8514 -0.1692  0.2246
  580TIP3    H123299   1.911   6.691   8.476  2.0341 -0.2484  1.2783
  580TIP3    H223300   1.974   6.810   8.407  1.8523 -0.3078  1.0080
  581TIP3   OH223301   1.724   3.830   1.672  0.0588  0.0863  0.5523
  581TIP3    H123302   1.657   3.879   1.624  0.2201 -1.7121 -1.6810
  581TIP3    H223303   1.680   3.803   1.753 -0.9461  1.4511  0.4916
  582TIP3   OH223304   5.775   6.733   6.448 -0.1908  0.1383  0.0505
  582TIP3    H123305   5.722   6.703   6.373  0.7565  1.2650 -1.1139
  582TIP3    H223306   5.737   6.816   6.473 -0.0172  0.1386  0.3160
  583TIP3   OH223307   4.836   2.255   7.771 -0.6734 -0.1071 -0.5833
  583TIP3    H123308   4.866   2.243   7.681  0.3910  1.0431 -0.3969
  583TIP3    H223309   4.823   2.349   7.781 -0.5865 -0.1967  0.5265
  584TIP3   OH223310   4.131   6.758   7.187 -0.0413  0.5038 -0.9720
  584TIP3    H123311   4.061   6.751   7.123 -0.5569  1.9962 -0.6040
  584TIP3    H223312   4.159   6.849   7.183  1.2146  0.1699 -0.4151
  585TIP3   OH223313   6.465   4.488   7.411  0.7038 -0.1446  0.0624
  585TIP3    H123314   6.467   4.577   7.376 -0.6699 -0.9021 -2.2178
  585TIP3    H223315   6.506   4.494   7.496 -0.3424  2.8819  0.4680
  586TIP3   OH223316   0.059   6.610   6.817 -0.5914 -0.4210  0.5019
  586TIP3    H123317  -0.001   6.564   6.759 -0.1038  0.2187 -0.5429
  586TIP3    H223318   0.075   6.694   6.774  1.4736 -0.7873  0.4628
  587TIP3   OH223319   3.903   6.519   1.063 -0.2732  0.3209  0.3546
  587TIP3    H123320   3.820   6.484   1.031 -0.4456  0.6046  0.4896
  587TIP3    H223321   3.898   6.509   1.158 -0.2127  0.4770  0.3739
  588TIP3   OH223322   5.619   5.443   6.898 -0.0363 -0.2135 -0.4493
  588TIP3    H123323   5.524   5.431   6.900 -0.2097  1.0773 -0.0588
  588TIP3    H223324   5.638   5.467   6.807  0.3936 -3.6266 -1.4030
  589TIP3   OH223325   3.305   1.592   8.435  0.9658 -0.1697 -0.1657
  589TIP3    H123326   3.357   1.563   8.360 -0.0714 -0.1666 -0.9088
  589TIP3    H223327   3.350   1.671   8.465  0.8179  0.4267 -1.4487
  590TIP3   OH223328   5.365   6.727   0.139  0.5786 -0.1186 -0.6188
  590TIP3    H123329   5.307   6.652   0.125  0.9079 -0.4416 -0.2853
  590TIP3    H223330   5.375   6.767   0.053  0.5294 -0.5587 -0.8294
  591TIP3   OH223331   4.878   0.529   1.615 -0.6208  0.0136 -0.0073
  591TIP3    H123332   4.827   0.479   1.678  2.8891 -2.1475  1.3596
  591TIP3    H223333   4.846   0.619   1.625 -1.7365 -0.6077  3.2586
  592TIP3   OH223334   4.025   0.733   0.672 -0.4609  0.4664 -0.1657
  592TIP3    H123335   3.997   0.791   0.602  0.3976 -0.2317 -1.1141
  592TIP3    H223336   4.101   0.776   0.710  0.5387 -0.2827 -1.2571
  593TIP3   OH223337   4.202   5.213   0.879 -0.2846  0.3026  0.0900
  593TIP3    H123338   4.220   5.163   0.959 -0.2928  0.5090  0.2227
  593TIP3    H223339   4.185   5.146   0.812 -0.0299  0.1239  0.2007
  594TIP3   OH223340   1.450   3.074   7.228  0.5315  0.1324  0.3955
  594TIP3    H123341   1.394   3.071   7.305  0.1860  1.9233  0.2563
  594TIP3    H223342   1.418   3.149   7.178 -0.2122 -1.8106 -2.2545
  595TIP3   OH223343   1.454   3.704   7.364  0.2268  0.1070  0.2695
  595TIP3    H123344   1.385   3.767   7.345 -1.0199 -0.6587  2.0054
  595TIP3    H223345   1.408   3.621   7.377  1.5618 -0.6018  0.6616
  596TIP3   OH223346   4.502   0.329   6.814 -0.5015  0.1238 -0.2689
  596TIP3    H123347   4.573   0.393   6.812  0.5064 -0.9755 -0.3244
  596TIP3    H223348   4.424   0.379   6.789 -0.4061  2.1076  2.8147
  597TIP3   OH223349   3.268   5.313   7.250  0.6099  0.2423  0.4259
  597TIP3    H123350   3.309   5.263   7.179  1.9764  1.2447  0.4576
  597TIP3    H223351   3.232   5.247   7.309  0.4591 -0.6324 -0.6294
  598TIP3   OH223352   3.354   2.384   1.483 -0.3649  1.1229 -0.4651
  598TIP3    H123353   3.277   2.327   1.479  1.4033 -1.3691 -1.6417
  598TIP3    H223354   3.387   2.386   1.393  0.6751  2.5558 -0.0807
  599TIP3   OH223355   0.856   0.063   7.316 -0.5194  0.1045 -0.0971
  599TIP3    H123356   0.826   0.136   7.263  0.6654  1.2921  0.7863
  599TIP3    H223357   0.907   0.009   7.257  0.6786  1.3403 -0.2395
  600TIP3   OH223358   2.752   3.500   1.038  0.3835  0.3995 -0.1170
  600TIP3    H123359   2.705   3.510   1.121  0.1539  3.3729 -0.5172
  600TIP3    H223360   2.842   3.479   1.065  0.2001  0.7965  0.8595
  601TIP3   OH223361   3.011   0.100   0.799 -0.6288 -0.3239 -0.3817
  601TIP3    H123362   2.961   0.022   0.821 -0.5441 -0.5853 -1.0722
  601TIP3    H223363   3.088   0.067   0.754 -0.8195  0.1762 -1.0978
  602TIP3   OH223364   5.476   4.658   0.606  0.1612  0.4648 -0.3630
  602TIP3    H123365   5.450   4.575   0.566  0.9388  0.2835 -0.4973
  602TIP3    H223366   5.396   4.690   0.648  0.1024 -0.8908  0.6417
  603TIP3   OH223367   2.243   4.102   6.631 -0.2875  0.2030 -0.3302
  603TIP3    H123368   2.299   4.160   6.683 -1.0771  0.8050 -0.1360
  603TIP3    H223369   2.305   4.046   6.583  0.4733  0.0714  0.7451
  604TIP3   OH223370   2.525   2.367   7.556 -0.3972  0.3987 -0.3832
  604TIP3    H123371   2.448   2.340   7.506  0.4839  0.0020 -1.6016
  604TIP3    H223372   2.538   2.459   7.532 -0.5470  0.4930 -0.1028
  605TIP3   OH223373   1.533   5.421   1.809  0.2722 -0.0639  0.2510
  605TIP3    H123374   1.497   5.458   1.729  1.3756 -1.5269 -0.9846
  605TIP3    H223375   1.458   5.412   1.867 -0.4903  1.3536 -0.4583
  606TIP3   OH223376   2.194   2.854   2.355 -0.0211  1.1142 -0.4424
  606TIP3    H123377   2.121   2.899   2.312  2.2558  2.5717 -3.1162
  606TIP3    H223378   2.187   2.763   2.326 -0.7300  1.2547 -0.7221
  607TIP3   OH223379   4.793   1.489   0.192  0.2991  0.3458  0.3765
  607TIP3    H123380   4.726   1.434   0.153 -0.5942  0.6094  1.4928
  607TIP3    H223381   4.796   1.462   0.284 -0.5679  2.4915  1.1122
  608TIP3   OH223382   6.375   2.348   7.481 -0.1487  0.0920 -0.2641
  608TIP3    H123383   6.363   2.443   7.482 -0.2503  0.0938 -1.0199
  608TIP3    H223384   6.302   2.315   7.534  1.2017  0.5325  2.0290
  609TIP3   OH223385   5.556   4.395   2.570 -0.1157 -0.6819  0.3602
  609TIP3    H123386   5.525   4.476   2.531  1.5250 -0.1655  0.0390
  609TIP3    H223387   5.547   4.330   2.501 -0.9121 -0.6602  0.4360
  610TIP3   OH223388   1.966   4.141   2.197  0.5961 -0.1658  0.4254
  610TIP3    H123389   2.036   4.176   2.141  1.1520  0.2533  1.3559
  610TIP3    H223390   1.910   4.215   2.216  0.8441 -0.1241  1.0390
  611TIP3   OH223391   1.011   4.156   7.403  0.0651  0.4668  0.6730
  611TIP3    H123392   0.946   4.207   7.355  0.3758  1.2700  1.0851
  611TIP3    H223393   1.050   4.218   7.464 -1.2323 -0.8173  2.9408
  612TIP3   OH223394   0.902   2.452   8.452 -0.3497  0.2118  0.0586
  612TIP3    H123395   0.862   2.466   8.366 -1.3791 -0.2537  0.4417
  612TIP3    H223396   0.991   2.423   8.433 -0.8731 -0.8375 -0.8775
  613TIP3   OH223397   6.137   1.138   2.094 -0.3870 -0.3864 -0.8723
  613TIP3    H123398   6.226   1.118   2.067 -0.7913 -1.5591 -1.4140
  613TIP3    H223399   6.121   1.082   2.170 -0.3171  0.5941 -0.1207
  614TIP3   OH223400   1.861   1.516   2.078 -0.4277  0.4900  0.0701
  614TIP3    H123401   1.921   1.580   2.117  0.5951 -1.5049  2.0414
  614TIP3    H223402   1.916   1.465   2.018  0.0874 -1.5600  2.1273
  615TIP3   OH223403   0.804   6.760   2.667 -0.5051 -0.3801 -0.0975
  615TIP3    H123404   0.764   6.822   2.727 -1.0057  0.2798 -1.0759
  615TIP3    H223405   0.799   6.803   2.581  0.0593 -1.3453 -0.6357
  616TIP3   OH223406   4.001   4.221   0.506  0.2987 -0.5760 -0.2423
  616TIP3    H123407   4.075   4.266   0.548  0.6657  0.2821 -1.7291
  616TIP3    H223408   3.955   4.178   0.578  0.9744  0.7139  1.0105
  617TIP3   OH223409   5.689   0.117   7.817 -0.2154 -0.4593  0.0062
  617TIP3    H123410   5.697   0.022   7.818 -1.7484 -0.6129  0.7327
  617TIP3    H223411   5.756   0.148   7.878  1.3983 -0.9294 -1.4461
  618TIP3   OH223412   1.038   6.336   0.138 -0.0078 -0.5693  0.2632
  618TIP3    H123413   1.049   6.322   0.232 -1.2879 -0.4537  0.4542
  618TIP3    H223414   1.111   6.289   0.098  0.7883 -0.2741  1.3269
  619TIP3   OH223415   0.829   0.681   7.452  0.3586 -0.3362 -0.0208
  619TIP3    H123416   0.816   0.752   7.514  1.1821  0.0822 -0.3042
  619TIP3    H223417   0.817   0.721   7.366  4.1603  0.3914 -0.4027
  620TIP3   OH223418   4.698   0.049   6.866 -0.9533 -0.2214  0.2060
  620TIP3    H123419   4.755   0.096   6.804 -0.0062 -1.3016  0.2189
  620TIP3    H223420   4.674   0.116   6.931  0.1527  0.3258  0.0914
  621TIP3   OH223421   5.471   3.680   0.817 -0.4729 -0.5042  0.5975
  621TIP3    H123422   5.427   3.722   0.891 -3.2560 -0.3609 -0.9731
  621TIP3    H223423   5.547   3.636   0.856 -0.9589  0.7908  3.2575
  622TIP3   OH223424   4.264   5.402   7.526  0.1639  0.7737 -0.3660
  622TIP3    H123425   4.270   5.436   7.437  1.0921 -0.5309 -0.8450
  622TIP3    H223426   4.197   5.456   7.568 -0.0653  1.6267 -1.7503
  623TIP3   OH223427   3.529   4.092   0.506  0.3154  0.5580 -0.1203
  623TIP3    H123428   3.465   4.023   0.494 -0.3305  1.2447 -0.7039
  623TIP3    H223429   3.491   4.149   0.573  0.1880  1.1039 -0.6505
  624TIP3   OH223430   0.529   1.854   8.668 -0.1543  0.6234  0.1425
  624TIP3    H123431   0.444   1.812   8.665 -0.0290  0.4554 -1.8695
  624TIP3    H223432   0.512   1.945   8.641  0.5203  0.1371 -2.0753
  625TIP3   OH223433   5.630   4.950   8.630 -0.3082  0.2702  0.0302
  625TIP3    H123434   5.627   5.027   8.687  0.4191  1.0015 -0.8761
  625TIP3    H223435   5.659   4.879   8.687 -1.1199  0.6311  0.9161
  626TIP3   OH223436   0.131   3.527   1.023 -0.3864  0.3080 -0.3135
  626TIP3    H123437   0.216   3.487   1.006 -0.7138 -0.9507  0.8709
  626TIP3    H223438   0.147   3.621   1.012  0.8581  0.0220 -1.2607
  627TIP3   OH223439   3.883   1.791   1.163  0.1493  0.2470  0.4562
  627TIP3    H123440   3.845   1.746   1.087  0.2697 -1.3100  1.2847
  627TIP3    H223441   3.975   1.804   1.139  0.2262 -0.3816  0.3725
  628TIP3   OH223442   2.987   5.072   7.429  0.5302  0.7931 -0.1038
  628TIP3    H123443   3.049   5.054   7.359 -1.0696 -3.6815 -0.7457
  628TIP3    H223444   3.010   5.009   7.498 -0.1390  2.6304  1.8972
  629TIP3   OH223445   1.034   3.110   7.792  0.0063 -0.3797 -0.4122
  629TIP3    H123446   0.963   3.173   7.809  1.5172  1.9677 -2.0690
  629TIP3    H223447   1.094   3.122   7.865 -0.5534 -1.2937  0.2211
  630TIP3   OH223448   6.581   6.627   7.172  0.6091  0.2122 -0.1266
  630TIP3    H123449   6.647   6.656   7.108 -0.4345 -1.1388 -1.9074
  630TIP3    H223450   6.515   6.697   7.171  1.4110  1.0137  0.7993
  631TIP3   OH223451   4.586   0.664   0.935  0.3475 -0.6814  0.5370
  631TIP3    H123452   4.681   0.673   0.941  0.3582 -0.0832 -0.2961
  631TIP3    H223453   4.550   0.731   0.993  0.4299 -0.7082  0.6185
  632TIP3   OH223454   6.397   1.628   0.874 -0.0992  0.3291 -0.3224
  632TIP3    H123455   6.323   1.682   0.901  0.2845  0.6500  0.1041
  632TIP3    H223456   6.357   1.550   0.834 -0.6951 -0.3143  1.4435
  633TIP3   OH223457   0.476   3.333   7.343  0.5311  0.0680 -0.4048
  633TIP3    H123458   0.383   3.312   7.347  1.0744 -2.7008 -0.3530
  633TIP3    H223459   0.491   3.355   7.251  0.0017 -0.4876 -0.6354
  634TIP3   OH223460   1.193   2.151   6.719  0.6013  0.1623  0.1062
  634TIP3    H123461   1.241   2.224   6.757  0.3497  0.6195 -0.4292
  634TIP3    H223462   1.259   2.083   6.704  1.1765  0.9475 -1.0456
  635TIP3   OH223463   2.420   1.000   1.789  0.8036  0.3074 -0.6663
  635TIP3    H123464   2.426   0.915   1.744  0.6039  0.3194 -0.7150
  635TIP3    H223465   2.448   0.982   1.878 -0.0757  0.0087 -0.4404
  636TIP3   OH223466   6.706   2.802   1.953 -0.2517  0.6221  0.6609
  636TIP3    H123467   6.682   2.755   1.873 -0.7903 -0.0063  1.1737
  636TIP3    H223468   6.773   2.864   1.925  0.7874 -0.7253  0.0189
  637TIP3   OH223469   1.136   5.957   0.778 -0.1299  0.5789 -0.0124
  637TIP3    H123470   1.174   5.888   0.724 -0.9563 -1.2234  1.5928
  637TIP3    H223471   1.080   5.911   0.840 -1.1198  2.7570  0.8158
  638TIP3   OH223472   6.089   6.616   0.825  0.0321  0.1030  0.6555
  638TIP3    H123473   6.011   6.563   0.812  0.7110 -0.5687 -0.9700
  638TIP3    H223474   6.077   6.656   0.911 -1.4500 -1.0646  1.0330
  639TIP3   OH223475   4.728   3.848   0.400  0.1273 -0.2629 -0.2485
  639TIP3    H123476   4.671   3.781   0.439 -1.4938  1.5837  0.7607
  639TIP3    H223477   4.765   3.893   0.475  0.1818  0.7766 -0.8874
  640TIP3   OH223478   2.260   2.012   7.646 -0.3972 -0.2122  0.0322
  640TIP3    H123479   2.174   1.978   7.623 -0.5638  1.2943 -1.7844
  640TIP3    H223480   2.247   2.053   7.732 -1.9056  1.2609 -0.8414
  641TIP3   OH223481   5.757   1.208   7.964  0.3242  0.8704  0.0122
  641TIP3    H123482   5.681   1.248   8.006 -0.1440  2.4045 -2.1224
  641TIP3    H223483   5.818   1.281   7.952  0.9348  0.2260 -0.8591
  642TIP3   OH223484   1.601   1.594   1.957 -0.0489 -0.6597 -0.4133
  642TIP3    H123485   1.608   1.552   2.042  0.1126 -0.1845 -0.1900
  642TIP3    H223486   1.668   1.551   1.903  1.5492  0.6838  0.3940
  643TIP3   OH223487   4.031   6.191   1.665 -0.0012  0.1939  0.0420
  643TIP3    H123488   4.032   6.277   1.707 -1.1035  0.3129 -0.1694
  643TIP3    H223489   4.090   6.138   1.719 -0.8364  0.5385  1.3270
  644TIP3   OH223490   3.859   5.732   2.182  0.3929  0.1942 -0.2691
  644TIP3    H123491   3.821   5.718   2.269 -1.8689  0.4634 -1.1578
  644TIP3    H223492   3.891   5.822   2.184 -1.4035  0.8609 -0.2978
  645TIP3   OH223493   0.314   5.957   0.839 -0.1191 -0.1100 -0.3990
  645TIP3    H123494   0.364   5.910   0.772 -0.3561 -0.3813 -0.3840
  645TIP3    H223495   0.302   5.894   0.909  0.0196  0.1364 -0.1495
  646TIP3   OH223496   5.091   5.168   1.994  0.1228 -0.4035 -0.5118
  646TIP3    H123497   5.179   5.158   2.030  0.2301  0.4202 -0.5055
  646TIP3    H223498   5.101   5.148   1.901  0.3347 -0.2346 -0.5256
  647TIP3   OH223499   3.399   3.233   0.373  0.1178  0.1509  0.3632
  647TIP3    H123500   3.370   3.323   0.354 -0.6760  0.3696  2.3893
  647TIP3    H223501   3.370   3.182   0.297 -0.2552  1.4482 -0.3918
  648TIP3   OH223502   2.820   1.559   1.312  0.4379  0.0420  0.2552
  648TIP3    H123503   2.869   1.486   1.273  1.7392  2.2265 -2.5380
  648TIP3    H223504   2.886   1.625   1.331 -0.9896  1.6288 -0.0578
  649TIP3   OH223505   1.549   5.216   0.825  0.1185  0.6707  0.6722
  649TIP3    H123506   1.506   5.231   0.741  1.2026  2.4191  0.3686
  649TIP3    H223507   1.583   5.126   0.819  2.2073  1.4702 -1.7790
  650TIP3   OH223508   5.940   4.625   8.044 -0.0573 -0.0399  0.5300
  650TIP3    H123509   5.971   4.715   8.044 -2.0857  0.7761 -1.6486
  650TIP3    H223510   6.010   4.575   8.086  2.1760  2.2127 -0.2527
  651TIP3   OH223511   0.692   5.211   1.225  0.1346  0.5636 -0.1776
  651TIP3    H123512   0.767   5.271   1.229  1.2474 -0.7434 -0.8509
  651TIP3    H223513   0.718   5.145   1.162 -0.6663 -1.1761  1.2413
  652TIP3   OH223514   2.021   3.768   7.963  0.0991 -0.3811 -0.0124
  652TIP3    H123515   1.941   3.717   7.948  0.2980 -0.6007 -0.3275
  652TIP3    H223516   1.989   3.852   7.994 -0.2332 -0.7322  0.6338
  653TIP3   OH223517   0.517   4.143   8.238 -0.6483 -0.5338 -0.8390
  653TIP3    H123518   0.525   4.122   8.331  0.0292 -0.4164 -0.8649
  653TIP3    H223519   0.567   4.074   8.194 -1.7229 -1.1084 -1.1811
  654TIP3   OH223520   6.194   3.002   0.686 -0.2937 -0.4625 -0.0588
  654TIP3    H123521   6.234   2.929   0.733  0.2149  0.3172  0.7346
  654TIP3    H223522   6.230   2.995   0.597  0.4967 -0.6078  0.2680
  655TIP3   OH223523   2.491   4.292   0.941 -0.2214  0.2322 -0.0950
  655TIP3    H123524   2.472   4.233   0.868 -1.6439 -0.9035  1.1329
  655TIP3    H223525   2.554   4.245   0.995 -0.1397  0.5273  0.0680
  656TIP3   OH223526   3.516   4.349   1.912  0.3880  0.0361 -0.6440
  656TIP3    H123527   3.520   4.355   1.816 -1.6072  1.0254 -0.7078
  656TIP3    H223528   3.426   4.320   1.930  0.8747 -0.5740  0.9295
  657TIP3   OH223529   5.890   6.064   8.347 -0.1306 -0.6997 -0.2206
  657TIP3    H123530   5.897   6.089   8.255  0.7474  2.4475  0.5851
  657TIP3    H223531   5.978   6.034   8.371 -0.0979 -0.5706 -0.1772
  658TIP3   OH223532   0.810   6.136   6.639 -0.8073 -0.5607 -0.1631
  658TIP3    H123533   0.744   6.205   6.634 -0.1193  0.1565  0.3692
  658TIP3    H223534   0.764   6.061   6.675 -1.4211 -0.1864 -0.1605
  659TIP3   OH223535   5.264   0.065   2.449 -0.3482 -0.3735  0.1347
  659TIP3    H123536   5.263  -0.029   2.432  1.7364 -0.5982  0.9797
  659TIP3    H223537   5.188   0.081   2.505 -1.5767 -1.2695 -1.2126
  660TIP3   OH223538   3.081   1.411   1.285 -0.3970  0.4228  0.2930
  660TIP3    H123539   3.168   1.384   1.315  0.5063  0.8329 -1.7421
  660TIP3    H223540   3.026   1.334   1.298  0.3576  0.0191  1.2392
  661TIP3   OH223541   2.112   6.066   1.755 -0.0079 -0.3465 -0.6871
  661TIP3    H123542   2.205   6.043   1.754  0.0991  0.0820 -1.4757
  661TIP3    H223543   2.110   6.158   1.782 -0.4035 -1.0594  2.0308
  662TIP3   OH223544   3.692   1.208   7.784 -0.2432 -0.9392 -0.0511
  662TIP3    H123545   3.684   1.277   7.717  0.0021  0.6134  1.4370
  662TIP3    H223546   3.784   1.182   7.780 -0.4618 -1.6080 -1.0033
  663TIP3   OH223547   5.655   0.571   6.542  0.0196  0.1905  0.3479
  663TIP3    H123548   5.587   0.552   6.607 -0.1828  0.0299  0.0940
  663TIP3    H223549   5.659   0.666   6.539  0.3489  0.1999  0.9204
  664TIP3   OH223550   1.566   4.117   1.254  0.3315  0.8034  0.6560
  664TIP3    H123551   1.644   4.066   1.232  1.9358  2.4573  2.1204
  664TIP3    H223552   1.564   4.187   1.189 -0.4478  0.2989  0.1212
  665TIP3   OH223553   2.859   5.675   1.410  0.0091  0.0113  0.0077
  665TIP3    H123554   2.925   5.624   1.458 -0.2057  0.9684  1.3866
  665TIP3    H223555   2.784   5.679   1.470 -0.8370  0.0024 -1.0255
  666TIP3   OH223556   6.353   5.041   8.579 -0.4525  0.0964 -0.0835
  666TIP3    H123557   6.259   5.027   8.592 -0.3280 -0.6750  0.0653
  666TIP3    H223558   6.388   4.953   8.563  0.3213  0.3191  0.3452
  667TIP3   OH223559   4.017   3.021   0.203  0.1074 -0.0904 -0.0860
  667TIP3    H123560   4.083   2.984   0.262  0.2937 -0.6098 -0.6088
  667TIP3    H223561   4.060   3.025   0.118  0.2772  1.8838  0.0581
  668TIP3   OH223562   3.883   6.403   8.158 -0.4149  0.0386 -0.3983
  668TIP3    H123563   3.932   6.395   8.240  1.1328 -1.3595 -1.4054
  668TIP3    H223564   3.815   6.468   8.177  0.1779  0.0729  1.8451
  669TIP3   OH223565   6.708   1.259   8.633 -0.5340  0.0303  0.6141
  669TIP3    H123566   6.777   1.202   8.598 -0.0735 -0.5490  2.3379
  669TIP3    H223567   6.752   1.343   8.647 -1.4081  1.1839 -2.6810
  670TIP3   OH223568   0.887   3.347   1.881  0.5478  0.2115  0.2630
  670TIP3    H123569   0.805   3.301   1.861  0.6195  0.7276 -1.3751
  670TIP3    H223570   0.917   3.308   1.963  0.6671 -2.7715 -1.0784
  671TIP3   OH223571   4.837   5.091   2.417 -0.4170  0.2556  0.5287
  671TIP3    H123572   4.865   5.105   2.326 -1.6551  0.1996  0.1115
  671TIP3    H223573   4.846   5.177   2.458  0.5930  0.1774  0.4970
  672TIP3   OH223574   5.757   3.863   1.277  0.0682 -0.2145 -0.1040
  672TIP3    H123575   5.750   3.792   1.213 -1.0548 -0.0127 -0.2346
  672TIP3    H223576   5.682   3.850   1.335 -0.3959  1.0973 -0.3802
  673TIP3   OH223577   2.381   1.159   0.461 -0.1169  0.6802 -0.1836
  673TIP3    H123578   2.421   1.073   0.468  0.9551  1.1374 -0.5322
  673TIP3    H223579   2.370   1.187   0.552 -0.0243  0.3818 -0.0781
  674TIP3   OH223580   0.756   3.212   7.318 -0.0110 -0.1356 -0.4208
  674TIP3    H123581   0.832   3.153   7.323 -1.3355 -1.8378  0.8515
  674TIP3    H223582   0.727   3.207   7.227  1.3274  0.5177 -0.9201
  675TIP3   OH223583   6.711   3.277   1.491 -0.1941 -0.0396  0.0160
  675TIP3    H123584   6.699   3.372   1.498  1.5102  0.3270 -1.3312
  675TIP3    H223585   6.695   3.258   1.399 -0.0312 -0.9997  0.1779
  676TIP3   OH223586   5.103   1.514   7.559  0.3390 -0.1679  0.2378
  676TIP3    H123587   5.137   1.446   7.617 -2.0869 -1.7430 -0.0618
  676TIP3    H223588   5.045   1.566   7.615 -1.3042 -1.1447 -0.4990
  677TIP3   OH223589   1.453   2.899   2.743 -0.3325 -0.2199 -0.2502
  677TIP3    H123590   1.506   2.856   2.675 -1.2450  1.9992 -2.5284
  677TIP3    H223591   1.374   2.845   2.750 -2.4603  1.8148 -4.6154
  678TIP3   OH223592   0.713   0.145   7.074  0.2750  0.6714 -0.3262
  678TIP3    H123593   0.709   0.053   7.049  1.7961 -0.0099  1.6752
  678TIP3    H223594   0.629   0.162   7.118  0.7000 -0.3261  0.9335
  679TIP3   OH223595   6.676   3.575   7.885  0.4658  0.5384 -0.0913
  679TIP3    H123596   6.591   3.616   7.867 -0.8880 -1.7051  0.7529
  679TIP3    H223597   6.672   3.491   7.840  0.8336 -1.0416  2.6051
  680TIP3   OH223598   3.148   4.142   0.285  0.1248 -0.2935  0.4267
  680TIP3    H123599   3.214   4.091   0.238  0.8386 -0.1862  1.2755
  680TIP3    H223600   3.096   4.077   0.332 -0.1927 -0.3572 -0.0034
  681TIP3   OH223601   0.293   0.553   7.089  0.0534  0.1912  0.3105
  681TIP3    H123602   0.339   0.482   7.044  0.2034  0.4224  0.0987
  681TIP3    H223603   0.313   0.631   7.038  0.8064  0.5844  1.1739
  682TIP3   OH223604   4.009   4.309   1.343  0.0037 -0.6206  0.4584
  682TIP3    H123605   4.047   4.235   1.391  0.2764 -0.9344 -0.2278
  682TIP3    H223606   4.081   4.342   1.290 -0.5592 -0.9407 -0.5238
  683TIP3   OH223607   2.076   5.930   7.959  0.2285 -0.4347 -0.3625
  683TIP3    H123608   2.116   6.007   7.918  2.5726 -0.4236  1.7359
  683TIP3    H223609   2.132   5.858   7.934 -0.4595 -1.0418 -0.1883
  684TIP3   OH223610   5.003   0.930   8.357 -0.4647  0.1737 -0.0401
  684TIP3    H123611   5.011   0.835   8.352 -1.1697  0.0759  0.4626
  684TIP3    H223612   5.075   0.964   8.305  0.5303 -0.6367  0.7709
  685TIP3   OH223613   4.688   5.535   0.065  0.5622 -0.1486  0.4292
  685TIP3    H123614   4.622   5.566   0.003  0.4661  3.9365  2.2311
  685TIP3    H223615   4.770   5.536   0.016 -0.2900 -4.2533 -1.5221
  686TIP3   OH223616   4.371   3.008   1.126  0.9460  0.4456  0.7542
  686TIP3    H123617   4.350   3.074   1.060  1.4444  0.3547  0.5028
  686TIP3    H223618   4.332   2.927   1.091 -1.7164  1.0100  2.1521
  687TIP3   OH223619   1.848   6.501   1.265 -0.1189  0.3007  0.2496
  687TIP3    H123620   1.894   6.580   1.294  0.6352  0.4145 -1.1583
  687TIP3    H223621   1.758   6.530   1.252  0.1507  0.9577 -0.2659
  688TIP3   OH223622   1.849   5.987   8.405  0.7206  0.3591  0.7417
  688TIP3    H123623   1.907   5.983   8.482  1.6809  0.2431  0.0364
  688TIP3    H223624   1.895   6.044   8.344 -0.6322  1.4612  0.7268
  689TIP3   OH223625   2.442   3.727   2.337  0.4531  0.0473 -0.2426
  689TIP3    H123626   2.530   3.723   2.376 -1.3652 -1.2700  4.3777
  689TIP3    H223627   2.405   3.808   2.371 -0.5441 -0.0514 -1.0758
  690TIP3   OH223628   6.409   4.049   1.506 -0.0477  0.5109  0.1596
  690TIP3    H123629   6.482   4.072   1.450  0.8178  1.2395  1.5251
  690TIP3    H223630   6.416   3.954   1.517 -0.1173  0.3925 -0.7834
  691TIP3   OH223631   0.625   0.266   0.093  0.6836 -0.2396  0.6283
  691TIP3    H123632   0.667   0.328   0.153  0.0021  1.4669 -0.5796
  691TIP3    H223633   0.661   0.181   0.117  3.0106  0.8403  1.1833
  692TIP3   OH223634   4.881   3.581   7.092  0.2135  0.6622 -1.0577
  692TIP3    H123635   4.944   3.514   7.119 -0.5995 -1.1341 -3.2225
  692TIP3    H223636   4.845   3.616   7.174  0.4689 -1.7910  0.1917
  693TIP3   OH223637   4.270   5.902   2.638 -0.0448  0.2401  0.0225
  693TIP3    H123638   4.203   5.909   2.571 -0.1001  1.3406  0.1754
  693TIP3    H223639   4.235   5.950   2.713  1.5160  2.1588 -0.4091
  694TIP3   OH223640   0.612   5.484   7.158 -0.2519  0.5031  0.1720
  694TIP3    H123641   0.613   5.388   7.151 -0.0876  0.4992  0.2259
  694TIP3    H223642   0.568   5.501   7.241  2.3925  0.3519  1.7436
  695TIP3   OH223643   1.448   3.911   0.728  0.2540 -0.3377  0.6713
  695TIP3    H123644   1.390   3.973   0.771 -0.8826  0.4605 -1.8190
  695TIP3    H223645   1.409   3.826   0.744 -2.0071  0.2107 -1.3303
  696TIP3   OH223646   3.186   0.148   1.361 -0.7070 -0.3954 -0.1683
  696TIP3    H123647   3.144   0.155   1.274  2.0401  2.2086 -1.4905
  696TIP3    H223648   3.245   0.073   1.353 -0.7810 -0.4307 -0.4166
  697TIP3   OH223649   1.746   2.998   8.591 -0.0030  0.4509  0.0683
  697TIP3    H123650   1.682   2.997   8.661  1.2966  1.8645  1.3675
  697TIP3    H223651   1.816   2.940   8.621 -1.1982 -2.2972 -2.0044
  698TIP3   OH223652   4.300   6.652   7.702 -0.0798  0.0920 -0.6639
  698TIP3    H123653   4.220   6.658   7.650 -2.0453  0.0481  2.1119
  698TIP3    H223654   4.343   6.571   7.672 -2.0877 -0.9254 -0.9556
  699TIP3   OH223655   6.545   0.467   1.692  0.4336  0.6947  0.2342
  699TIP3    H123656   6.501   0.499   1.613 -1.2633  0.6045  1.1007
  699TIP3    H223657   6.548   0.372   1.682 -0.7141  0.5912  0.7056
  700TIP3   OH223658   6.852   4.573   7.434 -0.0222 -0.0926  0.2384
  700TIP3    H123659   6.832   4.591   7.342 -2.1846  0.6182  0.7838
  700TIP3    H223660   6.850   4.478   7.441 -1.7101 -0.1018 -0.0963
  701TIP3   OH223661   1.732   1.648   7.116 -0.3248 -0.1913 -0.4914
  701TIP3    H123662   1.802   1.582   7.116  0.8187  0.9611 -1.5644
  701TIP3    H223663   1.770   1.724   7.160 -1.4919 -0.0986  0.3845
  702TIP3   OH223664   3.785   4.442   2.550 -0.1109 -0.4843 -0.4664
  702TIP3    H123665   3.701   4.477   2.579  0.6758 -0.6277  2.2232
  702TIP3    H223666   3.785   4.352   2.582  0.6479 -0.8524 -1.4396
  703TIP3   OH223667   2.707   3.267   1.891  0.5274  0.1020  0.0427
  703TIP3    H123668   2.753   3.303   1.966  0.4882 -0.2318  0.2277
  703TIP3    H223669   2.626   3.319   1.885 -0.1820 -0.8234  1.1373
  704TIP3   OH223670   0.117   1.457   0.579 -0.5462  0.2837  0.7302
  704TIP3    H123671   0.065   1.404   0.638  0.8152 -0.6288  1.1596
  704TIP3    H223672   0.165   1.394   0.525 -0.2843  1.0876 -0.0124
  705TIP3   OH223673   5.058   6.596   8.434  0.0822 -0.4671 -0.1158
  705TIP3    H123674   4.970   6.558   8.431 -0.6241  1.1427 -0.3232
  705TIP3    H223675   5.110   6.531   8.482 -1.4774 -0.9280  1.0237
  706TIP3   OH223676   3.589   3.214   1.282 -0.3392  0.7077 -0.7512
  706TIP3    H123677   3.503   3.198   1.245 -0.3309  0.6967 -0.7656
  706TIP3    H223678   3.628   3.281   1.226 -0.3561  0.7459 -0.7179
  707TIP3   OH223679   1.428   3.148   1.563  0.0805  0.5537 -0.1319
  707TIP3    H123680   1.375   3.102   1.497 -1.0041  1.6433 -0.0602
  707TIP3    H223681   1.422   3.240   1.538  0.5655  0.8635  0.8689
  708TIP3   OH223682   0.887   2.778   1.471  0.2373  0.3240 -0.6088
  708TIP3    H123683   0.953   2.772   1.402 -0.1451 -2.9004 -0.8709
  708TIP3    H223684   0.937   2.769   1.552  0.2190 -3.6863 -0.8443
  709TIP3   OH223685   1.316   4.127   7.593  0.2333  0.2533 -0.5802
  709TIP3    H123686   1.241   4.169   7.553 -0.4884  0.3131  0.7841
  709TIP3    H223687   1.392   4.177   7.560 -0.5051  1.8328  0.0220
  710TIP3   OH223688   5.781   2.681   7.924  0.6428 -0.1007 -0.5793
  710TIP3    H123689   5.862   2.730   7.939  0.0553  0.2466  1.8251
  710TIP3    H223690   5.803   2.591   7.949  0.1301  0.1341  0.7994
  711TIP3   OH223691   1.663   6.540   8.191  0.2020 -0.3526  0.0996
  711TIP3    H123692   1.723   6.607   8.157 -0.1247  0.2530  0.7071
  711TIP3    H223693   1.698   6.458   8.156  0.4712  0.1457 -0.8605
  712TIP3   OH223694   4.717   0.950   1.971  0.0215 -0.0022  0.1909
  712TIP3    H123695   4.625   0.964   1.948 -0.2524 -1.3535  0.3724
  712TIP3    H223696   4.731   1.005   2.047 -1.0432 -0.7917  0.9999
  713TIP3   OH223697   0.474   4.255   1.492  0.1806 -0.1799  0.5018
  713TIP3    H123698   0.543   4.298   1.541 -1.3274  1.6869  1.0975
  713TIP3    H223699   0.482   4.288   1.403  0.9522 -1.1309  0.2008
  714TIP3   OH223700   2.314   6.203   6.845 -0.4073 -0.4783 -0.1942
  714TIP3    H123701   2.245   6.265   6.866  0.2369 -0.0207  0.6430
  714TIP3    H223702   2.349   6.176   6.930 -0.1516 -1.3965 -0.5713
  715TIP3   OH223703   0.309   4.932   1.639  0.5476 -0.2195 -0.2677
  715TIP3    H123704   0.297   4.966   1.551  1.7610 -1.1895 -0.8407
  715TIP3    H223705   0.389   4.975   1.671 -0.9334  1.6409  1.1604
  716TIP3   OH223706   4.928   1.326   8.651  0.2075 -0.5509  0.2630
  716TIP3    H123707   4.851   1.309   8.704 -0.5849 -0.7274 -0.9231
  716TIP3    H223708   4.989   1.369   8.711 -1.2480  0.6618  0.9375
  717TIP3   OH223709   4.173   1.819   7.917 -0.4449 -0.3428 -0.4574
  717TIP3    H123710   4.090   1.808   7.964 -0.3895  0.0434 -0.2579
  717TIP3    H223711   4.150   1.873   7.841 -0.3161  0.0731 -0.2060
  718TIP3   OH223712   0.408   2.204   6.519  0.2747  0.4551  0.4332
  718TIP3    H123713   0.466   2.130   6.499 -0.3830  0.1567 -0.4505
  718TIP3    H223714   0.331   2.164   6.561 -0.3863  0.5352 -0.6637
  719TIP3   OH223715   5.067   0.301   8.029  0.1075  0.0997 -0.6337
  719TIP3    H123716   4.985   0.283   7.983  0.6355 -1.3712 -1.0535
  719TIP3    H223717   5.129   0.323   7.959  0.7000 -1.3066 -0.5800
  720TIP3   OH223718   4.802   6.387   0.033 -0.0517 -0.0421 -0.2014
  720TIP3    H123719   4.857   6.322  -0.012  0.9644  0.1886  0.6595
  720TIP3    H223720   4.778   6.345   0.116  3.1635  1.6683  1.8180
  721TIP3   OH223721   1.488   2.402   1.044  0.2499 -0.2010  0.0635
  721TIP3    H123722   1.471   2.496   1.049  0.1370 -0.2427  0.4908
  721TIP3    H223723   1.569   2.395   0.993  0.2948  0.1291  0.0890
  722TIP3   OH223724   3.349   5.344   8.695  0.6394 -0.7599  0.0581
  722TIP3    H123725   3.396   5.355   8.778 -0.0316  0.7278  0.2696
  722TIP3    H223726   3.281   5.279   8.715 -0.0709  0.2241  0.9333
  723TIP3   OH223727   5.942   5.489   6.864 -0.3521 -0.1269 -0.0490
  723TIP3    H123728   6.001   5.547   6.816  0.1451 -1.2386 -0.8035
  723TIP3    H223729   5.915   5.423   6.800 -1.2934 -0.4678  0.6688
  724TIP3   OH223730   2.964   5.519   1.620 -0.2418 -0.3555 -0.0198
  724TIP3    H123731   3.006   5.562   1.694  1.1535 -0.0286 -0.9610
  724TIP3    H223732   2.871   5.516   1.643 -0.0406  1.0497  1.0939
  725TIP3   OH223733   6.478   0.108   6.395  0.2004  0.1850 -0.0705
  725TIP3    H123734   6.395   0.153   6.378 -1.4985 -1.9971  1.8162
  725TIP3    H223735   6.541   0.179   6.406 -1.8189  2.0349  0.4294
  726TIP3   OH223736   4.234   4.733   8.009  0.1333  0.6697 -0.4778
  726TIP3    H123737   4.187   4.662   7.966 -2.4555  1.1725  1.3054
  726TIP3    H223738   4.204   4.730   8.099  3.1558  1.4664  0.6801
  727TIP3   OH223739   1.380   0.419   1.389 -0.2474 -0.3636  0.1936
  727TIP3    H123740   1.460   0.457   1.424 -0.2244 -0.5641  0.3677
  727TIP3    H223741   1.360   0.470   1.311  0.4094 -0.7277 -0.2173
  728TIP3   OH223742   6.714   6.661   1.384  0.5614  0.3788 -0.0358
  728TIP3    H123743   6.645   6.634   1.323  1.6902 -0.4439 -0.9870
  728TIP3    H223744   6.743   6.579   1.425  1.5676  0.6019 -0.2933
  729TIP3   OH223745   3.621   5.939   0.956  0.0933 -0.0482  0.1317
  729TIP3    H123746   3.526   5.944   0.955  0.1804  3.0730  0.2427
  729TIP3    H223747   3.641   5.878   1.028 -1.7778 -0.9691 -0.0796
  730TIP3   OH223748   4.951   3.997   0.085 -0.1567  0.4245 -0.1629
  730TIP3    H123749   4.897   4.028   0.158 -2.3548 -3.2107  0.0337
  730TIP3    H223750   5.036   3.978   0.124 -0.9331 -0.3437  1.2115
  731TIP3   OH223751   0.754   4.611   0.824  0.1966  0.4151 -0.3351
  731TIP3    H123752   0.808   4.655   0.758  0.4836  0.9896  0.2670
  731TIP3    H223753   0.813   4.546   0.863 -0.1464 -0.3220 -1.0382
  732TIP3   OH223754   2.950   5.171   0.392 -0.0932  0.3357  0.3282
  732TIP3    H123755   3.003   5.106   0.347  0.7982  0.3931  1.2548
  732TIP3    H223756   2.963   5.152   0.485 -0.4949  1.2932  0.5896
  733TIP3   OH223757   0.167   1.281   0.329  0.5053  0.1815 -0.3722
  733TIP3    H123758   0.129   1.351   0.277 -0.3503 -1.5827 -2.2505
  733TIP3    H223759   0.248   1.258   0.284  0.2310 -0.7386 -0.4175
  734TIP3   OH223760   5.731   5.324   1.433  0.3710 -0.5791 -0.3387
  734TIP3    H123761   5.724   5.408   1.479  1.7591 -0.1855 -0.7951
  734TIP3    H223762   5.815   5.329   1.387  0.4440 -2.1964 -0.4332
  735TIP3   OH223763   4.530   6.682   1.232 -0.0631  0.1100  0.7448
  735TIP3    H123764   4.436   6.688   1.243 -0.4871 -0.9327 -1.6137
  735TIP3    H223765   4.566   6.753   1.285 -2.3357  2.1656 -0.2950
  736TIP3   OH223766   3.030   3.760   6.281 -0.7501  0.2337  0.5588
  736TIP3    H123767   3.045   3.709   6.360  0.6692 -1.0770 -0.4822
  736TIP3    H223768   3.083   3.839   6.293  1.9645 -1.3245 -0.2587
  737TIP3   OH223769   1.226   2.920   7.071  0.2822  0.3288 -0.3150
  737TIP3    H123770   1.286   2.983   7.111  0.0056  0.9339 -0.8331
  737TIP3    H223771   1.273   2.889   6.993  0.2047  0.2816 -0.3420
  738TIP3   OH223772   5.382   1.450   8.283  0.4907 -0.6427  0.9587
  738TIP3    H123773   5.427   1.501   8.351  0.0443 -0.8515  1.4179
  738TIP3    H223774   5.298   1.428   8.321  0.0915 -0.4686  0.1996
  739TIP3   OH223775   4.560   5.646   0.647 -0.0646 -0.2775 -0.0206
  739TIP3    H123776   4.526   5.691   0.570  0.8704  1.4829  0.5359
  739TIP3    H223777   4.512   5.685   0.720  1.4909  0.6324  0.5659
  740TIP3   OH223778   4.567   3.531   7.751  0.2309 -0.0550  0.0457
  740TIP3    H123779   4.650   3.573   7.774  0.2683  0.5896 -1.2059
  740TIP3    H223780   4.574   3.443   7.787  1.1083  0.2589  0.6847
  741TIP3   OH223781   5.960   0.229   6.370 -0.1805 -0.1430 -0.1981
  741TIP3    H123782   5.887   0.253   6.313 -1.3413 -0.7477  0.9783
  741TIP3    H223783   5.919   0.214   6.455  1.0411 -2.2833  0.0816
  742TIP3   OH223784   4.552   0.219   7.420  0.6007  0.3768  0.1962
  742TIP3    H123785   4.621   0.160   7.389  1.8941  1.2802  1.2692
  742TIP3    H223786   4.489   0.221   7.348  2.8435  1.3873 -1.8762
  743TIP3   OH223787   1.547   6.140   8.716  0.0420  0.5274  0.1856
  743TIP3    H123788   1.623   6.197   8.705 -0.7475  1.5317 -0.2473
  743TIP3    H223789   1.473   6.194   8.691 -0.7109 -0.8207 -0.6393
  744TIP3   OH223790   4.369   4.400   8.691  0.5979 -0.0559  0.5228
  744TIP3    H123791   4.428   4.334   8.727 -0.0220  0.3858  2.4571
  744TIP3    H223792   4.382   4.477   8.745  0.5948  1.1406 -1.0938
  745TIP3   OH223793   3.733   2.836   0.627  0.1148 -0.0169  0.6943
  745TIP3    H123794   3.681   2.784   0.566  0.8839 -0.6410  0.5644
  745TIP3    H223795   3.678   2.912   0.645 -0.2580  0.0215 -0.5157
  746TIP3   OH223796   2.068   5.698   0.898  0.6801 -0.1506  0.0436
  746TIP3    H123797   2.023   5.717   0.816 -0.2206  1.9107  0.9420
  746TIP3    H223798   2.004   5.649   0.949  0.8356 -0.4687 -0.0647
  747TIP3   OH223799   1.138   6.503   6.945  0.4345 -0.0337 -0.4436
  747TIP3    H123800   1.092   6.438   6.893  0.5207  0.1945 -0.8083
  747TIP3    H223801   1.176   6.563   6.881  2.3071 -0.9187 -0.2388
  748TIP3   OH223802   4.124   3.132   0.509 -0.2966 -0.2729  0.0662
  748TIP3    H123803   4.073   3.057   0.478 -0.5357 -0.7883  1.6059
  748TIP3    H223804   4.147   3.109   0.599  2.1288  0.2278 -0.3636
  749TIP3   OH223805   5.458   4.114   7.880  0.2929 -0.2443  0.2980
  749TIP3    H123806   5.376   4.066   7.866  0.0313  0.6662 -1.5173
  749TIP3    H223807   5.444   4.161   7.963 -0.7073 -0.7166  0.4191
  750TIP3   OH223808   2.366   3.618   1.635  0.7510 -0.2765 -0.1775
  750TIP3    H123809   2.298   3.553   1.617  1.0159 -0.7194  0.3576
  750TIP3    H223810   2.380   3.662   1.552 -0.3496 -0.0134 -0.2442
  751TIP3   OH223811   3.706   1.881   7.038 -0.5061  0.1170 -0.0271
  751TIP3    H123812   3.613   1.857   7.045 -0.9595  0.5192 -3.2245
  751TIP3    H223813   3.745   1.811   6.986  0.2690  1.4827 -1.3374
  752TIP3   OH223814   2.307   3.134   1.017  0.2106 -0.2612  0.0053
  752TIP3    H123815   2.388   3.140   0.967  0.5114  0.1748  0.5290
  752TIP3    H223816   2.294   3.223   1.051 -0.4261 -0.3572  0.0140
  753TIP3   OH223817   2.462   4.911   6.844 -0.4466  0.1057  0.3533
  753TIP3    H123818   2.488   4.898   6.936  1.0572  1.0427  0.0824
  753TIP3    H223819   2.513   4.847   6.795 -0.3467  0.4236  0.0403
  754TIP3   OH223820   4.966   2.229   7.541 -0.3739  0.1608  0.4827
  754TIP3    H123821   5.046   2.256   7.585  0.4979 -0.3750 -0.6960
  754TIP3    H223822   4.988   2.232   7.448 -1.6713 -0.1648  0.1459
  755TIP3   OH223823   3.973   2.138   0.492 -0.1007  0.5032  0.2133
  755TIP3    H123824   3.999   2.057   0.536  2.1930 -0.1135 -2.0377
  755TIP3    H223825   4.043   2.200   0.512 -1.6625  1.9212  1.6195
  756TIP3   OH223826   2.959   5.284   1.451  0.0612  0.5671 -0.5384
  756TIP3    H123827   2.952   5.341   1.527 -1.8944 -0.0887 -0.1927
  756TIP3    H223828   3.028   5.222   1.474 -1.9115 -0.9850  1.6882
  757TIP3   OH223829   2.212   5.236   1.836 -0.3128  0.1327  0.2883
  757TIP3    H123830   2.218   5.167   1.770  1.9140 -1.3806  1.9005
  757TIP3    H223831   2.293   5.286   1.826 -1.6809  2.2646 -0.5298
  758TIP3   OH223832   0.403   4.582   7.960 -0.3314 -0.2241 -0.1422
  758TIP3    H123833   0.438   4.517   7.899  0.5870  0.9434 -0.8872
  758TIP3    H223834   0.478   4.635   7.985 -1.2880  1.4418 -0.6577
  759TIP3   OH223835   5.707   0.569   7.345 -0.1441  0.3490 -0.0906
  759TIP3    H123836   5.702   0.530   7.258  0.2891  1.3248 -0.5632
  759TIP3    H223837   5.616   0.569   7.376 -0.3502  0.2963 -0.6788
  760TIP3   OH223838   1.491   4.248   7.847  0.1898 -0.4995  0.0732
  760TIP3    H123839   1.454   4.163   7.826 -0.9184 -0.3217  1.2034
  760TIP3    H223840   1.515   4.242   7.940 -0.2256  0.5270  0.2625
  761TIP3   OH223841   0.511   0.375   0.932  0.3021 -0.9529 -0.2306
  761TIP3    H123842   0.426   0.381   0.889 -0.0775  1.6284  0.7087
  761TIP3    H223843   0.573   0.413   0.869  0.3133 -0.3561  0.1381
  762TIP3   OH223844   6.809   2.116   8.458 -0.6937 -0.4304 -0.0664
  762TIP3    H123845   6.816   2.185   8.392  0.3307 -0.3410  0.1161
  762TIP3    H223846   6.839   2.037   8.413 -0.2044 -0.4122  0.2174
  763TIP3   OH223847   1.135   5.686   6.425 -0.0023  0.3098 -0.9260
  763TIP3    H123848   1.103   5.773   6.402  2.4798  1.7134  0.5774
  763TIP3    H223849   1.219   5.678   6.380  0.2500 -0.9458 -0.2748
  764TIP3   OH223850   4.675   0.511   8.027 -0.3856 -0.2280  0.6907
  764TIP3    H123851   4.757   0.559   8.026 -0.4208 -0.1832  0.0238
  764TIP3    H223852   4.698   0.425   8.063 -0.4830  0.5403  2.7566
  765TIP3   OH223853   1.583   2.904   2.008 -0.4568 -0.7494  0.4781
  765TIP3    H123854   1.610   2.898   2.100 -1.2816  2.1417  1.0267
  765TIP3    H223855   1.647   2.963   1.968  0.1920 -2.3786 -1.0027
  766TIP3   OH223856   3.680   3.082   2.064 -0.5272 -0.2191  0.3057
  766TIP3    H123857   3.613   3.128   2.114 -0.8784 -0.2804 -0.1053
  766TIP3    H223858   3.722   3.024   2.127  0.8003  1.5749  1.1684
  767TIP3   OH223859   1.122   2.459   0.584 -0.1495 -0.0362  0.0335
  767TIP3    H123860   1.028   2.442   0.579 -0.1149 -0.5443  0.9738
  767TIP3    H223861   1.155   2.397   0.649  1.0155 -0.5502 -1.0056
  768TIP3   OH223862   5.153   5.592   1.078 -0.2961  0.3771  0.0567
  768TIP3    H123863   5.214   5.664   1.060 -0.9681  1.0506  0.4082
  768TIP3    H223864   5.113   5.573   0.993  0.4348 -0.1045 -0.1860
  769TIP3   OH223865   0.003   1.172   1.219  0.8833  0.3218 -0.2990
  769TIP3    H123866   0.084   1.138   1.256 -0.0057 -0.8202  0.6708
  769TIP3    H223867  -0.058   1.175   1.293 -0.7818 -1.5032 -1.4917
  770TIP3   OH223868   6.308   3.163   1.042  0.3440 -0.5774 -0.1836
  770TIP3    H123869   6.285   3.252   1.016  0.9018 -1.0449 -2.4795
  770TIP3    H223870   6.398   3.170   1.074  0.8193 -0.4900 -1.5050
  771TIP3   OH223871   4.247   0.259   0.501 -0.2710  0.3738  0.1167
  771TIP3    H123872   4.168   0.229   0.456 -0.1878 -0.6275  0.6325
  771TIP3    H223873   4.215   0.319   0.568 -0.4907  0.8976 -0.4436
  772TIP3   OH223874   5.856   5.786   2.726 -0.1911  0.2530  0.1094
  772TIP3    H123875   5.927   5.825   2.674 -0.1109  0.2674  0.2308
  772TIP3    H223876   5.802   5.861   2.753 -0.3083  0.2334 -0.0656
  773TIP3   OH223877   4.595   5.924   0.494  0.0852  0.0608 -0.2883
  773TIP3    H123878   4.556   6.006   0.464  0.3813 -0.5674 -2.5647
  773TIP3    H223879   4.560   5.857   0.436  0.4592 -1.3470  1.0168
  774TIP3   OH223880   2.067   0.966   0.257  0.3327  0.3845  0.2256
  774TIP3    H123881   2.151   0.924   0.239  0.5215  0.7823  0.1599
  774TIP3    H223882   2.087   1.060   0.260 -0.3365  0.5965 -1.0822
  775TIP3   OH223883   4.451   4.729   7.809 -0.0255 -0.1205 -0.5817
  775TIP3    H123884   4.398   4.749   7.887 -1.8913  0.8008 -2.0155
  775TIP3    H223885   4.428   4.798   7.747  1.8257 -0.5357 -1.7978
  776TIP3   OH223886   4.827   1.193   0.160  0.4586  0.4022  0.3893
  776TIP3    H123887   4.758   1.213   0.223  0.2445  0.3658  0.1701
  776TIP3    H223888   4.836   1.098   0.163  1.0292  0.4665  0.9659
  777TIP3   OH223889   6.550   2.540   0.986 -0.4209 -0.3779  0.1573
  777TIP3    H123890   6.565   2.479   0.913  1.7351 -1.0037  1.0575
  777TIP3    H223891   6.460   2.522   1.014 -0.1332 -2.5567 -0.1568
  778TIP3   OH223892   4.896   1.318   7.048 -0.6880 -0.2203  0.3071
  778TIP3    H123893   4.823   1.323   6.987 -3.0049 -2.2606  2.6589
  778TIP3    H223894   4.959   1.259   7.005 -1.2800  0.0478 -0.9628
  779TIP3   OH223895   2.628   5.936   0.281 -0.3187 -0.4566  0.2616
  779TIP3    H123896   2.606   5.858   0.333  0.4950 -0.6423  0.3474
  779TIP3    H223897   2.694   5.981   0.333 -0.5989  0.1639  0.0900
  780TIP3   OH223898   6.242   4.993   6.471  0.2789  0.1367 -0.1636
  780TIP3    H123899   6.167   5.052   6.475 -0.3638 -0.5963 -0.8864
  780TIP3    H223900   6.203   4.906   6.460  1.1690 -0.5340  1.5378
  781TIP3   OH223901   0.858   5.656   1.366 -0.7289 -0.3242  0.3084
  781TIP3    H123902   0.807   5.736   1.378 -1.0929 -0.8714  2.8140
  781TIP3    H223903   0.900   5.668   1.280  1.6166  3.9253  1.7261
  782TIP3   OH223904   1.695   5.378   0.334 -0.0105 -0.6039  1.0760
  782TIP3    H123905   1.667   5.287   0.338 -1.6266 -0.1092  1.6767
  782TIP3    H223906   1.619   5.428   0.364  0.3653  1.0277 -0.5416
  783TIP3   OH223907   5.318   6.502   7.049 -0.5161 -0.0767 -0.3321
  783TIP3    H123908   5.248   6.562   7.024 -0.7788 -0.7015 -1.1838
  783TIP3    H223909   5.335   6.451   6.969 -0.0132 -0.8367  0.2382
  784TIP3   OH223910   3.234   5.248   8.359  0.4247 -0.1469 -0.4282
  784TIP3    H123911   3.287   5.294   8.295 -0.4652  0.8476 -0.4799
  784TIP3    H223912   3.184   5.184   8.308 -0.5067  0.8478 -0.8099
  785TIP3   OH223913   1.454   3.800   6.288 -0.5948  0.4018  0.0242
  785TIP3    H123914   1.427   3.775   6.376  1.7792 -0.4623  0.5853
  785TIP3    H223915   1.464   3.716   6.242  1.6767  0.5761  0.0914
  786TIP3   OH223916   4.223   1.306   7.117  1.0673  0.6594 -0.1337
  786TIP3    H123917   4.269   1.321   7.034  1.8267 -0.2987  0.0886
  786TIP3    H223918   4.140   1.352   7.107  0.0667 -1.3558 -2.4179
  787TIP3   OH223919   0.845   2.998   8.447 -0.6210 -0.2718  0.1914
  787TIP3    H123920   0.912   2.954   8.396 -0.5138 -0.2400  0.3043
  787TIP3    H223921   0.865   3.091   8.438  0.8121 -0.3166  2.1767
  788TIP3   OH223922   1.149   2.365   8.346  0.0798  0.0559 -0.1874
  788TIP3    H123923   1.208   2.345   8.274 -0.2297 -1.2008 -0.1307
  788TIP3    H223924   1.158   2.290   8.405 -0.6255  0.4452  0.4353
  789TIP3   OH223925   5.907   2.383   2.327 -0.2187  0.1102  0.1981
  789TIP3    H123926   5.932   2.292   2.313  0.8231  0.1445  1.6485
  789TIP3    H223927   5.978   2.434   2.288 -0.2211  0.2777  0.4075
  790TIP3   OH223928   3.781   0.139   8.469 -0.1486  0.0883 -0.2155
  790TIP3    H123929   3.746   0.052   8.450 -2.0023  0.5210  0.9048
  790TIP3    H223930   3.703   0.193   8.483  0.9859  1.5094  0.8950
  791TIP3   OH223931   3.284   6.143   1.323  0.4056 -0.6236 -0.1999
  791TIP3    H123932   3.298   6.074   1.258 -0.3436 -0.9896  0.0183
  791TIP3    H223933   3.194   6.171   1.309  0.7615  0.4656 -0.4153
  792TIP3   OH223934   2.015   5.137   1.555 -0.3404 -0.0419 -0.1363
  792TIP3    H123935   1.950   5.141   1.625  0.0217 -0.6331  0.2460
  792TIP3    H223936   1.963   5.130   1.475 -0.7556  0.0132  0.1253
  793TIP3   OH223937   1.181   2.071   1.364 -0.5443  0.1391 -0.6574
  793TIP3    H123938   1.099   2.031   1.335  0.4239 -2.0041 -0.6689
  793TIP3    H223939   1.210   2.123   1.289 -1.9647  1.0731 -0.5817
  794TIP3   OH223940   3.015   2.729   1.922  0.1903 -0.7646  0.2754
  794TIP3    H123941   3.096   2.745   1.971 -0.0556 -2.0701  1.1656
  794TIP3    H223942   3.025   2.641   1.886 -0.7337 -0.8631  0.2195
  795TIP3   OH223943   2.830   4.745   2.051 -0.5467  0.7804 -0.0749
  795TIP3    H123944   2.823   4.650   2.060 -2.1427  0.8131 -0.7615
  795TIP3    H223945   2.741   4.778   2.062  0.1577  2.3469  1.4931
  796TIP3   OH223946   0.518   1.396   0.990 -0.7058 -0.3634  0.4726
  796TIP3    H123947   0.589   1.347   1.030  0.0877 -0.9024 -1.4749
  796TIP3    H223948   0.525   1.377   0.896 -4.1274 -1.3746  0.2822
  797TIP3   OH223949   6.057   3.734   8.681  0.0368 -0.6425 -0.6699
  797TIP3    H123950   6.094   3.754   8.595  0.6604  0.9529 -0.0776
  797TIP3    H223951   6.134   3.719   8.737 -0.2921 -0.0430 -0.0422
  798TIP3   OH223952   4.548   1.819   1.226  0.1104 -0.0188 -0.1674
  798TIP3    H123953   4.528   1.823   1.319  3.0171  0.5740  0.5499
  798TIP3    H223954   4.504   1.740   1.195 -0.3146 -0.6494  1.8979
  799TIP3   OH223955   3.438   2.916   2.089  0.8000  0.0066 -0.2231
  799TIP3    H123956   3.369   2.978   2.114  0.9490  0.8150 -1.7277
  799TIP3    H223957   3.495   2.911   2.167  1.0607  2.1491 -0.2166
  800TIP3   OH223958   0.761   1.686   0.533 -0.2777  0.4188  0.3909
  800TIP3    H123959   0.695   1.642   0.479  0.6890  0.8690 -1.1987
  800TIP3    H223960   0.732   1.777   0.537 -2.3147 -0.1991  3.7359
  801TIP3   OH223961   4.678   5.371   1.598  0.1455 -0.2212 -0.7662
  801TIP3    H123962   4.765   5.382   1.560  0.2227 -1.9631 -1.1466
  801TIP3    H223963   4.622   5.430   1.547  0.9067  0.1608 -1.1783
  802TIP3   OH223964   1.971   5.862   0.480 -0.1116 -0.2600 -0.2238
  802TIP3    H123965   2.056   5.821   0.464 -1.7182 -3.1646 -2.2227
  802TIP3    H223966   1.912   5.789   0.497 -2.6591  1.4497 -1.2004
  803TIP3   OH223967   6.598   4.185   6.565 -0.0063  0.3898  0.1732
  803TIP3    H123968   6.584   4.095   6.537 -0.8957 -0.2374  2.4104
  803TIP3    H223969   6.657   4.178   6.640 -0.7783  1.5813  0.9267
  804TIP3   OH223970   1.490   0.706   6.547 -0.3388  0.4146  0.3683
  804TIP3    H123971   1.414   0.739   6.499 -0.4229 -0.1277  0.1113
  804TIP3    H223972   1.512   0.624   6.502  0.0564  0.2886  0.7851
  805TIP3   OH223973   4.564   3.858   1.084  0.1386  0.0703  0.2491
  805TIP3    H123974   4.625   3.873   1.011 -0.1723 -1.9811 -0.4939
  805TIP3    H223975   4.501   3.930   1.078  1.0017  0.7750 -0.5714
  806TIP3   OH223976   0.493   1.725   7.814  0.2079  0.1247  0.6747
  806TIP3    H123977   0.564   1.767   7.864  1.0390  2.5307 -2.1976
  806TIP3    H223978   0.422   1.789   7.815 -1.2424 -1.4191  1.8418
  807TIP3   OH223979   6.367   1.614   7.512  0.1462  0.1557  0.4390
  807TIP3    H123980   6.295   1.616   7.450 -0.1940 -1.0671  0.7711
  807TIP3    H223981   6.424   1.687   7.485 -0.2677 -0.0046 -0.9568
  808TIP3   OH223982   3.861   5.180   2.086  0.3451 -0.1973  0.3244
  808TIP3    H123983   3.947   5.199   2.049  0.3040 -0.7638 -0.0756
  808TIP3    H223984   3.869   5.206   2.178  0.0895  2.3482 -0.2798
  809TIP3   OH223985   3.261   2.349   0.107 -0.1067 -0.4608 -0.2244
  809TIP3    H123986   3.243   2.397   0.026 -0.7259 -0.1532  0.0889
  809TIP3    H223987   3.176   2.342   0.151  0.2769 -0.3317  0.5606
  810TIP3   OH223988   4.048   3.899   0.447  0.0422  0.0150 -1.0045
  810TIP3    H123989   3.963   3.941   0.460  0.1244 -0.3496  1.0700
  810TIP3    H223990   4.049   3.877   0.354 -1.5931  1.1472 -1.3465
  811TIP3   OH223991   3.413   5.848   7.094 -0.4982 -0.3666  0.6870
  811TIP3    H123992   3.430   5.815   7.006 -3.6529  0.2240 -0.2786
  811TIP3    H223993   3.500   5.861   7.132  0.9573 -1.6548 -1.9231
  812TIP3   OH223994   1.123   3.956   8.139  0.5969 -0.2237  0.4060
  812TIP3    H123995   1.180   3.882   8.156  1.1763  0.5057  1.7581
  812TIP3    H223996   1.148   3.986   8.052  0.9696 -1.0465  0.2176
  813TIP3   OH223997   4.506   6.527   0.350 -0.1296  0.2983 -0.1371
  813TIP3    H123998   4.421   6.563   0.376 -0.8079  0.2769 -2.1565
  813TIP3    H223999   4.559   6.605   0.331 -0.0861  0.2989 -0.0109
  814TIP3   OH224000   2.364   0.852   8.634  0.2908 -0.4702  0.2520
  814TIP3    H124001   2.308   0.927   8.614  0.4832 -0.5289 -0.5143
  814TIP3    H224002   2.341   0.787   8.569  0.2615 -1.0154  0.8000
  815TIP3   OH224003   0.665   4.833   8.577 -0.7831  0.8016 -0.3055
  815TIP3    H124004   0.649   4.739   8.564  1.7364  0.0156  1.3596
  815TIP3    H224005   0.620   4.854   8.659  1.3694  0.0882  1.1628
  816TIP3   OH224006   3.121   2.810   8.514  0.0393  0.0718 -0.4530
  816TIP3    H124007   3.165   2.894   8.527 -0.3055  0.2319 -0.2945
  816TIP3    H224008   3.028   2.833   8.505  0.0637 -0.1862 -1.5522
  817TIP3   OH224009   1.906   0.426   2.321  0.5608 -0.0148  0.4023
  817TIP3    H124010   1.859   0.457   2.243 -2.1182 -0.6743  1.6315
  817TIP3    H224011   1.843   0.370   2.366  1.0074  2.3166  4.3985
  818TIP3   OH224012   4.509   1.348   7.369 -0.3739 -0.0641 -0.2670
  818TIP3    H124013   4.481   1.261   7.340  0.1781 -0.4836  0.4328
  818TIP3    H224014   4.483   1.351   7.461 -1.4910  0.9899 -0.5889
  819TIP3   OH224015   3.781   6.143   7.675  0.2392  0.3347  0.0807
  819TIP3    H124016   3.707   6.110   7.726 -0.9104  0.9875 -1.0779
  819TIP3    H224017   3.762   6.236   7.663 -0.3463 -0.0297 -2.6977
  820TIP3   OH224018   4.904   6.723   1.736  0.2770 -0.1360  0.3932
  820TIP3    H124019   4.990   6.750   1.702  0.3038 -0.5720  0.1077
  820TIP3    H224020   4.850   6.803   1.730  0.5199  0.0077  0.1007
  821TIP3   OH224021   2.836   6.785   7.579  0.2057 -0.8506  0.6758
  821TIP3    H124022   2.905   6.744   7.527  1.1922 -0.1558  1.3870
  821TIP3    H224023   2.881   6.855   7.627 -1.1514  0.0944  0.6033
  822TIP3   OH224024   0.611   4.366   7.965 -0.0195 -0.2113 -0.1182
  822TIP3    H124025   0.540   4.342   7.906  0.9393  2.1852 -2.4572
  822TIP3    H224026   0.670   4.290   7.964 -1.9072 -1.7961  1.0257
  823TIP3   OH224027   2.072   4.504   7.288 -0.2937  0.6760 -0.2235
  823TIP3    H124028   1.988   4.469   7.318  0.2489 -1.5422 -1.1226
  823TIP3    H224029   2.130   4.493   7.362 -0.5331  1.2797  0.0611
  824TIP3   OH224030   6.175   3.125   7.427 -0.4994  0.2451  0.0516
  824TIP3    H124031   6.123   3.089   7.355  0.9330 -1.6815 -0.1043
  824TIP3    H224032   6.137   3.086   7.505 -0.0256 -0.2891  0.0269
  825TIP3   OH224033   4.304   5.305   2.197 -0.0168  0.1570  0.3212
  825TIP3    H124034   4.359   5.226   2.200 -0.9915 -0.6868 -1.9927
  825TIP3    H224035   4.246   5.291   2.123 -2.0543  1.9092  1.4829
  826TIP3   OH224036   2.933   6.700   0.849  0.0086  0.0851  0.3299
  826TIP3    H124037   2.988   6.650   0.910  0.7541  0.9463  0.3756
  826TIP3    H224038   2.848   6.656   0.853  0.5081 -0.8898  0.7330
  827TIP3   OH224039   3.896   2.377   0.703  0.0525  0.2034  0.1851
  827TIP3    H124040   3.810   2.399   0.666 -0.6610 -1.3516  0.8292
  827TIP3    H224041   3.957   2.390   0.630 -0.3891  3.1529  0.1989
  828TIP3   OH224042   4.717   4.839   0.463  0.6246 -0.3468 -0.0313
  828TIP3    H124043   4.756   4.924   0.483  2.6478 -1.0344 -0.7819
  828TIP3    H224044   4.664   4.818   0.540 -0.2177  1.7255  0.0187
  829TIP3   OH224045   0.978   2.183   0.453  0.1416 -0.5152 -0.5164
  829TIP3    H124046   0.900   2.140   0.418 -0.2313 -0.2926  0.0294
  829TIP3    H224047   1.039   2.187   0.379 -0.0007 -1.5472 -0.6981
  830TIP3   OH224048   2.351   5.129   7.588  0.2385  0.2782 -0.2738
  830TIP3    H124049   2.446   5.117   7.581  0.2013 -0.2757  0.1087
  830TIP3    H224050   2.316   5.041   7.597 -0.4015  0.4072 -1.3052
  831TIP3   OH224051   3.507   2.331   1.729  0.8682  0.3016 -0.2692
  831TIP3    H124052   3.549   2.250   1.758  0.0343  0.2041  0.7299
  831TIP3    H224053   3.504   2.324   1.633  0.6935 -0.9024 -0.1874
  832TIP3   OH224054   6.513   4.895   7.604 -0.6445 -0.0570 -0.0740
  832TIP3    H124055   6.532   4.864   7.515 -0.9590 -1.8998  0.4498
  832TIP3    H224056   6.598   4.901   7.647 -0.6477 -2.0165  0.3272
  833TIP3   OH224057   1.194   4.705   7.962  0.0243  0.1506  0.1698
  833TIP3    H124058   1.107   4.744   7.959  0.0708  0.3157  0.7101
  833TIP3    H224059   1.179   4.616   7.993  0.0479  0.1878  0.2892
  834TIP3   OH224060   2.317   2.288   7.416  0.0077 -0.0472  0.3418
  834TIP3    H124061   2.287   2.365   7.366 -0.7102 -1.1736 -1.0378
  834TIP3    H224062   2.241   2.230   7.417  1.0861 -1.5166 -0.2459
  835TIP3   OH224063   6.765   6.787   8.637  0.0960 -0.5134 -0.2850
  835TIP3    H124064   6.815   6.765   8.559  2.3314  0.4438  0.7897
  835TIP3    H224065   6.764   6.705   8.688  1.2219 -0.3818 -0.0165
  836TIP3   OH224066   5.950   5.266   8.314 -0.2113 -0.3934  0.5269
  836TIP3    H124067   5.981   5.308   8.395  1.3820 -1.9006  0.7484
  836TIP3    H224068   6.009   5.192   8.301 -0.3119 -0.0942 -2.1424
  837TIP3   OH224069   6.594   1.254   7.193 -0.0566 -0.2950  0.0860
  837TIP3    H124070   6.553   1.338   7.215 -1.1624 -1.4241  2.7476
  837TIP3    H224071   6.641   1.228   7.272  3.5890 -0.4625 -1.9217
  838TIP3   OH224072   1.803   3.458   7.599  0.6740  0.8811 -0.3671
  838TIP3    H124073   1.751   3.379   7.583  0.0954  0.9845  0.8876
  838TIP3    H224074   1.875   3.428   7.655  0.1577  1.3275  0.5523
  839TIP3   OH224075   6.113   4.387   0.123  0.3800 -0.4561  0.5066
  839TIP3    H124076   6.206   4.391   0.099  0.0138  1.2200 -0.8355
  839TIP3    H224077   6.079   4.314   0.071  0.5224  0.3643 -0.8114
  840TIP3   OH224078   6.763   1.131   2.366  0.4107 -0.1421  0.1149
  840TIP3    H124079   6.750   1.137   2.271  2.1560 -0.3021 -0.1638
  840TIP3    H224080   6.783   1.038   2.381 -2.4424 -0.7049  1.0480
  841TIP3   OH224081   6.506   1.265   1.653 -0.1413 -0.1444 -0.3731
  841TIP3    H124082   6.576   1.227   1.601 -1.2618  0.4988 -2.4722
  841TIP3    H224083   6.426   1.225   1.619 -0.8027 -1.9327  2.9158
  842TIP3   OH224084   3.456   3.571   0.480  0.0885  0.5645  0.6230
  842TIP3    H124085   3.365   3.571   0.510  0.0027 -2.3721  0.6551
  842TIP3    H224086   3.452   3.542   0.389  1.0329 -0.8382  0.9936
  843TIP3   OH224087   3.468   5.530   1.289 -0.5127  0.8149 -0.4314
  843TIP3    H124088   3.558   5.503   1.276 -0.7333 -0.6716  0.7907
  843TIP3    H224089   3.470   5.587   1.366 -0.6392  0.6090 -0.2737
  844TIP3   OH224090   3.919   6.137   8.716 -0.2235  0.2814 -0.0015
  844TIP3    H124091   3.897   6.181   8.798  0.8422 -0.7454  0.8887
  844TIP3    H224092   3.842   6.148   8.661  0.1482  3.6345 -0.0542
  845TIP3   OH224093   1.800   6.602   0.389  0.0366  0.6486 -0.3439
  845TIP3    H124094   1.743   6.645   0.325  0.5471  1.3806 -0.3229
  845TIP3    H224095   1.745   6.591   0.466 -0.8975 -1.1437 -1.1878
  846TIP3   OH224096   1.452   6.118   8.279 -0.3688 -0.1270 -0.3941
  846TIP3    H124097   1.420   6.188   8.221  0.7944 -0.4766 -1.5099
  846TIP3    H224098   1.451   6.157   8.366  0.3351  1.3374 -1.0058
  847TIP3   OH224099   5.056   4.625   8.039  0.1298  0.3683 -0.3581
  847TIP3    H124100   5.046   4.719   8.050 -1.6246  0.1400  0.3130
  847TIP3    H224101   4.996   4.602   7.968 -0.7368 -0.4552  0.6064
  848TIP3   OH224102   6.285   1.942   7.006  0.2115  0.4637 -0.2806
  848TIP3    H124103   6.355   1.894   6.963  1.0904  0.9783  0.5443
  848TIP3    H224104   6.239   1.987   6.935  1.4168  1.0310 -0.7169
  849TIP3   OH224105   3.881   1.261   0.283  1.0298 -0.0580  0.0272
  849TIP3    H124106   3.920   1.327   0.341  0.0035  0.2265  0.4250
  849TIP3    H224107   3.787   1.280   0.286  0.9131 -0.3525 -1.3683
  850TIP3   OH224108   2.490   1.551   0.513  0.2346 -0.6172 -0.1673
  850TIP3    H124109   2.569   1.503   0.486  0.7337 -0.2224  0.5523
  850TIP3    H224110   2.418   1.503   0.473  0.9165 -0.0645 -2.2035
  851TIP3   OH224111   6.196   2.905   2.366  0.1426  0.1721  0.3413
  851TIP3    H124112   6.235   2.841   2.426 -1.4305 -1.2632 -0.0767
  851TIP3    H224113   6.185   2.984   2.418  2.2735  0.2056  0.8460
  852TIP3   OH224114   0.828   1.852   7.714  0.5476 -0.0929 -0.0210
  852TIP3    H124115   0.824   1.816   7.625  1.5034 -1.1074  0.3294
  852TIP3    H224116   0.907   1.814   7.752  0.0024  0.0946  1.3685
  853TIP3   OH224117   4.842   0.207   1.944 -0.7170 -0.3698  0.6373
  853TIP3    H124118   4.833   0.298   1.972 -3.0454  0.2247 -1.6811
  853TIP3    H224119   4.901   0.211   1.869  0.7542 -1.1257  1.6961
  854TIP3   OH224120   6.354   6.074   0.391 -0.6176  0.6711 -0.2382
  854TIP3    H124121   6.416   6.017   0.346 -0.1912 -1.1842  2.4449
  854TIP3    H224122   6.408   6.146   0.424  0.4711 -1.2859  2.6872
  855TIP3   OH224123   0.671   4.358   1.813  0.0027  0.3959  0.3026
  855TIP3    H124124   0.636   4.417   1.880  0.7242  0.5209  0.5792
  855TIP3    H224125   0.753   4.326   1.851  0.5225  0.6316 -0.6083
  856TIP3   OH224126   6.678   1.715   7.544  0.2882  0.2237 -0.2408
  856TIP3    H124127   6.707   1.686   7.631  0.5800  0.9302 -0.0992
  856TIP3    H224128   6.707   1.806   7.538 -1.2575  0.7356 -0.3853
  857TIP3   OH224129   3.455   1.725   2.229  0.3214 -0.0399  0.2625
  857TIP3    H124130   3.550   1.728   2.222  0.3018  1.2456  0.3484
  857TIP3    H224131   3.435   1.774   2.309 -0.5208  1.6618 -0.9311
  858TIP3   OH224132   1.816   4.362   6.942 -0.0467  0.0207 -0.6138
  858TIP3    H124133   1.778   4.447   6.966  0.1861 -0.2067  0.6200
  858TIP3    H224134   1.843   4.373   6.851 -0.6413  1.0495 -0.6819
  859TIP3   OH224135   1.030   6.582   2.379  0.2564 -0.8350  0.1606
  859TIP3    H124136   0.985   6.563   2.461 -1.6219 -0.0935 -0.6468
  859TIP3    H224137   1.034   6.678   2.375 -0.9788 -0.7980 -1.2364
  860TIP3   OH224138   4.292   3.132   1.880  0.1952  0.0654  0.3145
  860TIP3    H124139   4.294   3.155   1.973 -1.4561  0.0706  0.3686
  860TIP3    H224140   4.347   3.199   1.838 -2.0969  2.4473  0.8375
  861TIP3   OH224141   3.609   4.985   8.523  0.3430 -0.3214 -0.1484
  861TIP3    H124142   3.651   5.047   8.463 -0.1770 -0.0608 -0.2583
  861TIP3    H224143   3.517   4.985   8.495  0.6449 -2.5219 -1.3561
  862TIP3   OH224144   1.367   1.415   7.681  0.3698  0.3267  0.4353
  862TIP3    H124145   1.366   1.325   7.715  1.0208 -0.1164 -0.6888
  862TIP3    H224146   1.323   1.466   7.749  0.2078 -0.7983  1.2053
  863TIP3   OH224147   0.898   5.332   1.000  0.1045 -0.1982  0.4146
  863TIP3    H124148   0.933   5.302   1.084  0.3716  1.1975  0.8150
  863TIP3    H224149   0.820   5.382   1.023 -0.2648 -0.4613 -0.2362
  864TIP3   OH224150   6.650   5.076   1.824  0.3445  0.2261  0.6164
  864TIP3    H124151   6.716   5.045   1.762 -0.1759  1.6883 -0.7460
  864TIP3    H224152   6.696   5.139   1.879  0.1569  1.1286 -0.2320
  865TIP3   OH224153   6.421   0.726   0.087 -0.0663  0.2925  0.4041
  865TIP3    H124154   6.329   0.700   0.073 -0.3121  0.6406  1.3319
  865TIP3    H224155   6.434   0.719   0.181  0.8777  0.2402  0.2808
  866TIP3   OH224156   6.092   1.831   6.513 -0.2071 -0.2406 -0.7093
  866TIP3    H124157   6.091   1.756   6.454 -0.5837  0.5754 -1.7583
  866TIP3    H224158   6.126   1.903   6.461  2.5135 -0.1690  0.9577
  867TIP3   OH224159   0.396   4.463   1.771  0.1690 -0.4111  0.2746
  867TIP3    H124160   0.382   4.396   1.705  1.2087 -0.1439 -0.2497
  867TIP3    H224161   0.430   4.416   1.847 -1.5112 -0.7856  0.8224
  868TIP3   OH224162   3.785   6.442   0.004 -0.1345  0.1307 -0.1313
  868TIP3    H124163   3.743   6.389  -0.064 -1.1201  1.3653 -0.5323
  868TIP3    H224164   3.836   6.507  -0.045  0.1350  0.2670  0.3231
  869TIP3   OH224165   4.538   5.751   7.219 -0.2840 -0.0473 -0.0394
  869TIP3    H124166   4.537   5.806   7.141  0.1358  1.3617  0.9189
  869TIP3    H224167   4.489   5.672   7.193 -1.4205  1.0115 -1.2648
  870TIP3   OH224168   1.090   3.232   1.747 -0.0431 -0.4414  0.1914
  870TIP3    H124169   1.026   3.300   1.770  0.8027 -0.1939  1.9848
  870TIP3    H224170   1.173   3.278   1.741 -0.0763 -0.5528 -3.2594
  871TIP3   OH224171   1.110   4.839   6.737 -0.3442 -0.2557  0.5135
  871TIP3    H124172   1.165   4.767   6.705  0.3896  0.4630  0.1186
  871TIP3    H224173   1.076   4.808   6.821 -0.2276 -1.1480  0.2458
  872TIP3   OH224174   1.390   5.455   1.588  0.6292  0.1090 -0.2078
  872TIP3    H124175   1.297   5.476   1.577  0.7375  2.2624  2.1196
  872TIP3    H224176   1.431   5.484   1.506 -0.6479 -0.6054 -1.1474
  873TIP3   OH224177   1.624   0.471   7.756 -0.2726 -0.0962  0.1209
  873TIP3    H124178   1.533   0.500   7.761 -0.4973 -0.6553 -0.5747
  873TIP3    H224179   1.619   0.382   7.720  0.5412 -0.1410  0.1003
  874TIP3   OH224180   4.784   5.351   8.047  0.0200 -0.4012  0.1091
  874TIP3    H124181   4.735   5.293   7.988  0.3241 -0.3429 -0.1988
  874TIP3    H224182   4.761   5.320   8.135  0.1793 -0.9915 -0.0533
  875TIP3   OH224183   5.393   2.478   7.138  0.6815  0.8368  0.5841
  875TIP3    H124184   5.429   2.394   7.167 -1.1803 -0.2606 -0.1388
  875TIP3    H224185   5.400   2.534   7.216 -0.4862 -0.8203  1.9790
  876TIP3   OH224186   2.992   2.855   1.638 -0.2379 -0.1209 -0.0036
  876TIP3    H124187   2.985   2.816   1.725  1.2884  0.0944  0.2423
  876TIP3    H224188   2.984   2.781   1.577 -0.6774 -0.3539  0.3326
  877TIP3   OH224189   4.572   0.474   1.316  0.1837  0.4305  0.0958
  877TIP3    H124190   4.511   0.437   1.252  0.5857 -0.3795  0.1818
  877TIP3    H224191   4.519   0.538   1.364 -0.3186  0.5070 -0.5392
  878TIP3   OH224192   5.316   0.430   2.542 -0.4719  0.2374 -0.2737
  878TIP3    H124193   5.284   0.512   2.578  1.4597  0.8618  0.1133
  878TIP3    H224194   5.325   0.447   2.448  0.9733  0.8854 -0.0512
  879TIP3   OH224195   0.106   5.102   1.909 -0.1948 -0.1924  0.2142
  879TIP3    H124196   0.046   5.177   1.908 -1.2576 -0.9948  0.8735
  879TIP3    H224197   0.191   5.138   1.887 -0.8514  1.0651 -0.3195
  880TIP3   OH224198   5.766   5.371   0.418 -0.7605 -0.0504  0.7059
  880TIP3    H124199   5.736   5.461   0.401 -1.7984 -0.1913  1.6377
  880TIP3    H224200   5.720   5.318   0.353 -1.0424 -0.0345  0.8893
  881TIP3   OH224201   2.820   4.993   1.186 -0.2748  0.0927  0.0444
  881TIP3    H124202   2.747   5.054   1.173  0.0527  0.5784  0.4270
  881TIP3    H224203   2.796   4.943   1.264  0.5893  1.4847  1.2604
  882TIP3   OH224204   0.555   5.770   8.009  0.2134 -0.2890  0.3860
  882TIP3    H124205   0.646   5.785   8.037  1.0978 -2.9516 -0.7165
  882TIP3    H224206   0.527   5.693   8.057 -1.3383  0.2144  0.3476
  883TIP3   OH224207   2.188   0.269   1.309 -0.8512 -0.3885 -0.4672
  883TIP3    H124208   2.170   0.239   1.220  0.4475 -0.7576 -0.6294
  883TIP3    H224209   2.257   0.211   1.340  1.7367  2.3182 -0.7722
  884TIP3   OH224210   6.372   6.178   1.003  0.1109 -0.1142  0.2798
  884TIP3    H124211   6.431   6.200   1.075 -2.0547  1.6013  1.6368
  884TIP3    H224212   6.407   6.227   0.928  2.6815 -2.3086 -0.1100
  885TIP3   OH224213   5.494   2.572   1.134  0.1866 -0.1603  0.0671
  885TIP3    H124214   5.538   2.528   1.061  0.0266 -0.7592  0.3237
  885TIP3    H224215   5.554   2.564   1.207 -0.2116 -0.7265  0.3427
  886TIP3   OH224216   5.905   0.434   0.786 -0.1454 -0.0138 -0.2629
  886TIP3    H124217   5.878   0.467   0.701  0.6134 -0.4445 -0.6850
  886TIP3    H224218   5.858   0.488   0.849  1.4617  2.2987 -0.9143
  887TIP3   OH224219   4.481   1.821   0.640 -0.0708  0.0434  0.2433
  887TIP3    H124220   4.459   1.836   0.732 -1.3812 -2.0708  0.3266
  887TIP3    H224221   4.399   1.795   0.599  0.9459 -1.3062 -1.0104
  888TIP3   OH224222   6.549   6.361   7.072 -0.3029 -0.5526 -0.4591
  888TIP3    H124223   6.472   6.356   7.015 -0.1251  1.1248 -0.8969
  888TIP3    H224224   6.543   6.447   7.114 -0.6525 -1.8600  2.4446
  889TIP3   OH224225   6.782   6.425   1.503 -0.0621  0.0400 -0.3322
  889TIP3    H124226   6.729   6.364   1.554  0.4689 -1.2937 -1.3214
  889TIP3    H224227   6.818   6.486   1.568  2.4588 -2.9234  1.3090
  890TIP3   OH224228   4.499   4.933   0.698  0.5709  0.8187 -0.4886
  890TIP3    H124229   4.478   5.002   0.635 -1.9675  1.3493  0.8156
  890TIP3    H224230   4.416   4.887   0.712  1.3242 -0.0174  1.5949
  891TIP3   OH224231   4.627   4.268   1.664 -0.6668  0.3941 -0.1268
  891TIP3    H124232   4.690   4.339   1.675  0.0750 -0.5380  2.3082
  891TIP3    H224233   4.680   4.192   1.638 -1.0743  0.1220 -0.1761
  892TIP3   OH224234   4.872   5.368   8.607 -0.1944  0.8816 -0.1482
  892TIP3    H124235   4.808   5.297   8.616  0.1243  0.7691  1.5562
  892TIP3    H224236   4.891   5.371   8.513  0.4304 -1.8727 -0.2107
  893TIP3   OH224237   3.703   4.521   7.048  0.4302  0.1820  1.1193
  893TIP3    H124238   3.631   4.562   7.000 -1.0732 -1.2385  2.0472
  893TIP3    H224239   3.775   4.583   7.041 -0.3570  0.9476 -1.2175
  894TIP3   OH224240   2.195   6.494   8.615  0.0191  0.2768 -0.5705
  894TIP3    H124241   2.191   6.566   8.679 -1.2865 -1.1970  1.1129
  894TIP3    H224242   2.277   6.450   8.633 -0.7936 -0.7383  0.8714
  895TIP3   OH224243   0.208   1.593   0.859  0.8219  0.5289  0.0965
  895TIP3    H124244   0.301   1.577   0.843  0.4191 -2.4557  0.0784
  895TIP3    H224245   0.163   1.544   0.790 -0.7853  0.8815  0.8359
  896TIP3   OH224246   4.220   4.710   7.594  0.1320  0.5053  0.3093
  896TIP3    H124247   4.194   4.793   7.634  0.8129  0.1469  1.5480
  896TIP3    H224248   4.161   4.701   7.519 -0.3255  1.8335  0.4683
  897TIP3   OH224249   3.137   2.187   1.991  0.0759  0.1554  0.5258
  897TIP3    H124250   3.148   2.267   2.043 -3.1100  2.4522 -1.9372
  897TIP3    H224251   3.189   2.202   1.912 -0.8920  0.0428 -0.1494
  898TIP3   OH224252   6.144   6.466   1.274 -0.2847  0.1439  0.0200
  898TIP3    H124253   6.225   6.415   1.278  0.2701  0.7936 -1.8306
  898TIP3    H224254   6.098   6.432   1.197 -2.2990 -0.8887  1.5849
  899TIP3   OH224255   4.228   0.464   1.577  0.1793 -0.0173  0.1230
  899TIP3    H124256   4.145   0.416   1.572 -0.6449  1.2231  1.3074
  899TIP3    H224257   4.264   0.440   1.663  0.5436  0.2478  0.0481
  900TIP3   OH224258   0.299   3.503   8.716 -0.1690 -0.8935 -0.1375
  900TIP3    H124259   0.281   3.596   8.730 -1.5109 -1.0854 -0.4487
  900TIP3    H224260   0.215   3.460   8.733  0.0979 -1.9114 -1.2725
  901TIP3   OH224261   4.097   5.889   0.893 -0.0227  0.2190  0.2554
  901TIP3    H124262   4.118   5.934   0.974  0.5678 -0.0185  0.2449
  901TIP3    H224263   4.014   5.926   0.865  1.2862  2.6673 -0.7296
  902TIP3   OH224264   0.788   2.983   6.590  0.0164 -0.4248  0.3373
  902TIP3    H124265   0.745   3.058   6.631  0.0805  0.0596 -0.4751
  902TIP3    H224266   0.882   3.002   6.596  0.0038 -0.0757 -0.5594
  903TIP3   OH224267   2.341   1.045   1.277  0.3622 -0.6382 -0.5099
  903TIP3    H124268   2.390   1.023   1.198 -1.2267 -2.0124 -1.1420
  903TIP3    H224269   2.370   0.981   1.342  2.1595  0.8902  0.2982
  904TIP3   OH224270   3.144   3.560   0.871 -0.7830  0.2813  0.0628
  904TIP3    H124271   3.086   3.534   0.943 -2.3623  3.8239  0.2566
  904TIP3    H224272   3.176   3.647   0.895  1.6202  0.0573 -1.8708
  905TIP3   OH224273   1.045   0.960   7.714 -0.3919  0.6195 -0.2584
  905TIP3    H124274   1.019   0.905   7.788  0.7056  0.6789  0.1901
  905TIP3    H224275   1.058   0.899   7.642  0.9100  0.2489  0.2609
  906TIP3   OH224276   4.322   6.824   1.505 -0.4996  0.2462 -0.2266
  906TIP3    H124277   4.331   6.918   1.520 -0.3328 -0.0191  1.4650
  906TIP3    H224278   4.248   6.797   1.559 -0.4739 -0.6237 -0.6020
  907TIP3   OH224279   2.001   2.805   1.682  0.2445  0.2130 -0.0504
  907TIP3    H124280   2.093   2.826   1.666  0.7684  1.6637  3.8079
  907TIP3    H224281   2.003   2.727   1.738 -0.9313 -0.2245 -0.5899
  908TIP3   OH224282   0.213   1.728   7.258 -0.0824 -1.1468  0.3175
  908TIP3    H124283   0.162   1.659   7.301  0.4188 -1.8633 -0.1980
  908TIP3    H224284   0.268   1.681   7.195  0.7892 -0.3400  0.4557
  909TIP3   OH224285   0.984   5.611   6.662 -0.3706 -0.6639 -0.0451
  909TIP3    H124286   1.025   5.623   6.576 -0.4846  0.7518  0.0858
  909TIP3    H224287   0.919   5.681   6.669  0.3126 -0.1382  1.5917
  910TIP3   OH224288   6.851   5.260   1.269  0.3999  0.3470  0.4095
  910TIP3    H124289   6.801   5.186   1.233 -0.2543  1.4007 -0.9176
  910TIP3    H224290   6.937   5.252   1.230  0.3468  0.2602  0.3095
  911TIP3   OH224291   4.510   3.557   8.113 -0.2248  0.0405  0.4632
  911TIP3    H124292   4.538   3.532   8.201  1.4342  0.2981  0.0582
  911TIP3    H224293   4.590   3.592   8.072 -1.5513  2.3886 -0.2765
  912TIP3   OH224294   6.420   2.589   0.671 -0.2404  0.0154  0.7673
  912TIP3    H124295   6.463   2.508   0.646 -0.5560 -0.2621  1.0979
  912TIP3    H224296   6.490   2.654   0.675 -0.2971  0.3107 -1.7132
  913TIP3   OH224297   1.943   0.874   7.584 -0.1969 -0.0497  0.0940
  913TIP3    H124298   2.023   0.926   7.593 -1.0697  1.2267  0.8212
  913TIP3    H224299   1.934   0.830   7.669 -2.1320  2.6989  1.5063
  914TIP3   OH224300   4.877   2.585   0.579  0.6038  0.8385 -0.4325
  914TIP3    H124301   4.902   2.647   0.510 -2.0976  2.5890  0.0258
  914TIP3    H224302   4.917   2.621   0.658  2.1456 -0.1428 -0.7255
  915TIP3   OH224303   5.242   4.756   7.534 -0.0463 -0.4433 -0.3335
  915TIP3    H124304   5.178   4.785   7.599  0.6757 -0.0856  0.2302
  915TIP3    H224305   5.268   4.668   7.561 -0.9215 -0.9340 -1.0449
  916TIP3   OH224306   6.169   0.321   7.889  0.1210  0.4904 -0.1077
  916TIP3    H124307   6.179   0.370   7.808  1.4223 -0.7966 -0.7566
  916TIP3    H224308   6.170   0.229   7.863 -0.5310  0.0571  1.2588
  917TIP3   OH224309   5.947   2.872   8.032 -0.3797  0.2559  0.0146
  917TIP3    H124310   5.895   2.942   7.993 -0.3189  0.5459  0.4361
  917TIP3    H224311   6.004   2.918   8.094 -0.9398 -0.2515  0.9270
  918TIP3   OH224312   2.592   0.160   8.269 -0.4712  0.1657 -0.0061
  918TIP3    H124313   2.626   0.081   8.226  1.9227  1.5697 -0.9276
  918TIP3    H224314   2.539   0.127   8.341 -0.4102 -2.2717 -0.9653
  919TIP3   OH224315   2.093   6.388   6.900  0.3680 -0.3863 -0.3776
  919TIP3    H124316   2.042   6.331   6.843  0.0013  0.3448 -0.8033
  919TIP3    H224317   2.053   6.475   6.889  2.5578  0.5297 -1.7944
  920TIP3   OH224318   6.076   1.636   6.308  0.0976  0.7023 -0.0155
  920TIP3    H124319   6.114   1.551   6.289  0.2510  0.8779 -0.5030
  920TIP3    H224320   5.982   1.620   6.317 -0.0370  0.6752 -1.3232
  921TIP3   OH224321   0.249   4.096   7.009  0.4475 -0.3954 -0.1550
  921TIP3    H124322   0.198   4.031   7.058  1.1345 -0.3959  0.5735
  921TIP3    H224323   0.270   4.164   7.073  0.4036  0.1709 -0.7252
  922TIP3   OH224324   0.416   1.683   1.642 -0.0028  0.9048 -0.0926
  922TIP3    H124325   0.498   1.680   1.693 -0.4020  1.3988  0.5847
  922TIP3    H224326   0.445   1.697   1.552  0.7661 -0.8456 -0.1559
  923TIP3   OH224327   2.905   4.860   0.575 -0.2370  0.7240 -0.2500
  923TIP3    H124328   2.976   4.798   0.591  1.7111  2.3736 -2.0689
  923TIP3    H224329   2.848   4.814   0.513  0.4804  0.2392 -0.5673
  924TIP3   OH224330   1.548   0.965   6.917 -0.0089  0.4309 -0.3173
  924TIP3    H124331   1.569   0.964   6.824 -0.0709  0.7296 -0.3333
  924TIP3    H224332   1.453   0.959   6.921  0.0822 -1.7296 -0.2299
  925TIP3   OH224333   5.758   1.597   1.249 -0.3023  0.3353  0.2008
  925TIP3    H124334   5.759   1.643   1.333 -0.5922 -0.0718  0.4333
  925TIP3    H224335   5.667   1.603   1.220 -0.4455 -0.5061  0.4672
  926TIP3   OH224336   5.982   6.154   7.286 -0.2419  0.1630  0.6565
  926TIP3    H124337   6.028   6.070   7.292 -0.4785 -0.0004  0.2323
  926TIP3    H224338   5.917   6.141   7.217  1.4279  1.4985 -1.3191
  927TIP3   OH224339   6.445   1.125   0.004  0.3751 -0.5534  0.0213
  927TIP3    H124340   6.506   1.191  -0.027 -0.4145 -1.0519 -2.8551
  927TIP3    H224341   6.449   1.132   0.100  0.4555  3.4945 -0.1031
  928TIP3   OH224342   4.157   5.957   1.157  0.4892  0.3236  0.0455
  928TIP3    H124343   4.094   6.029   1.163  0.1902 -0.0430  1.7088
  928TIP3    H224344   4.146   5.909   1.239  2.2930 -0.3014 -0.0499
  929TIP3   OH224345   4.242   5.093   0.600 -0.0804 -0.6059  0.0253
  929TIP3    H124346   4.268   5.047   0.521 -0.7933 -0.1333 -0.5059
  929TIP3    H224347   4.201   5.174   0.567 -1.1526 -0.7968  0.8333
  930TIP3   OH224348   5.767   4.510   1.008 -0.4898 -0.1560 -0.4511
  930TIP3    H124349   5.722   4.580   0.960  0.0584  0.8135  0.4199
  930TIP3    H224350   5.760   4.536   1.100  1.6445 -0.0914 -0.2711
  931TIP3   OH224351   1.582   2.625   0.847  0.4430  0.5609  0.0318
  931TIP3    H124352   1.590   2.718   0.825 -0.5604  0.8643  0.8896
  931TIP3    H224353   1.499   2.618   0.892  0.0007 -0.9562 -0.9418
  932TIP3   OH224354   2.602   3.761   7.704  0.0085  0.2679 -0.4060
  932TIP3    H124355   2.515   3.785   7.736  0.8729  0.8191  1.6705
  932TIP3    H224356   2.625   3.830   7.643  0.0963  1.6478  1.1368
  933TIP3   OH224357   1.461   5.981   0.943  0.2098 -0.7730 -0.0910
  933TIP3    H124358   1.414   6.019   0.869 -0.2940 -0.4191  0.4075
  933TIP3    H224359   1.394   5.933   0.993  0.3487 -0.1841  0.6752
  934TIP3   OH224360   4.728   5.315   0.240  0.2537 -0.3291 -0.1985
  934TIP3    H124361   4.818   5.302   0.271  0.5043 -0.1392 -0.8430
  934TIP3    H224362   4.731   5.393   0.185 -0.9016  1.5224  2.1696
  935TIP3   OH224363   3.199   2.480   0.876 -0.5015  0.3333  0.2049
  935TIP3    H124364   3.193   2.386   0.859  1.6809  0.3155 -0.8164
  935TIP3    H224365   3.262   2.487   0.949 -0.4581  1.0011  0.1145
  936TIP3   OH224366   5.083   5.357   0.893 -0.3883 -0.4197 -0.3550
  936TIP3    H124367   5.082   5.433   0.835 -0.5310 -0.4004 -0.3272
  936TIP3    H224368   4.993   5.349   0.923 -0.4079 -0.6998 -0.4871
  937TIP3   OH224369   5.198   0.164   8.713  0.2252 -0.1611 -1.0338
  937TIP3    H124370   5.121   0.219   8.700 -0.2820 -0.1710  1.4115
  937TIP3    H224371   5.163   0.075   8.715  0.4816 -0.2632 -1.1280
  938TIP3   OH224372   2.703   0.448   8.285 -0.5285 -0.3391  0.0290
  938TIP3    H124373   2.669   0.488   8.365 -0.1540  0.8251 -0.3814
  938TIP3    H224374   2.650   0.369   8.274 -0.8072 -0.3509  1.2443
  939TIP3   OH224375   0.498   2.875   2.717 -0.0109 -0.3036  0.5707
  939TIP3    H124376   0.546   2.906   2.640 -0.1412 -2.4503 -0.4297
  939TIP3    H224377   0.412   2.916   2.710 -0.2605 -1.0193 -0.8280
  940TIP3   OH224378   5.203   6.362   0.939 -0.0073 -0.5670 -0.0395
  940TIP3    H124379   5.131   6.302   0.919 -0.1470 -0.7325  0.8942
  940TIP3    H224380   5.176   6.445   0.901 -0.0786 -0.9482 -0.8441
  941TIP3   OH224381   4.568   1.465   8.272 -0.1838 -0.4894  0.2093
  941TIP3    H124382   4.555   1.506   8.358  0.1511 -0.8402  0.4285
  941TIP3    H224383   4.617   1.386   8.290 -0.2452 -0.6469 -0.2938
  942TIP3   OH224384   3.746   5.103   8.080 -0.7928 -0.0905  0.5875
  942TIP3    H124385   3.724   5.043   8.009  0.0648 -0.7965  0.8932
  942TIP3    H224386   3.806   5.166   8.041 -0.2767 -0.5121  0.6892
  943TIP3   OH224387   3.034   5.621   1.890 -0.0890 -0.5774  0.4421
  943TIP3    H124388   3.001   5.564   1.960 -0.9402  0.1813  0.6754
  943TIP3    H224389   3.120   5.650   1.921 -0.4798 -0.2151  1.1886
  944TIP3   OH224390   1.785   1.200   8.224 -0.0915  0.3151 -0.3382
  944TIP3    H124391   1.748   1.157   8.147 -2.2850  2.2909 -0.5449
  944TIP3    H224392   1.832   1.276   8.189 -0.8161  1.0391  0.2036
  945TIP3   OH224393   5.397   1.193   0.715 -0.7501  0.4913 -0.1310
  945TIP3    H124394   5.457   1.261   0.684 -1.1716  0.4113 -1.1617
  945TIP3    H224395   5.394   1.129   0.644 -1.7467  0.2989  0.0732
  946TIP3   OH224396   4.504   0.159   0.774 -0.7010 -0.2694 -0.6282
  946TIP3    H124397   4.576   0.206   0.733 -0.9416 -0.6806 -1.5458
  946TIP3    H224398   4.478   0.215   0.848 -0.3293  0.5437 -1.0978
  947TIP3   OH224399   0.234   3.226   7.174 -0.1856 -0.3717  1.1342
  947TIP3    H124400   0.141   3.244   7.181  0.2774  1.9792  2.0269
  947TIP3    H224401   0.263   3.214   7.264  1.1693  3.8863  1.4606
  948TIP3   OH224402   1.017   6.243   1.616 -0.1757 -0.1735  0.1901
  948TIP3    H124403   1.030   6.319   1.560 -0.0876 -1.3019 -1.3769
  948TIP3    H224404   1.071   6.261   1.694  0.1911  1.1455 -0.3459
  949TIP3   OH224405   2.908   5.046   1.684 -0.1856  0.2867  0.2654
  949TIP3    H124406   2.824   5.072   1.648 -0.6147 -0.6996  0.5235
  949TIP3    H224407   2.968   5.047   1.609 -1.0048 -1.4907 -0.4726
  950TIP3   OH224408   3.445   5.901   1.465  0.2201 -0.2982 -0.1195
  950TIP3    H124409   3.498   5.959   1.410 -1.6711  0.3153 -1.4071
  950TIP3    H224410   3.508   5.861   1.525  1.8604  1.7309 -0.3570
  951TIP3   OH224411   6.432   2.154   7.982 -0.2595  0.3624 -0.3713
  951TIP3    H124412   6.339   2.148   7.962 -0.3766  0.0439  0.2444
  951TIP3    H224413   6.443   2.240   8.023 -0.1153  0.7852 -1.2795
  952TIP3   OH224414   0.186   5.702   7.226  0.3309  0.3540 -0.5556
  952TIP3    H124415   0.275   5.683   7.196  0.6302  3.0914 -1.6907
  952TIP3    H224416   0.133   5.704   7.146 -1.1287 -2.5330  0.2111
  953TIP3   OH224417   1.980   6.155   7.529  0.0657  0.5912 -0.4502
  953TIP3    H124418   2.016   6.214   7.463 -1.8835  1.6088 -0.6835
  953TIP3    H224419   1.986   6.205   7.611 -2.2464  1.5269 -0.7617
  954TIP3   OH224420   0.400   4.211   7.834  0.1577  0.0766 -0.5018
  954TIP3    H124421   0.316   4.175   7.807 -0.3531 -1.1685  2.3428
  954TIP3    H224422   0.434   4.148   7.899  2.2073  1.6691  0.1030
  955TIP3   OH224423   3.721   1.417   7.619 -0.4320  0.2320  0.5876
  955TIP3    H124424   3.815   1.407   7.602 -0.6989 -2.3076  0.2361
  955TIP3    H224425   3.684   1.444   7.535 -0.0610  1.1528  0.7051
  956TIP3   OH224426   2.922   3.786   7.085 -0.3397  0.3668  0.0111
  956TIP3    H124427   2.868   3.856   7.047 -0.5623  0.5585  0.6744
  956TIP3    H224428   2.925   3.719   7.017  0.5366  1.3442 -0.9547
  957TIP3   OH224429   2.884   4.959   2.420 -0.2638 -0.3372 -0.0307
  957TIP3    H124430   2.794   4.983   2.443 -0.1557 -0.3754  0.4595
  957TIP3    H224431   2.879   4.866   2.398 -0.2103 -0.5511  0.8119
  958TIP3   OH224432   5.098   5.917   1.677  0.1012  0.2892 -0.2724
  958TIP3    H124433   5.017   5.969   1.671  0.0542  0.1337 -1.1794
  958TIP3    H224434   5.112   5.905   1.771 -1.3066 -0.2642 -0.1113
  959TIP3   OH224435   2.122   4.868   8.258 -0.6516 -0.3072 -0.4773
  959TIP3    H124436   2.202   4.918   8.269 -0.0959 -1.1931 -0.3508
  959TIP3    H224437   2.122   4.806   8.332 -0.2165 -1.9162 -1.7647
  960TIP3   OH224438   0.537   2.594   2.051  0.3064 -0.0489 -0.7635
  960TIP3    H124439   0.496   2.662   1.997 -1.9082 -1.5257 -1.0424
  960TIP3    H224440   0.520   2.512   2.004  2.5596 -0.9066 -0.2344
  961TIP3   OH224441   3.064   1.073   1.910  0.5457 -0.0452 -0.0991
  961TIP3    H124442   3.089   1.163   1.929 -0.2569  0.2196 -0.2556
  961TIP3    H224443   2.976   1.080   1.874  0.7752 -0.8311 -0.8423
  962TIP3   OH224444   1.986   1.951   7.545 -0.0853 -0.2148  0.0645
  962TIP3    H124445   1.909   2.005   7.560  0.3554 -0.0022  1.7551
  962TIP3    H224446   2.041   2.003   7.486 -1.6283 -0.8199 -2.0549
  963TIP3   OH224447   4.012   0.404   7.926 -0.0278 -0.8122  0.3507
  963TIP3    H124448   3.997   0.495   7.902 -0.0746 -1.0085 -0.3834
  963TIP3    H224449   4.020   0.405   8.021 -0.4879 -0.1080  0.3867
  964TIP3   OH224450   4.856   3.710   0.691  0.4400 -0.1111 -0.2658
  964TIP3    H124451   4.794   3.735   0.759  0.1089 -0.2650 -0.5091
  964TIP3    H224452   4.880   3.793   0.648 -1.0153 -0.2362 -1.3805
  965TIP3   OH224453   6.628   2.758   0.654  0.2921 -0.2558  0.0029
  965TIP3    H124454   6.622   2.820   0.581 -0.3721 -1.3736 -0.9389
  965TIP3    H224455   6.721   2.756   0.675  0.4677  0.2571 -0.6652
  966TIP3   OH224456   4.457   2.952   2.237  0.0067  0.8885  0.2518
  966TIP3    H124457   4.455   2.967   2.143 -0.0980  0.7155  0.2274
  966TIP3    H224458   4.511   3.024   2.271  3.4675 -1.1913 -0.3475
  967TIP3   OH224459   5.614   3.522   8.001 -0.2816 -0.8076  0.0692
  967TIP3    H124460   5.534   3.557   8.040  0.1962  1.5279 -0.8815
  967TIP3    H224461   5.595   3.515   7.908  0.5405 -0.4004 -0.1441
  968TIP3   OH224462   6.558   4.964   1.004 -0.5395 -0.5815  0.2724
  968TIP3    H124463   6.476   4.936   1.043 -0.0584 -0.3698  1.5064
  968TIP3    H224464   6.594   4.886   0.963 -0.7277 -0.9960  0.8901
  969TIP3   OH224465   2.759   1.412   8.059  0.5920  0.4482  0.1932
  969TIP3    H124466   2.830   1.391   7.998 -1.0688  1.1916 -2.1445
  969TIP3    H224467   2.781   1.500   8.090  1.7163 -0.1326  1.1247
  970TIP3   OH224468   3.163   5.005   2.397  0.6752  0.0121 -0.1912
  970TIP3    H124469   3.071   4.989   2.417  0.7446  1.0102  1.0808
  970TIP3    H224470   3.172   4.982   2.305 -0.9422  0.2859 -0.4521
  971TIP3   OH224471   6.827   4.450   7.791  0.6330 -0.4320 -0.0961
  971TIP3    H124472   6.863   4.375   7.837  0.0463 -0.5738  0.1530
  971TIP3    H224473   6.899   4.513   7.787  0.8231 -0.5906  0.6345
  972TIP3   OH224474   2.055   0.192   8.079 -0.4257  0.1711  0.3615
  972TIP3    H124475   1.961   0.206   8.075 -0.2855  0.9504 -0.4624
  972TIP3    H224476   2.080   0.168   7.990  0.4484  1.9698  0.0837
  973TIP3   OH224477   5.767   2.663   2.744  0.5080 -0.7658 -0.1990
  973TIP3    H124478   5.828   2.703   2.805  0.5106 -0.4352 -0.4161
  973TIP3    H224479   5.681   2.685   2.778  0.5047 -0.1889 -0.5572
  974TIP3   OH224480   2.428   1.684   0.769 -0.1382  0.0753 -0.6774
  974TIP3    H124481   2.408   1.689   0.676  1.3141  0.7915 -0.9752
  974TIP3    H224482   2.523   1.683   0.774 -0.1413 -2.4151  0.7126
  975TIP3   OH224483   4.959   5.589   0.497 -0.4408  0.2458 -0.4780
  975TIP3    H124484   4.913   5.656   0.547  0.8483  0.6653  0.2063
  975TIP3    H224485   5.046   5.626   0.482  0.5284 -1.5120  0.4768
  976TIP3   OH224486   5.092   2.566   8.134  0.2809 -0.1168  0.3443
  976TIP3    H124487   5.104   2.546   8.227 -1.2386  0.8959  0.8006
  976TIP3    H224488   5.055   2.486   8.097 -1.3712  0.2318  1.1471
  977TIP3   OH224489   3.262   3.163   0.860  0.2230  0.2726  0.0698
  977TIP3    H124490   3.279   3.223   0.787  1.9716 -0.7250 -0.4153
  977TIP3    H224491   3.169   3.174   0.879 -0.1509  1.0280 -1.9138
  978TIP3   OH224492   2.653   2.289   0.446 -0.3148  0.2117  0.4488
  978TIP3    H124493   2.579   2.335   0.407  0.5977  0.2851 -1.3115
  978TIP3    H224494   2.616   2.209   0.483 -0.9735 -1.2797 -3.0470
  979TIP3   OH224495   5.957   0.041   7.589 -0.3590 -0.2850  0.6921
  979TIP3    H124496   5.930   0.117   7.537  0.6005 -0.3119  0.1333
  979TIP3    H224497   6.033   0.071   7.638  0.2454 -0.9655  0.2035
  980TIP3   OH224498   4.151   1.343   1.337  1.0025 -0.7521 -0.1792
  980TIP3    H124499   4.122   1.412   1.396 -0.1263  2.1780 -3.7820
  980TIP3    H224500   4.077   1.281   1.336 -0.9564  1.4261 -1.6351
  981TIP3   OH224501   6.721   1.500   7.351 -0.3686 -0.3384 -0.3150
  981TIP3    H124502   6.716   1.562   7.424  3.2517  1.4668 -1.3685
  981TIP3    H224503   6.650   1.526   7.292 -1.3982  0.1585  1.0903
  982TIP3   OH224504   5.417   4.869   0.329  0.1587 -0.0862 -0.2364
  982TIP3    H124505   5.503   4.830   0.318  0.4379  0.8058 -1.4743
  982TIP3    H224506   5.378   4.823   0.404 -0.0609 -3.6742 -2.3295
  983TIP3   OH224507   1.600   1.161   7.147  0.4097  0.3798 -0.4871
  983TIP3    H124508   1.672   1.147   7.085  0.9988 -0.1793  0.3104
  983TIP3    H224509   1.545   1.083   7.138  0.9254 -0.0700  0.2693
  984TIP3   OH224510   0.951   1.631   7.233  0.4182 -0.0127 -0.3260
  984TIP3    H124511   1.040   1.666   7.228 -0.1251  1.2784 -2.4835
  984TIP3    H224512   0.935   1.593   7.146  0.0493 -3.4783  1.1037
  985TIP3   OH224513   1.036   3.033   7.402 -0.4587  0.0919  0.3979
  985TIP3    H124514   1.122   3.028   7.444  0.3282 -1.0008 -1.2375
  985TIP3    H224515   1.029   2.952   7.353 -1.5916  1.0244 -1.0646
  986TIP3   OH224516   4.173   0.817   1.445 -0.3457 -0.1017  0.0140
  986TIP3    H124517   4.191   0.795   1.537  0.1157  1.2246  0.2689
  986TIP3    H224518   4.135   0.737   1.408  1.3338 -1.3347  0.8181
  987TIP3   OH224519   2.177   1.485   0.520 -0.4632  0.6494  0.7945
  987TIP3    H124520   2.149   1.453   0.606  0.2172 -2.1091  0.0778
  987TIP3    H224521   2.124   1.436   0.458  0.8200  0.7250 -0.4127
  988TIP3   OH224522   3.938   1.354   0.658 -0.2263 -0.4873  0.8652
  988TIP3    H124523   3.898   1.271   0.634  0.6686 -0.6108 -0.2641
  988TIP3    H224524   4.020   1.330   0.702  0.3729 -0.2257 -0.0679
  989TIP3   OH224525   6.601   4.371   1.329  0.5192 -0.2038  0.4356
  989TIP3    H124526   6.511   4.338   1.317  1.0198 -1.1170 -1.2708
  989TIP3    H224527   6.621   4.416   1.247  1.9258 -0.8132  0.4113
  990TIP3   OH224528   1.430   4.423   0.242 -0.0504  0.3011 -0.2797
  990TIP3    H124529   1.503   4.433   0.303 -0.4525 -0.4298  0.3449
  990TIP3    H224530   1.470   4.427   0.155  0.8873 -1.0678  0.0527
  991TIP3   OH224531   0.922   1.127   6.138 -0.4020  0.7274 -0.1068
  991TIP3    H124532   0.875   1.207   6.116 -0.1291  0.5775 -1.2680
  991TIP3    H224533   1.005   1.133   6.091 -1.9359 -2.0190 -3.6789
  992TIP3   OH224534   3.154   3.813   1.781 -0.0450 -0.2522  0.3959
  992TIP3    H124535   3.204   3.868   1.721 -1.2542  0.6674  0.1749
  992TIP3    H224536   3.149   3.864   1.862 -1.4413  0.1628  0.0894
  993TIP3   OH224537   0.011   2.486   1.322  0.1419 -0.4492  0.7700
  993TIP3    H124538  -0.072   2.444   1.344  0.2687 -0.8833  0.4344
  993TIP3    H224539   0.004   2.573   1.360 -0.6880 -0.2911  0.2890
  994TIP3   OH224540   0.732   4.616   7.991  0.0055  0.5571  0.0413
  994TIP3    H124541   0.684   4.538   7.965 -1.0175  1.3252 -0.4300
  994TIP3    H224542   0.819   4.605   7.952  0.0001 -0.5184  0.3168
  995TIP3   OH224543   0.764   0.148   6.450 -0.2570 -0.0332 -0.1192
  995TIP3    H124544   0.724   0.187   6.373  0.2255 -0.5395 -0.6364
  995TIP3    H224545   0.796   0.222   6.501 -1.3374  0.3511  0.0272
  996TIP3   OH224546   5.808   1.617   6.366 -0.1061 -0.8416  0.0555
  996TIP3    H124547   5.798   1.623   6.461  3.1695  0.6801  0.4569
  996TIP3    H224548   5.765   1.696   6.332 -0.9806 -1.2099  0.2950
  997TIP3   OH224549   5.390   5.059   0.812 -0.2858  0.2538 -0.5901
  997TIP3    H124550   5.352   5.137   0.851 -1.4175 -0.9522  0.8199
  997TIP3    H224551   5.481   5.059   0.841 -0.9160 -0.2297  1.5539
  998TIP3   OH224552   0.464   6.379   8.158  0.1195 -0.3933 -0.2435
  998TIP3    H124553   0.435   6.356   8.247 -0.8482 -1.0341 -0.7053
  998TIP3    H224554   0.494   6.469   8.166  1.6440 -0.9510  1.0839
  999TIP3   OH224555   2.866   6.291   7.739  0.7317  0.1348 -0.4253
  999TIP3    H124556   2.778   6.289   7.701  0.9900  1.0552 -1.0988
  999TIP3    H224557   2.924   6.307   7.665  1.5201 -0.8352 -0.0431
 1000TIP3   OH224558   4.629   1.405   8.672  0.3064 -0.0231 -0.0244
 1000TIP3    H124559   4.562   1.391   8.739  2.1612  0.7117  2.1199
 1000TIP3    H224560   4.662   1.318   8.653  1.2237 -0.0900  1.6914
 1001TIP3   OH224561   3.350   5.605   8.638  0.0678 -0.4053 -0.1590
 1001TIP3    H124562   3.352   5.510   8.625 -1.1371 -0.4312 -0.2095
 1001TIP3    H224563   3.268   5.622   8.684  1.0631  0.4329  1.4472
 1002TIP3   OH224564   4.211   4.963   2.608  0.3028 -0.0231  0.4403
 1002TIP3    H124565   4.301   4.932   2.600  0.4558  0.2249  1.1391
 1002TIP3    H224566   4.194   4.963   2.702  0.0660  1.2900  0.4177
 1003TIP3   OH224567   2.352   3.198   1.950 -0.0178 -0.3328 -0.0655
 1003TIP3    H124568   2.278   3.216   2.007  1.0471 -0.1310  1.3186
 1003TIP3    H224569   2.399   3.127   1.993  1.6675  0.8639  0.2074
 1004TIP3   OH224570   0.846   3.136   1.562 -0.1814  0.6776 -0.1253
 1004TIP3    H124571   0.927   3.087   1.545 -0.6387 -0.7584  1.5463
 1004TIP3    H224572   0.869   3.227   1.543  1.3647  0.1206 -1.1682
 1005TIP3   OH224573   2.883   5.305   1.183  0.6371  0.4571 -0.4227
 1005TIP3    H124574   2.899   5.267   1.270 -0.0630 -1.6771 -1.1880
 1005TIP3    H224575   2.791   5.331   1.185  0.5223  0.0696 -0.6433
 1006TIP3   OH224576   4.853   0.746   1.826 -0.1421 -0.1483 -0.0696
 1006TIP3    H124577   4.808   0.807   1.885  1.0114  0.7376 -0.0699
 1006TIP3    H224578   4.902   0.803   1.766  1.3693 -1.0813  0.2427
 1007TIP3   OH224579   6.605   5.635   0.616 -0.4246  0.9893  0.7904
 1007TIP3    H124580   6.548   5.676   0.551  0.3923 -0.4564 -0.9269
 1007TIP3    H224581   6.656   5.707   0.653 -2.1023  2.0621  1.1067
 1008TIP3   OH224582   3.545   2.283   7.939 -0.4417 -0.0826  0.0946
 1008TIP3    H124583   3.597   2.355   7.974 -0.8087 -0.3378  1.2305
 1008TIP3    H224584   3.602   2.239   7.876  0.7229 -0.3465  1.2974
 1009TIP3   OH224585   1.868   1.840   0.726 -0.0115 -0.1017 -0.1903
 1009TIP3    H124586   1.811   1.805   0.658 -0.0044 -0.5529  0.0286
 1009TIP3    H224587   1.867   1.773   0.795 -1.1289  0.9555  0.8642
 1010TIP3   OH224588   4.808   5.742   0.924  0.0926  0.2764 -0.1096
 1010TIP3    H124589   4.788   5.711   1.012  2.0085  1.3358  0.7438
 1010TIP3    H224590   4.795   5.836   0.928 -0.3816  0.2779 -1.1599
 1011TIP3   OH224591   1.676   1.253   7.387  0.1605  0.0952  0.3666
 1011TIP3    H124592   1.687   1.171   7.436 -0.7086 -0.1762  0.1390
 1011TIP3    H224593   1.645   1.224   7.301 -1.7630  0.7116  0.7954
 1012TIP3   OH224594   3.788   0.031   7.721  0.0528  0.1169  0.1965
 1012TIP3    H124595   3.766  -0.060   7.738  1.3210 -0.0357  1.2541
 1012TIP3    H224596   3.782   0.041   7.626 -1.0493 -0.7940  0.1648
 1013TIP3   OH224597   3.722   2.188   1.332 -0.1556 -0.3442  0.0100
 1013TIP3    H124598   3.682   2.156   1.413 -0.2952  0.4851  0.2811
 1013TIP3    H224599   3.773   2.264   1.359  0.2856 -0.4136 -0.5961
 1014TIP3   OH224600   5.441   1.863   7.405  0.1380 -0.0180  0.0096
 1014TIP3    H124601   5.505   1.815   7.456 -0.4034 -0.8802 -0.1045
 1014TIP3    H224602   5.398   1.796   7.352 -1.0618  0.4966  0.3079
 1015TIP3   OH224603   0.979   4.367   8.247  0.3724 -0.3531  0.0538
 1015TIP3    H124604   0.902   4.422   8.256  0.9943  0.5089  0.1687
 1015TIP3    H224605   1.012   4.356   8.336  1.3326  0.6783 -0.1553
 1016TIP3   OH224606   0.332   2.048   8.050  0.1809  0.0171  0.0236
 1016TIP3    H124607   0.278   2.075   7.976 -2.9673  1.2062  2.5249
 1016TIP3    H224608   0.370   2.130   8.082 -0.0584 -0.1889  0.8430
 1017TIP3   OH224609   3.062   3.875   8.056 -0.1489 -0.5313  0.1538
 1017TIP3    H124610   3.012   3.894   7.976  1.4248 -0.0627 -0.7778
 1017TIP3    H224611   3.015   3.920   8.126  0.4566  2.3236 -1.1185
 1018TIP3   OH224612   6.541   2.300   1.446 -0.1721  0.4368  0.2117
 1018TIP3    H124613   6.541   2.350   1.527 -0.3525  0.4706  0.1914
 1018TIP3    H224614   6.528   2.366   1.377  0.3348  0.4534  0.1272
 1019TIP3   OH224615   5.139   1.682   7.168 -0.2199  0.5065 -0.3047
 1019TIP3    H124616   5.233   1.686   7.188 -0.3773  1.2407  0.3261
 1019TIP3    H224617   5.108   1.603   7.212 -0.0437  0.6693  0.1130
 1020TIP3   OH224618   1.478   4.866   7.017  0.4808 -0.1106  0.0896
 1020TIP3    H124619   1.470   4.837   6.926 -0.7325 -1.0554  0.4672
 1020TIP3    H224620   1.423   4.944   7.022  0.0422 -0.4162  0.1420
 1021TIP3   OH224621   5.490   4.253   2.310 -0.2702 -0.4243 -0.5241
 1021TIP3    H124622   5.396   4.245   2.323 -0.2411  0.7286  0.7505
 1021TIP3    H224623   5.499   4.293   2.224 -1.0058  0.1051 -0.3730
 1022TIP3   OH224624   6.282   5.019   1.046  0.0925  0.2006 -0.8004
 1022TIP3    H124625   6.228   4.984   1.117 -1.2867 -1.3743 -2.5155
 1022TIP3    H224626   6.219   5.040   0.976  1.4643  0.8619 -1.8895
 1023TIP3   OH224627   5.524   5.964   2.118 -0.0466 -0.1983  0.3957
 1023TIP3    H124628   5.513   5.894   2.183 -4.3950  0.1070  0.3163
 1023TIP3    H224629   5.488   5.927   2.037  0.5437  1.0850 -0.4849
 1024TIP3   OH224630   4.069   2.776   1.925 -0.6523  0.3832 -0.2111
 1024TIP3    H124631   4.057   2.832   2.001 -2.9174 -0.8733  0.4629
 1024TIP3    H224632   4.055   2.834   1.850  2.5533  1.8427  0.1949
 1025TIP3   OH224633   0.758   2.742   7.026  0.4388 -0.0590  0.1178
 1025TIP3    H124634   0.692   2.786   6.972  0.9553 -0.2906 -0.7201
 1025TIP3    H224635   0.769   2.656   6.985  0.4540 -0.4478  0.9134
 1026TIP3   OH224636   5.188   6.433   7.704 -0.2624 -0.3765  0.5873
 1026TIP3    H124637   5.166   6.479   7.785 -0.4499 -0.5559  0.6404
 1026TIP3    H224638   5.166   6.495   7.634 -0.3831 -0.3334  0.6634
 1027TIP3   OH224639   0.901   4.210   1.557  0.4713  0.1828  0.2747
 1027TIP3    H124640   0.826   4.269   1.546  0.5091 -0.1795 -3.4789
 1027TIP3    H224641   0.868   4.139   1.612 -1.0620  1.3400  0.9301
 1028TIP3   OH224642   4.201   6.375   2.609 -0.0364 -0.6223 -0.4892
 1028TIP3    H124643   4.218   6.354   2.701 -0.4013 -1.5279 -0.6221
 1028TIP3    H224644   4.273   6.432   2.584  0.4477 -0.9376  0.1595
 1029TIP3   OH224645   5.313   3.128   0.930  0.0056 -0.3748 -0.3014
 1029TIP3    H124646   5.379   3.156   0.993  1.6163 -2.6866 -0.8185
 1029TIP3    H224647   5.289   3.207   0.883  0.7018  0.9292  1.4156
 1030TIP3   OH224648   0.211   4.200   1.817 -0.5671  0.5921 -0.5522
 1030TIP3    H124649   0.178   4.130   1.872 -2.7058  0.6086 -1.7242
 1030TIP3    H224650   0.306   4.190   1.821 -0.7379 -0.9391  1.0956
 1031TIP3   OH224651   1.152   4.372   2.042  0.2687  0.5113 -0.1432
 1031TIP3    H124652   1.202   4.447   2.074  2.9387 -0.3347 -2.0240
 1031TIP3    H224653   1.165   4.304   2.109 -0.8072  1.1570  0.7606
 1032TIP3   OH224654   5.037   3.458   7.618  0.3053  0.3409 -0.0250
 1032TIP3    H124655   5.125   3.474   7.651  0.2384 -0.3754  0.5048
 1032TIP3    H224656   4.979   3.480   7.691  0.1305 -0.6952  0.1542
 1033TIP3   OH224657   1.553   6.775   8.717 -0.4342 -0.3489  0.2305
 1033TIP3    H124658   1.602   6.849   8.682  0.1200 -0.5366  0.6042
 1033TIP3    H224659   1.595   6.698   8.679 -1.8957 -0.4588 -1.3176
 1034TIP3   OH224660   2.848   5.966   2.013  0.2331 -0.3765 -0.0380
 1034TIP3    H124661   2.918   5.960   1.948  0.5830 -0.5126  0.3503
 1034TIP3    H224662   2.893   5.966   2.097 -0.3210 -2.0420  0.2833
 1035TIP3   OH224663   6.493   5.566   8.254  0.6453 -0.3296  0.9156
 1035TIP3    H124664   6.458   5.501   8.193  0.4385 -0.0001  0.6827
 1035TIP3    H224665   6.542   5.514   8.318 -0.0410 -0.7747  1.0932
 1036TIP3   OH224666   2.014   6.678   0.945  0.3046  0.1631  0.2400
 1036TIP3    H124667   1.957   6.698   1.019  1.0674  0.6538  0.7132
 1036TIP3    H224668   2.061   6.599   0.971 -1.9351 -1.7469 -1.1906
 1037TIP3   OH224669   6.817   3.756   8.301  0.3732 -0.4502 -0.3633
 1037TIP3    H124670   6.744   3.697   8.281  1.1507 -1.2259 -1.0061
 1037TIP3    H224671   6.779   3.843   8.296 -0.6537 -0.8600 -0.0578
 1038TIP3   OH224672   4.115   0.862   7.312 -0.3570 -0.2032  0.2680
 1038TIP3    H124673   4.150   0.904   7.234 -0.5458  1.0845  0.8568
 1038TIP3    H224674   4.022   0.851   7.293 -0.2311 -0.7950 -0.0584
 1039TIP3   OH224675   2.154   0.192   1.595 -0.3868 -0.0831 -0.5832
 1039TIP3    H124676   2.125   0.202   1.504 -0.1891 -0.0611 -0.6450
 1039TIP3    H224677   2.181   0.280   1.622  0.3856 -0.2490 -0.7940
 1040TIP3   OH224678   2.297   4.464   0.633  0.1946  0.2408  0.3067
 1040TIP3    H124679   2.232   4.519   0.589  0.3783  0.8636  0.7997
 1040TIP3    H224680   2.262   4.450   0.721  0.0183 -0.6705  0.0985
 1041TIP3   OH224681   0.883   0.042   7.979  0.1808  0.1713 -0.0788
 1041TIP3    H124682   0.973   0.031   7.947  0.1178 -0.2561 -0.1019
 1041TIP3    H224683   0.829  -0.007   7.917 -0.0497  0.2441  0.0649
 1042TIP3   OH224684   4.127   3.583   7.752  0.0366  0.0621 -0.0310
 1042TIP3    H124685   4.203   3.613   7.802 -0.9334  3.1268 -0.1879
 1042TIP3    H224686   4.057   3.576   7.817 -0.1790 -0.2814 -0.2958
 1043TIP3   OH224687   3.546   2.076   6.807 -0.1982  0.0551 -0.2873
 1043TIP3    H124688   3.468   2.051   6.857  0.8742 -1.1107  0.9127
 1043TIP3    H224689   3.524   2.159   6.766 -2.3795 -0.6863 -0.7117
 1044TIP3   OH224690   0.354   0.475   0.296 -0.4266 -0.1162 -0.5974
 1044TIP3    H124691   0.340   0.428   0.214 -0.1196  1.1390 -1.3849
 1044TIP3    H224692   0.348   0.567   0.273  0.8355  0.2862  0.5642
 1045TIP3   OH224693   5.484   2.869   1.312  0.6034 -0.0722  0.6570
 1045TIP3    H124694   5.472   2.825   1.228 -0.0633 -1.2545  1.3384
 1045TIP3    H224695   5.460   2.803   1.377  4.1371 -0.2899  1.9353
 1046TIP3   OH224696   2.508   1.533   7.777  0.0378 -0.0159  0.1953
 1046TIP3    H124697   2.522   1.559   7.685 -1.0445 -0.0429  0.0107
 1046TIP3    H224698   2.413   1.532   7.787  0.0277 -2.7038  0.5566
 1047TIP3   OH224699   6.089   5.474   0.924 -0.0303  0.2839  0.1866
 1047TIP3    H124700   6.035   5.535   0.975 -0.6866 -0.8531  0.8951
 1047TIP3    H224701   6.041   5.461   0.843 -0.9373 -0.8001  0.8545
 1048TIP3   OH224702   4.759   1.743   7.292  0.7333  0.0686  0.1668
 1048TIP3    H124703   4.769   1.825   7.341 -1.8333  1.0665 -0.7811
 1048TIP3    H224704   4.786   1.765   7.203  1.5671 -0.5995  0.2434
 1049TIP3   OH224705   2.689   5.944   1.238  0.0727 -0.3098 -0.2950
 1049TIP3    H124706   2.755   5.961   1.171  1.5906 -1.6851  0.7601
 1049TIP3    H224707   2.609   5.924   1.190  0.5101  0.9572 -1.6273
 1050TIP3   OH224708   5.981   0.607   1.684  0.4472  0.1834  0.1046
 1050TIP3    H124709   5.979   0.591   1.778  1.2483 -0.8664 -0.0296
 1050TIP3    H224710   5.977   0.702   1.675  1.9363  0.3874  1.2762
 1051TIP3   OH224711   2.932   3.220   8.027 -0.1743  0.4198 -0.3195
 1051TIP3    H124712   2.902   3.262   7.946 -1.2264  0.6264  0.1637
 1051TIP3    H224713   2.861   3.161   8.051 -0.1806  0.8570  0.8108
 1052TIP3   OH224714   2.133   2.786   6.615 -0.5629 -0.0480 -0.2741
 1052TIP3    H124715   2.149   2.858   6.676 -0.1645 -0.9063  0.6618
 1052TIP3    H224716   2.161   2.820   6.530 -0.0337  0.7762  0.2157
 1053TIP3   OH224717   5.689   6.104   1.194 -0.5800 -0.3511 -0.3358
 1053TIP3    H124718   5.780   6.126   1.172 -0.8735  0.8261 -0.4408
 1053TIP3    H224719   5.676   6.017   1.158  0.4563 -0.4612 -0.4732
 1054TIP3   OH224720   4.799   5.649   8.446 -0.3911  0.6071  0.3917
 1054TIP3    H124721   4.804   5.675   8.354 -0.0941  1.3486  0.6056
 1054TIP3    H224722   4.705   5.641   8.464 -0.5041  1.5669  0.3067
 1055TIP3   OH224723   3.229   0.978   1.717 -0.6857 -0.6508 -0.1978
 1055TIP3    H124724   3.158   0.999   1.777 -1.3504 -1.6194 -0.6171
 1055TIP3    H224725   3.308   1.011   1.760 -1.0523 -1.9217  1.5458
 1056TIP3   OH224726   2.089   4.011   8.080  0.2514 -0.0118  0.1925
 1056TIP3    H124727   2.177   4.041   8.102  0.0056  0.7223  0.1779
 1056TIP3    H224728   2.042   4.090   8.055  0.1318 -0.6406 -1.7087
 1057TIP3   OH224729   2.040   3.623   7.715  0.0839  0.0554  0.6173
 1057TIP3    H124730   2.087   3.553   7.761 -0.0096 -0.8292 -0.5853
 1057TIP3    H224731   2.021   3.687   7.783 -0.2090 -1.2933  1.8610
 1058TIP3   OH224732   5.133   4.363   1.340  0.3592  0.5097  0.1803
 1058TIP3    H124733   5.200   4.430   1.322  1.1285  0.5280  2.7204
 1058TIP3    H224734   5.092   4.391   1.421  1.0856 -2.3299  1.6534
 1059TIP3   OH224735   0.301   5.685   8.317  0.0451  0.6361  0.1840
 1059TIP3    H124736   0.211   5.687   8.286  0.1999  2.8036 -0.2433
 1059TIP3    H224737   0.352   5.656   8.242 -0.1405  0.8316 -0.0176
 1060TIP3   OH224738   3.585   4.337   1.642  0.1251  0.2624  0.3754
 1060TIP3    H124739   3.655   4.277   1.613 -0.4096 -0.4381  0.5056
 1060TIP3    H224740   3.529   4.347   1.565  1.8348  3.0666 -0.6493
 1061TIP3   OH224741   5.508   1.785   1.653 -0.2701  0.0125  0.3882
 1061TIP3    H124742   5.544   1.872   1.669 -2.2264  0.9646 -0.0225
 1061TIP3    H224743   5.459   1.764   1.733 -0.1841 -0.5089  0.3078
 1062TIP3   OH224744   1.734   6.298   8.100  0.3031 -0.3124  0.1106
 1062TIP3    H124745   1.703   6.243   8.028 -1.1861  0.9731 -0.2921
 1062TIP3    H224746   1.793   6.242   8.150  1.5756 -1.1588 -2.2247
 1063TIP3   OH224747   0.586   3.547   6.666 -0.6258  0.3714 -0.5014
 1063TIP3    H124748   0.639   3.590   6.599  0.1390 -1.2628 -0.9948
 1063TIP3    H224749   0.571   3.615   6.733  2.1042  0.8950 -0.3209
 1064TIP3   OH224750   5.761   0.424   2.684  0.6506  0.0947  0.1864
 1064TIP3    H124751   5.784   0.335   2.655  0.9486  0.2739 -0.1495
 1064TIP3    H224752   5.717   0.412   2.767  2.6786 -0.2375  1.2795
 1065TIP3   OH224753   5.276   1.877   0.086 -0.0518 -0.2526 -0.6964
 1065TIP3    H124754   5.329   1.803   0.116 -0.2839  0.0387  0.4756
 1065TIP3    H224755   5.188   1.842   0.078 -0.6838  0.4036  2.2409
 1066TIP3   OH224756   4.483   5.699   0.354 -0.1365 -0.1830 -0.6323
 1066TIP3    H124757   4.561   5.650   0.381 -0.7355 -1.1980 -0.6914
 1066TIP3    H224758   4.446   5.648   0.282 -0.7933  0.3509 -0.6854
 1067TIP3   OH224759   1.080   2.715   1.745 -0.3499  0.2745  0.1697
 1067TIP3    H124760   1.047   2.630   1.775 -0.1584  0.7309  1.7822
 1067TIP3    H224761   1.169   2.719   1.780  0.0944  0.6218 -0.9673
 1068TIP3   OH224762   0.684   0.666   0.196 -0.2910 -0.0114  0.0142
 1068TIP3    H124763   0.693   0.721   0.274  0.6743 -2.4231  1.7565
 1068TIP3    H224764   0.591   0.670   0.175 -0.5016  1.0586  1.0039
 1069TIP3   OH224765   5.907   3.444   7.746 -0.4676 -0.1663 -0.0887
 1069TIP3    H124766   5.935   3.397   7.668 -0.5476 -1.3125  0.5327
 1069TIP3    H224767   5.976   3.507   7.763  1.3927 -2.3279  0.9159
 1070TIP3   OH224768   0.655   4.030   7.731  0.0850  0.1404 -0.0612
 1070TIP3    H124769   0.584   3.969   7.712  0.8438 -0.9697  0.5020
 1070TIP3    H224770   0.664   4.027   7.826  1.3867 -0.3723 -0.1692
 1071TIP3   OH224771   6.755   0.775   8.497  0.3467  0.3606 -0.2897
 1071TIP3    H124772   6.668   0.787   8.534 -1.0141 -2.5105 -2.2314
 1071TIP3    H224773   6.748   0.810   8.408  0.8336 -0.7917 -0.8050
 1072TIP3   OH224774   4.973   5.144   7.730 -0.0101  0.3210 -0.1150
 1072TIP3    H124775   5.062   5.111   7.722  0.0490  0.2576  0.7650
 1072TIP3    H224776   4.962   5.163   7.823 -0.8102  0.6279 -0.2622
 1073TIP3   OH224777   4.425   5.451   1.750 -0.1555 -0.2883 -0.0909
 1073TIP3    H124778   4.512   5.413   1.738  0.0550 -0.2716  1.2655
 1073TIP3    H224779   4.381   5.435   1.667  1.3626  0.3117 -1.0629
 1074TIP3   OH224780   1.380   1.159   6.607 -0.0457 -0.4024 -0.2446
 1074TIP3    H124781   1.326   1.083   6.585  0.7935 -0.7275 -1.2749
 1074TIP3    H224782   1.322   1.216   6.659 -1.0926 -1.1259 -0.5894
 1075TIP3   OH224783   6.606   6.514   1.783  0.4841  0.9070 -0.3045
 1075TIP3    H124784   6.602   6.609   1.772 -1.8387  0.8497 -0.4798
 1075TIP3    H224785   6.516   6.484   1.768  0.5431 -1.0257  2.3822
 1076TIP3   OH224786   1.148   6.761   2.163 -0.0892 -0.0712  0.4279
 1076TIP3    H124787   1.244   6.765   2.166  0.0725 -0.4155 -2.1627
 1076TIP3    H224788   1.120   6.796   2.248  2.3062  0.1659  1.2004
 1077TIP3   OH224789   4.062   2.256   1.807 -0.2920 -0.5828  0.2542
 1077TIP3    H124790   4.062   2.161   1.816  2.6318 -0.8685 -1.4952
 1077TIP3    H224791   4.083   2.289   1.894 -1.3260 -1.4817  0.8680
 1078TIP3   OH224792   3.358   3.343   6.786  0.3624 -0.2348  0.1228
 1078TIP3    H124793   3.350   3.397   6.707 -0.7972 -1.7561 -0.8536
 1078TIP3    H224794   3.447   3.309   6.782  0.5750  0.3251 -0.0987
 1079TIP3   OH224795   3.044   3.337   1.719 -0.1832  0.4199  0.2106
 1079TIP3    H124796   3.067   3.306   1.806 -0.5128  1.2173  0.5911
 1079TIP3    H224797   3.029   3.431   1.730 -0.7026  0.4446 -0.6094
 1080TIP3   OH224798   5.076   3.141   0.442  0.2253 -0.0916  0.1270
 1080TIP3    H124799   5.051   3.224   0.483 -0.4975 -0.3088  0.1349
 1080TIP3    H224800   5.171   3.137   0.453 -0.0329 -0.6667  2.7855
 1081TIP3   OH224801   1.179   5.366   0.178 -0.0285 -0.7266  0.1668
 1081TIP3    H124802   1.138   5.339   0.095 -2.0053  0.1248  0.8073
 1081TIP3    H224803   1.271   5.377   0.156 -0.5525 -0.0965 -2.0463
 1082TIP3   OH224804   6.724   1.182   0.179 -0.0989 -0.1855  0.1737
 1082TIP3    H124805   6.746   1.217   0.093 -2.1451 -1.2088 -0.8527
 1082TIP3    H224806   6.779   1.105   0.189 -0.4279 -0.5395 -0.6229
 1083TIP3   OH224807   0.242   6.149   0.316  0.5696  0.2670  0.3652
 1083TIP3    H124808   0.332   6.161   0.348  0.1844 -0.5169  1.8191
 1083TIP3    H224809   0.192   6.220   0.356  0.6241  1.1333 -1.0035
 1084TIP3   OH224810   6.509   1.828   6.869  0.6041 -0.2477 -0.0244
 1084TIP3    H124811   6.499   1.839   6.774 -1.3354 -3.6086 -0.3533
 1084TIP3    H224812   6.590   1.778   6.878  1.4578  1.1300  0.2618
 1085TIP3   OH224813   0.957   1.848   0.216  0.1214  0.0544 -0.4687
 1085TIP3    H124814   0.891   1.915   0.234 -1.5758 -1.5633 -0.5008
 1085TIP3    H224815   0.908   1.768   0.199  2.1161 -1.4572  0.4290
 1086TIP3   OH224816   0.487   1.694   0.750 -0.4719 -0.2708  0.1391
 1086TIP3    H124817   0.523   1.704   0.838  1.9753 -2.2375 -0.5312
 1086TIP3    H224818   0.518   1.771   0.703  0.5769 -0.5692  0.3115
 1087TIP3   OH224819   5.594   4.702   6.935 -0.7902  0.5348  0.2303
 1087TIP3    H124820   5.657   4.774   6.928  0.3325 -0.3480  0.8376
 1087TIP3    H224821   5.574   4.678   6.845  0.0894  0.5468  0.0235
 1088TIP3   OH224822   0.245   4.284   2.177  0.1884 -0.1746  0.0594
 1088TIP3    H124823   0.187   4.283   2.101  1.1709 -1.5751 -0.7239
 1088TIP3    H224824   0.240   4.374   2.211  0.3737  0.7296 -2.1680
 1089TIP3   OH224825   3.756   0.569   0.981  0.2574  0.2190 -0.6972
 1089TIP3    H124826   3.753   0.645   1.039  0.1543  0.6898 -1.3125
 1089TIP3    H224827   3.849   0.559   0.961  0.1864  0.8110 -1.4089
 1090TIP3   OH224828   3.870   0.653   6.685 -0.1647  0.1531 -0.3224
 1090TIP3    H124829   3.856   0.595   6.610 -0.6168 -0.5370  0.2778
 1090TIP3    H224830   3.799   0.717   6.679 -0.7345 -0.4308 -0.0067
 1091TIP3   OH224831   2.791   2.442   0.720 -0.1230  0.1497  0.0969
 1091TIP3    H124832   2.835   2.365   0.684 -1.0089 -0.7248  0.8127
 1091TIP3    H224833   2.754   2.487   0.644  0.1290 -0.3129 -0.3031
 1092TIP3   OH224834   0.643   5.477   6.741 -0.3356 -0.2544 -0.8063
 1092TIP3    H124835   0.701   5.411   6.779 -0.7329  0.1187  0.5369
 1092TIP3    H224836   0.663   5.558   6.790 -0.2939  0.4648 -1.9804
 1093TIP3   OH224837   4.273   2.874   7.823  0.3413 -0.5194  0.4056
 1093TIP3    H124838   4.235   2.802   7.874 -0.0043 -0.5158  0.1497
 1093TIP3    H224839   4.214   2.947   7.838 -1.4166 -1.2636 -2.2984
 1094TIP3   OH224840   0.849   1.706   8.594 -0.2866 -0.0568  0.2348
 1094TIP3    H124841   0.807   1.696   8.679  1.4766  0.4781  1.2104
 1094TIP3    H224842   0.887   1.793   8.596  2.7685 -1.2707  0.3331
 1095TIP3   OH224843   4.385   4.724   1.369 -0.2498 -0.1988 -0.2657
 1095TIP3    H124844   4.300   4.682   1.363 -0.0108 -0.7728  0.2941
 1095TIP3    H224845   4.407   4.747   1.279 -1.5350  1.0468 -0.2955
 1096TIP3   OH224846   4.869   5.090   0.513 -0.3619 -0.2485  0.3977
 1096TIP3    H124847   4.810   5.135   0.573  0.3204 -0.8841  1.5909
 1096TIP3    H224848   4.938   5.153   0.495 -1.1604  0.3525 -0.6768
 1097TIP3   OH224849   5.171   4.272   7.493  0.6998  0.0446  0.4014
 1097TIP3    H124850   5.173   4.183   7.528  0.1610 -0.2536 -0.3113
 1097TIP3    H224851   5.233   4.320   7.549  1.3813 -0.8796  0.4796
 1098TIP3   OH224852   1.451   1.567   6.791 -0.2467  0.0315  0.0310
 1098TIP3    H124853   1.488   1.645   6.749  0.9872  0.8141  2.3720
 1098TIP3    H224854   1.502   1.494   6.756 -1.5633  0.1508 -2.3628
 1099TIP3   OH224855   6.763   1.120   1.586 -0.2212 -0.0277 -0.2378
 1099TIP3    H124856   6.846   1.077   1.562  1.0017  2.3278 -0.5362
 1099TIP3    H224857   6.771   1.208   1.550 -1.7993  1.0865  1.9597
 1100TIP3   OH224858   2.310   1.485   7.197  0.0113  0.1398 -0.3297
 1100TIP3    H124859   2.403   1.504   7.183  0.1092 -0.9906 -1.4531
 1100TIP3    H224860   2.309   1.417   7.264 -0.1021  1.1273  0.6916
 1101TIP3   OH224861   5.976   5.886   0.069  0.5404 -0.0474 -0.1090
 1101TIP3    H124862   6.057   5.901   0.117  0.7382 -1.8018  0.1639
 1101TIP3    H224863   6.001   5.834  -0.007 -0.0371  1.2328 -1.2273
 1102TIP3   OH224864   2.230   4.876   7.578 -0.5786 -0.4347  0.0321
 1102TIP3    H124865   2.148   4.909   7.543  0.8575  0.4263 -2.8455
 1102TIP3    H224866   2.207   4.794   7.623 -2.9231 -0.3682 -0.9476
 1103TIP3   OH224867   1.991   2.139   2.175 -0.8128 -0.2514 -0.1822
 1103TIP3    H124868   2.043   2.128   2.095 -1.0670 -1.3121 -0.2148
 1103TIP3    H224869   2.018   2.225   2.209 -1.2655  0.5808 -1.8153
 1104TIP3   OH224870   2.391   5.608   8.136 -0.0104  0.2066 -0.0938
 1104TIP3    H124871   2.461   5.569   8.082  0.4450  3.3551 -2.0464
 1104TIP3    H224872   2.314   5.608   8.079 -0.1678  1.4245  0.0901
 1105TIP3   OH224873   3.895   5.542   8.494  0.0733  0.0104  0.1835
 1105TIP3    H124874   3.874   5.593   8.572  0.0313 -0.6974  0.6474
 1105TIP3    H224875   3.898   5.451   8.525  0.7218 -0.2120 -0.5013
 1106TIP3   OH224876   0.710   3.332   1.223  0.1383  0.6721 -0.0770
 1106TIP3    H124877   0.719   3.362   1.133 -1.0818  1.6026  0.0996
 1106TIP3    H224878   0.800   3.323   1.255  0.5741  0.4009 -1.3511
 1107TIP3   OH224879   1.783   0.805   8.002  0.0129 -0.1808 -0.9317
 1107TIP3    H124880   1.863   0.758   7.975 -0.6547 -3.3515  1.9454
 1107TIP3    H224881   1.752   0.757   8.079 -1.7692  4.1637  1.3953
 1108TIP3   OH224882   3.512   3.424   7.368  0.0106  0.5333  0.7311
 1108TIP3    H124883   3.553   3.354   7.317 -1.4827 -0.0429  0.2888
 1108TIP3    H224884   3.504   3.388   7.456  0.3296  0.6121  0.7960
 1109TIP3   OH224885   4.190   4.239   8.281 -0.8106 -0.0311  0.0216
 1109TIP3    H124886   4.108   4.284   8.297 -0.6067  0.6217 -0.7130
 1109TIP3    H224887   4.186   4.214   8.188  0.3294  1.0928 -0.3533
 1110TIP3   OH224888   3.476   0.798   7.505 -0.6706  0.2665 -0.2624
 1110TIP3    H124889   3.393   0.817   7.548 -1.2360 -0.1717 -1.1510
 1110TIP3    H224890   3.526   0.879   7.512 -0.4771  0.0302  1.7994
 1111TIP3   OH224891   1.685   1.068   7.583 -0.2200  0.0278  0.2850
 1111TIP3    H124892   1.738   0.989   7.592  0.3653  0.4372  0.5764
 1111TIP3    H224893   1.598   1.044   7.614  0.0181 -0.4290  0.6018
 1112TIP3   OH224894   1.961   2.314   6.984 -0.1886 -0.5516 -0.3364
 1112TIP3    H124895   1.955   2.223   7.015  1.0600 -0.0431  1.5391
 1112TIP3    H224896   2.052   2.339   7.000  0.1770  0.2862 -3.1475
 1113TIP3   OH224897   0.315   5.770   1.919 -0.0437 -0.2795 -0.3135
 1113TIP3    H124898   0.349   5.844   1.969  0.8012 -0.2485 -0.9217
 1113TIP3    H224899   0.234   5.746   1.965  0.7906 -0.3674  1.1897
 1114TIP3   OH224900   5.263   3.876   0.168 -0.5007 -0.4502  0.4908
 1114TIP3    H124901   5.276   3.814   0.096  1.4580  1.7000 -1.1460
 1114TIP3    H224902   5.345   3.872   0.217 -1.4169 -1.1081  2.0534
 1115TIP3   OH224903   4.086   0.343   0.732 -0.2860 -0.4204  0.2742
 1115TIP3    H124904   4.097   0.248   0.737 -0.7693 -0.5137 -0.4275
 1115TIP3    H224905   3.992   0.357   0.732 -0.2210  0.1063  1.0602
 1116TIP3   OH224906   4.252   4.426   1.858 -0.0476  0.5767 -0.2796
 1116TIP3    H124907   4.202   4.501   1.827  0.7698  1.5761  0.7740
 1116TIP3    H224908   4.338   4.461   1.881 -0.5326 -0.0944  2.9480
 1117TIP3   OH224909   0.368   4.782   1.928  0.2453  0.1218  0.0290
 1117TIP3    H124910   0.431   4.812   1.994  0.6588 -0.1441 -0.2443
 1117TIP3    H224911   0.330   4.863   1.894  1.0714  0.3293 -0.4273
 1118TIP3   OH224912   0.491   6.142   0.114  0.4382 -0.0133  0.0161
 1118TIP3    H124913   0.557   6.127   0.046 -0.5641 -0.4602 -0.8829
 1118TIP3    H224914   0.525   6.217   0.163  1.2179  0.2905 -0.9427
 1119TIP3   OH224915   2.024   3.384   6.957 -0.8420  0.2653  0.2013
 1119TIP3    H124916   2.094   3.332   6.917 -0.9565 -1.5632  2.1983
 1119TIP3    H224917   1.990   3.438   6.886  0.1916 -1.4551 -1.6952
 1120TIP3   OH224918   0.699   4.922   7.961  0.6496  0.0222  0.0007
 1120TIP3    H124919   0.785   4.965   7.955  0.0710  1.5456  1.7472
 1120TIP3    H224920   0.715   4.842   8.010  0.8216  1.2431  2.0309
 1121TIP3   OH224921   6.144   5.584   8.290  0.1794 -0.5848  0.0598
 1121TIP3    H124922   6.088   5.542   8.356 -0.6871 -0.9196 -0.8627
 1121TIP3    H224923   6.232   5.550   8.308 -0.4678 -2.8080 -0.6261
 1122TIP3   OH224924   0.797   3.380   8.139 -0.5016 -0.1929 -0.0746
 1122TIP3    H124925   0.718   3.415   8.181 -0.7392  2.8477 -2.7118
 1122TIP3    H224926   0.765   3.321   8.072 -0.4630  0.0306 -0.2898
 1123TIP3   OH224927   1.333   6.745   1.236 -0.0407 -0.8856  0.2607
 1123TIP3    H124928   1.325   6.839   1.217 -1.4190 -0.3497  3.0097
 1123TIP3    H224929   1.292   6.702   1.161  0.0897  0.7094 -0.7797
 1124TIP3   OH224930   6.033   2.866   2.601  0.4912 -0.4684 -0.4598
 1124TIP3    H124931   6.114   2.817   2.590 -0.5259 -2.1598 -0.7394
 1124TIP3    H224932   6.007   2.850   2.692  0.4965  0.1013 -0.3563
 1125TIP3   OH224933   4.410   3.362   1.795 -0.0297 -0.2828  0.0238
 1125TIP3    H124934   4.399   3.453   1.822 -0.1097 -0.7359  1.6618
 1125TIP3    H224935   4.505   3.347   1.799 -0.0583 -0.4079  0.3001
 1126TIP3   OH224936   6.200   5.558   7.558 -0.4075 -0.4015  0.4868
 1126TIP3    H124937   6.266   5.619   7.526  1.2657 -1.2595  2.1051
 1126TIP3    H224938   6.120   5.582   7.510  0.7670  1.4198 -0.7041
 1127TIP3   OH224939   1.418   3.569   1.014  0.3522  0.6822 -0.0713
 1127TIP3    H124940   1.512   3.565   1.027  0.5206  4.2352  0.7259
 1127TIP3    H224941   1.406   3.627   0.939 -1.1675  1.5130  0.7552
 1128TIP3   OH224942   2.865   5.491   7.853 -0.7001 -0.3167 -0.1774
 1128TIP3    H124943   2.810   5.481   7.931 -2.4008 -1.7574 -1.4967
 1128TIP3    H224944   2.935   5.426   7.865 -0.3604  0.1777  0.6040
 1129TIP3   OH224945   1.464   2.679   0.216  0.3313 -0.4110  0.1190
 1129TIP3    H124946   1.388   2.690   0.159  0.7919 -0.7963 -0.5658
 1129TIP3    H224947   1.530   2.635   0.163  1.2569  0.4302  0.5197
 1130TIP3   OH224948   0.328   5.142   7.422  0.2166  0.5913  0.1847
 1130TIP3    H124949   0.355   5.175   7.337 -0.3543  1.0774  0.1838
 1130TIP3    H224950   0.334   5.047   7.414  2.2318  0.6634  0.3055
 1131TIP3   OH224951   3.932   5.045   1.306  0.2728 -0.2052  0.6673
 1131TIP3    H124952   3.879   4.971   1.336  0.7012 -0.2609  1.3211
 1131TIP3    H224953   3.914   5.052   1.212 -0.9349 -0.1760  0.8882
 1132TIP3   OH224954   5.577   5.776   2.291  0.4887 -0.4552 -0.2532
 1132TIP3    H124955   5.501   5.729   2.325 -1.9106  1.6388 -2.3067
 1132TIP3    H224956   5.634   5.707   2.256 -0.9022 -2.0594  0.5008
 1133TIP3   OH224957   5.678   5.978   6.775 -0.1734  0.5231 -0.7018
 1133TIP3    H124958   5.618   6.037   6.731 -0.9804 -0.5621 -1.1095
 1133TIP3    H224959   5.622   5.908   6.810  0.7607 -0.1144 -0.4334
 1134TIP3   OH224960   5.648   5.400   0.053  0.7422  0.2627  0.1074
 1134TIP3    H124961   5.736   5.430   0.031  0.2750 -0.0058 -2.3528
 1134TIP3    H224962   5.611   5.471   0.106  1.8564  1.1168 -0.2263
 1135TIP3   OH224963   3.838   0.737   0.182 -0.8135 -0.0535 -0.1232
 1135TIP3    H124964   3.854   0.728   0.087 -1.7684  0.9666 -0.3910
 1135TIP3    H224965   3.744   0.753   0.189 -0.2315  4.1218  0.6464
 1136TIP3   OH224966   1.819   0.190   7.676 -0.0151  0.1189  0.2601
 1136TIP3    H124967   1.829   0.181   7.581 -1.0398  1.5485 -0.0216
 1136TIP3    H224968   1.724   0.187   7.690  0.1811 -1.5371  1.4385
 1137TIP3   OH224969   3.647   6.250   8.555 -0.2394 -0.4926  0.4253
 1137TIP3    H124970   3.615   6.289   8.474  0.3500 -0.2405  0.3023
 1137TIP3    H224971   3.651   6.156   8.537  2.3119 -0.2494 -0.7708
 1138TIP3   OH224972   1.039   2.172   0.711  0.5634  0.6948 -0.1508
 1138TIP3    H124973   1.030   2.182   0.616 -1.2138  0.9956  0.0155
 1138TIP3    H224974   1.095   2.096   0.723  0.3572  0.3308 -1.4445
 1139TIP3   OH224975   2.827   1.621   6.829  0.0153 -0.6933  0.6550
 1139TIP3    H124976   2.888   1.611   6.755 -0.0348 -2.0085  0.7609
 1139TIP3    H224977   2.883   1.624   6.906  0.0344  0.0062  0.6160
 1140TIP3   OH224978   2.530   6.408   0.492 -0.3431 -0.5497  0.2403
 1140TIP3    H124979   2.572   6.334   0.537  2.0800  0.0891 -0.8290
 1140TIP3    H224980   2.534   6.480   0.554 -1.6244 -0.9537  0.8313
 1141TIP3   OH224981   6.051   1.074   8.376  0.0297  0.2700 -0.3867
 1141TIP3    H124982   6.088   1.137   8.438  1.7782 -0.6497 -0.4285
 1141TIP3    H224983   6.062   0.989   8.419 -2.0272 -0.0801 -0.4456
 1142TIP3   OH224984   1.095   6.749   1.070 -0.0271 -0.5294 -0.1224
 1142TIP3    H124985   1.004   6.724   1.083  0.8082 -2.3070  3.8890
 1142TIP3    H224986   1.111   6.817   1.136  1.4801  0.0178 -0.9943
 1143TIP3   OH224987   0.276   5.447   8.705 -0.7173  0.7523 -0.1517
 1143TIP3    H124988   0.226   5.392   8.644 -0.5744 -0.4511  0.7745
 1143TIP3    H224989   0.235   5.433   8.790  0.8571  0.0754  0.5595
 1144TIP3   OH224990   0.458   3.618   7.038  0.3552 -0.9284  0.2281
 1144TIP3    H124991   0.421   3.672   7.107 -2.0721 -1.5928 -0.4423
 1144TIP3    H224992   0.475   3.679   6.966  1.1765 -0.5156  0.7656
 1145TIP3   OH224993   5.970   1.718   8.181  0.0760 -0.5383  0.2491
 1145TIP3    H124994   6.035   1.652   8.158 -0.0563 -1.4674  2.2769
 1145TIP3    H224995   6.020   1.799   8.192  1.0101 -1.2865  2.0260
 1146TIP3   OH224996   1.080   3.711   1.151  0.0743 -0.1520  0.1093
 1146TIP3    H124997   1.054   3.782   1.092 -0.2149  0.0139  0.4289
 1146TIP3    H224998   1.026   3.636   1.124  0.9899 -0.5137 -0.7886
 1147TIP3   OH224999   1.313   2.385   1.872  0.1036 -0.5896 -0.0184
 1147TIP3    H125000   1.365   2.459   1.841  0.7676 -1.3829 -0.8417
 1147TIP3    H225001   1.242   2.377   1.808 -1.1809  0.5717  1.1682
 1148TIP3   OH225002   5.487   5.897   0.304  0.4334 -0.1462  0.1402
 1148TIP3    H125003   5.465   5.838   0.377  0.3193 -1.5984 -1.0182
 1148TIP3    H225004   5.471   5.845   0.226  1.0796  1.2008 -0.9281
 1149TIP3   OH225005   5.455   3.606   8.557 -0.1234 -0.0679 -0.3616
 1149TIP3    H125006   5.387   3.560   8.508 -0.4508 -0.3678  0.3684
 1149TIP3    H225007   5.497   3.537   8.609 -0.5968  0.4465  0.7188
 1150TIP3   OH225008   6.056   0.063   1.793 -0.3246  0.1175  0.0074
 1150TIP3    H125009   5.980   0.006   1.801  0.0450 -0.2718  0.8205
 1150TIP3    H225010   6.122   0.009   1.749 -0.2591  0.1937  0.0113
 1151TIP3   OH225011   2.780   2.449   1.628 -0.2568  0.0868  0.5641
 1151TIP3    H125012   2.694   2.427   1.593 -0.8756 -0.1074  2.1284
 1151TIP3    H225013   2.813   2.368   1.667  0.5453  0.2076  0.1637
 1152TIP3   OH225014   1.439   2.768   0.626 -0.4173 -0.1007 -0.0741
 1152TIP3    H125015   1.409   2.795   0.539  1.2851  0.5299 -0.4956
 1152TIP3    H225016   1.506   2.702   0.608  0.0181  0.1105  0.7577
 1153TIP3   OH225017   2.652   0.889   7.021 -0.1037  0.0163 -0.0576
 1153TIP3    H125018   2.656   0.985   7.026  0.9905  0.0228 -0.6842
 1153TIP3    H225019   2.743   0.862   7.012 -0.5492 -0.8880 -2.6746
 1154TIP3   OH225020   6.555   3.821   0.679 -0.3486 -0.2166 -0.2364
 1154TIP3    H125021   6.472   3.782   0.706 -0.3850  0.3715  0.5375
 1154TIP3    H225022   6.622   3.766   0.721 -0.4044  0.6748  1.0901
 1155TIP3   OH225023   4.931   3.757   7.551 -0.2701  0.1259 -0.0667
 1155TIP3    H125024   4.982   3.814   7.494  0.1747  0.2192  0.4072
 1155TIP3    H225025   4.841   3.789   7.544 -0.2089  0.1699 -0.6608
 1156TIP3   OH225026   0.988   5.980   1.879 -0.3055 -0.2334 -0.7488
 1156TIP3    H125027   1.005   5.899   1.831 -1.3173  0.0263 -1.5882
 1156TIP3    H225028   1.069   5.998   1.926 -0.3838 -2.3171  0.3424
 1157TIP3   OH225029   6.585   2.840   7.697  0.0898  0.8524  0.1929
 1157TIP3    H125030   6.616   2.764   7.746  1.1257  0.3835 -1.1124
 1157TIP3    H225031   6.563   2.905   7.763  0.0682 -0.2609  1.3059
 1158TIP3   OH225032   0.473   1.900   2.369  0.1429 -1.0562  0.3478
 1158TIP3    H125033   0.532   1.975   2.375 -1.1305  0.0120 -0.0626
 1158TIP3    H225034   0.529   1.828   2.339  1.2529 -0.1175  0.0832
 1159TIP3   OH225035   2.091   6.736   8.266 -0.1061 -0.0289 -0.3264
 1159TIP3    H125036   2.137   6.749   8.183 -0.1062  0.2816 -0.2789
 1159TIP3    H225037   2.110   6.646   8.289  0.4051  0.0661 -0.3568
 1160TIP3   OH225038   0.394   6.685   8.620  0.1129  0.2814  0.2805
 1160TIP3    H125039   0.330   6.615   8.605  0.6294 -0.2024  0.2734
 1160TIP3    H225040   0.442   6.657   8.697  1.1686 -0.0184 -0.4568
 1161TIP3   OH225041   3.837   6.261   0.203 -0.1911 -0.2842 -0.4319
 1161TIP3    H125042   3.846   6.318   0.280 -1.2278 -0.5461 -0.1064
 1161TIP3    H225043   3.793   6.316   0.138 -1.5202 -0.7977  0.0043
 1162TIP3   OH225044   4.271   4.317   7.476  0.4755 -0.0355 -0.3988
 1162TIP3    H125045   4.193   4.261   7.478  0.1355  0.4401  0.3072
 1162TIP3    H225046   4.293   4.330   7.569  1.3815 -0.1416 -0.5900
 1163TIP3   OH225047   5.654   6.231   2.121  0.2641  0.3313 -0.0684
 1163TIP3    H125048   5.611   6.151   2.091  1.1055  0.9175 -3.2535
 1163TIP3    H225049   5.685   6.211   2.209  0.3784 -2.8505 -0.7293
 1164TIP3   OH225050   0.109   5.984   6.520 -0.5002  0.1561 -0.3941
 1164TIP3    H125051   0.042   6.012   6.457 -0.4886 -0.0153 -0.4842
 1164TIP3    H225052   0.084   5.895   6.543 -0.9390  0.4832  0.4365
 1165TIP3   OH225053   6.337   1.586   6.675 -0.0577  0.8210 -0.3489
 1165TIP3    H125054   6.338   1.503   6.724 -0.1529  0.1845 -1.3948
 1165TIP3    H225055   6.429   1.605   6.658 -0.1110 -0.3057 -2.1003
 1166TIP3   OH225056   6.650   1.627   0.693 -0.1421  0.1975 -0.0461
 1166TIP3    H125057   6.580   1.633   0.758  0.0166  0.3892  0.1083
 1166TIP3    H225058   6.685   1.539   0.705  0.7228  0.6556  1.0076
 1167TIP3   OH225059   0.728   2.847   0.894  0.6594 -0.1151  0.4750
 1167TIP3    H125060   0.769   2.888   0.817  0.1133  1.7155  1.1105
 1167TIP3    H225061   0.704   2.760   0.864  0.5288  0.5171 -1.4207
 1168TIP3   OH225062   6.775   4.478   0.544  0.1567 -0.7486  0.3866
 1168TIP3    H125063   6.747   4.408   0.484  0.9419 -2.0901  1.5471
 1168TIP3    H225064   6.812   4.545   0.486 -0.7292 -1.2120 -0.7593
 1169TIP3   OH225065   2.394   6.694   1.749 -0.1139  0.3842  0.1148
 1169TIP3    H125066   2.403   6.637   1.826 -0.6655  1.0471  0.6859
 1169TIP3    H225067   2.334   6.763   1.778 -2.3398 -0.6921 -1.6496
 1170TIP3   OH225068   6.255   5.995   2.457 -0.0941 -0.0886 -0.6674
 1170TIP3    H125069   6.228   6.072   2.406  1.1087  0.4752 -0.4954
 1170TIP3    H225070   6.320   5.952   2.401 -0.9253 -1.1340 -0.8642
 1171TIP3   OH225071   4.330   5.999   2.017 -0.3088  0.1906  0.1084
 1171TIP3    H125072   4.256   5.942   2.037  0.0681 -0.2991  0.1213
 1171TIP3    H225073   4.309   6.082   2.060 -1.1106  0.2390 -0.3652
 1172TIP3   OH225074   0.728   3.161   0.445  0.3124 -0.2604 -0.5617
 1172TIP3    H125075   0.636   3.187   0.449  0.1162 -0.7388 -1.6176
 1172TIP3    H225076   0.776   3.243   0.455 -0.2247  0.0167 -0.1714
 1173TIP3   OH225077   3.636   3.121   8.719 -0.0420  0.1065  0.0595
 1173TIP3    H125078   3.693   3.198   8.716  0.4526 -0.2711 -0.6317
 1173TIP3    H225079   3.694   3.049   8.744 -0.6900  0.1018  1.6551
 1174TIP3   OH225080   2.026   6.720   8.718  0.3869 -0.5539  0.2305
 1174TIP3    H125081   2.009   6.748   8.628 -0.9317 -0.6453  0.4351
 1174TIP3    H225082   2.053   6.801   8.763  2.4357 -0.7544 -0.5316
 1175TIP3   OH225083   6.443   1.827   7.271  0.0178  0.4207  0.5626
 1175TIP3    H125084   6.400   1.844   7.355  1.1178 -0.6066  1.3576
 1175TIP3    H225085   6.377   1.851   7.205 -0.7888  1.4389  1.6993
 1176TIP3   OH225086   2.765   4.877   7.648  0.3791  0.3388 -0.0624
 1176TIP3    H125087   2.833   4.816   7.678  0.6465  0.2991 -0.7225
 1176TIP3    H225088   2.770   4.951   7.709 -1.6217 -1.3196  2.3081
 1177TIP3   OH225089   1.588   4.314   1.806 -0.2734  0.0438  0.2758
 1177TIP3    H125090   1.513   4.305   1.748 -0.6747 -0.2487  0.8246
 1177TIP3    H225091   1.663   4.323   1.748 -0.8218  1.1943 -0.2922
 1178TIP3   OH225092   0.662   0.666   1.004 -0.3967 -0.7409 -0.7310
 1178TIP3    H125093   0.744   0.627   1.034  0.7554  0.4180 -2.2221
 1178TIP3    H225094   0.656   0.749   1.051  0.2154 -0.0117 -1.8994
 1179TIP3   OH225095   3.576   6.544   1.596  0.0653  0.5979 -0.7853
 1179TIP3    H125096   3.563   6.634   1.567  0.6729  0.9377 -0.0452
 1179TIP3    H225097   3.650   6.549   1.657 -1.0178 -0.1134  0.6479
 1180TIP3   OH225098   2.556   4.946   0.725 -0.2219 -0.5531 -0.4929
 1180TIP3    H125099   2.630   4.908   0.678  1.1081  0.6925  0.5040
 1180TIP3    H225100   2.524   5.016   0.669  0.8572  0.4112  0.0540
 1181TIP3   OH225101   0.613   6.731   7.392 -0.3786  0.1832  0.2590
 1181TIP3    H125102   0.675   6.798   7.364 -0.8095  0.1025 -0.9466
 1181TIP3    H225103   0.627   6.723   7.486  0.0391  1.5996  0.3414
 1182TIP3   OH225104   1.470   0.496   7.457 -0.6355  0.2209  0.6857
 1182TIP3    H125105   1.512   0.411   7.447 -2.1692 -0.8013  2.3959
 1182TIP3    H225106   1.524   0.540   7.523 -0.3036  0.2890  0.3773
 1183TIP3   OH225107   6.620   4.074   1.322  0.5935 -0.1724  0.2824
 1183TIP3    H125108   6.656   3.996   1.280  1.7422 -0.3879  1.6008
 1183TIP3    H225109   6.696   4.125   1.348 -0.0874  0.3388  1.3631
 1184TIP3   OH225110   1.290   1.507   7.379 -0.3444 -0.1267  0.0038
 1184TIP3    H125111   1.326   1.479   7.463 -0.4430 -0.2003  0.0219
 1184TIP3    H225112   1.268   1.425   7.334 -3.5574 -0.1048  1.2942
 1185TIP3   OH225113   0.670   6.412   6.628  0.3090  0.2203  0.2439
 1185TIP3    H125114   0.616   6.407   6.707  0.8645 -0.0759  0.6152
 1185TIP3    H225115   0.613   6.453   6.562  1.0096  4.1348  1.8018
 1186TIP3   OH225116   4.573   0.083   1.928 -0.3465  0.4244 -0.2182
 1186TIP3    H125117   4.606   0.002   1.966 -0.1661 -1.2303 -3.5603
 1186TIP3    H225118   4.646   0.145   1.937  0.0534 -0.1980  1.0753
 1187TIP3   OH225119   0.930   1.506   1.630  0.2252 -0.8045 -0.5161
 1187TIP3    H125120   0.933   1.518   1.535  0.3749 -0.2563 -0.4435
 1187TIP3    H225121   1.022   1.497   1.656  0.3651  1.3459 -0.1385
 1188TIP3   OH225122   6.030   4.114   2.031  0.3654 -0.1031  0.1143
 1188TIP3    H125123   5.969   4.086   2.100  1.9792 -2.5926  0.6903
 1188TIP3    H225124   6.116   4.111   2.073  1.1743  0.5086 -1.4270
 1189TIP3   OH225125   2.185   6.346   6.405 -0.3716 -0.2944 -0.5186
 1189TIP3    H125126   2.131   6.296   6.343 -1.2884 -0.2989  0.2687
 1189TIP3    H225127   2.154   6.436   6.394  0.4845 -0.0599 -1.1069
 1190TIP3   OH225128   3.199   2.182   7.231  0.1622 -0.3359 -0.0919
 1190TIP3    H125129   3.178   2.196   7.139  3.4178  2.5973 -0.6287
 1190TIP3    H225130   3.295   2.180   7.233  0.1870 -1.4608  3.1450
 1191TIP3   OH225131   2.031   2.491   8.249 -0.4531  0.0605 -0.0620
 1191TIP3    H125132   1.944   2.530   8.251 -0.7910 -0.5713 -1.2188
 1191TIP3    H225133   2.038   2.452   8.161  1.4775  1.1947 -0.4863
 1192TIP3   OH225134   3.398   1.118   1.925  0.1725  0.5478  0.1005
 1192TIP3    H125135   3.427   1.035   1.963  1.0801  1.2095  0.9158
 1192TIP3    H225136   3.320   1.141   1.975 -0.9450 -0.4694 -1.0664
 1193TIP3   OH225137   4.400   5.267   6.860  0.2882 -0.2719  0.4461
 1193TIP3    H125138   4.334   5.290   6.926 -1.3509 -1.8950 -0.5765
 1193TIP3    H225139   4.418   5.350   6.815 -0.3439  0.3706  1.3313
 1194TIP3   OH225140   3.429   3.960   1.894  0.3524  0.2457 -0.1493
 1194TIP3    H125141   3.348   4.011   1.893  0.3310  0.2141 -0.0768
 1194TIP3    H225142   3.482   4.001   1.962 -0.3908 -0.9377  1.2151
 1195TIP3   OH225143   5.597   5.549   1.872 -0.5155  0.3137  0.3317
 1195TIP3    H125144   5.560   5.508   1.950 -3.0487  2.1779  0.2517
 1195TIP3    H225145   5.531   5.613   1.845  1.3010  1.3667 -2.0170
 1196TIP3   OH225146   6.210   1.527   8.486 -0.0948 -0.5051 -0.1791
 1196TIP3    H125147   6.243   1.602   8.535 -1.6224  1.0445 -1.3914
 1196TIP3    H225148   6.285   1.498   8.434  0.4601  0.3566  0.1092
 1197TIP3   OH225149   3.176   3.515   1.431 -0.4671  0.5541 -0.3150
 1197TIP3    H125150   3.091   3.555   1.447 -0.9024 -0.4045 -0.1795
 1197TIP3    H225151   3.171   3.482   1.341  0.7515  2.8897 -1.3177
 1198TIP3   OH225152   3.058   5.260   7.789 -0.3593  0.0972 -0.1174
 1198TIP3    H125153   3.088   5.170   7.775 -3.9316 -1.1738 -0.5561
 1198TIP3    H225154   2.999   5.277   7.716 -0.8455  2.2814  0.7304
 1199TIP3   OH225155   6.626   2.019   7.814  0.4336  0.8602  0.7670
 1199TIP3    H125156   6.573   2.043   7.889 -1.2570  0.9086 -0.3774
 1199TIP3    H225157   6.601   1.928   7.794  1.4520  0.5708  0.7371
 1200TIP3   OH225158   0.808   2.649   2.121  0.4413 -0.5106  0.4469
 1200TIP3    H125159   0.714   2.653   2.106  0.0719  0.7939  2.5756
 1200TIP3    H225160   0.847   2.651   2.034 -1.4648  1.3354 -0.4562
 1201TIP3   OH225161   5.484   3.026   7.938 -0.9076  0.8230  0.1214
 1201TIP3    H125162   5.395   3.026   7.904 -0.4588 -0.6555 -1.1712
 1201TIP3    H225163   5.476   3.057   8.028 -2.6343  1.3003 -0.1663
 1202TIP3   OH225164   3.345   1.005   7.235  0.2264  0.4944  0.6714
 1202TIP3    H125165   3.434   1.017   7.269  0.5461 -0.2174  0.1339
 1202TIP3    H225166   3.350   1.035   7.144 -0.3357  1.3470  0.9098
 1203TIP3   OH225167   4.118   1.336   2.049 -0.2595  0.1596  0.0352
 1203TIP3    H125168   4.140   1.365   2.138  1.0052 -0.3610 -0.1008
 1203TIP3    H225169   4.066   1.257   2.062 -1.9260  1.2389  0.3437
 1204TIP3   OH225170   1.785   2.878   1.306 -0.0770  0.3211 -0.2292
 1204TIP3    H125171   1.742   2.794   1.320  0.6969 -0.2183 -1.0017
 1204TIP3    H225172   1.793   2.915   1.394  0.1432 -0.6975  0.1989
 1205TIP3   OH225173   2.630   6.799   0.004  0.1580  0.4069 -0.2900
 1205TIP3    H125174   2.536   6.816   0.010  0.4415  2.7071 -1.4064
 1205TIP3    H225175   2.639   6.731  -0.063 -0.7257 -0.7448  0.6981
 1206TIP3   OH225176   3.091   2.797   2.516 -0.7985  0.1172 -0.4947
 1206TIP3    H125177   3.139   2.830   2.440  0.1003  1.6461  0.6904
 1206TIP3    H225178   3.005   2.839   2.511 -0.1546  1.5919  0.2191
 1207TIP3   OH225179   2.855   0.467   0.645  0.5143 -0.2650 -0.1360
 1207TIP3    H125180   2.908   0.454   0.566  2.6089 -0.5065  1.2073
 1207TIP3    H225181   2.908   0.428   0.715  0.2850  2.7108  1.8796
 1208TIP3   OH225182   6.364   3.137   7.829  0.8604  0.6723 -0.2957
 1208TIP3    H125183   6.350   3.097   7.743  0.0288  0.7720 -0.2138
 1208TIP3    H225184   6.442   3.094   7.862  1.2935  0.7493 -1.1727
 1209TIP3   OH225185   5.543   5.611   1.218  0.0055  0.9307  0.3834
 1209TIP3    H125186   5.505   5.525   1.204  1.0297  0.5794 -0.3326
 1209TIP3    H225187   5.481   5.672   1.177  0.3376  0.3454 -1.0298
 1210TIP3   OH225188   1.205   3.283   7.313 -0.5462 -0.0712  0.2493
 1210TIP3    H125189   1.193   3.315   7.224  0.8028 -1.0672 -0.3075
 1210TIP3    H225190   1.170   3.194   7.313 -0.9655  0.0791  0.8582
 1211TIP3   OH225191   4.091   5.179   8.266 -0.1037 -1.0324  0.2911
 1211TIP3    H125192   4.031   5.149   8.334 -0.0479 -2.4603 -0.2461
 1211TIP3    H225193   4.157   5.109   8.259  0.3612 -0.5266 -0.6496
 1212TIP3   OH225194   2.752   5.344   0.756 -0.1171 -0.7310  0.2372
 1212TIP3    H125195   2.816   5.295   0.807 -0.0872 -0.0373  0.8769
 1212TIP3    H225196   2.682   5.364   0.818 -0.3634 -0.3988 -0.1455
 1213TIP3   OH225197   5.121   2.825   2.012  0.2829  0.2855  0.2007
 1213TIP3    H125198   5.113   2.742   2.058  1.0592 -0.8678 -1.6322
 1213TIP3    H225199   5.207   2.859   2.038 -0.2649  0.8415  1.3835
 1214TIP3   OH225200   0.708   3.663   2.365  0.5604  0.1050  0.2723
 1214TIP3    H125201   0.613   3.654   2.358  0.7709 -1.0707 -1.7415
 1214TIP3    H225202   0.731   3.730   2.301  1.3278 -1.6302 -1.3518
 1215TIP3   OH225203   1.782   1.216   8.493 -0.2427 -0.2080 -0.1314
 1215TIP3    H125204   1.802   1.204   8.400  0.3935 -0.1707 -0.0001
 1215TIP3    H225205   1.745   1.131   8.520 -0.4772 -0.2024 -0.4251
 1216TIP3   OH225206   1.519   1.923   7.602  0.0239 -0.1988 -0.2302
 1216TIP3    H125207   1.487   1.866   7.671 -0.8723  0.1605 -0.3303
 1216TIP3    H225208   1.599   1.882   7.571 -0.8327 -1.6543 -0.6092
 1217TIP3   OH225209   5.968   3.052   2.202  0.2325  0.7111 -0.1976
 1217TIP3    H125210   6.026   3.001   2.145  0.2373  1.2385 -0.6707
 1217TIP3    H225211   5.890   3.068   2.150 -0.7653 -0.7536  0.7352
 1218TIP3   OH225212   4.619   5.173   6.988  0.2576  0.1771 -0.1806
 1218TIP3    H125213   4.617   5.082   6.957  1.2604  0.7153 -1.9819
 1218TIP3    H225214   4.547   5.216   6.943  0.1701  0.4238  0.1869
 1219TIP3   OH225215   2.013   4.545   7.735 -0.6460  0.2699  0.8253
 1219TIP3    H125216   1.957   4.520   7.661 -1.1543  1.6348  0.7237
 1219TIP3    H225217   2.101   4.526   7.705 -0.7558  1.7619 -0.5791
 1220TIP3   OH225218   4.268   4.062   0.035 -0.3619  0.1101 -0.3582
 1220TIP3    H125219   4.223   4.093  -0.044 -0.4733  0.0970 -0.3010
 1220TIP3    H225220   4.206   4.079   0.106  0.1397  1.0385 -0.1318
 1221TIP3   OH225221   4.431   6.523   2.207  0.3640  0.0738 -0.2656
 1221TIP3    H125222   4.385   6.448   2.245  0.5067 -0.4960 -1.1873
 1221TIP3    H225223   4.488   6.555   2.278  0.0930 -0.5071  0.2224
 1222TIP3   OH225224   3.271   5.919   8.288 -0.0476  0.1618 -0.2846
 1222TIP3    H125225   3.228   5.993   8.332 -0.2534  0.6934 -1.3484
 1222TIP3    H225226   3.357   5.954   8.262 -0.1785  0.0575 -0.8628
 1223TIP3   OH225227   1.373   1.918   1.524 -0.4396 -0.1459 -0.1990
 1223TIP3    H125228   1.447   1.927   1.464  0.7554  2.8262  1.5163
 1223TIP3    H225229   1.304   1.972   1.487 -0.4100  0.0872  0.0804
 1224TIP3   OH225230   0.712   1.342   7.081 -0.5925 -0.6468 -0.3026
 1224TIP3    H125231   0.790   1.354   7.027 -1.1527 -1.3562 -1.3082
 1224TIP3    H225232   0.745   1.339   7.171  0.2663  1.4133 -0.5069
 1225TIP3   OH225233   5.241   3.398   0.020 -0.6198 -0.0140  1.0029
 1225TIP3    H125234   5.175   3.333  -0.006  0.4517 -1.2648  1.3305
 1225TIP3    H225235   5.305   3.349   0.071  0.9023  1.0363  0.1983
 1226TIP3   OH225236   1.592   2.940   1.122 -0.1526 -0.4137  0.2668
 1226TIP3    H125237   1.660   2.935   1.189 -0.4602  0.4189  0.6492
 1226TIP3    H225238   1.603   3.026   1.082 -0.1739 -0.7728 -0.5499
 1227TIP3   OH225239   5.786   1.382   1.055 -0.4124  0.0527 -0.4067
 1227TIP3    H125240   5.797   1.461   1.109  3.2945 -0.7947  0.3129
 1227TIP3    H225241   5.714   1.335   1.097 -0.5586  1.5324  1.1034
 1228TIP3   OH225242   4.145   3.534   2.020  0.0981  0.0407  0.2863
 1228TIP3    H125243   4.239   3.536   2.039  0.1840  2.5883 -0.1119
 1228TIP3    H225244   4.139   3.539   1.925 -0.4610 -0.2517  0.3004
 1229TIP3   OH225245   6.523   2.002   0.383 -0.4252  0.4873 -0.6649
 1229TIP3    H125246   6.490   2.091   0.398  1.5427  0.9931  1.2002
 1229TIP3    H225247   6.495   1.980   0.295 -2.2405  2.3697 -0.6313
 1230TIP3   OH225248   4.747   5.740   1.391 -0.0881 -0.4570  0.1573
 1230TIP3    H125249   4.681   5.677   1.423  1.1308 -1.3797  0.9501
 1230TIP3    H225250   4.765   5.711   1.301  1.7670 -2.4735  1.0667
 1231TIP3   OH225251   0.132   1.337   6.514 -0.2567  0.2670  0.0600
 1231TIP3    H125252   0.188   1.263   6.492  1.8443  1.1069  2.2370
 1231TIP3    H225253   0.073   1.303   6.582  0.0984  0.3290  0.4039
 1232TIP3   OH225254   3.752   5.538   7.899  0.0944 -0.2375  0.0750
 1232TIP3    H125255   3.658   5.521   7.912  0.3568 -1.5704  0.3572
 1232TIP3    H225256   3.793   5.510   7.980  0.6891  1.0401  0.2449
 1233TIP3   OH225257   6.446   4.723   6.500  0.3394  0.2128 -0.3333
 1233TIP3    H125258   6.451   4.804   6.449 -0.2982  0.5111  0.0628
 1233TIP3    H225259   6.527   4.723   6.552 -0.2322  1.2551  0.6095
 1234TIP3   OH225260   6.669   5.836   6.388 -0.6844 -0.1947 -0.6003
 1234TIP3    H125261   6.573   5.836   6.391 -0.6797 -1.1613  0.2372
 1234TIP3    H225262   6.692   5.926   6.366 -1.7661  0.2186 -0.1236
 1235TIP3   OH225263   5.525   2.743   7.963 -0.1760  0.6111  0.1569
 1235TIP3    H125264   5.515   2.838   7.952  1.4423  0.8110  0.2343
 1235TIP3    H225265   5.619   2.729   7.966 -0.3620 -1.2005 -1.3350
 1236TIP3   OH225266   2.913   2.896   2.168 -0.0080 -0.0533  0.4987
 1236TIP3    H125267   2.834   2.932   2.209 -1.3295  0.5439 -2.3105
 1236TIP3    H225268   2.948   2.968   2.116 -0.3098 -1.5154 -1.9121
 1237TIP3   OH225269   1.437   4.737   1.042 -0.5395  0.2970  0.0397
 1237TIP3    H125270   1.380   4.671   1.003  0.1891  0.4350 -1.3196
 1237TIP3    H225271   1.524   4.717   1.007 -0.0425  1.0654  0.8053
 1238TIP3   OH225272   2.018   1.298   8.599  0.2902 -0.4436 -0.5437
 1238TIP3    H125273   2.037   1.355   8.524  0.3201  0.5661  0.2021
 1238TIP3    H225274   1.927   1.271   8.587  0.7584 -1.5779 -1.7463
 1239TIP3   OH225275   6.070   3.780   7.505 -0.3861 -0.1095 -0.5332
 1239TIP3    H125276   6.046   3.790   7.597  1.4337 -1.8920  0.2180
 1239TIP3    H225277   6.053   3.687   7.486 -1.7247  0.4553 -2.3391
 1240TIP3   OH225278   0.513   5.716   0.193  0.3364  0.2669 -0.3708
 1240TIP3    H125279   0.551   5.769   0.264 -1.1582 -0.1851  0.8166
 1240TIP3    H225280   0.450   5.774   0.151  1.2712  0.5556 -1.4182
 1241TIP3   OH225281   3.590   2.353   0.365  0.5204 -0.2217 -0.3173
 1241TIP3    H125282   3.623   2.420   0.426  1.1740 -1.7886  1.1473
 1241TIP3    H225283   3.498   2.342   0.390  0.6773 -0.5667  0.1186
 1242TIP3   OH225284   0.051   5.821   7.660  0.3674  0.2321  0.2281
 1242TIP3    H125285  -0.017   5.874   7.701 -1.1124 -1.0796 -0.4657
 1242TIP3    H225286   0.031   5.823   7.567  1.7064  0.3851 -0.0800
 1243TIP3   OH225287   4.597   4.611   1.032  0.4831  0.6170  0.1242
 1243TIP3    H125288   4.616   4.701   1.057 -0.2793  0.3407  1.7955
 1243TIP3    H225289   4.519   4.617   0.978  1.3675  1.0845 -1.1671
 1244TIP3   OH225290   5.840   5.002   8.107  0.2526  0.2876 -0.1053
 1244TIP3    H125291   5.774   5.020   8.174  1.2279  0.2620  0.8948
 1244TIP3    H225292   5.812   5.053   8.031  0.0487  1.7110  0.8959
 1245TIP3   OH225293   3.171   1.159   1.025  0.2628  0.3936 -0.1856
 1245TIP3    H125294   3.244   1.141   1.084  0.6754 -1.0586 -1.0662
 1245TIP3    H225295   3.194   1.242   0.983  1.1683  0.2071 -0.0854
 1246TIP3   OH225296   5.159   1.116   1.723 -0.7394  0.1717  0.4312
 1246TIP3    H125297   5.172   1.185   1.788  0.5184  1.2956 -0.9464
 1246TIP3    H225298   5.172   1.159   1.639 -1.0694 -1.5181 -0.5413
 1247TIP3   OH225299   3.754   6.845   1.815  0.6937  0.0287  0.1727
 1247TIP3    H125300   3.769   6.926   1.864 -1.1159  0.5381 -0.0468
 1247TIP3    H225301   3.752   6.777   1.882  1.6416  0.2150  0.4168
 1248TIP3   OH225302   3.436   4.953   1.934 -0.2395  0.0855  0.4366
 1248TIP3    H125303   3.477   4.868   1.917 -0.2433  0.5038 -2.1499
 1248TIP3    H225304   3.503   5.017   1.910 -1.8339  0.7667 -2.8398
 1249TIP3   OH225305   6.831   6.840   0.660 -0.0569  0.3801 -0.4510
 1249TIP3    H125306   6.747   6.833   0.616  1.2233 -2.2039 -2.7911
 1249TIP3    H225307   6.835   6.932   0.688 -3.0238  0.9401 -1.4714
 1250TIP3   OH225308   4.792   6.142   0.227  0.5098  0.7191  0.5329
 1250TIP3    H125309   4.768   6.064   0.176  1.3418 -0.5596  2.0010
 1250TIP3    H225310   4.714   6.161   0.279  0.4100  0.6658  0.4047
 1251TIP3   OH225311   4.821   1.703   0.867  0.1730 -0.3396 -0.2512
 1251TIP3    H125312   4.860   1.706   0.780  0.2646 -0.2317 -0.2070
 1251TIP3    H225313   4.772   1.621   0.869  0.6654 -0.6407 -0.1938
 1252TIP3   OH225314   1.746   5.354   1.164 -0.0732 -0.7931 -0.7850
 1252TIP3    H125315   1.803   5.327   1.236 -0.8977  0.3263  0.3394
 1252TIP3    H225316   1.794   5.425   1.121 -0.9260  0.8011  0.7408
 1253TIP3   OH225317   0.026   1.122   6.709  0.8868 -0.0468 -0.6906
 1253TIP3    H125318  -0.055   1.171   6.726  1.0152  0.4291 -1.3902
 1253TIP3    H225319   0.065   1.109   6.795 -0.7240 -1.6875 -0.1223
 1254TIP3   OH225320   4.454   2.140   1.427 -0.9556  0.0825  0.2205
 1254TIP3    H125321   4.397   2.156   1.503  0.1236 -1.5573  1.4394
 1254TIP3    H225322   4.458   2.045   1.420  0.9349  0.1719 -0.3712
 1255TIP3   OH225323   1.324   2.810   7.841  0.0277 -0.2847  0.2651
 1255TIP3    H125324   1.355   2.899   7.856  0.8480 -0.6656  0.8810
 1255TIP3    H225325   1.350   2.790   7.751 -1.4230  0.5883 -0.3906
 1256TIP3   OH225326   4.827   3.568   1.536  0.4054 -0.1083 -0.3534
 1256TIP3    H125327   4.737   3.584   1.566 -0.1607 -3.2856  0.0171
 1256TIP3    H225328   4.861   3.502   1.597  2.5874  0.1752 -1.1856
 1257TIP3   OH225329   1.003   0.699   1.824  0.1165  0.1495  0.1719
 1257TIP3    H125330   0.919   0.652   1.820 -0.0658  0.2371  2.0232
 1257TIP3    H225331   1.001   0.758   1.748 -1.6288  0.3453  0.3124
 1258TIP3   OH225332   4.145   0.099   0.837 -0.2873  0.7034 -0.7645
 1258TIP3    H125333   4.217   0.045   0.804 -0.5822 -1.1024  1.3307
 1258TIP3    H225334   4.084   0.037   0.878 -2.2357  2.3448 -1.0197
 1259TIP3   OH225335   2.206   5.633   6.901 -0.5973  0.1652  0.6364
 1259TIP3    H125336   2.234   5.706   6.847 -0.9243  0.0229  0.2690
 1259TIP3    H225337   2.118   5.612   6.870  0.2172 -1.6828 -0.6824
 1260TIP3   OH225338   0.662   5.241   0.614 -0.4921  0.1897  0.8028
 1260TIP3    H125339   0.658   5.232   0.709  1.3737 -0.6540  0.8265
 1260TIP3    H225340   0.720   5.171   0.585 -0.3157  0.9869 -0.8762
 1261TIP3   OH225341   4.715   5.149   1.354 -0.4381  0.3889 -0.5739
 1261TIP3    H125342   4.759   5.070   1.321  1.0893 -0.1789  2.4599
 1261TIP3    H225343   4.783   5.217   1.353 -0.2994  0.3387  1.2442
 1262TIP3   OH225344   0.006   0.885   7.415  0.6309  0.0748 -0.3788
 1262TIP3    H125345   0.049   0.912   7.497 -3.4255 -0.3732  2.1738
 1262TIP3    H225346  -0.069   0.834   7.444 -1.9161  1.1879 -4.3658
 1263TIP3   OH225347   5.945   3.695   0.199 -0.3786  0.2599 -0.8771
 1263TIP3    H125348   5.994   3.720   0.121  1.9634 -0.0129  0.3837
 1263TIP3    H225349   5.887   3.625   0.171  2.0832 -1.5032 -1.9886
 1264TIP3   OH225350   4.945   6.321   6.577 -0.2267  0.2735 -0.6315
 1264TIP3    H125351   5.019   6.318   6.638  0.4003  0.5504 -1.3711
 1264TIP3    H225352   4.889   6.248   6.604  0.0729  0.3518  0.2346
 1265TIP3   OH225353   4.054   5.639   7.986 -0.4218  0.0056 -0.2129
 1265TIP3    H125354   4.057   5.691   8.066  0.6880  1.8236 -1.3675
 1265TIP3    H225355   4.037   5.550   8.016  0.8164  0.4770  2.1268
 1266TIP3   OH225356   4.980   5.058   8.699 -0.9025  0.1297 -0.4594
 1266TIP3    H125357   5.039   5.111   8.645  0.1518  1.8938  2.2174
 1266TIP3    H225358   4.945   5.120   8.764 -0.8859 -2.1127  1.8490
 1267TIP3   OH225359   6.239   3.434   7.722  0.0540 -0.1299 -0.2378
 1267TIP3    H125360   6.168   3.379   7.755  1.6508 -1.2226  1.5975
 1267TIP3    H225361   6.240   3.418   7.628 -1.8698 -0.3463 -0.2701
 1268TIP3   OH225362   4.526   1.872   8.237  0.7689  0.2253  0.0299
 1268TIP3    H125363   4.526   1.776   8.231  4.3730 -0.0296  1.7057
 1268TIP3    H225364   4.596   1.900   8.179 -0.7087  1.9821 -0.9891
 1269TIP3   OH225365   0.214   1.030   6.953  0.0842 -0.0392  0.3182
 1269TIP3    H125366   0.157   0.983   7.014 -1.2059  0.4748 -0.4495
 1269TIP3    H225367   0.240   0.964   6.889  0.3260 -0.2596  0.6368
 1270TIP3   OH225368   2.689   2.701   8.247 -0.8929 -0.4875  0.0145
 1270TIP3    H125369   2.766   2.696   8.189 -0.5531  0.3499  0.3792
 1270TIP3    H225370   2.617   2.724   8.189 -0.8606 -1.1674 -0.3145
 1271TIP3   OH225371   2.257   2.174   1.624 -0.3102 -0.0311 -0.6773
 1271TIP3    H125372   2.275   2.092   1.578  0.5615 -1.6703  2.3251
 1271TIP3    H225373   2.172   2.160   1.665  1.3093 -1.0796  2.7686
 1272TIP3   OH225374   3.220   0.814   7.366  0.1650 -0.6053  0.0503
 1272TIP3    H125375   3.291   0.861   7.322 -1.4950  1.1422 -0.9356
 1272TIP3    H225376   3.177   0.881   7.420 -1.2307 -1.4007 -0.0283
 1273TIP3   OH225377   2.638   1.492   8.354  0.9731 -0.2035 -0.0964
 1273TIP3    H125378   2.570   1.556   8.372  0.7468 -0.2802 -0.6427
 1273TIP3    H225379   2.647   1.493   8.258 -1.1340 -3.0674 -0.4543
 1274TIP3   OH225380   0.842   1.621   0.809  0.1279 -0.0444  0.7953
 1274TIP3    H125381   0.817   1.666   0.889  2.5954  2.0199  0.5468
 1274TIP3    H225382   0.807   1.674   0.738 -0.3680 -0.7701  0.4835
 1275TIP3   OH225383   6.570   5.396   0.472  0.0730  0.0606  0.3811
 1275TIP3    H125384   6.580   5.491   0.485 -0.7275  0.5714 -2.2006
 1275TIP3    H225385   6.635   5.374   0.406  0.6175 -1.3503  1.3413
 1276TIP3   OH225386   4.736   2.499   1.578 -0.3100 -0.2655  0.3983
 1276TIP3    H125387   4.672   2.488   1.508  1.0000 -0.5102 -0.7893
 1276TIP3    H225388   4.757   2.410   1.605  0.2477 -0.2243  0.1079
 1277TIP3   OH225389   3.717   1.862   6.743 -0.0600  0.3623 -0.8550
 1277TIP3    H125390   3.649   1.921   6.776  0.5587  0.1764  0.8096
 1277TIP3    H225391   3.796   1.886   6.791  1.3080  1.0754 -3.2630
 1278TIP3   OH225392   4.126   0.274   6.748 -0.2070 -0.0642  0.9543
 1278TIP3    H125393   4.195   0.340   6.745  0.6779 -0.9667 -1.4949
 1278TIP3    H225394   4.162   0.204   6.802  0.2931  0.0097  0.7231
 1279TIP3   OH225395   6.223   1.992   2.057  0.1646 -0.4967  0.0419
 1279TIP3    H125396   6.301   1.935   2.052  0.1292 -0.5518  0.1227
 1279TIP3    H225397   6.176   1.961   2.134 -0.6172 -1.3342 -0.7490
 1280TIP3   OH225398   6.726   2.594   7.144  0.1392  0.8595 -0.3208
 1280TIP3    H125399   6.808   2.635   7.173  0.9678 -1.1387  0.3230
 1280TIP3    H225400   6.726   2.605   7.049  1.9497 -0.3873 -0.5226
 1281TIP3   OH225401   4.875   2.575   8.350  0.4842  0.0017 -0.6427
 1281TIP3    H125402   4.904   2.644   8.290 -0.6998  0.6148 -0.5416
 1281TIP3    H225403   4.798   2.538   8.308 -1.1936  1.3504  1.0661
 1282TIP3   OH225404   6.148   4.040   0.356  0.0036 -0.2484  0.0691
 1282TIP3    H125405   6.064   4.079   0.333  0.4677  1.0841  0.5872
 1282TIP3    H225406   6.199   4.043   0.275 -0.6468 -1.7064 -0.4434
 1283TIP3   OH225407   1.622   4.796   8.145 -0.2405 -0.3984 -0.1165
 1283TIP3    H125408   1.637   4.867   8.083 -0.7929  0.5256  0.7853
 1283TIP3    H225409   1.536   4.815   8.183  0.4768 -0.4263  1.5886
 1284TIP3   OH225410   3.910   2.067   0.217 -0.4737  0.1466 -0.0263
 1284TIP3    H125411   3.876   2.145   0.174 -0.6833 -0.8813 -1.8199
 1284TIP3    H225412   3.913   2.090   0.310 -2.0426  1.7298 -0.3160
 1285TIP3   OH225413   5.102   5.761   6.960  0.2584 -0.1330 -0.5375
 1285TIP3    H125414   5.114   5.744   7.053 -1.0386  1.4849 -0.0350
 1285TIP3    H225415   5.014   5.729   6.941  0.4528 -0.3029 -1.1974
 1286TIP3   OH225416   4.077   3.935   7.452 -0.4596  0.0029 -0.7179
 1286TIP3    H125417   3.995   3.934   7.402 -1.5953 -0.5575  1.0822
 1286TIP3    H225418   4.094   3.844   7.473  1.2386 -0.0210 -1.9214
 1287TIP3   OH225419   4.473   0.923   1.453 -0.8289  0.4186 -0.1626
 1287TIP3    H125420   4.431   0.956   1.533  0.9451  0.9562  0.6041
 1287TIP3    H225421   4.427   0.967   1.382 -1.9974  0.4497  0.5699
 1288TIP3   OH225422   1.836   0.661   7.768  0.6095  0.1606  0.1927
 1288TIP3    H125423   1.912   0.609   7.739 -0.0863  0.3059 -2.0747
 1288TIP3    H225424   1.768   0.596   7.784  0.1453  0.2262 -1.3473
 1289TIP3   OH225425   4.652   1.167   7.028  0.1642  0.4361  0.1625
 1289TIP3    H125426   4.584   1.110   6.992 -1.4520  1.2149  1.8029
 1289TIP3    H225427   4.640   1.250   6.982 -0.3590  0.7251  0.8023
 1290TIP3   OH225428   5.454   1.780   6.977  0.1724 -0.2301  0.0223
 1290TIP3    H125429   5.498   1.724   6.912  2.7364  0.2596  1.2184
 1290TIP3    H225430   5.430   1.721   7.048 -0.8388 -0.4414 -0.4818
 1291TIP3   OH225431   0.750   5.533   2.296 -0.3738 -0.2116  0.4846
 1291TIP3    H125432   0.776   5.443   2.317 -1.4552 -0.3085  1.5471
 1291TIP3    H225433   0.831   5.578   2.274  0.2776 -1.2530  0.7079
 1292TIP3   OH225434   0.196   2.573   8.205 -0.0640  0.0732 -0.5946
 1292TIP3    H125435   0.229   2.623   8.280 -1.6448  0.4104 -0.0711
 1292TIP3    H225436   0.258   2.501   8.194  1.1151  0.9665 -0.0341
 1293TIP3   OH225437   1.541   6.387   0.395  0.0694 -0.2612  0.1340
 1293TIP3    H125438   1.488   6.308   0.405 -1.0165  0.4610  0.2849
 1293TIP3    H225439   1.484   6.458   0.426  0.6613  0.6935 -0.8928
 1294TIP3   OH225440   4.377   3.170   0.211  0.0221  0.3299 -0.3679
 1294TIP3    H125441   4.361   3.101   0.147  1.8777  0.7308 -1.3371
 1294TIP3    H225442   4.295   3.217   0.217 -0.6055 -0.5850 -1.3870
 1295TIP3   OH225443   2.380   4.016   1.439  0.1181  0.4150 -0.1677
 1295TIP3    H125444   2.312   4.043   1.501  1.0387 -0.0395  1.0845
 1295TIP3    H225445   2.346   3.935   1.400  0.1863 -0.1644  0.9256
 1296TIP3   OH225446   5.352   3.821   2.077 -0.3379 -0.1296  0.0182
 1296TIP3    H125447   5.327   3.728   2.085 -0.7148 -0.1012 -0.7163
 1296TIP3    H225448   5.374   3.847   2.166 -0.9663 -0.7236  0.3647
 1297TIP3   OH225449   4.184   2.721   8.040  0.2763 -0.3151  0.0092
 1297TIP3    H125450   4.134   2.652   8.083 -1.3496  1.9133  1.9223
 1297TIP3    H225451   4.140   2.803   8.064  1.8992  1.4231 -2.4073
 1298TIP3   OH225452   3.431   1.803   0.017 -0.1786  0.1750  1.0945
 1298TIP3    H125453   3.484   1.794   0.096 -0.2178  0.8019  1.1968
 1298TIP3    H225454   3.478   1.866  -0.037  1.0841 -1.9755 -0.4567
 1299TIP3   OH225455   1.314   1.073   7.432 -0.0092 -0.2366  1.2652
 1299TIP3    H125456   1.314   0.978   7.443 -2.3666 -0.7184 -1.7243
 1299TIP3    H225457   1.374   1.089   7.359 -1.7717  0.1650 -0.1584
 1300TIP3   OH225458   2.021   2.137   1.777  0.0378  0.0779  0.3789
 1300TIP3    H125459   1.930   2.157   1.801 -0.4900 -0.8097 -0.8062
 1300TIP3    H225460   2.068   2.137   1.861 -0.6230  2.5174  0.8497
 1301TIP3   OH225461   6.553   2.449   7.731 -0.3506 -0.0261  0.7749
 1301TIP3    H125462   6.634   2.500   7.736 -0.0059 -0.5774  0.8775
 1301TIP3    H225463   6.533   2.426   7.822 -0.1037 -0.6837  0.6727
 1302TIP3   OH225464   6.362   6.260   1.320  0.6814  0.5354 -0.3056
 1302TIP3    H125465   6.449   6.250   1.281  0.7533  1.3339 -0.3696
 1302TIP3    H225466   6.377   6.258   1.414  0.7723  0.6977 -0.3167
 1303TIP3   OH225467   6.477   4.481   8.350 -0.7406  0.1894  0.0423
 1303TIP3    H125468   6.441   4.570   8.355 -1.8317 -0.2080 -0.4136
 1303TIP3    H225469   6.449   4.449   8.264  0.0187 -0.4451  0.0213
 1304TIP3   OH225470   0.424   2.043   1.458 -0.1956 -0.4879  0.5992
 1304TIP3    H125471   0.505   2.085   1.489  0.6873 -2.4250  1.0885
 1304TIP3    H225472   0.447   2.005   1.373 -0.5202 -1.1991  0.8185
 1305TIP3   OH225473   3.545   4.780   8.114  0.0202  0.0918  0.1685
 1305TIP3    H125474   3.589   4.718   8.056 -1.6007 -0.2144 -0.8037
 1305TIP3    H225475   3.510   4.847   8.055 -2.9923 -1.0326  0.5073
 1306TIP3   OH225476   2.035   1.326   0.151  0.0434  0.1357 -0.2161
 1306TIP3    H125477   2.024   1.272   0.073  0.2905  0.3350 -0.3923
 1306TIP3    H225478   2.010   1.414   0.123 -0.5890  0.0728  0.1339
 1307TIP3   OH225479   1.898   1.431   8.099 -0.0474  0.5857  0.2712
 1307TIP3    H125480   1.975   1.486   8.084  0.0790  0.1618 -0.7511
 1307TIP3    H225481   1.851   1.434   8.016  0.9231 -2.3047 -0.4951
 1308TIP3   OH225482   2.632   1.923   0.996 -0.2670  0.0070  0.3463
 1308TIP3    H125483   2.544   1.934   1.031  0.5492  1.4258  2.1262
 1308TIP3    H225484   2.642   1.993   0.932 -0.9327 -1.1180 -1.0347
 1309TIP3   OH225485   3.532   4.689   1.891  0.2578  0.3499  0.6572
 1309TIP3    H125486   3.586   4.637   1.951 -0.6560  1.3675  2.4422
 1309TIP3    H225487   3.469   4.627   1.854 -0.5070  0.0627  2.3823
 1310TIP3   OH225488   1.697   6.239   1.713  0.1363  0.1529 -0.3430
 1310TIP3    H125489   1.726   6.307   1.653  1.9694 -0.1438  0.1618
 1310TIP3    H225490   1.628   6.281   1.765 -0.0891  1.0120 -1.3082
 1311TIP3   OH225491   6.053   0.347   8.219 -0.1805  0.0131 -0.1184
 1311TIP3    H125492   6.125   0.394   8.176 -0.9747  1.9544  0.6174
 1311TIP3    H225493   6.096   0.275   8.265  1.0735  0.0588 -1.1535
 1312TIP3   OH225494   3.989   0.949   1.648  0.1433  0.5570  0.4521
 1312TIP3    H125495   4.070   0.900   1.631  0.0790  0.2486  1.0070
 1312TIP3    H225496   3.983   1.011   1.576 -0.8214 -1.6046 -1.4607
 1313TIP3   OH225497   5.476   6.232   8.457 -0.0583 -0.6385  0.1024
 1313TIP3    H125498   5.432   6.232   8.372  0.5756 -0.9465 -0.2313
 1313TIP3    H225499   5.513   6.320   8.465  1.7656 -1.2607 -0.9478
 1314TIP3   OH225500   4.362   3.922   8.420 -0.1813 -0.5160  0.7431
 1314TIP3    H125501   4.296   3.881   8.476 -0.2931  0.5018  1.3797
 1314TIP3    H225502   4.383   4.005   8.464 -0.7413  0.6202 -1.0401
 1315TIP3   OH225503   2.226   2.986   0.787  0.7476  0.9127  0.5102
 1315TIP3    H125504   2.254   3.038   0.862  2.6146  0.4873  0.1476
 1315TIP3    H225505   2.237   3.045   0.712  0.6309  0.7572  0.3698
 1316TIP3   OH225506   2.680   1.329   0.451 -0.1181  0.0261  0.2373
 1316TIP3    H125507   2.693   1.234   0.448  1.2639  0.2078 -0.2234
 1316TIP3    H225508   2.687   1.358   0.360 -0.6836  0.5508  0.3568
 1317TIP3   OH225509   4.610   5.966   8.179  0.3503 -0.6428 -0.2857
 1317TIP3    H125510   4.577   6.036   8.236  0.4984  0.0589 -1.0329
 1317TIP3    H225511   4.568   5.983   8.094  1.1646 -0.8675 -0.7437
 1318TIP3   OH225512   2.715   6.077   7.499  0.1426  0.3597 -0.3921
 1318TIP3    H125513   2.652   6.010   7.472 -1.1891  0.7746  1.5020
 1318TIP3    H225514   2.767   6.035   7.568  1.3254  0.3460 -1.2523
 1319TIP3   OH225515   0.288   0.206   1.289  0.2334  0.9771  0.2522
 1319TIP3    H125516   0.338   0.175   1.214 -0.7109 -0.1020  0.0501
 1319TIP3    H225517   0.203   0.163   1.281  0.0074  1.0988  1.7537
 1320TIP3   OH225518   4.919   5.417   1.505  0.9705 -0.3043  0.0978
 1320TIP3    H125519   4.960   5.406   1.419  0.4043  1.0292 -0.3693
 1320TIP3    H225520   4.944   5.506   1.532 -0.4958  0.0332  0.4035
 1321TIP3   OH225521   4.339   4.692   0.405  0.4337  0.3421 -0.1154
 1321TIP3    H125522   4.353   4.786   0.417  1.6406 -0.1388  3.7205
 1321TIP3    H225523   4.248   4.678   0.431 -0.2152  0.5335 -2.1025
 1322TIP3   OH225524   4.163   0.992   0.540 -0.1057  0.9667 -0.2695
 1322TIP3    H125525   4.199   1.007   0.628 -1.8537  1.9367  0.3225
 1322TIP3    H225526   4.142   1.080   0.508 -1.0359  0.5039 -0.9743
 1323TIP3   OH225527   5.383   2.607   2.096  0.2062 -0.0209 -0.0509
 1323TIP3    H125528   5.354   2.581   2.008  0.5368 -0.4564 -0.0349
 1323TIP3    H225529   5.457   2.549   2.114  0.6683  0.6340  0.1762
 1324TIP3   OH225530   1.338   4.281   0.514 -0.2174  0.0820 -0.9763
 1324TIP3    H125531   1.257   4.230   0.518  0.4540 -0.9323  0.0407
 1324TIP3    H225532   1.403   4.222   0.475  0.7784 -0.1787  0.9825
 1325TIP3   OH225533   1.998   6.501   1.767 -0.5844 -0.4795 -0.4918
 1325TIP3    H125534   1.944   6.515   1.690 -0.1423  0.9397 -0.5631
 1325TIP3    H225535   2.061   6.434   1.740 -0.5540 -0.1318 -1.2929
 1326TIP3   OH225536   5.821   3.887   0.820 -0.7564 -0.2897  0.5371
 1326TIP3    H125537   5.833   3.792   0.822  1.6089 -0.0376  0.5059
 1326TIP3    H225538   5.825   3.909   0.727 -0.6688 -0.0854  0.5896
 1327TIP3   OH225539   3.473   4.097   8.035  0.0899  0.2173  0.3802
 1327TIP3    H125540   3.539   4.152   8.076 -0.9550 -0.4209  3.0872
 1327TIP3    H225541   3.393   4.114   8.084 -0.6166 -2.5518  0.3308
 1328TIP3   OH225542   3.794   0.599   7.498  0.2320 -0.4265  0.1395
 1328TIP3    H125543   3.810   0.505   7.510 -0.6772 -0.6410 -0.2996
 1328TIP3    H225544   3.780   0.632   7.587  0.0515 -0.8008  0.2511
 1329TIP3   OH225545   2.492   1.910   2.175  0.9298  0.1280 -0.4359
 1329TIP3    H125546   2.536   1.879   2.253  1.9692  0.3766 -0.9022
 1329TIP3    H225547   2.521   2.001   2.165  0.4154  0.2599 -0.8323
 1330TIP3   OH225548   5.077   0.019   8.398  0.3986  0.0786 -0.2876
 1330TIP3    H125549   5.110   0.056   8.480  0.7515 -0.7452 -0.0525
 1330TIP3    H225550   5.070  -0.075   8.414  2.0982 -0.3637 -1.7196
 1331TIP3   OH225551   2.036   5.298   0.380  0.3512 -0.1106  0.0825
 1331TIP3    H125552   2.002   5.248   0.306  0.0988  0.8498 -0.4571
 1331TIP3    H225553   2.063   5.382   0.343  1.6772 -0.1858  0.8084
 1332TIP3   OH225554   3.257   5.348   6.809 -0.4789  0.0630 -0.7748
 1332TIP3    H125555   3.185   5.285   6.803  0.0011 -0.4583 -1.3041
 1332TIP3    H225556   3.221   5.430   6.775 -0.9844 -0.0397 -0.4908
 1333TIP3   OH225557   1.952   1.334   7.408 -0.3356  0.1299  0.3051
 1333TIP3    H125558   1.857   1.340   7.421 -0.2501  2.7833  0.1772
 1333TIP3    H225559   1.962   1.265   7.343 -2.4167  1.4323 -1.5601
 1334TIP3   OH225560   0.164   1.174   7.465 -0.2289  0.1640 -0.1345
 1334TIP3    H125561   0.259   1.163   7.457 -0.3210 -1.7455  0.8642
 1334TIP3    H225562   0.133   1.177   7.374  0.9584  3.3171 -0.5543
 1335TIP3   OH225563   1.019   2.985   0.796 -0.5493 -0.0250 -0.5213
 1335TIP3    H125564   1.093   2.928   0.811  1.0137  1.9352 -0.3147
 1335TIP3    H225565   1.002   2.978   0.702 -1.4525 -1.9834 -0.2557
 1336TIP3   OH225566   2.645   1.753   8.604 -0.3445 -0.4132  0.5078
 1336TIP3    H125567   2.697   1.750   8.523 -0.5614 -1.5334  0.3882
 1336TIP3    H225568   2.594   1.833   8.596 -1.5246 -1.2546 -1.2485
 1337TIP3   OH225569   2.544   1.250   6.268  0.2462 -0.0520  0.0316
 1337TIP3    H125570   2.600   1.192   6.215 -0.7125 -1.1604  0.1984
 1337TIP3    H225571   2.591   1.259   6.351  0.4443 -0.5357 -0.0220
 1338TIP3   OH225572   1.809   6.687   7.125  0.3468 -0.1935 -0.8183
 1338TIP3    H125573   1.831   6.652   7.039  2.9101 -1.0781  0.0886
 1338TIP3    H225574   1.859   6.633   7.187 -1.2461  0.5227  1.2256
 1339TIP3   OH225575   1.225   2.694   0.083  0.1715 -0.5583 -0.2352
 1339TIP3    H125576   1.135   2.727   0.080 -0.8513 -2.7736  2.0094
 1339TIP3    H225577   1.220   2.608   0.040  1.1817 -0.7216 -0.0390
 1340TIP3   OH225578   2.345   5.389   7.460  0.3116 -0.1068 -0.6580
 1340TIP3    H125579   2.334   5.302   7.496 -0.1521 -0.2018 -1.0092
 1340TIP3    H225580   2.368   5.374   7.368  1.1147  0.1337 -0.5074
 1341TIP3   OH225581   2.846   0.330   7.538  0.1283 -0.7676 -0.2927
 1341TIP3    H125582   2.941   0.327   7.551 -0.0056 -0.7489  0.7347
 1341TIP3    H225583   2.831   0.413   7.493  0.3472  0.5591  1.9400
 1342TIP3   OH225584   4.714   0.127   0.119  0.5637  0.1070 -0.1541
 1342TIP3    H125585   4.659   0.198   0.086  2.7441  0.5550 -3.2836
 1342TIP3    H225586   4.748   0.159   0.202 -2.1338  0.6542  0.8288
 1343TIP3   OH225587   2.632   5.375   1.305 -0.7285 -0.6895  0.0993
 1343TIP3    H125588   2.651   5.419   1.388  0.6807 -2.6807  0.8830
 1343TIP3    H225589   2.595   5.291   1.330 -1.3456 -0.8758 -1.3371
 1344TIP3   OH225590   0.824   2.955   1.153  0.7119 -0.0781 -0.0224
 1344TIP3    H125591   0.752   2.986   1.208  1.4310  0.1206  0.8385
 1344TIP3    H225592   0.782   2.926   1.072 -0.1263  1.9989 -0.3934
 1345TIP3   OH225593   0.737   3.754   7.832  0.2369  0.6619 -0.2950
 1345TIP3    H125594   0.829   3.773   7.811  0.2437  1.8776  0.7647
 1345TIP3    H225595   0.695   3.839   7.839  0.0834  0.4629  3.7729
 1346TIP3   OH225596   4.551   1.484   0.910 -0.6304  0.1070  0.0598
 1346TIP3    H125597   4.497   1.531   0.974 -2.3040 -0.0122 -1.1932
 1346TIP3    H225598   4.598   1.419   0.961  0.2408  1.8137  1.5581
 1347TIP3   OH225599   4.676   3.092   2.339  0.1818 -0.0894  0.5327
 1347TIP3    H125600   4.709   3.126   2.256 -0.3100 -0.7946  0.0429
 1347TIP3    H225601   4.747   3.108   2.401 -0.1321  2.1125  0.4169
 1348TIP3   OH225602   3.728   6.607   1.939 -0.1453  0.2797  0.1342
 1348TIP3    H125603   3.650   6.649   1.975 -1.4839 -1.1824 -0.8830
 1348TIP3    H225604   3.738   6.527   1.991  0.2860  0.1370 -0.1593
 1349TIP3   OH225605   2.631   1.136   8.698 -0.0715  0.0593 -0.3140
 1349TIP3    H125606   2.639   1.173   8.610  0.3553  0.5129 -0.0902
 1349TIP3    H225607   2.538   1.120   8.709 -0.3458  1.6152 -0.2094
 1350TIP3   OH225608   1.758   1.832   7.782  0.2488 -0.4530 -0.0891
 1350TIP3    H125609   1.665   1.842   7.803  0.5267  1.2103  0.5350
 1350TIP3    H225610   1.759   1.802   7.691 -0.8983 -2.5259  0.5229
 1351TIP3   OH225611   1.013   4.954   0.974 -0.6899 -0.1915  0.3319
 1351TIP3    H125612   1.106   4.969   0.993 -0.0987 -2.3448 -0.5966
 1351TIP3    H225613   1.012   4.876   0.918 -3.0508 -0.0448  0.0731
 1352TIP3   OH225614   3.115   3.586   0.036  0.3995 -0.1890 -0.0195
 1352TIP3    H125615   3.072   3.531  -0.029 -1.2423 -1.5085  2.0520
 1352TIP3    H225616   3.065   3.668   0.036 -0.4963 -0.7121  0.4868
 1353TIP3   OH225617   1.665   2.275   2.354  0.2003 -0.0469  0.1755
 1353TIP3    H125618   1.577   2.241   2.370  0.1517  0.2619  0.5693
 1353TIP3    H225619   1.706   2.277   2.440  0.2350  0.7955  0.1494
 1354TIP3   OH225620   6.422   2.404   8.074  0.3682 -0.3225 -0.3200
 1354TIP3    H125621   6.398   2.474   8.136 -0.9557 -0.2016 -0.9396
 1354TIP3    H225622   6.501   2.436   8.031  0.0036  0.6290 -0.3079
 1355TIP3   OH225623   3.202   1.341   7.567 -0.5168  0.4307 -0.4837
 1355TIP3    H125624   3.129   1.316   7.510 -0.8271 -0.8280  0.4148
 1355TIP3    H225625   3.183   1.298   7.651  0.6058  1.1424  0.1628
 1356TIP3   OH225626   1.339   2.710   7.584 -0.1965 -0.3955 -0.8342
 1356TIP3    H125627   1.389   2.629   7.592 -0.3827 -0.5905 -1.5579
 1356TIP3    H225628   1.289   2.699   7.502 -0.2407  0.4345 -0.9246
 1357TIP3   OH225629   0.270   3.320   2.438 -0.1216  0.0134 -0.0956
 1357TIP3    H125630   0.282   3.353   2.349  1.2563  0.0089  0.0704
 1357TIP3    H225631   0.276   3.225   2.429 -0.6586 -0.0301 -0.0747
 1358TIP3   OH225632   1.995   4.223   7.759  0.1121 -0.1440 -0.5966
 1358TIP3    H125633   1.912   4.271   7.759  0.5775  0.6852 -0.1218
 1358TIP3    H225634   2.046   4.265   7.827  0.5085 -1.3921 -0.1037
 1359TIP3   OH225635   2.321   1.927   1.544 -0.3706  0.2097 -0.3787
 1359TIP3    H125636   2.284   1.864   1.606 -2.1118  0.6532 -0.9092
 1359TIP3    H225637   2.413   1.903   1.538 -0.9473 -2.2331 -0.5177
 1360TIP3   OH225638   1.645   6.050   1.505  0.3517 -0.0115  0.0134
 1360TIP3    H125639   1.704   6.009   1.569  1.4546 -0.1686 -1.0627
 1360TIP3    H225640   1.680   6.138   1.494 -0.1906  0.2108  0.0545
 1361TIP3   OH225641   6.006   3.702   1.141  0.0659 -0.5766  0.0377
 1361TIP3    H125642   6.075   3.708   1.208 -2.2107 -0.1947  2.5081
 1361TIP3    H225643   5.981   3.609   1.141  0.6047 -0.7422 -0.9565
 1362TIP3   OH225644   1.142   6.006   0.435 -0.1795  0.3973 -0.5172
 1362TIP3    H125645   1.072   5.993   0.370  0.2182  0.1163 -0.8944
 1362TIP3    H225646   1.158   5.918   0.470  0.1234  0.4274 -0.5801
 1363TIP3   OH225647   2.768   3.014   7.377  0.0854 -0.2327 -0.0302
 1363TIP3    H125648   2.703   3.068   7.332  0.9770  0.1148 -0.9376
 1363TIP3    H225649   2.794   2.949   7.312  1.1908  0.1060  0.0589
 1364TIP3   OH225650   3.626   0.388   0.092  0.2595  0.7221 -0.2390
 1364TIP3    H125651   3.708   0.419   0.053  0.5802 -0.6361 -0.6676
 1364TIP3    H225652   3.594   0.322   0.031  1.4739 -2.5141  2.3234
 1365TIP3   OH225653   0.474   4.047   0.150  0.3037  0.3152  0.9779
 1365TIP3    H125654   0.492   4.072   0.240  1.5277  2.0656  0.3075
 1365TIP3    H225655   0.479   3.951   0.149  0.8745  0.3083  2.6398
 1366TIP3   OH225656   2.775   0.746   7.872 -0.6347  0.1016 -0.5754
 1366TIP3    H125657   2.774   0.653   7.850 -1.5626  0.6004 -3.1080
 1366TIP3    H225658   2.756   0.749   7.965 -0.4993 -2.2369 -0.4042
 1367TIP3   OH225659   6.148   4.043   1.594 -0.3219  0.3398  0.3933
 1367TIP3    H125660   6.084   4.022   1.527 -0.4943  1.4918  0.1771
 1367TIP3    H225661   6.231   4.051   1.546 -0.2591  0.1719  0.4726
 1368TIP3   OH225662   3.737   1.512   7.883  0.2238  1.2775  0.5805
 1368TIP3    H125663   3.692   1.489   7.801  0.5965  0.9057  0.4746
 1368TIP3    H225664   3.719   1.605   7.894 -0.2306  1.2257  0.3273
 1369TIP3   OH225665   6.303   4.033   0.138  0.1593  0.8652 -0.1015
 1369TIP3    H125666   6.394   4.012   0.160  0.3699  2.3255  0.4942
 1369TIP3    H225667   6.291   3.998   0.050  1.3072  0.6747 -0.1963
 1370TIP3   OH225668   3.642   1.158   1.785 -0.1244  0.1510  0.2622
 1370TIP3    H125669   3.702   1.202   1.844  0.7135  1.9857 -1.8032
 1370TIP3    H225670   3.563   1.143   1.837  0.3324  2.2375  1.6793
 1371TIP3   OH225671   1.922   4.359   7.491 -0.4035  0.3742  0.1822
 1371TIP3    H125672   1.903   4.318   7.576  1.9037 -0.1508  0.4891
 1371TIP3    H225673   1.979   4.297   7.446 -0.1027  1.4740 -1.0229
 1372TIP3   OH225674   3.646   5.991   2.382 -0.2244  0.5636 -0.0726
 1372TIP3    H125675   3.689   6.061   2.431  0.9878 -0.7538  0.7984
 1372TIP3    H225676   3.628   6.030   2.296  1.9866  1.4141 -0.2057
 1373TIP3   OH225677   1.358   6.825   0.701  0.4299 -0.3324  0.1156
 1373TIP3    H125678   1.414   6.903   0.707  1.8613 -1.3435  0.6166
 1373TIP3    H225679   1.300   6.831   0.777  2.5163 -1.1748  1.8943
 1374TIP3   OH225680   1.711   1.585   1.398 -0.1131  0.1541  0.5178
 1374TIP3    H125681   1.755   1.650   1.453 -1.4382  1.8327 -0.2948
 1374TIP3    H225682   1.781   1.546   1.347  0.5495  2.6329 -0.6373
 1375TIP3   OH225683   6.316   4.835   7.214 -0.6290  0.5646 -0.2926
 1375TIP3    H125684   6.296   4.805   7.303 -0.8585 -1.9527 -1.1049
 1375TIP3    H225685   6.405   4.804   7.199 -0.4231  1.3920 -0.7763
 1376TIP3   OH225686   6.713   1.703   7.836 -0.1466 -0.2060 -0.1964
 1376TIP3    H125687   6.694   1.618   7.796  0.6990 -0.8562  0.7287
 1376TIP3    H225688   6.683   1.694   7.926 -0.4634  0.6458 -0.2071
 1377TIP3   OH225689   2.862   6.801   1.314  0.0070  0.2238  0.3064
 1377TIP3    H125690   2.812   6.736   1.364 -0.0043 -0.2882 -0.3531
 1377TIP3    H225691   2.795   6.854   1.270  0.0300 -0.5316 -0.6645
 1378TIP3   OH225692   5.002   1.405   1.496 -0.2553 -0.1951 -0.0314
 1378TIP3    H125693   4.942   1.470   1.459 -0.3555 -0.2132  0.0997
 1378TIP3    H225694   5.022   1.347   1.423  0.6807  0.6007 -0.4349
 1379TIP3   OH225695   6.266   3.338   0.465 -0.9095  0.3087 -0.3123
 1379TIP3    H125696   6.280   3.354   0.559 -0.7706 -0.4909 -0.1891
 1379TIP3    H225697   6.204   3.406   0.438 -1.3218  0.2582  0.4673
 1380TIP3   OH225698   5.128   0.203   0.942 -0.2119  0.4281  0.3487
 1380TIP3    H125699   5.068   0.247   1.002 -0.2782 -0.0998  0.6753
 1380TIP3    H225700   5.104   0.236   0.855 -1.1508  0.0305  0.4469
 1381TIP3   OH225701   2.455   0.760   7.195  0.1316 -0.6512  0.1441
 1381TIP3    H125702   2.504   0.820   7.138  1.3507 -0.4345  1.3515
 1381TIP3    H225703   2.410   0.817   7.257 -0.3169 -0.9242  0.0747
 1382TIP3   OH225704   5.279   3.321   7.949 -0.0572  0.3384 -1.0296
 1382TIP3    H125705   5.209   3.268   7.911  0.9087 -0.2607 -2.0544
 1382TIP3    H225706   5.236   3.372   8.018 -1.2571 -0.9007 -0.8076
 1383TIP3   OH225707   6.674   2.702   2.841 -0.3155 -0.2537  0.4639
 1383TIP3    H125708   6.638   2.763   2.905 -1.9562  1.1122 -1.6034
 1383TIP3    H225709   6.596   2.666   2.796  0.7074  0.9460 -2.5556
 1384TIP3   OH225710   0.192   6.801   7.191  0.1133  0.2190 -0.5884
 1384TIP3    H125711   0.130   6.874   7.191 -0.7184 -0.4681  0.0730
 1384TIP3    H225712   0.210   6.785   7.284  2.7889  1.6355 -0.7846
 1385TIP3   OH225713   3.266   5.977   8.703 -0.4342 -0.6132 -0.1948
 1385TIP3    H125714   3.229   6.053   8.749  0.4773 -1.2282  1.6713
 1385TIP3    H225715   3.193   5.940   8.654 -1.9910 -0.9714  2.2408
 1386TIP3   OH225716   0.164   1.424   7.707  0.4578 -0.0101  0.0150
 1386TIP3    H125717   0.098   1.382   7.652  1.3648 -0.3676 -0.8279
 1386TIP3    H225718   0.148   1.518   7.696 -0.6387 -0.0988  0.7435
 1387TIP3   OH225719   6.134   2.696   8.008 -0.1281  0.2084  0.0238
 1387TIP3    H125720   6.159   2.707   8.099  1.4241  0.4173 -0.3982
 1387TIP3    H225721   6.057   2.753   7.997  0.3555  1.0617  0.9248
 1388TIP3   OH225722   3.249   5.125   8.033  0.4528  0.3584 -0.2176
 1388TIP3    H125723   3.302   5.179   8.092 -0.1591  0.7808 -0.0488
 1388TIP3    H225724   3.307   5.106   7.960  1.6878 -1.2932  1.1065
 1389TIP3   OH225725   5.238   2.383   0.367 -0.9793  0.6362  0.3545
 1389TIP3    H125726   5.266   2.343   0.284 -0.1599  2.4744 -0.3299
 1389TIP3    H225727   5.281   2.331   0.435  0.5742  0.7087 -0.5106
 1390TIP3   OH225728   5.092   3.422   6.995 -0.4606 -0.0698 -0.4668
 1390TIP3    H125729   5.090   3.509   6.953  3.4977  1.4703  1.8828
 1390TIP3    H225730   5.151   3.371   6.939 -0.4134 -0.2188 -0.2800
 1391TIP3   OH225731   5.913   4.546   7.370  0.3461  0.5579  0.1429
 1391TIP3    H125732   6.006   4.536   7.348 -0.3016 -1.4156 -2.0403
 1391TIP3    H225733   5.884   4.620   7.317  0.2031 -0.2407 -0.9228
 1392TIP3   OH225734   6.506   0.670   8.289  0.3705  0.4624  0.2605
 1392TIP3    H125735   6.468   0.601   8.343 -1.2002  2.0907  1.3849
 1392TIP3    H225736   6.439   0.740   8.289  0.7165  0.9569 -3.0168
 1393TIP3   OH225737   4.185   0.229   8.325  0.3338  0.0741 -0.3172
 1393TIP3    H125738   4.229   0.206   8.407  0.4603  2.5005  0.3887
 1393TIP3    H225739   4.256   0.257   8.267  0.1919 -1.1443 -1.1101
 1394TIP3   OH225740   1.536   5.126   0.304 -0.4704  0.4978  0.3440
 1394TIP3    H125741   1.479   5.129   0.227 -0.2745 -0.0407  0.1730
 1394TIP3    H225742   1.579   5.041   0.299 -0.1798  0.6082  0.8548
 1395TIP3   OH225743   3.789   2.592   7.172 -0.4010  0.6021  0.5202
 1395TIP3    H125744   3.804   2.643   7.092 -1.0429 -0.5828 -0.3977
 1395TIP3    H225745   3.739   2.650   7.229 -0.8196  1.1171 -0.3560
 1396TIP3   OH225746   2.078   2.133   7.342 -0.1872 -0.4612 -0.5071
 1396TIP3    H125747   2.014   2.202   7.327  1.4036  2.0366  3.0089
 1396TIP3    H225748   2.125   2.126   7.258  0.4466  3.7988 -0.7267
 1397TIP3   OH225749   1.205   6.812   7.581  1.1430 -0.4117 -0.3182
 1397TIP3    H125750   1.229   6.742   7.521 -0.0805 -1.4518  0.3787
 1397TIP3    H225751   1.208   6.772   7.668 -1.0435 -0.0420 -0.0245
 1398TIP3   OH225752   4.373   3.709   7.586 -0.0040  0.0474  0.0026
 1398TIP3    H125753   4.340   3.788   7.630  3.4419  1.8366 -0.2796
 1398TIP3    H225754   4.420   3.662   7.655  0.0251 -0.5232 -0.4038
 1399TIP3   OH225755   4.756   0.915   8.242  0.2545 -0.2411 -0.8163
 1399TIP3    H125756   4.790   0.856   8.174  1.2040  1.7189 -2.1420
 1399TIP3    H225757   4.833   0.940   8.293 -0.3828 -1.3133  0.7491
 1400TIP3   OH225758   2.323   4.336   7.041  0.6124  0.6205  0.2392
 1400TIP3    H125759   2.323   4.242   7.023 -1.2193  0.9275 -1.8425
 1400TIP3    H225760   2.230   4.357   7.056  0.8919  2.2380 -0.1412
 1401TIP3   OH225761   1.056   5.729   1.745 -0.3304 -0.7095 -0.1949
 1401TIP3    H125762   1.073   5.757   1.655 -1.1045 -1.4303 -0.5755
 1401TIP3    H225763   1.138   5.688   1.773 -0.3911 -1.3435 -0.9102
 1402TIP3   OH225764   5.428   4.967   7.687  1.0140  0.4048 -0.0047
 1402TIP3    H125765   5.354   4.918   7.720  1.1795 -0.4796 -0.9072
 1402TIP3    H225766   5.505   4.918   7.716  1.2138  0.6522 -0.1043
 1403TIP3   OH225767   1.218   3.992   0.841 -0.2875  0.2318 -0.0390
 1403TIP3    H125768   1.156   3.939   0.791  2.6224 -2.1092 -1.4728
 1403TIP3    H225769   1.228   3.945   0.924 -0.5242  0.7041  0.2628
 1404TIP3   OH225770   1.297   5.027   2.627  0.3205 -0.8407  0.6203
 1404TIP3    H125771   1.215   5.067   2.599 -0.4582 -1.0437  2.4584
 1404TIP3    H225772   1.300   4.943   2.580 -0.3565 -0.6922  0.2996
 1405TIP3   OH225773   2.606   2.997   7.652  0.5899 -0.2182  0.3096
 1405TIP3    H125774   2.592   3.091   7.665  1.3188 -0.2547  1.6893
 1405TIP3    H225775   2.547   2.973   7.581 -1.0412  0.9068  1.2027
 1406TIP3   OH225776   4.377   3.748   1.431  0.5382  0.1618  0.0308
 1406TIP3    H125777   4.424   3.664   1.424  0.4939  0.1740 -0.5102
 1406TIP3    H225778   4.426   3.807   1.373  0.5469  0.4999  0.3804
 1407TIP3   OH225779   4.494   6.193   7.566 -0.7590  0.0727 -0.0795
 1407TIP3    H125780   4.439   6.188   7.644  0.7271 -0.1179  1.0060
 1407TIP3    H225781   4.536   6.108   7.561 -1.5932 -0.2752 -1.7045
 1408TIP3   OH225782   2.342   1.594   8.347 -0.2242  0.6392 -0.1572
 1408TIP3    H125783   2.341   1.571   8.254 -0.3678  0.1534 -0.0359
 1408TIP3    H225784   2.285   1.530   8.389  1.4988 -0.4848  0.5832
 1409TIP3   OH225785   2.954   1.466   0.930  0.0823  0.1447 -0.4790
 1409TIP3    H125786   3.003   1.438   0.852  1.0285 -0.3479  0.2803
 1409TIP3    H225787   3.015   1.520   0.978 -0.6742  0.8741 -0.3133
 1410TIP3   OH225788   4.588   2.174   8.021 -0.4236  0.0430  0.0066
 1410TIP3    H125789   4.604   2.229   8.098 -1.1418  0.3452 -0.0513
 1410TIP3    H225790   4.500   2.139   8.035 -0.3649 -0.2872 -0.4457
 1411TIP3   OH225791   6.365   1.382   8.306 -0.5067  0.1398  0.8258
 1411TIP3    H125792   6.457   1.386   8.332 -0.0009 -0.4103 -0.7479
 1411TIP3    H225793   6.338   1.292   8.327 -0.0736 -0.3303 -0.5564
 1412TIP3   OH225794   4.677   1.568   7.519 -0.1825 -0.3241 -0.0575
 1412TIP3    H125795   4.743   1.608   7.576  0.0441 -2.8961  1.6515
 1412TIP3    H225796   4.594   1.592   7.561 -0.0064 -2.4508  1.6643
 1413TIP3   OH225797   6.132   6.348   1.537  0.3504  0.7672  0.3290
 1413TIP3    H125798   6.153   6.384   1.451 -2.3295  0.8790 -0.3672
 1413TIP3    H225799   6.042   6.375   1.553 -0.2777 -1.8634  1.7929
 1414TIP3   OH225800   4.772   4.589   7.059 -0.1632 -0.0362 -0.1822
 1414TIP3    H125801   4.781   4.680   7.031  0.4350  0.3751  1.2853
 1414TIP3    H225802   4.765   4.540   6.977 -0.1230  1.2821 -1.0068
 1415TIP3   OH225803   0.509   6.179   0.460 -0.3268  0.6632 -0.3399
 1415TIP3    H125804   0.590   6.226   0.438 -1.8208  2.6243 -1.9970
 1415TIP3    H225805   0.469   6.232   0.529 -1.3073  1.0264 -1.1690
 1416TIP3   OH225806   6.540   5.740   7.253  1.0946  1.5790  0.2181
 1416TIP3    H125807   6.619   5.728   7.201  1.4702 -3.6790  1.4081
 1416TIP3    H225808   6.477   5.676   7.218 -0.8546  2.2337  2.2484
 1417TIP3   OH225809   1.161   1.183   1.455  0.1050 -0.0265 -0.3923
 1417TIP3    H125810   1.147   1.245   1.384 -0.2399 -0.7325 -0.9501
 1417TIP3    H225811   1.246   1.208   1.492  0.3596  0.2495 -1.1477
 1418TIP3   OH225812   3.118   5.006   1.475 -0.0921  0.0660  0.1567
 1418TIP3    H125813   3.145   5.016   1.384  1.4806  0.1269  0.6072
 1418TIP3    H225814   3.083   4.917   1.480 -0.5671  0.2003 -0.5807
 1419TIP3   OH225815   3.062   0.091   1.108 -0.5750 -0.1444  0.2618
 1419TIP3    H125816   2.989   0.046   1.150 -2.4831  2.5446  0.0405
 1419TIP3    H225817   3.025   0.129   1.029  1.1622  0.9376 -0.0881
 1420TIP3   OH225818   2.587   2.404   6.942  0.2145  0.8132  0.2028
 1420TIP3    H125819   2.499   2.408   6.903  0.5483 -1.3491 -0.8997
 1420TIP3    H225820   2.586   2.324   6.995  1.6927  0.4637 -0.2720
 1421TIP3   OH225821   5.107   1.341   0.525  0.1982  0.0490  0.3456
 1421TIP3    H125822   5.184   1.287   0.504 -0.3377 -0.5966  0.0278
 1421TIP3    H225823   5.133   1.430   0.499  0.8058 -0.1812  0.1468
 1422TIP3   OH225824   1.216   4.388   2.377  0.0457  1.1063 -0.1721
 1422TIP3    H125825   1.140   4.442   2.356  0.6051  1.9184 -0.1619
 1422TIP3    H225826   1.201   4.306   2.331 -2.3458  0.0334  2.2588
 1423TIP3   OH225827   2.208   1.935   8.145 -0.0908 -0.2895 -0.3078
 1423TIP3    H125828   2.292   1.970   8.175  0.2970 -0.7408 -0.8419
 1423TIP3    H225829   2.145   1.964   8.211  0.6475 -0.8066  0.6532
 1424TIP3   OH225830   3.637   0.266   7.787  0.5085  0.6273  0.4248
 1424TIP3    H125831   3.668   0.176   7.775 -1.9657 -0.2047 -0.4495
 1424TIP3    H225832   3.680   0.316   7.717  0.7441 -0.2037 -0.0357
 1425TIP3   OH225833   5.951   1.455   1.413  0.5755  0.1077  0.8441
 1425TIP3    H125834   6.032   1.505   1.416  0.4493  0.2989  1.1537
 1425TIP3    H225835   5.895   1.503   1.352  0.7313 -0.0843  0.5461
 1426TIP3   OH225836   6.390   1.630   0.383 -0.2668  0.2090  0.1990
 1426TIP3    H125837   6.383   1.559   0.447 -2.8126 -1.1584 -1.4425
 1426TIP3    H225838   6.478   1.621   0.347 -0.9113 -3.1035 -0.8996
 1427TIP3   OH225839   6.299   2.816   7.771  0.2061  0.2930 -0.0672
 1427TIP3    H125840   6.260   2.728   7.779  2.4306 -0.9282 -1.5278
 1427TIP3    H225841   6.349   2.812   7.690  1.8785  2.3312  0.7868
 1428TIP3   OH225842   6.229   1.781   8.630 -0.6434  0.0282  0.1036
 1428TIP3    H125843   6.210   1.793   8.723  3.7853  1.6325  1.0362
 1428TIP3    H225844   6.266   1.865   8.602 -0.8775 -0.7408 -2.8683
 1429TIP3   OH225845   2.194   0.149   1.035 -0.0697 -0.1545 -0.3059
 1429TIP3    H125846   2.238   0.065   1.028  2.8915  1.2747 -0.4222
 1429TIP3    H225847   2.149   0.160   0.951  0.0359 -1.3094 -0.5255
 1430TIP3   OH225848   2.513   4.102   7.777  0.1534 -0.2244 -0.1559
 1430TIP3    H125849   2.442   4.038   7.772 -0.5231  0.5921 -2.8831
 1430TIP3    H225850   2.577   4.072   7.711 -0.4909  2.1295 -1.9877
 1431TIP3   OH225851   1.055   4.970   7.232 -0.7324 -0.2481  0.6938
 1431TIP3    H125852   1.087   5.035   7.295 -1.9415  1.7182 -0.6007
 1431TIP3    H225853   0.990   4.919   7.280 -2.1793  1.7069  0.9258
 1432TIP3   OH225854   3.457   0.874   8.060  0.1277 -0.2389  0.0122
 1432TIP3    H125855   3.538   0.916   8.091  0.1739 -0.5817  0.3685
 1432TIP3    H225856   3.482   0.830   7.980  0.0924  0.3662 -0.3399
 1433TIP3   OH225857   5.047   0.184   6.967  0.3143 -0.0692 -0.4407
 1433TIP3    H125858   5.088   0.138   6.894  0.2240 -0.0123 -0.5285
 1433TIP3    H225859   5.021   0.269   6.931  0.1185 -0.1055 -0.3885
 1434TIP3   OH225860   1.505   2.457   7.636  0.1782 -0.4048 -1.0605
 1434TIP3    H125861   1.561   2.460   7.558  1.5226 -2.6607 -0.2685
 1434TIP3    H225862   1.443   2.387   7.618 -1.6067  1.1578 -1.3387
 1435TIP3   OH225863   0.357   2.698   7.878 -0.4316 -0.1387 -0.3298
 1435TIP3    H125864   0.355   2.602   7.872 -0.1373 -0.1515 -0.2169
 1435TIP3    H225865   0.288   2.719   7.941 -1.4980 -0.1809 -1.4250
 1436TIP3   OH225866   3.902   6.481   1.353 -0.3301  0.0269 -0.0486
 1436TIP3    H125867   3.915   6.567   1.392  3.1596  0.0784 -1.0611
 1436TIP3    H225868   3.956   6.422   1.406 -1.7992 -1.3814 -0.0429
 1437TIP3   OH225869   2.696   0.153   0.197 -0.0492 -0.0752  0.1872
 1437TIP3    H125870   2.687   0.112   0.283 -0.2855  0.2962  0.3400
 1437TIP3    H225871   2.760   0.099   0.151  2.0376  1.1546  1.4849
 1438TIP3   OH225872   4.761   3.406   0.638 -0.4727  0.1214  0.1682
 1438TIP3    H125873   4.687   3.366   0.593 -0.4692 -0.4059  0.6279
 1438TIP3    H225874   4.752   3.500   0.621  0.2470 -0.1379 -2.0581
 1439TIP3   OH225875   6.191   4.331   6.854 -0.5838  0.2993  0.3029
 1439TIP3    H125876   6.212   4.385   6.930  1.6706  0.5226 -0.4042
 1439TIP3    H225877   6.170   4.245   6.891  0.2951  0.4518  1.2000
 1440TIP3   OH225878   3.698   5.218   7.660 -0.5284  0.1139  0.5494
 1440TIP3    H125879   3.630   5.180   7.604  0.2356 -0.4802  0.0037
 1440TIP3    H225880   3.653   5.289   7.707 -1.6375 -0.5640  0.5616
 1441TIP3   OH225881   6.283   2.435   0.428  0.4995 -0.3435 -0.3103
 1441TIP3    H125882   6.248   2.524   0.432  0.5880 -0.3487  1.0965
 1441TIP3    H225883   6.357   2.441   0.368  2.2842  1.2183  1.8517
 1442TIP3   OH225884   1.635   3.949   8.324 -0.0238 -0.2104 -0.4434
 1442TIP3    H125885   1.636   3.998   8.406 -0.2802  0.5268 -0.8700
 1442TIP3    H225886   1.588   3.868   8.345 -1.5081  0.6687 -0.2438
 1443TIP3   OH225887   1.239   0.795   7.957  0.4345 -0.1526  0.0056
 1443TIP3    H125888   1.279   0.738   7.891 -1.6183 -0.1068 -1.3702
 1443TIP3    H225889   1.187   0.736   8.012  0.9929 -0.0088  0.6973
 1444TIP3   OH225890   2.076   3.805   8.255 -0.4781  0.4884 -0.3012
 1444TIP3    H125891   2.038   3.830   8.339 -1.1300 -0.5526 -0.2669
 1444TIP3    H225892   2.084   3.887   8.206 -2.9841  0.7423 -0.3875
 1445TIP3   OH225893   2.787   0.909   0.115 -0.7000 -0.5440 -0.0533
 1445TIP3    H125894   2.700   0.948   0.118 -0.8953 -0.8053 -1.5972
 1445TIP3    H225895   2.777   0.833   0.059  0.4549 -0.7676  0.0262
 1446TIP3   OH225896   0.562   3.170   0.129 -0.3352  0.0088  0.3399
 1446TIP3    H125897   0.562   3.207   0.218 -0.1801 -0.6699  0.6355
 1446TIP3    H225898   0.553   3.075   0.143  0.9433 -0.2278 -0.3031
 1447TIP3   OH225899   5.962   0.171   0.826  0.9474 -0.4324  0.9903
 1447TIP3    H125900   5.903   0.145   0.897 -0.3664  0.3058  0.2020
 1447TIP3    H225901   5.932   0.258   0.800 -1.1231 -2.0669 -2.9239
 1448TIP3   OH225902   0.677   1.175   2.534 -0.2994 -0.0224 -0.0645
 1448TIP3    H125903   0.587   1.153   2.559 -0.1389  1.1356  1.7486
 1448TIP3    H225904   0.713   1.218   2.612  0.9739  1.9768 -1.6627
 1449TIP3   OH225905   5.416   1.082   7.810 -0.6496  0.0246  0.5564
 1449TIP3    H125906   5.402   1.081   7.904  0.3768  2.0429  0.8015
 1449TIP3    H225907   5.490   1.022   7.795 -0.3957  0.1908  1.1335
 1450TIP3   OH225908   0.006   3.297   8.433  0.2381 -0.2064 -0.2823
 1450TIP3    H125909   0.070   3.250   8.486 -0.2816  0.5997  1.1130
 1450TIP3    H225910   0.059   3.359   8.382  0.5286  1.7479  2.2038
 1451TIP3   OH225911   0.116   5.684   1.111  0.0790  0.0210 -0.6140
 1451TIP3    H125912   0.039   5.629   1.098  0.8025 -0.6084 -2.5967
 1451TIP3    H225913   0.151   5.657   1.196 -2.1689  0.7577  0.6176
 1452TIP3   OH225914   1.459   1.140   2.476 -0.7577  0.7290  0.1152
 1452TIP3    H125915   1.471   1.233   2.497  1.0215  0.6918 -0.6047
 1452TIP3    H225916   1.395   1.109   2.540  1.1243  1.6475  2.5786
 1453TIP3   OH225917   1.317   6.350   1.522 -0.0764 -0.0993 -0.2087
 1453TIP3    H125918   1.253   6.418   1.544 -0.2672 -1.0596  2.5814
 1453TIP3    H225919   1.401   6.385   1.554 -0.7387 -2.6362  5.4986
 1454TIP3   OH225920   0.196   2.389   0.249  0.5071 -0.0293 -0.4470
 1454TIP3    H125921   0.198   2.300   0.214  1.1762 -0.2030  0.0125
 1454TIP3    H225922   0.272   2.394   0.307 -2.1143 -0.7472  3.4223
 1455TIP3   OH225923   6.710   5.536   8.519  0.9286  1.0334 -0.4269
 1455TIP3    H125924   6.734   5.447   8.546  0.8807  0.6946 -1.4492
 1455TIP3    H225925   6.621   5.547   8.551  0.8027  0.5728 -0.6116
 1456TIP3   OH225926   0.680   4.509   8.501 -0.0367 -0.4571 -0.3439
 1456TIP3    H125927   0.771   4.530   8.523 -0.1315  1.3033 -1.5014
 1456TIP3    H225928   0.682   4.486   8.408 -0.8000 -0.2613 -0.4160
 1457TIP3   OH225929   6.519   5.014   6.409  0.5354 -0.0764  0.7468
 1457TIP3    H125930   6.441   5.058   6.378 -0.0697 -1.5203  0.1626
 1457TIP3    H225931   6.587   5.036   6.345  0.0925 -0.4408  0.1431
 1458TIP3   OH225932   4.167   2.571   2.419 -0.0781  0.3862 -0.1399
 1458TIP3    H125933   4.222   2.528   2.484 -0.4141  1.3889  0.8442
 1458TIP3    H225934   4.222   2.640   2.382 -0.5977  1.3233  0.7725
 1459TIP3   OH225935   4.832   6.182   2.339  0.5362  0.3962  0.2732
 1459TIP3    H125936   4.884   6.139   2.407  1.0600  0.6811  0.0589
 1459TIP3    H225937   4.845   6.276   2.354  1.2866  0.4605 -0.6821
 1460TIP3   OH225938   4.975   5.354   0.629 -0.8669 -0.1302 -0.4910
 1460TIP3    H125939   4.990   5.440   0.588 -0.8838  0.3963  0.5771
 1460TIP3    H225940   4.895   5.366   0.680  1.0602  0.4076  2.6931
 1461TIP3   OH225941   0.093   6.725   0.167 -0.2171  0.1168  0.0205
 1461TIP3    H125942   0.136   6.686   0.243 -0.1884  0.0249 -0.0426
 1461TIP3    H225943   0.124   6.816   0.166  0.5780 -0.1530 -0.4653
 1462TIP3   OH225944   1.188   0.979   1.235  0.4132  0.2620 -0.0978
 1462TIP3    H125945   1.182   0.976   1.331 -0.6788 -2.2734 -0.1420
 1462TIP3    H225946   1.275   1.013   1.217  0.9472  0.0332  1.8312
 1463TIP3   OH225947   1.236   6.128   6.993 -0.1475  0.0666  0.2109
 1463TIP3    H125948   1.264   6.139   7.084  0.6726 -1.8010  0.2350
 1463TIP3    H225949   1.300   6.067   6.955 -1.3235 -0.3612 -1.1842
 1464TIP3   OH225950   1.229   2.750   2.815 -0.2445 -0.0980  0.5327
 1464TIP3    H125951   1.194   2.722   2.730  1.4072 -0.6605 -0.0088
 1464TIP3    H225952   1.172   2.708   2.879 -0.6526 -0.8537 -0.2984
 1465TIP3   OH225953   2.707   4.381   2.586  0.1457 -0.0405 -0.1883
 1465TIP3    H125954   2.794   4.420   2.596 -0.8428  2.6407 -1.1298
 1465TIP3    H225955   2.685   4.393   2.493 -1.0769 -1.0327 -0.0589
 1466TIP3   OH225956   0.607   5.909   1.436  0.4488 -0.5471 -0.0041
 1466TIP3    H125957   0.669   5.974   1.470 -1.0788  1.1307 -0.2869
 1466TIP3    H225958   0.655   5.865   1.366  1.9113 -0.5617  0.9594
 1467TIP3   OH225959   5.655   4.583   7.992 -0.3012  0.1149 -0.2317
 1467TIP3    H125960   5.746   4.584   8.020  0.3042 -1.2525 -1.9627
 1467TIP3    H225961   5.634   4.675   7.973  1.1051  0.3193 -0.9191
 1468TIP3   OH225962   3.586   2.777   8.018  0.0514 -0.2536 -0.2647
 1468TIP3    H125963   3.501   2.811   7.991  1.0916  4.2199  1.2575
 1468TIP3    H225964   3.638   2.775   7.938 -0.5203  0.3868 -0.6630
 1469TIP3   OH225965   4.189   4.999   1.387 -0.0935  0.1600  0.3779
 1469TIP3    H125966   4.098   5.028   1.379  0.1986  0.6058 -2.4357
 1469TIP3    H225967   4.192   4.917   1.337  0.7375 -0.7377  1.8267
 1470TIP3   OH225968   6.105   1.864   1.841  0.2711  0.6864  0.4540
 1470TIP3    H125969   6.136   1.774   1.840 -0.6216  0.3812 -0.5299
 1470TIP3    H225970   6.158   1.906   1.909  2.8543  0.2015 -1.1051
 1471TIP3   OH225971   5.317   1.924   0.465  0.6142  0.6030  0.0765
 1471TIP3    H125972   5.282   1.943   0.552  1.5835  0.4069  0.5270
 1471TIP3    H225973   5.242   1.931   0.407 -0.3490 -0.5884  1.1087
 1472TIP3   OH225974   3.848   0.260   6.777 -0.4686 -0.1727 -0.0751
 1472TIP3    H125975   3.806   0.303   6.703  0.3239  3.1166  1.2077
 1472TIP3    H225976   3.942   0.266   6.759 -0.1906  1.7826  1.6057
 1473TIP3   OH225977   2.544   6.287   7.296  0.6353 -0.0610  0.3598
 1473TIP3    H125978   2.570   6.268   7.385 -0.7568  1.1050  1.0655
 1473TIP3    H225979   2.489   6.366   7.303  1.2356  0.6062 -1.6232
 1474TIP3   OH225980   6.127   3.023   8.169  0.1222  0.5622 -0.2199
 1474TIP3    H125981   6.110   3.002   8.261  0.7919 -0.8497 -0.3958
 1474TIP3    H225982   6.212   3.067   8.170  0.3974  0.0387 -0.2102
 1475TIP3   OH225983   5.625   3.351   1.857 -0.2290 -0.3297 -0.1022
 1475TIP3    H125984   5.702   3.327   1.908 -0.0505  0.7077  0.1365
 1475TIP3    H225985   5.572   3.271   1.855 -0.1638 -0.4482  1.5825
 1476TIP3   OH225986   5.637   0.244   7.576  0.4416 -0.0595 -0.1463
 1476TIP3    H125987   5.660   0.194   7.654 -0.4399  1.4595  1.1285
 1476TIP3    H225988   5.628   0.334   7.606 -0.7301  0.4456 -1.8383
 1477TIP3   OH225989   5.028   5.660   1.561  0.1076  0.1639  0.4845
 1477TIP3    H125990   5.055   5.682   1.472  1.0117  0.9440  0.9328
 1477TIP3    H225991   5.032   5.743   1.609  1.0426 -0.4870  1.5897
 1478TIP3   OH225992   3.287   6.200   0.862 -0.0981  0.1521  0.0770
 1478TIP3    H125993   3.293   6.237   0.950 -2.4457  1.3080 -0.1568
 1478TIP3    H225994   3.378   6.185   0.836  0.6852  0.3373  2.4414
 1479TIP3   OH225995   4.955   4.264   1.630  0.0634  0.1102 -0.3815
 1479TIP3    H125996   5.015   4.284   1.702  0.9971  0.6797 -1.2901
 1479TIP3    H225997   4.934   4.349   1.593  0.9092 -0.2655 -1.8014
 1480TIP3   OH225998   1.863   6.780   1.156  0.5618  0.0760  0.1661
 1480TIP3    H125999   1.804   6.808   1.086  2.0815  0.8962 -0.8434
 1480TIP3    H226000   1.883   6.860   1.204 -0.8152 -0.5507  1.8785
 1481TIP3   OH226001   3.828   4.207   1.096  0.4628  0.4893 -0.0867
 1481TIP3    H126002   3.869   4.250   1.021  0.7876 -0.3554 -0.4137
 1481TIP3    H226003   3.902   4.172   1.147  0.3312  2.2604  1.4134
 1482TIP3   OH226004   3.475   1.659   0.791 -0.8509 -0.0138 -0.2560
 1482TIP3    H126005   3.423   1.727   0.832 -1.4383 -0.9456  0.5881
 1482TIP3    H226006   3.411   1.600   0.752 -0.4351 -0.9876  0.4929
 1483TIP3   OH226007   1.001   6.266   7.240 -0.5587 -0.2895 -0.0018
 1483TIP3    H126008   0.936   6.335   7.256  0.1730  0.8900 -1.7235
 1483TIP3    H226009   0.999   6.212   7.318 -2.2125  0.8501  0.8020
 1484TIP3   OH226010   1.362   0.022   1.651  0.0512 -0.1816 -0.1694
 1484TIP3    H126011   1.378   0.038   1.744 -0.7336  0.8718 -0.1950
 1484TIP3    H226012   1.386   0.104   1.608  0.0310 -0.5240 -0.8527
 1485TIP3   OH226013   1.910   6.173   7.137 -0.2456 -0.3837 -0.6516
 1485TIP3    H126014   1.931   6.198   7.048  0.5767 -0.4279 -0.4798
 1485TIP3    H226015   1.960   6.092   7.152 -3.2756 -2.6022 -1.4122
 1486TIP3   OH226016   6.079   2.194   2.588  0.3283 -0.3016 -0.0299
 1486TIP3    H126017   6.012   2.260   2.570  0.6113 -0.1618 -0.5804
 1486TIP3    H226018   6.050   2.152   2.670  0.5069  0.9630  0.7052
 1487TIP3   OH226019   1.347   5.107   8.506  0.1173 -0.0787  0.1608
 1487TIP3    H126020   1.271   5.048   8.509  0.0279  0.0642  1.0571
 1487TIP3    H226021   1.309   5.194   8.503  0.1892  0.0907  2.3960
 1488TIP3   OH226022   1.748   6.037   0.615  0.0207 -0.2802  1.1817
 1488TIP3    H126023   1.731   5.960   0.562 -1.7823  0.2923  0.8548
 1488TIP3    H226024   1.743   6.110   0.554 -1.9702  0.3811  2.0734
 1489TIP3   OH226025   2.360   1.239   0.017  0.1932  0.4204 -0.5315
 1489TIP3    H126026   2.347   1.285   0.100 -0.4782 -1.0569  0.2252
 1489TIP3    H226027   2.352   1.307  -0.050  0.2656  1.5622  0.5883
 1490TIP3   OH226028   1.155   3.216   8.481 -0.2269  0.3474  0.5797
 1490TIP3    H126029   1.210   3.287   8.514  0.7822  0.0796 -0.4711
 1490TIP3    H226030   1.074   3.259   8.454  1.3328  1.6347 -2.5784
 1491TIP3   OH226031   6.731   2.881   1.622 -0.1669  0.2915  0.1670
 1491TIP3    H126032   6.672   2.950   1.594 -1.5453 -0.6526  0.6677
 1491TIP3    H226033   6.792   2.925   1.682  0.4628  1.5211 -1.3032
 1492TIP3   OH226034   3.922   0.156   8.705 -0.0258 -0.4127 -0.2882
 1492TIP3    H126035   3.870   0.159   8.625  0.2555 -1.7596 -0.5565
 1492TIP3    H226036   3.955   0.245   8.716 -2.8131  0.6688  0.2029
 1493TIP3   OH226037   6.322   2.808   1.141 -0.1468 -0.2657  0.0117
 1493TIP3    H126038   6.260   2.778   1.208  0.2634 -3.2953 -0.8210
 1493TIP3    H226039   6.407   2.777   1.171  0.2190 -0.5825 -1.2757
 1494TIP3   OH226040   2.528   3.621   6.652  0.1950  0.1824  0.1067
 1494TIP3    H126041   2.491   3.629   6.564 -0.4187  0.1639  0.3641
 1494TIP3    H226042   2.504   3.702   6.696  0.1792  0.0332  0.3779
 1495TIP3   OH226043   2.973   4.074   8.215 -0.0604  0.1208  0.0902
 1495TIP3    H126044   2.918   4.149   8.235  0.2442  0.6649 -1.0607
 1495TIP3    H226045   3.061   4.101   8.239  0.0994  0.2614 -0.6397
 1496TIP3   OH226046   2.443   3.262   7.493 -0.1607  0.3507 -0.4289
 1496TIP3    H126047   2.465   3.207   7.418 -1.8581 -1.6134  0.4083
 1496TIP3    H226048   2.494   3.342   7.480 -1.1217  0.5423 -4.1638
 1497TIP3   OH226049   4.619   5.375   7.238 -0.1714 -0.0331  0.2352
 1497TIP3    H126050   4.662   5.314   7.179  0.0289  0.2911  0.0446
 1497TIP3    H226051   4.628   5.460   7.196 -0.7939  0.0752  0.3060
 1498TIP3   OH226052   3.334   5.637   1.663  0.2329 -0.6403  0.1386
 1498TIP3    H126053   3.311   5.721   1.623 -0.2573 -0.4824  0.7271
 1498TIP3    H226054   3.278   5.573   1.619 -0.3795 -0.4523  0.6349
 1499TIP3   OH226055   5.520   6.279   7.255 -0.1844  0.0799  0.2052
 1499TIP3    H126056   5.464   6.356   7.266 -1.6536 -0.9955  0.5691
 1499TIP3    H226057   5.509   6.254   7.163 -1.0195 -0.6434  0.4898
 1500TIP3   OH226058   0.947   5.692   8.426 -0.8843  0.4905 -0.1228
 1500TIP3    H126059   1.012   5.718   8.361 -0.2115 -1.6267 -0.3675
 1500TIP3    H226060   0.997   5.651   8.496 -1.7716  0.9864  0.8381
 1501TIP3   OH226061   5.777   3.985   0.538  0.1156  0.3375  0.1370
 1501TIP3    H126062   5.701   3.927   0.534 -1.1111  1.7869  1.1876
 1501TIP3    H226063   5.845   3.939   0.488 -1.0876 -1.5155  0.0912
 1502TIP3   OH226064   3.848   5.486   1.595 -0.1392 -0.7446  0.0033
 1502TIP3    H126065   3.885   5.408   1.552  0.2629 -0.2167 -0.6339
 1502TIP3    H226066   3.879   5.481   1.685 -0.7822 -1.7392  0.1822
 1503TIP3   OH226067   4.084   4.796   1.989 -0.0818 -0.8999  0.0360
 1503TIP3    H126068   4.026   4.745   2.045 -1.4182 -0.9289 -1.2761
 1503TIP3    H226069   4.113   4.734   1.922  0.8568 -0.6854  0.2296
 1504TIP3   OH226070   5.447   6.702   0.414 -0.3741 -0.2338 -0.0098
 1504TIP3    H126071   5.426   6.698   0.321 -1.3090 -0.8077  0.2090
 1504TIP3    H226072   5.461   6.795   0.432 -0.5921 -0.0792 -0.6359
 1505TIP3   OH226073   6.787   6.109   6.770  0.6952  0.1973  0.4298
 1505TIP3    H126074   6.707   6.109   6.718  1.5367  1.9825 -0.9371
 1505TIP3    H226075   6.774   6.038   6.833 -1.6274 -0.0452 -0.2391
 1506TIP3   OH226076   3.791   5.024   1.066 -0.2803  0.2473 -0.7297
 1506TIP3    H126077   3.753   5.054   0.984  0.1381  0.2288 -0.9317
 1506TIP3    H226078   3.716   5.016   1.125 -0.4465  1.4339 -0.7432
 1507TIP3   OH226079   0.432   2.028   7.334 -0.6347  0.3767  0.4006
 1507TIP3    H126080   0.391   2.060   7.254  1.3324  1.8790 -0.0988
 1507TIP3    H226081   0.461   1.939   7.314 -0.6175  0.5580 -0.3743
 1508TIP3   OH226082   6.488   6.536   1.242 -0.4340  0.7698 -0.1260
 1508TIP3    H126083   6.453   6.555   1.155  1.0924  0.4519 -0.8448
 1508TIP3    H226084   6.450   6.451   1.264 -0.0198  0.3591 -0.9509
 1509TIP3   OH226085   2.161   3.781   1.093 -0.5246  0.7785  0.2281
 1509TIP3    H126086   2.224   3.782   1.165 -0.7774 -1.1295  0.5536
 1509TIP3    H226087   2.214   3.774   1.014 -0.2328 -1.5601  0.5362
 1510TIP3   OH226088   2.482   1.535   6.124 -0.6010 -0.6126  0.7047
 1510TIP3    H126089   2.447   1.448   6.144 -1.1167 -0.1755  1.7676
 1510TIP3    H226090   2.429   1.595   6.176 -0.1754  0.3343  0.0677
 1511TIP3   OH226091   5.189   5.882   8.520 -0.4940  0.3098  0.2839
 1511TIP3    H126092   5.119   5.818   8.514 -0.0729 -0.1905  0.6548
 1511TIP3    H226093   5.270   5.831   8.511 -0.1570  0.7841  0.5583
 1512TIP3   OH226094   0.465   5.013   8.406 -0.2392 -0.1607 -0.3425
 1512TIP3    H126095   0.370   5.010   8.411 -0.2425  0.2875 -0.0436
 1512TIP3    H226096   0.491   5.061   8.485  0.2070  0.1153 -0.6558
 1513TIP3   OH226097   2.135   1.116   7.593 -0.2966 -0.4262  0.1380
 1513TIP3    H126098   2.081   1.174   7.539  1.2995  1.1651  0.1712
 1513TIP3    H226099   2.161   1.170   7.667  0.7176 -1.3890  0.5073
 1514TIP3   OH226100   3.876   1.683   0.912 -1.1549  0.4119  0.7317
 1514TIP3    H126101   3.963   1.677   0.873 -1.5686 -0.0587 -0.1699
 1514TIP3    H226102   3.838   1.762   0.873 -1.9075 -0.5518 -0.5968
 1515TIP3   OH226103   2.713   6.811   0.551  0.4004  0.4373  0.1294
 1515TIP3    H126104   2.775   6.883   0.536  2.9813 -1.3357  1.6407
 1515TIP3    H226105   2.710   6.764   0.468  2.5517 -0.4814  0.5262
 1516TIP3   OH226106   1.648   1.993   7.228  0.0228  0.4381  0.0939
 1516TIP3    H126107   1.678   1.995   7.137 -0.3654  0.0565 -0.0430
 1516TIP3    H226108   1.717   1.946   7.275  1.0602  2.0991  0.3169
 1517TIP3   OH226109   4.878   1.979   0.192 -0.3344 -0.6194  0.3378
 1517TIP3    H126110   4.850   1.967   0.101  0.5980 -1.6586  0.1796
 1517TIP3    H226111   4.824   2.052   0.223  0.9503  1.3565 -1.7430
 1518TIP3   OH226112   2.411   1.943   2.577 -0.2503 -0.3218  0.3964
 1518TIP3    H126113   2.399   1.927   2.670 -1.9181  1.1315  0.4762
 1518TIP3    H226114   2.363   2.024   2.560  1.4480  0.3990 -1.3991
 1519TIP3   OH226115   1.688   6.681   2.099 -0.4687  0.0930 -0.2390
 1519TIP3    H126116   1.596   6.696   2.121  0.0528 -0.8703  3.2566
 1519TIP3    H226117   1.737   6.731   2.164  1.3792 -2.1180  0.2326
 1520TIP3   OH226118   6.240   3.606   2.021 -0.0869 -0.1221 -0.4482
 1520TIP3    H126119   6.306   3.598   2.089  1.1137 -1.6869 -1.7265
 1520TIP3    H226120   6.164   3.559   2.055  0.5401 -0.9869 -0.2228
 1521TIP3   OH226121   1.172   4.106   7.174 -0.4815  0.3809 -0.0638
 1521TIP3    H126122   1.133   4.146   7.252 -0.1228  0.0851  0.2679
 1521TIP3    H226123   1.097   4.072   7.124 -0.5589 -1.9521  1.5154
 1522TIP3   OH226124   3.644   6.305   1.425  0.1858  0.4537  0.1738
 1522TIP3    H126125   3.675   6.377   1.369  1.9469 -1.0709 -0.9215
 1522TIP3    H226126   3.695   6.313   1.505 -0.5630  1.1606  0.6008
 1523TIP3   OH226127   0.448   3.964   1.227  0.1073  0.2907 -0.4051
 1523TIP3    H126128   0.453   3.895   1.293 -0.1640 -0.9094 -1.5964
 1523TIP3    H226129   0.354   3.973   1.210  0.2072  0.1651 -1.0435
 1524TIP3   OH226130   1.693   1.704   7.533 -0.1458 -0.5706  0.1264
 1524TIP3    H126131   1.786   1.698   7.512 -0.2485 -0.4321 -0.3901
 1524TIP3    H226132   1.661   1.614   7.530 -0.1506 -0.5567 -0.2877
 1525TIP3   OH226133   1.896   4.823   2.029  0.0238 -0.1219  0.1869
 1525TIP3    H126134   1.836   4.873   2.084  1.9111  1.5725  0.8086
 1525TIP3    H226135   1.885   4.860   1.941 -0.5740 -0.5452  0.0755
 1526TIP3   OH226136   6.506   0.002   0.508 -0.0217  0.1711  0.7580
 1526TIP3    H126137   6.461   0.076   0.467 -0.2042 -0.6901 -0.6479
 1526TIP3    H226138   6.452  -0.074   0.486  1.5458 -0.7489 -0.1083
 1527TIP3   OH226139   6.125   4.081   7.420 -0.2986  0.5683  0.1085
 1527TIP3    H126140   6.095   4.145   7.485  0.6664 -0.1932  1.3612
 1527TIP3    H226141   6.082   3.999   7.446  0.8279  0.0492  0.3630
 1528TIP3   OH226142   4.918   0.227   1.476  0.1076 -0.4308  0.0059
 1528TIP3    H126143   4.918   0.170   1.399 -0.9922 -1.0063  0.4092
 1528TIP3    H226144   4.957   0.308   1.445 -0.0133 -0.7639 -1.0774
 1529TIP3   OH226145   3.354   3.061   0.176 -0.3191  0.3216 -0.3320
 1529TIP3    H126146   3.422   2.999   0.149 -1.5321 -1.6527  0.9455
 1529TIP3    H226147   3.272   3.023   0.142 -1.2597  0.3923  1.7205
 1530TIP3   OH226148   3.992   6.163   0.844  0.4193  0.0843 -0.2829
 1530TIP3    H126149   3.999   6.244   0.794  1.1818  0.0720 -0.2103
 1530TIP3    H226150   3.918   6.178   0.903 -1.5532 -0.4927 -2.4406
 1531TIP3   OH226151   3.911   0.861   0.400  0.0426  1.0839  0.1461
 1531TIP3    H126152   3.994   0.909   0.393  0.2326  0.6558 -0.6390
 1531TIP3    H226153   3.894   0.831   0.311 -1.1273  1.4435  0.2378
 1532TIP3   OH226154   0.190   4.265   1.424  0.0129 -0.0137 -0.2833
 1532TIP3    H126155   0.285   4.270   1.437  0.0863 -1.2960 -0.1264
 1532TIP3    H226156   0.173   4.320   1.348  1.3160 -2.0044 -2.1340
 1533TIP3   OH226157   5.470   4.061   1.469  0.5167 -0.2354  0.2542
 1533TIP3    H126158   5.419   3.983   1.446  3.7041 -2.5361  0.2742
 1533TIP3    H226159   5.421   4.102   1.540 -2.6340 -0.6069 -1.5112
 1534TIP3   OH226160   2.957   0.844   6.475 -0.2458  0.2098  0.0323
 1534TIP3    H126161   3.005   0.810   6.551  0.4322 -0.3213 -0.6263
 1534TIP3    H226162   2.954   0.771   6.413 -2.4003  0.0456  0.2646
 1535TIP3   OH226163   0.694   0.449   7.498  0.5085  1.0957  0.1773
 1535TIP3    H126164   0.783   0.443   7.465  0.9891  0.7693  1.4632
 1535TIP3    H226165   0.678   0.542   7.510  0.8213  1.1337  0.2987
 1536TIP3   OH226166   5.045   6.527   1.871  0.3711 -0.1853 -0.2218
 1536TIP3    H126167   4.992   6.588   1.821  0.6866  0.1197 -0.1861
 1536TIP3    H226168   5.116   6.580   1.907 -0.0764 -0.3038  0.8927
 1537TIP3   OH226169   1.867   2.764   2.198  0.7213  0.5840  0.2164
 1537TIP3    H126170   1.782   2.792   2.233  0.7343  0.7971  0.0749
 1537TIP3    H226171   1.927   2.835   2.219  0.9936  0.1853  0.8245
 1538TIP3   OH226172   2.198   1.292   7.809 -0.6996  0.2474 -0.2187
 1538TIP3    H126173   2.212   1.291   7.904 -0.0124 -1.8364 -0.2806
 1538TIP3    H226174   2.286   1.282   7.772 -1.1563 -1.4474 -0.9597
 1539TIP3   OH226175   4.755   3.438   6.902  0.0919 -0.5690  0.2783
 1539TIP3    H126176   4.777   3.486   6.982 -0.1963  0.9388 -0.4995
 1539TIP3    H226177   4.839   3.431   6.855  0.4918 -2.4630  1.1792
 1540TIP3   OH226178   4.136   2.397   0.510  0.4749 -0.7003 -0.5907
 1540TIP3    H126179   4.189   2.464   0.465 -0.5781 -0.1507 -1.0557
 1540TIP3    H226180   4.175   2.391   0.597 -0.0221  1.3103 -0.1688
 1541TIP3   OH226181   2.740   5.730   0.896 -0.0729  0.2812 -0.2426
 1541TIP3    H126182   2.787   5.702   0.817 -0.6513 -0.5914 -0.2958
 1541TIP3    H226183   2.689   5.653   0.921 -1.3705  1.1676 -0.1117
 1542TIP3   OH226184   3.355   3.903   6.415  0.1573  0.5566  0.3353
 1542TIP3    H126185   3.387   3.849   6.343  0.9809 -0.3490  1.3494
 1542TIP3    H226186   3.434   3.940   6.455 -0.3148  1.3710  0.5459
 1543TIP3   OH226187   2.467   2.988   0.061 -0.0319 -0.5452  0.3709
 1543TIP3    H126188   2.502   3.074   0.038  1.0912 -0.3792  2.4272
 1543TIP3    H226189   2.458   2.942  -0.022  1.5570  0.7679 -0.5891
 1544TIP3   OH226190   0.454   5.227   0.229  0.2529  0.0220 -0.4298
 1544TIP3    H126191   0.380   5.276   0.263 -1.4166  0.1599 -3.8312
 1544TIP3    H226192   0.508   5.292   0.184  2.5998 -0.0755  1.9693
 1545TIP3   OH226193   2.404   2.416   1.676  0.0292 -0.1098  0.0064
 1545TIP3    H126194   2.336   2.350   1.660  1.9960 -2.1048 -0.7951
 1545TIP3    H226195   2.458   2.414   1.597  1.4411  0.8045  0.8983
 1546TIP3   OH226196   1.049   3.063   1.280  0.2077 -0.3906  0.1993
 1546TIP3    H126197   1.059   3.027   1.368  1.5263  0.9929  0.6725
 1546TIP3    H226198   0.967   3.027   1.247  0.4410 -2.1118  1.4173
 1547TIP3   OH226199   4.284   0.490   2.143 -0.2188 -0.2950 -0.2934
 1547TIP3    H126200   4.361   0.433   2.147 -0.9108 -1.1602  2.5694
 1547TIP3    H226201   4.314   0.574   2.176 -0.5538 -0.7569  1.2469
 1548TIP3   OH226202   3.376   6.079   8.000  0.2070 -0.4584  0.1072
 1548TIP3    H126203   3.367   6.175   7.995 -0.5629 -0.5443 -0.5171
 1548TIP3    H226204   3.312   6.047   7.935  0.2201 -1.4009  0.5566
 1549TIP3   OH226205   6.408   1.417   0.541  0.2173 -0.4765  0.2815
 1549TIP3    H126206   6.416   1.358   0.616  0.6166  1.4248  1.8341
 1549TIP3    H226207   6.487   1.400   0.489  0.2865 -1.3488  0.6503
 1550TIP3   OH226208   2.376   2.276   0.486 -0.2198 -0.7374 -0.2903
 1550TIP3    H126209   2.319   2.310   0.554  0.8568  0.3564  0.0914
 1550TIP3    H226210   2.399   2.352   0.433  0.8258 -1.1577 -0.4682
 1551TIP3   OH226211   0.366   3.757   1.421  0.0197 -0.0697 -0.3340
 1551TIP3    H126212   0.315   3.838   1.426 -0.7335 -0.5740  0.4029
 1551TIP3    H226213   0.398   3.743   1.510 -0.1742 -0.7792 -0.3710
 1552TIP3   OH226214   4.123   3.326   0.222  0.0800  0.1927 -0.1891
 1552TIP3    H126215   4.055   3.262   0.204  0.6147  0.1339 -2.3966
 1552TIP3    H226216   4.077   3.400   0.261 -0.6249 -1.2467  1.8746
 1553TIP3   OH226217   3.765   6.636   7.947  0.4536 -0.1254  0.2527
 1553TIP3    H126218   3.716   6.559   7.975  1.9322 -0.7060  1.4027
 1553TIP3    H226219   3.750   6.700   8.017 -0.2071  0.3954 -0.3527
 1554TIP3   OH226220   4.891   4.821   2.224 -0.4216 -0.1238  0.4906
 1554TIP3    H126221   4.984   4.811   2.240 -0.0573 -0.6311 -1.5931
 1554TIP3    H226222   4.883   4.900   2.170 -1.1625 -0.2109  0.4514
 1555TIP3   OH226223   3.590   5.690   8.518  0.1046 -0.3271  0.2751
 1555TIP3    H126224   3.508   5.664   8.559 -0.8117 -0.2174 -1.3780
 1555TIP3    H226225   3.599   5.630   8.443  1.6015 -0.4138  0.4988
 1556TIP3   OH226226   2.593   2.931   7.910  0.1228  0.2562  0.1477
 1556TIP3    H126227   2.612   2.838   7.921  2.0642  0.7715  1.6363
 1556TIP3    H226228   2.589   2.943   7.815  0.1374 -1.2842 -0.0712
 1557TIP3   OH226229   3.340   2.667   7.718  0.3629 -0.9445  0.2889
 1557TIP3    H126230   3.308   2.620   7.641  1.0929  0.6053 -1.0246
 1557TIP3    H226231   3.429   2.633   7.731  1.5405  1.1072 -1.6904
 1558TIP3   OH226232   2.480   4.112   0.012 -0.6127 -0.3184 -0.3127
 1558TIP3    H126233   2.423   4.046  -0.026 -1.9394 -0.1316  1.2519
 1558TIP3    H226234   2.421   4.180   0.044  0.4488 -0.0774  1.2683
 1559TIP3   OH226235   5.306   4.548   1.266 -0.1365 -0.3549  0.3087
 1559TIP3    H126236   5.397   4.570   1.249  0.0065  1.1434  2.4928
 1559TIP3    H226237   5.256   4.625   1.237 -0.6978 -1.0397 -0.5973
 1560TIP3   OH226238   5.527   1.309   6.709 -0.3278  0.3477 -0.2354
 1560TIP3    H126239   5.574   1.363   6.772 -0.3669 -0.2269  0.3079
 1560TIP3    H226240   5.456   1.270   6.761 -0.4987  0.0446 -0.6925
 1561TIP3   OH226241   0.894   4.079   0.813 -0.3342 -0.3688  0.1301
 1561TIP3    H126242   0.951   4.005   0.794 -2.0946 -1.5253 -0.9410
 1561TIP3    H226243   0.925   4.149   0.755  0.3668 -0.7671  0.0192
 1562TIP3   OH226244   0.491   6.249   1.315  0.9528 -0.4284  0.4153
 1562TIP3    H126245   0.465   6.157   1.310  0.1385 -0.2203  0.6547
 1562TIP3    H226246   0.445   6.292   1.243  0.5968 -0.0484  0.8608
 1563TIP3   OH226247   1.006   0.293   1.530  0.3440  0.1519  0.2752
 1563TIP3    H126248   0.937   0.345   1.489  0.7747  0.1956 -0.4076
 1563TIP3    H226249   0.959   0.223   1.574 -0.2198  0.9205  0.9206
 1564TIP3   OH226250   2.779   4.531   7.497  0.5462 -0.3068  0.1102
 1564TIP3    H126251   2.806   4.586   7.424  0.2950 -1.6389 -1.0340
 1564TIP3    H226252   2.826   4.449   7.484  0.4132 -0.6061  1.3959
 1565TIP3   OH226253   4.901   6.160   1.607 -1.0523  0.2790  0.0367
 1565TIP3    H126254   4.814   6.178   1.572 -0.1755  1.7652 -1.5357
 1565TIP3    H226255   4.912   6.223   1.678 -1.1619  0.2781  0.0540
 1566TIP3   OH226256   1.109   6.382   7.782  0.0889  0.5004  0.1723
 1566TIP3    H126257   1.074   6.443   7.848 -0.1679  1.4922 -0.8480
 1566TIP3    H226258   1.049   6.390   7.708  1.1215  0.4263 -0.6991
 1567TIP3   OH226259   5.148   3.322   1.543 -0.7933  0.1381 -0.1377
 1567TIP3    H126260   5.234   3.344   1.579 -0.7321  0.5656 -0.5226
 1567TIP3    H226261   5.149   3.227   1.534 -1.6525 -0.2535  3.0492
 1568TIP3   OH226262   3.316   1.762   6.861 -0.1576  0.2455  0.3239
 1568TIP3    H126263   3.364   1.737   6.939  0.8538  1.3550  0.0839
 1568TIP3    H226264   3.301   1.856   6.870 -1.2818  0.1280 -0.1509
 1569TIP3   OH226265   1.972   2.846   8.629  0.4807 -0.4954 -0.2465
 1569TIP3    H126266   2.006   2.757   8.628  0.4046 -0.5527  1.0149
 1569TIP3    H226267   2.043   2.899   8.663 -0.2924 -0.4778  1.4730
 1570TIP3   OH226268   5.947   6.438   0.489 -0.3015 -0.0016  0.6697
 1570TIP3    H126269   5.967   6.442   0.582 -0.5142 -0.3872  0.7326
 1570TIP3    H226270   5.885   6.365   0.480 -0.6499  0.3297  0.2972
 1571TIP3   OH226271   5.008   5.484   7.110  0.4804  0.1863  0.0323
 1571TIP3    H126272   4.926   5.455   7.069  0.9960  0.6166 -1.3674
 1571TIP3    H226273   5.074   5.469   7.043  1.4617  0.3966  0.9385
 1572TIP3   OH226274   6.350   2.755   1.778 -0.1315  0.6006 -0.5501
 1572TIP3    H126275   6.432   2.716   1.748  1.0169  2.5086 -0.0463
 1572TIP3    H226276   6.315   2.800   1.701 -1.1387 -0.8244 -0.9666
 1573TIP3   OH226277   3.739   4.557   8.248 -0.1061 -0.0724 -0.1853
 1573TIP3    H126278   3.707   4.558   8.158 -0.9845  0.6805  0.1307
 1573TIP3    H226279   3.684   4.619   8.295 -0.2421 -1.1007  1.0836
 1574TIP3   OH226280   6.381   4.339   1.627  0.1650  0.0963  0.0266
 1574TIP3    H126281   6.374   4.260   1.573 -0.3531  0.0705  0.1224
 1574TIP3    H226282   6.346   4.312   1.713 -1.2545  0.7760 -0.3126
 1575TIP3   OH226283   1.579   4.563   7.506 -0.4546 -0.0159  0.1910
 1575TIP3    H126284   1.631   4.585   7.583 -2.1139  0.3431  1.2461
 1575TIP3    H226285   1.615   4.618   7.436 -0.6080  1.6154  1.3469
 1576TIP3   OH226286   0.695   1.362   0.198  0.0942  0.5493 -0.1173
 1576TIP3    H126287   0.729   1.275   0.217  0.9625  0.5776 -1.3847
 1576TIP3    H226288   0.720   1.378   0.107 -3.0119  0.7375 -1.0708
 1577TIP3   OH226289   5.693   6.524   7.001  0.2283  0.3914  0.1199
 1577TIP3    H126290   5.707   6.552   6.911  2.7563  1.0298  0.6170
 1577TIP3    H226291   5.673   6.605   7.048  3.9573  1.0272  0.9219
 1578TIP3   OH226292   5.412   1.259   2.034  0.3101 -0.5169 -0.1862
 1578TIP3    H126293   5.435   1.227   1.947  0.1600  0.8586 -0.7525
 1578TIP3    H226294   5.487   1.236   2.089 -0.0290 -2.3363 -0.3942
 1579TIP3   OH226295   5.729   6.254   0.555  0.6909 -0.2087 -0.3191
 1579TIP3    H126296   5.660   6.263   0.490 -0.0823  1.8703  0.7215
 1579TIP3    H226297   5.703   6.177   0.606 -0.1897 -0.1682 -0.6832
 1580TIP3   OH226298   6.232   4.637   1.120  0.0921 -0.5450 -0.3548
 1580TIP3    H126299   6.278   4.686   1.188  0.3384 -0.2436 -0.7351
 1580TIP3    H226300   6.142   4.631   1.152  0.6172 -2.1290  0.9260
 1581TIP3   OH226301   6.669   2.452   7.989  0.7896  0.5614 -0.2443
 1581TIP3    H126302   6.670   2.392   8.063  0.0913  2.0969  1.0637
 1581TIP3    H226303   6.761   2.475   7.975  1.1970 -1.4361 -1.3811
 1582TIP3   OH226304   1.442   0.854   2.285  0.1755  0.0804 -0.1134
 1582TIP3    H126305   1.445   0.947   2.263  0.4727 -0.0585 -0.6847
 1582TIP3    H226306   1.349   0.835   2.297  0.1960  0.7154  1.1987
 1583TIP3   OH226307   5.048   2.059   7.949 -0.1464  0.3329 -0.3411
 1583TIP3    H126308   5.063   2.048   7.856 -0.4557 -2.4092 -0.1494
 1583TIP3    H226309   5.101   1.990   7.990 -0.2002  1.3229  1.4862
 1584TIP3   OH226310   1.575   6.401   0.130  0.0893 -0.5469 -0.5782
 1584TIP3    H126311   1.662   6.403   0.091  0.1003 -0.8124 -0.5666
 1584TIP3    H226312   1.590   6.389   0.224  0.0815  0.5755 -0.4183
 1585TIP3   OH226313   0.635   4.690   1.858  0.0211  0.1217 -0.5062
 1585TIP3    H126314   0.649   4.717   1.949  2.0329 -0.4936 -0.5929
 1585TIP3    H226315   0.540   4.695   1.846 -0.3676 -0.4444  1.8303
 1586TIP3   OH226316   2.606   5.801   0.678 -0.2779 -0.5288 -0.0453
 1586TIP3    H126317   2.648   5.792   0.764  0.7137 -0.5606 -0.5253
 1586TIP3    H226318   2.674   5.776   0.615 -0.3413  1.4790 -0.9620
 1587TIP3   OH226319   5.459   5.772   8.499 -0.0708 -0.0858 -0.0632
 1587TIP3    H126320   5.503   5.693   8.468 -2.2107 -1.1562 -0.5736
 1587TIP3    H226321   5.426   5.813   8.420 -0.5265  0.3313  0.3388
 1588TIP3   OH226322   6.812   5.282   7.596 -0.0566  0.0393 -0.3581
 1588TIP3    H126323   6.730   5.282   7.646  0.3758 -1.1717  0.3989
 1588TIP3    H226324   6.879   5.310   7.659  0.5741 -1.9697 -0.0576
 1589TIP3   OH226325   4.795   0.622   7.267  0.3734 -0.0500 -0.0924
 1589TIP3    H126326   4.780   0.716   7.262 -1.3820 -0.3228 -0.5456
 1589TIP3    H226327   4.776   0.599   7.358  1.5602  0.1360  0.2133
 1590TIP3   OH226328   3.058   1.520   0.064 -0.3612  0.0361  0.4049
 1590TIP3    H126329   3.067   1.552  -0.026  0.5981 -2.4594 -0.4814
 1590TIP3    H226330   2.989   1.575   0.102  0.0732  1.9943 -1.4227
 1591TIP3   OH226331   3.127   5.041   0.898  0.1871 -0.2141 -0.2207
 1591TIP3    H126332   3.222   5.052   0.896  0.1133  2.8384  2.8205
 1591TIP3    H226333   3.114   4.954   0.935  1.8350 -0.3773  0.0560
 1592TIP3   OH226334   0.777   3.749   8.400 -0.7305 -0.3293 -0.5432
 1592TIP3    H126335   0.859   3.708   8.372 -1.4073 -0.6761 -2.1365
 1592TIP3    H226336   0.793   3.843   8.392 -0.3266 -0.3737 -0.3114
 1593TIP3   OH226337   1.250   5.582   0.351 -0.0394  0.2824 -0.2311
 1593TIP3    H126338   1.210   5.527   0.284 -0.2159 -0.7672  0.7105
 1593TIP3    H226339   1.338   5.602   0.317  0.3771 -1.3564 -0.1927
 1594TIP3   OH226340   5.634   5.504   7.783  0.0066  0.3746  0.0041
 1594TIP3    H126341   5.565   5.560   7.748  0.2428  0.0726 -0.9860
 1594TIP3    H226342   5.618   5.418   7.744 -0.5260 -0.3509  1.7372
 1595TIP3   OH226343   6.645   4.583   7.617  0.2228  0.2987 -0.6522
 1595TIP3    H126344   6.686   4.526   7.682 -0.5599  1.7788  1.2617
 1595TIP3    H226345   6.719   4.625   7.573  0.8311  0.7346  0.7019
 1596TIP3   OH226346   0.438   5.680   8.561 -0.1487  0.2981 -0.6843
 1596TIP3    H126347   0.366   5.644   8.613 -0.2451  0.3870 -0.7583
 1596TIP3    H226348   0.408   5.673   8.470  0.7713 -1.6343 -0.9078
 1597TIP3   OH226349   2.330   6.049   0.461  0.4035  0.3531 -0.0570
 1597TIP3    H126350   2.333   5.954   0.467 -0.3192  0.3914  1.1169
 1597TIP3    H226351   2.291   6.078   0.543 -1.7160  1.5193 -1.3728
 1598TIP3   OH226352   0.391   3.849   0.398 -0.0940  0.6432  0.1182
 1598TIP3    H126353   0.382   3.893   0.482 -0.9633  1.6109 -0.4689
 1598TIP3    H226354   0.310   3.869   0.351 -1.3870 -2.9676  0.4387
 1599TIP3   OH226355   2.912   2.403   0.078 -0.3338  0.3375  0.2986
 1599TIP3    H126356   2.959   2.480   0.109  0.8954  0.1820 -1.0431
 1599TIP3    H226357   2.923   2.338   0.147 -0.4736  1.0075  0.9681
 1600TIP3   OH226358   5.964   1.727   7.737 -0.1127  0.4975 -0.1820
 1600TIP3    H126359   6.008   1.767   7.812 -0.2407  1.6745 -0.7163
 1600TIP3    H226360   5.969   1.793   7.668 -2.3420  0.5331 -0.3833
 1601TIP3   OH226361   5.765   6.264   8.672  0.2653  0.1705  0.0418
 1601TIP3    H126362   5.781   6.179   8.713  1.6346  0.7208  0.7386
 1601TIP3    H226363   5.706   6.309   8.732  0.6205  0.2005  0.3751
 1602TIP3   OH226364   6.462   0.652   7.329  0.4485  0.0919 -0.7640
 1602TIP3    H126365   6.385   0.696   7.294  0.2147  0.0723 -0.2756
 1602TIP3    H226366   6.510   0.622   7.252 -1.6100 -2.7167 -1.0531
 1603TIP3   OH226367   3.086   4.737   1.483  0.1498 -0.4117  0.1281
 1603TIP3    H126368   3.114   4.682   1.556  2.1284 -1.4148 -1.2945
 1603TIP3    H226369   3.118   4.692   1.405  1.1377  2.3369 -1.1937
 1604TIP3   OH226370   6.747   2.105   1.012  0.0577  0.3445 -0.0102
 1604TIP3    H126371   6.827   2.079   0.966  1.5606  1.6637  1.6784
 1604TIP3    H226372   6.705   2.167   0.953 -0.4046 -1.2539 -1.4363
 1605TIP3   OH226373   2.047   2.450   0.560 -0.3501  0.6207 -0.3546
 1605TIP3    H126374   2.131   2.498   0.564 -0.4206  0.9025 -1.7315
 1605TIP3    H226375   1.998   2.482   0.635 -0.5876  3.1751 -1.4885
 1606TIP3   OH226376   3.347   1.535   7.024  0.6057 -0.0330  0.0968
 1606TIP3    H126377   3.254   1.545   7.044  0.3262 -0.6500 -0.8246
 1606TIP3    H226378   3.349   1.479   6.947  1.7935 -0.9575  0.7622
 1607TIP3   OH226379   5.157   5.201   8.553 -0.0366  0.2934  0.3535
 1607TIP3    H126380   5.133   5.217   8.462 -2.2811 -3.5022  0.0760
 1607TIP3    H226381   5.229   5.138   8.549  1.1219  1.4877  1.2820
 1608TIP3   OH226382   4.212   1.127   8.038 -0.2651  0.4887 -0.0851
 1608TIP3    H126383   4.288   1.089   7.995 -0.3408  1.2383 -0.9250
 1608TIP3    H226384   4.244   1.157   8.123  0.2045  0.1675 -0.1460
 1609TIP3   OH226385   0.674   2.466   7.168  0.0373  0.0393  0.4994
 1609TIP3    H126386   0.662   2.487   7.076 -0.8107  1.9771  0.9798
 1609TIP3    H226387   0.607   2.400   7.186  0.8149 -1.0337 -0.4551
 1610TIP3   OH226388   2.970   5.867   1.759 -0.2293 -0.2103 -0.1600
 1610TIP3    H126389   2.991   5.785   1.804 -0.2453 -1.1326 -1.7591
 1610TIP3    H226390   3.036   5.874   1.690  0.8633  2.0614  1.0238
 1611TIP3   OH226391   0.055   6.288   6.611  0.1727  0.2070 -0.2070
 1611TIP3    H126392   0.022   6.205   6.644 -0.6404 -0.0901 -1.6606
 1611TIP3    H226393   0.150   6.279   6.612  0.1564 -0.0227  1.3694
 1612TIP3   OH226394   1.773   3.710   0.403 -0.0176 -0.2843 -0.6769
 1612TIP3    H126395   1.788   3.804   0.414  1.2044 -0.6074  0.7955
 1612TIP3    H226396   1.690   3.694   0.449  0.8210 -0.2311  0.9220
 1613TIP3   OH226397   1.298   2.834   8.504  0.3847 -0.0520  0.3376
 1613TIP3    H126398   1.318   2.798   8.590  0.1446  0.9850  0.8417
 1613TIP3    H226399   1.324   2.765   8.443  2.2961 -0.1099  1.1396
 1614TIP3   OH226400   1.962   1.412   7.740  0.0369  0.2497 -0.0055
 1614TIP3    H126401   2.048   1.381   7.769  0.2660  0.0856 -0.8361
 1614TIP3    H226402   1.971   1.423   7.646  0.0090  2.9963  0.2407
 1615TIP3   OH226403   5.225   2.065   1.773 -0.1670  0.4175  0.3857
 1615TIP3    H126404   5.258   2.148   1.736 -0.7125 -0.0921 -1.3546
 1615TIP3    H226405   5.304   2.018   1.799  0.1139  2.0752  2.9274
 1616TIP3   OH226406   3.904   4.411   1.649 -0.7101 -0.6699 -0.1745
 1616TIP3    H126407   3.884   4.370   1.732 -0.2152 -0.5867 -0.0077
 1616TIP3    H226408   3.920   4.338   1.589  0.3298 -0.7406  0.1613
 1617TIP3   OH226409   6.791   0.258   1.210 -0.3172  0.0761  0.2465
 1617TIP3    H126410   6.766   0.174   1.173  0.7518  0.4418 -1.4200
 1617TIP3    H226411   6.753   0.258   1.298 -1.1605 -1.7193 -0.0752
 1618TIP3   OH226412   3.563   4.568   7.280  0.4021  0.2662 -0.0499
 1618TIP3    H126413   3.587   4.501   7.344  2.4252  1.3024  0.3831
 1618TIP3    H226414   3.613   4.546   7.202  1.2123  1.3148  0.1495
 1619TIP3   OH226415   5.751   0.647   2.514 -0.0815 -0.7056  0.3383
 1619TIP3    H126416   5.675   0.642   2.457  0.0644  1.1653 -0.1016
 1619TIP3    H226417   5.755   0.562   2.557 -1.8491 -1.1676 -0.3297
 1620TIP3   OH226418   1.916   0.850   7.320 -0.0527  1.1132  0.0562
 1620TIP3    H126419   1.847   0.786   7.307  0.5456  0.5021 -0.1878
 1620TIP3    H226420   1.919   0.865   7.414 -0.5898  1.2366  0.0561
 1621TIP3   OH226421   2.840   6.428   8.593 -0.1767  0.3206  0.4457
 1621TIP3    H126422   2.832   6.379   8.511 -0.1524 -0.1467  0.7169
 1621TIP3    H226423   2.797   6.373   8.658  2.5524 -0.8880  1.3875
 1622TIP3   OH226424   6.585   1.584   8.098 -0.3220  0.0759  0.6178
 1622TIP3    H126425   6.574   1.567   8.191  0.4105  0.1737  0.7323
 1622TIP3    H226426   6.644   1.514   8.068  0.4738  0.7766  0.5040
 1623TIP3   OH226427   1.937   6.022   6.852  0.0334 -0.0487  0.0333
 1623TIP3    H126428   1.934   6.114   6.825 -0.5339 -0.9209 -3.4675
 1623TIP3    H226429   1.920   5.974   6.771  1.4775 -3.2945  1.4994
 1624TIP3   OH226430   5.808   3.644   0.654  0.5991 -0.2614  0.3610
 1624TIP3    H126431   5.846   3.576   0.598  1.9129  0.3256  0.5095
 1624TIP3    H226432   5.716   3.649   0.626  0.6282 -1.6523 -0.0712
 1625TIP3   OH226433   1.953   1.987   0.405 -0.0574 -0.3220 -0.4225
 1625TIP3    H126434   2.045   2.010   0.415  0.4087 -2.2858  0.2839
 1625TIP3    H226435   1.906   2.062   0.440  1.2043  1.3270 -2.0844
 1626TIP3   OH226436   5.307   3.090   8.204 -0.0638  0.1063 -0.3521
 1626TIP3    H126437   5.312   3.126   8.293  0.3315  1.4621 -0.8919
 1626TIP3    H226438   5.213   3.076   8.189 -0.0762 -0.8422  0.5327
 1627TIP3   OH226439   6.582   3.028   7.939 -0.5737  0.2282 -0.2070
 1627TIP3    H126440   6.626   3.072   8.011 -0.7374  2.0846 -1.1858
 1627TIP3    H226441   6.590   2.935   7.960  2.1935  0.5354  0.5895
 1628TIP3   OH226442   5.514   6.186   0.397  0.1195  0.4444 -0.5342
 1628TIP3    H126443   5.430   6.210   0.357 -0.4138  1.0249  0.8661
 1628TIP3    H226444   5.519   6.091   0.389 -0.0878  0.5174 -1.7099
 1629TIP3   OH226445   6.723   5.811   1.450 -0.8389 -0.4389 -0.1743
 1629TIP3    H126446   6.680   5.730   1.422 -0.0155 -1.0250  0.2049
 1629TIP3    H226447   6.743   5.797   1.543  0.6574 -0.4223 -0.4654
 1630TIP3   OH226448   5.345   2.994   8.644  0.2347 -0.0795  0.5207
 1630TIP3    H126449   5.282   3.029   8.707 -0.5556  1.7020 -1.1452
 1630TIP3    H226450   5.302   2.917   8.607  0.4225 -0.7386  1.6347
 1631TIP3   OH226451   1.802   4.361   8.552  0.0224  0.7896  0.6100
 1631TIP3    H126452   1.772   4.438   8.601 -1.5953  0.5538  0.0489
 1631TIP3    H226453   1.871   4.394   8.495 -0.4817  1.7782  0.5514
 1632TIP3   OH226454   3.371   4.186   0.719 -0.3315  0.1969 -0.5006
 1632TIP3    H126455   3.415   4.148   0.795  0.1924  0.8342 -0.4681
 1632TIP3    H226456   3.331   4.266   0.752  0.6526  0.9462 -1.0656
 1633TIP3   OH226457   0.433   4.832   0.046 -0.0663 -0.1705 -0.1549
 1633TIP3    H126458   0.345   4.814   0.014 -0.2686 -1.5571  1.0994
 1633TIP3    H226459   0.466   4.747   0.076  0.7566  0.7399  1.6820
 1634TIP3   OH226460   0.890   0.540   1.065  0.5544 -0.2060 -0.4718
 1634TIP3    H126461   0.887   0.518   0.971  2.1285  2.4383 -1.2474
 1634TIP3    H226462   0.935   0.466   1.105 -0.9657 -1.8422 -1.5870
 1635TIP3   OH226463   4.717   0.248   6.498  0.2619 -0.5120 -0.2623
 1635TIP3    H126464   4.728   0.343   6.497 -0.6744 -0.2529  2.6295
 1635TIP3    H226465   4.777   0.218   6.567 -2.1948 -1.4440  1.6171
 1636TIP3   OH226466   1.243   4.712   1.703 -0.5882  0.5149  0.1876
 1636TIP3    H126467   1.199   4.796   1.713  0.7521  1.2055  0.4699
 1636TIP3    H226468   1.221   4.663   1.783 -1.3107  0.6072  0.0539
 1637TIP3   OH226469   4.116   6.492   0.037  0.2330 -0.5340  0.4053
 1637TIP3    H126470   4.191   6.544   0.067 -1.0750  2.5095 -1.1569
 1637TIP3    H226471   4.153   6.433  -0.028  1.2365  1.6028 -1.0874
 1638TIP3   OH226472   5.251   1.833   1.135 -0.2596 -0.9217  0.1610
 1638TIP3    H126473   5.236   1.865   1.224 -0.2882 -0.9724  0.1744
 1638TIP3    H226474   5.164   1.837   1.094 -0.2924 -1.1234  0.2091
 1639TIP3   OH226475   2.963   1.484   6.613 -0.1729 -0.3412 -0.0643
 1639TIP3    H126476   3.050   1.524   6.617 -0.1499 -0.4470  2.5887
 1639TIP3    H226477   2.910   1.546   6.564  0.8721  0.8616  0.2573
 1640TIP3   OH226478   0.412   6.356   0.669  0.4430  0.0398 -0.4075
 1640TIP3    H126479   0.335   6.369   0.615  0.5619  0.8925 -0.3882
 1640TIP3    H226480   0.384   6.381   0.757  0.2627 -1.2941 -0.0554
 1641TIP3   OH226481   3.643   2.492   1.499  0.6302  0.1585 -0.0804
 1641TIP3    H126482   3.554   2.464   1.520  0.7643 -0.1988  0.0280
 1641TIP3    H226483   3.633   2.579   1.460  0.2510  0.1980  0.1007
 1642TIP3   OH226484   3.943   3.625   8.572  0.6429 -0.3538 -0.4089
 1642TIP3    H126485   4.005   3.556   8.546 -0.5900 -1.1928 -1.2030
 1642TIP3    H226486   3.892   3.643   8.493  0.1622  0.6439  0.1122
 1643TIP3   OH226487   5.545   4.193   2.754  0.0715  0.6048  0.4247
 1643TIP3    H126488   5.632   4.192   2.795  0.9676  1.4979 -1.3170
 1643TIP3    H226489   5.540   4.279   2.713 -0.6392 -0.2939 -1.4921
 1644TIP3   OH226490   2.975   0.619   8.725  0.4721  0.2330 -0.2980
 1644TIP3    H126491   2.989   0.558   8.797  0.9325  1.4631  0.6871
 1644TIP3    H226492   2.943   0.564   8.653 -0.9212 -0.9122  1.1052
 1645TIP3   OH226493   2.270   0.448   8.070  0.5835  0.6908  0.0815
 1645TIP3    H126494   2.195   0.496   8.104 -0.2609 -0.2598 -0.3684
 1645TIP3    H226495   2.274   0.471   7.977 -1.1077 -1.5747 -0.6552
 1646TIP3   OH226496   2.955   1.913   0.259 -0.2338 -0.2183 -0.3282
 1646TIP3    H126497   3.040   1.913   0.215 -1.3429 -1.5159 -2.7089
 1646TIP3    H226498   2.944   1.823   0.290 -0.7680 -0.0904 -0.1213
 1647TIP3   OH226499   5.491   3.659   7.481 -0.4159 -0.5929  0.4613
 1647TIP3    H126500   5.475   3.723   7.412 -1.3105 -0.8582  0.4126
 1647TIP3    H226501   5.585   3.665   7.498 -0.1923 -0.5041 -0.7535
 1648TIP3   OH226502   1.387   0.801   7.468 -0.1818  0.1869  0.2097
 1648TIP3    H126503   1.405   0.729   7.408 -0.2503  0.5716 -0.2833
 1648TIP3    H226504   1.445   0.786   7.542 -0.3370 -0.4797  0.1992
 1649TIP3   OH226505   4.000   2.289   7.629 -0.1383  0.3412  0.2678
 1649TIP3    H126506   4.032   2.351   7.694  0.8636 -0.3506  0.4638
 1649TIP3    H226507   3.983   2.343   7.552  0.8655  0.8644  0.3840
 1650TIP3   OH226508   4.839   0.486   2.453 -0.0772 -0.3952 -0.2318
 1650TIP3    H126509   4.916   0.443   2.489  0.7652  0.5323 -0.8622
 1650TIP3    H226510   4.874   0.558   2.401 -1.4090  0.4468  0.0001
 1651TIP3   OH226511   2.824   2.693   7.370  0.2107  0.0362  0.3242
 1651TIP3    H126512   2.830   2.599   7.386  0.9618  0.1268  0.6197
 1651TIP3    H226513   2.867   2.706   7.286  1.6277  0.3106  1.0550
 1652TIP3   OH226514   3.128   1.028   0.650  0.0926  0.1624  0.3659
 1652TIP3    H126515   3.048   1.061   0.610 -0.0149 -0.0518  0.4029
 1652TIP3    H226516   3.109   0.936   0.669  0.3554  0.1046  0.3523
 1653TIP3   OH226517   0.045   1.464   2.646  0.0092 -0.0626 -0.5160
 1653TIP3    H126518   0.003   1.379   2.659  1.1228 -0.2194  3.3468
 1653TIP3    H226519  -0.027   1.526   2.642 -0.7899 -0.7754  1.4207
 1654TIP3   OH226520   3.588   2.523   7.731  0.4002 -0.0040 -0.4851
 1654TIP3    H126521   3.676   2.527   7.770  0.0433 -2.2641  0.7224
 1654TIP3    H226522   3.593   2.450   7.669 -1.0588 -1.3862  0.9362
 1655TIP3   OH226523   2.986   6.110   7.952 -0.7331 -0.2467  0.2457
 1655TIP3    H126524   3.000   6.132   7.860  3.6171 -1.2617  0.4643
 1655TIP3    H226525   2.989   6.015   7.955 -1.0856 -0.2333  1.4382
 1656TIP3   OH226526   0.938   4.505   8.611 -0.2268  0.2008 -0.2144
 1656TIP3    H126527   1.001   4.437   8.586 -1.3205 -0.7770 -0.4351
 1656TIP3    H226528   0.962   4.529   8.700  1.3774  0.9555 -0.8143
 1657TIP3   OH226529   1.104   0.362   7.593 -0.1785  0.2750  0.4128
 1657TIP3    H126530   1.140   0.385   7.679  0.0901  0.7060  0.1894
 1657TIP3    H226531   1.051   0.284   7.609 -0.7364  0.7929  1.0984
 1658TIP3   OH226532   2.207   4.978   6.816  0.1543 -0.3975 -0.3438
 1658TIP3    H126533   2.275   4.912   6.835 -0.5481 -1.1407 -0.3464
 1658TIP3    H226534   2.171   4.951   6.731 -3.1331 -2.6912  1.5425
 1659TIP3   OH226535   5.046   6.834   0.124  0.1909  0.9620  0.5931
 1659TIP3    H126536   4.970   6.887   0.148 -0.5401  0.3087 -0.1947
 1659TIP3    H226537   5.044   6.761   0.186  1.1312  1.7592  1.6046
 1660TIP3   OH226538   3.056   1.753   0.670 -0.5425 -0.1692 -0.1436
 1660TIP3    H126539   2.980   1.806   0.647  0.7831  1.5584 -0.7334
 1660TIP3    H226540   3.047   1.739   0.765 -1.0150  0.9761 -0.0047
 1661TIP3   OH226541   0.685   1.879   1.383 -0.7359 -0.0473  0.3472
 1661TIP3    H126542   0.594   1.853   1.370 -1.1011  1.0547  0.5952
 1661TIP3    H226543   0.694   1.887   1.478  0.2693 -2.3178  0.5110
 1662TIP3   OH226544   6.223   3.877   1.958 -0.2404  0.8626 -0.1796
 1662TIP3    H126545   6.309   3.919   1.967  0.5470 -0.8587  0.7868
 1662TIP3    H226546   6.242   3.784   1.957 -2.2462  0.3566  1.9266
 1663TIP3   OH226547   4.106   5.961   2.395  0.1851  0.2638 -0.2435
 1663TIP3    H126548   4.029   5.940   2.342  2.5373 -0.1654 -3.7417
 1663TIP3    H226549   4.110   6.056   2.394  0.6551  0.2518 -1.6438
 1664TIP3   OH226550   4.466   3.114   8.086  0.0018  0.0761 -0.1019
 1664TIP3    H126551   4.494   3.037   8.036  0.1026  1.0045 -1.5174
 1664TIP3    H226552   4.371   3.113   8.080  0.0132  0.1795 -0.2811
 1665TIP3   OH226553   3.670   1.371   0.005  0.4626  0.2149  0.2831
 1665TIP3    H126554   3.614   1.336  -0.064 -0.0362 -0.5299  1.0544
 1665TIP3    H226555   3.758   1.341  -0.018  0.6276  1.5916 -1.0675
 1666TIP3   OH226556   4.400   6.596   0.085 -0.0711 -0.4829 -0.3854
 1666TIP3    H126557   4.424   6.512   0.123 -0.4276 -0.3045  0.2459
 1666TIP3    H226558   4.450   6.660   0.135 -1.0842 -0.1880  0.2794
 1667TIP3   OH226559   4.565   5.384   2.480 -0.1512  0.1671 -0.0504
 1667TIP3    H126560   4.574   5.402   2.387 -1.8883 -1.1371 -0.5129
 1667TIP3    H226561   4.654   5.371   2.511  0.6083  2.3452 -1.1311
 1668TIP3   OH226562   5.489   6.480   1.285 -0.8037  0.2869 -0.2004
 1668TIP3    H126563   5.486   6.442   1.197 -0.1242 -0.0836 -0.0654
 1668TIP3    H226564   5.469   6.407   1.343  1.0890 -0.0293  0.1007
 1669TIP3   OH226565   4.021   0.030   2.642 -0.3839 -0.2319  0.8919
 1669TIP3    H126566   4.104  -0.008   2.611 -1.4495 -0.3343 -2.1418
 1669TIP3    H226567   3.989  -0.033   2.707  0.2523 -2.0421 -0.4590
 1670TIP3   OH226568   1.429   5.276   7.606  0.1954  0.5836 -0.1022
 1670TIP3    H126569   1.350   5.320   7.574 -0.2301 -0.0237  0.1000
 1670TIP3    H226570   1.484   5.266   7.528 -0.3568  0.1079 -0.4411
 1671TIP3   OH226571   3.109   3.029   2.009  0.5512 -0.4322  0.4831
 1671TIP3    H126572   3.123   3.124   2.016 -1.3865 -0.1730  1.4707
 1671TIP3    H226573   3.114   3.011   1.915  3.4369  0.1668  0.4242
 1672TIP3   OH226574   5.661   0.450   0.287  0.6320 -0.1645  0.1733
 1672TIP3    H126575   5.597   0.393   0.244  2.2298 -1.6545 -0.2982
 1672TIP3    H226576   5.633   0.539   0.263 -0.0412 -0.8495 -1.7679
 1673TIP3   OH226577   1.856   1.213   6.449 -0.4705  0.3558 -0.1587
 1673TIP3    H126578   1.903   1.142   6.407  1.4765  1.1899  0.4806
 1673TIP3    H226579   1.824   1.267   6.376 -2.6120 -1.4660 -0.6735
 1674TIP3   OH226580   3.015   2.430   6.868  0.6377  0.3888 -0.3458
 1674TIP3    H126581   3.080   2.473   6.812  1.7744 -1.1128 -0.2593
 1674TIP3    H226582   3.066   2.366   6.919 -0.8344 -0.4702  0.1265
 1675TIP3   OH226583   0.377   3.437   8.389 -0.3537 -0.2297  0.2897
 1675TIP3    H126584   0.348   3.511   8.442 -0.8209 -0.0330 -0.2268
 1675TIP3    H226585   0.305   3.423   8.327  0.8429  0.5646 -1.3491
 1676TIP3   OH226586   2.433   4.830   2.493 -0.6652  0.0956 -0.3964
 1676TIP3    H126587   2.432   4.794   2.582 -1.9108  2.4606  0.6169
 1676TIP3    H226588   2.514   4.881   2.490  0.0647 -1.0617 -1.1325
 1677TIP3   OH226589   6.007   2.102   8.624  0.0590 -0.3889 -0.4062
 1677TIP3    H126590   5.988   2.052   8.545  1.0855 -2.1997  0.4336
 1677TIP3    H226591   5.940   2.074   8.687  1.2135 -1.5184  0.3731
 1678TIP3   OH226592   4.832   0.682   1.227  0.0611  0.0042  0.1133
 1678TIP3    H126593   4.873   0.604   1.263  1.7458  0.7324 -0.1129
 1678TIP3    H226594   4.881   0.755   1.266 -0.4265  0.8890 -0.8697
 1679TIP3   OH226595   2.199   0.318   7.097  0.4961 -0.2626  0.3745
 1679TIP3    H126596   2.178   0.233   7.136  2.5370 -1.4340 -0.9215
 1679TIP3    H226597   2.160   0.381   7.158 -1.8045 -2.0765  0.9539
 1680TIP3   OH226598   4.543   2.024   1.840  0.7267 -0.1583  0.3108
 1680TIP3    H126599   4.453   2.054   1.853 -0.0339 -1.8691 -0.6405
 1680TIP3    H226600   4.550   1.946   1.895  1.2857 -0.6223 -0.3988
 1681TIP3   OH226601   3.847   3.742   7.603 -0.1116  0.2730 -0.8163
 1681TIP3    H126602   3.826   3.677   7.537  0.5979  0.1139 -0.8829
 1681TIP3    H226603   3.783   3.726   7.673 -0.0863 -0.3391 -0.9318
 1682TIP3   OH226604   0.692   1.451   6.518 -0.4513  0.3823 -0.1941
 1682TIP3    H126605   0.611   1.501   6.511 -2.3228 -2.3563  0.3296
 1682TIP3    H226606   0.666   1.360   6.504  2.2646 -0.8205  1.6140
 1683TIP3   OH226607   1.057   0.320   8.207 -0.0858  0.1299 -0.1591
 1683TIP3    H126608   1.060   0.414   8.224  0.6514  0.5636 -2.2971
 1683TIP3    H226609   0.965   0.302   8.186 -0.0955  0.5297 -0.4629
 1684TIP3   OH226610   0.937   2.504   1.855 -0.0491 -0.1739 -1.3154
 1684TIP3    H126611   0.880   2.512   1.778 -1.1274 -3.4760 -1.0241
 1684TIP3    H226612   0.884   2.456   1.919  0.4941  3.1619  1.9473
 1685TIP3   OH226613   5.194   0.448   1.682 -0.2164  0.4977  0.8728
 1685TIP3    H126614   5.181   0.533   1.640  2.1891  0.3888 -0.2903
 1685TIP3    H226615   5.107   0.411   1.690 -0.9977  1.1094 -2.8651
 1686TIP3   OH226616   0.024   5.635   8.280 -0.4056 -0.0698  0.0019
 1686TIP3    H126617  -0.051   5.615   8.336 -2.0928  1.5450 -1.5227
 1686TIP3    H226618  -0.013   5.640   8.192  1.3302  1.5635 -0.7067
 1687TIP3   OH226619   4.682   4.880   2.365 -0.2215  0.1289 -0.6402
 1687TIP3    H126620   4.761   4.831   2.345  0.9745  0.7262  2.1726
 1687TIP3    H226621   4.713   4.965   2.395 -1.7984  0.0090  1.5993
 1688TIP3   OH226622   2.459   5.247   0.954 -0.2744 -1.0278 -0.3092
 1688TIP3    H126623   2.504   5.172   0.993 -2.0967 -1.1902  1.7140
 1688TIP3    H226624   2.371   5.244   0.992 -0.2943  2.4152  0.2849
 1689TIP3   OH226625   5.670   3.624   2.402  0.0810  0.3786 -0.0484
 1689TIP3    H126626   5.717   3.707   2.403 -1.1333  1.0995 -0.7987
 1689TIP3    H226627   5.612   3.628   2.477  1.5719 -0.7784  1.2559
 1690TIP3   OH226628   2.702   5.715   0.104 -0.4627  0.3806  0.2640
 1690TIP3    H126629   2.652   5.650   0.153 -1.1866  0.6888 -0.0557
 1690TIP3    H226630   2.755   5.760   0.171 -1.2215  0.6016  0.7270
 1691TIP3   OH226631   0.903   0.626   7.869  0.4351  0.1012  0.5131
 1691TIP3    H126632   0.905   0.714   7.906 -0.4206  0.6155 -0.6111
 1691TIP3    H226633   0.811   0.599   7.878  0.0945  0.4297 -1.6172
 1692TIP3   OH226634   2.356   1.408   1.657 -0.2596 -0.6007 -0.3234
 1692TIP3    H126635   2.375   1.323   1.619 -1.8791 -1.1755  0.0692
 1692TIP3    H226636   2.437   1.432   1.703  0.7101 -1.2278 -1.6362
 1693TIP3   OH226637   2.313   0.693   6.241  0.2756  0.2076  0.2593
 1693TIP3    H126638   2.359   0.626   6.191 -0.1078  0.2979 -0.2155
 1693TIP3    H226639   2.367   0.706   6.319 -1.0692 -2.7591  1.8383
 1694TIP3   OH226640   2.894   2.852   7.622 -0.3297  0.1265  0.5037
 1694TIP3    H126641   2.868   2.873   7.532 -0.9098  0.2673  0.6961
 1694TIP3    H226642   2.839   2.909   7.676 -1.3575 -1.2747  1.0097
 1695TIP3   OH226643   0.465   3.245   0.410 -0.6933  0.2008 -0.0368
 1695TIP3    H126644   0.451   3.325   0.461  1.5899  0.0848  0.9111
 1695TIP3    H226645   0.411   3.179   0.453 -2.3617  1.1070 -0.6406
 1696TIP3   OH226646   0.938   1.974   8.639  0.7571  0.2031 -0.5155
 1696TIP3    H126647   0.888   2.024   8.575 -1.2880 -2.1226 -0.8644
 1696TIP3    H226648   0.898   1.994   8.723  0.0958 -0.6191 -0.6256
 1697TIP3   OH226649   3.408   2.723   1.517  0.6042 -0.2089 -0.6048
 1697TIP3    H126650   3.449   2.801   1.480 -1.0343  0.9708 -0.1168
 1697TIP3    H226651   3.336   2.703   1.457  0.0609 -0.3670  0.0746
 1698TIP3   OH226652   2.592   0.569   7.084 -0.3604 -0.3745  0.4032
 1698TIP3    H126653   2.569   0.659   7.105  0.0639 -0.4709  1.3408
 1698TIP3    H226654   2.518   0.535   7.034 -0.3639  0.5978 -0.2670
 1699TIP3   OH226655   0.097   1.985   7.213 -0.2080 -0.1807  0.2400
 1699TIP3    H126656   0.159   2.025   7.152  1.0549 -0.1476  1.4751
 1699TIP3    H226657   0.117   1.892   7.211  0.3660 -0.0933  1.1233
 1700TIP3   OH226658   2.187   5.511   0.625 -0.1004  0.0332  0.1446
 1700TIP3    H126659   2.112   5.452   0.637 -0.5134  0.6369  0.6128
 1700TIP3    H226660   2.264   5.454   0.630 -0.2929 -0.1259  3.5729
 1701TIP3   OH226661   5.433   5.838   1.897 -0.3851 -0.1750  0.7312
 1701TIP3    H126662   5.419   5.859   1.804 -2.0339  0.5905  1.1180
 1701TIP3    H226663   5.348   5.806   1.927 -0.0053  0.0365  2.0941
 1702TIP3   OH226664   1.702   3.650   1.404 -0.3009  0.3485  0.1083
 1702TIP3    H126665   1.726   3.621   1.316 -1.1994 -0.2929  0.0609
 1702TIP3    H226666   1.784   3.648   1.453  0.0452 -0.1752 -0.4761
 1703TIP3   OH226667   2.255   0.755   1.762  0.2366 -0.2307  0.4308
 1703TIP3    H126668   2.181   0.701   1.789  3.0026 -3.9859  1.2321
 1703TIP3    H226669   2.307   0.766   1.841  1.9612 -0.2128 -0.6526
 1704TIP3   OH226670   3.396   6.446   1.376  0.2774  0.1901  0.1572
 1704TIP3    H126671   3.425   6.478   1.461  2.3198 -1.6439  0.2188
 1704TIP3    H226672   3.446   6.366   1.361 -1.1879 -0.4131 -2.0705
 1705TIP3   OH226673   1.803   4.022   7.367 -0.3504 -0.0886 -1.0322
 1705TIP3    H126674   1.809   3.927   7.380  3.3556 -0.0242 -1.2945
 1705TIP3    H226675   1.798   4.058   7.456  1.4604 -0.4924 -0.7193
 1706TIP3   OH226676   0.751   4.075   2.548 -0.1887  0.1929 -0.4265
 1706TIP3    H126677   0.755   4.160   2.593  0.3575  1.1884 -2.2522
 1706TIP3    H226678   0.841   4.057   2.523 -0.6590  0.4092 -2.3870
 1707TIP3   OH226679   1.989   4.373   2.571  0.4640 -0.1363 -0.5852
 1707TIP3    H126680   1.903   4.416   2.576  1.0517  0.9752  2.9360
 1707TIP3    H226681   2.051   4.446   2.559  1.0657 -0.6972 -0.9299
 1708TIP3   OH226682   0.438   6.686   7.162  0.1705  0.1438 -0.4006
 1708TIP3    H126683   0.354   6.732   7.164  0.2997  0.4004 -0.6484
 1708TIP3    H226684   0.487   6.723   7.235  0.7647  1.3837 -1.3691
 1709TIP3   OH226685   5.442   0.978   8.600  0.2018  0.4581 -0.5002
 1709TIP3    H126686   5.432   1.031   8.520 -1.6028  1.3806  0.2584
 1709TIP3    H226687   5.359   0.930   8.607 -0.8235  2.3371  2.0896
 1710TIP3   OH226688   3.654   0.105   0.611  0.5232  0.2875 -0.0202
 1710TIP3    H126689   3.636   0.188   0.567  0.0635 -0.1861 -0.7547
 1710TIP3    H226690   3.591   0.043   0.572  0.3319 -0.2307  1.0647
 1711TIP3   OH226691   1.798   4.371   2.267  0.3150 -0.3226  0.0992
 1711TIP3    H126692   1.860   4.436   2.299  0.2183 -0.3682  0.3786
 1711TIP3    H226693   1.741   4.353   2.341 -0.0725 -0.2347 -0.1736
 1712TIP3   OH226694   5.851   5.645   7.798  0.1673 -0.1434 -0.1689
 1712TIP3    H126695   5.780   5.586   7.773  0.3998  0.6107 -2.8536
 1712TIP3    H226696   5.823   5.732   7.768  1.5645  0.4379  0.0929
 1713TIP3   OH226697   1.609   0.791   7.674  0.0767 -0.2945  0.4283
 1713TIP3    H126698   1.681   0.759   7.728 -0.1443  0.5015  1.2267
 1713TIP3    H226699   1.568   0.859   7.727  0.6167  1.4080 -1.2136
 1714TIP3   OH226700   6.748   0.313   1.487 -0.9531  0.2811  0.8032
 1714TIP3    H126701   6.835   0.293   1.519 -1.0264 -0.3759  0.6122
 1714TIP3    H226702   6.690   0.253   1.535 -1.2797  0.5979  0.8119
 1715TIP3   OH226703   2.364   2.378   0.752  0.3209 -0.1053  0.0958
 1715TIP3    H126704   2.423   2.423   0.813  0.9751  0.8485 -1.2027
 1715TIP3    H226705   2.278   2.419   0.768 -0.0668 -1.4987  1.9898
 1716TIP3   OH226706   3.482   5.412   7.427  0.1948 -0.2735  0.5612
 1716TIP3    H126707   3.505   5.502   7.408 -1.8743  1.0746  3.6604
 1716TIP3    H226708   3.396   5.400   7.385  0.8217 -1.1110 -0.5215
 1717TIP3   OH226709   1.224   5.986   8.196 -0.0499 -0.5886  0.2383
 1717TIP3    H126710   1.301   6.026   8.237 -0.9486  1.6209 -0.1220
 1717TIP3    H226711   1.258   5.944   8.117  0.7955  0.4679  0.0167
 1718TIP3   OH226712   2.434   3.217   1.695  0.1211 -0.1232 -0.3371
 1718TIP3    H126713   2.406   3.216   1.787 -0.2615  0.3421 -0.4416
 1718TIP3    H226714   2.479   3.133   1.682  1.0056  0.2010  0.5263
 1719TIP3   OH226715   4.515   0.282   0.062 -0.1027  0.0711 -0.3234
 1719TIP3    H126716   4.547   0.365   0.025 -1.6303  0.5982 -0.5325
 1719TIP3    H226717   4.429   0.269   0.021 -0.4871 -0.9156  0.7500
 1720TIP3   OH226718   6.665   3.538   0.562 -0.2772 -0.4181  0.3021
 1720TIP3    H126719   6.725   3.575   0.627  0.1119 -1.0757  0.3323
 1720TIP3    H226720   6.669   3.443   0.578  0.6328 -0.6927 -1.3467
 1721TIP3   OH226721   1.921   6.442   7.259  0.2290 -0.4506 -0.5653
 1721TIP3    H126722   1.858   6.449   7.330  1.1063  1.8694  0.0835
 1721TIP3    H226723   1.902   6.358   7.218 -3.0773  0.0284 -0.2601
 1722TIP3   OH226724   1.681   0.364   0.218  0.1805  0.1096 -0.7004
 1722TIP3    H126725   1.665   0.275   0.249 -0.0083 -0.7904 -3.1176
 1722TIP3    H226726   1.745   0.400   0.279  0.3727 -1.7450  0.2537
 1723TIP3   OH226727   6.219   1.933   2.569  0.1068  0.1012  0.4636
 1723TIP3    H126728   6.184   2.016   2.600 -1.1650  0.1800 -1.0583
 1723TIP3    H226729   6.149   1.895   2.516  0.9617 -1.5570  0.4353
 1724TIP3   OH226730   3.632   2.034   2.263 -0.1920 -0.4034 -0.4711
 1724TIP3    H126731   3.706   2.011   2.206 -0.7206 -0.6239 -1.0872
 1724TIP3    H226732   3.635   1.970   2.334  0.2729 -0.3442 -0.4398
 1725TIP3   OH226733   0.494   4.457   8.708 -0.2550 -1.2384  0.0147
 1725TIP3    H126734   0.574   4.476   8.659  0.6152  0.6628  1.9894
 1725TIP3    H226735   0.425   4.455   8.641  1.0759 -0.4261 -1.4564
 1726TIP3   OH226736   5.878   0.816   7.926 -0.3870  0.2023  0.4799
 1726TIP3    H126737   5.961   0.774   7.951  0.1090  1.5105  1.1357
 1726TIP3    H226738   5.862   0.881   7.995 -0.7052  1.6244 -0.8567
 1727TIP3   OH226739   6.792   5.115   1.007 -0.1180  0.0290 -0.3927
 1727TIP3    H126740   6.704   5.085   1.029  0.2021  1.0001  2.8241
 1727TIP3    H226741   6.823   5.052   0.941 -2.3452 -1.7624  0.1309
 1728TIP3   OH226742   1.383   3.330   7.519  0.2331 -0.4424  0.3227
 1728TIP3    H126743   1.332   3.293   7.591 -0.7004  0.1311 -0.0266
 1728TIP3    H226744   1.330   3.315   7.441  2.4593 -3.5811 -0.7884
 1729TIP3   OH226745   4.879   4.099   8.495  0.2858  0.1056 -0.3349
 1729TIP3    H126746   4.789   4.101   8.462  0.0092 -0.9291  0.2843
 1729TIP3    H226747   4.892   4.007   8.520  0.9632  0.5565  1.0392
 1730TIP3   OH226748   2.797   2.389   7.467 -0.6100  0.8692  0.2683
 1730TIP3    H126749   2.738   2.333   7.517  0.1048 -0.6973 -0.5780
 1730TIP3    H226750   2.746   2.417   7.391 -0.4409 -0.0480 -0.1895
 1731TIP3   OH226751   4.031   6.198   7.600 -0.6828  0.3975  0.5022
 1731TIP3    H126752   3.955   6.185   7.657 -0.3844  0.2921  0.8794
 1731TIP3    H226753   4.086   6.121   7.615 -1.2866 -0.3680 -1.0342
 1732TIP3   OH226754   1.398   0.139   1.081  0.2331 -0.0547  0.0544
 1732TIP3    H126755   1.465   0.208   1.084 -0.9574  1.1216  2.5775
 1732TIP3    H226756   1.323   0.180   1.037 -0.6896  0.5301  2.0913
 1733TIP3   OH226757   1.244   1.290   7.201 -0.4360 -0.3440  0.1203
 1733TIP3    H126758   1.230   1.256   7.113 -0.2002  1.8331 -0.8268
 1733TIP3    H226759   1.176   1.248   7.254  2.0247 -5.0898  0.0260
 1734TIP3   OH226760   5.454   0.252   8.651 -0.1153  0.0413  0.1061
 1734TIP3    H126761   5.367   0.211   8.650 -0.4106  0.5184  2.0887
 1734TIP3    H226762   5.506   0.198   8.592 -1.2762 -1.3788  0.3120
 1735TIP3   OH226763   3.199   2.465   2.487  0.0414  0.3541 -0.3641
 1735TIP3    H126764   3.147   2.543   2.509  0.9804  0.5125  1.4535
 1735TIP3    H226765   3.275   2.500   2.441 -0.7556  0.2446 -1.8166
 1736TIP3   OH226766   1.502   1.314   7.911 -0.3179  0.2223 -0.2748
 1736TIP3    H126767   1.434   1.322   7.977 -2.0495  1.0162 -2.0322
 1736TIP3    H226768   1.478   1.236   7.861  1.0134 -0.4260  0.0625
 1737TIP3   OH226769   1.625   1.446   7.579  0.1782 -1.0820 -0.0157
 1737TIP3    H126770   1.632   1.357   7.543  0.7448 -2.2230  2.7031
 1737TIP3    H226771   1.538   1.448   7.620  0.6324 -0.7849  0.9386
 1738TIP3   OH226772   2.611   4.974   8.471  0.1694  0.0004  0.7611
 1738TIP3    H126773   2.647   5.020   8.547  0.5416 -1.7366  1.6942
 1738TIP3    H226774   2.554   4.907   8.508 -1.5099  0.6185 -0.6118
 1739TIP3   OH226775   1.436   1.876   8.682 -0.4810  0.1893 -0.5954
 1739TIP3    H126776   1.485   1.861   8.601 -0.1441  0.2847 -0.4156
 1739TIP3    H226777   1.358   1.821   8.675 -0.2829 -0.0614 -0.8355
 1740TIP3   OH226778   5.015   0.887   7.889  0.1108  0.7970  0.1034
 1740TIP3    H126779   5.064   0.967   7.911 -0.9306  1.9475 -1.5109
 1740TIP3    H226780   4.929   0.919   7.861 -0.8410 -1.0179  0.8024
 1741TIP3   OH226781   6.583   1.690   6.443 -0.3173 -0.3488  0.1263
 1741TIP3    H126782   6.533   1.637   6.382  0.2637  1.7098 -2.2819
 1741TIP3    H226783   6.523   1.761   6.468  0.5846  0.8385 -0.9645
 1742TIP3   OH226784   0.922   1.088   8.168 -0.2634  0.3703 -0.8200
 1742TIP3    H126785   0.933   1.136   8.250 -1.2496 -1.6824  0.6091
 1742TIP3    H226786   1.008   1.051   8.150 -0.2745 -0.0224 -0.1102
 1743TIP3   OH226787   0.898   2.716   8.555 -0.3244  0.7751  0.0549
 1743TIP3    H126788   0.935   2.637   8.515  0.0555  0.1262  1.6425
 1743TIP3    H226789   0.917   2.785   8.491  1.4382  0.0138 -0.3044
 1744TIP3   OH226790   4.181   6.545   1.288  0.7040  0.2766  0.5004
 1744TIP3    H126791   4.217   6.600   1.218  0.0842 -1.0413 -0.9401
 1744TIP3    H226792   4.126   6.481   1.241  0.0859 -0.5181  2.2361
 1745TIP3   OH226793   1.151   3.570   0.355  0.0722 -0.0216  0.4503
 1745TIP3    H126794   1.076   3.607   0.402 -0.6022 -0.1909 -0.4596
 1745TIP3    H226795   1.195   3.646   0.316 -0.6264 -0.0572 -0.4326
 1746TIP3   OH226796   6.745   5.817   1.719  1.1407  0.3977  0.0117
 1746TIP3    H126797   6.659   5.857   1.726 -0.2457 -2.3602  0.1685
 1746TIP3    H226798   6.790   5.841   1.800 -0.4181 -0.0926  1.0652
 1747TIP3   OH226799   6.381   4.092   8.383  0.3480 -0.1842 -0.0827
 1747TIP3    H126800   6.334   4.172   8.404 -0.0901 -0.5980  0.5301
 1747TIP3    H226801   6.374   4.038   8.462  2.4610  0.0330  0.3138
 1748TIP3   OH226802   3.284   4.143   2.219 -0.6136 -0.0753 -0.5386
 1748TIP3    H126803   3.314   4.062   2.260 -0.9043 -0.9496 -1.9887
 1748TIP3    H226804   3.318   4.213   2.275  0.1783 -1.1760  0.3824
 1749TIP3   OH226805   2.589   6.477   8.264  0.0936  0.2040 -0.7820
 1749TIP3    H126806   2.583   6.477   8.168  1.7867 -1.4277 -0.9412
 1749TIP3    H226807   2.657   6.413   8.284  0.0530  0.7901  1.5193
 1750TIP3   OH226808   0.837   4.722   8.235 -0.5866  0.1234 -0.0483
 1750TIP3    H126809   0.817   4.683   8.150 -0.3509  0.1649 -0.1245
 1750TIP3    H226810   0.752   4.735   8.277 -0.7739  0.9748 -0.6624
 1751TIP3   OH226811   5.703   2.859   7.698  0.0036  0.0258 -0.3738
 1751TIP3    H126812   5.624   2.909   7.678  0.4761  0.9123 -0.1038
 1751TIP3    H226813   5.700   2.845   7.793  0.6021  0.8540 -0.2193
 1752TIP3   OH226814   6.369   0.384   0.112 -0.1138 -0.1266  1.0517
 1752TIP3    H126815   6.457   0.373   0.149  0.1413 -0.7371  0.2920
 1752TIP3    H226816   6.321   0.306   0.139 -1.4479  1.5821  4.1234
 1753TIP3   OH226817   4.003   1.498   0.432 -0.1448  0.1908 -0.0931
 1753TIP3    H126818   3.947   1.576   0.432 -1.6335 -0.8100 -1.7526
 1753TIP3    H226819   3.997   1.464   0.521 -0.9213  0.9734  0.1683
 1754TIP3   OH226820   6.768   5.272   8.211 -0.2728 -0.0285  0.6380
 1754TIP3    H126821   6.816   5.190   8.216 -1.6442 -0.8252  1.1567
 1754TIP3    H226822   6.723   5.268   8.126 -0.0634  0.3530  0.5064
 1755TIP3   OH226823   3.049   5.150   1.928 -1.0826  0.2323 -0.5264
 1755TIP3    H126824   3.021   5.137   2.019  0.1794 -0.9697 -0.2707
 1755TIP3    H226825   2.981   5.107   1.876 -0.6705 -1.1141 -0.0023
 1756TIP3   OH226826   0.446   0.584   7.742  1.2495  0.3365 -0.1797
 1756TIP3    H126827   0.469   0.605   7.652  0.8263  0.3813 -0.2785
 1756TIP3    H226828   0.370   0.527   7.735  0.5699  1.1698  0.1731
 1757TIP3   OH226829   3.483   3.849   1.168 -0.0504 -0.3827 -0.0679
 1757TIP3    H126830   3.522   3.870   1.084 -0.0497 -0.1444 -0.0087
 1757TIP3    H226831   3.545   3.884   1.233 -0.9233  1.0747  0.0290
 1758TIP3   OH226832   3.557   5.829   1.705  0.2984  0.3780 -0.4281
 1758TIP3    H126833   3.558   5.734   1.693  1.0882  0.3323 -0.0895
 1758TIP3    H226834   3.558   5.841   1.800 -0.4097  0.7293 -0.4616
 1759TIP3   OH226835   6.640   4.818   1.461  0.4789  0.5046 -0.6155
 1759TIP3    H126836   6.648   4.825   1.556 -2.2971  1.0542 -0.3151
 1759TIP3    H226837   6.564   4.872   1.439  0.6483 -0.0968 -3.0892
 1760TIP3   OH226838   4.270   5.899   0.674 -0.0807  0.3203  0.0998
 1760TIP3    H126839   4.349   5.889   0.726  0.8581  0.9650 -1.1581
 1760TIP3    H226840   4.199   5.896   0.738  1.0450  1.3252  1.4550
 1761TIP3   OH226841   6.126   1.175   8.110 -0.3634 -0.1442 -0.0479
 1761TIP3    H126842   6.164   1.088   8.093 -0.9590 -0.5214  0.5238
 1761TIP3    H226843   6.112   1.177   8.204  0.0465  0.7520  0.0014
 1762TIP3   OH226844   3.058   0.673   7.184 -0.2031  0.0267 -0.3197
 1762TIP3    H126845   3.014   0.747   7.143  0.0632  0.3299 -0.0660
 1762TIP3    H226846   3.119   0.713   7.247 -0.3639 -0.4133  0.1261
 1763TIP3   OH226847   1.144   5.727   0.012  0.2929  0.2536  1.1607
 1763TIP3    H126848   1.145   5.639  -0.025  0.1268  1.3518 -1.7875
 1763TIP3    H226849   1.054   5.738   0.043 -0.5644  0.2675 -1.0945
 1764TIP3   OH226850   5.574   3.950   7.584  0.0490 -0.6137  0.1843
 1764TIP3    H126851   5.535   3.979   7.502  1.1768 -0.5786 -0.3582
 1764TIP3    H226852   5.621   4.027   7.617 -1.6729 -0.1253  1.7022
 1765TIP3   OH226853   5.605   5.845   1.551 -0.0091 -0.3933  0.0113
 1765TIP3    H126854   5.620   5.939   1.541 -1.5126 -0.3051 -1.9646
 1765TIP3    H226855   5.510   5.837   1.558  0.1435 -1.7420  0.9014
 1766TIP3   OH226856   0.867   6.688   7.542  0.4048  0.8322 -0.7417
 1766TIP3    H126857   0.893   6.727   7.459 -3.0761 -0.8890 -2.8369
 1766TIP3    H226858   0.861   6.594   7.523 -1.9931  0.5706  0.9584
 1767TIP3   OH226859   6.652   1.613   2.286 -0.0745  0.4718  0.1922
 1767TIP3    H126860   6.586   1.558   2.244 -2.2075  1.0756  2.5130
 1767TIP3    H226861   6.653   1.693   2.234 -1.8372  0.7724  0.5604
 1768TIP3   OH226862   5.965   5.173   2.561 -0.1655  0.6806  0.4899
 1768TIP3    H126863   5.918   5.096   2.593 -2.2201  1.7664  0.2705
 1768TIP3    H226864   5.990   5.151   2.472  0.4622 -0.2120  0.8717
 1769TIP3   OH226865   1.004   3.954   1.059 -0.1114 -0.1567  0.3461
 1769TIP3    H126866   0.988   4.023   1.123  1.2606 -0.2556  0.8290
 1769TIP3    H226867   0.973   3.991   0.976 -1.6928  0.0605  0.9964
 1770TIP3   OH226868   0.663   6.641   0.461  0.0076 -0.1007 -0.2264
 1770TIP3    H126869   0.659   6.671   0.370 -1.7107 -0.4665 -0.2988
 1770TIP3    H226870   0.572   6.628   0.486  0.5392 -2.7620  0.6206
 1771TIP3   OH226871   2.910   2.151   0.727 -0.2059 -0.1750  0.0862
 1771TIP3    H126872   2.990   2.131   0.776  1.0147 -0.5936 -1.9666
 1771TIP3    H226873   2.909   2.087   0.656 -2.2652 -0.0230 -0.0752
 1772TIP3   OH226874   1.785   2.958   7.633  0.4220  0.5005 -0.1159
 1772TIP3    H126875   1.765   3.036   7.684  2.3319  1.5301 -0.8445
 1772TIP3    H226876   1.771   2.885   7.694 -2.0699  1.2997  0.3715
 1773TIP3   OH226877   0.693   0.052   1.488 -0.2083  0.1868 -0.2791
 1773TIP3    H126878   0.663   0.092   1.407  0.2176  0.6621 -0.2114
 1773TIP3    H226879   0.672  -0.041   1.479  0.6168  0.0809 -1.3070
 1774TIP3   OH226880   5.692   3.953   8.059 -0.1332  0.3802  0.0804
 1774TIP3    H126881   5.696   3.942   7.964 -1.2716  1.6103 -0.1360
 1774TIP3    H226882   5.724   3.869   8.094  0.6032  0.0210 -1.3651
 1775TIP3   OH226883   3.544   2.845   0.167 -0.3304  0.2959  0.5484
 1775TIP3    H126884   3.506   2.777   0.110 -2.4055  2.5757 -0.9866
 1775TIP3    H226885   3.631   2.860   0.132  1.1188 -2.9199  2.2501
 1776TIP3   OH226886   6.579   5.246   8.532 -0.2357  0.1179  0.2285
 1776TIP3    H126887   6.560   5.257   8.439 -0.8407  0.2741  0.3648
 1776TIP3    H226888   6.503   5.198   8.567 -1.4599  2.6047  1.2118
 1777TIP3   OH226889   5.706   0.006   0.370  0.5325  0.4505  0.8118
 1777TIP3    H126890   5.637   0.032   0.309 -0.4182  0.5658  1.9143
 1777TIP3    H226891   5.783   0.056   0.342 -0.3738  1.9196  0.8284
 1778TIP3   OH226892   4.634   3.089   6.903  0.5125 -0.3215  0.4811
 1778TIP3    H126893   4.711   3.143   6.887  0.3993  0.3256  1.9557
 1778TIP3    H226894   4.669   3.003   6.928  0.7500 -0.1729  0.6585
 1779TIP3   OH226895   1.219   6.420   8.250  0.2807 -0.3182 -0.1133
 1779TIP3    H126896   1.144   6.406   8.308  1.5498 -1.7320  1.2655
 1779TIP3    H226897   1.186   6.397   8.163 -0.9139 -0.7805  0.4354
 1780TIP3   OH226898   4.215   5.438   2.446 -0.2584  0.8848 -0.7822
 1780TIP3    H126899   4.242   5.393   2.366  1.0204  1.0463 -0.4665
 1780TIP3    H226900   4.191   5.526   2.417  0.4083  1.0104 -0.9660
 1781TIP3   OH226901   3.838   5.680   1.375 -0.2825 -0.1705  0.5828
 1781TIP3    H126902   3.846   5.649   1.466 -1.3178 -2.4070 -0.0212
 1781TIP3    H226903   3.850   5.601   1.322  0.8104  1.1721 -1.2952
 1782TIP3   OH226904   2.407   6.071   7.619 -0.2695  0.7619  0.0574
 1782TIP3    H126905   2.444   5.996   7.572  1.0858 -0.4148  2.7550
 1782TIP3    H226906   2.483   6.111   7.662 -1.5985  0.6291  2.6815
 1783TIP3   OH226907   3.323   4.121   1.047 -0.3413 -0.0412  0.3214
 1783TIP3    H126908   3.397   4.097   1.104 -0.5253  0.7039  0.8944
 1783TIP3    H226909   3.249   4.129   1.107 -0.5911  0.5282 -0.0535
 1784TIP3   OH226910   0.379   2.904   0.526 -0.2873 -0.2042  0.3617
 1784TIP3    H126911   0.321   2.979   0.519 -1.2244 -0.5616  3.1263
 1784TIP3    H226912   0.343   2.839   0.466 -2.0825  0.0154  1.1549
 1785TIP3   OH226913   3.184   1.954   7.563  0.0772  0.3111 -0.0253
 1785TIP3    H126914   3.151   1.917   7.645  1.4553  0.1371  0.4941
 1785TIP3    H226915   3.203   2.045   7.585 -2.4029  1.1398 -1.0317
 1786TIP3   OH226916   5.063   3.739   1.721  0.4506 -0.1020  0.1644
 1786TIP3    H126917   5.041   3.686   1.644  0.4716 -1.1513  0.8539
 1786TIP3    H226918   5.094   3.822   1.685  0.4540 -0.5647 -0.9522
 1787TIP3   OH226919   2.011   5.259   6.407  0.3970 -0.1233  0.5211
 1787TIP3    H126920   1.988   5.335   6.353  0.4983  0.0359  0.7001
 1787TIP3    H226921   1.928   5.216   6.426  0.3844 -0.3557 -0.0151
 1788TIP3   OH226922   1.383   1.887   8.130 -0.0505  0.5774  0.0302
 1788TIP3    H126923   1.475   1.903   8.109 -0.3988  0.2195 -2.0471
 1788TIP3    H226924   1.377   1.791   8.137 -0.4288  0.5199 -0.8984
 1789TIP3   OH226925   2.145   3.462   1.528 -0.2637 -0.4941 -1.0559
 1789TIP3    H126926   2.071   3.522   1.540  1.0807  1.2282 -0.8857
 1789TIP3    H226927   2.189   3.494   1.449  0.3004 -1.4850 -1.1579
 1790TIP3   OH226928   1.067   0.023   0.807 -0.3403  0.2750  0.4068
 1790TIP3    H126929   1.028  -0.023   0.881 -0.5606  0.9318  0.7085
 1790TIP3    H226930   1.021  -0.012   0.731 -1.2221  0.7175  0.7185
 1791TIP3   OH226931   0.113   2.266   1.515 -0.2570  0.0642 -0.0904
 1791TIP3    H126932   0.100   2.178   1.480 -3.2676 -0.5032  2.0849
 1791TIP3    H226933   0.088   2.324   1.442  3.1861 -0.6792 -2.0616
 1792TIP3   OH226934   3.612   0.532   8.105  0.0129 -0.1128  0.3336
 1792TIP3    H126935   3.630   0.613   8.153 -1.2920  0.3076  0.1505
 1792TIP3    H226936   3.625   0.556   8.013  0.2605 -0.2923  0.3223
 1793TIP3   OH226937   3.363   4.559   7.678  0.1802 -0.0772 -0.3271
 1793TIP3    H126938   3.291   4.496   7.677  0.0443  0.0709 -1.5061
 1793TIP3    H226939   3.440   4.508   7.651  0.2377  0.0768 -0.4540
 1794TIP3   OH226940   1.781   0.363   1.480 -0.2358 -0.0479  0.1529
 1794TIP3    H126941   1.851   0.428   1.475  0.4958 -0.8760 -0.7366
 1794TIP3    H226942   1.705   0.412   1.510 -0.7367  2.1335 -3.9723
 1795TIP3   OH226943   2.431   3.339   0.572 -0.2008 -0.2425  0.2758
 1795TIP3    H126944   2.371   3.266   0.556 -1.6714  1.1256 -0.7131
 1795TIP3    H226945   2.433   3.348   0.667 -0.5500 -1.1124  0.3806
 1796TIP3   OH226946   3.889   1.152   7.289 -0.1890  0.2932  0.4911
 1796TIP3    H126947   3.873   1.072   7.340  0.5384 -0.3036 -0.1878
 1796TIP3    H226948   3.976   1.180   7.316  0.1899 -0.0110 -0.3917
 1797TIP3   OH226949   2.984   0.369   0.851 -0.2339  0.2938 -0.1120
 1797TIP3    H126950   3.014   0.283   0.820 -2.3258 -0.0215 -1.5075
 1797TIP3    H226951   3.024   0.379   0.937  3.3695 -0.2219 -1.5690
 1798TIP3   OH226952   2.827   3.319   1.365 -0.1116  0.1952 -0.4798
 1798TIP3    H126953   2.805   3.322   1.458 -0.1099  2.9864 -0.4674
 1798TIP3    H226954   2.922   3.309   1.363 -0.0396  0.7254 -0.1201
 1799TIP3   OH226955   5.205   4.862   7.791 -0.1216 -0.0592 -0.2026
 1799TIP3    H126956   5.128   4.805   7.800 -0.0612  0.0724  1.4308
 1799TIP3    H226957   5.252   4.853   7.874 -0.5353  3.0073  0.4874
 1800TIP3   OH226958   6.040   2.600   0.117  0.0721 -0.0009 -0.0674
 1800TIP3    H126959   6.042   2.618   0.211  1.8879 -2.0808  0.3682
 1800TIP3    H226960   5.962   2.545   0.105  0.5582 -0.8493  0.4996
 1801TIP3   OH226961   4.042   4.665   8.234  0.1028  0.0006 -0.0887
 1801TIP3    H126962   4.037   4.637   8.143 -0.4410  2.7193 -1.0085
 1801TIP3    H226963   3.951   4.685   8.258  0.3360  0.0191  0.8030
 1802TIP3   OH226964   5.718   4.544   6.536 -0.1416 -0.3916 -0.7360
 1802TIP3    H126965   5.678   4.615   6.587  0.6158 -1.7353  1.8877
 1802TIP3    H226966   5.645   4.486   6.514 -0.3839 -0.1668 -0.5370
 1803TIP3   OH226967   5.268   2.691   7.827  0.6065  0.2466  0.0282
 1803TIP3    H126968   5.357   2.676   7.861  0.8694  0.9610 -0.3286
 1803TIP3    H226969   5.219   2.720   7.904  1.0632  1.3175 -0.0696
 1804TIP3   OH226970   3.828   4.878   8.279 -0.3044 -0.0908 -0.2094
 1804TIP3    H126971   3.798   4.923   8.200 -1.1884 -0.2738  0.0154
 1804TIP3    H226972   3.867   4.947   8.333  0.1475  0.0622 -0.7227
 1805TIP3   OH226973   5.986   5.415   2.107 -0.2310  0.1410  0.0170
 1805TIP3    H126974   5.980   5.331   2.061 -2.1940 -0.4591  1.2551
 1805TIP3    H226975   6.064   5.457   2.070  0.5297 -2.0035 -0.9932
 1806TIP3   OH226976   3.983   2.873   8.127  0.6689  0.5309  0.5147
 1806TIP3    H126977   3.919   2.810   8.159  1.0918  0.1831  0.6922
 1806TIP3    H226978   3.959   2.956   8.169 -0.2837  0.6436 -0.2314
 1807TIP3   OH226979   0.832   2.138   6.625 -0.0525 -0.1620 -0.0987
 1807TIP3    H126980   0.836   2.185   6.542  1.5391  1.0745  0.6281
 1807TIP3    H226981   0.775   2.192   6.680  0.5005  0.0824  0.2378
 1808TIP3   OH226982   3.608   3.274   6.773 -0.3963  0.2064  0.1024
 1808TIP3    H126983   3.652   3.356   6.796  0.9747 -0.5881  0.4200
 1808TIP3    H226984   3.679   3.211   6.762 -1.2066 -0.3827 -2.6310
 1809TIP3   OH226985   6.170   2.193   7.599 -0.4069 -0.7839  0.0018
 1809TIP3    H126986   6.137   2.166   7.685  0.0251  0.7723  0.6958
 1809TIP3    H226987   6.102   2.250   7.563 -0.6371 -1.5165 -0.7597
 1810TIP3   OH226988   5.416   6.544   0.672  0.2537 -0.0744 -0.4639
 1810TIP3    H126989   5.388   6.566   0.583 -0.0058  2.0536  0.1132
 1810TIP3    H226990   5.480   6.611   0.694  1.5431 -1.5109  0.4092
 1811TIP3   OH226991   1.711   4.318   6.449 -0.2489 -0.0894  0.7816
 1811TIP3    H126992   1.757   4.359   6.522 -0.9105 -0.4991  1.4435
 1811TIP3    H226993   1.732   4.373   6.373 -1.4532  1.7241  1.7085
 1812TIP3   OH226994   6.387   0.422   1.932 -0.5131 -0.4072  0.3360
 1812TIP3    H126995   6.443   0.440   1.857  0.6422 -1.4755  0.8950
 1812TIP3    H226996   6.392   0.502   1.985  0.4855 -0.4761  0.3656
 1813TIP3   OH226997   2.632   2.469   1.935 -0.7892 -0.0073  0.0856
 1813TIP3    H126998   2.684   2.497   1.858 -1.3614  0.2431 -0.2139
 1813TIP3    H226999   2.560   2.418   1.898 -0.5253 -0.7133  0.5362
 1814TIP3   OH227000   4.594   3.965   1.439  0.2555 -0.4298  0.3072
 1814TIP3    H127001   4.667   4.003   1.488  0.2749  0.1842 -0.1773
 1814TIP3    H227002   4.530   3.940   1.505 -1.0856  3.1411  0.6312
 1815TIP3   OH227003   1.256   3.256   6.712 -0.3438  0.1880 -0.2733
 1815TIP3    H127004   1.317   3.308   6.764 -2.2219  0.9650  1.3057
 1815TIP3    H227005   1.288   3.263   6.622  0.5911  2.4647  0.1785
 1816TIP3   OH227006   3.136   2.380   6.599 -0.6019  0.5184  0.0486
 1816TIP3    H127007   3.217   2.410   6.640 -0.2496 -0.5715  0.1955
 1816TIP3    H227008   3.140   2.284   6.606 -2.1284  0.4619  0.4873
 1817TIP3   OH227009   4.268   4.098   6.651 -0.5882  0.0727 -0.3762
 1817TIP3    H127010   4.173   4.096   6.640 -0.7767  0.3792  0.9355
 1817TIP3    H227011   4.283   4.171   6.711  0.2727 -1.1849  1.0322
 1818TIP3   OH227012   4.506   6.615   1.734 -0.1132 -0.0948 -0.0392
 1818TIP3    H127013   4.531   6.664   1.812  0.2252  0.3207 -0.4088
 1818TIP3    H227014   4.414   6.637   1.719  0.4325  1.6508 -1.0890
 1819TIP3   OH227015   4.515   2.681   8.716 -0.1341  0.2504 -0.1812
 1819TIP3    H127016   4.565   2.706   8.638  1.1593  0.7504  0.7830
 1819TIP3    H227017   4.529   2.587   8.725  0.4459  0.3505 -0.0431
 1820TIP3   OH227018   2.342   1.643   0.230 -0.6410 -0.6307 -0.2739
 1820TIP3    H127019   2.303   1.643   0.143 -0.3037 -1.0302 -0.4238
 1820TIP3    H227020   2.350   1.551   0.253  0.4356 -0.5574 -0.3362
 1821TIP3   OH227021   3.692   5.965   7.110 -0.5492 -0.1922 -0.3842
 1821TIP3    H127022   3.657   6.038   7.161 -0.9643 -0.3387 -0.4517
 1821TIP3    H227023   3.715   5.899   7.176  2.3739  0.9907 -0.0697
 1822TIP3   OH227024   1.202   0.095   8.306  0.1163  0.0536 -0.2145
 1822TIP3    H127025   1.153   0.170   8.275 -1.5280 -1.0074 -0.3383
 1822TIP3    H227026   1.140   0.046   8.360  1.1560 -1.1592 -0.0440
 1823TIP3   OH227027   0.244   0.226   0.858  0.6215  0.2864  0.7335
 1823TIP3    H127028   0.217   0.162   0.924 -2.6735 -1.9043 -2.3194
 1823TIP3    H227029   0.312   0.182   0.808 -0.2318 -0.0886 -0.1372
 1824TIP3   OH227030   6.032   3.631   8.028 -0.3983  0.1702  0.2506
 1824TIP3    H127031   6.057   3.548   8.068 -0.5489  0.5093  1.0754
 1824TIP3    H227032   6.112   3.663   7.987 -0.1484 -0.0345  0.5680
 1825TIP3   OH227033   5.070   4.993   0.716  0.0528 -0.2151  0.2386
 1825TIP3    H127034   5.146   5.011   0.661 -0.7806  0.9922 -0.5675
 1825TIP3    H227035   4.997   4.984   0.654 -0.0817 -4.2907  0.7105
 1826TIP3   OH227036   3.766   4.152   2.606  0.3084  0.3640 -0.2763
 1826TIP3    H127037   3.675   4.129   2.590  0.1547  0.4856  0.3936
 1826TIP3    H227038   3.812   4.127   2.526  0.0233 -1.5237  0.1132
 1827TIP3   OH227039   0.349   3.705   8.475  0.4196  0.2649  0.2281
 1827TIP3    H127040   0.438   3.736   8.496  0.3594  1.3254 -0.9540
 1827TIP3    H227041   0.294   3.745   8.543  0.7874 -0.0787  0.7370
 1828TIP3   OH227042   1.943   2.676   1.425 -0.5857 -0.3457  0.6077
 1828TIP3    H127043   1.905   2.742   1.483  0.2864 -0.4656  1.3529
 1828TIP3    H227044   1.928   2.593   1.470 -0.3442 -0.4919  0.4234
 1829TIP3   OH227045   6.195   4.442   7.267  0.4889  1.1294 -0.0908
 1829TIP3    H127046   6.186   4.490   7.185  1.0852 -0.3182 -1.0548
 1829TIP3    H227047   6.284   4.461   7.297  1.8023 -1.4225 -1.9471
 1830TIP3   OH227048   2.543   6.007   1.477  0.3554 -0.6167 -0.2192
 1830TIP3    H127049   2.595   5.958   1.413 -1.6168 -2.2201 -0.6994
 1830TIP3    H227050   2.603   6.021   1.551  2.0780 -0.4794 -1.5865
 1831TIP3   OH227051   4.786   6.437   1.362  0.2050  0.2209 -0.0586
 1831TIP3    H127052   4.773   6.500   1.432  0.0182  1.2473 -0.9934
 1831TIP3    H227053   4.766   6.485   1.282 -0.5157 -1.1822 -0.7684
 1832TIP3   OH227054   5.736   4.098   7.311  0.8756  0.5106  0.3228
 1832TIP3    H127055   5.657   4.116   7.259  0.2128 -1.7565  0.4450
 1832TIP3    H227056   5.738   4.168   7.376 -1.9627 -0.2159  1.3288
 1833TIP3   OH227057   2.339   5.124   7.085  0.2366  0.0927 -0.5176
 1833TIP3    H127058   2.253   5.089   7.108  0.8032 -1.5571 -0.7401
 1833TIP3    H227059   2.401   5.056   7.113  1.5521  1.5828  0.3874
 1834TIP3   OH227060   6.709   6.520   0.001 -0.0447  0.2570 -0.2832
 1834TIP3    H127061   6.626   6.504   0.046 -0.4557  0.6784 -0.8668
 1834TIP3    H227062   6.698   6.478  -0.085 -0.3018  1.7007 -0.9887
 1835TIP3   OH227063   0.076   6.830   1.282 -0.6818 -0.1771  0.0756
 1835TIP3    H127064   0.001   6.820   1.342  0.6516 -0.0620  1.8450
 1835TIP3    H227065   0.093   6.742   1.250 -1.9032 -0.1205 -0.7817
 1836TIP3   OH227066   4.942   3.506   6.705  0.4889 -0.2814  0.0594
 1836TIP3    H127067   5.002   3.560   6.653  0.1149 -0.6637 -0.7672
 1836TIP3    H227068   4.876   3.476   6.643 -0.2159 -0.3790  0.8432
 1837TIP3   OH227069   2.430   6.501   0.215 -0.0887 -0.4747  0.4775
 1837TIP3    H127070   2.355   6.504   0.273  1.0007  1.0614  1.8723
 1837TIP3    H227071   2.501   6.465   0.268  0.4638 -0.8741 -0.4857
 1838TIP3   OH227072   5.079   2.831   1.310  0.1452 -0.0123 -0.8498
 1838TIP3    H127073   5.062   2.883   1.231 -0.2303 -1.6425 -1.8729
 1838TIP3    H227074   4.997   2.833   1.359  0.0487  0.1196 -1.0177
 1839TIP3   OH227075   3.456   6.146   0.167 -0.3333  0.7549  0.4779
 1839TIP3    H127076   3.549   6.136   0.188  0.1643  1.1862 -1.2902
 1839TIP3    H227077   3.413   6.073   0.210  1.1504 -0.7593 -0.4579
 1840TIP3   OH227078   2.692   1.935   7.789  0.3076  0.1799  0.3977
 1840TIP3    H127079   2.613   1.972   7.752  0.3084 -0.7647 -0.5934
 1840TIP3    H227080   2.762   1.965   7.732  0.0653 -3.1990 -1.9824
 1841TIP3   OH227081   1.980   1.682   7.496  0.4284 -0.6510 -0.4478
 1841TIP3    H127082   1.992   1.767   7.536 -0.6449 -1.8164  2.6118
 1841TIP3    H227083   2.026   1.688   7.412  2.8288  1.9703  0.9157
 1842TIP3   OH227084   2.249   6.314   1.702 -0.0646  0.4797 -0.3475
 1842TIP3    H127085   2.292   6.344   1.622 -0.4704  2.6241  0.1688
 1842TIP3    H227086   2.318   6.268   1.750  0.2003 -0.7753 -1.8549
 1843TIP3   OH227087   1.385   5.869   6.966 -0.2088  0.1342 -0.5757
 1843TIP3    H127088   1.434   5.836   7.042 -1.7525 -0.6188  0.1357
 1843TIP3    H227089   1.302   5.821   6.969 -0.3915  0.2600 -2.6197
 1844TIP3   OH227090   5.403   1.469   7.006 -0.4431 -0.1333  0.2968
 1844TIP3    H127091   5.495   1.478   6.982 -0.4051  0.3127  0.5958
 1844TIP3    H227092   5.377   1.384   6.971  0.4130 -0.8158  1.2683
 1845TIP3   OH227093   0.427   1.570   7.124 -0.0406  0.6124 -0.8124
 1845TIP3    H127094   0.434   1.500   7.060 -0.2993  0.7613 -1.0041
 1845TIP3    H227095   0.407   1.648   7.072  1.2653  1.0309 -0.7183
 1846TIP3   OH227096   0.613   4.218   6.688 -0.2720 -0.6523 -0.2945
 1846TIP3    H127097   0.547   4.277   6.723  1.7448  1.1580  0.6741
 1846TIP3    H227098   0.662   4.188   6.765  1.6168  0.0714 -1.1533
 1847TIP3   OH227099   6.340   0.477   8.370  0.5040  0.1229 -0.0120
 1847TIP3    H127100   6.361   0.388   8.399 -0.3286  0.4102  1.5803
 1847TIP3    H227101   6.285   0.465   8.293  0.2716 -0.7565  0.2841
 1848TIP3   OH227102   4.302   3.831   0.817 -0.1487  0.1733  0.2710
 1848TIP3    H127103   4.219   3.830   0.865  1.3218 -1.4735  3.0803
 1848TIP3    H227104   4.322   3.739   0.802  0.4070  0.5877 -1.9590
 1849TIP3   OH227105   0.510   4.014   2.087 -0.0577  0.4121  0.4893
 1849TIP3    H127106   0.512   4.013   2.182  1.0070 -1.9985  0.5097
 1849TIP3    H227107   0.428   3.971   2.063  0.8868 -1.4587  0.4037
 1850TIP3   OH227108   4.211   4.783   2.324 -1.0940 -0.5106 -0.3159
 1850TIP3    H127109   4.248   4.717   2.264 -0.5973 -1.9439  1.4676
 1850TIP3    H227110   4.273   4.787   2.396 -0.9739  2.1979 -0.5027
 1851TIP3   OH227111   3.118   0.234   7.071  0.1029  0.3468  0.3898
 1851TIP3    H127112   3.146   0.188   6.991  0.6177  1.1605  0.0893
 1851TIP3    H227113   3.030   0.266   7.050  0.6835  1.5567 -0.3005
 1852TIP3   OH227114   2.176   0.724   7.001  0.0232 -0.0838  0.0230
 1852TIP3    H127115   2.119   0.769   6.939 -0.8218 -0.7143  0.3311
 1852TIP3    H227116   2.253   0.781   7.009  0.1202  0.0404 -1.5493
 1853TIP3   OH227117   0.551   2.691   1.179  0.2491 -0.3696 -0.5834
 1853TIP3    H127118   0.546   2.752   1.252  0.1077 -2.0555  0.8720
 1853TIP3    H227119   0.526   2.743   1.103 -0.3140  1.2623  0.6608
 1854TIP3   OH227120   5.753   0.579   7.863  0.0141 -0.1781  0.3012
 1854TIP3    H127121   5.817   0.650   7.871 -0.2872  0.1944 -0.4907
 1854TIP3    H227122   5.762   0.529   7.945  1.3740 -0.1934  0.1553
 1855TIP3   OH227123   1.358   1.637   8.052 -0.0410 -0.2072 -0.5098
 1855TIP3    H127124   1.288   1.625   7.987 -0.4985  0.5682 -0.1773
 1855TIP3    H227125   1.339   1.573   8.120 -0.4284 -0.0066 -0.4256
 1856TIP3   OH227126   4.918   5.344   7.360  0.0566  0.5299  0.1063
 1856TIP3    H127127   4.892   5.422   7.311 -0.1007  0.1449 -0.4349
 1856TIP3    H227128   4.908   5.272   7.298  1.3176  0.2234  0.2386
 1857TIP3   OH227129   6.162   3.049   6.764  0.5532 -0.0632 -0.0330
 1857TIP3    H127130   6.227   3.031   6.832  1.6751  0.7378 -0.8542
 1857TIP3    H227131   6.165   2.973   6.707  0.3894 -0.2527  0.2068
 1858TIP3   OH227132   3.942   1.246   2.403 -0.4336 -0.4509  0.0095
 1858TIP3    H127133   3.979   1.328   2.437 -0.0150  0.3099 -2.1553
 1858TIP3    H227134   3.922   1.264   2.311 -1.4704 -2.4311 -0.2188
 1859TIP3   OH227135   3.358   2.304   8.469 -0.3110 -0.4153 -0.2806
 1859TIP3    H127136   3.286   2.302   8.406  0.0151  2.5282 -0.8969
 1859TIP3    H227137   3.437   2.308   8.414 -0.0283  2.2295  0.2023
 1860TIP3   OH227138   1.155   3.432   1.063  0.1804 -0.6060  0.2641
 1860TIP3    H127139   1.231   3.485   1.040 -0.4641 -0.0513 -0.6498
 1860TIP3    H227140   1.088   3.456   0.998  0.1349 -3.1226 -0.7607
 1861TIP3   OH227141   1.508   6.033   0.223  0.3549  0.1485 -0.2720
 1861TIP3    H127142   1.441   5.968   0.203 -0.4503  0.4884  1.2134
 1861TIP3    H227143   1.536   6.065   0.138  1.3038 -2.6300 -1.1230
 1862TIP3   OH227144   0.543   4.363   7.303 -0.2398 -0.1344  0.5189
 1862TIP3    H127145   0.527   4.454   7.327  0.9477  1.3590 -3.4715
 1862TIP3    H227146   0.638   4.355   7.303 -0.3434 -1.5929  1.3807
 1863TIP3   OH227147   1.911   2.348   7.316 -0.1542  0.3694 -0.1221
 1863TIP3    H127148   1.923   2.394   7.399  3.1909  0.3250 -0.4730
 1863TIP3    H227149   1.910   2.417   7.250  0.7674  0.2223 -0.3042
 1864TIP3   OH227150   0.102   5.645   1.703  0.9261 -0.4236 -0.9383
 1864TIP3    H127151   0.041   5.714   1.676  1.2189  1.0661  1.8274
 1864TIP3    H227152   0.052   5.564   1.695 -0.4276  0.4321 -1.4792
 1865TIP3   OH227153   3.853   3.311   8.657 -0.8326 -0.4093 -0.4153
 1865TIP3    H127154   3.797   3.366   8.603 -2.4259 -2.0208 -0.4679
 1865TIP3    H227155   3.909   3.264   8.595  1.3907  1.8778 -0.3336
 1866TIP3   OH227156   4.194   1.054   7.497 -0.4292  0.2677 -0.0884
 1866TIP3    H127157   4.173   1.136   7.453 -1.5329 -0.0932 -0.2580
 1866TIP3    H227158   4.183   0.987   7.430  1.4048  0.0476 -0.2118
 1867TIP3   OH227159   0.406   5.501   0.659 -0.3669 -0.9761 -0.4059
 1867TIP3    H127160   0.368   5.556   0.728  0.9223  0.7086 -0.9550
 1867TIP3    H227161   0.361   5.417   0.667 -0.4580 -0.7506  2.3114
 1868TIP3   OH227162   5.353   5.784   1.061 -0.4904 -0.0892 -0.7624
 1868TIP3    H127163   5.360   5.874   1.095 -0.0241 -0.0461 -0.9714
 1868TIP3    H227164   5.375   5.792   0.968 -0.6935 -0.3833 -0.8360
 1869TIP3   OH227165   6.482   6.304   0.798  0.3321  0.3673 -0.5078
 1869TIP3    H127166   6.567   6.347   0.794 -0.0916  1.3222  0.4560
 1869TIP3    H227167   6.435   6.336   0.721  0.7882 -0.0658 -0.9729
 1870TIP3   OH227168   6.031   3.426   2.562  0.4938  0.2352 -0.2793
 1870TIP3    H127169   6.124   3.442   2.552  0.3801  1.5093  0.4878
 1870TIP3    H227170   6.025   3.333   2.585  1.6039  0.2445  0.0943
 1871TIP3   OH227171   1.167   1.956   7.977  0.0315  0.0155 -0.3204
 1871TIP3    H127172   1.191   1.985   7.890 -1.5574 -0.4776 -0.9744
 1871TIP3    H227173   1.250   1.947   8.024  0.8349  1.3227 -1.4318
 1872TIP3   OH227174   4.061   3.877   0.974 -0.6544 -0.6586 -0.5307
 1872TIP3    H127175   4.038   3.784   0.967 -1.4140 -0.4042 -1.5488
 1872TIP3    H227176   3.994   3.922   0.924  1.2053  0.2367 -2.3594
 1873TIP3   OH227177   5.725   6.557   0.338  0.2140 -0.0340  0.1108
 1873TIP3    H127178   5.780   6.534   0.412 -1.2998 -0.8658  1.0311
 1873TIP3    H227179   5.663   6.620   0.373  0.2440  0.5041 -0.7747
 1874TIP3   OH227180   1.140   0.096   7.876 -0.1746 -0.0938 -0.4800
 1874TIP3    H127181   1.200   0.023   7.893 -0.7114 -0.5388 -0.4668
 1874TIP3    H227182   1.177   0.169   7.925  0.3141 -0.3823 -0.4104
 1875TIP3   OH227183   1.783   0.191   8.104  0.1025 -0.1810 -0.5690
 1875TIP3    H127184   1.773   0.277   8.062  0.5385  1.0742  1.7225
 1875TIP3    H227185   1.714   0.137   8.064 -2.0899  2.0672 -0.0989
 1876TIP3   OH227186   0.972   2.012   1.900 -0.0540  0.2535  0.7767
 1876TIP3    H127187   0.894   2.027   1.848 -0.0230 -2.4768 -0.2421
 1876TIP3    H227188   1.043   2.006   1.837  0.7445  1.1227  1.5539
 1877TIP3   OH227189   5.379   0.199   6.771  0.6297 -0.0388 -0.3595
 1877TIP3    H127190   5.340   0.284   6.748  1.3111  0.6812  1.0017
 1877TIP3    H227191   5.473   0.213   6.764  0.7327 -1.3408 -2.1950
 1878TIP3   OH227192   3.740   3.514   7.494 -0.6330 -0.0583  0.1322
 1878TIP3    H127193   3.798   3.478   7.428  1.4544  2.6835  0.2973
 1878TIP3    H227194   3.652   3.497   7.460  0.3215 -0.8691 -2.1297
 1879TIP3   OH227195   0.025   1.030   0.941  0.3838  0.0071  0.8028
 1879TIP3    H127196  -0.014   0.944   0.955 -2.1016  0.8167 -0.6522
 1879TIP3    H227197   0.027   1.070   1.028  2.2338 -1.6971  1.6274
 1880TIP3   OH227198   0.089   0.442   0.908 -0.2180 -0.2330 -0.5820
 1880TIP3    H127199   0.152   0.371   0.899  0.4645  0.2349  0.3591
 1880TIP3    H227200   0.077   0.451   1.003 -1.5401 -0.1689 -0.7302
 1881TIP3   OH227201   0.376   5.377   6.989  0.1979  0.4282 -0.0509
 1881TIP3    H127202   0.316   5.322   7.039  0.0007  1.1253  0.4913
 1881TIP3    H227203   0.452   5.321   6.974  0.1102  0.0785  0.7252
 1882TIP3   OH227204   4.560   2.863   2.589 -0.2717 -0.0588 -0.0253
 1882TIP3    H127205   4.516   2.948   2.595  0.1340  0.1818 -0.3819
 1882TIP3    H227206   4.632   2.877   2.528  0.6375 -0.2984  0.9500
 1883TIP3   OH227207   6.304   4.813   1.642 -0.3832 -0.5751 -0.7808
 1883TIP3    H127208   6.376   4.816   1.705  0.1073 -1.2879 -1.2874
 1883TIP3    H227209   6.317   4.730   1.596 -0.7412 -0.0726 -1.8096
 1884TIP3   OH227210   5.817   2.406   2.673 -0.1934 -0.2580  0.0373
 1884TIP3    H127211   5.807   2.405   2.578 -0.8318 -1.7953  0.0849
 1884TIP3    H227212   5.784   2.491   2.700 -3.1201 -1.0211 -0.8465
 1885TIP3   OH227213   5.531   2.781   1.884 -0.3119  0.0106 -0.0050
 1885TIP3    H127214   5.475   2.821   1.818  0.1659  0.7465  0.0254
 1885TIP3    H227215   5.486   2.797   1.967  0.8399  2.3147  0.2439
 1886TIP3   OH227216   3.375   3.871   0.487  0.3868 -0.6347 -0.4404
 1886TIP3    H127217   3.283   3.878   0.513  0.6790 -1.2698  0.8361
 1886TIP3    H227218   3.400   3.782   0.511  1.8805  0.1500  1.1092
 1887TIP3   OH227219   2.097   1.318   1.361 -0.4532  0.3074  0.0002
 1887TIP3    H127220   2.128   1.259   1.430 -0.1481  0.5955  0.1164
 1887TIP3    H227221   2.175   1.334   1.308 -0.0465  2.1024  1.0568
 1888TIP3   OH227222   4.142   4.602   1.429  0.4039 -0.3496 -0.5282
 1888TIP3    H127223   4.054   4.635   1.410  0.6652  0.2406 -0.7471
 1888TIP3    H227224   4.136   4.507   1.416 -0.2429 -0.3344 -0.3562
 1889TIP3   OH227225   2.135   0.331   8.605 -0.5408 -0.6821  0.0134
 1889TIP3    H127226   2.160   0.245   8.639 -1.7116 -0.7132  0.8336
 1889TIP3    H227227   2.116   0.315   8.512  1.8503 -0.7567 -0.5357
 1890TIP3   OH227228   0.795   6.201   0.401 -0.1748 -0.0363 -0.3571
 1890TIP3    H127229   0.876   6.232   0.442  0.0489  0.0668 -0.8571
 1890TIP3    H227230   0.823   6.127   0.346 -0.6144 -0.7609  0.3807
 1891TIP3   OH227231   1.329   3.469   1.674  0.2272  0.0664  0.8524
 1891TIP3    H127232   1.272   3.538   1.641 -0.8329 -0.5592  1.2960
 1891TIP3    H227233   1.409   3.477   1.623 -0.2238  1.0403  0.2715
 1892TIP3   OH227234   2.804   4.825   1.450 -0.0660  0.2474  0.0313
 1892TIP3    H127235   2.754   4.868   1.520 -0.7618  1.3250 -1.0945
 1892TIP3    H227236   2.892   4.815   1.487 -0.0960  1.9266  0.6276
 1893TIP3   OH227237   0.227   4.721   1.398  0.4735  0.9310 -0.5367
 1893TIP3    H127238   0.193   4.706   1.487  1.1156 -1.5680 -0.6452
 1893TIP3    H227239   0.149   4.736   1.345  0.1046  3.0831  0.4747
 1894TIP3   OH227240   2.306   4.687   7.048  0.0463  0.0741  0.1271
 1894TIP3    H127241   2.324   4.654   7.136  1.3259  1.1757  0.3029
 1894TIP3    H227242   2.234   4.748   7.059 -0.0518 -0.0792  0.3409
 1895TIP3   OH227243   5.630   4.355   8.253 -0.1393  0.2208 -0.5170
 1895TIP3    H127244   5.685   4.433   8.248  1.0770 -0.6054 -0.5739
 1895TIP3    H227245   5.692   4.283   8.260 -1.1238 -0.9893 -3.0113
 1896TIP3   OH227246   1.653   6.236   2.020  0.5306 -0.1635 -0.0324
 1896TIP3    H127247   1.570   6.265   1.982 -0.1854  0.9513  2.2426
 1896TIP3    H227248   1.714   6.307   2.001 -0.0761  0.8586  1.6192
 1897TIP3   OH227249   2.684   3.176   6.825  0.0230  0.4819  0.0606
 1897TIP3    H127250   2.668   3.269   6.844 -0.8105  0.5332 -0.7944
 1897TIP3    H227251   2.596   3.138   6.819  0.3495 -0.8449  2.5491
 1898TIP3   OH227252   5.524   4.036   2.527  0.4969  0.3482  0.6208
 1898TIP3    H127253   5.604   4.052   2.476  0.4803 -1.2675  0.0384
 1898TIP3    H227254   5.535   4.090   2.606  1.3363  1.5166 -0.2574
 1899TIP3   OH227255   5.165   1.113   7.895 -0.4802 -0.6350 -0.6927
 1899TIP3    H127256   5.246   1.124   7.845 -0.5208  1.5022 -0.3726
 1899TIP3    H227257   5.125   1.200   7.895 -1.6355 -1.1150  1.1024
 1900TIP3   OH227258   3.026   0.342   2.119  0.7354  0.4681 -0.7349
 1900TIP3    H127259   2.988   0.255   2.127  2.4781 -0.3717 -0.9549
 1900TIP3    H227260   2.957   0.396   2.080 -1.1675 -0.1983  1.5201
 1901TIP3   OH227261   2.374   5.719   7.321  0.0317  0.7390 -1.1556
 1901TIP3    H127262   2.310   5.649   7.307 -1.3034  1.7502 -0.3608
 1901TIP3    H227263   2.414   5.732   7.235 -0.2067 -0.5109 -1.4728
 1902TIP3   OH227264   6.218   5.254   0.644  0.1184  0.2664 -0.2161
 1902TIP3    H127265   6.148   5.252   0.579 -0.5985 -0.0851  0.5495
 1902TIP3    H227266   6.251   5.344   0.641 -0.2337  0.3830 -0.7171
 1903TIP3   OH227267   5.834   4.258   7.524 -0.1408 -0.7584  0.5238
 1903TIP3    H127268   5.892   4.266   7.600 -0.2541  2.8702  0.3836
 1903TIP3    H227269   5.746   4.260   7.561 -0.2020  1.3274  0.3702
 1904TIP3   OH227270   5.693   4.451   0.655 -0.3745  0.3046 -0.3207
 1904TIP3    H127271   5.640   4.419   0.582  1.2532  0.1333 -1.4714
 1904TIP3    H227272   5.663   4.540   0.670 -0.3397  0.5400 -1.5859
 1905TIP3   OH227273   6.372   1.728   2.176  0.5858  0.2144 -0.6090
 1905TIP3    H127274   6.403   1.638   2.169  2.9352  0.8207  0.6999
 1905TIP3    H227275   6.284   1.720   2.214  1.2944 -1.5064  0.8243
 1906TIP3   OH227276   2.646   6.305   1.557  0.2676 -0.5934 -0.2104
 1906TIP3    H127277   2.558   6.303   1.521 -0.1910 -1.6001  0.9205
 1906TIP3    H227278   2.635   6.325   1.650  1.1065 -1.9566  0.2158
 1907TIP3   OH227279   3.104   5.924   6.592  0.0064 -0.8033  0.1010
 1907TIP3    H127280   3.093   5.887   6.505  0.9402 -1.0938  0.0960
 1907TIP3    H227281   3.197   5.916   6.610  0.1629  1.0357  0.3298
 1908TIP3   OH227282   6.391   1.492   7.192 -0.2739  0.0759  0.4388
 1908TIP3    H127283   6.311   1.524   7.233  0.6520  0.5791  1.9219
 1908TIP3    H227284   6.431   1.569   7.153  0.9765  0.4728  2.3408
 1909TIP3   OH227285   0.306   5.547   2.298 -0.4786 -0.1908 -0.8621
 1909TIP3    H127286   0.261   5.528   2.216 -0.1272 -0.1910 -1.0564
 1909TIP3    H227287   0.332   5.461   2.332  0.3091 -0.1325 -1.2862
 1910TIP3   OH227288   3.160   3.669   8.343 -0.2199  0.0956 -0.5535
 1910TIP3    H127289   3.214   3.724   8.286 -0.5640 -0.2814 -1.2521
 1910TIP3    H227290   3.093   3.728   8.377  0.8805  0.6760  0.6783
 1911TIP3   OH227291   1.787   2.912   1.577  0.0123 -0.1919  0.0562
 1911TIP3    H127292   1.863   2.878   1.624 -0.2391 -0.5915  0.1743
 1911TIP3    H227293   1.733   2.951   1.645 -1.2297 -2.3576  0.3938
 1912TIP3   OH227294   0.533   5.161   7.962 -0.4466 -0.7121 -0.1955
 1912TIP3    H127295   0.577   5.078   7.945 -0.5179 -0.6983 -0.4498
 1912TIP3    H227296   0.597   5.212   8.011  0.4055 -0.1245 -1.8267
 1913TIP3   OH227297   3.433   4.595   1.216  0.1695 -0.2483 -0.0780
 1913TIP3    H127298   3.476   4.614   1.299 -0.3327 -0.2960  0.1975
 1913TIP3    H227299   3.479   4.518   1.182 -0.1233 -0.7060  0.5386
 1914TIP3   OH227300   6.187   1.178   8.597 -0.5088 -0.0923  0.6891
 1914TIP3    H127301   6.268   1.163   8.645 -0.8696 -1.8523  0.7958
 1914TIP3    H227302   6.124   1.206   8.664 -1.1447 -3.0075  1.4314
 1915TIP3   OH227303   3.031   2.936   0.746 -0.2141  0.2739  0.0254
 1915TIP3    H127304   3.038   2.854   0.795  0.2167  0.8784  0.9974
 1915TIP3    H227305   3.039   2.909   0.654  1.0438 -0.6649  0.3780
 1916TIP3   OH227306   1.756   3.159   7.841  0.1850  0.2394  0.8211
 1916TIP3    H127307   1.842   3.196   7.822 -0.5125  0.3827 -2.6480
 1916TIP3    H227308   1.696   3.233   7.835 -0.5717 -0.4563 -0.5028
 1917TIP3   OH227309   3.529   1.842   0.497  0.1071 -0.0525 -0.1963
 1917TIP3    H127310   3.580   1.920   0.474  1.8464 -1.3572 -1.0525
 1917TIP3    H227311   3.458   1.875   0.552  0.1578  2.2576 -1.3739
 1918TIP3   OH227312   3.437   1.294   7.427  0.4596 -0.4256  0.3054
 1918TIP3    H127313   3.370   1.330   7.486 -0.0698  0.0109 -0.5493
 1918TIP3    H227314   3.499   1.366   7.416  0.8821 -0.7091  0.8057
 1919TIP3   OH227315   2.414   4.665   6.470 -0.0475  0.1465 -0.1834
 1919TIP3    H127316   2.509   4.677   6.482  0.2802 -0.2762 -2.1345
 1919TIP3    H227317   2.391   4.724   6.398 -1.1911 -0.1407 -0.0706
 1920TIP3   OH227318   0.033   6.421   8.451 -0.0068  0.1756  0.1675
 1920TIP3    H127319   0.065   6.490   8.509 -0.3688  0.1779  0.3691
 1920TIP3    H227320  -0.060   6.441   8.439 -0.8011 -1.7353  2.3575
 1921TIP3   OH227321   0.942   5.019   8.204  0.0983  0.2087 -0.3473
 1921TIP3    H127322   0.867   4.988   8.254 -0.6190  0.1275 -1.4663
 1921TIP3    H227323   0.967   4.946   8.149  1.1412  0.1655  0.1521
 1922TIP3   OH227324   4.570   5.785   1.098  1.0536  0.2105 -0.0767
 1922TIP3    H127325   4.623   5.864   1.113 -0.2514  1.0928  0.0666
 1922TIP3    H227326   4.538   5.761   1.185 -0.6845  1.0990 -0.4307
 1923TIP3   OH227327   1.058   0.312   6.476 -0.0382 -0.0964 -0.2973
 1923TIP3    H127328   1.089   0.251   6.410 -0.3561 -2.2777  1.4343
 1923TIP3    H227329   1.109   0.392   6.461  2.7447 -1.8105 -0.7318
 1924TIP3   OH227330   1.997   5.105   8.327 -0.4131  0.4985  0.5025
 1924TIP3    H127331   2.040   5.028   8.290 -0.9516 -0.4224  1.7431
 1924TIP3    H227332   2.053   5.132   8.400 -1.1703  0.1515  1.2303
 1925TIP3   OH227333   3.817   6.001   1.950 -0.2026 -0.6242  0.3472
 1925TIP3    H127334   3.873   5.935   1.909 -0.0019  0.0493 -0.5000
 1925TIP3    H227335   3.734   5.956   1.964  0.3540 -1.4550  1.0603
 1926TIP3   OH227336   1.842   0.024   0.612  0.4482 -0.8597  0.0604
 1926TIP3    H127337   1.856  -0.067   0.585 -0.6647 -0.4068 -2.3018
 1926TIP3    H227338   1.762   0.050   0.567  1.1610  1.5454  0.0679
 1927TIP3   OH227339   6.406   5.133   7.144 -0.0056 -0.6152 -0.2405
 1927TIP3    H127340   6.382   5.071   7.213 -1.2048  1.6434  1.5091
 1927TIP3    H227341   6.461   5.198   7.188 -0.1339  0.4571 -1.5946
 1928TIP3   OH227342   3.739   5.761   2.508 -0.0373  0.4714 -0.0290
 1928TIP3    H127343   3.646   5.739   2.505  0.3477 -1.2491 -0.1090
 1928TIP3    H227344   3.741   5.854   2.487 -1.7637  0.6357  0.3260
 1929TIP3   OH227345   3.920   3.584   0.503 -0.0615  0.2733 -0.2885
 1929TIP3    H127346   3.910   3.656   0.441 -1.2272 -0.3475 -0.8564
 1929TIP3    H227347   3.895   3.506   0.453  0.1441 -0.3901  0.6213
 1930TIP3   OH227348   0.205   2.439   0.728  0.1016  0.0665  0.4988
 1930TIP3    H127349   0.271   2.504   0.703 -0.7139  0.7280  0.0235
 1930TIP3    H227350   0.254   2.373   0.776  0.8192  1.4194  1.6981
 1931TIP3   OH227351   1.903   2.237   8.640  0.3489  0.4178 -0.4860
 1931TIP3    H127352   1.961   2.255   8.566 -0.8566  1.2120 -1.2724
 1931TIP3    H227353   1.818   2.219   8.600 -0.4337  1.2983  0.7136
 1932TIP3   OH227354   4.081   6.449   1.793 -0.6135  0.5802  0.1589
 1932TIP3    H127355   4.149   6.501   1.750  0.9043 -1.7672 -0.4731
 1932TIP3    H227356   4.122   6.418   1.874 -1.0809 -0.4631  0.0152
 1933TIP3   OH227357   2.768   0.826   0.534 -0.4371 -0.3879 -0.1668
 1933TIP3    H127358   2.738   0.741   0.500 -0.1544 -1.2672  1.6377
 1933TIP3    H227359   2.784   0.810   0.627  2.0714  0.9799 -0.2724
 1934TIP3   OH227360   2.144   0.058   0.154 -0.0985  0.2025  0.1921
 1934TIP3    H127361   2.127   0.068   0.248  0.3634 -2.9120  0.7364
 1934TIP3    H227362   2.093   0.127   0.113  1.0174  2.7948  2.7758
 1935TIP3   OH227363   0.489   6.383   7.871  0.3525 -0.3133  0.4340
 1935TIP3    H127364   0.405   6.339   7.853  0.4592 -0.9834  1.4833
 1935TIP3    H227365   0.486   6.401   7.965  1.6938 -0.9923  0.6143
 1936TIP3   OH227366   0.083   2.898   0.312  0.3717 -0.3668  0.2482
 1936TIP3    H127367   0.129   2.874   0.392  1.0776 -0.2036 -0.0976
 1936TIP3    H227368   0.040   2.818   0.284 -0.9235 -0.1243  1.4513
 1937TIP3   OH227369   1.526   0.248   7.641 -0.1169 -0.0458 -0.2520
 1937TIP3    H127370   1.496   0.167   7.600 -0.3568 -0.3845  0.5603
 1937TIP3    H227371   1.469   0.316   7.605 -0.3742 -0.3460 -0.4125
 1938TIP3   OH227372   3.460   4.860   7.507  0.1098 -0.3523 -0.0764
 1938TIP3    H127373   3.488   4.951   7.506  0.8234 -0.5499  0.7297
 1938TIP3    H227374   3.381   4.860   7.561 -2.2608  0.3871 -3.2475
 1939TIP3   OH227375   2.355   3.035   2.182 -0.0479  0.1237 -0.6622
 1939TIP3    H127376   2.310   2.973   2.239  0.1848 -0.4075 -1.0489
 1939TIP3    H227377   2.312   3.119   2.199  0.7021  0.2077  1.0767
 1940TIP3   OH227378   0.229   0.685   1.573 -0.2119  0.3182  0.0743
 1940TIP3    H127379   0.223   0.623   1.646 -1.4402 -0.7402 -0.8745
 1940TIP3    H227380   0.246   0.630   1.496  0.2016  1.3226 -0.5701
 1941TIP3   OH227381   3.203   0.122   1.997 -0.0786  0.6466  0.2639
 1941TIP3    H127382   3.108   0.111   2.006  0.2052 -1.0173  2.0019
 1941TIP3    H227383   3.239   0.077   2.074  2.1686  0.3607 -0.8842
 1942TIP3   OH227384   1.035   0.144   6.710 -0.5061 -0.3082  0.7876
 1942TIP3    H127385   0.950   0.178   6.739 -0.9369 -0.3173 -0.4130
 1942TIP3    H227386   1.056   0.194   6.631  0.3601 -0.6723  0.7676
 1943TIP3   OH227387   2.609   4.396   8.499  0.4835 -0.0777 -0.1430
 1943TIP3    H127388   2.597   4.490   8.510  0.4601 -0.0664 -0.2592
 1943TIP3    H227389   2.532   4.368   8.449 -0.2744 -0.4009  1.1420
 1944TIP3   OH227390   0.401   4.228   7.487 -0.2643 -0.6969 -0.2855
 1944TIP3    H127391   0.479   4.252   7.436  0.8269  0.5342  1.8394
 1944TIP3    H227392   0.342   4.302   7.478  0.1555 -0.2440  0.6536
 1945TIP3   OH227393   2.542   2.056   0.549  0.3835 -0.0957  0.2741
 1945TIP3    H127394   2.453   2.092   0.546  0.1830 -0.6146 -0.2838
 1945TIP3    H227395   2.534   1.969   0.508  1.1754 -0.0905  0.0885
 1946TIP3   OH227396   4.123   1.301   7.378 -0.1326  0.6465  0.3588
 1946TIP3    H127397   4.186   1.297   7.306  1.8808 -2.1189  2.0454
 1946TIP3    H227398   4.167   1.355   7.444 -1.2553  1.8250  0.1739
 1947TIP3   OH227399   3.161   1.074   0.335  0.3169 -0.1069  0.2104
 1947TIP3    H127400   3.101   0.999   0.336  0.9105 -0.6274  2.6061
 1947TIP3    H227401   3.115   1.141   0.284 -1.4039 -1.1879  0.2770
 1948TIP3   OH227402   4.808   5.528   7.595 -0.3907 -0.5917 -0.0687
 1948TIP3    H127403   4.823   5.557   7.506 -1.5843  1.7854  0.4308
 1948TIP3    H227404   4.713   5.522   7.603 -0.3127 -0.5812  1.1119
 1949TIP3   OH227405   0.348   4.616   1.161  0.1237 -0.4412 -0.1187
 1949TIP3    H127406   0.337   4.522   1.157 -2.5703 -0.2845  1.2998
 1949TIP3    H227407   0.336   4.638   1.254  0.1748  1.3499 -0.4841
 1950TIP3   OH227408   3.248   6.443   8.304 -0.2469  0.5745 -0.2284
 1950TIP3    H127409   3.250   6.510   8.237  0.3529  0.3401 -0.4561
 1950TIP3    H227410   3.189   6.375   8.270  1.3243 -0.3167 -1.3002
 1951TIP3   OH227411   4.569   6.294   8.645  0.1026 -0.2508  0.1306
 1951TIP3    H127412   4.641   6.355   8.659  0.4968 -0.5377 -0.6257
 1951TIP3    H227413   4.508   6.312   8.717  1.1940 -0.4206  1.1172
 1952TIP3   OH227414   6.008   6.824   0.613 -0.1587 -0.5779  0.5255
 1952TIP3    H127415   5.977   6.897   0.667  2.5212 -0.2225  1.7534
 1952TIP3    H227416   5.998   6.747   0.669 -1.9268 -1.0345 -0.3541
 1953TIP3   OH227417   6.336   0.839   7.151  0.1052 -0.1637  0.5769
 1953TIP3    H127418   6.380   0.902   7.093  0.9947 -1.1644  0.1335
 1953TIP3    H227419   6.246   0.871   7.157  0.0117  0.0279 -1.2911
 1954TIP3   OH227420   2.523   5.791   6.801  0.0498 -0.0428  0.4418
 1954TIP3    H127421   2.572   5.814   6.722  1.0181 -0.2579  0.9629
 1954TIP3    H227422   2.543   5.699   6.816  0.6326  0.2328  1.4513
 1955TIP3   OH227423   1.011   1.642   8.381 -0.2197 -0.4247  0.7400
 1955TIP3    H127424   1.011   1.710   8.313 -0.6386 -0.4021  0.7582
 1955TIP3    H227425   0.945   1.672   8.444 -0.6481 -1.0149  0.5763
 1956TIP3   OH227426   3.446   4.749   0.061 -0.1243 -0.4472 -0.2349
 1956TIP3    H127427   3.540   4.732   0.060  0.1283  0.8436  0.1778
 1956TIP3    H227428   3.438   4.844   0.059 -1.4153 -0.5203  0.1734
 1957TIP3   OH227429   3.876   5.813   2.741 -0.4016  0.1631 -0.2395
 1957TIP3    H127430   3.895   5.726   2.777  0.2825  0.5239  0.3015
 1957TIP3    H227431   3.832   5.796   2.658  0.5407 -0.7008 -0.5731
 1958TIP3   OH227432   4.476   1.483   2.136  0.0532  0.0006 -0.4623
 1958TIP3    H127433   4.413   1.534   2.185 -0.4068 -0.5875 -0.4328
 1958TIP3    H227434   4.531   1.441   2.203  0.3071  0.2979 -0.4824
 1959TIP3   OH227435   6.614   0.008   7.817 -0.3592 -0.2297  0.4535
 1959TIP3    H127436   6.591  -0.069   7.765  1.2721  0.1884 -1.0101
 1959TIP3    H227437   6.564   0.080   7.778 -1.6877 -0.4564  1.6580
 1960TIP3   OH227438   4.127   0.169   7.137 -0.7583 -0.4565  0.4728
 1960TIP3    H127439   4.127   0.263   7.151 -0.7094 -0.3228 -0.3971
 1960TIP3    H227440   4.103   0.158   7.045  1.6940 -1.1739 -0.1377
 1961TIP3   OH227441   3.291   2.929   1.014 -0.3583 -0.2985  0.1910
 1961TIP3    H127442   3.283   3.013   0.968 -2.4056 -0.0340  0.9329
 1961TIP3    H227443   3.304   2.865   0.944  4.2323  0.7990 -0.2853
 1962TIP3   OH227444   0.654   3.154   1.767 -0.6827 -0.2550 -0.2947
 1962TIP3    H127445   0.727   3.124   1.713 -0.0430  0.2062  0.2941
 1962TIP3    H227446   0.632   3.079   1.822 -1.4735 -0.7982 -1.3038
 1963TIP3   OH227447   2.313   0.787   8.037  0.0779  0.5413  0.3168
 1963TIP3    H127448   2.371   0.842   8.090  1.7658 -2.1913  1.5545
 1963TIP3    H227449   2.267   0.732   8.100 -1.1184  0.1243 -0.8628
 1964TIP3   OH227450   6.796   5.993   0.269  0.1257  0.5932  0.2477
 1964TIP3    H127451   6.777   5.901   0.252 -1.9322  0.4983  2.5290
 1964TIP3    H227452   6.875   5.992   0.323 -0.8288 -0.0224  1.7011
 1965TIP3   OH227453   4.599   4.756   2.131 -0.2677 -0.1291  0.0062
 1965TIP3    H127454   4.643   4.785   2.211  0.1026 -1.3696  0.2796
 1965TIP3    H227455   4.616   4.826   2.068 -1.4021  1.3476  1.2547
 1966TIP3   OH227456   3.051   5.540   1.074  0.0972 -0.2309 -0.1473
 1966TIP3    H127457   2.961   5.551   1.105  0.2343 -0.2913  0.2749
 1966TIP3    H227458   3.092   5.483   1.139  0.1929 -0.9395 -0.8112
 1967TIP3   OH227459   1.689   0.516   6.249  0.1960  0.5496 -0.3700
 1967TIP3    H127460   1.771   0.469   6.239 -0.0246  0.0674  0.0560
 1967TIP3    H227461   1.715   0.607   6.267  0.6097  0.8116 -2.1146
 1968TIP3   OH227462   6.289   0.082   8.136 -0.6651 -0.5164  0.0734
 1968TIP3    H127463   6.336   0.038   8.207 -1.0490 -0.1692  0.5562
 1968TIP3    H227464   6.348   0.153   8.109  0.0889 -1.4937 -0.9198
 1969TIP3   OH227465   0.990   3.443   7.468  0.0622  0.1008  0.3841
 1969TIP3    H127466   0.991   3.355   7.432 -2.0119 -0.4064  1.4099
 1969TIP3    H227467   1.069   3.485   7.432  0.4683 -1.7669 -1.0433
 1970TIP3   OH227468   2.577   2.827   2.106 -0.1569  0.6471 -0.0616
 1970TIP3    H127469   2.613   2.773   2.176  2.4592  0.8030 -1.1511
 1970TIP3    H227470   2.598   2.917   2.133 -1.9013  0.9554  0.3690
 1971TIP3   OH227471   6.252   0.492   8.100 -0.2361 -0.0623 -0.4929
 1971TIP3    H127472   6.222   0.450   8.019  0.0194 -0.0427 -0.5997
 1971TIP3    H227473   6.337   0.528   8.077 -0.5189  0.6501 -0.4476
 1972TIP3   OH227474   5.295   4.047   1.937 -0.5136 -0.3309  0.5762
 1972TIP3    H127475   5.256   4.105   2.003 -0.1703  2.0801 -1.1985
 1972TIP3    H227476   5.292   3.960   1.976 -2.5562  0.6175  2.7463
 1973TIP3   OH227477   0.114   2.748   7.262 -0.2658  0.0231  0.8964
 1973TIP3    H127478   0.199   2.766   7.302 -0.0173  0.4517  0.2114
 1973TIP3    H227479   0.056   2.728   7.335  0.6075 -1.0573  1.3138
 1974TIP3   OH227480   2.972   4.961   8.309 -0.0727  0.4070  0.4576
 1974TIP3    H127481   3.021   4.959   8.227 -1.7574  0.5347 -0.6103
 1974TIP3    H227482   2.979   4.872   8.344  0.9814  0.4576  0.3841
 1975TIP3   OH227483   3.332   2.892   7.983  0.9591 -0.7814  0.1591
 1975TIP3    H127484   3.260   2.846   7.940 -0.8113  1.8844  0.0679
 1975TIP3    H227485   3.296   2.920   8.067  1.3752  1.7572 -0.4331
 1976TIP3   OH227486   1.178   3.697   8.543 -0.7519  0.3596  0.0749
 1976TIP3    H127487   1.214   3.775   8.500  1.8398 -1.2712 -0.9653
 1976TIP3    H227488   1.225   3.692   8.626  0.8014 -1.1758 -0.8075
 1977TIP3   OH227489   6.404   2.159   7.165  0.6589 -0.5111  0.3710
 1977TIP3    H127490   6.354   2.079   7.150 -1.2009  0.5108  0.8894
 1977TIP3    H227491   6.379   2.217   7.093 -2.1388  1.4730  2.7302
 1978TIP3   OH227492   1.865   2.081   7.852  0.8943 -0.1856  0.3886
 1978TIP3    H127493   1.817   2.157   7.820  0.3328  0.4881  2.6774
 1978TIP3    H227494   1.813   2.006   7.825  0.9227  0.2773 -1.0057
 1979TIP3   OH227495   4.440   5.394   2.817 -0.0095 -0.4295  0.0120
 1979TIP3    H127496   4.524   5.439   2.817  0.0737 -0.5824  0.2510
 1979TIP3    H227497   4.422   5.377   2.910  0.9073 -2.6356 -0.1396
 1980TIP3   OH227498   0.867   5.612   0.700  0.1544 -0.0602 -1.2057
 1980TIP3    H127499   0.812   5.599   0.623 -0.7937 -0.9897 -0.3967
 1980TIP3    H227500   0.912   5.528   0.711 -1.5729 -0.8290  0.6371
 1981TIP3   OH227501   4.002   1.897   0.620  0.3375 -0.0137  0.1924
 1981TIP3    H127502   3.918   1.856   0.639  0.2430 -0.7078 -1.5304
 1981TIP3    H227503   4.042   1.910   0.706 -1.0911 -0.5995  0.9850
 1982TIP3   OH227504   2.510   2.668   8.020  0.3960 -0.0828 -0.2816
 1982TIP3    H127505   2.525   2.578   7.992 -0.1533 -0.3573  0.2946
 1982TIP3    H227506   2.438   2.663   8.083 -0.7221  0.9535 -1.4186
 1983TIP3   OH227507   1.461   0.752   0.895  0.1999 -0.5439  0.4202
 1983TIP3    H127508   1.534   0.805   0.863  0.7075 -0.7081  1.2708
 1983TIP3    H227509   1.398   0.815   0.930  0.4294 -0.4563  0.6773
 1984TIP3   OH227510   4.086   5.047   0.135 -0.1327 -0.5079  0.1880
 1984TIP3    H127511   4.137   4.969   0.118 -1.1120 -1.6011  1.9833
 1984TIP3    H227512   3.995   5.019   0.128 -0.6207  1.3778 -2.9253
 1985TIP3   OH227513   3.575   3.085   0.652 -0.7035 -0.6043 -0.3525
 1985TIP3    H127514   3.582   3.085   0.747 -0.4097  0.1228 -0.3645
 1985TIP3    H227515   3.614   3.169   0.625 -1.8844 -0.2442 -1.0225
 1986TIP3   OH227516   0.002   0.908   6.553  0.5635 -0.2872 -0.3353
 1986TIP3    H127517   0.091   0.874   6.565  1.0822  0.8921 -0.7246
 1986TIP3    H227518  -0.000   0.989   6.604 -0.0764  0.0455 -0.8736
 1987TIP3   OH227519   5.134   3.518   8.061 -0.1301 -0.1457 -0.1571
 1987TIP3    H127520   5.110   3.512   8.153  1.3554 -3.9052  0.1568
 1987TIP3    H227521   5.051   3.506   8.014 -0.6011 -0.3506  0.7126
 1988TIP3   OH227522   5.400   5.687   6.526 -0.1593 -0.3762  0.5005
 1988TIP3    H127523   5.330   5.737   6.570 -1.5168 -1.8780  0.1538
 1988TIP3    H227524   5.364   5.599   6.518  0.3917 -0.4216 -2.7966
 1989TIP3   OH227525   0.894   3.814   7.123  0.4352 -0.0170  0.3662
 1989TIP3    H127526   0.840   3.821   7.202  0.2967 -2.4734  0.5594
 1989TIP3    H227527   0.908   3.905   7.096 -1.7662  0.8034  1.6725
 1990TIP3   OH227528   3.107   1.645   2.228  0.3243 -0.1334  0.1822
 1990TIP3    H127529   3.050   1.674   2.299  0.6142  0.0681  0.3301
 1990TIP3    H227530   3.103   1.549   2.232 -1.6793 -0.1726 -1.1289
 1991TIP3   OH227531   3.624   1.339   6.361 -0.0118  0.2824  0.0945
 1991TIP3    H127532   3.719   1.347   6.368 -0.0024  2.5303 -1.7283
 1991TIP3    H227533   3.590   1.412   6.413 -0.7721 -0.4583  0.6659
 1992TIP3   OH227534   4.695   0.861   2.394 -1.3115  0.2858 -0.3425
 1992TIP3    H127535   4.682   0.929   2.329 -0.1097  0.1210 -0.7760
 1992TIP3    H227536   4.725   0.908   2.472 -0.0936  0.2356 -0.7640
 1993TIP3   OH227537   2.290   5.667   6.592 -0.0103 -0.5828  0.6476
 1993TIP3    H127538   2.369   5.613   6.601  0.5434  0.1499  0.1872
 1993TIP3    H227539   2.219   5.603   6.585  0.7982 -1.3054 -1.5827
 1994TIP3   OH227540   6.792   5.328   8.701 -0.6192  0.0001 -0.2531
 1994TIP3    H127541   6.873   5.282   8.720  0.2421  1.2875 -0.6633
 1994TIP3    H227542   6.734   5.261   8.665  0.5271 -0.7976 -0.6681
 1995TIP3   OH227543   5.141   0.679   8.335 -0.2429 -0.1677 -0.1173
 1995TIP3    H127544   5.234   0.701   8.336 -0.2454 -0.1519 -0.2427
 1995TIP3    H227545   5.139   0.583   8.338 -0.1842 -0.2485 -1.7215
 1996TIP3   OH227546   4.425   6.554   2.549 -0.1247  0.0675 -0.3728
 1996TIP3    H127547   4.463   6.518   2.630 -0.2820  1.0557  0.1653
 1996TIP3    H227548   4.500   6.562   2.490  0.0871 -0.1948 -0.1457
 1997TIP3   OH227549   1.488   2.153   7.925  0.1338 -0.3791 -0.4545
 1997TIP3    H127550   1.462   2.062   7.933 -0.6649 -0.2517 -1.3728
 1997TIP3    H227551   1.493   2.168   7.830  1.2536  0.2592 -0.3171
 1998TIP3   OH227552   4.528   0.603   2.319  0.1257 -0.0200  0.2063
 1998TIP3    H127553   4.444   0.649   2.314  0.3036  0.2685 -0.1960
 1998TIP3    H227554   4.592   0.671   2.340  0.2129 -0.2936  0.8327
 1999TIP3   OH227555   0.193   6.577   1.248 -0.6762 -0.1881 -0.1731
 1999TIP3    H127556   0.228   6.516   1.183 -0.3003 -0.9977  0.7692
 1999TIP3    H227557   0.194   6.528   1.330 -2.1156  0.4590  0.2692
 2000TIP3   OH227558   6.227   0.679   0.999 -0.2806 -0.1893  0.3270
 2000TIP3    H127559   6.172   0.706   1.072 -1.1142 -1.0877  0.0524
 2000TIP3    H227560   6.310   0.724   1.014 -0.7654  0.4262  1.2780
 2001TIP3   OH227561   0.398   6.414   8.503 -0.2371 -0.4818  0.4701
 2001TIP3    H127562   0.390   6.485   8.440 -1.6680 -1.7043 -0.8062
 2001TIP3    H227563   0.470   6.441   8.561  0.0031  1.4495 -0.6431
 2002TIP3   OH227564   4.233   5.348   1.922  0.0210 -0.2513  0.9840
 2002TIP3    H127565   4.171   5.421   1.912  0.5134 -0.0048 -0.5088
 2002TIP3    H227566   4.306   5.371   1.864  0.7338 -1.3594  1.4221
 2003TIP3   OH227567   3.074   0.267   6.745 -0.0686 -0.4604 -0.0695
 2003TIP3    H127568   3.136   0.208   6.790  0.1170  0.9511  1.6411
 2003TIP3    H227569   2.997   0.268   6.803  0.8457  2.7850  1.2783
 2004TIP3   OH227570   6.249   0.537   1.612  0.1881 -0.1614 -0.5019
 2004TIP3    H127571   6.265   0.448   1.644 -2.4319 -0.6693 -0.3759
 2004TIP3    H227572   6.159   0.556   1.639 -0.1595  1.5967 -2.6301
 2005TIP3   OH227573   4.266   5.809   8.572  0.4839 -0.0267 -0.0040
 2005TIP3    H127574   4.210   5.731   8.583 -1.6019  1.2299 -1.0750
 2005TIP3    H227575   4.274   5.818   8.477  1.0919  0.8089  0.1256
 2006TIP3   OH227576   1.526   6.737   1.433  0.4362  0.1709  0.2641
 2006TIP3    H127577   1.542   6.832   1.436  0.6811  0.1137  1.0757
 2006TIP3    H227578   1.452   6.727   1.373 -1.0308  1.0851  1.8213
 2007TIP3   OH227579   4.669   3.028   0.408 -0.4654  0.2877 -0.2158
 2007TIP3    H127580   4.708   2.987   0.486  0.1014  0.7215 -0.2657
 2007TIP3    H227581   4.708   2.981   0.334 -1.0288 -0.1465 -0.2429
 2008TIP3   OH227582   0.091   6.579   0.690  0.6413 -0.1416 -0.4751
 2008TIP3    H127583   0.142   6.620   0.760 -0.0536  0.5323 -0.3478
 2008TIP3    H227584   0.016   6.638   0.677 -2.0334 -2.6838  1.7304
 2009TIP3   OH227585   3.669   6.338   2.113 -0.3157  0.0041  0.5842
 2009TIP3    H127586   3.629   6.395   2.178  0.2797  0.5394  0.4882
 2009TIP3    H227587   3.639   6.250   2.137 -0.3249  0.2254  1.4123
 2010TIP3   OH227588   4.256   3.411   8.265  0.2845 -0.2233 -0.4686
 2010TIP3    H127589   4.219   3.397   8.177  1.6838  1.6632 -1.4168
 2010TIP3    H227590   4.338   3.456   8.249  1.4089 -1.3305  1.7648
 2011TIP3   OH227591   0.497   5.458   1.313  0.1361 -0.6710 -0.5511
 2011TIP3    H127592   0.578   5.449   1.263  1.2891 -0.1360  1.1661
 2011TIP3    H227593   0.483   5.371   1.351  1.1505 -0.2147  0.9456
 2012TIP3   OH227594   1.678   4.528   8.163 -0.6641 -0.0284  0.1447
 2012TIP3    H127595   1.637   4.511   8.078 -2.5410  0.8688  0.8240
 2012TIP3    H227596   1.671   4.622   8.175 -1.5955 -0.2692  1.8270
 2013TIP3   OH227597   4.643   3.497   2.327 -0.0722  0.5059  0.9025
 2013TIP3    H127598   4.735   3.468   2.325  0.2465  1.4240  1.3944
 2013TIP3    H227599   4.649   3.591   2.348 -1.0741  0.8549 -0.2578
 2014TIP3   OH227600   3.235   2.249   1.742  0.5945 -0.4941 -0.5594
 2014TIP3    H127601   3.187   2.233   1.660 -0.2617  1.3161 -0.4732
 2014TIP3    H227602   3.322   2.277   1.714  1.2006 -2.4542 -0.7526
 2015TIP3   OH227603   5.793   5.810   1.322 -0.2817 -0.1267 -0.5150
 2015TIP3    H127604   5.741   5.821   1.243 -0.8709  0.4802 -0.0613
 2015TIP3    H227605   5.736   5.843   1.392  0.7010  0.5430 -0.0070
 2016TIP3   OH227606   3.465   3.267   7.594 -0.1968  0.6020 -0.0387
 2016TIP3    H127607   3.380   3.226   7.578  1.5245 -2.9680 -1.0341
 2016TIP3    H227608   3.505   3.213   7.662  2.9228 -0.6582 -2.6424
 2017TIP3   OH227609   5.289   0.473   0.818 -0.0188  0.0785 -0.4113
 2017TIP3    H127610   5.206   0.515   0.796 -0.0022 -0.0107 -0.6491
 2017TIP3    H227611   5.306   0.500   0.909 -0.4696 -0.1643 -0.2488
 2018TIP3   OH227612   5.649   5.577   2.705 -0.0796  0.3354  0.1538
 2018TIP3    H127613   5.721   5.640   2.694  1.5111 -1.2882  0.6900
 2018TIP3    H227614   5.681   5.515   2.771 -1.7818 -0.7475  0.0384
 2019TIP3   OH227615   5.450   0.695   8.072  0.0506 -0.8023  0.2840
 2019TIP3    H127616   5.448   0.603   8.099 -1.1732 -1.0011 -0.4128
 2019TIP3    H227617   5.509   0.737   8.135 -0.4378 -1.8055  1.4515
 2020TIP3   OH227618   3.753   2.746   8.325 -0.2487  0.6724  0.0603
 2020TIP3    H127619   3.736   2.830   8.282 -1.8905  1.4606  2.0849
 2020TIP3    H227620   3.680   2.690   8.299  0.5059  0.0510 -0.7724
 2021TIP3   OH227621   6.791   5.937   0.924 -0.1530  0.9034  0.3180
 2021TIP3    H127622   6.801   5.972   1.012 -0.5368 -0.2515  0.8505
 2021TIP3    H227623   6.700   5.907   0.921 -0.0045  0.4909 -0.2918
 2022TIP3   OH227624   4.636   6.267   1.491 -0.5903 -0.1552  0.1925
 2022TIP3    H127625   4.692   6.324   1.439 -2.0800  0.8283 -0.4236
 2022TIP3    H227626   4.547   6.293   1.467 -1.3188 -1.3938  1.3955
 2023TIP3   OH227627   2.760   2.570   6.781 -0.0627 -0.0643  0.0215
 2023TIP3    H127628   2.716   2.507   6.839  2.2332 -1.0101  0.8687
 2023TIP3    H227629   2.811   2.625   6.840  2.0756 -0.8434 -0.9862
 2024TIP3   OH227630   5.203   0.547   7.182 -0.4471  0.4727 -0.6050
 2024TIP3    H127631   5.181   0.601   7.258 -0.1966 -1.9660  1.3302
 2024TIP3    H227632   5.122   0.501   7.162  0.3723 -1.5895  0.5726
 2025TIP3   OH227633   1.108   2.229   8.577 -0.2509 -0.1240 -0.2151
 2025TIP3    H127634   1.056   2.187   8.509 -0.7880  1.0504 -0.5527
 2025TIP3    H227635   1.114   2.164   8.646 -0.1791 -1.1320 -1.1450
 2026TIP3   OH227636   5.006   5.913   1.310 -0.1832  0.4271  0.1795
 2026TIP3    H127637   4.924   5.866   1.323 -1.2614  1.0347 -3.4371
 2026TIP3    H227638   4.987   6.002   1.337  0.4160 -0.0775  2.5070
 2027TIP3   OH227639   5.605   2.787   7.334  1.1491 -0.4244  0.0352
 2027TIP3    H127640   5.514   2.757   7.331  1.3081 -0.8728 -0.5500
 2027TIP3    H227641   5.639   2.751   7.416  0.0360  2.0665  1.7143
 2028TIP3   OH227642   2.382   2.697   6.445  0.2727 -0.4056 -0.1733
 2028TIP3    H127643   2.352   2.721   6.532  0.3647  2.0090 -0.7171
 2028TIP3    H227644   2.471   2.666   6.458  0.6953  0.9981  0.5212
 2029TIP3   OH227645   4.239   5.236   0.301 -0.5087  0.0300  0.2794
 2029TIP3    H127646   4.167   5.296   0.320 -1.0111 -0.1472 -0.9843
 2029TIP3    H227647   4.199   5.165   0.252  0.1859 -1.0842  1.2722
 2030TIP3   OH227648   5.868   0.176   7.998 -1.0343  0.0037  1.0103
 2030TIP3    H127649   5.913   0.128   8.067  1.4389  1.3030  0.4224
 2030TIP3    H227650   5.872   0.267   8.027 -0.0809  0.5533 -0.7234
 2031TIP3   OH227651   0.554   6.736   1.002  0.3386 -0.8202 -0.4290
 2031TIP3    H127652   0.588   6.694   0.922  0.0280 -2.5638  0.3098
 2031TIP3    H227653   0.632   6.753   1.055  0.5578  0.4462 -1.1129
 2032TIP3   OH227654   6.222   3.802   2.660 -0.0127 -0.3722 -0.5081
 2032TIP3    H127655   6.280   3.813   2.735 -0.2593 -1.0969 -0.2013
 2032TIP3    H227656   6.134   3.821   2.695  0.0750  1.2331 -1.0895
 2033TIP3   OH227657   2.131   4.597   2.566  0.3398 -0.1539 -0.1346
 2033TIP3    H127658   2.133   4.683   2.523 -0.0489 -0.1376 -0.1274
 2033TIP3    H227659   2.085   4.613   2.649 -1.9194 -0.8198 -1.1853
 2034TIP3   OH227660   5.179   6.808   1.162 -0.2643 -0.3089  0.3353
 2034TIP3    H127661   5.256   6.865   1.169 -1.5878  1.3698  2.1124
 2034TIP3    H227662   5.198   6.752   1.087  2.5590  0.2247  0.5390
 2035TIP3   OH227663   4.460   3.986   0.392  0.2666 -0.3762 -0.0847
 2035TIP3    H127664   4.526   3.980   0.461  2.4910  1.0905 -1.9300
 2035TIP3    H227665   4.503   3.952   0.314 -1.4060  0.0175 -1.2406
 2036TIP3   OH227666   1.376   0.398   6.684 -0.1621 -0.1226 -0.2478
 2036TIP3    H127667   1.426   0.399   6.602  0.5126  0.4163  0.1533
 2036TIP3    H227668   1.408   0.321   6.730 -0.8670 -0.6803 -0.6770
 2037TIP3   OH227669   1.211   5.742   7.701 -0.1426 -0.0562 -0.3002
 2037TIP3    H127670   1.220   5.654   7.737  0.7107  0.1030 -0.1075
 2037TIP3    H227671   1.247   5.736   7.613 -2.7781 -0.5987 -1.4586
 2038TIP3   OH227672   0.108   2.019   0.865 -0.3748 -0.3934  0.7183
 2038TIP3    H127673   0.088   1.985   0.778  1.2945 -0.9430  0.5128
 2038TIP3    H227674   0.183   1.967   0.894  0.4738  1.2412  1.5619
 2039TIP3   OH227675   6.817   0.338   7.972 -0.5673  0.3247  0.2931
 2039TIP3    H127676   6.856   0.252   7.954 -0.0539  0.5077  0.5249
 2039TIP3    H227677   6.759   0.354   7.898  0.6275  0.5478 -0.6043
 2040TIP3   OH227678   6.053   1.499   7.579  0.0123 -0.5402 -0.3123
 2040TIP3    H127679   6.031   1.575   7.634  0.7821 -0.4148 -0.1682
 2040TIP3    H227680   6.060   1.535   7.491  0.3300 -0.4554 -0.2514
 2041TIP3   OH227681   4.768   6.423   0.939 -0.3816  0.1233  0.3500
 2041TIP3    H127682   4.753   6.449   0.849 -1.2128  1.5431  0.8641
 2041TIP3    H227683   4.746   6.501   0.991 -0.7302 -0.9142  1.8315
 2042TIP3   OH227684   3.101   0.053   0.358 -0.5611 -0.3772 -0.2546
 2042TIP3    H127685   3.168  -0.012   0.337  0.3197  0.4155 -0.0340
 2042TIP3    H227686   3.072   0.086   0.273  0.6110  0.4961 -0.3529
 2043TIP3   OH227687   0.917   6.197   6.984  0.1700  0.3474  0.0748
 2043TIP3    H127688   0.980   6.217   7.053 -0.6857 -1.1740  1.3845
 2043TIP3    H227689   0.948   6.246   6.908  1.4437  1.6769  1.3817
 2044TIP3   OH227690   4.983   4.539   8.393 -0.6954 -0.6030 -0.3392
 2044TIP3    H127691   5.014   4.606   8.332 -2.2598 -1.6747 -2.4147
 2044TIP3    H227692   4.969   4.461   8.340 -3.7443 -1.1246  1.0105
 2045TIP3   OH227693   4.609   5.331   7.522 -0.2027  0.4247 -0.6332
 2045TIP3    H127694   4.532   5.281   7.549 -0.2677  1.3081  0.9761
 2045TIP3    H227695   4.612   5.321   7.427 -0.8128 -1.7212 -0.4865
 2046TIP3   OH227696   1.094   5.781   6.892 -0.0106 -0.3537  0.4469
 2046TIP3    H127697   1.085   5.868   6.854 -0.7665  0.3075  2.0378
 2046TIP3    H227698   1.065   5.721   6.823  1.2027  0.5750 -0.9305
 2047TIP3   OH227699   3.210   4.312   8.587  0.0039  0.1477  0.0552
 2047TIP3    H127700   3.281   4.374   8.601  1.4952 -1.3265 -0.5184
 2047TIP3    H227701   3.141   4.363   8.545  0.2205  1.8865  1.7040
 2048TIP3   OH227702   6.367   1.734   8.096  0.4304  0.0833 -0.6392
 2048TIP3    H127703   6.393   1.809   8.150  1.0558  0.0837 -0.9343
 2048TIP3    H227704   6.448   1.685   8.082 -0.0651 -0.9638  0.0223
 2049TIP3   OH227705   1.339   3.046   8.660 -0.0747 -0.1628  0.0795
 2049TIP3    H127706   1.280   3.121   8.651  1.9374  1.3744 -0.9346
 2049TIP3    H227707   1.314   2.987   8.589 -1.6814 -0.5033  0.8875
 2050TIP3   OH227708   3.466   5.193   7.098 -0.2232  0.5007  0.2836
 2050TIP3    H127709   3.455   5.116   7.042  0.7158  2.3865 -2.7300
 2050TIP3    H227710   3.552   5.182   7.138 -1.0770 -1.0708  1.8453
 2051TIP3   OH227711   0.666   1.858   1.650 -0.6793 -0.2190 -0.3706
 2051TIP3    H127712   0.668   1.787   1.714  1.1048 -0.3815 -0.5398
 2051TIP3    H227713   0.667   1.938   1.701  0.1060 -0.3483 -0.1663
 2052TIP3   OH227714   0.256   6.404   1.483 -0.0727  0.0806 -0.5465
 2052TIP3    H127715   0.344   6.437   1.499  0.3150 -0.8614 -0.6735
 2052TIP3    H227716   0.205   6.432   1.559  1.1365 -2.1795  1.2327
 2053TIP3   OH227717   1.160   4.807   0.562  0.5300  0.3698  0.3367
 2053TIP3    H127718   1.190   4.811   0.471  1.2360  0.2230  0.5568
 2053TIP3    H227719   1.199   4.883   0.604  2.2428 -0.8551  1.0905
 2054TIP3   OH227720   6.464   3.677   8.591  0.6837  0.1522 -0.0835
 2054TIP3    H127721   6.503   3.764   8.595  0.2023  0.4370 -1.1327
 2054TIP3    H227722   6.396   3.677   8.659 -0.6381  1.3028 -1.3336
 2055TIP3   OH227723   1.158   6.518   0.372 -0.3325  0.2515 -0.0015
 2055TIP3    H127724   1.163   6.423   0.386  0.4858  0.3923  0.7275
 2055TIP3    H227725   1.076   6.544   0.415  0.5051  0.1766  1.7248
 2056TIP3   OH227726   5.202   0.900   1.903  0.2042  0.0192 -0.4544
 2056TIP3    H127727   5.190   0.963   1.831  1.9317  0.8346 -0.0725
 2056TIP3    H227728   5.162   0.943   1.978  1.3187  0.6636 -0.2103
 2057TIP3   OH227729   0.268   2.872   0.082 -0.2084  0.2579  0.3238
 2057TIP3    H127730   0.352   2.897   0.120  0.9795 -0.2235 -1.8381
 2057TIP3    H227731   0.203   2.911   0.140  1.4883  0.7790  1.9727
 2058TIP3   OH227732   6.268   0.394   1.015  0.2328 -0.0103  0.0236
 2058TIP3    H127733   6.205   0.368   1.082  0.5748  0.7284  0.6403
 2058TIP3    H227734   6.260   0.489   1.010  0.0041 -0.0784 -1.1971
 2059TIP3   OH227735   4.862   2.708   8.690 -0.0766 -0.4383 -0.0031
 2059TIP3    H127736   4.784   2.692   8.637  0.6456  1.9138 -1.9503
 2059TIP3    H227737   4.912   2.627   8.685 -1.2513 -1.1402 -0.7463
 2060TIP3   OH227738   5.113   0.406   8.539  0.3859  0.2796  0.2666
 2060TIP3    H127739   5.143   0.397   8.449  2.8075  0.9913  0.9326
 2060TIP3    H227740   5.020   0.383   8.536  0.2692  0.7999 -2.4853
 2061TIP3   OH227741   2.037   5.389   8.379 -0.6534  0.6726  0.3535
 2061TIP3    H127742   2.073   5.406   8.466  1.2224  1.1964 -0.4609
 2061TIP3    H227743   2.001   5.301   8.385  1.6346 -0.3127  1.0561
 2062TIP3   OH227744   3.098   0.365   2.376  0.3894 -0.0949 -1.0769
 2062TIP3    H127745   3.080   0.336   2.286  0.7402  1.1095 -1.5579
 2062TIP3    H227746   3.024   0.422   2.398  0.5680  0.0238 -0.7818
 2063TIP3   OH227747   1.793   0.637   1.312  0.4445 -0.4336 -0.1089
 2063TIP3    H127748   1.729   0.689   1.263  2.4960  3.2239  0.8023
 2063TIP3    H227749   1.749   0.618   1.395 -0.6712 -1.0513 -0.8049
 2064TIP3   OH227750   4.606   1.283   0.345  0.2059  0.6586  0.5973
 2064TIP3    H127751   4.539   1.216   0.338  1.8538 -0.8669 -2.0363
 2064TIP3    H227752   4.635   1.278   0.436 -0.5340 -1.3804  0.7688
 2065TIP3   OH227753   6.350   4.649   6.768  0.0747  0.1221  0.0382
 2065TIP3    H127754   6.324   4.675   6.680  0.4953  0.3743 -0.0136
 2065TIP3    H227755   6.442   4.674   6.775  0.3904 -0.9788  0.1272
 2066TIP3   OH227756   3.024   6.481   7.558 -0.3094  0.4581  0.1610
 2066TIP3    H127757   3.107   6.451   7.522 -0.2182  1.0799 -0.1597
 2066TIP3    H227758   3.049   6.535   7.634 -0.4561  0.0164  0.5289
 2067TIP3   OH227759   4.846   1.970   7.729  0.0806 -0.3847 -0.9256
 2067TIP3    H127760   4.940   1.972   7.710  0.4941 -1.0090  0.8321
 2067TIP3    H227761   4.826   2.060   7.756 -0.0338 -0.0397 -2.1188
 2068TIP3   OH227762   2.405   0.139   0.312 -0.0161  0.0858 -0.1274
 2068TIP3    H127763   2.336   0.111   0.252 -0.3454  0.7924 -0.0935
 2068TIP3    H227764   2.384   0.231   0.331  0.3893  0.0264  0.6409
 2069TIP3   OH227765   0.222   1.020   1.279 -0.3309 -0.2366  0.1260
 2069TIP3    H127766   0.217   0.945   1.220  2.1801 -1.0422  0.7814
 2069TIP3    H227767   0.312   1.018   1.311 -0.6872  2.1017  1.4637
 2070TIP3   OH227768   3.180   0.305   8.578 -0.0933  0.1392  0.2035
 2070TIP3    H127769   3.127   0.374   8.538  0.7244  0.3338 -0.5605
 2070TIP3    H227770   3.270   0.323   8.551  0.1791 -1.0661  0.2154
 2071TIP3   OH227771   6.392   3.032   7.570 -0.2891  0.1126  0.0509
 2071TIP3    H127772   6.338   3.059   7.495 -1.5235 -0.3415  0.7377
 2071TIP3    H227773   6.448   2.963   7.536 -0.0448  0.6721 -0.7126
 2072TIP3   OH227774   6.097   0.258   1.525  0.2594  0.0613 -0.6294
 2072TIP3    H127775   6.108   0.275   1.618  0.6769 -0.8662 -0.4974
 2072TIP3    H227776   6.183   0.273   1.486 -0.3474  2.4125 -1.2275
 2073TIP3   OH227777   5.560   2.085   8.270  0.6127 -0.2140 -0.8051
 2073TIP3    H127778   5.576   1.993   8.294 -2.8850 -0.3487  1.7895
 2073TIP3    H227779   5.504   2.079   8.193  1.2393 -0.2114 -1.2641
 2074TIP3   OH227780   3.210   5.052   0.307  0.3852 -0.5351 -0.0802
 2074TIP3    H127781   3.260   5.028   0.385 -0.1771  0.6252  0.6657
 2074TIP3    H227782   3.212   5.148   0.306 -0.5477 -0.5072 -0.8713
 2075TIP3   OH227783   1.008   1.553   1.357 -0.2953  0.6112 -0.1898
 2075TIP3    H127784   1.028   1.556   1.264  1.4381 -0.1653  0.1163
 2075TIP3    H227785   1.090   1.528   1.399 -0.8050  1.7671  1.6398
 2076TIP3   OH227786   4.888   4.497   0.996 -0.5646 -0.3662 -0.3900
 2076TIP3    H127787   4.796   4.512   1.018 -0.4165  0.0108 -0.0125
 2076TIP3    H227788   4.923   4.585   0.981  0.4384 -0.2081  2.3136
 2077TIP3   OH227789   4.096   5.181   7.445 -0.5371 -0.3419 -0.2002
 2077TIP3    H127790   4.166   5.243   7.467 -1.7083  1.2690 -0.8107
 2077TIP3    H227791   4.099   5.115   7.514  2.6878 -1.3485 -1.1161
 2078TIP3   OH227792   4.524   4.895   0.968  0.1304 -0.2491 -0.0607
 2078TIP3    H127793   4.528   4.882   0.873 -0.5076 -2.1849  0.1263
 2078TIP3    H227794   4.431   4.884   0.989  0.1824  0.7197  0.7383
 2079TIP3   OH227795   2.195   0.038   1.816 -0.1242 -0.1415 -0.0646
 2079TIP3    H127796   2.180   0.069   1.727  0.1649  0.3487  0.0493
 2079TIP3    H227797   2.277   0.081   1.842 -1.0980  1.1212  1.0532
 2080TIP3   OH227798   2.369   2.740   0.324  0.1385  0.5738 -0.4810
 2080TIP3    H127799   2.417   2.799   0.382  0.6669  0.2284 -0.5592
 2080TIP3    H227800   2.317   2.798   0.268 -3.3842  0.9322  2.7350
 2081TIP3   OH227801   3.982   3.209   7.374  0.2337 -0.4014  0.3801
 2081TIP3    H127802   4.009   3.271   7.442  1.2940 -0.4582  0.0253
 2081TIP3    H227803   3.937   3.263   7.309 -1.4525 -0.4551  1.4561
 2082TIP3   OH227804   4.318   5.997   8.331  0.1820 -0.0934 -0.4904
 2082TIP3    H127805   4.234   6.031   8.301  0.7823  2.6472  0.6146
 2082TIP3    H227806   4.374   6.075   8.338  2.5067 -1.6955 -0.2069
 2083TIP3   OH227807   3.124   0.816   1.520 -0.1207  0.3507  0.0337
 2083TIP3    H127808   3.144   0.857   1.436  0.0279  0.0796 -0.0673
 2083TIP3    H227809   3.195   0.843   1.578  0.2227 -0.1164 -0.1563
 2084TIP3   OH227810   6.241   5.111   2.225  0.2665 -0.0815  0.2622
 2084TIP3    H127811   6.318   5.166   2.237 -0.1297  1.3225 -2.7686
 2084TIP3    H227812   6.275   5.031   2.184  0.2923 -0.1935  0.4978
 2085TIP3   OH227813   5.674   2.490   1.314 -0.0284 -0.6718 -0.2110
 2085TIP3    H127814   5.708   2.403   1.294  1.0741 -0.4759  0.6911
 2085TIP3    H227815   5.681   2.497   1.409  0.6811  0.7003 -0.3360
 2086TIP3   OH227816   3.654   3.174   7.828  0.1974  0.3996  0.1659
 2086TIP3    H127817   3.583   3.158   7.889  0.3977  0.2036  0.3486
 2086TIP3    H227818   3.670   3.269   7.833  1.1599  0.1938  1.4742
 2087TIP3   OH227819   4.267   1.843   2.425 -0.7223  0.4110 -0.1689
 2087TIP3    H127820   4.179   1.857   2.390 -0.8577 -0.8510 -0.4017
 2087TIP3    H227821   4.283   1.749   2.412  0.7990  0.6796 -0.4571
 2088TIP3   OH227822   5.922   0.771   0.532  0.5659  0.4034  0.0323
 2088TIP3    H127823   5.950   0.786   0.622 -0.5058  2.8436  0.0230
 2088TIP3    H227824   5.980   0.701   0.500  0.1899 -1.3881  2.9304
 2089TIP3   OH227825   3.733   2.288   7.391  0.3303  0.0533 -0.5886
 2089TIP3    H127826   3.759   2.351   7.324 -0.8197  0.6661 -0.4834
 2089TIP3    H227827   3.731   2.204   7.346 -1.1424  0.5655 -1.5496
 2090TIP3   OH227828   6.719   2.923   8.657 -0.0473  0.6085 -0.1333
 2090TIP3    H127829   6.717   2.832   8.687 -0.6919  0.1852 -1.4081
 2090TIP3    H227830   6.798   2.929   8.603 -0.1313  0.7400 -0.2441
 2091TIP3   OH227831   4.552   5.133   0.117 -0.0106  0.6820  0.1972
 2091TIP3    H127832   4.577   5.052   0.163 -2.5233  0.4889  1.3910
 2091TIP3    H227833   4.598   5.202   0.164  0.0769  0.1800  0.8695
 2092TIP3   OH227834   4.261   3.163   8.541  0.0456  0.0407 -0.0685
 2092TIP3    H127835   4.297   3.085   8.584 -1.0912 -0.7070 -0.4175
 2092TIP3    H227836   4.338   3.215   8.517  0.9210 -1.6162 -1.0351
 2093TIP3   OH227837   4.999   6.043   6.671 -0.5821 -0.3016 -0.5339
 2093TIP3    H127838   4.931   6.067   6.734  0.3513 -0.5390  0.6022
 2093TIP3    H227839   5.075   6.094   6.699  0.0683 -1.0036 -1.0011
 2094TIP3   OH227840   3.274   5.457   0.618  0.0481 -0.4740  0.7085
 2094TIP3    H127841   3.179   5.456   0.613  0.0543 -0.6847  0.6261
 2094TIP3    H227842   3.295   5.540   0.661 -0.0731  0.7089 -1.4230
 2095TIP3   OH227843   3.198   1.603   6.662  0.1128 -0.3410 -0.3748
 2095TIP3    H127844   3.225   1.658   6.735 -2.2282  0.5722 -0.1121
 2095TIP3    H227845   3.246   1.637   6.587  1.0910 -0.0308  0.3737
 2096TIP3   OH227846   6.361   3.706   0.815 -0.2423 -0.5691  0.2308
 2096TIP3    H127847   6.273   3.742   0.822  1.1030  3.0210  0.8617
 2096TIP3    H227848   6.398   3.714   0.903  1.3540 -0.0030 -0.4427
 2097TIP3   OH227849   0.563   1.223   7.865  0.1589 -0.4004 -0.1156
 2097TIP3    H127850   0.640   1.265   7.903 -0.8056  0.6370  0.7684
 2097TIP3    H227851   0.535   1.282   7.795 -0.4842 -0.1807  0.3157
 2098TIP3   OH227852   6.693   0.583   1.416 -0.1597 -0.4216  0.3971
 2098TIP3    H127853   6.782   0.603   1.389  0.5073 -0.1009  2.6608
 2098TIP3    H227854   6.694   0.490   1.438 -0.6591 -0.6568 -0.5389
 2099TIP3   OH227855   3.406   0.449   2.277  0.3673  0.4742 -0.3317
 2099TIP3    H127856   3.445   0.536   2.269 -2.3513  1.7227 -1.4404
 2099TIP3    H227857   3.440   0.400   2.202  0.7856  1.1100 -0.5640
 2100TIP3   OH227858   0.741   3.666   6.472  0.0543  0.0385 -0.4788
 2100TIP3    H127859   0.747   3.745   6.419 -0.4528  0.4840  0.1097
 2100TIP3    H227860   0.797   3.684   6.548 -0.1009 -0.1473 -0.3188
 2101TIP3   OH227861   3.422   3.015   7.744 -0.0643 -0.2466  0.0499
 2101TIP3    H127862   3.518   3.014   7.746 -0.0701 -1.2395  1.3804
 2101TIP3    H227863   3.396   2.942   7.801 -1.6206  1.1163  1.1890
 2102TIP3   OH227864   5.713   4.770   1.601  0.1537 -0.2376 -0.6268
 2102TIP3    H127865   5.631   4.808   1.568 -0.4309 -1.5709 -0.7877
 2102TIP3    H227866   5.745   4.834   1.665 -0.1713  1.0630 -1.7064
 2103TIP3   OH227867   4.617   5.959   7.561 -0.1351  0.4972 -0.0219
 2103TIP3    H127868   4.626   5.953   7.656  1.1332 -1.2018 -0.2006
 2103TIP3    H227869   4.705   5.941   7.528 -1.0567 -1.4546 -1.5843
 2104TIP3   OH227870   5.868   5.292   0.859 -0.2806 -0.1912  0.6276
 2104TIP3    H127871   5.941   5.243   0.897 -0.9012 -0.8281  1.0153
 2104TIP3    H227872   5.907   5.342   0.787  0.3588 -1.2409  0.2347
 2105TIP3   OH227873   6.258   0.954   7.834 -0.1514  0.0256  0.3670
 2105TIP3    H127874   6.168   0.920   7.825  0.1100 -0.2978 -1.1706
 2105TIP3    H227875   6.267   0.969   7.928 -1.5102 -0.8052  0.6695
 2106TIP3   OH227876   2.282   6.376   7.658  0.0697  0.0329 -0.1987
 2106TIP3    H127877   2.306   6.421   7.577 -0.3537  0.9415  0.1651
 2106TIP3    H227878   2.189   6.398   7.671  0.0377 -0.3990  0.3429
 2107TIP3   OH227879   1.717   1.150   1.074 -0.5458  0.8436 -0.4774
 2107TIP3    H127880   1.798   1.130   1.121 -2.0084 -1.1233  1.4033
 2107TIP3    H227881   1.744   1.163   0.983  1.6227 -2.0084 -0.3616
 2108TIP3   OH227882   5.680   5.115   0.804 -0.1472 -0.2163 -0.6844
 2108TIP3    H127883   5.734   5.189   0.832  0.7987 -0.2684 -2.2417
 2108TIP3    H227884   5.740   5.041   0.801 -0.9916 -0.9746  0.4488
 2109TIP3   OH227885   4.765   3.178   7.852  0.0060 -0.1662  0.4049
 2109TIP3    H127886   4.737   3.162   7.762 -0.8951  0.8072  0.4862
 2109TIP3    H227887   4.717   3.257   7.878 -0.0589 -0.6681  1.8807
 2110TIP3   OH227888   3.934   0.156   8.072  0.2088 -0.9068  0.2709
 2110TIP3    H127889   3.901   0.170   7.983  0.7663 -0.2442  0.1675
 2110TIP3    H227890   3.888   0.221   8.125  1.4544  0.1612  0.0942
 2111TIP3   OH227891   4.401   5.195   7.663 -0.1208 -0.5828 -0.1710
 2111TIP3    H127892   4.363   5.267   7.613 -1.8623 -0.3130  1.4244
 2111TIP3    H227893   4.404   5.227   7.753  0.4126 -1.9875  0.3415
 2112TIP3   OH227894   4.861   1.107   7.328 -0.4634  0.6767  0.2252
 2112TIP3    H127895   4.842   1.193   7.364  0.3364  0.6131  0.8086
 2112TIP3    H227896   4.949   1.115   7.291  0.3631 -0.3685  1.8699
 2113TIP3   OH227897   1.375   3.956   0.462 -0.1194  0.1715  0.4792
 2113TIP3    H127898   1.288   3.995   0.465 -0.5179 -0.5095 -1.0753
 2113TIP3    H227899   1.397   3.937   0.553 -1.3928  0.7870  0.9275
 2114TIP3   OH227900   6.127   0.097   0.401  0.1464  0.0614 -0.5643
 2114TIP3    H127901   6.101   0.035   0.469  0.5254 -0.5676 -0.9854
 2114TIP3    H227902   6.045   0.137   0.373  0.1345  1.5973  1.4403
 2115TIP3   OH227903   0.134   4.704   7.799 -0.1823 -0.1616 -0.7835
 2115TIP3    H127904   0.194   4.728   7.729  0.1798 -0.6882 -0.6577
 2115TIP3    H227905   0.170   4.745   7.878  0.0962 -0.6055 -0.6803
 2116TIP3   OH227906   3.717   0.616   2.121  0.1924  0.0389  0.4144
 2116TIP3    H127907   3.736   0.531   2.162 -1.4041 -0.2020  0.7256
 2116TIP3    H227908   3.631   0.640   2.155  0.3279  1.4787 -0.1937
 2117TIP3   OH227909   2.928   4.348   6.631 -0.2317 -0.2058  0.1470
 2117TIP3    H127910   2.879   4.430   6.638 -0.0233 -0.0777  0.1077
 2117TIP3    H227911   2.861   4.280   6.627 -0.4753  0.0984 -2.0717
 2118TIP3   OH227912   6.524   6.460   7.386  0.2625  0.2813 -0.3200
 2118TIP3    H127913   6.441   6.483   7.427 -0.6199 -1.6162 -0.9248
 2118TIP3    H227914   6.520   6.499   7.298 -1.0714 -1.7475 -1.2192
 2119TIP3   OH227915   5.473   5.237   1.156 -0.4192  0.2049 -0.3339
 2119TIP3    H127916   5.564   5.262   1.138 -0.2901 -1.2695 -2.0753
 2119TIP3    H227917   5.481   5.163   1.216 -0.5615  0.9210  0.5916
 2120TIP3   OH227918   6.405   5.625   0.104  0.2794  0.0379 -0.0316
 2120TIP3    H127919   6.476   5.565   0.128 -0.8156 -0.8233  1.2273
 2120TIP3    H227920   6.406   5.626   0.008  2.0485  0.1539 -0.0532
 2121TIP3   OH227921   4.626   4.500   7.278  0.0302  0.1200  0.2833
 2121TIP3    H127922   4.681   4.520   7.202 -0.4211  0.8428  0.1444
 2121TIP3    H227923   4.593   4.412   7.260 -0.8751  0.6639 -0.8597
 2122TIP3   OH227924   6.637   4.682   8.505 -0.7173 -0.2856 -0.1742
 2122TIP3    H127925   6.583   4.617   8.460 -1.2035  0.2925 -0.4388
 2122TIP3    H227926   6.648   4.647   8.593  1.4749 -2.1484 -1.1042
 2123TIP3   OH227927   0.059   3.240   0.316 -0.3478  0.1352  0.7287
 2123TIP3    H127928   0.038   3.146   0.310  0.0850  0.1286 -1.5727
 2123TIP3    H227929   0.125   3.254   0.248 -1.3900  2.3600  0.0969
 2124TIP3   OH227930   5.415   5.981   7.187 -0.0319 -0.0433 -0.3096
 2124TIP3    H127931   5.368   6.000   7.106  2.3925  1.0686 -1.5623
 2124TIP3    H227932   5.490   5.927   7.160 -0.0964 -1.1270  1.4797
 2125TIP3   OH227933   1.933   3.666   0.671 -0.0345 -0.4552 -0.0909
 2125TIP3    H127934   1.851   3.707   0.698 -0.4151  0.1481 -2.0033
 2125TIP3    H227935   1.950   3.701   0.584  2.6055 -0.0843  0.4789
 2126TIP3   OH227936   6.573   5.782   0.984  0.4341  0.2506  0.2468
 2126TIP3    H127937   6.491   5.831   0.971  0.1149 -0.6180 -1.1016
 2126TIP3    H227938   6.550   5.691   0.965  2.1800  0.2678 -2.3095
 2127TIP3   OH227939   2.632   0.986   0.781  0.3121 -0.0424  0.1993
 2127TIP3    H127940   2.706   0.938   0.818  0.7589 -0.8394 -1.6618
 2127TIP3    H227941   2.669   1.070   0.754  0.4182 -0.2103 -0.1851
 2128TIP3   OH227942   2.874   3.060   8.727  0.2218  0.0030  0.8973
 2128TIP3    H127943   2.870   2.997   8.656 -1.0625  1.0239  0.0191
 2128TIP3    H227944   2.801   3.037   8.784  0.1158  0.3270  0.8933
 2129TIP3   OH227945   3.884   4.865   0.030 -0.2927  0.0544  0.3794
 2129TIP3    H127946   3.959   4.817   0.066  2.4662  2.7099 -1.3029
 2129TIP3    H227947   3.859   4.815  -0.048 -0.2655 -0.8333  0.9234
 2130TIP3   OH227948   2.048   2.820   8.068  0.0621 -0.3200  0.1090
 2130TIP3    H127949   2.088   2.834   8.154 -1.0651 -2.0613  1.0043
 2130TIP3    H227950   2.073   2.731   8.045 -1.3629 -0.6265 -0.3582
 2131TIP3   OH227951   2.442   1.566   8.642  0.1065 -0.7640 -0.3260
 2131TIP3    H127952   2.521   1.619   8.638  0.3064 -1.0631 -0.3816
 2131TIP3    H227953   2.447   1.509   8.565 -0.8370  0.1516 -1.0953
 2132TIP3   OH227954   2.717   1.570   6.287  0.0273  0.4861  0.1332
 2132TIP3    H127955   2.762   1.486   6.282 -2.9917 -1.3571  1.2461
 2132TIP3    H227956   2.640   1.560   6.231 -1.6641  1.5691  2.0998
 2133TIP3   OH227957   6.648   1.915   1.753 -0.4101 -0.1418 -1.0307
 2133TIP3    H127958   6.596   1.873   1.821  1.3496 -0.6218  0.1089
 2133TIP3    H227959   6.737   1.882   1.767  1.2108  4.0631  0.1249
 2134TIP3   OH227960   2.265   6.780   8.078  0.2548  0.4212 -0.1272
 2134TIP3    H127961   2.272   6.726   7.999  2.7286  0.2100  0.1445
 2134TIP3    H227962   2.331   6.849   8.065 -1.1376  1.9702  0.6235
 2135TIP3   OH227963   5.251   1.432   1.598 -0.0972  0.4448  0.6350
 2135TIP3    H127964   5.163   1.425   1.562  0.7776 -0.1484 -1.5079
 2135TIP3    H227965   5.291   1.505   1.551  0.2085  1.5509  2.4897
 2136TIP3   OH227966   3.446   1.071   0.342  0.0995  0.3807  0.1150
 2136TIP3    H127967   3.532   1.051   0.305 -0.4567 -0.6690 -0.6594
 2136TIP3    H227968   3.394   1.100   0.268 -0.8347 -1.1001  0.1428
 2137TIP3   OH227969   2.956   4.325   7.373 -0.1609 -0.4786 -0.0737
 2137TIP3    H127970   2.886   4.314   7.309 -1.8186 -0.0203  1.5655
 2137TIP3    H227971   2.973   4.237   7.406 -2.5655 -0.2683  2.0505
 2138TIP3   OH227972   1.108   0.419   7.905 -0.6743  0.0766 -0.3044
 2138TIP3    H127973   1.034   0.473   7.877 -0.2250 -0.3441 -2.4416
 2138TIP3    H227974   1.088   0.398   7.996 -2.4494  1.1779 -0.3777
 2139TIP3   OH227975   1.708   4.658   7.733 -0.1807  0.2995 -0.3254
 2139TIP3    H127976   1.769   4.732   7.737 -0.5214  0.5323  0.8715
 2139TIP3    H227977   1.630   4.689   7.779 -0.8394 -0.3414 -0.9973
 2140TIP3   OH227978   5.676   0.195   1.534  0.1066  0.0608  0.3666
 2140TIP3    H127979   5.657   0.283   1.501  1.0346  0.4828  0.9049
 2140TIP3    H227980   5.728   0.210   1.613 -2.6584 -0.8842  2.5374
 2141TIP3   OH227981   5.987   6.658   1.668  0.5282 -0.2242 -0.0772
 2141TIP3    H127982   5.943   6.707   1.599  0.1589 -1.1446 -0.5072
 2141TIP3    H227983   6.079   6.658   1.642  0.6818  0.9923  0.3965
 2142TIP3   OH227984   6.247   5.901   0.140 -0.1634 -0.5223 -0.0348
 2142TIP3    H127985   6.261   5.806   0.139  0.7374 -0.4228 -2.6002
 2142TIP3    H227986   6.318   5.934   0.196 -1.0771 -1.3752  1.7207
 2143TIP3   OH227987   4.024   1.901   6.782  0.5365  0.4202  0.1645
 2143TIP3    H127988   3.983   1.830   6.831  0.9741 -0.1816 -0.3188
 2143TIP3    H227989   4.118   1.892   6.802  1.0055 -1.0671 -2.2378
 2144TIP3   OH227990   2.755   4.342   1.625  0.1016  0.2165  0.0775
 2144TIP3    H127991   2.710   4.261   1.601  0.8801 -0.2943  0.2775
 2144TIP3    H227992   2.747   4.346   1.721 -1.0439  1.0616 -0.0372
 2145TIP3   OH227993   6.711   5.910   7.830 -0.5383 -0.5943 -0.1122
 2145TIP3    H127994   6.640   5.871   7.880 -1.4593  0.3900 -0.6323
 2145TIP3    H227995   6.668   5.962   7.762  0.6243 -2.3389 -2.3506
 2146TIP3   OH227996   3.484   5.747   7.662 -0.1704 -0.1440 -0.3511
 2146TIP3    H127997   3.561   5.719   7.613  0.6180  1.1353  0.1205
 2146TIP3    H227998   3.479   5.842   7.648 -1.7115 -0.2075 -0.4422
 2147TIP3   OH227999   5.161   0.525   7.690 -0.1686 -0.5261 -0.2658
 2147TIP3    H128000   5.186   0.594   7.752  0.8009  0.1766 -1.4175
 2147TIP3    H228001   5.188   0.443   7.733  1.3194  0.0114 -0.1262
 2148TIP3   OH228002   1.427   4.506   0.643  0.2427 -0.3129  0.0400
 2148TIP3    H128003   1.512   4.524   0.603  0.9843 -1.3723  1.0716
 2148TIP3    H228004   1.401   4.422   0.606 -0.4897  0.1059 -0.4337
 2149TIP3   OH228005   6.529   4.991   2.131 -0.0667  0.8549  0.5783
 2149TIP3    H128006   6.502   5.080   2.152 -0.1953  1.1180 -0.6010
 2149TIP3    H228007   6.623   4.998   2.115 -0.5602  1.5930 -3.0319
 2150TIP3   OH228008   2.720   3.954   0.821  0.4317  0.1188 -0.3133
 2150TIP3    H128009   2.679   3.930   0.903  0.6128 -2.2337 -0.8225
 2150TIP3    H228010   2.812   3.971   0.844 -0.0101  1.8755  0.2853
 2151TIP3   OH228011   5.624   0.125   1.209  0.0560 -0.3309  0.0137
 2151TIP3    H128012   5.661   0.197   1.260 -1.9117  0.4235  0.4796
 2151TIP3    H228013   5.534   0.153   1.189 -1.4131 -3.3253  1.6585
 2152TIP3   OH228014   1.740   3.440   6.764  0.0532 -0.1220 -0.4203
 2152TIP3    H128015   1.715   3.508   6.826 -0.4544  1.1813 -2.0051
 2152TIP3    H228016   1.833   3.455   6.748 -0.2381  0.7271 -1.3766
 2153TIP3   OH228017   0.613   2.750   7.929 -0.1143  0.6522  0.0551
 2153TIP3    H128018   0.519   2.746   7.914 -0.0659 -0.6565 -0.0824
 2153TIP3    H228019   0.622   2.731   8.023 -0.0606  2.3423  0.4123
 2154TIP3   OH228020   6.072   5.605   7.307  0.0543 -0.0699 -0.4141
 2154TIP3    H128021   6.124   5.526   7.294  1.5811  0.8570 -0.1267
 2154TIP3    H228022   6.041   5.628   7.219  0.6307 -0.3090 -0.6831
 2155TIP3   OH228023   1.671   5.576   8.115 -0.3293 -0.0769 -0.0856
 2155TIP3    H128024   1.687   5.670   8.122 -0.6773 -0.0958  1.0533
 2155TIP3    H228025   1.755   5.540   8.084  0.1872  0.4602  0.6552
 2156TIP3   OH228026   4.017   0.459   2.023 -0.0600  0.1146  0.6143
 2156TIP3    H128027   3.956   0.442   2.095  0.6539 -0.7963  1.0319
 2156TIP3    H228028   4.103   0.460   2.064  0.3310 -0.1068 -0.1799
 2157TIP3   OH228029   3.440   1.845   7.107  0.2752 -0.1199 -0.8821
 2157TIP3    H128030   3.379   1.814   7.174  3.3938  1.0767  2.8773
 2157TIP3    H228031   3.404   1.929   7.079 -0.2128  0.2597  0.7597
 2158TIP3   OH228032   2.514   2.813   0.909  0.9739  0.3066 -0.4711
 2158TIP3    H128033   2.575   2.743   0.932  2.2282  1.7564  0.9097
 2158TIP3    H228034   2.427   2.777   0.926  1.6758 -0.1571  2.6562
 2159TIP3   OH228035   6.035   1.979   1.266  0.0456 -0.5511 -0.1297
 2159TIP3    H128036   6.051   1.916   1.337  0.0421 -0.1375  0.2410
 2159TIP3    H228037   6.092   1.949   1.195  0.7669 -0.4198  0.3830
 2160TIP3   OH228038   3.494   2.431   8.689 -0.4108  0.2125  0.2980
 2160TIP3    H128039   3.465   2.399   8.604  2.1001 -0.9654 -0.1965
 2160TIP3    H228040   3.517   2.523   8.674  1.1898 -0.3013 -0.6822
 2161TIP3   OH228041   5.987   6.847   6.641  0.0878 -0.0036 -0.2051
 2161TIP3    H128042   5.997   6.778   6.575  3.2216  0.6821 -0.6035
 2161TIP3    H228043   5.995   6.928   6.591  0.1244  0.5717  0.7233
 2162TIP3   OH228044   4.344   0.818   8.620  0.1013 -0.1958 -0.4720
 2162TIP3    H128045   4.435   0.828   8.648  0.1706 -0.1331 -0.7147
 2162TIP3    H228046   4.344   0.848   8.529 -0.3197  0.5363 -0.2376
 2163TIP3   OH228047   4.927   4.883   8.047  0.1394 -0.1418  0.1867
 2163TIP3    H128048   4.867   4.923   7.984  0.5093  0.1183 -0.0002
 2163TIP3    H228049   4.977   4.956   8.083  0.1230 -0.3207  0.5807
 2164TIP3   OH228050   6.293   2.693   0.003 -0.4604 -0.9278 -0.2831
 2164TIP3    H128051   6.302   2.788   0.005  0.8507 -0.9277 -2.4108
 2164TIP3    H228052   6.221   2.674   0.062 -1.1653  1.4386 -0.2813
 2165TIP3   OH228053   3.618   4.062   1.325  0.2185 -0.2830 -0.4187
 2165TIP3    H128054   3.675   4.014   1.385 -0.8844 -2.6113 -1.1083
 2165TIP3    H228055   3.661   4.147   1.314  2.3539 -1.1218  0.7999
 2166TIP3   OH228056   0.961   2.142   7.832 -0.7040 -0.1946  0.4298
 2166TIP3    H128057   0.916   2.083   7.892  0.9147 -2.1799 -0.2073
 2166TIP3    H228058   1.042   2.096   7.809 -0.6785  1.0333 -2.3104
 2167TIP3   OH228059   3.907   1.713   8.319 -0.3625  0.0479  0.5620
 2167TIP3    H128060   3.911   1.621   8.294 -1.4749 -0.2463  1.3746
 2167TIP3    H228061   3.964   1.720   8.396  0.5726  0.2862 -0.1327
 2168TIP3   OH228062   1.113   4.727   8.375  0.6910 -0.4529  0.4615
 2168TIP3    H128063   1.139   4.637   8.391 -0.8405 -0.6859  1.8975
 2168TIP3    H228064   1.019   4.723   8.359  1.0213  0.5998 -2.3953
 2169TIP3   OH228065   6.663   0.326   6.469 -0.1753 -0.2641 -0.5177
 2169TIP3    H128066   6.738   0.279   6.504  0.6738  1.1178 -0.4127
 2169TIP3    H228067   6.690   0.418   6.468 -1.0754  0.0356 -2.4618
 2170TIP3   OH228068   3.897   5.010   2.598 -0.1826  0.1203  0.0727
 2170TIP3    H128069   3.819   4.959   2.576 -1.1051  0.3787  2.3816
 2170TIP3    H228070   3.865   5.101   2.604  0.7325  0.5146 -0.8641
 2171TIP3   OH228071   0.777   6.264   2.454 -0.1986  0.0337 -0.1567
 2171TIP3    H128072   0.780   6.319   2.532 -1.4221 -0.4383  0.2519
 2171TIP3    H228073   0.818   6.317   2.386 -0.7623  1.2088  0.3738
 2172TIP3   OH228074   3.034   4.407   0.435  0.0218 -0.2468 -0.2002
 2172TIP3    H128075   3.038   4.340   0.367 -0.3940  0.1340 -0.6094
 2172TIP3    H228076   2.940   4.422   0.448  0.0958 -0.2476  0.3983
 2173TIP3   OH228077   5.647   2.273   2.365 -0.0532  0.4699 -0.0134
 2173TIP3    H128078   5.603   2.275   2.281  2.2235 -0.1709 -1.3279
 2173TIP3    H228079   5.724   2.329   2.354 -0.5765  1.7610  2.2366
 2174TIP3   OH228080   1.461   6.112   7.474 -0.0420  0.2296  0.0048
 2174TIP3    H128081   1.544   6.092   7.517 -0.1853 -0.1723  0.0958
 2174TIP3    H228082   1.432   6.193   7.516  1.0628  1.2284 -1.1102
 2175TIP3   OH228083   6.322   1.780   1.301  0.1365 -0.4241 -0.3067
 2175TIP3    H128084   6.365   1.842   1.360  0.4795 -0.7798 -0.1777
 2175TIP3    H228085   6.391   1.753   1.240 -0.7408  1.7144 -2.4031
 2176TIP3   OH228086   4.782   3.474   8.134 -0.5015  0.0209  0.3378
 2176TIP3    H128087   4.817   3.556   8.167  2.2985 -0.4628 -1.1604
 2176TIP3    H228088   4.791   3.412   8.206  0.9950  0.1438  0.2847
 2177TIP3   OH228089   1.212   2.774   0.809  0.1747 -0.8289  0.2412
 2177TIP3    H128090   1.287   2.800   0.755  0.0696 -1.1751 -0.0761
 2177TIP3    H228091   1.158   2.722   0.751 -0.9217  0.4029  0.1219
 2178TIP3   OH228092   5.516   1.620   7.950  0.0553  0.7182 -0.1520
 2178TIP3    H128093   5.610   1.621   7.963  0.0726  1.6236 -0.2466
 2178TIP3    H228094   5.482   1.683   8.014 -0.5300  0.0893  0.1719
 2179TIP3   OH228095   4.374   4.238   0.608  0.3788 -0.1438 -0.2257
 2179TIP3    H128096   4.449   4.183   0.630  1.3542  0.9594 -0.6701
 2179TIP3    H228097   4.299   4.179   0.611  1.2958 -1.3336 -0.0126
 2180TIP3   OH228098   3.142   1.197   1.549  0.9227 -0.2340  0.1920
 2180TIP3    H128099   3.188   1.249   1.483  0.0205 -0.4486 -0.6175
 2180TIP3    H228100   3.211   1.148   1.593  1.6533  0.6939  0.1243
 2181TIP3   OH228101   0.600   1.784   6.810  0.1744 -0.2799  0.6263
 2181TIP3    H128102   0.619   1.791   6.717  0.6478  0.2005  0.7496
 2181TIP3    H228103   0.677   1.742   6.847 -1.6072 -4.2687  0.2693
 2182TIP3   OH228104   2.580   4.810   1.220  0.4572 -0.2769 -0.0057
 2182TIP3    H128105   2.654   4.757   1.249  0.2072 -1.9138 -2.1246
 2182TIP3    H228106   2.511   4.747   1.201 -1.3423  1.1699  1.3328
 2183TIP3   OH228107   0.481   3.733   0.963  0.2396 -0.2691  0.0798
 2183TIP3    H128108   0.504   3.678   1.039 -2.0428 -2.0145 -0.3655
 2183TIP3    H228109   0.546   3.710   0.897 -0.9997 -3.1657 -0.3315
 2184TIP3   OH228110   0.104   5.364   2.122 -0.2068  0.4123 -0.4698
 2184TIP3    H128111   0.030   5.344   2.064 -0.1865 -0.1830 -0.2967
 2184TIP3    H228112   0.092   5.306   2.197  1.0196 -0.4764 -0.9294
 2185TIP3   OH228113   1.726   4.335   1.376 -0.0017 -0.4655  0.0687
 2185TIP3    H128114   1.803   4.357   1.324 -0.6682 -0.3628 -0.9056
 2185TIP3    H228115   1.699   4.248   1.346 -1.2385  0.1947 -0.8176
 2186TIP3   OH228116   6.597   3.380   7.362 -0.1182 -0.2463 -0.4835
 2186TIP3    H128117   6.593   3.431   7.281  3.7150 -0.3618 -0.9524
 2186TIP3    H228118   6.637   3.297   7.336 -1.3026 -1.3910  1.1563
 2187TIP3   OH228119   3.263   5.344   0.339 -0.1073 -0.1506  0.0134
 2187TIP3    H128120   3.236   5.399   0.412  1.4393  0.8887 -0.1471
 2187TIP3    H228121   3.196   5.358   0.272 -1.5580 -1.1316  1.1920
 2188TIP3   OH228122   2.722   2.593   8.689  0.6392  0.4957 -0.1223
 2188TIP3    H128123   2.700   2.643   8.767  1.3889  0.5657  0.0604
 2188TIP3    H228124   2.788   2.531   8.719 -0.6149 -0.9436 -0.2475
 2189TIP3   OH228125   6.232   5.767   1.705  0.0830  0.0613 -0.5901
 2189TIP3    H128126   6.277   5.772   1.790  1.0795 -0.3645 -1.0703
 2189TIP3    H228127   6.141   5.786   1.725  0.6351  2.1592  0.2551
 2190TIP3   OH228128   2.036   2.954   8.358  0.3772  0.0211 -0.6415
 2190TIP3    H128129   2.016   2.967   8.451  1.3882  2.5996 -0.7078
 2190TIP3    H228130   1.972   3.009   8.312  1.1855  0.4021 -1.3374
 2191TIP3   OH228131   2.840   6.745   2.251 -0.3226 -0.6467  0.0413
 2191TIP3    H128132   2.778   6.719   2.320 -0.5628 -2.2892 -0.7472
 2191TIP3    H228133   2.901   6.672   2.246  0.3515 -0.0411 -0.7475
 2192TIP3   OH228134   5.233   2.688   0.967  0.4434 -0.0208  0.4039
 2192TIP3    H128135   5.235   2.640   1.050 -0.9489 -1.2784 -0.2522
 2192TIP3    H228136   5.245   2.621   0.900  0.0224  0.7669 -0.4780
 2193TIP3   OH228137   4.343   4.652   2.769  0.0139 -0.0709  0.7830
 2193TIP3    H128138   4.434   4.636   2.742 -0.6408 -0.7815 -1.1644
 2193TIP3    H228139   4.342   4.744   2.796  0.8347  0.7373 -1.6122
 2194TIP3   OH228140   0.860   2.595   0.740 -0.3568  0.2994  0.3158
 2194TIP3    H128141   0.913   2.651   0.684 -0.1861  0.0398  0.2176
 2194TIP3    H228142   0.829   2.525   0.683 -0.2619  0.0868  0.5246
 2195TIP3   OH228143   4.173   3.058   1.473  0.2880  0.6463 -0.2580
 2195TIP3    H128144   4.236   3.021   1.534 -2.3152 -0.8250  1.7615
 2195TIP3    H228145   4.203   3.028   1.387  2.1701 -0.1333  0.6090
 2196TIP3   OH228146   0.260   6.249   7.845  0.1788 -0.2213 -0.2187
 2196TIP3    H128147   0.287   6.157   7.847  2.3427  0.2343 -2.6815
 2196TIP3    H228148   0.203   6.255   7.768 -1.3434  0.2355  0.8975
 2197TIP3   OH228149   5.370   0.299   2.815 -0.0716 -0.1886  0.1121
 2197TIP3    H128150   5.375   0.319   2.722 -1.1235 -2.2285 -0.4561
 2197TIP3    H228151   5.449   0.337   2.852  1.0097 -0.4084 -1.8457
 2198TIP3   OH228152   3.006   1.230   7.394 -0.4684 -0.1717 -0.8407
 2198TIP3    H128153   3.002   1.289   7.319 -0.8039  2.0868  0.8239
 2198TIP3    H228154   2.917   1.198   7.404 -0.8455  0.9385 -0.4171
 2199TIP3   OH228155   2.964   1.770   1.990  0.1479  0.2233  0.1499
 2199TIP3    H128156   2.876   1.735   1.980 -0.3088  1.8098 -2.0433
 2199TIP3    H228157   2.991   1.743   2.078 -2.4580 -0.4140  0.8192
 2200TIP3   OH228158   4.498   1.086   7.244  0.0274  0.0670  0.0797
 2200TIP3    H128159   4.460   1.025   7.181  0.2983 -1.3747  1.2470
 2200TIP3    H228160   4.586   1.103   7.212  0.9723 -2.3762  1.0863
 2201TIP3   OH228161   6.624   5.938   8.711  0.2641 -0.0119  0.7532
 2201TIP3    H128162   6.601   5.918   8.802  0.2062  0.4330  0.8424
 2201TIP3    H228163   6.708   5.895   8.697 -1.3014 -3.0208 -0.0757
 2202TIP3   OH228164   1.656   0.629   7.206 -0.1236 -0.5577 -0.6604
 2202TIP3    H128165   1.665   0.642   7.300 -2.3391 -0.9630 -0.3451
 2202TIP3    H228166   1.690   0.541   7.190 -0.4449 -0.7886 -0.0951
 2203TIP3   OH228167   1.073   5.254   8.258 -0.0113  0.0744 -0.5406
 2203TIP3    H128168   1.001   5.311   8.285 -0.0775 -0.1337 -0.2787
 2203TIP3    H228169   1.034   5.167   8.252  0.2286 -0.0495 -0.3432
 2204TIP3   OH228170   3.094   3.815   0.645 -0.0989  0.3721  0.1799
 2204TIP3    H128171   3.142   3.732   0.654  0.6620  0.7729 -0.0197
 2204TIP3    H228172   3.095   3.854   0.732 -0.8622 -0.0379  0.3764
 2205TIP3   OH228173   3.372   1.141   0.061  0.0772 -0.8032 -0.0006
 2205TIP3    H128174   3.375   1.210  -0.005 -0.2749 -0.8383 -0.0588
 2205TIP3    H228175   3.306   1.170   0.124  0.5163 -0.7048  0.4143
 2206TIP3   OH228176   6.536   0.726   6.092  0.0093 -0.2247  0.1554
 2206TIP3    H128177   6.494   0.808   6.065 -1.3400 -0.2325  1.9977
 2206TIP3    H228178   6.614   0.754   6.139  0.3062 -0.0603 -0.4289
 2207TIP3   OH228179   2.019   1.111   7.248 -0.2104 -0.3290  0.3533
 2207TIP3    H128180   1.996   1.019   7.254  0.1445 -0.4065  0.5276
 2207TIP3    H228181   2.115   1.112   7.243 -0.1270  0.0891  1.6629
 2208TIP3   OH228182   2.891   5.944   1.022 -0.1240 -0.2858  0.2302
 2208TIP3    H128183   2.846   5.860   1.015  0.1871 -0.3329 -1.9863
 2208TIP3    H228184   2.954   5.943   0.950  1.2407  1.0770  1.3296
 2209TIP3   OH228185   0.584   1.534   0.406 -0.0033 -0.3087 -0.2001
 2209TIP3    H128186   0.636   1.486   0.342 -1.1591 -1.3481 -0.3761
 2209TIP3    H228187   0.514   1.574   0.355 -1.1625 -1.4702  0.4382
 2210TIP3   OH228188   2.984   3.855   0.030 -1.0629  0.5893  0.0006
 2210TIP3    H128189   3.044   3.923   0.002 -1.4191  1.4437  1.2397
 2210TIP3    H228190   2.898   3.885   0.001 -1.0069 -0.2853 -1.1409
 2211TIP3   OH228191   2.255   6.474   0.522  0.4168  0.1977 -0.0814
 2211TIP3    H128192   2.332   6.440   0.566  0.3157 -0.0797 -0.1168
 2211TIP3    H228193   2.197   6.398   0.514 -0.1067  0.5287  0.4826
 2212TIP3   OH228194   2.168   3.663   2.343 -0.0244  0.6075 -0.4999
 2212TIP3    H128195   2.260   3.690   2.345  0.2754 -0.2831 -1.4835
 2212TIP3    H228196   2.163   3.599   2.272 -0.9751 -0.8564  0.8045
 2213TIP3   OH228197   5.677   4.987   6.963 -0.1376 -0.4815  0.0212
 2213TIP3    H128198   5.655   4.991   7.056  1.2139 -2.4989  0.5078
 2213TIP3    H228199   5.748   5.051   6.952  1.3554 -1.8732  0.9840
 2214TIP3   OH228200   3.716   5.525   0.229 -0.7389  0.1836  0.3866
 2214TIP3    H128201   3.759   5.515   0.314  0.4243 -2.8234 -0.4174
 2214TIP3    H228202   3.636   5.573   0.248  0.8538  2.1763  2.6750
 2215TIP3   OH228203   5.630   1.216   1.209 -0.2413  0.1209  0.0118
 2215TIP3    H128204   5.555   1.239   1.264 -1.5431 -0.0563 -1.5964
 2215TIP3    H228205   5.703   1.207   1.270 -1.4340  0.6970  1.5935
 2216TIP3   OH228206   0.115   0.674   8.627 -0.1238 -0.0252  0.0227
 2216TIP3    H128207   0.029   0.697   8.591  0.0293 -0.0145 -0.3465
 2216TIP3    H228208   0.099   0.659   8.720 -0.5382 -0.1013 -0.0584
 2217TIP3   OH228209   1.392   2.163   0.908  0.3099 -0.2281  0.1530
 2217TIP3    H128210   1.467   2.103   0.902  0.5665  0.0198  0.7104
 2217TIP3    H228211   1.431   2.245   0.940 -0.0718  0.1662 -0.3810
 2218TIP3   OH228212   2.856   2.168   8.676  0.2516  0.4659  0.4517
 2218TIP3    H128213   2.899   2.233   8.731  2.6955 -2.7358  2.7956
 2218TIP3    H228214   2.800   2.119   8.737 -1.2283  0.1105 -1.1265
 2219TIP3   OH228215   6.292   5.638   1.018  0.5098 -0.1432 -0.6460
 2219TIP3    H128216   6.243   5.578   0.963  0.2541  0.2692 -0.8667
 2219TIP3    H228217   6.272   5.725   0.984  0.2516  0.1260  0.1638
 2220TIP3   OH228218   5.955   4.842   7.491  0.1651  0.5786 -0.0789
 2220TIP3    H128219   5.984   4.827   7.400  1.3076 -1.7396  0.5850
 2220TIP3    H228220   5.889   4.774   7.506 -0.0679  0.9983  0.8244
 2221TIP3   OH228221   5.692   2.628   7.539  0.0897  1.0357  0.1420
 2221TIP3    H128222   5.659   2.546   7.575 -1.2990  1.3366 -0.3794
 2221TIP3    H228223   5.703   2.685   7.615 -1.0304  1.0637  0.2958
 2222TIP3   OH228224   3.573   0.944   0.731  0.3618 -0.2620  0.0005
 2222TIP3    H128225   3.621   0.968   0.651  0.1542  0.7987  0.1846
 2222TIP3    H228226   3.579   0.848   0.734 -0.1584 -0.3762 -1.6221
 2223TIP3   OH228227   6.654   3.122   7.269 -0.0872 -0.2586  0.0122
 2223TIP3    H128228   6.561   3.119   7.244  0.1208  0.9121 -1.0060
 2223TIP3    H228229   6.661   3.060   7.341 -1.4069 -1.3154 -0.7110
 2224TIP3   OH228230   0.108   3.098   1.021  1.0352  0.4723  0.1281
 2224TIP3    H128231   0.073   3.025   1.072 -0.3329  1.4030  0.5541
 2224TIP3    H228232   0.031   3.143   0.987  1.8779  0.2253 -2.3496
 2225TIP3   OH228233   0.474   3.423   0.781  0.1088  0.4311 -0.3551
 2225TIP3    H128234   0.458   3.501   0.729  2.1586  0.5164 -0.9535
 2225TIP3    H228235   0.562   3.395   0.756  0.1549 -0.9987  1.2066
 2226TIP3   OH228236   0.222   0.997   0.490  0.3691  0.6585 -0.1905
 2226TIP3    H128237   0.162   1.063   0.454  1.1265  1.3988 -0.1135
 2226TIP3    H228238   0.188   0.980   0.578  0.1586  0.9336 -0.2161
 2227TIP3   OH228239   0.668   1.291   6.183 -0.6620  0.5799  0.1407
 2227TIP3    H128240   0.622   1.240   6.250 -3.1331  2.8997  0.3724
 2227TIP3    H228241   0.615   1.280   6.104  0.6315  0.1993 -0.7106
 2228TIP3   OH228242   4.001   4.053   8.571 -0.3003 -0.5058 -0.3633
 2228TIP3    H128243   3.958   4.079   8.652  1.0695  0.0935  0.2023
 2228TIP3    H228244   3.942   4.082   8.501 -0.3634  1.2141  0.3511
 2229TIP3   OH228245   5.565   1.740   8.707 -0.1074 -0.1437  0.2970
 2229TIP3    H128246   5.567   1.830   8.676 -0.4938 -0.1354  0.2946
 2229TIP3    H228247   5.477   1.728   8.742 -0.0579 -0.5181  0.2994
 2230TIP3   OH228248   3.758   4.821   1.355  0.3232 -0.2343 -0.7144
 2230TIP3    H128249   3.751   4.743   1.300 -0.7638 -1.0610  0.5259
 2230TIP3    H228250   3.713   4.797   1.436 -2.1799  2.4833 -1.1349
 2231TIP3   OH228251   4.239   1.730   0.609 -0.1484  0.1351 -0.9219
 2231TIP3    H128252   4.216   1.672   0.681 -0.1709  0.9791 -0.2316
 2231TIP3    H228253   4.164   1.789   0.600  0.1674  0.5136 -1.1295
 2232TIP3   OH228254   0.474   4.168   1.789 -0.1063  0.0098 -0.4143
 2232TIP3    H128255   0.535   4.096   1.777  1.9835  1.6045  0.1648
 2232TIP3    H228256   0.528   4.247   1.791 -2.2621  1.6049 -0.7020
 2233TIP3   OH228257   2.631   6.063   1.839 -0.2368  0.5073 -0.4821
 2233TIP3    H128258   2.637   6.159   1.839  2.5178  0.5115  2.1914
 2233TIP3    H228259   2.699   6.035   1.901  0.5177 -3.2978 -2.7043
 2234TIP3   OH228260   2.059   4.545   1.963  0.6321  0.4961 -0.1652
 2234TIP3    H128261   2.042   4.626   1.914  2.0520  0.6068 -0.5264
 2234TIP3    H228262   2.147   4.557   1.999  0.3121 -0.3293  0.9401
 2235TIP3   OH228263   1.341   4.365   1.245  0.0208 -0.3096 -0.5368
 2235TIP3    H128264   1.343   4.422   1.323 -1.5858 -0.0818 -0.6278
 2235TIP3    H228265   1.373   4.281   1.276 -0.6906 -0.2467  0.4195
 2236TIP3   OH228266   2.308   0.821   0.180 -0.3377 -0.3438 -0.6363
 2236TIP3    H128267   2.257   0.753   0.223 -0.6205  1.0863  1.4512
 2236TIP3    H228268   2.317   0.791   0.090 -1.9857 -2.2438 -0.2384
 2237TIP3   OH228269   0.874   3.442   1.550 -0.5938  0.6240 -0.1705
 2237TIP3    H128270   0.914   3.416   1.467 -1.2550  1.3865 -0.7539
 2237TIP3    H228271   0.887   3.537   1.554  0.3857  0.4566  1.1367
 2238TIP3   OH228272   1.446   5.683   0.729  0.2699 -0.2553 -0.1863
 2238TIP3    H128273   1.363   5.653   0.765 -0.0694  0.8429 -0.0050
 2238TIP3    H228274   1.506   5.686   0.804  0.2493 -0.3092 -0.1686
 2239TIP3   OH228275   2.071   0.042   7.089  0.3607 -0.4513  0.2021
 2239TIP3    H128276   2.038  -0.046   7.110 -0.2116 -0.1016  0.8034
 2239TIP3    H228277   2.055   0.052   6.995  0.7696 -1.1301  0.0522
 2240TIP3   OH228278   1.163   1.027   8.063  0.0294  0.0445  0.0211
 2240TIP3    H128279   1.248   1.063   8.091 -0.1602  0.7418 -0.2766
 2240TIP3    H228280   1.186   0.948   8.015  0.5084  0.1424  0.0756
 2241TIP3   OH228281   0.888   1.388   6.709 -0.1082 -0.7896  0.3440
 2241TIP3    H128282   0.885   1.293   6.699 -1.4240 -0.9313  1.7767
 2241TIP3    H228283   0.825   1.421   6.645  1.0363 -0.7831 -0.8226
 2242TIP3   OH228284   1.642   6.090   7.231 -0.6996 -0.1162 -0.5055
 2242TIP3    H128285   1.731   6.103   7.198  0.0394  0.8276  1.6888
 2242TIP3    H228286   1.641   6.134   7.316 -2.9425 -1.0694  0.0401
 2243TIP3   OH228287   6.374   4.572   7.895  0.2949  0.3068 -0.5145
 2243TIP3    H128288   6.445   4.627   7.928 -0.3500  0.7771  0.1322
 2243TIP3    H228289   6.332   4.625   7.827  1.2687 -0.4364 -1.7402
 2244TIP3   OH228290   1.352   3.346   1.266  0.5060  0.6294 -0.3806
 2244TIP3    H128291   1.315   3.388   1.188 -3.9201 -0.5440  0.7690
 2244TIP3    H228292   1.402   3.415   1.309 -0.4121  2.5208 -2.1769
 2245TIP3   OH228293   4.885   2.221   8.361 -0.1716 -0.0307  0.0414
 2245TIP3    H128294   4.820   2.251   8.297 -1.2875 -1.2832  0.5496
 2245TIP3    H228295   4.875   2.280   8.436 -0.7919 -0.2785  0.1556
 2246TIP3   OH228296   5.040   6.708   6.923  0.1320  0.4346  0.1563
 2246TIP3    H128297   4.974   6.757   6.971 -0.9037  0.1964 -0.9903
 2246TIP3    H228298   5.072   6.768   6.856  0.2524  0.1736 -0.0258
 2247TIP3   OH228299   0.097   0.199   7.649 -0.0952 -0.7681 -0.3080
 2247TIP3    H128300   0.081   0.138   7.721 -0.0054 -1.3869 -0.7944
 2247TIP3    H228301   0.013   0.205   7.603 -1.2792  2.5021  1.9080
 2248TIP3   OH228302   0.677   0.664   1.442  0.9252  0.1835  0.1865
 2248TIP3    H128303   0.624   0.700   1.371 -0.5467 -0.0306  1.1304
 2248TIP3    H228304   0.767   0.691   1.422  0.2291  2.1374 -0.4986
 2249TIP3   OH228305   5.635   1.774   7.635  0.2588  0.5369  0.1910
 2249TIP3    H128306   5.724   1.808   7.627  0.2764  0.2825 -0.7739
 2249TIP3    H228307   5.644   1.679   7.630  0.1042  0.3916  1.9190
 2250TIP3   OH228308   1.189   3.673   1.553  0.0652 -0.2083  0.3505
 2250TIP3    H128309   1.132   3.730   1.604  0.3711 -0.5401  1.0787
 2250TIP3    H228310   1.202   3.719   1.471 -0.1536  0.5002  0.7055
 2251TIP3   OH228311   6.740   1.876   1.160 -0.5034 -0.3150  0.4308
 2251TIP3    H128312   6.681   1.808   1.129 -1.1659  0.3968  0.0800
 2251TIP3    H228313   6.744   1.938   1.087 -0.7114  0.5212  1.1113
 2252TIP3   OH228314   1.504   1.700   1.674  0.0578  0.2720  0.6464
 2252TIP3    H128315   1.487   1.783   1.718 -1.8346 -0.3167  1.0909
 2252TIP3    H228316   1.541   1.644   1.742 -1.1591 -0.0618  1.0553
 2253TIP3   OH228317   0.128   2.273   2.042 -0.1046  0.4210  0.1112
 2253TIP3    H128318   0.138   2.215   1.967 -0.8210 -1.7130  1.5925
 2253TIP3    H228319   0.066   2.340   2.013 -0.9413 -0.7845 -0.9506
 2254TIP3   OH228320   4.077   4.715   0.442 -0.3213 -0.1044 -0.3274
 2254TIP3    H128321   4.017   4.702   0.515 -0.4810 -1.2100 -0.6338
 2254TIP3    H228322   4.072   4.808   0.422 -1.1814 -0.0122  0.2884
 2255TIP3   OH228323   5.967   0.609   7.422 -0.1057 -0.5832 -0.0476
 2255TIP3    H128324   5.879   0.586   7.393 -0.9784 -0.0142  2.0098
 2255TIP3    H228325   5.959   0.699   7.454  1.5096 -0.0924 -0.9116
 2256TIP3   OH228326   1.619   5.069   8.575 -0.2276  0.3625  0.2237
 2256TIP3    H128327   1.529   5.068   8.542  0.0621 -0.4343 -0.6126
 2256TIP3    H228328   1.673   5.079   8.496  0.4403 -0.1879  0.5983
 2257TIP3   OH228329   2.059   0.432   6.875  0.3086 -0.2695 -0.0109
 2257TIP3    H128330   2.099   0.414   6.790  0.6828 -1.1293  0.3350
 2257TIP3    H228331   2.115   0.387   6.938 -0.2509 -0.0671  0.6437
 2258TIP3   OH228332   6.166   0.592   0.106  0.0149 -0.6195 -0.0240
 2258TIP3    H128333   6.218   0.514   0.088  0.5270 -0.8157  2.0502
 2258TIP3    H228334   6.077   0.558   0.121 -0.5212 -0.4125 -2.2520
 2259TIP3   OH228335   4.713   6.521   7.847 -0.5154 -0.3985  0.0174
 2259TIP3    H128336   4.749   6.441   7.885  0.0413 -1.0432 -1.7429
 2259TIP3    H228337   4.760   6.592   7.890  0.6547 -1.1202 -0.0205
 2260TIP3   OH228338   2.467   1.120   6.761  0.0187 -0.2035 -0.5189
 2260TIP3    H128339   2.527   1.081   6.697 -0.1185  0.2650 -0.9387
 2260TIP3    H228340   2.525   1.154   6.830  0.0720 -2.6266  0.7346
 2261TIP3   OH228341   3.510   2.421   1.243  0.7229 -0.3587  0.1350
 2261TIP3    H128342   3.563   2.350   1.280  2.1777  0.1272 -0.9579
 2261TIP3    H228343   3.532   2.422   1.150 -0.5918  0.4201 -0.2027
 2262TIP3   OH228344   6.723   5.008   6.964 -0.2417  0.6116  0.3287
 2262TIP3    H128345   6.737   4.967   6.878  1.3618  1.5540  0.0993
 2262TIP3    H228346   6.712   5.101   6.944 -0.2048  0.7891  1.1151
 2263TIP3   OH228347   6.479   1.774   1.926  0.2551  0.2370  0.2517
 2263TIP3    H128348   6.447   1.771   2.016 -0.0788 -2.0336  0.1218
 2263TIP3    H228349   6.537   1.698   1.919  0.0775  0.2207 -1.5230
 2264TIP3   OH228350   1.478   2.186   7.544 -0.2203 -0.2267  0.1020
 2264TIP3    H128351   1.446   2.187   7.453 -0.7679  1.3379  0.2744
 2264TIP3    H228352   1.480   2.094   7.568 -1.0820 -0.5993 -1.1595
 2265TIP3   OH228353   0.449   1.152   7.494 -0.2729  0.8315  0.1436
 2265TIP3    H128354   0.480   1.231   7.451 -0.9919  1.1326  0.1635
 2265TIP3    H228355   0.498   1.081   7.453  0.2102  1.2634 -0.0361
 2266TIP3   OH228356   6.222   5.424   1.219 -0.3322  0.6207 -0.3363
 2266TIP3    H128357   6.301   5.371   1.214 -0.0825  0.9768 -0.2638
 2266TIP3    H228358   6.233   5.489   1.150 -0.2419  1.0903  0.1117
 2267TIP3   OH228359   2.259   5.329   6.862  0.5798  0.2198  0.1299
 2267TIP3    H128360   2.218   5.356   6.781  0.1485  0.2202  0.3438
 2267TIP3    H228361   2.242   5.400   6.924  1.7469  0.6735 -0.0354
 2268TIP3   OH228362   4.376   3.259   2.128 -0.2692  0.1297 -0.2124
 2268TIP3    H128363   4.457   3.305   2.106 -0.8369  1.9712  1.2424
 2268TIP3    H228364   4.374   3.260   2.224 -1.4575 -0.8938 -0.2056
 2269TIP3   OH228365   2.339   5.812   0.819  0.2236  0.7381  0.2653
 2269TIP3    H128366   2.250   5.792   0.789  0.5810  1.2302 -1.2022
 2269TIP3    H228367   2.395   5.754   0.767  0.7731  0.3856  1.2286
 2270TIP3   OH228368   2.294   2.876   8.304 -0.0022 -0.1281  0.1287
 2270TIP3    H128369   2.215   2.920   8.334  1.0676 -0.3082  3.7024
 2270TIP3    H228370   2.355   2.948   8.283 -0.5043  0.0073 -0.9193
 2271TIP3   OH228371   2.426   3.416   0.837  0.0692  0.6047 -0.0014
 2271TIP3    H128372   2.337   3.399   0.867 -0.3339  2.1380 -0.2576
 2271TIP3    H228373   2.481   3.363   0.894 -0.8139  1.8240  2.0770
 2272TIP3   OH228374   2.664   2.550   7.765  0.4558  0.1182 -0.5294
 2272TIP3    H128375   2.589   2.503   7.802 -0.1885  2.0041  0.7261
 2272TIP3    H228376   2.634   2.580   7.680  0.2436 -0.2388 -0.5801
 2273TIP3   OH228377   5.421   3.567   1.877 -0.3576  0.7251  0.3960
 2273TIP3    H128378   5.425   3.489   1.821 -1.0616  1.2700 -0.4408
 2273TIP3    H228379   5.428   3.640   1.816  0.6546  1.3397  1.2015
 2274TIP3   OH228380   6.391   0.586   2.172  0.5831 -0.1203  0.3431
 2274TIP3    H128381   6.391   0.667   2.222  0.3192  0.7939 -1.0665
 2274TIP3    H228382   6.476   0.545   2.192 -0.2163 -0.7132  2.8543
 2275TIP3   OH228383   5.281   1.639   1.770  0.9509 -0.2033  0.5248
 2275TIP3    H128384   5.261   1.548   1.749  3.1443 -1.0623  1.7078
 2275TIP3    H228385   5.301   1.637   1.864  2.4685  1.1871  0.2710
 2276TIP3   OH228386   5.254   0.310   7.829 -0.3513 -0.2603 -0.4688
 2276TIP3    H128387   5.345   0.324   7.857 -0.4896  1.3580 -0.7313
 2276TIP3    H228388   5.256   0.226   7.783  0.8507 -0.6282  0.1966
 2277TIP3   OH228389   6.340   5.215   7.937 -0.8241 -0.1221  0.4945
 2277TIP3    H128390   6.332   5.138   7.880  0.5509  0.0423  0.0510
 2277TIP3    H228391   6.250   5.236   7.961 -1.3913 -0.5897 -1.0954
 2278TIP3   OH228392   6.315   1.584   7.869  0.1373  0.0660 -0.2533
 2278TIP3    H128393   6.318   1.489   7.857  1.9621  0.1431 -0.6752
 2278TIP3    H228394   6.345   1.597   7.959  0.7046  0.2813 -0.4727
 2279TIP3   OH228395   4.136   0.297   1.056  0.4003  0.0151  0.3724
 2279TIP3    H128396   4.073   0.265   1.120  1.6788  0.4674  1.9110
 2279TIP3    H228397   4.122   0.242   0.979 -3.0811  1.2480 -0.0593
 2280TIP3   OH228398   3.704   4.819   0.829 -0.2720  0.0354 -0.5586
 2280TIP3    H128399   3.704   4.912   0.805 -0.4509  0.0057 -0.6773
 2280TIP3    H228400   3.613   4.792   0.817 -0.1861 -0.1949 -0.6823
 2281TIP3   OH228401   2.757   3.897   6.863  0.0984 -0.2567 -0.4047
 2281TIP3    H128402   2.704   3.821   6.887  1.0513 -0.7118  0.3261
 2281TIP3    H228403   2.694   3.969   6.859 -0.9108 -1.1690 -1.6683
 2282TIP3   OH228404   5.996   4.548   6.638  1.1748 -0.0370 -0.2568
 2282TIP3    H128405   5.920   4.508   6.595  1.0249 -1.8820  1.5482
 2282TIP3    H228406   5.962   4.628   6.678  0.1957 -0.7257  0.3364
 2283TIP3   OH228407   0.623   6.436   7.524 -0.2025 -0.7800 -0.3159
 2283TIP3    H128408   0.561   6.404   7.458 -1.1527 -1.3889  0.8226
 2283TIP3    H228409   0.572   6.499   7.575  0.8062  0.4105 -0.7372
 2284TIP3   OH228410   1.786   2.874   8.047 -0.2465 -0.3158 -0.4805
 2284TIP3    H128411   1.747   2.861   7.961 -0.7021  0.6665 -0.4372
 2284TIP3    H228412   1.879   2.855   8.035 -0.7212 -3.1424 -0.4926
 2285TIP3   OH228413   6.409   5.247   1.094 -0.0454  0.7415  0.2250
 2285TIP3    H128414   6.447   5.281   1.013  1.8951  0.5694  1.0109
 2285TIP3    H228415   6.389   5.156   1.075  0.4233  0.6940 -0.0496
 2286TIP3   OH228416   3.023   2.651   0.559 -0.1037  0.5064  0.1027
 2286TIP3    H128417   2.979   2.580   0.514  0.5833 -0.2381  0.5857
 2286TIP3    H228418   3.095   2.675   0.502 -0.3322  0.8160 -0.0582
 2287TIP3   OH228419   6.587   4.432   1.003 -0.3440  0.2951  0.0834
 2287TIP3    H128420   6.544   4.351   0.974  0.4317 -0.0006 -0.2715
 2287TIP3    H228421   6.670   4.433   0.956 -0.0853  1.0024  0.5411
 2288TIP3   OH228422   1.504   3.900   7.675 -0.2468 -0.6226 -0.0751
 2288TIP3    H128423   1.425   3.953   7.667  0.6845  0.7927 -0.1676
 2288TIP3    H228424   1.481   3.832   7.738 -1.6739 -0.5197 -0.4438
 2289TIP3   OH228425   4.865   0.647   8.607 -0.3381  0.4763  0.0649
 2289TIP3    H128426   4.937   0.637   8.545  0.3864  2.5149  0.4931
 2289TIP3    H228427   4.812   0.569   8.595  0.0721  0.5217 -2.7187
 2290TIP3   OH228428   1.112   4.067   0.439  0.2705 -0.6689  0.2434
 2290TIP3    H128429   1.053   4.102   0.505  1.0777 -1.1563  1.2388
 2290TIP3    H228430   1.057   4.011   0.384 -0.5618  0.3444 -0.0009
 2291TIP3   OH228431   0.135   5.156   0.071  0.3927  0.0671  0.1482
 2291TIP3    H128432   0.202   5.134   0.006  1.7833  0.3629  1.4156
 2291TIP3    H228433   0.129   5.078   0.126  0.4599  0.4145  0.6568
 2292TIP3   OH228434   2.986   4.467   8.501  0.9595  0.0999  0.0215
 2292TIP3    H128435   2.913   4.523   8.472  1.0447 -0.3897 -1.2102
 2292TIP3    H228436   3.010   4.502   8.587 -2.0348 -0.9883  1.4392
 2293TIP3   OH228437   3.682   2.080   0.490 -0.3974  0.4266  0.0426
 2293TIP3    H128438   3.636   2.158   0.521 -0.5012  0.3510  0.0775
 2293TIP3    H228439   3.775   2.103   0.499 -0.4227  0.2906  0.7054
 2294TIP3   OH228440   1.516   4.665   1.696  0.5657  0.2864 -0.4761
 2294TIP3    H128441   1.527   4.640   1.605 -1.0824 -1.2503 -0.2879
 2294TIP3    H228442   1.426   4.695   1.703  0.9340  1.2600  0.4813
 2295TIP3   OH228443   1.197   5.815   6.072 -0.0008 -0.5106  0.0269
 2295TIP3    H128444   1.112   5.796   6.113  0.9004  0.4470  2.4798
 2295TIP3    H228445   1.260   5.812   6.144  1.8729  0.1522 -1.5042
 2296TIP3   OH228446   3.283   4.207   2.788 -0.0499  0.1556  0.0159
 2296TIP3    H128447   3.310   4.117   2.809 -0.8307 -0.7102 -2.3461
 2296TIP3    H228448   3.363   4.249   2.758  0.2736  0.2038  0.9136
 2297TIP3   OH228449   1.981   1.315   1.907  0.5077  0.5732 -0.4690
 2297TIP3    H128450   1.970   1.353   1.820  1.8062  1.4270 -0.2750
 2297TIP3    H228451   2.045   1.245   1.895  0.6398  0.6474 -0.2058
 2298TIP3   OH228452   4.943   2.461   8.592  0.3296 -0.3061  0.0810
 2298TIP3    H128453   5.035   2.436   8.586  0.8279  1.3507  0.3471
 2298TIP3    H228454   4.926   2.510   8.512  0.4280  1.6445  1.2131
 2299TIP3   OH228455   2.392   5.193   6.639  0.4212 -0.6789  0.0794
 2299TIP3    H128456   2.470   5.137   6.650  0.7013 -0.0937  1.2824
 2299TIP3    H228457   2.376   5.193   6.545  0.4950 -2.6616  0.0232
 2300TIP3   OH228458   0.720   4.000   8.418  0.0604  0.4577  0.5400
 2300TIP3    H128459   0.665   4.035   8.488 -2.4227  3.6617 -2.6402
 2300TIP3    H228460   0.794   4.060   8.413 -0.4395  1.0411 -0.2780
 2301TIP3   OH228461   2.784   6.514   7.387  0.4060 -0.3148 -0.6204
 2301TIP3    H128462   2.854   6.548   7.442  0.2482 -0.2613 -0.4548
 2301TIP3    H228463   2.772   6.580   7.319  1.2650 -0.8204 -1.2871
 2302TIP3   OH228464   0.610   3.326   7.066  0.5621 -0.0515  0.2906
 2302TIP3    H128465   0.577   3.346   6.979  0.0311 -0.4622  0.3906
 2302TIP3    H228466   0.685   3.384   7.078  0.0471  0.7003 -0.0625
 2303TIP3   OH228467   6.077   5.682   7.039 -0.7752 -0.1765 -0.0063
 2303TIP3    H128468   6.117   5.702   6.954  2.1526 -0.8542  1.0814
 2303TIP3    H228469   6.035   5.598   7.027 -0.6172 -0.1378 -0.8702
 2304TIP3   OH228470   0.768   6.697   8.459 -0.4294  0.1900 -0.0354
 2304TIP3    H128471   0.783   6.697   8.365 -1.7445 -0.2145 -0.2675
 2304TIP3    H228472   0.852   6.672   8.498 -0.2865 -1.1419 -1.1705
 2305TIP3   OH228473   2.066   4.450   6.453  0.0864 -0.0896 -0.2894
 2305TIP3    H128474   2.139   4.430   6.395 -1.1269  0.4815 -2.0925
 2305TIP3    H228475   2.014   4.515   6.406 -0.2834  1.4073  2.0146
 2306TIP3   OH228476   2.005   3.066   7.464  0.2829  0.1050 -0.1983
 2306TIP3    H128477   1.934   3.071   7.529  1.0378  0.9632  0.5866
 2306TIP3    H228478   1.984   2.988   7.412 -0.5759 -0.3633  0.8031
 2307TIP3   OH228479   1.477   4.012   8.097  0.5722 -0.2874 -0.0038
 2307TIP3    H128480   1.531   3.995   8.175  0.4762 -2.3295 -0.3341
 2307TIP3    H228481   1.487   3.934   8.043 -2.3911 -0.6020 -0.2838
 2308TIP3   OH228482   1.801   2.653   8.248  0.2976 -0.1905  0.1249
 2308TIP3    H128483   1.735   2.591   8.218 -0.0190  0.2898 -0.1834
 2308TIP3    H228484   1.769   2.738   8.219  0.5981  0.1493  0.7684
 2309TIP3   OH228485   3.490   0.965   2.624 -0.0360 -0.4362 -0.3900
 2309TIP3    H128486   3.502   0.905   2.698  0.1272  0.1446  0.0615
 2309TIP3    H228487   3.422   0.924   2.571 -0.1264 -0.8820  0.0625
 2310TIP3   OH228488   3.712   2.723   7.549 -0.6530  0.0091  0.1119
 2310TIP3    H128489   3.806   2.735   7.562 -0.7680  0.7781  0.2967
 2310TIP3    H228490   3.682   2.685   7.631 -0.4721 -0.4160 -0.0193
 2311TIP3   OH228491   0.352   2.211   8.509  0.3410 -0.0407  0.6673
 2311TIP3    H128492   0.425   2.269   8.488 -1.1238  1.8625  0.5594
 2311TIP3    H228493   0.280   2.243   8.455 -0.4286 -2.2968  0.2694
 2312TIP3   OH228494   2.285   3.728   7.984  0.2769  0.0549 -0.0419
 2312TIP3    H128495   2.195   3.753   8.006  0.3813 -0.2100  0.7358
 2312TIP3    H228496   2.278   3.640   7.948  0.3049 -0.3464  0.8925
 2313TIP3   OH228497   1.625   6.026   2.221 -0.5117  0.4085  0.6705
 2313TIP3    H128498   1.569   6.087   2.269 -1.5404 -0.2135  0.3052
 2313TIP3    H228499   1.658   6.076   2.147  0.4673  1.1534  1.5773
 2314TIP3   OH228500   6.464   0.809   0.806 -0.3906  0.3786 -0.1950
 2314TIP3    H128501   6.454   0.812   0.901 -1.6827  0.4641 -0.3191
 2314TIP3    H228502   6.409   0.880   0.774 -1.5322 -0.8822 -1.1061
 2315TIP3   OH228503   0.269   1.467   6.303  0.2853  0.7011  0.0983
 2315TIP3    H128504   0.195   1.420   6.342  0.3002 -1.2869 -2.0755
 2315TIP3    H228505   0.228   1.540   6.256 -0.1567  0.4810  0.1344
 2316TIP3   OH228506   1.876   5.643   7.563  0.2691  0.3175  0.3761
 2316TIP3    H128507   1.908   5.729   7.589  0.6348  0.2805  0.0564
 2316TIP3    H228508   1.900   5.586   7.636  1.6638  0.1324 -0.1784
 2317TIP3   OH228509   0.977   4.889   7.891  1.1594  0.1346  0.5715
 2317TIP3    H128510   1.031   4.956   7.849 -0.3114  1.1145  0.1929
 2317TIP3    H228511   0.920   4.857   7.822  1.3783 -1.0590  0.9144
 2318TIP3   OH228512   4.126   3.668   7.485 -0.7023 -1.1008  0.6029
 2318TIP3    H128513   4.221   3.673   7.492 -0.8065  0.8081  1.4835
 2318TIP3    H228514   4.096   3.655   7.575 -1.3120 -0.4487  0.5023
 2319TIP3   OH228515   5.017   2.498   1.280  0.0215 -0.4501 -0.0033
 2319TIP3    H128516   4.997   2.587   1.311  0.7063 -0.4704  0.5318
 2319TIP3    H228517   5.111   2.501   1.259  0.4488 -1.4749  1.5810
 2320TIP3   OH228518   5.016   3.993   0.902 -0.3137  0.2010  0.3964
 2320TIP3    H128519   5.036   4.054   0.831 -1.5327  0.5911  0.3518
 2320TIP3    H228520   5.101   3.966   0.936  0.2847  0.3360 -0.9271
 2321TIP3   OH228521   6.390   0.769   1.656 -0.4015 -0.1947 -0.5624
 2321TIP3    H128522   6.335   0.695   1.631 -1.5885 -0.1803  1.7746
 2321TIP3    H228523   6.392   0.767   1.752  0.7611  1.9388 -0.4755
 2322TIP3   OH228524   3.104   2.802   7.881 -0.3833  0.0787 -0.5323
 2322TIP3    H128525   3.077   2.732   7.821  0.8558 -2.0080  1.1809
 2322TIP3    H228526   3.045   2.794   7.955  1.5871 -1.2283  1.0054
 2323TIP3   OH228527   3.060   1.653   8.515  0.4156 -0.1987  0.0037
 2323TIP3    H128528   3.076   1.745   8.536  1.0259 -0.2642 -0.1597
 2323TIP3    H228529   3.147   1.618   8.494  0.0656 -0.5980 -0.7829
 2324TIP3   OH228530   0.621   1.713   8.404  0.0166  0.0714  0.2840
 2324TIP3    H128531   0.659   1.709   8.492 -2.0611  1.2856  1.2953
 2324TIP3    H228532   0.588   1.802   8.396 -1.3739 -0.5313 -1.0415
 2325TIP3   OH228533   5.963   0.865   1.922 -0.1155 -0.5027 -0.7328
 2325TIP3    H128534   6.004   0.790   1.966  0.2491 -0.2511 -0.6421
 2325TIP3    H228535   5.956   0.932   1.990 -0.2181 -0.3683 -0.8750
 2326TIP3   OH228536   2.909   2.650   7.003  0.1001 -0.4379  0.2321
 2326TIP3    H128537   2.926   2.561   6.971 -0.4379 -0.7904  0.9033
 2326TIP3    H228538   2.979   2.667   7.065 -1.0452 -1.2891  1.8224
 2327TIP3   OH228539   1.207   2.046   0.026  0.0016  0.3311 -0.9568
 2327TIP3    H128540   1.170   1.961   0.002 -0.2011  0.4732 -1.1510
 2327TIP3    H228541   1.299   2.040   0.001 -0.1344  0.3605 -1.4681
 2328TIP3   OH228542   3.066   0.344   6.256  0.6488 -0.2574 -0.1477
 2328TIP3    H128543   2.984   0.294   6.261  0.3061  0.3330  0.2914
 2328TIP3    H228544   3.072   0.387   6.342  1.3119 -0.1283 -0.2582
 2329TIP3   OH228545   4.130   2.563   8.366  0.0411 -0.7124 -0.0811
 2329TIP3    H128546   4.178   2.646   8.374  0.7295 -1.1113  0.0830
 2329TIP3    H228547   4.176   2.503   8.426  0.4870 -1.6202 -1.2782
 2330TIP3   OH228548   6.714   2.356   8.258 -0.0745 -0.0363  0.3950
 2330TIP3    H128549   6.623   2.386   8.251 -0.1423  0.0354  1.5028
 2330TIP3    H228550   6.745   2.391   8.341  1.0787  0.1988 -0.1196
 2331TIP3   OH228551   1.837   3.030   1.873 -0.1377  0.6500 -0.7297
 2331TIP3    H128552   1.853   3.093   1.944  0.4800 -0.0580 -0.2320
 2331TIP3    H228553   1.811   3.085   1.799  1.1039  1.5806 -0.5179
 2332TIP3   OH228554   3.336   1.917   1.145 -0.6888 -0.2301  0.3971
 2332TIP3    H128555   3.431   1.927   1.150 -0.9964  2.8043  2.7002
 2332TIP3    H228556   3.319   1.910   1.051  1.7423 -0.0489 -0.1425
 2333TIP3   OH228557   6.613   6.726   6.221  0.5953  0.0985  0.3591
 2333TIP3    H128558   6.555   6.781   6.273  0.3987  2.7297 -2.3709
 2333TIP3    H228559   6.679   6.695   6.284 -1.3657  0.4215  2.7204
 2334TIP3   OH228560   2.593   6.703   7.893  0.4097 -0.3983 -0.6902
 2334TIP3    H128561   2.640   6.660   7.822 -0.2586 -1.0638 -0.7476
 2334TIP3    H228562   2.543   6.633   7.935  0.5035  0.0513  0.2021
 2335TIP3   OH228563   4.723   6.603   1.558 -0.6102 -0.1841  0.4297
 2335TIP3    H128564   4.787   6.637   1.621  0.0472 -1.2798  0.3813
 2335TIP3    H228565   4.650   6.573   1.612 -0.2874 -0.6102  0.6321
 2336TIP3   OH228566   1.884   1.428   0.623  0.2138  1.4590 -0.2717
 2336TIP3    H128567   1.814   1.484   0.656 -0.3685  0.9346 -0.6051
 2336TIP3    H228568   1.901   1.459   0.534  0.2142  1.4025 -0.2913
 2337TIP3   OH228569   6.064   4.787   6.435 -0.8243  0.2046  0.2795
 2337TIP3    H128570   5.973   4.783   6.407 -0.2685 -2.2028 -1.5001
 2337TIP3    H228571   6.060   4.796   6.530 -2.8898  0.9432  0.1545
 2338TIP3   OH228572   2.795   3.321   8.273  0.0931 -0.3034 -0.2735
 2338TIP3    H128573   2.857   3.284   8.335 -0.8929 -1.9044 -0.1894
 2338TIP3    H228574   2.815   3.279   8.190 -0.6673 -0.6012 -0.3166
 2339TIP3   OH228575   1.252   5.488   7.813 -0.4440 -0.2244 -0.1790
 2339TIP3    H128576   1.347   5.492   7.822 -0.5243  1.4539  0.3806
 2339TIP3    H228577   1.223   5.433   7.886 -0.0916  1.9576  1.7278
 2340TIP3   OH228578   6.690   2.330   2.007 -0.2108  0.2715  0.1666
 2340TIP3    H128579   6.768   2.361   1.961 -0.6861  2.5555  0.8129
 2340TIP3    H228580   6.632   2.405   2.010 -2.7543 -1.5290 -0.8148
 2341TIP3   OH228581   0.924   3.683   0.486  0.4089  0.5319  0.3029
 2341TIP3    H128582   0.901   3.761   0.436  2.5395  1.1293  0.1505
 2341TIP3    H228583   0.939   3.714   0.575 -2.0070 -0.3062  1.0810
 2342TIP3   OH228584   4.409   1.228   1.283 -0.5910  0.1285  0.0238
 2342TIP3    H128585   4.357   1.155   1.251 -1.4313  0.5458  0.4168
 2342TIP3    H228586   4.345   1.293   1.311  0.1337  1.1626 -0.6238
 2343TIP3   OH228587   0.776   3.039   7.055  0.3096  0.1771 -0.5441
 2343TIP3    H128588   0.815   3.099   6.992  3.3895 -0.7558  0.2726
 2343TIP3    H228589   0.786   2.952   7.015 -0.2538 -0.1672  0.0398
 2344TIP3   OH228590   3.863   4.968   2.286  0.7409  0.5129  0.2183
 2344TIP3    H128591   3.849   4.993   2.195  0.5461  0.5342  0.2541
 2344TIP3    H228592   3.801   5.022   2.336 -2.1692 -2.3673  0.0509
 2345TIP3   OH228593   6.105   6.394   6.475  0.2224  0.5274 -0.4153
 2345TIP3    H128594   6.134   6.336   6.404 -1.2344  0.8894 -1.3485
 2345TIP3    H228595   6.163   6.373   6.548  3.4910  1.8843 -2.3870
 2346TIP3   OH228596   6.468   6.720   8.013 -0.0786 -0.4083  0.3561
 2346TIP3    H128597   6.548   6.726   7.961  0.5670  0.7279  1.4368
 2346TIP3    H228598   6.437   6.811   8.020 -0.9267 -0.7186  0.7688
 2347TIP3   OH228599   5.900   2.223   0.393 -0.2493  0.3045  0.0870
 2347TIP3    H128600   5.902   2.314   0.424 -0.8915  0.0928  0.7935
 2347TIP3    H228601   5.991   2.201   0.377 -0.1893  1.5715 -1.6209
 2348TIP3   OH228602   1.294   0.890   8.393 -0.3457 -0.0444 -0.4766
 2348TIP3    H128603   1.216   0.836   8.403 -0.1439 -0.0025  1.8269
 2348TIP3    H228604   1.314   0.920   8.481  1.5810  0.9368 -1.1880
 2349TIP3   OH228605   0.478   6.175   0.914 -0.0515 -0.7217  0.1067
 2349TIP3    H128606   0.420   6.120   0.862 -1.5383  0.3388  0.5552
 2349TIP3    H228607   0.430   6.190   0.996  0.3590  1.0487  0.0769
 2350TIP3   OH228608   6.025   4.717   1.755  0.0823 -0.5069 -0.2497
 2350TIP3    H128609   6.057   4.803   1.781  1.1507 -0.6032 -1.1621
 2350TIP3    H228610   6.101   4.659   1.765  0.0691 -0.8609 -1.8533
 2351TIP3   OH228611   5.155   5.303   2.590 -0.1677 -0.0120 -0.0696
 2351TIP3    H128612   5.137   5.366   2.520  1.3373  0.0753 -0.4050
 2351TIP3    H228613   5.146   5.354   2.670  0.5612  0.5172 -0.3167
 2352TIP3   OH228614   1.792   5.388   2.609 -0.5069  0.1789  0.2738
 2352TIP3    H128615   1.863   5.409   2.670 -1.0579  1.7187  0.4289
 2352TIP3    H228616   1.836   5.359   2.529  0.2376 -0.9188  1.0480
 2353TIP3   OH228617   5.272   2.063   7.496  0.1674  0.2422 -0.0073
 2353TIP3    H128618   5.342   2.004   7.471  0.9964  2.0070 -2.1745
 2353TIP3    H228619   5.251   2.112   7.416 -2.8384  0.5209  0.7958
 2354TIP3   OH228620   2.576   1.455   1.829 -0.3845  0.4451 -0.0748
 2354TIP3    H128621   2.635   1.522   1.865 -0.7618  0.4144  0.6168
 2354TIP3    H228622   2.496   1.464   1.880 -0.3637 -0.6892  0.1782
 2355TIP3   OH228623   3.620   0.383   0.554  0.3442 -0.0117 -0.1857
 2355TIP3    H128624   3.608   0.458   0.495 -0.2942  0.6562  0.7732
 2355TIP3    H228625   3.703   0.401   0.598  0.3262 -0.0038 -0.1550
 2356TIP3   OH228626   6.776   1.931   2.419  0.1980 -0.2690  0.0285
 2356TIP3    H128627   6.744   1.891   2.338 -0.3965 -0.0877  0.1721
 2356TIP3    H228628   6.771   2.025   2.403  0.1192 -0.2337  0.2637
 2357TIP3   OH228629   3.117   2.214   1.494 -0.1547  0.1740  0.5777
 2357TIP3    H128630   3.037   2.175   1.527 -0.3282 -0.9229 -1.0474
 2357TIP3    H228631   3.137   2.166   1.413  2.4057  0.0677  1.1756
 2358TIP3   OH228632   4.303   6.541   6.991 -0.2213  0.0522  0.1374
 2358TIP3    H128633   4.345   6.620   6.957 -0.0330 -0.6381 -1.2698
 2358TIP3    H228634   4.226   6.529   6.937  0.1828 -1.1773 -0.1914
 2359TIP3   OH228635   0.759   5.790   8.184  0.3969  0.1401  0.3535
 2359TIP3    H128636   0.703   5.840   8.244 -0.3174 -1.7299  1.3356
 2359TIP3    H228637   0.843   5.783   8.230  0.7832  1.1258 -0.1714
 2360TIP3   OH228638   2.373   3.171   8.449 -0.1152 -0.5744  0.1261
 2360TIP3    H128639   2.436   3.243   8.457 -0.7537  0.0715 -0.4868
 2360TIP3    H228640   2.296   3.211   8.408 -0.1508 -1.8122 -1.0689
 2361TIP3   OH228641   5.410   5.196   7.041  0.0474  1.0185  0.2276
 2361TIP3    H128642   5.342   5.189   7.107 -0.6238  0.1718 -0.5176
 2361TIP3    H228643   5.450   5.108   7.039  0.9537  1.4114  0.4316
 2362TIP3   OH228644   3.054   4.417   1.055 -0.0448 -0.4591  0.5143
 2362TIP3    H128645   3.006   4.394   1.134  1.7581 -1.2602  1.4399
 2362TIP3    H228646   3.016   4.362   0.986  0.6098 -2.3247  1.5813
 2363TIP3   OH228647   6.042   2.801   1.089 -0.0728 -0.1313 -0.3643
 2363TIP3    H128648   6.006   2.752   1.015 -2.3834  0.7438  0.1204
 2363TIP3    H228649   6.006   2.758   1.166  1.0114 -0.0213  0.2176
 2364TIP3   OH228650   1.970   0.902   8.208  0.1448  0.6458 -0.1740
 2364TIP3    H128651   1.921   0.890   8.290  0.6018  0.6118  0.1000
 2364TIP3    H228652   1.903   0.917   8.142 -0.2898 -0.2824  0.0335
 2365TIP3   OH228653   6.453   4.035   8.135 -0.2260  0.2500 -0.1767
 2365TIP3    H128654   6.443   4.108   8.196  0.1739  0.4786 -0.3808
 2365TIP3    H228655   6.384   3.973   8.160 -0.7271  0.8053 -0.1551
 2366TIP3   OH228656   1.180   4.472   0.366 -0.3909  0.4832 -0.4185
 2366TIP3    H128657   1.161   4.523   0.444 -0.0096 -1.7631  1.2490
 2366TIP3    H228658   1.276   4.462   0.366 -0.4922 -0.7695 -0.2596
 2367TIP3   OH228659   2.575   1.552   7.087 -0.0958  0.1509  0.0028
 2367TIP3    H128660   2.637   1.600   7.032 -0.8573  0.8787 -0.2494
 2367TIP3    H228661   2.612   1.556   7.175 -1.0062  2.8812  0.3679
 2368TIP3   OH228662   2.907   2.419   0.994  0.3823  0.3491 -0.3480
 2368TIP3    H128663   2.816   2.392   1.008  0.6014 -0.0942  0.3082
 2368TIP3    H228664   2.923   2.404   0.901  0.1808 -0.8269 -0.2026
 2369TIP3   OH228665   6.479   6.805   1.470  0.6996  0.4973  0.5327
 2369TIP3    H128666   6.544   6.826   1.404 -0.3152  0.7240 -0.4344
 2369TIP3    H228667   6.423   6.739   1.429  0.3382  0.2852  1.3377
 2370TIP3   OH228668   1.631   6.839   0.986  0.2064  0.2827  0.1250
 2370TIP3    H128669   1.574   6.847   1.063 -0.1261 -3.0900  0.3981
 2370TIP3    H228670   1.612   6.917   0.934 -2.6864  0.6530  1.4945
 2371TIP3   OH228671   3.347   1.877   0.862 -0.1902  0.2488 -0.6384
 2371TIP3    H128672   3.263   1.832   0.866 -1.3621  2.3614  1.4097
 2371TIP3    H228673   3.325   1.969   0.876  2.5521  0.7594  0.9681
 2372TIP3   OH228674   5.297   3.565   0.393 -0.5094 -0.0755  0.6416
 2372TIP3    H128675   5.209   3.538   0.369  0.4067 -1.8679 -1.0117
 2372TIP3    H228676   5.340   3.581   0.309  1.7031 -2.6276  1.1385
 2373TIP3   OH228677   3.160   2.956   1.328  0.7100 -0.5660  0.3758
 2373TIP3    H128678   3.228   2.943   1.262  0.0432 -1.4524 -0.1482
 2373TIP3    H228679   3.155   2.873   1.374 -2.6972 -2.0200 -2.1561
 2374TIP3   OH228680   1.874   3.722   2.231  0.2032 -0.6758  0.0252
 2374TIP3    H128681   1.797   3.666   2.220 -0.5809  0.6347 -1.5848
 2374TIP3    H228682   1.908   3.699   2.317 -1.3338 -2.0757  0.3185
 2375TIP3   OH228683   1.944   5.626   6.812 -0.1284 -0.2904  0.7094
 2375TIP3    H128684   1.908   5.546   6.773 -2.1078  0.5339  0.7296
 2375TIP3    H228685   1.934   5.692   6.744  2.9515 -0.3091  0.1013
 2376TIP3   OH228686   1.106   0.363   0.418  0.7033 -0.6613  0.0385
 2376TIP3    H128687   1.188   0.332   0.457  0.5145  0.5822  1.5338
 2376TIP3    H228688   1.128   0.382   0.327  1.3025 -3.1512 -0.4021
 2377TIP3   OH228689   3.736   1.261   1.543  0.2266 -0.5766 -0.4436
 2377TIP3    H128690   3.656   1.303   1.514  0.0862 -0.7578 -0.3247
 2377TIP3    H228691   3.709   1.205   1.616  0.7520  0.7084  0.7738
 2378TIP3   OH228692   5.754   5.894   7.724 -0.0331  0.0990  0.2173
 2378TIP3    H128693   5.669   5.917   7.688  0.4228  0.6459 -0.5212
 2378TIP3    H228694   5.817   5.929   7.662  0.7368 -0.3366  0.7366
 2379TIP3   OH228695   3.324   4.851   1.127 -0.2584 -0.1585 -0.5760
 2379TIP3    H128696   3.373   4.769   1.119 -1.0469 -0.4978 -2.4849
 2379TIP3    H228697   3.233   4.823   1.133 -0.5478  0.5711 -1.4548
 2380TIP3   OH228698   5.026   3.542   7.344 -0.2930  0.0060  0.2795
 2380TIP3    H128699   5.010   3.544   7.439 -0.0243  2.9403  0.3533
 2380TIP3    H228700   4.960   3.482   7.310 -1.1296 -0.2536  2.2216
 2381TIP3   OH228701   4.949   0.841   7.538 -0.3449 -0.6189  0.2511
 2381TIP3    H128702   4.899   0.891   7.472 -0.2509 -1.6803 -0.6508
 2381TIP3    H228703   4.916   0.874   7.622 -2.1661 -0.8693 -0.3100
 2382TIP3   OH228704   1.414   2.554   7.901 -0.2521  0.3838  0.8918
 2382TIP3    H128705   1.364   2.635   7.909  0.7188  1.0281  0.6079
 2382TIP3    H228706   1.380   2.513   7.822 -0.4053  0.7584  0.7598
 2383TIP3   OH228707   1.016   4.457   1.612  0.0261 -0.0797  0.2356
 2383TIP3    H128708   0.970   4.375   1.627 -0.8455  0.2428 -0.6092
 2383TIP3    H228709   1.009   4.504   1.696  1.6943 -1.3864  1.1731
 2384TIP3   OH228710   6.460   0.374   6.657  0.2455 -0.3187 -0.9415
 2384TIP3    H128711   6.494   0.369   6.568 -1.0144 -0.2504 -1.4406
 2384TIP3    H228712   6.462   0.467   6.679  1.1754 -0.4006 -0.6382
 2385TIP3   OH228713   4.096   6.457   7.555 -0.3601 -0.3379  0.5890
 2385TIP3    H128714   4.071   6.365   7.545 -0.4278 -0.3233  0.6196
 2385TIP3    H228715   4.071   6.478   7.645  0.3283 -0.4964  0.8239
 2386TIP3   OH228716   0.283   4.874   7.964 -0.1513 -0.0147  0.2971
 2386TIP3    H128717   0.363   4.888   7.913 -0.0894  0.1359  0.4353
 2386TIP3    H228718   0.314   4.839   8.047 -0.1815  0.5797  0.5674
 2387TIP3   OH228719   5.585   4.233   7.668  0.1372  0.1470  0.1121
 2387TIP3    H128720   5.528   4.184   7.727 -1.3565  0.5222 -0.9462
 2387TIP3    H228721   5.539   4.315   7.651  1.7294  1.1568  0.3979
 2388TIP3   OH228722   2.136   0.735   6.008  0.1041  0.5956 -0.5446
 2388TIP3    H128723   2.216   0.713   5.960  1.0284  1.2483  0.6342
 2388TIP3    H228724   2.162   0.733   6.100 -1.6312 -0.7074 -0.0107
 2389TIP3   OH228725   3.538   4.948   2.270 -0.2564 -0.3271 -0.2182
 2389TIP3    H128726   3.590   4.869   2.287  1.8221  0.7896 -1.0904
 2389TIP3    H228727   3.586   5.018   2.314 -2.6630  0.3880  1.5180
 2390TIP3   OH228728   1.649   3.589   6.535 -0.3066  0.2370  0.1375
 2390TIP3    H128729   1.691   3.544   6.462  2.7608 -0.0361  1.9135
 2390TIP3    H228730   1.680   3.543   6.612 -0.1109  3.0088  1.8386
 2391TIP3   OH228731   6.029   2.156   2.270 -0.5482 -0.6201 -0.3168
 2391TIP3    H128732   6.053   2.064   2.284  1.5948 -0.0761 -0.1506
 2391TIP3    H228733   6.104   2.206   2.302 -2.0434  1.2511  0.4289
 2392TIP3   OH228734   6.018   0.817   7.700  0.4485  0.4825  0.1726
 2392TIP3    H128735   5.977   0.820   7.787  0.5754  0.1248  0.2434
 2392TIP3    H228736   5.952   0.853   7.641 -0.2153 -0.6622  0.1919
 2393TIP3   OH228737   4.430   3.639   6.964 -0.3811 -0.4215  0.2715
 2393TIP3    H128738   4.404   3.638   7.056 -1.1151 -0.0774  0.0756
 2393TIP3    H228739   4.353   3.672   6.918 -0.0949 -0.7991 -0.4916
 2394TIP3   OH228740   5.500   0.361   6.431  0.0458  0.1512  0.2331
 2394TIP3    H128741   5.543   0.426   6.486  1.2522 -0.0711 -0.3848
 2394TIP3    H228742   5.410   0.359   6.461  0.3975  0.8598  1.4082
 2395TIP3   OH228743   1.593   4.573   1.444  0.4509 -0.0060  0.4710
 2395TIP3    H128744   1.648   4.496   1.430 -0.4803 -0.5024 -0.6638
 2395TIP3    H228745   1.654   4.647   1.444  1.1367 -0.5549 -0.6631
 2396TIP3   OH228746   6.395   3.417   0.690 -1.0284 -0.0874 -0.2233
 2396TIP3    H128747   6.468   3.366   0.657 -0.3696  0.6132  0.1124
 2396TIP3    H228748   6.431   3.505   0.705 -2.0012  0.3498 -0.3104
 2397TIP3   OH228749   2.595   5.069   1.856 -0.6098  0.7435 -0.0330
 2397TIP3    H128750   2.526   5.095   1.916 -0.1962  0.6568  0.4930
 2397TIP3    H228751   2.635   4.992   1.897  0.2616  1.2211  0.0414
 2398TIP3   OH228752   4.113   3.412   8.487  0.2839 -0.2144 -0.0375
 2398TIP3    H128753   4.166   3.402   8.408  1.8054 -0.7084  1.0023
 2398TIP3    H228754   4.161   3.365   8.555 -1.1551 -0.1022  1.1264
 2399TIP3   OH228755   0.980   4.914   1.289 -0.9642  0.1021  0.4808
 2399TIP3    H128756   1.017   5.001   1.303 -1.8129  0.3022  1.6342
 2399TIP3    H228757   0.887   4.924   1.310 -1.4554 -0.6605 -1.1948
 2400TIP3   OH228758   4.341   0.621   7.042  0.6594 -0.2466 -0.0197
 2400TIP3    H128759   4.434   0.642   7.052  0.6595  1.1640 -2.2274
 2400TIP3    H228760   4.296   0.704   7.059 -0.0547 -0.5158 -0.5545
 2401TIP3   OH228761   2.985   5.390   8.538  0.0556 -0.4720  0.0769
 2401TIP3    H128762   3.062   5.341   8.567 -0.1684 -0.1848  1.1950
 2401TIP3    H228763   2.922   5.323   8.514  1.3892 -0.7629 -3.0868
 2402TIP3   OH228764   4.241   2.603   0.145 -0.2416 -0.1158  0.1643
 2402TIP3    H128765   4.203   2.661   0.211  0.4468  0.4567  0.0754
 2402TIP3    H228766   4.324   2.645   0.121 -0.9455  0.2672 -1.8336
 2403TIP3   OH228767   3.235   3.166   2.282 -0.7020  0.2395  0.0754
 2403TIP3    H128768   3.182   3.242   2.257 -1.1903 -0.1272 -0.0218
 2403TIP3    H228769   3.234   3.165   2.377 -0.2641  0.6546  0.0840
 2404TIP3   OH228770   2.680   2.021   8.082 -0.0760  0.2049 -0.0662
 2404TIP3    H128771   2.727   1.939   8.068  0.0800  0.2711  0.0730
 2404TIP3    H228772   2.704   2.075   8.007 -1.2882 -0.3807 -0.9139
 2405TIP3   OH228773   6.041   5.312   8.042 -0.6081 -0.1053 -0.5516
 2405TIP3    H128774   6.014   5.305   8.134  2.1792 -1.3278  0.2799
 2405TIP3    H228775   6.052   5.406   8.027 -0.2043  0.0579  0.6755
 2406TIP3   OH228776   4.907   0.209   0.312  0.8590 -0.0848  0.1599
 2406TIP3    H128777   4.881   0.254   0.393  0.4800  1.6326 -0.8442
 2406TIP3    H228778   4.997   0.181   0.327  1.0868  0.9752  0.8918
 2407TIP3   OH228779   0.789   5.661   7.447 -0.5745  0.2927  0.5042
 2407TIP3    H128780   0.757   5.573   7.467  0.4537 -0.1316  0.3394
 2407TIP3    H228781   0.802   5.702   7.532  0.4139 -0.2627  0.6308
 2408TIP3   OH228782   0.455   1.113   1.104  0.0232 -0.0007 -0.2342
 2408TIP3    H128783   0.450   1.066   1.020  1.1402 -0.1715 -0.2267
 2408TIP3    H228784   0.449   1.205   1.079  0.6289 -0.0385 -0.5405
 2409TIP3   OH228785   4.453   5.084   2.186 -0.7871 -0.0917  0.2941
 2409TIP3    H128786   4.390   5.046   2.125 -1.2944  0.6222  0.3683
 2409TIP3    H228787   4.538   5.052   2.155 -0.9632  0.7777 -1.1972
 2410TIP3   OH228788   4.004   3.589   1.009 -0.9433  0.0529 -0.0399
 2410TIP3    H128789   3.914   3.616   1.028 -0.5876  2.4690 -1.4482
 2410TIP3    H228790   4.047   3.587   1.094 -1.3145  3.0388  0.2991
 2411TIP3   OH228791   0.037   3.797   7.434  0.2919  0.1516 -0.2946
 2411TIP3    H128792   0.123   3.756   7.419 -0.4449 -0.9297 -1.7718
 2411TIP3    H228793   0.049   3.888   7.407  0.9235 -0.0504 -0.7253
 2412TIP3   OH228794   2.784   4.368   0.916 -0.1465  0.2200  0.3855
 2412TIP3    H128795   2.712   4.429   0.931 -1.9461 -1.4259 -1.0357
 2412TIP3    H228796   2.772   4.300   0.982  1.3417  0.8840  1.4071
 2413TIP3   OH228797   6.197   1.301   1.620  0.1084 -0.3355  0.1752
 2413TIP3    H128798   6.270   1.362   1.621 -0.6460  0.5926  0.0008
 2413TIP3    H228799   6.145   1.324   1.698 -0.2627 -0.6472  0.0271
 2414TIP3   OH228800   4.064   3.698   0.684  0.0624 -0.3205 -0.3957
 2414TIP3    H128801   4.099   3.743   0.607 -1.3641  1.5066 -0.0469
 2414TIP3    H228802   4.003   3.633   0.649  0.2572 -0.2600 -0.8470
 2415TIP3   OH228803   0.844   2.517   8.212  0.6641 -0.1408  0.2970
 2415TIP3    H128804   0.923   2.568   8.195 -0.1403  1.1770  0.3751
 2415TIP3    H228805   0.839   2.455   8.140  1.7077 -0.1634  0.2356
 2416TIP3   OH228806   5.976   2.374   6.623 -0.0558 -0.3708  0.1847
 2416TIP3    H128807   6.058   2.391   6.670 -0.3056 -1.7596  1.1871
 2416TIP3    H228808   5.910   2.423   6.672  0.2569  1.5383 -1.1810
 2417TIP3   OH228809   2.300   0.431   0.079  0.2505 -0.3597 -0.4474
 2417TIP3    H128810   2.252   0.396   0.004  0.2603  0.9309 -1.0874
 2417TIP3    H228811   2.236   0.435   0.149 -0.2140  0.0099 -0.8831
 2418TIP3   OH228812   1.729   3.204   1.690 -0.0131  0.1456 -0.2941
 2418TIP3    H128813   1.642   3.224   1.656  0.1886  0.4480 -0.6439
 2418TIP3    H228814   1.789   3.233   1.621  0.3462 -0.5493 -0.2826
 2419TIP3   OH228815   0.664   5.143   0.865 -0.0700  0.4517  0.1455
 2419TIP3    H128816   0.720   5.131   0.941  0.2844  0.6768 -0.0789
 2419TIP3    H228817   0.633   5.055   0.844 -1.6579  0.6055  1.6640
 2420TIP3   OH228818   4.820   1.225   8.011  0.2754 -0.6656  0.4399
 2420TIP3    H128819   4.896   1.259   7.964  1.6558 -1.4685  1.9843
 2420TIP3    H228820   4.794   1.147   7.961  0.0127 -0.0070 -0.4778
 2421TIP3   OH228821   4.851   2.586   2.297 -0.3096  0.5279  0.3955
 2421TIP3    H128822   4.772   2.638   2.311 -1.0602  0.4775 -2.9161
 2421TIP3    H228823   4.922   2.639   2.334 -1.5052  2.1034  0.5098
 2422TIP3   OH228824   2.697   5.195   1.554 -0.0313  0.1640 -0.2897
 2422TIP3    H128825   2.752   5.246   1.495  0.2172  2.2310  1.6013
 2422TIP3    H228826   2.647   5.260   1.603 -1.2652 -1.5029  0.7985
 2423TIP3   OH228827   4.887   3.073   2.521 -0.1932  0.2397  0.0388
 2423TIP3    H128828   4.982   3.070   2.507 -0.1724 -0.7546  0.3208
 2423TIP3    H228829   4.874   3.146   2.581  0.2451  1.2445 -1.0484
 2424TIP3   OH228830   3.330   5.959   1.016  0.0791 -0.2788 -0.6363
 2424TIP3    H128831   3.264   5.979   0.949 -1.8864  0.0015  1.2841
 2424TIP3    H228832   3.281   5.918   1.087  1.7393  1.0308  1.3908
 2425TIP3   OH228833   6.691   2.741   7.966  0.3752  0.3812 -0.7479
 2425TIP3    H128834   6.768   2.724   8.020 -0.0440 -0.4265 -0.3943
 2425TIP3    H228835   6.627   2.675   7.992 -0.2801  0.7485 -1.3629
 2426TIP3   OH228836   5.160   0.904   8.659 -0.3330 -0.1257 -0.3116
 2426TIP3    H128837   5.141   0.929   8.569 -0.8247 -1.4402 -0.5835
 2426TIP3    H228838   5.164   0.988   8.706  1.6177  0.7134 -1.8345
 2427TIP3   OH228839   1.688   6.045   1.125  0.6957  0.4246 -0.1156
 2427TIP3    H128840   1.647   6.102   1.189  1.5623  1.6514 -0.5976
 2427TIP3    H228841   1.644   6.065   1.043  1.2216  0.6489 -0.3506
 2428TIP3   OH228842   1.457   1.397   7.077  0.0664 -0.3278  0.2107
 2428TIP3    H128843   1.526   1.331   7.085 -0.8903 -1.7892 -2.4121
 2428TIP3    H228844   1.385   1.364   7.131  0.2991 -0.4039  0.4755
 2429TIP3   OH228845   3.399   0.270   7.444 -0.3984 -0.1579 -0.3628
 2429TIP3    H128846   3.466   0.257   7.376 -1.7557 -1.1877 -1.5557
 2429TIP3    H228847   3.414   0.360   7.475  0.6265  0.1299 -1.6089
 2430TIP3   OH228848   0.185   4.175   8.202  0.5073 -0.1271  0.2217
 2430TIP3    H128849   0.275   4.200   8.222  0.6241 -0.5945  0.2798
 2430TIP3    H228850   0.193   4.101   8.142  0.1687  1.4095 -1.8408
 2431TIP3   OH228851   0.672   6.320   1.079  0.6397 -0.3233  0.4139
 2431TIP3    H128852   0.633   6.333   0.992  0.2957  1.1886  0.7551
 2431TIP3    H228853   0.707   6.231   1.077 -0.7100 -0.8604 -0.7424
 2432TIP3   OH228854   2.903   1.154   0.215  0.1470  0.1867  0.2612
 2432TIP3    H128855   2.896   1.078   0.157  1.3005 -1.8117  2.5538
 2432TIP3    H228856   2.819   1.157   0.261  0.7906 -1.0139  1.5899
 2433TIP3   OH228857   4.743   0.264   0.577  0.0000 -0.6964 -0.0732
 2433TIP3    H128858   4.753   0.359   0.566 -0.9729 -0.3371  1.6852
 2433TIP3    H228859   4.665   0.242   0.526 -0.7805 -0.2125  0.8723
 2434TIP3   OH228860   1.148   5.064   7.475 -0.3259 -0.2521 -0.1985
 2434TIP3    H128861   1.151   5.032   7.565 -2.4179  0.9348  0.3511
 2434TIP3    H228862   1.224   5.022   7.433  2.7320  1.6558  2.8645
 2435TIP3   OH228863   6.755   0.451   2.072 -0.0464  0.3958 -0.5486
 2435TIP3    H128864   6.674   0.408   2.099  0.3128  0.0515 -0.0087
 2435TIP3    H228865   6.794   0.483   2.153  0.9445 -0.4766 -0.6587
 2436TIP3   OH228866   2.907   2.657   8.049  0.3750 -0.0688  0.2379
 2436TIP3    H128867   2.998   2.638   8.072 -0.1197 -1.5961  1.1152
 2436TIP3    H228868   2.879   2.580   8.000 -0.1509  0.8600 -0.9564
 2437TIP3   OH228869   3.921   4.680   0.669  0.0044  0.4964  0.0486
 2437TIP3    H128870   3.969   4.744   0.721  0.5522  1.2304 -1.3105
 2437TIP3    H228871   3.841   4.663   0.719  0.8197  0.6492  1.4431
 2438TIP3   OH228872   5.619   2.289   1.588  0.5821  0.0849  0.0058
 2438TIP3    H128873   5.620   2.193   1.582  0.7709  0.1777 -1.9485
 2438TIP3    H228874   5.711   2.313   1.601  0.4574  0.0042  1.2041
 2439TIP3   OH228875   0.208   4.321   6.339 -0.5469  0.5541  0.2429
 2439TIP3    H128876   0.300   4.325   6.362 -0.0170 -0.6091 -1.4798
 2439TIP3    H228877   0.171   4.254   6.396 -0.0126  0.0832  0.0401
 2440TIP3   OH228878   0.977   4.130   8.434  0.9050  0.1705 -0.5362
 2440TIP3    H128879   0.981   4.082   8.351 -2.2066 -0.6599 -0.3218
 2440TIP3    H228880   1.068   4.155   8.451  1.9093 -1.1527 -3.2815
 2441TIP3   OH228881   4.307   0.501   6.797  0.3198  0.4184 -0.9907
 2441TIP3    H128882   4.243   0.563   6.765 -2.2182 -1.6071 -0.2146
 2441TIP3    H228883   4.335   0.537   6.882 -1.1750  0.5141 -0.5064
 2442TIP3   OH228884   5.268   4.986   1.711  0.1797  0.3254  0.0628
 2442TIP3    H128885   5.239   4.912   1.763 -1.7402 -0.3263 -1.7960
 2442TIP3    H228886   5.290   5.053   1.775 -1.0927 -0.7630  1.7328
 2443TIP3   OH228887   1.230   1.766   0.728 -0.3837  0.3436  0.5247
 2443TIP3    H128888   1.170   1.804   0.792 -0.4889 -0.3524  0.8387
 2443TIP3    H228889   1.221   1.823   0.651 -1.6617  0.0923  0.4577
 2444TIP3   OH228890   4.312   6.584   7.357  0.5299 -1.0444  0.1144
 2444TIP3    H128891   4.254   6.517   7.393 -1.4593  0.1776 -0.6678
 2444TIP3    H228892   4.265   6.619   7.282  1.1231  1.7554  0.9306
 2445TIP3   OH228893   3.815   5.781   0.500 -0.1675  0.4516  0.0863
 2445TIP3    H128894   3.824   5.790   0.405  0.2667  1.9842  0.2471
 2445TIP3    H228895   3.851   5.862   0.536 -0.2518 -0.1320  1.5752
 2446TIP3   OH228896   4.000   2.598   0.341 -0.2803 -0.4528 -0.2164
 2446TIP3    H128897   4.004   2.564   0.431  0.1896  0.3998  0.0990
 2446TIP3    H228898   3.943   2.537   0.295 -1.7997 -0.0653  1.0554
 2447TIP3   OH228899   1.875   5.068   0.536 -0.3012 -0.6407  0.1836
 2447TIP3    H128900   1.789   5.100   0.509 -0.9359 -1.1583  1.4995
 2447TIP3    H228901   1.936   5.131   0.499 -1.3318  0.4235  0.2115
 2448TIP3   OH228902   3.104   5.796   0.384 -0.9442  0.2602 -0.1526
 2448TIP3    H128903   3.049   5.821   0.310 -0.2299  1.8051 -0.2028
 2448TIP3    H228904   3.070   5.846   0.457  1.4904  2.7926 -0.5948
 2449TIP3   OH228905   2.780   2.753   1.045 -0.5338 -0.0643  0.3699
 2449TIP3    H128906   2.842   2.823   1.064 -0.6836  0.1777 -0.0257
 2449TIP3    H228907   2.819   2.705   0.973  0.2630 -1.2725  1.5583
 2450TIP3   OH228908   5.511   3.285   7.772 -0.3978 -0.0886 -0.2169
 2450TIP3    H128909   5.447   3.331   7.827  0.0636 -0.5387  0.7333
 2450TIP3    H228910   5.515   3.197   7.810  1.6490  0.2642  0.5280
 2451TIP3   OH228911   3.611   1.871   0.227  0.5641  0.0947 -0.1695
 2451TIP3    H128912   3.680   1.936   0.238  1.0347 -0.1142 -1.6760
 2451TIP3    H228913   3.585   1.848   0.317  0.6566  2.0396  0.3901
 2452TIP3   OH228914   1.122   4.510   0.656 -0.0161  0.7819 -0.1341
 2452TIP3    H128915   1.217   4.508   0.664  0.0009  0.8296 -0.3215
 2452TIP3    H228916   1.100   4.603   0.652 -0.1084  0.7814  0.3517
 2453TIP3   OH228917   0.163   4.084   6.569 -0.3919 -0.2842 -0.2607
 2453TIP3    H128918   0.204   4.000   6.589  0.1629 -0.0286 -0.2826
 2453TIP3    H228919   0.206   4.146   6.628 -0.2564  0.1068 -0.7557
 2454TIP3   OH228920   4.385   0.147   7.187 -0.6988 -0.8589 -0.4799
 2454TIP3    H128921   4.292   0.167   7.180 -0.7273 -0.5285  0.6064
 2454TIP3    H228922   4.398   0.072   7.130 -1.4510 -0.3646 -1.3286
 2455TIP3   OH228923   2.757   0.174   2.274 -0.1661  0.1945  0.5331
 2455TIP3    H128924   2.703   0.177   2.195 -0.5446  0.5152  0.8072
 2455TIP3    H228925   2.761   0.081   2.296 -0.8004  0.1940  0.6504
 2456TIP3   OH228926   1.104   6.117   7.445 -0.0007 -0.0720 -0.2242
 2456TIP3    H128927   1.091   6.026   7.417  0.8171 -0.4079  0.4606
 2456TIP3    H228928   1.109   6.112   7.540 -3.5963  1.1461  0.1994
 2457TIP3   OH228929   1.738   4.720   0.879  0.1653  0.3972 -0.5997
 2457TIP3    H128930   1.749   4.655   0.948  1.1490  0.2272 -0.8979
 2457TIP3    H228931   1.778   4.681   0.801  1.4249  1.6145 -0.6094
 2458TIP3   OH228932   6.651   6.562   8.203 -0.3006 -0.3808  0.0578
 2458TIP3    H128933   6.587   6.601   8.144  0.0977  0.0068 -0.1246
 2458TIP3    H228934   6.689   6.490   8.154  0.4108  0.2707 -0.3692
 2459TIP3   OH228935   4.644   6.639   0.791 -1.2840  0.4415 -0.3444
 2459TIP3    H128936   4.671   6.691   0.715  0.7067  1.9601  1.2883
 2459TIP3    H228937   4.626   6.704   0.859  0.4362 -0.9000  1.5222
 2460TIP3   OH228938   3.859   1.782   7.616 -0.3939 -0.2037 -0.0645
 2460TIP3    H128939   3.899   1.868   7.606  1.8597 -1.2570 -0.8164
 2460TIP3    H228940   3.868   1.742   7.529 -3.0088 -0.5973 -0.2238
 2461TIP3   OH228941   2.757   0.220   0.957  0.0845  0.2948  0.2606
 2461TIP3    H128942   2.696   0.166   0.906  0.3370  0.4171 -0.1757
 2461TIP3    H228943   2.822   0.250   0.893  0.4342  0.4096  0.6643
 2462TIP3   OH228944   3.416   2.107   2.108 -0.2482  0.0815 -0.0082
 2462TIP3    H128945   3.464   2.046   2.165  0.7220  0.7367 -0.0973
 2462TIP3    H228946   3.326   2.076   2.110 -0.1757 -0.1001  1.6311
 2463TIP3   OH228947   3.403   0.132   8.359 -0.5962  1.0082 -0.5124
 2463TIP3    H128948   3.436   0.053   8.315 -1.5989  0.4699 -0.3372
 2463TIP3    H228949   3.399   0.198   8.290  1.9046  1.4596 -0.3110
 2464TIP3   OH228950   2.519   1.190   7.629 -0.3868 -0.4690  0.0862
 2464TIP3    H128951   2.536   1.097   7.641 -0.9202 -0.7035 -0.8784
 2464TIP3    H228952   2.593   1.233   7.671 -0.0268 -1.3348  0.3655
 2465TIP3   OH228953   0.349   3.357   2.170  0.2047  0.1042 -0.1726
 2465TIP3    H128954   0.264   3.335   2.133  0.4662  0.2591 -0.8648
 2465TIP3    H228955   0.364   3.448   2.147  0.4628  0.1442  0.1335
 2466TIP3   OH228956   6.797   2.532   8.475 -0.1796  0.3554  0.0885
 2466TIP3    H128957   6.879   2.497   8.511 -0.1720  0.8294  0.5443
 2466TIP3    H228958   6.755   2.576   8.549 -0.1104  1.4585 -0.5088
 2467TIP3   OH228959   3.297   5.704   0.779  0.0048 -0.1908 -0.7637
 2467TIP3    H128960   3.336   5.674   0.862 -0.2538  0.1458 -0.5170
 2467TIP3    H228961   3.372   5.716   0.721  0.2934  0.6386 -0.2292
 2468TIP3   OH228962   3.437   4.508   8.600  0.3975 -0.7350  0.5406
 2468TIP3    H128963   3.421   4.578   8.663  0.2004  0.4610 -0.7835
 2468TIP3    H228964   3.484   4.551   8.528 -0.9100 -1.6347 -0.9117
 2469TIP3   OH228965   6.817   4.318   8.241 -0.0359  0.0596  0.1494
 2469TIP3    H128966   6.831   4.400   8.289 -0.1219  0.5141 -0.5738
 2469TIP3    H228967   6.903   4.276   8.240 -0.0520  0.0112  0.7564
 2470TIP3   OH228968   2.239   5.129   0.362 -0.1617  0.1679  0.3841
 2470TIP3    H128969   2.223   5.126   0.268  0.5660  2.3431  0.1338
 2470TIP3    H228970   2.164   5.176   0.399  0.6796  1.4231  0.5457
 2471TIP3   OH228971   6.749   2.179   0.153  0.3914  0.2381 -0.4085
 2471TIP3    H128972   6.677   2.159   0.094  0.2723  1.1944 -0.6043
 2471TIP3    H228973   6.827   2.172   0.098  0.3440  0.4041 -0.4976
 2472TIP3   OH228974   3.766   1.848   0.724 -0.1053  0.1352 -0.0180
 2472TIP3    H128975   3.738   1.931   0.763  1.8315  1.2451 -0.7893
 2472TIP3    H228976   3.691   1.790   0.733 -0.7132  1.1897  2.7419
 2473TIP3   OH228977   5.588   4.192   0.415  0.4584  0.3655  1.1145
 2473TIP3    H128978   5.662   4.133   0.435  1.9447  1.8476  0.2305
 2473TIP3    H228979   5.589   4.200   0.320 -1.6667 -0.5202  0.9563
 2474TIP3   OH228980   1.887   4.229   8.264 -0.2240  0.6545  0.0340
 2474TIP3    H128981   1.833   4.156   8.296 -1.9904  2.6340  1.9704
 2474TIP3    H228982   1.971   4.218   8.307 -0.0660 -0.8769 -0.6411
 2475TIP3   OH228983   1.413   1.910   7.326  0.3452  0.0678 -0.2108
 2475TIP3    H128984   1.492   1.925   7.273  0.4696 -1.2592 -0.4392
 2475TIP3    H228985   1.447   1.883   7.412  0.1397  0.2594 -0.0692
 2476TIP3   OH228986   6.566   5.229   7.707  0.1268  0.8824  0.0864
 2476TIP3    H128987   6.520   5.148   7.684  0.5467  0.0903  1.7966
 2476TIP3    H228988   6.499   5.297   7.704 -1.0546 -0.1284  1.8230
 2477TIP3   OH228989   4.098   2.336   2.080 -0.0992 -0.7073 -0.4504
 2477TIP3    H128990   4.098   2.246   2.112 -0.4126 -0.5325  0.0514
 2477TIP3    H228991   4.063   2.387   2.152  0.1278 -0.1729 -0.7128
 2478TIP3   OH228992   1.923   6.601   6.872  0.4659 -0.3273 -0.5862
 2478TIP3    H128993   1.892   6.511   6.859 -2.6930  0.4280  0.7422
 2478TIP3    H228994   1.900   6.646   6.791 -3.5037  0.4722  0.7169
 2479TIP3   OH228995   0.003   2.624   6.630 -0.2299 -0.4363 -0.0354
 2479TIP3    H128996   0.036   2.594   6.545 -0.2744  0.5571 -0.4175
 2479TIP3    H228997   0.060   2.582   6.694  1.5073  0.8489 -0.6594
 2480TIP3   OH228998   0.991   2.815   7.181 -0.1167 -0.8876 -0.0016
 2480TIP3    H128999   0.926   2.844   7.117  0.5039  1.3455  0.2976
 2480TIP3    H229000   1.074   2.847   7.148  0.1853  0.6135  2.0135
 2481TIP3   OH229001   3.374   4.995   8.274 -0.3526  0.2855  0.3511
 2481TIP3    H129002   3.336   5.012   8.360 -0.1109  1.0481  0.3121
 2481TIP3    H229003   3.350   4.904   8.255 -0.4947  0.1402  1.1752
 2482TIP3   OH229004   0.623   2.562   0.023 -0.2680  0.1119  0.7596
 2482TIP3    H129005   0.713   2.590   0.004 -0.8114  0.5570 -1.5009
 2482TIP3    H229006   0.624   2.540   0.116  2.4225 -0.8539  0.6005
 2483TIP3   OH229007   0.261   3.902   2.102  0.1551 -0.3090  0.0000
 2483TIP3    H129008   0.220   3.816   2.094  0.8330 -0.5221 -1.4026
 2483TIP3    H229009   0.197   3.962   2.064  0.3949 -0.4163 -0.5782
 2484TIP3   OH229010   3.711   5.652   7.558  0.2233  0.5686 -0.8279
 2484TIP3    H129011   3.752   5.574   7.595 -1.4234  0.1810  0.3367
 2484TIP3    H229012   3.745   5.724   7.610 -0.7472  0.2170  0.3382
 2485TIP3   OH229013   0.506   6.613   1.266  0.0923 -0.1328 -0.0676
 2485TIP3    H129014   0.426   6.643   1.222 -0.5924 -1.1987  0.4137
 2485TIP3    H229015   0.483   6.611   1.359  1.1094  0.8178  0.2263
 2486TIP3   OH229016   6.778   6.084   7.471  0.4140 -0.4856 -0.5495
 2486TIP3    H129017   6.689   6.105   7.445 -0.3388  0.4727  2.4536
 2486TIP3    H229018   6.787   5.990   7.453 -1.5403 -0.8041 -0.0346
 2487TIP3   OH229019   1.720   3.807   0.826  0.2911 -0.1958 -0.3834
 2487TIP3    H129020   1.683   3.790   0.912 -0.0001  0.8277 -0.2933
 2487TIP3    H229021   1.647   3.842   0.775 -0.2473 -3.0885 -1.8660
 2488TIP3   OH229022   1.953   6.098   8.166  0.0498  0.1609  0.3181
 2488TIP3    H129023   1.970   6.048   8.086  1.0656 -0.3509  0.8432
 2488TIP3    H229024   2.039   6.108   8.207 -0.4287  0.6204  1.2314
 2489TIP3   OH229025   0.529   2.937   7.659 -0.1438 -0.1917  0.3528
 2489TIP3    H129026   0.607   2.944   7.715 -0.0491  0.6237  0.1438
 2489TIP3    H229027   0.563   2.948   7.570 -0.7255  2.5690  0.3839
 2490TIP3   OH229028   1.533   6.459   1.708 -0.2775 -0.0429  0.2404
 2490TIP3    H129029   1.575   6.508   1.778 -1.1097  0.7350  0.2111
 2490TIP3    H229030   1.464   6.409   1.751 -2.0638  1.8872 -0.1996
 2491TIP3   OH229031   3.259   4.717   7.887 -0.0918 -0.4803  0.4655
 2491TIP3    H129032   3.309   4.666   7.824  1.3867  0.0334  1.1781
 2491TIP3    H229033   3.232   4.795   7.838 -0.5339 -0.9386 -0.0310
 2492TIP3   OH229034   4.310   6.324   8.189  0.0524  0.5293 -0.1159
 2492TIP3    H129035   4.273   6.301   8.104  0.7880  0.5093 -0.4352
 2492TIP3    H229036   4.374   6.392   8.170  1.0544 -0.2842  0.2690
 2493TIP3   OH229037   4.942   3.028   1.690 -0.6149 -0.1845  0.4398
 2493TIP3    H129038   4.949   3.122   1.704  0.0699  0.1744 -1.9046
 2493TIP3    H229039   4.903   2.995   1.771 -0.0534  1.9707  1.6698
 2494TIP3   OH229040   1.598   2.614   0.483 -0.1079  0.4621  0.3678
 2494TIP3    H129041   1.554   2.620   0.399 -0.4391  0.1339  0.5163
 2494TIP3    H229042   1.691   2.624   0.462  0.3654 -4.0616 -0.6421
 2495TIP3   OH229043   3.130   6.197   7.463  0.3803  0.1038 -0.0537
 2495TIP3    H129044   3.136   6.126   7.526  1.6032 -2.1885 -2.5586
 2495TIP3    H229045   3.039   6.194   7.432 -0.3069  1.4297  1.6908
 2496TIP3   OH229046   1.659   6.102   7.854  0.5532 -0.1011 -0.0588
 2496TIP3    H129047   1.595   6.160   7.812  1.6039  0.5460 -0.8152
 2496TIP3    H229048   1.654   6.020   7.804  1.1021  0.3358 -0.8574
 2497TIP3   OH229049   0.278   5.638   0.871  0.0615  0.2245  0.5118
 2497TIP3    H129050   0.329   5.570   0.915 -0.4983 -0.1692  0.5594
 2497TIP3    H229051   0.220   5.672   0.939 -0.0144  0.4061  0.3577
 2498TIP3   OH229052   0.557   6.103   7.745 -0.3403  0.5647 -0.1017
 2498TIP3    H129053   0.489   6.057   7.795 -0.4043  1.0928  0.2988
 2498TIP3    H229054   0.597   6.163   7.807  0.1867  0.5887 -0.4566
 2499TIP3   OH229055   1.511   1.742   0.747  0.0745 -0.5267 -0.8551
 2499TIP3    H129056   1.415   1.739   0.749  0.0548 -1.1263 -1.9657
 2499TIP3    H229057   1.533   1.828   0.783 -0.8477 -0.5881 -0.0942
 2500TIP3   OH229058   2.366   6.379   1.475  0.5099 -0.5410 -0.4221
 2500TIP3    H129059   2.398   6.336   1.396 -1.9663  0.0434 -1.8765
 2500TIP3    H229060   2.326   6.460   1.443  0.9641  0.5599  1.6705
 2501TIP3   OH229061   1.011   5.338   2.880  0.1519 -0.0344 -0.5368
 2501TIP3    H129062   0.927   5.310   2.843  0.4551 -1.6766 -0.0408
 2501TIP3    H229063   1.071   5.341   2.805 -0.7170  3.0897 -1.2816
 2502TIP3   OH229064   3.966   3.133   8.241  0.6541 -0.0231  0.0022
 2502TIP3    H129065   3.879   3.162   8.211  0.7985  0.4229  0.0019
 2502TIP3    H229066   3.957   3.126   8.336  0.4651 -0.5075 -0.0503
 2503TIP3   OH229067   5.795   2.912   1.822 -0.0272  0.1956 -0.0039
 2503TIP3    H129068   5.723   2.913   1.885 -0.6872  1.3312 -0.7545
 2503TIP3    H229069   5.798   2.822   1.790 -0.8023  0.0255  0.3873
 2504TIP3   OH229070   0.849   3.105   8.066 -0.1282  0.2527  0.1725
 2504TIP3    H129071   0.922   3.043   8.067  0.3841  0.8440  1.0173
 2504TIP3    H229072   0.875   3.173   8.128 -1.3648  0.5224  0.4180
 2505TIP3   OH229073   2.625   4.028   7.127  0.2923  0.2564 -0.3836
 2505TIP3    H129074   2.551   3.972   7.150  0.8139 -1.5044 -2.6884
 2505TIP3    H229075   2.606   4.057   7.038  2.5793 -0.6881 -1.2407
 2506TIP3   OH229076   2.390   6.194   8.477 -0.1245 -0.1909 -0.2617
 2506TIP3    H129077   2.397   6.246   8.557  0.5727 -0.6060 -0.0371
 2506TIP3    H229078   2.464   6.222   8.423 -0.9399  0.5262 -1.0455
 2507TIP3   OH229079   2.731   3.079   0.227  0.2723  0.2037 -0.9751
 2507TIP3    H129080   2.798   3.057   0.292 -1.1562 -1.8542 -0.0682
 2507TIP3    H229081   2.665   3.128   0.277  0.0042  0.1474 -1.2714
 2508TIP3   OH229082   2.300   0.814   0.956 -0.3632 -0.3261  0.5571
 2508TIP3    H129083   2.300   0.798   1.050 -1.3063  0.2406  0.6741
 2508TIP3    H229084   2.367   0.881   0.943  2.0988 -2.6636  0.3445
 2509TIP3   OH229085   1.333   0.046   8.566  0.5725 -0.5069 -0.2404
 2509TIP3    H129086   1.272   0.053   8.492  0.3188  2.3422  0.1250
 2509TIP3    H229087   1.379   0.130   8.566  3.0270 -1.7612  0.8042
 2510TIP3   OH229088   5.425   3.837   1.759  0.4430 -0.6192 -0.3859
 2510TIP3    H129089   5.334   3.856   1.737  0.0427 -2.1946 -0.2048
 2510TIP3    H229090   5.427   3.841   1.855 -0.0140 -2.8105 -0.2349
 2511TIP3   OH229091   1.527   0.748   1.280  0.0742 -0.4760  0.1427
 2511TIP3    H129092   1.508   0.840   1.258 -1.1874 -0.4811  1.0786
 2511TIP3    H229093   1.516   0.743   1.375  2.9456 -0.9985  0.5236
 2512TIP3   OH229094   2.346   3.737   8.264 -0.1687  0.5237 -1.0012
 2512TIP3    H129095   2.370   3.693   8.183  0.4905 -2.2988  0.6193
 2512TIP3    H229096   2.250   3.744   8.260 -0.1577  0.2620 -1.9105
 2513TIP3   OH229097   6.124   4.481   8.193  0.2137 -0.1098 -1.3485
 2513TIP3    H129098   6.105   4.389   8.175 -1.1462  0.0323 -0.7614
 2513TIP3    H229099   6.196   4.478   8.257 -1.1682 -0.8569  0.2401
 2514TIP3   OH229100   0.454   2.029   1.164 -0.8247 -0.1415 -0.4705
 2514TIP3    H129101   0.480   2.107   1.115  1.1926 -1.2671 -1.3068
 2514TIP3    H229102   0.410   1.973   1.100 -0.1787 -0.6633 -0.4759
 2515TIP3   OH229103   5.812   6.195   1.832  0.2179  0.0411 -0.4817
 2515TIP3    H129104   5.729   6.217   1.875  0.7241  0.7796  0.1505
 2515TIP3    H229105   5.809   6.241   1.748 -1.6656 -3.0119 -2.2997
 2516TIP3   OH229106   5.671   1.652   7.302  0.4477  0.2315  0.7671
 2516TIP3    H129107   5.711   1.565   7.302  0.1714  0.1042  1.0554
 2516TIP3    H229108   5.742   1.711   7.276  0.6629 -0.0670  0.6800
 2517TIP3   OH229109   2.501   2.901   1.247  0.1010 -0.6192 -0.6220
 2517TIP3    H129110   2.507   2.993   1.224  1.1492 -0.9753 -1.9141
 2517TIP3    H229111   2.435   2.865   1.187 -0.3724 -0.6877 -0.0603
 2518TIP3   OH229112   4.982   0.369   1.114  0.6564 -0.4092 -0.2243
 2518TIP3    H129113   4.892   0.343   1.132 -0.0018  2.3796  0.9060
 2518TIP3    H229114   5.012   0.410   1.195  2.3486  0.2932 -1.1554
 2519TIP3   OH229115   1.506   1.357   0.998  0.2318  0.5627  0.4134
 2519TIP3    H129116   1.493   1.440   1.044 -1.5683 -0.0087  1.0351
 2519TIP3    H229117   1.571   1.311   1.050  2.0337  1.9366 -0.4991
 2520TIP3   OH229118   5.621   4.925   2.059  0.1306 -0.7867  0.1021
 2520TIP3    H129119   5.537   4.880   2.057  0.6757 -1.9286  1.1876
 2520TIP3    H229120   5.602   5.014   2.031 -1.0325 -1.6095 -1.9053
 2521TIP3   OH229121   3.430   2.891   1.242 -0.3432  0.4600 -0.2023
 2521TIP3    H129122   3.410   2.920   1.152  1.1649 -1.5265 -1.2649
 2521TIP3    H229123   3.512   2.936   1.263 -0.3196  0.3723 -0.1103
 2522TIP3   OH229124   6.058   3.387   8.176 -0.5087 -0.1696  0.3390
 2522TIP3    H129125   5.992   3.321   8.154 -1.3307  0.6464  0.3090
 2522TIP3    H229126   6.139   3.354   8.135 -0.8668 -1.2142  0.4328
 2523TIP3   OH229127   4.602   3.194   0.065  0.2765  0.3147 -0.3584
 2523TIP3    H129128   4.540   3.210   0.136  0.2005 -0.9069 -0.1367
 2523TIP3    H229129   4.631   3.104   0.078  1.0856  0.4347 -1.2473
 2524TIP3   OH229130   1.388   2.209   8.528  0.5526 -0.7751  0.2850
 2524TIP3    H129131   1.386   2.150   8.453  2.0833 -1.4376  0.7328
 2524TIP3    H229132   1.297   2.213   8.558  0.3664 -2.6708  0.0696
 2525TIP3   OH229133   4.252   0.321   0.025 -0.1784  0.0194  1.0028
 2525TIP3    H129134   4.239   0.283  -0.063 -1.8974 -1.3660  1.7908
 2525TIP3    H229135   4.173   0.371   0.041  1.2338  2.4863  0.7954
 2526TIP3   OH229136   1.949   0.132   0.351 -0.1056 -0.1901 -0.5473
 2526TIP3    H129137   1.878   0.187   0.385  0.2518  0.0677 -0.2002
 2526TIP3    H229138   1.974   0.077   0.426  0.4226  0.1045 -0.5034
 2527TIP3   OH229139   6.622   3.306   7.795  0.2094  0.2373 -0.4357
 2527TIP3    H129140   6.647   3.243   7.862  0.1085  1.8165  1.1609
 2527TIP3    H229141   6.531   3.286   7.776  0.6452 -1.1645 -1.2541
 2528TIP3   OH229142   6.074   6.647   0.372  0.0551  0.0843 -0.1529
 2528TIP3    H129143   6.048   6.568   0.419  0.0284 -0.1214 -0.5161
 2528TIP3    H229144   6.049   6.719   0.431  0.0232 -0.1730  0.1483
 2529TIP3   OH229145   2.620   0.956   2.037 -0.1239  0.4649  0.4765
 2529TIP3    H129146   2.690   0.986   1.979 -1.0087  0.9945 -0.3466
 2529TIP3    H229147   2.619   0.861   2.028  2.0121  0.1816  2.2988
 2530TIP3   OH229148   5.079   2.567   2.116  0.0778  0.0177 -0.3782
 2530TIP3    H129149   5.080   2.482   2.073  0.2196 -0.4294  0.4805
 2530TIP3    H229150   4.988   2.577   2.147 -0.3942  0.9530 -1.9235
 2531TIP3   OH229151   6.374   6.447   0.126 -0.0907 -0.3049 -0.0738
 2531TIP3    H129152   6.436   6.515   0.154 -0.1112 -0.9878  1.8169
 2531TIP3    H229153   6.427   6.367   0.123 -0.3863 -0.4765 -0.7847
 2532TIP3   OH229154   2.923   2.863   6.748  0.1784 -0.0507  0.4382
 2532TIP3    H129155   2.841   2.833   6.707  0.4817 -0.0508 -0.1849
 2532TIP3    H229156   2.978   2.784   6.752  0.2243 -0.0073  0.6699
 2533TIP3   OH229157   4.608   0.267   8.395 -0.2382  0.4490  0.5618
 2533TIP3    H129158   4.536   0.208   8.417 -0.4549  0.5052  0.0183
 2533TIP3    H229159   4.577   0.315   8.318 -0.6165  2.2380  1.7698
 2534TIP3   OH229160   5.497   0.745   0.500 -0.3897  0.3537 -0.1172
 2534TIP3    H129161   5.406   0.744   0.531 -0.1961  2.3329  0.6519
 2534TIP3    H229162   5.548   0.718   0.577 -0.2409  0.2628 -0.2474
 2535TIP3   OH229163   1.857   1.189   6.946  0.1235 -0.1496  0.3550
 2535TIP3    H129164   1.852   1.192   6.851 -0.8650 -0.3001  0.3856
 2535TIP3    H229165   1.928   1.249   6.969 -1.0495  1.6126 -0.3980
 2536TIP3   OH229166   5.382   3.744   7.888 -0.2642 -0.3756  0.0907
 2536TIP3    H129167   5.394   3.724   7.980  0.6597  0.5661  0.1888
 2536TIP3    H229168   5.348   3.834   7.886  3.5425  1.2456 -0.5332
 2537TIP3   OH229169   2.354   1.322   7.420  0.3014 -0.3151  0.6627
 2537TIP3    H129170   2.413   1.304   7.493 -0.1510  0.5696  1.2527
 2537TIP3    H229171   2.279   1.365   7.459 -0.5769 -1.0717 -0.1382
 2538TIP3   OH229172   1.327   3.980   6.667  0.6052  0.4183 -0.3718
 2538TIP3    H129173   1.423   3.987   6.662  0.7119 -0.5421  0.0721
 2538TIP3    H229174   1.297   4.008   6.581  1.2953  0.5157 -0.5927
 2539TIP3   OH229175   3.841   5.029   7.774 -0.2540  0.0318  0.3239
 2539TIP3    H129176   3.787   5.081   7.713 -1.1585 -0.3498  0.7889
 2539TIP3    H229177   3.919   5.083   7.787 -1.2044  1.3290  0.8486
 2540TIP3   OH229178   2.990   1.445   7.927  0.3185  0.7673  0.3625
 2540TIP3    H129179   2.961   1.486   7.846 -0.8231 -0.0029  0.3678
 2540TIP3    H229180   3.072   1.489   7.948  1.1821  0.2868 -1.7490
 2541TIP3   OH229181   1.131   3.419   7.060  0.1053 -0.3131 -0.4887
 2541TIP3    H129182   1.160   3.492   7.115 -0.4906 -1.4137  1.3827
 2541TIP3    H229183   1.113   3.459   6.975 -1.0560  1.9122  0.6974
 2542TIP3   OH229184   3.155   5.803   7.092  0.4376 -0.1221  1.0292
 2542TIP3    H129185   3.141   5.709   7.076 -0.0331 -0.3876  2.7280
 2542TIP3    H229186   3.250   5.812   7.099  0.6788  0.0114 -1.5135
 2543TIP3   OH229187   1.392   0.955   1.701 -0.6106  0.0625  0.3009
 2543TIP3    H129188   1.430   0.892   1.640 -2.1253 -0.3297 -0.2821
 2543TIP3    H229189   1.357   0.903   1.772 -0.7721  0.3393  0.4283
 2544TIP3   OH229190   6.064   4.927   7.735  0.8876  0.4145 -0.0960
 2544TIP3    H129191   6.007   5.004   7.744  0.0711 -0.0708 -0.9198
 2544TIP3    H229192   6.027   4.879   7.661  0.2377 -1.7748  1.5755
 2545TIP3   OH229193   1.505   4.395   2.184  0.4236 -0.5517 -0.1618
 2545TIP3    H129194   1.453   4.474   2.168  1.3674  0.2273  0.4977
 2545TIP3    H229195   1.441   4.331   2.215 -0.5634 -0.4723 -1.9220
 2546TIP3   OH229196   6.687   3.941   0.887 -0.0309  0.2548 -0.5973
 2546TIP3    H129197   6.746   3.999   0.839 -1.1880  2.4112  0.4285
 2546TIP3    H229198   6.640   3.893   0.818  1.5359 -0.0948 -1.4580
 2547TIP3   OH229199   5.150   6.835   1.703 -0.4175  0.1177 -0.2720
 2547TIP3    H129200   5.207   6.790   1.765 -1.0570  0.7458  0.8086
 2547TIP3    H229201   5.164   6.789   1.620 -0.2523 -1.3794  0.5421
 2548TIP3   OH229202   3.837   5.622   1.032 -0.2884  0.1172 -0.4907
 2548TIP3    H129203   3.786   5.702   1.043 -0.3569 -0.1251  1.2857
 2548TIP3    H229204   3.894   5.639   0.957 -0.9810  1.4527 -0.7375
 2549TIP3   OH229205   0.713   1.533   8.203  0.1949 -0.4026 -0.1996
 2549TIP3    H129206   0.650   1.538   8.131 -0.6484  1.3147  0.5873
 2549TIP3    H229207   0.682   1.599   8.266  1.6332 -0.9548  1.1442
 2550TIP3   OH229208   6.672   1.812   7.135 -0.0092  0.4855  0.6817
 2550TIP3    H129209   6.591   1.808   7.187  0.0496  1.4704  0.8636
 2550TIP3    H229210   6.662   1.742   7.070 -1.1952  0.8615  0.4367
 2551TIP3   OH229211   1.075   6.021   6.789 -0.6530 -0.0829  0.0294
 2551TIP3    H129212   1.067   6.087   6.858 -0.5493  0.9891 -0.9564
 2551TIP3    H229213   1.100   6.070   6.711  0.1785 -1.3868 -0.5686
 2552TIP3   OH229214   5.081   4.248   0.232 -0.2484  0.1700 -0.2742
 2552TIP3    H129215   5.078   4.268   0.138  1.2393  0.1175 -0.3641
 2552TIP3    H229216   4.990   4.251   0.260 -0.6180  1.3103 -1.4794
 2553TIP3   OH229217   0.990   2.161   6.890 -0.4251  0.5525 -0.2945
 2553TIP3    H129218   0.931   2.151   6.816 -0.5715 -0.6878 -0.0305
 2553TIP3    H229219   1.078   2.155   6.853 -0.4459  2.0319 -0.6361
 2554TIP3   OH229220   4.860   4.669   1.288 -0.1533 -0.3393  0.0300
 2554TIP3    H129221   4.788   4.731   1.282  0.0004 -0.2750 -1.3665
 2554TIP3    H229222   4.837   4.599   1.227  1.3851  0.1520 -1.1795
 2555TIP3   OH229223   6.074   5.731   8.586  0.2786  0.0709 -0.3215
 2555TIP3    H129224   6.005   5.702   8.527  1.3344 -1.9888 -0.6045
 2555TIP3    H229225   6.117   5.651   8.615  1.8034  1.2287  0.7828
 2556TIP3   OH229226   0.770   5.528   0.279  0.7230  0.5373 -0.1167
 2556TIP3    H129227   0.710   5.527   0.354  1.4117  0.3160  0.4496
 2556TIP3    H229228   0.735   5.462   0.219  1.4473 -1.0154  1.0740
 2557TIP3   OH229229   1.175   1.854   8.496 -1.0454  0.4789  0.5912
 2557TIP3    H129230   1.202   1.762   8.508  0.3060  0.8401  0.5397
 2557TIP3    H229231   1.096   1.863   8.549 -0.3781 -0.3512  1.7722
 2558TIP3   OH229232   2.999   0.680   6.752  0.7520  0.0412  0.1674
 2558TIP3    H129233   2.961   0.640   6.830  0.2434 -0.8775 -0.5356
 2558TIP3    H229234   3.090   0.651   6.752  0.9864  0.7535  0.8762
 2559TIP3   OH229235   2.228   5.410   2.056  0.2216  0.4577  0.2583
 2559TIP3    H129236   2.225   5.365   1.972  0.2257  0.8318  0.0512
 2559TIP3    H229237   2.137   5.422   2.081  0.2269 -1.4486  1.3070
 2560TIP3   OH229238   0.768   6.106   1.604  0.0872 -0.1846 -0.2730
 2560TIP3    H129239   0.854   6.132   1.635 -0.1061  0.4358 -0.2280
 2560TIP3    H229240   0.744   6.031   1.658  0.8339 -0.7128 -0.6715
 2561TIP3   OH229241   5.372   3.223   0.195 -0.2331  0.0727 -0.4827
 2561TIP3    H129242   5.458   3.184   0.179  1.6598  3.1254  1.3718
 2561TIP3    H229243   5.354   3.205   0.287 -1.4913 -0.2378 -0.7627
 2562TIP3   OH229244   6.048   3.502   7.496  0.6833 -0.6095 -0.4959
 2562TIP3    H129245   5.962   3.475   7.463  0.5424 -2.0512  0.9312
 2562TIP3    H229246   6.091   3.543   7.420 -1.8222  1.6363 -0.8657
 2563TIP3   OH229247   6.104   1.636   0.916  0.2529  0.3265  0.2311
 2563TIP3    H129248   6.015   1.671   0.911 -0.0241 -0.2630  0.8473
 2563TIP3    H229249   6.107   1.568   0.849  0.3042  0.4727  0.0833
 2564TIP3   OH229250   0.158   2.030   1.395  0.1874 -0.1688  0.6964
 2564TIP3    H129251   0.247   2.056   1.418  1.5655 -1.4227 -2.6162
 2564TIP3    H229252   0.168   1.940   1.364 -2.3293 -0.4450  0.5446
 2565TIP3   OH229253   5.430   2.134   0.309  0.5225 -0.1128  0.0522
 2565TIP3    H129254   5.450   2.175   0.394 -3.0620 -0.3189  1.1760
 2565TIP3    H229255   5.432   2.040   0.327  1.7273 -0.2419 -0.6671
 2566TIP3   OH229256   4.442   1.855   1.488 -0.6162 -0.1797  0.0593
 2566TIP3    H129257   4.473   1.835   1.576 -0.6038 -0.3663  0.0119
 2566TIP3    H229258   4.346   1.856   1.495 -0.6052  1.4559  0.4470
 2567TIP3   OH229259   5.013   2.964   7.532 -0.2406  0.1146 -0.2954
 2567TIP3    H129260   4.920   2.977   7.546 -0.2349  0.7580 -0.7796
 2567TIP3    H229261   5.027   2.986   7.440  0.2226 -0.9963 -0.5100
 2568TIP3   OH229262   6.155   1.080   0.890 -0.2280  0.2386  0.2686
 2568TIP3    H129263   6.154   1.093   0.985  1.4578 -0.9196  0.4979
 2568TIP3    H229264   6.071   1.114   0.860 -0.9817  0.2348  2.2258
 2569TIP3   OH229265   3.046   2.375   8.516 -0.2196 -0.1450 -0.4519
 2569TIP3    H129266   2.980   2.340   8.576  0.7043 -0.3739  0.4608
 2569TIP3    H229267   3.099   2.433   8.571  0.4970 -0.1691 -1.1134
 2570TIP3   OH229268   4.123   3.438   1.766 -0.0142  0.2447  0.1273
 2570TIP3    H129269   4.207   3.393   1.755 -0.8102 -1.0200 -1.3333
 2570TIP3    H229270   4.059   3.376   1.730 -1.5475  1.2850  0.9578
 2571TIP3   OH229271   6.099   1.704   6.986  0.1193  0.1115 -0.3325
 2571TIP3    H129272   6.126   1.796   6.982  0.6037 -0.0516 -1.4191
 2571TIP3    H229273   6.115   1.678   7.076 -0.1149  1.1190  0.0127
 2572TIP3   OH229274   4.860   6.200   8.189 -0.0959 -0.4839  0.0350
 2572TIP3    H129275   4.870   6.235   8.278  0.0042  0.1048 -0.1988
 2572TIP3    H229276   4.855   6.105   8.201  3.5569 -0.8023  0.4184
 2573TIP3   OH229277   4.476   5.552   0.963  0.1858  0.5032 -0.0724
 2573TIP3    H129278   4.526   5.624   1.002  0.9100 -0.1575  0.2538
 2573TIP3    H229279   4.521   5.532   0.882  0.4634 -0.0913  0.2194
 2574TIP3   OH229280   6.832   5.715   8.004  0.7337  0.2499 -0.1353
 2574TIP3    H129281   6.793   5.646   7.950  0.2892 -0.3132  0.8735
 2574TIP3    H229282   6.834   5.792   7.947  0.3969 -0.3532 -0.9862
 2575TIP3   OH229283   0.741   5.400   8.611  0.2505 -0.2104  0.1294
 2575TIP3    H129284   0.775   5.487   8.592  1.6943 -0.7888 -0.0791
 2575TIP3    H229285   0.654   5.415   8.648  0.1988  1.2713 -0.5426
 2576TIP3   OH229286   1.754   4.385   7.740  0.4141 -0.5826  0.6837
 2576TIP3    H129287   1.688   4.374   7.808 -0.3782 -1.6846 -0.2315
 2576TIP3    H229288   1.759   4.480   7.726 -1.4864 -0.4993  0.2955
 2577TIP3   OH229289   4.981   1.352   8.370 -0.4259 -0.0006  0.3284
 2577TIP3    H129290   4.957   1.419   8.433  0.9992 -0.0935  1.0265
 2577TIP3    H229291   5.055   1.306   8.412 -1.3626 -2.0103 -0.1062
 2578TIP3   OH229292   1.591   3.599   8.135 -0.4757  0.5574 -0.4602
 2578TIP3    H129293   1.586   3.512   8.174 -2.6418  0.3768 -1.0203
 2578TIP3    H229294   1.668   3.640   8.176 -0.4854 -0.9514  1.1575
 2579TIP3   OH229295   4.390   6.490   1.051  0.4443  0.2561  0.4009
 2579TIP3    H129296   4.374   6.439   1.131 -3.2449  2.6103  1.4063
 2579TIP3    H229297   4.455   6.555   1.076  1.5242 -0.8456  0.5393
 2580TIP3   OH229298   6.475   2.039   0.855  0.0201  0.2229 -0.1548
 2580TIP3    H129299   6.545   2.097   0.824  1.5227 -2.2136 -1.6940
 2580TIP3    H229300   6.477   1.965   0.794 -3.6885 -0.1718 -0.0089
 2581TIP3   OH229301   5.808   3.404   2.291  0.1691  0.2292 -0.1135
 2581TIP3    H129302   5.768   3.467   2.351 -0.5250 -2.0313  1.9562
 2581TIP3    H229303   5.753   3.326   2.299  1.2193 -0.8198 -2.2745
 2582TIP3   OH229304   0.183   2.091   2.563  0.2574  0.3758 -0.7866
 2582TIP3    H129305   0.139   2.176   2.552  2.2755  1.5586 -0.2627
 2582TIP3    H229306   0.220   2.094   2.651  0.3864 -1.0604 -0.7706
 2583TIP3   OH229307   0.045   5.716   8.658 -0.3975 -0.4121 -0.0395
 2583TIP3    H129308  -0.018   5.648   8.633  0.3264 -2.2058  2.6136
 2583TIP3    H229309   0.044   5.716   8.754  2.3397  0.7435  0.0795
 2584TIP3   OH229310   2.138   6.631   7.276 -0.2589  0.0005 -0.1363
 2584TIP3    H129311   2.068   6.566   7.265 -0.0154 -0.3076  0.1012
 2584TIP3    H229312   2.104   6.692   7.342  0.0987 -0.7398  0.7662
 2585TIP3   OH229313   5.396   2.244   0.070 -0.5721  0.2548  0.3636
 2585TIP3    H129314   5.311   2.201   0.058 -0.4124  0.1531 -0.4329
 2585TIP3    H229315   5.433   2.202   0.148 -0.5783 -0.8227 -0.1906
 2586TIP3   OH229316   5.505   5.189   1.538  0.0623 -0.5878 -0.5135
 2586TIP3    H129317   5.447   5.265   1.534  1.3648  0.7354  2.5109
 2586TIP3    H229318   5.583   5.215   1.490  0.0758 -0.4323 -0.4074
 2587TIP3   OH229319   0.002   4.006   8.522 -0.3823 -0.5685 -0.0838
 2587TIP3    H129320   0.014   3.911   8.528 -1.8503 -0.8579 -1.2386
 2587TIP3    H229321  -0.052   4.019   8.444 -2.1309  1.0366  1.2965
 2588TIP3   OH229322   6.370   6.624   0.464  0.2570 -0.1559  0.3404
 2588TIP3    H129323   6.360   6.589   0.553  0.8909  1.2455  1.0075
 2588TIP3    H229324   6.286   6.608   0.422 -0.9608  1.3658  2.0569
 2589TIP3   OH229325   4.063   0.799   6.993 -0.4662  0.5518  0.4238
 2589TIP3    H129326   4.095   0.884   7.023  0.5847 -0.2862  1.8329
 2589TIP3    H229327   3.985   0.782   7.045 -0.4258  0.4609  0.4547
 2590TIP3   OH229328   3.404   0.787   0.487  0.7340  0.2092  0.2045
 2590TIP3    H129329   3.348   0.743   0.423 -1.4255 -0.6691  2.5655
 2590TIP3    H229330   3.460   0.844   0.434 -1.1785 -0.1713 -2.4184
 2591TIP3   OH229331   1.954   4.631   2.241 -0.9762  0.3418 -0.1599
 2591TIP3    H129332   1.970   4.686   2.164 -1.0544  1.0200  0.3023
 2591TIP3    H229333   1.859   4.620   2.244 -0.9163 -0.3949 -0.6378
 2592TIP3   OH229334   5.880   3.482   1.434 -0.6416 -0.2498 -0.1719
 2592TIP3    H129335   5.877   3.520   1.522  2.5877 -1.5609  0.6620
 2592TIP3    H229336   5.935   3.542   1.384 -0.0701 -0.9642 -0.4203
 2593TIP3   OH229337   0.966   4.152   1.240 -0.0607 -0.0754 -0.1266
 2593TIP3    H129338   0.999   4.239   1.217  0.4064 -0.2196 -0.0138
 2593TIP3    H229339   0.874   4.166   1.260 -0.0922  0.3202 -0.5331
 2594TIP3   OH229340   6.624   0.206   1.706  0.1405 -0.3231 -0.1540
 2594TIP3    H129341   6.712   0.206   1.743  0.0826 -0.9141 -0.0127
 2594TIP3    H229342   6.566   0.194   1.781 -0.1781  1.6956 -0.0180
 2595TIP3   OH229343   5.184   6.841   7.359  0.1289 -0.3330  0.1102
 2595TIP3    H129344   5.146   6.916   7.405  1.1355 -0.1149  0.6301
 2595TIP3    H229345   5.252   6.879   7.303  2.2613 -0.9809  2.0743
 2596TIP3   OH229346   4.921   1.752   0.349  0.2246 -0.4074 -0.2472
 2596TIP3    H129347   4.866   1.723   0.421 -0.1635 -0.4333 -0.5488
 2596TIP3    H229348   4.862   1.798   0.290  1.0012  1.9013  0.7002
 2597TIP3   OH229349   3.830   5.828   0.798 -0.1414 -0.3882  0.1967
 2597TIP3    H129350   3.802   5.797   0.711  1.6942 -1.5342 -0.0248
 2597TIP3    H229351   3.757   5.883   0.827 -0.4796  0.7395 -2.4232
 2598TIP3   OH229352   5.578   1.513   1.657  0.1336  0.1813 -0.2325
 2598TIP3    H129353   5.571   1.609   1.653  0.3765  0.1722 -0.9438
 2598TIP3    H229354   5.672   1.496   1.655  0.0833 -0.0838 -0.3916
 2599TIP3   OH229355   0.339   1.294   8.280 -0.1724  0.0750 -0.0845
 2599TIP3    H129356   0.351   1.346   8.358 -0.0431  1.0377 -0.7311
 2599TIP3    H229357   0.425   1.294   8.237 -0.7483  1.4317 -1.3405
 2600TIP3   OH229358   3.506   4.531   0.735 -0.2526  0.4020 -0.4799
 2600TIP3    H129359   3.443   4.500   0.670 -0.6605  0.4848 -0.1250
 2600TIP3    H229360   3.473   4.617   0.761  0.1319  0.5444 -0.4594
 2601TIP3   OH229361   2.944   5.225   0.919 -0.3664 -0.0534  0.4520
 2601TIP3    H129362   3.019   5.167   0.931  0.2647  0.7360  0.3608
 2601TIP3    H229363   2.932   5.267   1.004 -0.7097 -0.1597  0.4623
 2602TIP3   OH229364   4.139   3.144   8.016 -0.0367  0.1993  0.5660
 2602TIP3    H129365   4.153   3.234   7.985  1.5360  0.2844  1.4479
 2602TIP3    H229366   4.111   3.154   8.107  1.8027 -0.2118  1.2193
 2603TIP3   OH229367   2.586   6.358   7.039 -0.0842  0.3747  0.0218
 2603TIP3    H129368   2.547   6.316   7.115  0.9358 -0.5378  0.0754
 2603TIP3    H229369   2.681   6.349   7.053  0.1493 -1.1059 -2.0098
 2604TIP3   OH229370   0.522   0.036   7.767  0.2540  0.2829 -0.0610
 2604TIP3    H129371   0.596  -0.009   7.808 -0.9977 -1.4778  0.3301
 2604TIP3    H229372   0.556   0.124   7.747  2.3581 -0.3940  0.3305
 2605TIP3   OH229373   2.318   2.118   0.761  0.0246  0.3474 -0.1326
 2605TIP3    H129374   2.282   2.097   0.847 -0.3655  0.7196 -0.2024
 2605TIP3    H229375   2.332   2.212   0.763  1.9068  0.1120  0.2332
 2606TIP3   OH229376   4.721   6.671   0.023 -0.5442  0.2442 -0.0814
 2606TIP3    H129377   4.716   6.713   0.109 -1.1928  0.0080  0.0065
 2606TIP3    H229378   4.765   6.588   0.040 -1.5382 -0.2408  0.2106
 2607TIP3   OH229379   3.863   3.909   7.290 -0.8619  0.3426  0.0448
 2607TIP3    H129380   3.817   3.870   7.216 -1.4714  0.8478  0.1436
 2607TIP3    H229381   3.794   3.946   7.344 -0.2974  2.2424 -0.4463
 2608TIP3   OH229382   5.422   4.430   7.873 -0.0018 -0.1193 -0.5071
 2608TIP3    H129383   5.505   4.475   7.888 -0.9879  1.4481  0.5775
 2608TIP3    H229384   5.397   4.395   7.959  0.0436 -1.5322 -1.0456
 2609TIP3   OH229385   5.307   2.700   0.105  0.3301 -0.5198  0.9972
 2609TIP3    H129386   5.382   2.656   0.066  1.3715  2.8461 -1.1455
 2609TIP3    H229387   5.343   2.779   0.145 -1.9655  0.8020  0.6104
 2610TIP3   OH229388   4.199   2.151   8.547  0.4873 -0.4932 -0.0603
 2610TIP3    H129389   4.145   2.096   8.491  0.3984 -0.4945  0.0271
 2610TIP3    H229390   4.209   2.101   8.628  0.3579 -0.3573  0.0417
 2611TIP3   OH229391   2.821   1.028   7.965 -0.2973  0.1351  0.2171
 2611TIP3    H129392   2.811   1.097   7.899  0.6222 -0.2769 -0.3655
 2611TIP3    H229393   2.799   0.947   7.919  0.4285 -0.1656  0.3896
 2612TIP3   OH229394   2.031   6.365   0.345  0.2110  0.9058 -0.3537
 2612TIP3    H129395   2.034   6.270   0.336  0.5448  0.7699  0.9396
 2612TIP3    H229396   1.979   6.394   0.271  0.3985 -0.2526 -0.9707
 2613TIP3   OH229397   3.606   1.600   7.110 -0.3434  0.3929 -0.8135
 2613TIP3    H129398   3.519   1.613   7.074  0.3153  1.6721 -2.0438
 2613TIP3    H229399   3.653   1.550   7.043 -0.0472  0.0035 -0.3170
 2614TIP3   OH229400   5.272   4.411   1.761  0.5905  0.5642 -0.5762
 2614TIP3    H129401   5.325   4.488   1.782  0.1743  0.7059 -0.0208
 2614TIP3    H229402   5.216   4.398   1.837  0.1359  0.1511 -0.9666
 2615TIP3   OH229403   2.120   4.176   8.365 -0.3596  0.2319 -0.0036
 2615TIP3    H129404   2.168   4.219   8.436 -0.7846  0.7781 -0.0379
 2615TIP3    H229405   2.186   4.161   8.297 -0.0888  0.3051  0.2405
 2616TIP3   OH229406   5.628   4.854   7.900  0.4166  0.0302  0.5548
 2616TIP3    H129407   5.709   4.884   7.860 -1.2044  2.7249 -0.9515
 2616TIP3    H229408   5.619   4.907   7.979  0.7508 -1.2805  1.5214
 2617TIP3   OH229409   2.483   2.997   7.050 -0.7112  0.6823  0.1881
 2617TIP3    H129410   2.563   2.945   7.056 -2.1933 -1.6701  0.6868
 2617TIP3    H229411   2.466   3.004   6.956  0.6517  2.2456  0.0057
 2618TIP3   OH229412   6.616   3.058   1.305 -0.0578 -0.4221  0.0271
 2618TIP3    H129413   6.606   3.066   1.210 -0.6010 -0.6976  0.0588
 2618TIP3    H229414   6.668   2.978   1.316  3.2872  1.5082 -0.1800
 2619TIP3   OH229415   5.529   3.090   1.788 -0.6351 -0.5996  0.3539
 2619TIP3    H129416   5.539   3.072   1.694  1.4629 -2.8359  0.9040
 2619TIP3    H229417   5.469   3.022   1.819  1.5198 -2.2890  1.1584
 2620TIP3   OH229418   5.807   4.155   8.514  0.4535  0.3934 -0.3266
 2620TIP3    H129419   5.829   4.125   8.426 -1.8333  2.9936 -1.9568
 2620TIP3    H229420   5.818   4.250   8.511  1.9687  0.4723  2.8148
 2621TIP3   OH229421   5.235   1.584   6.364 -0.7439 -0.8076  0.0621
 2621TIP3    H129422   5.251   1.503   6.412  2.1287 -0.3872 -0.0284
 2621TIP3    H229423   5.317   1.602   6.319 -2.5239  0.1258 -3.0973
 2622TIP3   OH229424   6.166   2.287   1.927  0.2014  0.2954  0.0172
 2622TIP3    H129425   6.151   2.361   1.985 -0.0336  1.6490 -1.6914
 2622TIP3    H229426   6.158   2.210   1.983  0.3338  1.5467  1.8184
 2623TIP3   OH229427   3.970   1.057   0.815  0.4365 -0.1198 -0.2318
 2623TIP3    H129428   4.050   1.107   0.802 -0.7198  2.0467  0.4508
 2623TIP3    H229429   3.928   1.056   0.729  0.4485  0.1275 -0.2406
 2624TIP3   OH229430   2.220   1.879   1.956 -0.1582  0.7149 -0.5669
 2624TIP3    H129431   2.199   1.972   1.961  0.8891  0.9086  0.6547
 2624TIP3    H229432   2.230   1.852   2.047 -0.1391 -0.5261 -0.9218
 2625TIP3   OH229433   2.680   4.682   8.586 -0.5021 -0.9601 -0.2942
 2625TIP3    H129434   2.742   4.676   8.514  0.0924 -0.4643  0.1729
 2625TIP3    H229435   2.716   4.749   8.644 -1.2961 -0.9040  0.1503
 2626TIP3   OH229436   6.760   1.219   2.628 -0.2454  0.4421  0.3977
 2626TIP3    H129437   6.676   1.184   2.657  0.1062 -0.8055 -0.0101
 2626TIP3    H229438   6.758   1.210   2.533  0.1162  0.9684  0.3345
 2627TIP3   OH229439   2.964   5.120   2.211  0.8382 -0.2669  0.2917
 2627TIP3    H129440   2.991   5.204   2.250  1.2112 -0.5179  0.5786
 2627TIP3    H229441   2.921   5.073   2.283 -2.1258  0.8523 -0.5658
 2628TIP3   OH229442   2.577   6.267   7.711  0.1877 -0.0796  0.4554
 2628TIP3    H129443   2.579   6.233   7.800 -1.2676 -0.1313  0.4965
 2628TIP3    H229444   2.494   6.314   7.705  0.0227 -0.4944 -1.0098
 2629TIP3   OH229445   2.760   3.381   1.644 -0.3231 -0.4389 -0.1555
 2629TIP3    H129446   2.767   3.466   1.688  0.8614 -0.8279  0.4539
 2629TIP3    H229447   2.758   3.318   1.715  0.2889 -1.0052 -0.6317
 2630TIP3   OH229448   3.235   6.642   8.095 -0.3589  0.3246  0.5295
 2630TIP3    H129449   3.297   6.652   8.023 -0.4272 -2.4465 -0.0481
 2630TIP3    H229450   3.193   6.728   8.103  1.1491  1.3169 -1.3022
 2631TIP3   OH229451   4.639   2.305   8.257 -0.1366 -0.8131  0.4156
 2631TIP3    H129452   4.651   2.399   8.246 -0.9072 -0.9566 -2.4097
 2631TIP3    H229453   4.601   2.296   8.344  2.4814  1.1859  1.9273
 2632TIP3   OH229454   5.046   3.246   1.964  0.8109  0.1311 -0.2776
 2632TIP3    H129455   5.141   3.256   1.957  0.6561  1.6801 -0.5845
 2632TIP3    H229456   5.033   3.203   2.049  1.7552  0.7057  0.1794
 2633TIP3   OH229457   6.315   2.100   2.912 -0.4060  0.0145  0.4761
 2633TIP3    H129458   6.232   2.147   2.911  1.7540  4.3363  1.3892
 2633TIP3    H229459   6.348   2.105   2.822 -0.5579 -0.6483  0.3752
 2634TIP3   OH229460   0.071   1.593   1.106 -0.2255 -0.1095  0.5291
 2634TIP3    H129461   0.142   1.585   1.042  0.9459  0.1728  1.7382
 2634TIP3    H229462   0.010   1.523   1.084  1.2841 -1.4742  0.4872
 2635TIP3   OH229463   4.090   4.593   1.710 -0.2898 -0.4812  0.8013
 2635TIP3    H129464   4.022   4.526   1.714 -1.2491  0.3330 -0.5852
 2635TIP3    H229465   4.116   4.595   1.618 -0.8559  1.5409  0.6370
 2636TIP3   OH229466   2.980   3.490   8.547  0.5442  0.3062  0.2609
 2636TIP3    H129467   3.006   3.417   8.490  0.6407  0.9503 -0.5349
 2636TIP3    H229468   2.967   3.564   8.488 -0.6561  0.6589  0.9190
 2637TIP3   OH229469   1.962   4.988   7.523  0.4379  0.4193  0.1130
 2637TIP3    H129470   1.939   5.066   7.473  0.1482  0.5190  0.4010
 2637TIP3    H229471   1.955   5.015   7.615  0.9144  0.2234  0.2088
 2638TIP3   OH229472   1.313   0.528   7.745  0.1191 -0.3247 -0.5169
 2638TIP3    H129473   1.260   0.577   7.683  0.9918  1.0422 -0.2160
 2638TIP3    H229474   1.250   0.493   7.808 -0.3882  2.0208  0.3570
 2639TIP3   OH229475   0.054   5.171   0.735 -0.0536  0.0447  0.0946
 2639TIP3    H129476   0.085   5.097   0.788  0.6257 -0.4376 -0.9496
 2639TIP3    H229477   0.131   5.226   0.723 -0.3879  0.5527  0.2461
 2640TIP3   OH229478   5.424   3.176   8.458 -0.4518 -0.2358  0.9214
 2640TIP3    H129479   5.395   3.135   8.540  1.8674 -1.8535  1.0424
 2640TIP3    H229480   5.501   3.125   8.432 -0.3318  1.0753 -1.5843
 2641TIP3   OH229481   0.725   6.207   8.523 -0.0839  0.1015  0.0752
 2641TIP3    H129482   0.645   6.260   8.527  0.2412  0.5603  0.7800
 2641TIP3    H229483   0.773   6.242   8.448  0.1308  0.8147  0.5397
 2642TIP3   OH229484   5.968   4.931   0.633 -0.7663 -0.3049 -0.7447
 2642TIP3    H129485   5.975   4.996   0.563  0.5957  0.0380 -0.3151
 2642TIP3    H229486   6.006   4.852   0.596  1.8819  0.4254  0.2252
 2643TIP3   OH229487   5.880   0.682   1.010 -0.4097 -0.7852  0.2225
 2643TIP3    H129488   5.901   0.756   1.067  0.8259  0.1932 -1.4114
 2643TIP3    H229489   5.787   0.667   1.023 -0.9521  1.8048 -0.1954
 2644TIP3   OH229490   2.903   1.067   0.918  0.0895  0.0084 -0.3117
 2644TIP3    H129491   2.992   1.033   0.926  0.4741  1.3354  1.6140
 2644TIP3    H229492   2.856   1.031   0.993 -0.5751  0.5647 -0.4485
 2645TIP3   OH229493   3.313   6.717   1.426 -0.3480  0.3744  0.0011
 2645TIP3    H129494   3.327   6.629   1.391 -0.3757  1.0306 -1.7968
 2645TIP3    H229495   3.317   6.707   1.521  2.6725 -1.0800 -0.1699
 2646TIP3   OH229496   0.187   3.142   7.458 -0.1451 -0.3698  0.0864
 2646TIP3    H129497   0.233   3.077   7.512 -0.2271 -1.2990 -0.9231
 2646TIP3    H229498   0.137   3.194   7.521  0.1193 -1.1243  0.9477
 2647TIP3   OH229499   1.036   4.532   6.778  0.8121 -0.8470 -0.3921
 2647TIP3    H129500   1.121   4.572   6.760  0.2247  0.6659 -0.0104
 2647TIP3    H229501   0.991   4.533   6.694  1.3482 -2.1573 -0.7148
 2648TIP3   OH229502   4.202   1.134   1.820 -0.5895  0.5209 -0.7286
 2648TIP3    H129503   4.188   1.220   1.860 -1.3619  0.0308  0.1072
 2648TIP3    H229504   4.133   1.079   1.858  1.3522 -1.0971  0.6950
 2649TIP3   OH229505   4.005   1.455   8.004 -0.2138  0.4101 -0.9043
 2649TIP3    H129506   3.974   1.545   8.005 -1.4886 -0.0214 -0.0667
 2649TIP3    H229507   3.946   1.409   7.945  0.9289  0.2684 -1.9809
 2650TIP3   OH229508   0.493   4.366   2.070  0.3110  0.3599 -0.2481
 2650TIP3    H129509   0.521   4.274   2.075 -0.4138  0.1569  0.2560
 2650TIP3    H229510   0.402   4.364   2.099  0.4327  1.3148  0.2046
 2651TIP3   OH229511   0.853   5.173   8.509 -0.5599 -0.1026  1.0610
 2651TIP3    H129512   0.787   5.240   8.526 -0.6540  0.2298 -0.4464
 2651TIP3    H229513   0.812   5.114   8.447  0.9807  0.9349 -1.1139
 2652TIP3   OH229514   2.265   5.288   8.221 -0.1452 -0.2604 -0.4416
 2652TIP3    H129515   2.334   5.354   8.213  0.1489 -0.5159 -0.0544
 2652TIP3    H229516   2.206   5.321   8.288 -0.5012  0.0430 -0.8984
 2653TIP3   OH229517   0.805   3.923   0.351 -0.4716 -0.2083 -0.3250
 2653TIP3    H129518   0.828   4.007   0.311 -0.1848 -1.7720 -3.8790
 2653TIP3    H229519   0.710   3.923   0.353 -0.4882  0.0375 -0.8116
 2654TIP3   OH229520   2.160   1.707   1.251  0.0672 -0.6731  0.3202
 2654TIP3    H129521   2.222   1.682   1.319 -1.8710 -1.1750  1.9973
 2654TIP3    H229522   2.201   1.678   1.170  2.7303  0.4479  1.1361
 2655TIP3   OH229523   5.526   2.888   0.129  0.3951  0.0053  0.1334
 2655TIP3    H129524   5.468   2.917   0.059  1.2360 -1.0485 -1.0376
 2655TIP3    H229525   5.580   2.965   0.148  0.2144  0.2783 -0.4313
 2656TIP3   OH229526   2.588   0.442   8.028  0.7248 -0.2716  0.0392
 2656TIP3    H129527   2.504   0.401   8.051 -0.4998  1.4953 -1.0260
 2656TIP3    H229528   2.618   0.484   8.108 -0.7482  1.2371 -0.1424
 2657TIP3   OH229529   5.793   3.698   8.131 -0.0876 -0.2493  0.0535
 2657TIP3    H129530   5.879   3.674   8.097  0.0205 -1.9745  1.4220
 2657TIP3    H229531   5.733   3.633   8.094 -1.0290  1.4437 -1.5991
 2658TIP3   OH229532   2.535   5.855   7.488  0.0758 -0.1821 -0.4061
 2658TIP3    H129533   2.597   5.784   7.503 -0.2833 -0.2897  0.6809
 2658TIP3    H229534   2.453   5.811   7.466 -0.3897 -0.1730  1.1732
 2659TIP3   OH229535   3.864   3.556   7.075 -0.5811 -0.1536  0.3566
 2659TIP3    H129536   3.829   3.646   7.077  1.1754  0.5747  0.4438
 2659TIP3    H229537   3.918   3.554   6.996  1.3005 -0.3301  1.5825
 2660TIP3   OH229538   0.968   5.239   7.575  0.3608 -0.5551 -0.5094
 2660TIP3    H129539   1.036   5.179   7.544  0.1313 -0.3436 -1.4616
 2660TIP3    H229540   0.911   5.184   7.630  1.5819 -0.6044  0.7475
 2661TIP3   OH229541   0.159   2.436   8.624  0.2920  0.1071 -0.1555
 2661TIP3    H129542   0.206   2.508   8.666  2.0229 -0.8974 -0.3078
 2661TIP3    H229543   0.204   2.357   8.653 -1.7629 -0.9967  0.2906
 2662TIP3   OH229544   6.567   1.556   1.824  0.3500 -0.0740 -0.5537
 2662TIP3    H129545   6.538   1.473   1.861  1.3522 -0.8186 -1.4041
 2662TIP3    H229546   6.663   1.553   1.830  0.5496 -0.0954 -2.8695
 2663TIP3   OH229547   0.213   2.589   1.620  0.2982  0.1443  0.1510
 2663TIP3    H129548   0.296   2.541   1.623 -0.6647 -1.7316 -1.4011
 2663TIP3    H229549   0.228   2.666   1.675  2.9220 -0.3439  0.2292
 2664TIP3   OH229550   4.323   1.882   7.426 -0.3205 -0.0130  0.4975
 2664TIP3    H129551   4.326   1.932   7.507  0.5070 -1.2538  1.2856
 2664TIP3    H229552   4.346   1.945   7.358 -0.4798  0.9305  1.2935
 2665TIP3   OH229553   2.656   3.817   0.565 -0.1039 -0.0147  0.5711
 2665TIP3    H129554   2.606   3.746   0.605  0.1429  0.2752  1.4049
 2665TIP3    H229555   2.694   3.865   0.639  0.6591  0.3097 -0.0207
 2666TIP3   OH229556   6.018   6.656   6.838  0.1305 -0.0906  0.3456
 2666TIP3    H129557   6.001   6.583   6.778 -0.3054 -0.3638  0.7886
 2666TIP3    H229558   5.984   6.733   6.792 -0.7187 -0.3808  0.4697
 2667TIP3   OH229559   5.336   1.262   7.327 -0.2439 -0.0345  0.2100
 2667TIP3    H129560   5.372   1.227   7.409 -1.1921 -1.0151  0.2393
 2667TIP3    H229561   5.412   1.286   7.275  0.3821  0.7588  1.4300
 2668TIP3   OH229562   4.110   4.568   1.036  0.1870  0.0926  0.3501
 2668TIP3    H129563   4.158   4.509   1.094  0.6250  0.1985  0.0954
 2668TIP3    H229564   4.167   4.580   0.960 -1.1439 -1.5069 -0.9889
 2669TIP3   OH229565   6.852   3.577   7.612 -0.4824  0.1274  0.8697
 2669TIP3    H129566   6.816   3.647   7.558  1.4175 -1.7842 -3.3369
 2669TIP3    H229567   6.938   3.609   7.640  1.0668 -0.7883 -2.3325
 2670TIP3   OH229568   1.884   0.512   0.367 -0.4746  0.3446  0.0036
 2670TIP3    H129569   1.902   0.445   0.433 -2.4420  0.7160  0.9911
 2670TIP3    H229570   1.897   0.595   0.412  0.1242  0.6243 -0.6721
 2671TIP3   OH229571   6.575   4.166   7.804  0.5926  0.4138  0.2470
 2671TIP3    H129572   6.599   4.205   7.888 -1.4157  0.7637  0.6958
 2671TIP3    H229573   6.544   4.240   7.751  0.3860 -0.0322 -0.2678
 2672TIP3   OH229574   6.390   4.703   8.153  0.2741  0.0027 -1.2121
 2672TIP3    H129575   6.449   4.734   8.084  0.9398  0.9159 -0.2835
 2672TIP3    H229576   6.319   4.660   8.107  2.0595 -1.9041 -2.3897
 2673TIP3   OH229577   0.070   4.949   0.289 -0.3529  0.6813 -0.2939
 2673TIP3    H129578   0.091   4.884   0.356  0.6538  1.1142 -0.1715
 2673TIP3    H229579   0.089   5.033   0.330  0.1988  0.9597 -1.0857
 2674TIP3   OH229580   4.449   2.643   7.975 -0.2746  0.6588  0.3359
 2674TIP3    H129581   4.427   2.557   7.939  0.3544  0.2194  0.9851
 2674TIP3    H229582   4.366   2.689   7.978 -0.8271 -0.3580  1.1335
 2675TIP3   OH229583   0.202   3.759   8.696  1.7058  0.1833 -0.4991
 2675TIP3    H129584   0.216   3.833   8.755  1.5455 -2.4828  3.2172
 2675TIP3    H229585   0.107   3.752   8.689  1.6490 -0.7796  0.8392
 2676TIP3   OH229586   0.263   3.597   7.368  0.1162  0.1993 -0.1636
 2676TIP3    H129587   0.200   3.534   7.334 -0.0357 -0.0568  0.5772
 2676TIP3    H229588   0.277   3.659   7.296 -1.7793  0.8714 -0.0055
 2677TIP3   OH229589   1.581   3.582   7.737 -0.4639 -0.2707  0.5703
 2677TIP3    H129590   1.491   3.598   7.708 -1.2608 -0.8859  2.5443
 2677TIP3    H229591   1.609   3.506   7.686 -0.6990  0.4832 -0.7298
 2678TIP3   OH229592   3.163   4.311   6.808 -0.2733 -0.0991  0.1967
 2678TIP3    H129593   3.087   4.318   6.750  0.1193  0.4634 -0.2611
 2678TIP3    H229594   3.217   4.387   6.786 -0.2872  0.3393  1.5524
 2679TIP3   OH229595   1.798   5.811   1.668  0.4722  0.0669 -0.4972
 2679TIP3    H129596   1.778   5.734   1.720 -0.6694  0.9638  0.4448
 2679TIP3    H229597   1.847   5.778   1.593  2.6951 -1.2265  1.4009
 2680TIP3   OH229598   6.132   5.643   6.751  0.1631 -0.4934 -0.2803
 2680TIP3    H129599   6.211   5.689   6.722  0.5133 -0.3453  0.8845
 2680TIP3    H229600   6.062   5.707   6.737  0.2693 -0.5389 -1.0863
 2681TIP3   OH229601   1.941   4.656   6.806 -0.3415  0.2385  0.1774
 2681TIP3    H129602   2.031   4.686   6.794 -0.2517 -0.2166 -0.3436
 2681TIP3    H229603   1.919   4.679   6.896  0.1407  0.7573  0.1651
 2682TIP3   OH229604   6.166   2.192   0.417 -0.2768  0.4750 -0.0292
 2682TIP3    H129605   6.158   2.174   0.511 -2.1946  0.1512 -0.2101
 2682TIP3    H229606   6.204   2.280   0.413 -1.6083  1.1386  1.1065
 2683TIP3   OH229607   4.737   1.563   7.086 -0.2466  0.7247  0.1114
 2683TIP3    H129608   4.755   1.653   7.060 -0.1194  0.5806 -0.3073
 2683TIP3    H229609   4.719   1.517   7.004 -3.7484  1.1038  0.5460
 2684TIP3   OH229610   2.070   2.073   8.344  0.0090  0.0604  0.7026
 2684TIP3    H129611   1.995   2.086   8.286 -0.1985  0.6359  1.0944
 2684TIP3    H229612   2.094   2.162   8.372 -0.0575 -0.2353  1.7068
 2685TIP3   OH229613   2.576   0.164   7.808  0.3298 -0.3894  0.2143
 2685TIP3    H129614   2.639   0.099   7.837 -1.0934 -2.4850 -1.0979
 2685TIP3    H229615   2.507   0.163   7.874  0.2421 -0.2873  0.1255
 2686TIP3   OH229616   5.807   4.544   1.745  0.2624  0.2441 -0.0807
 2686TIP3    H129617   5.882   4.603   1.749  0.7946 -0.3740 -0.6023
 2686TIP3    H229618   5.759   4.570   1.667  1.9466 -1.6335 -1.8769
 2687TIP3   OH229619   6.033   5.577   7.974 -0.3828  0.4588 -0.1420
 2687TIP3    H129620   5.974   5.606   7.905  0.0071  0.8639 -0.3069
 2687TIP3    H229621   6.083   5.655   7.997  0.9890 -0.1690 -0.8962
 2688TIP3   OH229622   4.736   5.514   0.800  0.2292 -0.2803  0.3556
 2688TIP3    H129623   4.685   5.555   0.730  0.0550  0.4526  0.8981
 2688TIP3    H229624   4.778   5.587   0.845  2.4136 -0.9094 -0.5581
 2689TIP3   OH229625   1.450   1.188   8.727 -0.6365  0.4393 -0.3991
 2689TIP3    H129626   1.449   1.163   8.635 -0.8460 -1.2672  0.0369
 2689TIP3    H229627   1.361   1.173   8.758 -0.2297 -0.4173  0.4193
 2690TIP3   OH229628   6.187   3.101   0.131 -0.4497  0.0643 -0.2458
 2690TIP3    H129629   6.251   3.124   0.199  1.2047 -1.1457 -1.3259
 2690TIP3    H229630   6.236   3.049   0.068 -2.5460 -1.0053 -1.0935
 2691TIP3   OH229631   1.691   5.745   6.832  0.1318  0.1170  0.8603
 2691TIP3    H129632   1.785   5.763   6.822  0.4240 -0.6366  2.0728
 2691TIP3    H229633   1.685   5.693   6.912 -1.2541 -0.4504  0.4148
 2692TIP3   OH229634   2.919   1.032   1.583  0.1787  0.0602 -0.0428
 2692TIP3    H129635   2.971   0.958   1.550  1.2346  0.2019  1.2342
 2692TIP3    H229636   2.971   1.109   1.560 -0.9866  0.4551 -1.4977
 2693TIP3   OH229637   2.341   2.381   1.115 -0.0526  0.2497 -0.1729
 2693TIP3    H129638   2.416   2.440   1.127 -0.0600  0.4348 -0.9969
 2693TIP3    H229639   2.298   2.412   1.035  0.0026 -0.9263 -0.6835
 2694TIP3   OH229640   4.894   0.708   2.292  0.1286  0.1272  0.0758
 2694TIP3    H129641   4.956   0.780   2.279 -0.0986  0.6368  1.6151
 2694TIP3    H229642   4.822   0.747   2.341 -0.5048 -0.9132 -0.0068
 2695TIP3   OH229643   1.661   5.615   7.089 -0.4240 -0.2338  0.1726
 2695TIP3    H129644   1.611   5.619   7.170  0.8601 -0.2509  0.9924
 2695TIP3    H229645   1.710   5.533   7.095  0.5733  0.3333 -0.0715
 2696TIP3   OH229646   1.685   4.316   0.205  0.1431 -0.1046 -0.1488
 2696TIP3    H129647   1.637   4.234   0.207  3.0349 -1.9627 -0.7162
 2696TIP3    H229648   1.735   4.317   0.286  0.6325  0.7744 -0.4379
 2697TIP3   OH229649   3.213   0.689   0.112  0.2042 -0.0663 -0.2486
 2697TIP3    H129650   3.266   0.732   0.045 -1.2355  0.6785 -0.9741
 2697TIP3    H229651   3.135   0.659   0.065 -1.1297  1.0024  1.1780
 2698TIP3   OH229652   6.812   4.958   2.129  0.0926  0.5144 -0.1155
 2698TIP3    H129653   6.858   4.989   2.051 -0.6639  2.4203  0.1568
 2698TIP3    H229654   6.853   5.005   2.201 -0.5117  0.2402  0.4135
 2699TIP3   OH229655   4.549   1.252   7.982  0.6738  0.2590  0.1869
 2699TIP3    H129656   4.632   1.219   8.016  1.1831 -1.6863 -2.6218
 2699TIP3    H229657   4.574   1.325   7.924  0.4178 -0.0898 -0.3751
 2700TIP3   OH229658   6.613   4.479   0.286 -0.2508 -0.1514  0.1748
 2700TIP3    H129659   6.559   4.538   0.339 -0.8326 -2.1727  1.9676
 2700TIP3    H229660   6.577   4.487   0.198 -1.2650  1.0537  0.6577
 2701TIP3   OH229661   6.531   6.039   7.651 -1.1152  0.5655 -0.3317
 2701TIP3    H129662   6.536   6.078   7.563 -0.1783  1.0508 -0.0854
 2701TIP3    H229663   6.468   6.093   7.697  0.8284  2.4679  0.2838
 2702TIP3   OH229664   2.322   3.456   0.230  1.0571  0.0211 -0.0357
 2702TIP3    H129665   2.379   3.489   0.299 -0.1010  0.4296  0.7690
 2702TIP3    H229666   2.331   3.518   0.159 -3.0072  3.9292  2.3375
 2703TIP3   OH229667   6.356   6.569   1.009  0.3835  0.2731 -0.2189
 2703TIP3    H129668   6.421   6.596   0.944 -0.5661  2.5194 -0.3236
 2703TIP3    H229669   6.274   6.563   0.961 -0.3125  1.8558  0.6989
 2704TIP3   OH229670   0.969   4.454   0.895  0.5150 -0.2491  0.3043
 2704TIP3    H129671   1.032   4.465   0.823 -0.8796 -2.3603 -1.3631
 2704TIP3    H229672   1.024   4.433   0.971  1.9401  0.1999 -0.5528
 2705TIP3   OH229673   2.830   6.266   8.320  0.3164  0.2619 -0.2228
 2705TIP3    H129674   2.856   6.174   8.329  0.7625  0.3515 -0.5200
 2705TIP3    H229675   2.893   6.302   8.257 -0.9331  0.3379 -1.4648
 2706TIP3   OH229676   2.379   5.305   0.682  0.6031 -0.0522 -0.0012
 2706TIP3    H129677   2.422   5.301   0.767  1.8851  0.3922 -0.6078
 2706TIP3    H229678   2.447   5.281   0.619 -0.9009 -2.7297 -0.7553
 2707TIP3   OH229679   1.742   3.945   0.076  0.5328 -0.6540  0.2059
 2707TIP3    H129680   1.688   3.971   0.151 -1.4260  0.0975 -1.3810
 2707TIP3    H229681   1.719   3.853   0.061  1.0563 -0.8566  0.5964
 2708TIP3   OH229682   5.727   0.130   0.621  0.2829  0.6351  0.6509
 2708TIP3    H129683   5.722   0.063   0.553 -0.4106  1.0090  0.3299
 2708TIP3    H229684   5.761   0.084   0.698  2.5008  0.5102 -0.3277
 2709TIP3   OH229685   4.889   0.480   7.688  0.2895 -0.3277  0.0568
 2709TIP3    H129686   4.872   0.404   7.743  0.5802 -0.8689 -0.5868
 2709TIP3    H229687   4.983   0.494   7.695  0.0725  0.7515  1.1540
 2710TIP3   OH229688   5.002   1.999   1.505 -0.8495 -0.1462 -0.0033
 2710TIP3    H129689   5.032   2.083   1.470  2.0239  0.7004  3.9223
 2710TIP3    H229690   4.907   2.005   1.503 -0.7342  2.7909 -0.6659
 2711TIP3   OH229691   3.812   5.810   8.097  0.2408 -0.1510 -0.0082
 2711TIP3    H129692   3.871   5.879   8.129  0.3915 -0.5091  0.5059
 2711TIP3    H229693   3.866   5.759   8.037  0.4252 -0.4044  0.3670
 2712TIP3   OH229694   3.087   4.167   0.614  0.0079  0.4082 -0.3058
 2712TIP3    H129695   3.102   4.239   0.552 -1.2050  0.9926  0.0494
 2712TIP3    H229696   3.168   4.162   0.665  0.2233  1.3296 -0.5348
 2713TIP3   OH229697   1.541   0.217   0.647  0.4400  0.2310 -0.0779
 2713TIP3    H129698   1.594   0.205   0.726 -1.4982  0.9231  1.4072
 2713TIP3    H229699   1.552   0.309   0.624  3.8775 -0.6460 -2.9234
 2714TIP3   OH229700   2.113   0.569   7.214 -0.3540 -0.2142  0.1864
 2714TIP3    H129701   2.207   0.557   7.227 -0.2031 -0.1027 -0.7727
 2714TIP3    H229702   2.105   0.654   7.171 -0.6761 -1.2812 -2.0051
 2715TIP3   OH229703   6.170   0.359   6.606 -0.0170 -0.6249  0.1913
 2715TIP3    H129704   6.182   0.360   6.701 -0.8242  0.4230  0.2960
 2715TIP3    H229705   6.174   0.451   6.580 -2.2422 -0.6583 -0.4543
 2716TIP3   OH229706   4.492   5.941   7.937 -0.0976  0.0359  0.0763
 2716TIP3    H129707   4.584   5.952   7.912 -0.0645 -0.7614 -0.1867
 2716TIP3    H229708   4.463   5.865   7.887 -1.2300  0.9634 -0.7384
 2717TIP3   OH229709   0.299   2.987   1.626  0.2016 -0.0423 -0.2118
 2717TIP3    H129710   0.278   2.935   1.703  0.6135  1.8336  1.2345
 2717TIP3    H229711   0.326   3.073   1.661 -1.1409  1.4069 -2.4829
 2718TIP3   OH229712   4.633   2.816   2.011  0.0604  0.4711  0.0692
 2718TIP3    H129713   4.656   2.734   1.966  0.6196  1.1345 -0.8947
 2718TIP3    H229714   4.586   2.788   2.089  0.6060 -0.7917 -0.0283
 2719TIP3   OH229715   3.455   3.160   8.446 -0.4338  0.0018  0.5342
 2719TIP3    H129716   3.498   3.185   8.528 -0.8553  1.6681  0.2867
 2719TIP3    H229717   3.473   3.232   8.386 -1.5590 -0.3754 -0.3101
 2720TIP3   OH229718   1.619   1.361   6.646 -0.2057  0.1838  0.2154
 2720TIP3    H129719   1.656   1.380   6.560 -1.1818  1.8373  0.1343
 2720TIP3    H229720   1.569   1.280   6.633  0.3878 -0.0825 -0.5230
 2721TIP3   OH229721   3.495   4.213   7.300 -0.3453  0.4963  0.3432
 2721TIP3    H129722   3.412   4.189   7.257 -0.7724 -1.0792  1.8970
 2721TIP3    H229723   3.469   4.271   7.371  0.1667  1.6995 -0.4123
 2722TIP3   OH229724   6.469   4.721   0.406  0.1529 -0.4063 -0.5016
 2722TIP3    H129725   6.514   4.806   0.403 -0.7411  0.1144  0.0398
 2722TIP3    H229726   6.437   4.715   0.496  1.1076 -1.8218 -0.2269
 2723TIP3   OH229727   6.285   4.009   0.977 -0.3558 -0.0487 -0.7076
 2723TIP3    H129728   6.247   4.089   0.939 -1.3527  0.5130  1.3270
 2723TIP3    H229729   6.258   3.939   0.918 -1.7604  0.7900 -1.0999
 2724TIP3   OH229730   0.534   5.264   6.557 -0.6037 -0.1788 -0.2296
 2724TIP3    H129731   0.609   5.250   6.499 -1.9776  1.1522 -2.4790
 2724TIP3    H229732   0.570   5.312   6.632  1.3100 -2.3399  0.3447
 2725TIP3   OH229733   5.623   5.433   7.278 -0.5928  0.2650  0.0795
 2725TIP3    H129734   5.537   5.407   7.310 -0.2743 -1.8125 -0.6422
 2725TIP3    H229735   5.660   5.485   7.350 -1.5381 -0.7350  1.3438
 2726TIP3   OH229736   1.288   3.300   7.780  0.6093 -0.4006 -0.5805
 2726TIP3    H129737   1.279   3.248   7.860  0.4444 -0.3117 -0.5407
 2726TIP3    H229738   1.210   3.355   7.778  1.9158  1.6726  0.7115
 2727TIP3   OH229739   0.238   6.383   0.097  0.7857 -0.1992 -0.3291
 2727TIP3    H129740   0.186   6.445   0.044  0.1292 -1.8069 -1.6604
 2727TIP3    H229741   0.281   6.438   0.162 -0.2564  1.5837 -1.0566
 2728TIP3   OH229742   0.270   4.879   7.352 -0.1680 -0.0892 -0.2515
 2728TIP3    H129743   0.245   4.830   7.430 -0.3045  0.3295 -0.0271
 2728TIP3    H229744   0.206   4.852   7.285  0.3685 -0.9647 -0.4231
 2729TIP3   OH229745   4.500   2.540   1.405  0.0757  0.5930  0.0376
 2729TIP3    H129746   4.484   2.634   1.413 -0.8997  0.4962 -0.5962
 2729TIP3    H229747   4.412   2.500   1.407  0.4689 -0.2944  0.2109
 2730TIP3   OH229748   2.596   2.760   0.159 -0.1551 -0.0123  0.5112
 2730TIP3    H129749   2.575   2.831   0.099  0.2030 -1.5851 -1.5980
 2730TIP3    H229750   2.513   2.743   0.205 -0.9017  0.1778 -0.7136
 2731TIP3   OH229751   5.314   6.784   6.856  0.4395 -0.2834  0.1699
 2731TIP3    H129752   5.331   6.807   6.947  0.4751 -0.5326  0.2257
 2731TIP3    H229753   5.275   6.863   6.818  0.2741 -0.2341  0.4425
 2732TIP3   OH229754   0.408   6.180   7.488  0.2676  0.4418  1.0282
 2732TIP3    H129755   0.433   6.233   7.413  2.8481 -0.2750  1.2887
 2732TIP3    H229756   0.483   6.185   7.547 -0.2791 -1.7655  2.0194
 2733TIP3   OH229757   0.343   4.863   1.015 -0.2853  0.6533  0.2913
 2733TIP3    H129758   0.393   4.910   1.082  0.8883  0.0999 -0.1753
 2733TIP3    H229759   0.353   4.770   1.038 -2.0620  0.5557  0.8438
 2734TIP3   OH229760   3.884   4.760   7.087  0.7102  0.0983 -0.3740
 2734TIP3    H129761   3.911   4.779   7.177  1.8297 -1.6784 -0.2935
 2734TIP3    H229762   3.873   4.847   7.047  0.5948  0.9197  1.3353
 2735TIP3   OH229763   6.740   1.172   8.308  0.0037 -0.0175 -0.2496
 2735TIP3    H129764   6.714   1.080   8.308  0.6066 -0.1900 -0.3987
 2735TIP3    H229765   6.829   1.172   8.273 -0.4814  0.7637 -1.5425
 2736TIP3   OH229766   5.856   2.675   7.010 -0.1561 -0.2500 -0.3989
 2736TIP3    H129767   5.936   2.707   7.053 -0.3891  0.1030 -0.2290
 2736TIP3    H229768   5.813   2.621   7.077  1.0468 -2.3055 -1.1837
 2737TIP3   OH229769   4.230   5.134   8.615  0.2879  0.4940 -0.1057
 2737TIP3    H129770   4.242   5.090   8.700 -1.0722 -0.6796 -0.4699
 2737TIP3    H229771   4.148   5.183   8.625 -2.0496 -2.6501 -1.7822
 2738TIP3   OH229772   2.843   5.158   8.495 -0.3006 -0.4917  0.2496
 2738TIP3    H129773   2.857   5.096   8.423 -1.1724  0.1708 -0.5114
 2738TIP3    H229774   2.792   5.108   8.559 -0.5418 -0.7225 -0.1178
 2739TIP3   OH229775   2.410   3.185   7.750  1.0275 -0.1176 -0.5513
 2739TIP3    H129776   2.399   3.228   7.665  0.7224 -0.0230 -0.4636
 2739TIP3    H229777   2.335   3.126   7.757  1.5237 -0.7968 -0.7431
 2740TIP3   OH229778   0.890   2.373   1.568 -0.0830 -0.1335 -0.4059
 2740TIP3    H129779   0.827   2.445   1.569  1.6769  1.5429  2.1956
 2740TIP3    H229780   0.976   2.416   1.566  1.0675 -2.2899 -1.9740
 2741TIP3   OH229781   5.906   3.216   0.473  0.4514 -0.1957  0.0954
 2741TIP3    H129782   5.963   3.166   0.414  0.8027  0.6724 -0.3204
 2741TIP3    H229783   5.818   3.203   0.437  0.7895  1.3993 -1.4861
 2742TIP3   OH229784   5.919   5.524   2.781 -0.4786  0.6421 -0.2873
 2742TIP3    H129785   6.008   5.492   2.766 -0.3039 -0.3579  2.2505
 2742TIP3    H229786   5.922   5.617   2.759  1.3245  0.7187  0.1013
 2743TIP3   OH229787   5.248   6.223   0.329  0.4699  0.1370 -0.4793
 2743TIP3    H129788   5.227   6.208   0.236 -1.4353  1.6298 -0.3679
 2743TIP3    H229789   5.163   6.217   0.373  1.1884  0.5130  0.9967
 2744TIP3   OH229790   4.724   0.504   2.127  0.0848  0.2686  0.0867
 2744TIP3    H129791   4.808   0.546   2.147  0.8016 -0.4229 -1.3228
 2744TIP3    H229792   4.665   0.534   2.196  1.2832  1.4054  0.6593
 2745TIP3   OH229793   4.501   0.784   0.299  0.4899 -0.0032 -0.2821
 2745TIP3    H129794   4.541   0.707   0.339  0.1279  0.4241  0.9660
 2745TIP3    H229795   4.441   0.750   0.234  0.0675 -0.7948  0.5111
 2746TIP3   OH229796   5.324   6.632   8.313 -0.2572 -0.2884 -0.1709
 2746TIP3    H129797   5.237   6.634   8.353  0.2308  1.8644  0.9210
 2746TIP3    H229798   5.310   6.664   8.224 -0.4548  1.2208  0.3754
 2747TIP3   OH229799   6.381   0.147   1.168 -0.6564 -0.2061 -0.1736
 2747TIP3    H129800   6.361   0.170   1.077 -1.7909 -1.6322 -0.3149
 2747TIP3    H229801   6.393   0.231   1.212 -0.3441  0.5104 -1.5805
 2748TIP3   OH229802   3.080   4.569   0.014  0.3543 -0.5505 -0.1172
 2748TIP3    H129803   3.002   4.556   0.069  0.5072 -1.8377 -0.1777
 2748TIP3    H229804   3.140   4.619   0.069 -0.3317  0.0362  0.1038
 2749TIP3   OH229805   0.526   0.498   8.373  0.1774 -0.2162 -0.0442
 2749TIP3    H129806   0.555   0.440   8.444 -0.3088 -3.5052 -2.2988
 2749TIP3    H229807   0.578   0.577   8.384  2.9375 -2.0860  1.7084
 2750TIP3   OH229808   1.090   4.700   7.477 -0.2448 -0.3127 -0.0604
 2750TIP3    H129809   1.086   4.607   7.455  0.0418 -0.4230  0.3357
 2750TIP3    H229810   1.180   4.713   7.508 -0.2526  0.1168 -0.2124
 2751TIP3   OH229811   4.125   2.718   1.539  0.1605 -0.3635  0.5151
 2751TIP3    H129812   4.137   2.624   1.551 -0.2164 -0.6291 -0.9837
 2751TIP3    H229813   4.202   2.757   1.580  2.4389 -1.5816 -2.2301
 2752TIP3   OH229814   6.623   6.497   8.461 -0.3417  0.1252  0.0271
 2752TIP3    H129815   6.638   6.539   8.376  1.2514 -0.2076  0.1084
 2752TIP3    H229816   6.548   6.543   8.498 -0.6452  0.7172 -1.2750
 2753TIP3   OH229817   6.820   3.932   1.157 -0.6526  0.1470 -0.5372
 2753TIP3    H129818   6.858   4.017   1.136 -0.2561  0.1332  0.0919
 2753TIP3    H229819   6.757   3.915   1.087  0.4118  0.2298 -1.5438
 2754TIP3   OH229820   4.095   1.840   1.496 -0.1409 -0.3042 -0.5136
 2754TIP3    H129821   4.055   1.842   1.583  1.5114  1.5293  0.2688
 2754TIP3    H229822   4.045   1.903   1.445 -1.3091 -1.6030 -1.0522
 2755TIP3   OH229823   2.002   1.452   7.107  0.1963  0.4594  0.2257
 2755TIP3    H129824   2.014   1.397   7.185 -2.6478  1.8824  1.8078
 2755TIP3    H229825   2.059   1.527   7.122  0.4404  0.2431  0.4021
 2756TIP3   OH229826   4.868   2.828   8.242  0.1813 -0.3498  0.0284
 2756TIP3    H129827   4.843   2.874   8.161  0.8427  0.0505  0.0464
 2756TIP3    H229828   4.827   2.880   8.312 -1.0005 -1.1008 -0.0681
 2757TIP3   OH229829   5.964   5.461   0.662 -0.4229 -0.3427  0.1394
 2757TIP3    H129830   5.944   5.408   0.584 -0.1459  1.9641 -1.6175
 2757TIP3    H229831   5.926   5.547   0.642  0.6675  0.6453  2.0827
 2758TIP3   OH229832   2.363   1.609   1.023 -0.0863 -0.3395 -0.5145
 2758TIP3    H129833   2.451   1.609   1.061  0.5968 -2.4714 -1.9168
 2758TIP3    H229834   2.376   1.637   0.933 -1.1991  1.3786 -0.1867
 2759TIP3   OH229835   4.371   1.424   0.708 -0.9011 -0.1124 -0.3247
 2759TIP3    H129836   4.380   1.500   0.651 -1.0363  0.2343  0.1188
 2759TIP3    H229837   4.431   1.440   0.780  1.1407 -1.6783 -1.5560
 2760TIP3   OH229838   2.876   0.203   6.944 -0.4758  0.0364 -0.1866
 2760TIP3    H129839   2.853   0.126   6.891  0.1404 -1.0151  1.0167
 2760TIP3    H229840   2.792   0.233   6.980 -0.4467 -1.9006  1.6965
 2761TIP3   OH229841   6.518   0.891   8.606 -0.6285 -0.0055  0.3630
 2761TIP3    H129842   6.474   0.838   8.673 -1.2373 -1.5238 -1.1528
 2761TIP3    H229843   6.516   0.980   8.640 -1.8188 -0.5766  1.8985
 2762TIP3   OH229844   5.001   5.105   2.704 -0.2601 -0.0069 -0.1327
 2762TIP3    H129845   5.024   5.012   2.701 -1.2471 -0.2699 -0.1210
 2762TIP3    H229846   5.072   5.150   2.659  0.4358 -0.7280  0.2346
 2763TIP3   OH229847   3.829   3.175   1.855  0.2708 -0.2927 -0.2769
 2763TIP3    H129848   3.773   3.131   1.918  0.6058 -0.2254  0.0734
 2763TIP3    H229849   3.851   3.259   1.896 -1.7862  1.0287 -1.6511
 2764TIP3   OH229850   1.523   1.252   0.539  0.0754  0.0609  0.1596
 2764TIP3    H129851   1.544   1.295   0.622  2.2168 -0.0841 -0.2490
 2764TIP3    H229852   1.544   1.159   0.555  0.6800  0.0626 -0.5855
 2765TIP3   OH229853   5.698   5.861   7.181  0.7328  0.2161  0.2467
 2765TIP3    H129854   5.735   5.780   7.147  1.6271 -0.2089  2.0934
 2765TIP3    H229855   5.704   5.852   7.276 -0.8475  1.6855  0.5381
 2766TIP3   OH229856   3.131   0.053   8.098 -0.0853  0.4080 -0.0772
 2766TIP3    H129857   3.105   0.100   8.178 -3.5096  0.1078 -0.8520
 2766TIP3    H229858   3.150   0.123   8.035 -0.6988  0.7136  0.0665
 2767TIP3   OH229859   4.301   5.004   8.242  0.4277 -0.6164  0.3078
 2767TIP3    H129860   4.339   5.068   8.182  1.2581 -1.2122  0.1811
 2767TIP3    H229861   4.376   4.970   8.291 -0.0691 -1.1280  0.7258
 2768TIP3   OH229862   6.327   4.263   1.881 -0.2515  0.3647  0.3540
 2768TIP3    H129863   6.354   4.184   1.927  1.2479  0.5678 -0.1069
 2768TIP3    H229864   6.321   4.329   1.950 -0.4074  0.1033  0.5917
 2769TIP3   OH229865   1.062   2.870   8.284 -0.4621 -0.0303 -0.4838
 2769TIP3    H129866   1.065   2.862   8.189  2.1589 -0.1095 -0.4722
 2769TIP3    H229867   1.129   2.809   8.315  0.7857  2.0715  1.2217
 2770TIP3   OH229868   1.520   5.653   0.249  0.5350 -0.2166  0.5476
 2770TIP3    H129869   1.590   5.620   0.192 -1.2902  0.2163 -2.1265
 2770TIP3    H229870   1.459   5.696   0.189 -1.4638  0.4385  2.9076
 2771TIP3   OH229871   3.418   1.198   1.179  0.5945  0.3637 -0.4328
 2771TIP3    H129872   3.474   1.182   1.103 -0.3366 -1.2213 -0.8419
 2771TIP3    H229873   3.431   1.121   1.234  2.0742  1.9654  1.5981
 2772TIP3   OH229874   6.079   1.937   7.382 -0.1404  0.0396  0.0584
 2772TIP3    H129875   6.157   1.956   7.433  1.2687  0.1859 -2.0560
 2772TIP3    H229876   6.094   1.849   7.347 -1.1604 -0.1331  0.0118
 2773TIP3   OH229877   5.388   5.668   7.375  0.3614  0.0468  0.2842
 2773TIP3    H129878   5.410   5.662   7.282 -0.7352  0.1881  0.0037
 2773TIP3    H229879   5.295   5.645   7.379  0.5081 -0.3727  1.4000
 2774TIP3   OH229880   5.764   4.345   1.265  0.1585 -0.4628  0.3368
 2774TIP3    H129881   5.813   4.418   1.303 -0.9932  0.5024  0.0083
 2774TIP3    H229882   5.746   4.287   1.340  1.4053 -0.6323  0.5346
 2775TIP3   OH229883   5.656   5.875   1.050 -0.6391 -0.2028 -0.2941
 2775TIP3    H129884   5.562   5.884   1.061 -0.7900 -0.7470 -1.0424
 2775TIP3    H229885   5.671   5.884   0.955  0.2622  1.5588 -0.0162
 2776TIP3   OH229886   0.557   1.783   2.085  0.1802  0.5984  0.2289
 2776TIP3    H129887   0.602   1.867   2.089  3.3136 -0.7655 -2.0874
 2776TIP3    H229888   0.580   1.739   2.167  1.4364  0.7348 -0.0353
 2777TIP3   OH229889   3.260   0.538   6.743 -0.4471 -0.2653 -0.0368
 2777TIP3    H129890   3.329   0.542   6.676  1.2720  2.1247  1.7285
 2777TIP3    H229891   3.285   0.465   6.799 -1.0595 -1.3034 -1.0656
 2778TIP3   OH229892   1.593   5.253   1.575 -0.4301 -0.1236  0.1853
 2778TIP3    H129893   1.523   5.220   1.633 -0.2069  1.1093  1.1943
 2778TIP3    H229894   1.559   5.336   1.542  0.7669  0.7686  1.1333
 2779TIP3   OH229895   5.239   0.926   0.302 -0.1409  0.0396 -0.4998
 2779TIP3    H129896   5.296   0.991   0.262  2.7050 -1.1375  1.3741
 2779TIP3    H229897   5.235   0.854   0.238  0.5465  0.0883 -0.5957
 2780TIP3   OH229898   4.904   3.115   1.114  0.1900  0.4094  0.2050
 2780TIP3    H129899   4.981   3.070   1.079 -0.6359  0.5056 -1.9370
 2780TIP3    H229900   4.906   3.099   1.208  2.3692 -0.2613  0.0825
 2781TIP3   OH229901   2.946   3.124   1.581 -0.3623 -0.1360  0.0214
 2781TIP3    H129902   2.986   3.189   1.638 -0.6557  0.9754 -0.9928
 2781TIP3    H229903   2.972   3.040   1.619 -0.9400  0.5340  2.0489
 2782TIP3   OH229904   0.506   6.617   1.842 -0.0886 -0.4592 -0.7816
 2782TIP3    H129905   0.472   6.534   1.876 -0.5930 -0.6381 -1.6901
 2782TIP3    H229906   0.503   6.677   1.917 -1.1692 -0.8440 -0.4917
 2783TIP3   OH229907   0.179   1.666   6.824  0.0716 -0.0912 -0.5064
 2783TIP3    H129908   0.147   1.739   6.770  0.0882 -0.0193 -0.4182
 2783TIP3    H229909   0.236   1.707   6.889  0.9969 -0.3025 -1.1619
 2784TIP3   OH229910   5.343   5.445   6.954 -0.2277 -0.1600 -0.2646
 2784TIP3    H129911   5.284   5.434   6.879  0.1441 -0.6884 -0.4842
 2784TIP3    H229912   5.372   5.356   6.975 -0.2434 -0.0040  0.4402
 2785TIP3   OH229913   4.392   0.453   1.809 -0.1903  0.0732  0.2047
 2785TIP3    H129914   4.424   0.538   1.837  0.8331 -0.2612  0.0907
 2785TIP3    H229915   4.422   0.392   1.876  2.2937 -0.7348 -1.4983
 2786TIP3   OH229916   4.314   4.028   1.041  0.1053  0.4159 -0.0571
 2786TIP3    H129917   4.300   4.095   0.975 -0.2706 -0.6521 -1.0917
 2786TIP3    H229918   4.253   3.958   1.018  0.5019 -0.3019  0.9791
 2787TIP3   OH229919   0.416   6.682   0.607  0.3437 -0.1739  0.2155
 2787TIP3    H129920   0.341   6.702   0.551  1.1049  2.0933 -0.1090
 2787TIP3    H229921   0.389   6.710   0.694 -0.4635 -2.7616  0.8824
 2788TIP3   OH229922   2.853   0.613   6.964 -0.2393 -0.3027  0.1797
 2788TIP3    H129923   2.766   0.600   7.004  0.1482  0.2004  1.2312
 2788TIP3    H229924   2.893   0.682   7.017 -0.6274  2.3024 -2.6667
 2789TIP3   OH229925   0.842   1.439   8.660  0.1914 -0.1624 -0.1354
 2789TIP3    H129926   0.855   1.532   8.642  0.8921 -0.2584 -0.1605
 2789TIP3    H229927   0.927   1.408   8.692  0.2166 -0.9718 -0.9246
 2790TIP3   OH229928   3.238   1.339   7.203 -0.3311  0.9712  0.2286
 2790TIP3    H129929   3.256   1.276   7.272 -0.8274  1.4171  0.7695
 2790TIP3    H229930   3.324   1.378   7.183 -0.3519  1.7003  1.4370
 2791TIP3   OH229931   6.691   5.284   6.919 -0.3553  0.3780 -0.4737
 2791TIP3    H129932   6.747   5.301   6.843 -1.1029  0.9539 -0.9019
 2791TIP3    H229933   6.711   5.355   6.980  1.2037 -0.7868  0.4600
 2792TIP3   OH229934   3.571   0.770   0.191 -0.4794  0.5470  0.0108
 2792TIP3    H129935   3.578   0.865   0.204  1.1691  0.3557  0.7533
 2792TIP3    H229936   3.496   0.759   0.132  0.2670  2.4135 -1.3597
 2793TIP3   OH229937   6.011   5.232   1.127  0.5583 -0.7026 -0.1204
 2793TIP3    H129938   5.998   5.294   1.199 -0.4917 -0.6090 -0.3663
 2793TIP3    H229939   6.085   5.267   1.078  1.4084 -0.8580  0.9909
 2794TIP3   OH229940   5.426   4.752   1.987  0.1104  0.2061  0.6699
 2794TIP3    H129941   5.450   4.732   2.078  2.2152  0.6548  0.2698
 2794TIP3    H229942   5.461   4.680   1.936  1.2735  1.2180 -0.0214
 2795TIP3   OH229943   4.392   2.104   2.346  0.4670  0.0411 -0.2105
 2795TIP3    H129944   4.404   2.015   2.377  1.1930  0.4575  0.7453
 2795TIP3    H229945   4.298   2.112   2.330 -0.0510 -0.0871  2.3150
 2796TIP3   OH229946   1.371   4.698   1.331 -0.0694 -0.0037 -0.0819
 2796TIP3    H129947   1.364   4.699   1.235 -1.4941 -0.1252  0.0110
 2796TIP3    H229948   1.451   4.647   1.348  0.3950  0.3182 -1.1995
 2797TIP3   OH229949   0.468   0.973   0.870  0.4021  0.0803  0.5352
 2797TIP3    H129950   0.479   0.878   0.877  1.4495 -0.1023 -2.2936
 2797TIP3    H229951   0.551   1.004   0.835 -0.6242  1.7281 -0.5884
 2798TIP3   OH229952   3.337   3.846   8.005 -0.3598 -0.0346  0.1442
 2798TIP3    H129953   3.397   3.918   8.025 -0.6886  0.4905 -0.6971
 2798TIP3    H229954   3.257   3.867   8.052  0.4538 -1.3563  2.2721
 2799TIP3   OH229955   4.412   2.799   7.515  0.0900 -0.4185  0.1406
 2799TIP3    H129956   4.409   2.815   7.610 -0.2644 -0.1797  0.0925
 2799TIP3    H229957   4.454   2.878   7.480  0.8159 -0.7872  0.1556
 2800TIP3   OH229958   1.569   0.955   6.651 -0.3058  0.1729  0.5095
 2800TIP3    H129959   1.493   1.009   6.629  0.8915  0.5369 -3.5309
 2800TIP3    H229960   1.550   0.870   6.611  0.9725 -0.0491  0.3431
 2801TIP3   OH229961   5.668   1.050   6.795  0.3161 -0.5270 -0.0729
 2801TIP3    H129962   5.757   1.061   6.762  0.4850 -2.1746 -0.2463
 2801TIP3    H229963   5.620   1.127   6.763  1.0659 -0.8480 -2.0936
 2802TIP3   OH229964   4.426   5.417   0.352 -0.7604  0.3535  0.2371
 2802TIP3    H129965   4.363   5.348   0.329 -0.2804  0.3639 -1.2034
 2802TIP3    H229966   4.468   5.438   0.269  1.5195 -0.0062  1.2487
 2803TIP3   OH229967   1.264   5.066   7.041 -0.5741 -0.2439 -0.0864
 2803TIP3    H129968   1.248   5.157   7.067  0.8306 -0.2177  0.8194
 2803TIP3    H229969   1.211   5.014   7.100 -0.0644 -0.0569  0.5478
 2804TIP3   OH229970   1.047   1.798   1.238  0.7979  0.3187  0.0574
 2804TIP3    H129971   1.013   1.886   1.251  0.5090  0.3040 -0.5421
 2804TIP3    H229972   1.112   1.807   1.169  0.9679  0.1053  0.1880
 2805TIP3   OH229973   0.015   1.779   1.930  0.5892 -0.3722 -0.0797
 2805TIP3    H129974  -0.021   1.700   1.890  0.6408  0.0121 -0.9020
 2805TIP3    H229975   0.110   1.771   1.918  0.8351 -1.3596  2.0371
 2806TIP3   OH229976   1.594   0.305   1.132  0.1495 -0.0062  0.6949
 2806TIP3    H129977   1.560   0.392   1.152 -0.4265 -0.4824  1.8694
 2806TIP3    H229978   1.666   0.292   1.194  2.5755  0.9481 -1.6939
 2807TIP3   OH229979   5.475   2.321   0.529 -0.8778 -0.0999 -0.1574
 2807TIP3    H129980   5.552   2.379   0.528  0.2150 -1.4940 -1.0936
 2807TIP3    H229981   5.453   2.312   0.622 -0.6151  1.2089  0.0468
 2808TIP3   OH229982   5.214   1.776   8.305 -0.1408 -0.5269 -0.7084
 2808TIP3    H129983   5.172   1.751   8.223 -1.4411  0.7517 -0.4769
 2808TIP3    H229984   5.179   1.862   8.325  1.8973  0.1960  0.0389
 2809TIP3   OH229985   4.736   1.283   0.601 -0.0321 -0.0544  0.3543
 2809TIP3    H129986   4.759   1.357   0.657 -1.8667  1.9819 -1.4356
 2809TIP3    H229987   4.792   1.212   0.632  0.1659  1.3686  3.7100
 2810TIP3   OH229988   0.810   1.244   0.508 -0.0046 -0.4040  0.1534
 2810TIP3    H129989   0.719   1.266   0.484 -0.1082 -0.9843 -0.0005
 2810TIP3    H229990   0.856   1.328   0.505 -1.2720  0.6234  3.8364
 2811TIP3   OH229991   5.737   6.610   6.705 -0.3909 -0.3629  0.0833
 2811TIP3    H129992   5.771   6.521   6.711 -1.2564 -0.7707 -0.7919
 2811TIP3    H229993   5.775   6.646   6.625  0.1150  0.1313  0.5391
 2812TIP3   OH229994   6.612   2.883   6.668  0.1616 -0.1348 -0.6337
 2812TIP3    H129995   6.573   2.958   6.714  0.7054  0.1391 -0.6057
 2812TIP3    H229996   6.537   2.833   6.635 -0.2203  1.4850 -2.3828
 2813TIP3   OH229997   5.887   6.219   6.850 -0.1275 -0.0869 -0.3638
 2813TIP3    H129998   5.794   6.224   6.868  0.0544  0.6405  0.4248
 2813TIP3    H229999   5.929   6.268   6.921  0.9533 -1.5550  0.0563
 2814TIP3   OH230000   1.062   3.948   0.197  0.1240 -0.6800  0.9915
 2814TIP3    H130001   0.971   3.922   0.185  0.3073 -0.9003 -0.0173
 2814TIP3    H230002   1.062   4.043   0.181 -0.0497 -0.5432  1.7622
 2815TIP3   OH230003   1.599   2.359   6.096  0.8094  0.4148 -0.4613
 2815TIP3    H130004   1.536   2.376   6.025  0.3535  1.5257  0.1735
 2815TIP3    H230005   1.682   2.394   6.062  0.2529  2.4810  0.1290
 2816TIP3   OH230006   1.490   3.059   7.675 -0.1293 -0.0089 -0.2514
 2816TIP3    H130007   1.482   3.081   7.767  0.4151  1.1968 -0.4629
 2816TIP3    H230008   1.574   3.098   7.649  0.1403 -1.0779 -1.0508
 2817TIP3   OH230009   2.307   2.171   6.837  0.4778 -0.3272  0.0524
 2817TIP3    H130010   2.382   2.115   6.816 -0.1259 -0.8014 -0.9072
 2817TIP3    H230011   2.261   2.182   6.754 -2.2481 -2.5896  1.1042
 2818TIP3   OH230012   5.460   6.393   1.022  0.6836 -0.5776  0.9832
 2818TIP3    H130013   5.371   6.394   0.987  0.5050  0.5542  1.4308
 2818TIP3    H230014   5.515   6.367   0.947  0.1568  0.3560  0.2478
 2819TIP3   OH230015   1.945   5.482   8.125 -0.0011 -0.2088 -0.4742
 2819TIP3    H130016   1.968   5.445   8.211  1.0398 -0.6610 -0.9224
 2819TIP3    H230017   1.984   5.570   8.127 -3.1433  1.2949  0.8923
 2820TIP3   OH230018   3.689   0.179   0.972 -0.5236  0.2812  0.3335
 2820TIP3    H130019   3.634   0.249   0.936  0.4315 -0.1109 -2.0767
 2820TIP3    H230020   3.770   0.184   0.921  1.5796  0.5720  3.4698
 2821TIP3   OH230021   4.920   4.623   2.532 -0.0614  0.7215  0.2941
 2821TIP3    H130022   4.918   4.601   2.625  0.8254  0.7058  0.3128
 2821TIP3    H230023   4.853   4.566   2.493 -0.4670  0.7559  0.9154
 2822TIP3   OH230024   2.438   1.638   7.479  0.4620  0.3280  0.1406
 2822TIP3    H130025   2.385   1.716   7.462  0.7909  0.6155  0.4470
 2822TIP3    H230026   2.378   1.565   7.460  0.3218  0.6470 -0.6916
 2823TIP3   OH230027   4.840   4.272   2.011  0.2867 -0.0074  0.3268
 2823TIP3    H130028   4.821   4.319   2.093  1.6152 -0.5347  0.9595
 2823TIP3    H230029   4.838   4.340   1.944 -1.3137  0.3610  0.6869
 2824TIP3   OH230030   3.071   6.652   1.445 -0.3863  0.0961 -0.0551
 2824TIP3    H130031   3.149   6.707   1.438 -0.2105 -0.1233  0.1496
 2824TIP3    H230032   3.012   6.684   1.377  0.4657 -0.7039 -1.2034
 2825TIP3   OH230033   2.444   5.374   7.146 -0.0332 -0.0566  0.0742
 2825TIP3    H130034   2.424   5.291   7.103  0.9290  0.0157 -0.5421
 2825TIP3    H230035   2.364   5.425   7.138  0.1798  0.0423 -1.8598
 2826TIP3   OH230036   4.862   1.951   8.611 -0.4935  0.2836  0.3252
 2826TIP3    H130037   4.908   1.967   8.528 -1.2314  0.4284 -0.0633
 2826TIP3    H230038   4.773   1.928   8.585 -1.5829  3.1128  1.1420
 2827TIP3   OH230039   1.805   5.582   0.180  0.0652  0.2057 -0.1055
 2827TIP3    H130040   1.898   5.595   0.197  0.4597 -2.7252  0.4098
 2827TIP3    H230041   1.786   5.495   0.214 -2.8671  0.6741 -0.3070
 2828TIP3   OH230042   3.072   4.439   7.890  0.2898 -0.1118 -0.4777
 2828TIP3    H130043   2.990   4.474   7.856  1.8095  1.6933 -2.5770
 2828TIP3    H230044   3.057   4.344   7.893 -1.7445  0.1296 -1.0774
 2829TIP3   OH230045   5.819   5.568   7.454 -0.3833 -0.0022  0.1117
 2829TIP3    H130046   5.755   5.640   7.448  0.7466  1.0130 -0.1301
 2829TIP3    H230047   5.899   5.605   7.416  0.2269 -1.3940  0.0154
 2830TIP3   OH230048   6.426   0.170   7.733 -0.2103 -0.3585 -0.6524
 2830TIP3    H130049   6.366   0.215   7.674  1.0172  0.6620 -1.1778
 2830TIP3    H230050   6.386   0.179   7.819 -1.5525 -1.0463 -1.1799
 2831TIP3   OH230051   6.678   5.886   0.685  0.7500  0.3166 -0.1858
 2831TIP3    H130052   6.705   5.954   0.623  1.0278  0.5412  0.1774
 2831TIP3    H230053   6.748   5.884   0.750  0.0185  0.7454  0.6423
 2832TIP3   OH230054   2.607   4.138   1.559  0.8243 -0.2628  0.5531
 2832TIP3    H130055   2.625   4.072   1.626  0.0537  0.7531  1.8095
 2832TIP3    H230056   2.531   4.105   1.512  0.0976 -0.0443  1.5369
 2833TIP3   OH230057   1.207   6.738   1.482  0.2436  0.0282 -0.2512
 2833TIP3    H130058   1.262   6.712   1.408  0.5833 -0.5186  0.1848
 2833TIP3    H230059   1.269   6.775   1.546 -0.2796  2.5941 -1.1113
 2834TIP3   OH230060   2.073   2.057   7.079  0.0815  0.2147 -0.1659
 2834TIP3    H130061   2.033   1.980   7.038  2.0705 -0.8066 -0.2860
 2834TIP3    H230062   2.166   2.048   7.060  0.7295  1.1403  2.2956
 2835TIP3   OH230063   1.898   1.149   0.593  0.6094  0.7222  0.6024
 2835TIP3    H130064   1.986   1.173   0.566  1.8621 -1.7930  2.0828
 2835TIP3    H230065   1.841   1.211   0.548  3.0751  2.1091 -0.8035
 2836TIP3   OH230066   3.058   3.213   0.506 -0.0488  0.2707 -0.1327
 2836TIP3    H130067   3.123   3.159   0.550 -0.3826  0.2609  0.3584
 2836TIP3    H230068   2.991   3.229   0.572 -0.7334 -0.0270 -0.7389
 2837TIP3   OH230069   5.394   1.349   1.281 -0.3719 -0.2360  0.0637
 2837TIP3    H130070   5.390   1.408   1.356 -2.4752  1.1135 -1.0098
 2837TIP3    H230071   5.346   1.271   1.310 -0.5864  0.0065  0.3732
 2838TIP3   OH230072   0.121   5.184   0.428 -0.0646  0.5374  0.2320
 2838TIP3    H130073   0.211   5.184   0.462 -0.8069 -1.6972  2.4724
 2838TIP3    H230074   0.073   5.241   0.487 -0.5836 -0.2662  0.6065
 2839TIP3   OH230075   0.831   1.784   1.033 -0.3603 -0.0117 -0.1951
 2839TIP3    H130076   0.881   1.806   1.112  1.5356 -0.7473 -1.1381
 2839TIP3    H230077   0.765   1.853   1.027  0.8593  1.3058  0.8357
 2840TIP3   OH230078   6.160   1.938   8.244 -0.4831 -0.2498  0.4135
 2840TIP3    H130079   6.249   1.906   8.259 -0.6495 -0.5531  0.7725
 2840TIP3    H230080   6.167   2.033   8.255 -0.0305 -0.1738 -0.4473
 2841TIP3   OH230081   4.257   0.556   0.846  0.4713  0.3505 -0.5849
 2841TIP3    H130082   4.201   0.501   0.790  0.1460 -0.9445  0.9455
 2841TIP3    H230083   4.346   0.532   0.820  0.3299 -0.6426 -0.2301
 2842TIP3   OH230084   5.720   6.719   8.582  0.1368 -0.4946  0.4724
 2842TIP3    H130085   5.770   6.678   8.653 -2.0536  0.0985  2.4793
 2842TIP3    H230086   5.700   6.807   8.613 -0.3268  0.0413 -1.1986
 2843TIP3   OH230087   4.545   2.228   7.748  0.3110  0.6349 -0.3533
 2843TIP3    H130088   4.518   2.163   7.813  1.8380  0.2402 -0.0645
 2843TIP3    H230089   4.635   2.249   7.772  0.8077  0.7029 -2.1524
 2844TIP3   OH230090   0.611   0.288   1.313  0.5243  0.0040  0.4116
 2844TIP3    H130091   0.564   0.309   1.394 -0.9383 -1.7177  0.0567
 2844TIP3    H230092   0.586   0.358   1.252 -2.2871 -1.2173  0.0100
 2845TIP3   OH230093   2.420   3.020   0.330 -0.3009 -0.2459 -0.5303
 2845TIP3    H130094   2.359   3.076   0.282 -1.5621 -1.0746  0.0456
 2845TIP3    H230095   2.495   3.010   0.271 -0.5671  1.0563 -1.1223
 2846TIP3   OH230096   1.696   3.940   6.319  0.0857 -0.3385 -0.4757
 2846TIP3    H130097   1.610   3.904   6.297  0.0736 -0.7225  0.1830
 2846TIP3    H230098   1.698   3.942   6.415  0.2574  1.0152 -0.4840
 2847TIP3   OH230099   4.511   4.091   6.507 -0.2273  0.4995 -0.1079
 2847TIP3    H130100   4.538   4.182   6.498  0.0530  0.4328  0.0630
 2847TIP3    H230101   4.435   4.095   6.566 -0.0022  0.5886  0.1801
 2848TIP3   OH230102   5.438   1.168   8.382  0.9515 -0.1834 -0.9280
 2848TIP3    H130103   5.383   1.215   8.320 -0.7339  1.2021  1.4287
 2848TIP3    H230104   5.514   1.225   8.395  0.9268 -0.1032 -1.1385
 2849TIP3   OH230105   3.272   0.829   7.734  0.6073  0.2391  0.0924
 2849TIP3    H130106   3.190   0.835   7.783 -0.3364 -0.9272 -1.2539
 2849TIP3    H230107   3.277   0.910   7.684 -0.6554 -0.4043 -1.1420
 2850TIP3   OH230108   2.668   0.536   7.409  0.0760 -0.4793 -0.1301
 2850TIP3    H130109   2.675   0.620   7.364  0.3417 -0.4651 -0.0641
 2850TIP3    H230110   2.586   0.542   7.459 -0.1634 -0.4529 -0.5222
 2851TIP3   OH230111   2.588   6.114   0.612  0.0445 -0.5538  0.4025
 2851TIP3    H130112   2.494   6.096   0.608  0.1128 -1.6438  2.3288
 2851TIP3    H230113   2.604   6.137   0.704  1.4256  1.2268 -0.2350
 2852TIP3   OH230114   6.383   6.248   1.864  0.1005 -0.6481  0.2742
 2852TIP3    H130115   6.426   6.286   1.940  1.6871 -0.8151 -0.5055
 2852TIP3    H230116   6.373   6.155   1.885  0.5582 -0.6983  0.2652
 2853TIP3   OH230117   3.613   5.368   0.926  0.7861 -0.0567 -0.3165
 2853TIP3    H130118   3.557   5.435   0.886 -0.5872 -1.0341 -0.0839
 2853TIP3    H230119   3.572   5.349   1.010  1.2603 -1.0729 -0.2994
 2854TIP3   OH230120   0.168   5.899   0.383  0.1458  0.3411 -0.0355
 2854TIP3    H130121   0.237   5.836   0.401  0.6742  0.8920 -0.0921
 2854TIP3    H230122   0.214   5.982   0.370 -0.6830  1.2076  2.2016
 2855TIP3   OH230123   1.265   4.865   0.322  0.0358 -0.3767  0.3062
 2855TIP3    H130124   1.218   4.917   0.257 -2.4168 -1.2150  1.3073
 2855TIP3    H230125   1.307   4.795   0.272 -1.0671 -0.4864 -0.4861
 2856TIP3   OH230126   6.845   0.591   0.663  0.0104  0.0790  0.2006
 2856TIP3    H130127   6.924   0.625   0.620  0.8043 -1.6454  0.1903
 2856TIP3    H230128   6.878   0.539   0.736 -1.2628  1.6538  2.0105
 2857TIP3   OH230129   0.435   5.209   7.680  0.0924 -0.2762  0.4534
 2857TIP3    H130130   0.364   5.260   7.719 -1.3651 -0.9997 -1.1408
 2857TIP3    H230131   0.407   5.193   7.590  2.0366 -1.0676 -0.0639
 2858TIP3   OH230132   4.454   5.023   1.333  0.1043  0.0594  0.1904
 2858TIP3    H130133   4.522   5.072   1.379  0.7005 -1.7416  1.3389
 2858TIP3    H230134   4.376   5.031   1.389  0.8238 -2.1131  1.6163
 2859TIP3   OH230135   5.510   4.116   7.143  1.4346 -0.7530 -0.3869
 2859TIP3    H130136   5.434   4.065   7.169  0.5899 -0.4424 -2.0654
 2859TIP3    H230137   5.513   4.109   7.047  1.9637  1.3510 -0.5899
 2860TIP3   OH230138   5.853   4.995   1.102 -0.6365  0.1907  0.5791
 2860TIP3    H130139   5.926   5.057   1.103  0.3611 -0.9681  1.3229
 2860TIP3    H230140   5.854   4.958   1.014 -0.5147  0.3859  0.4967
 2861TIP3   OH230141   1.958   3.631   0.223  0.0917 -0.4116  0.0253
 2861TIP3    H130142   1.880   3.638   0.278 -0.7672  0.5131 -1.2554
 2861TIP3    H230143   2.022   3.687   0.266 -1.3555  2.3261 -1.1152
 2862TIP3   OH230144   6.009   6.060   0.723  0.3520 -0.2035 -0.1249
 2862TIP3    H130145   6.011   6.032   0.815 -0.7057 -1.7384 -0.5262
 2862TIP3    H230146   5.935   6.121   0.719  1.6073  1.4518  0.3949
 2863TIP3   OH230147   2.596   5.436   7.713  0.2300 -0.2682 -0.0654
 2863TIP3    H130148   2.660   5.490   7.665 -0.5149  0.4897 -0.2219
 2863TIP3    H230149   2.524   5.424   7.652 -0.1929 -0.3309  0.4431
 2864TIP3   OH230150   5.333   2.053   8.084  0.4190  0.7140  0.0553
 2864TIP3    H130151   5.286   2.123   8.131 -2.6144 -1.9483  1.3435
 2864TIP3    H230152   5.296   2.055   7.996 -1.1325 -0.4266  0.6466
 2865TIP3   OH230153   6.294   3.663   0.097 -0.5532  0.0901 -0.2799
 2865TIP3    H130154   6.275   3.576   0.132  1.6171  0.2032  1.4400
 2865TIP3    H230155   6.317   3.715   0.174  0.9896  1.3800 -1.5322
 2866TIP3   OH230156   2.741   2.232   7.906 -0.5283  0.0617  0.0648
 2866TIP3    H130157   2.742   2.221   7.811  0.5357  1.6620 -0.1492
 2866TIP3    H230158   2.831   2.256   7.928  0.0968 -3.3523  1.9410
 2867TIP3   OH230159   4.370   5.680   8.345 -0.2450 -0.1003  0.3232
 2867TIP3    H130160   4.368   5.743   8.273 -0.3910 -0.9194 -0.3985
 2867TIP3    H230161   4.391   5.597   8.304 -0.6113 -0.6330  1.1882
 2868TIP3   OH230162   1.479   3.788   7.921  0.4865  0.3845 -0.3985
 2868TIP3    H130163   1.482   3.722   7.852 -0.6414  0.9982 -1.0716
 2868TIP3    H230164   1.407   3.760   7.978 -0.0707  1.0540 -0.7461
 2869TIP3   OH230165   5.159   5.905   1.964 -0.0775 -0.1911 -0.0883
 2869TIP3    H130166   5.068   5.935   1.965 -0.8393 -2.3438  0.2766
 2869TIP3    H230167   5.180   5.887   2.055  0.6375  0.0228 -0.2034
 2870TIP3   OH230168   0.401   5.428   0.975 -0.2374 -0.2301  0.1257
 2870TIP3    H130169   0.333   5.396   1.036 -1.9664  2.0884 -0.4408
 2870TIP3    H230170   0.479   5.436   1.029 -1.0513 -0.6673  1.4288
 2871TIP3   OH230171   5.209   2.360   7.830 -0.1324 -0.1125  0.2967
 2871TIP3    H130172   5.273   2.290   7.819  0.2610  0.4695 -1.5508
 2871TIP3    H230173   5.234   2.403   7.911  2.9835  1.2132 -1.2113
 2872TIP3   OH230174   1.865   0.370   0.616  0.2335  0.3049 -0.2469
 2872TIP3    H130175   1.933   0.405   0.674 -0.1746  0.7006  0.0003
 2872TIP3    H230176   1.832   0.292   0.662  0.3074  0.2896 -0.2201
 2873TIP3   OH230177   2.529   6.457   7.985  0.2544 -0.1207  1.1301
 2873TIP3    H130178   2.588   6.382   7.987  0.2381 -0.2500 -1.1532
 2873TIP3    H230179   2.442   6.419   7.974  0.2292  0.2186  0.1140
 2874TIP3   OH230180   2.148   3.681   0.023 -0.1596 -0.5544  0.5951
 2874TIP3    H130181   2.087   3.670   0.096 -1.0966  0.2145 -0.0390
 2874TIP3    H230182   2.106   3.635  -0.050 -0.3964  0.6776 -0.0646
 2875TIP3   OH230183   5.391   4.339   7.268 -0.3253  0.7197  0.6912
 2875TIP3    H130184   5.432   4.283   7.202 -1.7704  2.2897 -1.6847
 2875TIP3    H230185   5.311   4.293   7.292 -0.6190  0.9044  0.0855
 2876TIP3   OH230186   1.737   4.844   8.683  0.2289  0.1738  0.7982
 2876TIP3    H130187   1.715   4.917   8.625  1.4013  0.1378  0.2633
 2876TIP3    H230188   1.833   4.847   8.689  0.2518 -0.9941  1.1978
 2877TIP3   OH230189   5.877   0.942   2.215  0.3379  0.1118 -0.0287
 2877TIP3    H130190   5.965   0.975   2.235  0.3021  0.2447 -0.0861
 2877TIP3    H230191   5.881   0.849   2.234  0.2754  0.2526  0.6953
 2878TIP3   OH230192   4.176   1.964   0.846  0.1478 -0.0708  0.9042
 2878TIP3    H130193   4.117   2.037   0.867  0.2480  0.3569 -0.2271
 2878TIP3    H230194   4.254   2.007   0.809 -0.4337 -0.7804 -1.2978
 2879TIP3   OH230195   5.355   5.458   1.491  0.6256 -0.0490  0.1155
 2879TIP3    H130196   5.318   5.507   1.565  1.9465 -0.0417  0.8007
 2879TIP3    H230197   5.355   5.521   1.419 -0.4411  0.0249  0.1610
 2880TIP3   OH230198   1.005   3.805   7.832 -0.4577 -0.1238  0.2242
 2880TIP3    H130199   1.031   3.731   7.887 -0.5255  0.2756  0.7905
 2880TIP3    H230200   1.078   3.867   7.839  1.9939 -2.0098 -3.9349
 2881TIP3   OH230201   3.108   4.072   1.203 -0.0320  0.0882 -0.0090
 2881TIP3    H130202   3.027   4.033   1.169 -0.4236 -0.1576  1.1797
 2881TIP3    H230203   3.091   4.087   1.296  1.5913 -0.7812  0.4665
 2882TIP3   OH230204   2.233   0.650   8.475  0.4881 -0.2651  0.1617
 2882TIP3    H130205   2.243   0.589   8.401  0.6597 -1.6344  1.2715
 2882TIP3    H230206   2.157   0.617   8.522  1.3958 -0.4362  1.5404
 2883TIP3   OH230207   1.860   5.071   2.245  0.4517 -0.3188 -0.2196
 2883TIP3    H130208   1.784   5.027   2.282  1.2980 -2.1912 -0.5620
 2883TIP3    H230209   1.880   5.141   2.306 -1.0662 -0.2800  0.2756
 2884TIP3   OH230210   5.146   2.151   0.113 -0.3451 -0.2855 -0.2171
 2884TIP3    H130211   5.171   2.101   0.191  0.1209  3.0244  1.9281
 2884TIP3    H230212   5.050   2.157   0.119 -0.2226  1.0740  0.9344
 2885TIP3   OH230213   5.474   5.641   7.128 -0.9950  0.4616  0.5239
 2885TIP3    H130214   5.439   5.582   7.061 -0.4087 -0.0678  0.6742
 2885TIP3    H230215   5.569   5.634   7.119 -0.9021  0.2656  1.5026
 2886TIP3   OH230216   1.980   1.806   6.909  0.5084  0.4134 -0.3966
 2886TIP3    H130217   1.909   1.751   6.942  2.8180 -1.4715  1.9289
 2886TIP3    H230218   2.012   1.760   6.832 -0.4811  1.0585 -1.2173
 2887TIP3   OH230219   0.645   3.957   6.589  0.1471  0.2469  0.0237
 2887TIP3    H130220   0.692   3.892   6.641 -2.1004 -1.1780  0.3904
 2887TIP3    H230221   0.633   4.031   6.648  3.8221  1.6801 -0.7718
 2888TIP3   OH230222   4.212   0.704   7.974 -0.1301 -0.4502 -0.1939
 2888TIP3    H130223   4.260   0.701   7.891  0.7666  1.1272  0.2329
 2888TIP3    H230224   4.121   0.688   7.949  0.2437 -0.8766 -1.3620
 2889TIP3   OH230225   6.159   4.854   1.284  0.5098  0.3275 -0.1869
 2889TIP3    H130226   6.092   4.806   1.332 -0.1523  0.5637 -0.8416
 2889TIP3    H230227   6.173   4.934   1.335 -1.1641  1.2191 -1.0098
 2890TIP3   OH230228   3.116   6.493   7.145 -0.8624 -0.2170 -0.2496
 2890TIP3    H130229   3.153   6.406   7.161  4.2375  1.7707  1.0453
 2890TIP3    H230230   3.148   6.517   7.058 -1.0027  0.8210 -0.0304
 2891TIP3   OH230231   0.258   6.439   6.433 -0.5806  0.6620  0.0324
 2891TIP3    H130232   0.292   6.350   6.424 -0.1368  0.9000 -0.7939
 2891TIP3    H230233   0.328   6.487   6.477 -0.4150  0.8213 -0.3957
 2892TIP3   OH230234   5.764   0.504   0.556  0.1779 -0.1333  0.8903
 2892TIP3    H130235   5.755   0.449   0.478  2.8112  0.3708  0.1231
 2892TIP3    H230236   5.781   0.592   0.522  0.1958  0.3371  2.0617
 2893TIP3   OH230237   5.213   6.416   8.585 -0.7920  0.1234 -0.1068
 2893TIP3    H130238   5.269   6.421   8.662  0.4938 -1.2453 -0.8982
 2893TIP3    H230239   5.196   6.322   8.574  0.2433  0.1271 -2.2742
 2894TIP3   OH230240   1.414   2.549   1.661  0.3496  0.0263 -0.3957
 2894TIP3    H130241   1.385   2.632   1.622  0.3473 -0.5221 -1.5997
 2894TIP3    H230242   1.487   2.574   1.718 -0.9386  1.1149  0.8548
 2895TIP3   OH230243   4.140   4.449   2.137 -0.0230  0.4427 -0.3334
 2895TIP3    H130244   4.175   4.361   2.123 -1.5365 -0.9277  3.1804
 2895TIP3    H230245   4.215   4.507   2.123  1.3470 -1.4990 -1.5257
 2896TIP3   OH230246   2.812   4.687   1.730  0.5837 -0.7421  0.0523
 2896TIP3    H130247   2.822   4.773   1.770 -1.6644 -0.6955  0.6251
 2896TIP3    H230248   2.899   4.648   1.736  1.4542  1.1394  0.5558
 2897TIP3   OH230249   5.987   5.229   0.479  0.2689  0.2194  0.1938
 2897TIP3    H130250   6.014   5.235   0.387 -0.0129  0.6177  0.1356
 2897TIP3    H230251   5.893   5.244   0.477  0.3185  0.5972  0.5881
 2898TIP3   OH230252   5.470   1.686   6.315  0.8612  0.6438 -0.0579
 2898TIP3    H130253   5.489   1.669   6.407  3.1260  0.1736 -0.5353
 2898TIP3    H230254   5.546   1.735   6.283  1.0471 -0.8008 -2.0843
 2899TIP3   OH230255   3.784   2.161   1.040 -0.1605  0.0340 -0.6003
 2899TIP3    H130256   3.737   2.080   1.022 -0.6857  0.2809 -0.3819
 2899TIP3    H230257   3.773   2.174   1.134 -1.7793  1.3687 -0.9180
 2900TIP3   OH230258   0.551   3.649   0.278 -0.2129  0.2371  0.6012
 2900TIP3    H130259   0.497   3.714   0.322 -0.3012  0.9149 -0.4766
 2900TIP3    H230260   0.540   3.569   0.329 -4.2377 -0.3812 -0.8997
 2901TIP3   OH230261   3.066   5.421   0.144 -0.1238  0.1894 -0.4200
 2901TIP3    H130262   2.977   5.401   0.113 -0.2511 -0.7425  0.4732
 2901TIP3    H230263   3.089   5.503   0.101 -1.4308  0.4556 -0.6476
 2902TIP3   OH230264   2.227   2.374   7.029 -0.4121 -0.0120  0.5020
 2902TIP3    H130265   2.270   2.322   6.961 -2.0166 -1.6424  0.6428
 2902TIP3    H230266   2.245   2.465   7.005  0.4519 -0.5694 -1.1501
 2903TIP3   OH230267   0.202   4.531   8.133  0.3028  0.0440  0.6908
 2903TIP3    H130268   0.277   4.536   8.073  0.3464  0.4606  0.7788
 2903TIP3    H230269   0.238   4.555   8.218 -0.1467  1.3135  0.5425
 2904TIP3   OH230270   2.268   5.237   1.146  0.3555 -0.0752  0.5402
 2904TIP3    H130271   2.212   5.286   1.085 -2.1420 -1.0986  1.8621
 2904TIP3    H230272   2.243   5.269   1.232  1.6403 -0.8197  1.2165
 2905TIP3   OH230273   6.817   1.649   0.480 -0.0402  0.2676 -0.1189
 2905TIP3    H130274   6.868   1.573   0.509 -2.2726 -2.0155 -1.7973
 2905TIP3    H230275   6.750   1.660   0.548  1.2100  1.8460  0.9352
 2906TIP3   OH230276   0.182   4.044   1.003 -0.2398  0.4659 -0.3077
 2906TIP3    H130277   0.229   4.114   1.048  0.0074 -0.5518  1.0420
 2906TIP3    H230278   0.157   4.083   0.919 -0.8530  2.4635  0.7377
 2907TIP3   OH230279   4.592   6.670   2.040 -0.1605 -0.6107  0.3689
 2907TIP3    H130280   4.625   6.581   2.029  0.3976 -0.5567  1.4495
 2907TIP3    H230281   4.534   6.664   2.116  1.1166  0.2384  1.4555
 2908TIP3   OH230282   3.585   0.886   1.630  0.3136 -0.1793  0.2352
 2908TIP3    H130283   3.550   0.798   1.639  0.7284 -0.3182  0.4875
 2908TIP3    H230284   3.660   0.889   1.690 -0.3467  0.6781  1.0697
 2909TIP3   OH230285   4.223   2.956   2.349  0.1935  0.8125  0.5545
 2909TIP3    H130286   4.302   2.981   2.300  0.7347  0.6555  1.3217
 2909TIP3    H230287   4.257   2.917   2.430 -0.6515 -0.9662  0.0898
 2910TIP3   OH230288   6.841   3.793   7.905 -0.3101 -0.5446  0.8821
 2910TIP3    H130289   6.788   3.833   7.836 -0.4853 -0.2285  1.2003
 2910TIP3    H230290   6.796   3.711   7.925 -0.4093 -0.5072  0.8113
 2911TIP3   OH230291   0.452   1.581   8.090  0.4454  0.7514 -0.1577
 2911TIP3    H130292   0.451   1.603   7.996  0.9452  1.4367 -0.0092
 2911TIP3    H230293   0.362   1.555   8.109  0.6161 -0.7441 -1.1270
 2912TIP3   OH230294   3.129   6.157   0.137  0.5437  0.0895  0.5839
 2912TIP3    H130295   3.128   6.221   0.066  0.3235  0.5268  0.9708
 2912TIP3    H230296   3.172   6.203   0.210  3.2642 -1.2138 -0.0377
 2913TIP3   OH230297   4.643   4.224   7.197 -0.8346  0.0784  0.4333
 2913TIP3    H130298   4.582   4.246   7.127 -0.3267 -1.7850 -0.6563
 2913TIP3    H230299   4.730   4.238   7.158 -0.5424 -1.3754  0.5059
 2914TIP3   OH230300   1.757   0.146   6.775  0.3522 -0.3752 -0.2206
 2914TIP3    H130301   1.802   0.066   6.748  2.3164  0.4557  0.3523
 2914TIP3    H230302   1.765   0.204   6.700  0.1451 -0.2532 -0.1488
 2915TIP3   OH230303   4.783   2.696   0.269  0.0259 -0.0602  0.0434
 2915TIP3    H130304   4.867   2.699   0.314  0.2899 -1.5362 -0.3069
 2915TIP3    H230305   4.805   2.678   0.178 -0.7209 -2.7465  0.3149
 2916TIP3   OH230306   5.977   6.393   2.376  0.7462 -0.1326 -0.3429
 2916TIP3    H130307   6.013   6.417   2.461  0.0785 -0.5822  0.0818
 2916TIP3    H230308   5.921   6.466   2.352  0.8295 -0.0648 -0.3303
 2917TIP3   OH230309   4.421   0.636   1.490 -0.0418  0.6964 -0.3077
 2917TIP3    H130310   4.358   0.586   1.541  0.4815 -0.2525 -0.5638
 2917TIP3    H230311   4.379   0.720   1.474 -0.8759  0.3916  0.2702
 2918TIP3   OH230312   4.314   1.269   1.616  0.0214  0.2588 -0.3842
 2918TIP3    H130313   4.287   1.215   1.690 -0.9048  1.6984  0.3750
 2918TIP3    H230314   4.246   1.255   1.550  0.5718 -0.6243 -0.7764
 2919TIP3   OH230315   4.374   0.330   7.908  0.5862 -0.4361 -0.8551
 2919TIP3    H130316   4.321   0.257   7.941  1.1420  0.1723  1.5159
 2919TIP3    H230317   4.311   0.402   7.898  0.9239  0.5333  2.7351
 2920TIP3   OH230318   6.411   1.928   8.364 -0.5240 -0.0947  0.2386
 2920TIP3    H130319   6.371   1.963   8.444  1.5835  0.7059  1.0091
 2920TIP3    H230320   6.434   1.838   8.387 -0.0266  0.0977  0.5100
 2921TIP3   OH230321   6.704   4.016   7.572  0.0651 -0.4810  0.5688
 2921TIP3    H130322   6.645   3.942   7.583  0.7733 -0.9408  1.3900
 2921TIP3    H230323   6.678   4.078   7.640 -0.0560 -0.2779  0.3427
 2922TIP3   OH230324   3.940   4.080   2.421 -0.1335 -0.5464  0.3282
 2922TIP3    H130325   3.905   4.024   2.352  0.3140 -2.1679  1.3542
 2922TIP3    H230326   4.026   4.043   2.441  0.7762  1.3415  0.1485
 2923TIP3   OH230327   5.818   5.478   8.159 -0.1506 -0.0620  0.2723
 2923TIP3    H130328   5.888   5.487   8.094 -1.2849 -0.5683 -1.0629
 2923TIP3    H230329   5.859   5.430   8.231  1.1627  0.5890 -0.0155
 2924TIP3   OH230330   2.604   3.200   8.698  0.6341  0.1963 -0.4342
 2924TIP3    H130331   2.589   3.264   8.627  2.0407  0.7569 -0.2538
 2924TIP3    H230332   2.676   3.237   8.748 -0.2311 -0.2841  1.2209
 2925TIP3   OH230333   6.007   5.169   1.927  0.0780 -0.5989 -0.4692
 2925TIP3    H130334   5.943   5.162   1.857  0.9301 -0.0857 -1.3242
 2925TIP3    H230335   6.022   5.079   1.956  0.1167 -0.8645 -1.3108
 2926TIP3   OH230336   6.131   0.049   7.856 -0.3845 -0.1202 -0.0935
 2926TIP3    H130337   6.036   0.050   7.866 -0.4644  1.4354 -0.6465
 2926TIP3    H230338   6.165   0.050   7.946 -0.9404  1.6799  0.1405
 2927TIP3   OH230339   5.297   3.069   1.367 -0.2514 -0.5199 -0.1362
 2927TIP3    H130340   5.214   3.024   1.357 -0.0944 -0.9320  0.3657
 2927TIP3    H230341   5.362   2.999   1.373  0.2528 -0.1933 -1.4504
 2928TIP3   OH230342   0.843   4.707   0.529  0.7368 -0.0395 -0.0811
 2928TIP3    H130343   0.779   4.719   0.459 -0.8650  0.2204  1.3647
 2928TIP3    H230344   0.905   4.779   0.518 -0.4939  1.0424 -0.2246
 2929TIP3   OH230345   4.724   0.896   7.219  0.2657  0.5123 -0.3055
 2929TIP3    H130346   4.648   0.895   7.277 -0.0112  0.2099 -0.6650
 2929TIP3    H230347   4.776   0.971   7.249 -0.4347  1.0459 -0.3855
 2930TIP3   OH230348   4.673   0.264   7.045 -0.4164 -0.6656  0.1641
 2930TIP3    H130349   4.578   0.253   7.055 -0.4275  0.5779  1.7696
 2930TIP3    H230350   4.681   0.333   6.979 -0.4987 -2.7137 -2.1734
 2931TIP3   OH230351   0.351   6.328   1.814  0.4483  0.1018  0.1638
 2931TIP3    H130352   0.397   6.307   1.733 -0.1121  0.5255 -0.2851
 2931TIP3    H230353   0.366   6.254   1.871  2.7153  0.7498  0.5116
 2932TIP3   OH230354   2.227   6.476   2.006  0.4797 -0.1878  0.1205
 2932TIP3    H130355   2.188   6.470   1.918  0.5188 -1.7585  0.1827
 2932TIP3    H230356   2.321   6.467   1.991  0.5495  0.3251  0.2544
 2933TIP3   OH230357   4.605   1.893   7.664  0.0048  0.5748  0.3806
 2933TIP3    H130358   4.618   1.921   7.573 -2.3106  0.4374 -0.0585
 2933TIP3    H230359   4.691   1.903   7.704  0.9463  1.2913 -1.6419
 2934TIP3   OH230360   2.101   4.869   0.446  0.1757 -0.5336  0.1164
 2934TIP3    H130361   2.068   4.884   0.358 -0.5397 -0.3437  0.4147
 2934TIP3    H230362   2.120   4.956   0.480  1.2588 -0.6481 -0.1451
 2935TIP3   OH230363   5.892   2.217   1.297  0.6928 -0.2361 -0.8480
 2935TIP3    H130364   5.944   2.139   1.280  0.3455 -1.3438  2.3968
 2935TIP3    H230365   5.802   2.188   1.290  0.5563  0.1221 -0.5938
 2936TIP3   OH230366   5.388   0.251   2.208 -0.5542  0.9586 -1.2187
 2936TIP3    H130367   5.381   0.344   2.229 -1.7404  0.6881 -0.3359
 2936TIP3    H230368   5.350   0.206   2.283 -1.9109 -0.1688 -2.5097
 2937TIP3   OH230369   3.028   6.312   8.133  0.2963 -0.2360 -0.2078
 2937TIP3    H130370   3.022   6.245   8.065  0.8829  0.7926 -1.3163
 2937TIP3    H230371   3.012   6.394   8.087  0.9398  0.5101  0.8538
 2938TIP3   OH230372   1.385   5.612   8.145  0.2991  0.0001  0.1725
 2938TIP3    H130373   1.401   5.681   8.081  1.2982 -0.5204 -0.1696
 2938TIP3    H230374   1.429   5.535   8.108 -2.1976 -1.3106 -0.3009
 2939TIP3   OH230375   0.032   6.701   8.404  0.1906 -0.0559  0.0829
 2939TIP3    H130376   0.101   6.667   8.347  0.0340  1.2361 -0.9221
 2939TIP3    H230377  -0.032   6.739   8.344 -1.1111 -0.6970  1.0275
 2940TIP3   OH230378   3.779   2.318   1.864  0.1763 -0.4775  0.3340
 2940TIP3    H130379   3.777   2.414   1.860  0.4426 -0.4486  0.7382
 2940TIP3    H230380   3.863   2.294   1.824 -0.4841 -0.6271 -0.9894
 2941TIP3   OH230381   0.276   6.834   7.996  0.1428 -0.4704  0.4123
 2941TIP3    H130382   0.318   6.912   8.032 -0.1520 -0.1296  0.0382
 2941TIP3    H230383   0.269   6.852   7.902  1.0854 -1.4276  0.1485
 2942TIP3   OH230384   0.786   2.331   8.003  0.4919  0.0495  0.3241
 2942TIP3    H130385   0.825   2.388   7.936  1.8181  0.7070  1.6045
 2942TIP3    H230386   0.836   2.250   7.997 -0.2040 -0.3439 -0.2858
 2943TIP3   OH230387   1.730   4.575   2.003 -0.1977  0.3185 -0.4653
 2943TIP3    H130388   1.816   4.612   1.983  1.6108 -1.8252  2.4934
 2943TIP3    H230389   1.680   4.648   2.040  1.3154  1.0702  0.1899
 2944TIP3   OH230390   3.925   1.180   8.604  0.2412 -0.0427  0.8680
 2944TIP3    H130391   3.843   1.147   8.567  0.1229  0.7137  0.4353
 2944TIP3    H230392   3.993   1.123   8.567 -0.0172 -0.1951  0.6285
 2945TIP3   OH230393   4.427   6.780   6.972  0.1452  0.8877 -0.1034
 2945TIP3    H130394   4.500   6.786   6.911 -0.6357  1.5832 -0.9989
 2945TIP3    H230395   4.468   6.759   7.056  1.3788  1.3158 -0.5701
 2946TIP3   OH230396   3.753   0.145   1.237  0.2913  0.0755  0.7059
 2946TIP3    H130397   3.837   0.104   1.259  1.1590  1.9870  1.1383
 2946TIP3    H230398   3.765   0.176   1.147 -1.0230 -2.1420 -0.3259
 2947TIP3   OH230399   5.480   4.282   2.024  0.1502 -0.1807 -0.3876
 2947TIP3    H130400   5.404   4.330   2.055  1.0402  1.6043 -0.8420
 2947TIP3    H230401   5.446   4.196   2.001 -1.0925 -0.5908  2.5683
 2948TIP3   OH230402   0.035   5.269   7.913 -0.5608 -0.2071 -0.0814
 2948TIP3    H130403   0.129   5.280   7.922 -0.5432  0.9041 -1.1993
 2948TIP3    H230404   0.018   5.177   7.933  0.5822 -0.1537  1.2931
 2949TIP3   OH230405   5.589   0.281   2.458  0.3942  0.8026  0.0175
 2949TIP3    H130406   5.523   0.339   2.496 -1.7008 -0.3073 -1.6795
 2949TIP3    H230407   5.580   0.293   2.363  2.6599  0.5573 -0.2989
 2950TIP3   OH230408   6.337   5.976   7.232  0.2169  0.6257  0.0882
 2950TIP3    H130409   6.326   6.015   7.145  0.6865  2.0420  0.6407
 2950TIP3    H230410   6.431   5.976   7.246  0.3632 -1.9600 -0.4010
 2951TIP3   OH230411   2.897   1.663   0.307  0.8144 -0.2526  0.0205
 2951TIP3    H130412   2.819   1.662   0.251  0.7346  0.9019  0.0965
 2951TIP3    H230413   2.866   1.629   0.391  0.3774  0.2408  0.0643
 2952TIP3   OH230414   2.045   1.431   8.353 -0.2900  0.0439 -1.1459
 2952TIP3    H130415   1.980   1.416   8.284  0.3740  0.9941 -2.0122
 2952TIP3    H230416   2.106   1.358   8.345 -1.4281 -1.0686 -0.0744
 2953TIP3   OH230417   0.247   5.400   7.446 -0.3902  0.0644 -0.5335
 2953TIP3    H130418   0.278   5.309   7.439  1.3254  0.4604  0.9722
 2953TIP3    H230419   0.211   5.405   7.535  0.5656  1.1282 -0.1943
 2954TIP3   OH230420   0.113   2.878   1.227  0.9724 -0.2941 -0.0833
 2954TIP3    H130421   0.192   2.835   1.263  0.9735  0.2337  0.5722
 2954TIP3    H230422   0.079   2.929   1.301 -1.1084 -2.0330  0.2558
 2955TIP3   OH230423   2.947   3.670   7.783 -0.1395  0.7948 -0.2398
 2955TIP3    H130424   2.872   3.619   7.813  0.1756 -0.9947 -2.3065
 2955TIP3    H230425   2.941   3.670   7.688  2.7664  0.1119 -0.5215
 2956TIP3   OH230426   4.522   2.441   0.310  0.7808  0.0157  0.5633
 2956TIP3    H130427   4.484   2.404   0.390  0.6745  0.1722  0.5857
 2956TIP3    H230428   4.567   2.521   0.339 -1.7687  1.7614  0.0653
 2957TIP3   OH230429   2.874   2.258   1.803 -0.0075  0.0840  0.4611
 2957TIP3    H130430   2.917   2.257   1.888  2.2163  0.8138 -0.5805
 2957TIP3    H230431   2.877   2.167   1.773  2.7283  0.3656 -0.4113
 2958TIP3   OH230432   2.001   6.705   1.999  0.2552 -0.0771 -0.4544
 2958TIP3    H130433   2.097   6.704   2.003  0.3641 -1.2843 -2.2215
 2958TIP3    H230434   1.980   6.648   1.925 -1.7951  1.4785 -1.1385
 2959TIP3   OH230435   3.318   6.841   1.807 -0.3063  0.2929 -0.2861
 2959TIP3    H130436   3.385   6.904   1.779  1.3065 -1.2293  0.0183
 2959TIP3    H230437   3.273   6.885   1.879 -0.2983  1.7163 -1.1043
 2960TIP3   OH230438   5.757   0.436   8.715  0.1371  0.4977 -0.1400
 2960TIP3    H130439   5.809   0.450   8.795  0.5155 -0.5132 -0.1937
 2960TIP3    H230440   5.823   0.422   8.647 -0.1738 -1.4120 -0.0970
 2961TIP3   OH230441   4.118   5.541   1.265 -0.6178 -0.0650 -0.5313
 2961TIP3    H130442   4.142   5.549   1.173  1.4224  0.9537  0.0257
 2961TIP3    H230443   4.110   5.446   1.280  3.8378 -0.6665 -0.7348
 2962TIP3   OH230444   2.195   2.898   6.365  0.2272  0.1005 -0.1032
 2962TIP3    H130445   2.268   2.836   6.370  0.9002  0.9095  0.3959
 2962TIP3    H230446   2.236   2.984   6.367 -0.8280  0.6992  3.7008
 2963TIP3   OH230447   4.239   4.130   0.333 -0.6208  0.1197  0.6308
 2963TIP3    H130448   4.170   4.081   0.376 -1.2882  0.9144  0.4975
 2963TIP3    H230449   4.319   4.079   0.348 -0.7758  0.4530  3.0190
 2964TIP3   OH230450   5.727   3.599   0.920  0.0793  0.7040  0.1023
 2964TIP3    H130451   5.766   3.512   0.925  1.8446  1.3793 -1.0094
 2964TIP3    H230452   5.747   3.629   0.831 -3.4239  0.9690 -0.7474
 2965TIP3   OH230453   2.634   1.863   2.445 -0.4833  0.3706 -0.0419
 2965TIP3    H130454   2.557   1.888   2.497  0.1803  1.6754  0.3744
 2965TIP3    H230455   2.623   1.770   2.429 -2.4608  0.6384 -0.5089
 2966TIP3   OH230456   5.337   2.527   0.770  0.2457  0.3980  0.4797
 2966TIP3    H130457   5.326   2.433   0.758 -0.8638  0.5334  0.3437
 2966TIP3    H230458   5.432   2.539   0.777  0.3718 -1.2519  4.5852
 2967TIP3   OH230459   4.375   2.107   7.551  0.5953  0.2027 -0.4899
 2967TIP3    H130460   4.409   2.139   7.467 -0.4213  1.0467 -0.6041
 2967TIP3    H230461   4.442   2.133   7.615  0.5097  1.2191 -0.7956
 2968TIP3   OH230462   4.056   6.763   8.431  0.0200  0.7167  0.2708
 2968TIP3    H130463   4.096   6.848   8.448 -0.6585  0.9891  0.5310
 2968TIP3    H230464   4.127   6.709   8.397  1.0337  0.6725  2.2979
 2969TIP3   OH230465   1.965   3.944   1.802 -0.1951  0.1746  0.7003
 2969TIP3    H130466   1.888   3.926   1.747 -0.5851 -0.3373  1.3851
 2969TIP3    H230467   1.930   3.947   1.891  0.7524 -1.3254  1.1592
 2970TIP3   OH230468   5.352   1.496   7.721 -0.1284 -1.0001  0.3675
 2970TIP3    H130469   5.368   1.464   7.632  2.2386  0.8192  0.0525
 2970TIP3    H230470   5.434   1.480   7.768 -0.7650 -0.4108  1.7367
 2971TIP3   OH230471   1.222   5.437   6.594 -0.0167 -0.3329 -0.3783
 2971TIP3    H130472   1.197   5.493   6.520 -0.3101  0.5697  0.3885
 2971TIP3    H230473   1.169   5.358   6.583  0.2236 -0.3696 -1.3364
 2972TIP3   OH230474   5.679   5.283   8.361  0.0052 -0.4756  0.0282
 2972TIP3    H130475   5.650   5.193   8.370 -1.3829 -0.1800 -1.1599
 2972TIP3    H230476   5.775   5.278   8.361 -0.0426 -2.0635 -0.9857
 2973TIP3   OH230477   3.389   5.666   7.352 -1.1416  0.5879  0.1154
 2973TIP3    H130478   3.319   5.661   7.288 -2.9021 -1.4091  2.0095
 2973TIP3    H230479   3.347   5.700   7.431  0.6470  1.8168  0.5982
 2974TIP3   OH230480   0.986   0.583   8.248 -0.1392 -0.3692 -0.5603
 2974TIP3    H130481   1.050   0.622   8.308  0.2204  0.1608 -1.2646
 2974TIP3    H230482   0.911   0.561   8.303  0.1341  0.2282  0.0644
 2975TIP3   OH230483   3.624   1.132   0.962 -0.0276  0.2742  0.7614
 2975TIP3    H130484   3.640   1.217   0.921  0.1915 -0.2938 -0.3589
 2975TIP3    H230485   3.645   1.068   0.894 -0.0095 -0.6853  1.6531
 2976TIP3   OH230486   2.401   2.840   1.877 -0.3347 -0.6257  0.2063
 2976TIP3    H130487   2.324   2.875   1.922  0.0909  0.1964  0.3183
 2976TIP3    H230488   2.467   2.830   1.946 -0.0915 -0.5830 -0.0179
 2977TIP3   OH230489   1.475   5.745   8.407  0.2905 -0.0694 -0.3260
 2977TIP3    H130490   1.440   5.685   8.341 -1.0925  0.7922 -0.4392
 2977TIP3    H230491   1.525   5.809   8.356 -0.6647  0.5181 -0.5656
 2978TIP3   OH230492   3.795   3.192   0.971 -0.5126  0.3862 -0.1806
 2978TIP3    H130493   3.763   3.274   1.008 -1.9859  0.3182 -1.2193
 2978TIP3    H230494   3.866   3.219   0.913 -0.4108  0.8319  0.1462
 2979TIP3   OH230495   3.741   0.416   6.584 -0.1760 -0.1153 -0.0326
 2979TIP3    H130496   3.677   0.379   6.522  0.5933 -1.6607  0.0640
 2979TIP3    H230497   3.826   0.402   6.543  0.2824 -0.3107  0.9555
 2980TIP3   OH230498   0.661   0.504   2.081  0.4021  0.2756  0.0017
 2980TIP3    H130499   0.574   0.500   2.121  0.4188  1.8487  0.2786
 2980TIP3    H230500   0.714   0.554   2.143  1.3841 -0.2521 -0.3858
 2981TIP3   OH230501   6.111   2.152   0.709  0.2329 -0.1531 -0.4278
 2981TIP3    H130502   6.196   2.188   0.732 -0.4529  1.8334 -0.7588
 2981TIP3    H230503   6.053   2.183   0.778 -0.6329  0.4952 -1.4050
 2982TIP3   OH230504   0.694   3.488   8.378 -0.5804  0.3237  0.5144
 2982TIP3    H130505   0.709   3.581   8.364 -0.4463  0.6256  2.3627
 2982TIP3    H230506   0.640   3.484   8.458  0.5559 -1.2108  1.2701
 2983TIP3   OH230507   3.246   1.521   0.673  0.1113 -0.4500 -0.1937
 2983TIP3    H130508   3.186   1.449   0.694 -0.3238 -0.1157 -0.2926
 2983TIP3    H230509   3.190   1.597   0.660  0.4963 -0.2849 -0.9571
 2984TIP3   OH230510   4.263   3.448   0.042  0.2231  0.2366 -0.7897
 2984TIP3    H130511   4.199   3.414   0.104  0.0399  0.2706 -0.9583
 2984TIP3    H230512   4.262   3.543   0.056 -0.9454  0.4129 -1.8998
 2985TIP3   OH230513   5.515   2.749   8.440  0.0217 -0.2182 -0.5668
 2985TIP3    H130514   5.479   2.744   8.528  1.5134 -2.2400 -0.0082
 2985TIP3    H230515   5.537   2.841   8.428 -0.8057  0.1982  0.9054
 2986TIP3   OH230516   3.905   6.580   0.237  0.6108 -0.1833  0.2010
 2986TIP3    H130517   3.959   6.565   0.160 -1.4268  0.6449 -1.5126
 2986TIP3    H230518   3.886   6.674   0.235 -1.1133 -0.4860  0.4912
 2987TIP3   OH230519   3.760   0.476   1.594 -0.3840 -0.2429 -0.0269
 2987TIP3    H130520   3.749   0.547   1.531  0.0743 -0.4659 -0.3668
 2987TIP3    H230521   3.729   0.512   1.677  1.3834  0.9320  0.1724
 2988TIP3   OH230522   6.632   5.491   0.132 -0.0505  0.2692  0.6212
 2988TIP3    H130523   6.705   5.465   0.076  1.8842  1.0459  2.6507
 2988TIP3    H230524   6.603   5.410   0.174  0.0684  0.0647  0.3093
 2989TIP3   OH230525   1.240   0.091   6.898  0.6901 -0.1599  0.0346
 2989TIP3    H130526   1.187   0.118   6.822  2.1011 -0.0842 -0.9548
 2989TIP3    H230527   1.222   0.158   6.964 -1.5800 -0.9345  0.2950
 2990TIP3   OH230528   1.229   5.081   1.416  0.3743  0.6162  0.4537
 2990TIP3    H130529   1.285   5.044   1.485  2.5465  1.7190 -0.6114
 2990TIP3    H230530   1.163   5.131   1.464  0.7402 -0.1064  1.7715
 2991TIP3   OH230531   5.544   3.989   8.535 -0.3167  0.4425  0.0737
 2991TIP3    H130532   5.587   4.073   8.523  1.7697 -0.3875  1.3312
 2991TIP3    H230533   5.597   3.928   8.483 -1.0171 -0.3239  0.2430
 2992TIP3   OH230534   1.864   4.302   1.912 -0.1509  0.1183 -0.2004
 2992TIP3    H130535   1.906   4.228   1.868  1.4403  0.2032  1.0611
 2992TIP3    H230536   1.920   4.377   1.891  0.5271  0.2019  1.6829
 2993TIP3   OH230537   5.167   4.388   2.016  0.1275 -0.4912 -0.2845
 2993TIP3    H130538   5.197   4.425   2.099  0.5437 -0.6260 -0.3733
 2993TIP3    H230539   5.131   4.302   2.040  3.6036 -2.2128 -0.6721
 2994TIP3   OH230540   6.544   0.276   7.142  0.0447 -0.0872 -0.2336
 2994TIP3    H130541   6.540   0.372   7.134 -0.3839  0.0603  1.3342
 2994TIP3    H230542   6.525   0.244   7.054  0.6505  1.2729 -0.8965
 2995TIP3   OH230543   2.695   1.633   0.111 -0.1220  0.7935  0.7151
 2995TIP3    H130544   2.704   1.675   0.026  0.2552  0.1516  0.4334
 2995TIP3    H230545   2.632   1.689   0.158 -0.8088  0.8196 -0.1950
 2996TIP3   OH230546   4.155   1.632   0.863 -0.3241 -0.5347 -0.1434
 2996TIP3    H130547   4.210   1.708   0.879  1.1486 -1.5601 -0.0640
 2996TIP3    H230548   4.137   1.597   0.950  0.5925 -1.3159 -0.2467
 2997TIP3   OH230549   4.982   1.631   8.530  0.3688  0.0609  0.1940
 2997TIP3    H130550   4.976   1.678   8.447 -1.3205 -0.1345  0.1769
 2997TIP3    H230551   4.906   1.662   8.580  1.5655  0.4865  1.8450
 2998TIP3   OH230552   3.212   5.328   1.780  0.6295 -0.3508 -0.1916
 2998TIP3    H130553   3.166   5.252   1.815  0.6314 -0.9165 -1.3785
 2998TIP3    H230554   3.156   5.402   1.803  0.1918 -0.8061  0.2257
 2999TIP3   OH230555   2.696   3.076   8.116 -0.0027  0.0567  0.1646
 2999TIP3    H130556   2.670   3.013   8.183 -0.7621  0.1172 -0.0606
 2999TIP3    H230557   2.673   3.034   8.033  0.7172  0.0795 -0.0489
 3000TIP3   OH230558   3.639   0.487   1.889  0.0036 -0.5837 -0.7005
 3000TIP3    H130559   3.684   0.546   1.950  0.4863 -0.3391 -1.2860
 3000TIP3    H230560   3.588   0.429   1.945  0.3466 -0.2811 -0.0687
 3001TIP3   OH230561   5.057   1.902   0.634  0.3042  0.0415 -0.3898
 3001TIP3    H130562   4.971   1.930   0.666  1.0495  0.3564  1.5076
 3001TIP3    H230563   5.051   1.807   0.628 -0.8529  0.1994 -2.5094
 3002TIP3   OH230564   5.567   4.655   1.236 -0.6510  0.0037  0.3253
 3002TIP3    H130565   5.661   4.667   1.251 -1.0659  1.2106  2.2651
 3002TIP3    H230566   5.546   4.715   1.164  0.2248 -1.0780 -0.8734
 3003TIP3   OH230567   0.162   2.880   7.995  0.0519  0.8115  0.1641
 3003TIP3    H130568   0.240   2.888   8.050  0.2467  0.9823 -0.1315
 3003TIP3    H230569   0.097   2.936   8.037 -0.9607 -1.7115  2.2000
 3004TIP3   OH230570   2.837   5.640   0.653 -0.5363  0.3447 -0.0550
 3004TIP3    H130571   2.832   5.549   0.684 -1.5238  0.1357 -0.7637
 3004TIP3    H230572   2.894   5.636   0.576 -0.4734  0.3479 -0.0086
 3005TIP3   OH230573   4.479   1.686   7.242 -0.0873 -0.4296 -0.5349
 3005TIP3    H130574   4.487   1.770   7.289  0.4827 -0.7846  0.0167
 3005TIP3    H230575   4.390   1.657   7.260 -0.0611 -0.2777 -0.1480
 3006TIP3   OH230576   0.049   1.903   0.600 -0.2035  0.3940  0.0943
 3006TIP3    H130577   0.036   1.810   0.584 -2.9862  0.6171  0.4689
 3006TIP3    H230578   0.004   1.946   0.528  2.0265  1.5206 -0.7089
 3007TIP3   OH230579   5.107   5.378   7.611 -0.0876 -0.0171 -0.1256
 3007TIP3    H130580   5.129   5.455   7.664  0.9974 -0.4064  0.0152
 3007TIP3    H230581   5.139   5.303   7.662 -1.0726 -0.5663 -0.2913
 3008TIP3   OH230582   0.984   3.358   1.283 -0.3800  0.0530 -0.0850
 3008TIP3    H130583   1.037   3.385   1.208  1.9301  0.1616  1.4925
 3008TIP3    H230584   1.001   3.264   1.291  2.1572  0.5800  2.2078
 3009TIP3   OH230585   3.683   1.649   1.349  0.1224 -0.1160  0.0451
 3009TIP3    H130586   3.713   1.698   1.425 -0.5177  2.3587 -1.2127
 3009TIP3    H230587   3.757   1.650   1.289 -0.1185 -0.1425 -0.2540
 3010TIP3   OH230588   6.295   2.305   0.142  0.1999 -0.0090 -0.2987
 3010TIP3    H130589   6.245   2.223   0.136  0.0162  0.1843 -2.2462
 3010TIP3    H230590   6.230   2.374   0.129  0.3728  0.4660  1.2405
 3011TIP3   OH230591   3.402   0.409   8.229  0.7876 -0.4696 -0.1230
 3011TIP3    H130592   3.377   0.442   8.315 -0.4703 -0.1497 -0.5784
 3011TIP3    H230593   3.491   0.440   8.216  0.8551 -0.1889  0.8958
 3012TIP3   OH230594   0.027   2.723   1.448  0.2247 -0.5306  0.3910
 3012TIP3    H130595   0.120   2.721   1.469  0.2029  1.0288  0.7827
 3012TIP3    H230596  -0.014   2.761   1.526 -0.6349 -0.4128 -0.1082
 3013TIP3   OH230597   4.441   6.465   0.753  0.1663 -0.0285 -0.2146
 3013TIP3    H130598   4.514   6.520   0.724 -0.7444  0.9377 -0.7361
 3013TIP3    H230599   4.447   6.464   0.848  1.1748 -0.4255 -0.2665
 3014TIP3   OH230600   4.824   5.321   0.963 -0.0148 -0.3650 -0.2506
 3014TIP3    H130601   4.785   5.394   0.916  2.6459  0.5197 -1.2684
 3014TIP3    H230602   4.772   5.312   1.042 -1.1632  1.8204 -0.7010
 3015TIP3   OH230603   2.336   4.022   6.961  0.4602 -0.4412 -0.6697
 3015TIP3    H130604   2.414   4.030   6.908 -0.3220  0.2624 -1.7577
 3015TIP3    H230605   2.288   3.949   6.923 -0.2727  0.2896 -1.2031
 3016TIP3   OH230606   0.971   0.530   0.575  0.2217 -0.1453 -0.2331
 3016TIP3    H130607   1.008   0.618   0.567  1.5461 -0.6497  0.0901
 3016TIP3    H230608   1.007   0.482   0.501 -0.0777 -0.5627 -0.1119
 3017TIP3   OH230609   3.333   2.782   0.794  0.0858  0.1525 -0.0160
 3017TIP3    H130610   3.325   2.693   0.759 -1.3679  0.8159 -1.4877
 3017TIP3    H230611   3.389   2.827   0.731  0.0128  0.5495  0.2024
 3018TIP3   OH230612   5.221   4.006   7.544 -0.2044 -0.2645  0.1571
 3018TIP3    H130613   5.199   3.988   7.635 -1.1854 -0.8712 -0.1879
 3018TIP3    H230614   5.197   3.926   7.497  2.9371 -1.1126 -0.2687
 3019TIP3   OH230615   2.727   4.275   7.201  0.1851  0.6331 -0.1486
 3019TIP3    H130616   2.696   4.190   7.168  0.3938  1.2465 -2.0217
 3019TIP3    H230617   2.678   4.340   7.150  2.4545  1.6195 -1.2081
 3020TIP3   OH230618   3.926   6.396   0.728  0.7459 -0.6061  0.2797
 3020TIP3    H130619   3.943   6.395   0.633 -0.8134  1.8917 -0.1183
 3020TIP3    H230620   3.832   6.412   0.735  1.1156  1.0602  2.2184
 3021TIP3   OH230621   5.627   0.270   6.744  0.4456 -0.3645  0.1488
 3021TIP3    H130622   5.718   0.281   6.714  0.5247  0.4100  0.6337
 3021TIP3    H230623   5.601   0.358   6.773 -0.2415 -0.7171  0.6316
 3022TIP3   OH230624   5.821   5.034   7.715  0.0711 -0.0320  0.0095
 3022TIP3    H130625   5.791   5.016   7.625 -0.3078  0.8339 -0.0483
 3022TIP3    H230626   5.786   5.121   7.734  0.9730  0.1981  0.6509
 3023TIP3   OH230627   3.188   1.886   1.678 -0.3096  0.0056 -0.0592
 3023TIP3    H130628   3.111   1.942   1.687  1.0504  1.8369  0.8505
 3023TIP3    H230629   3.227   1.912   1.594 -1.4127 -1.9639 -1.2576
 3024TIP3   OH230630   6.501   4.180   0.939 -0.5286  0.0484 -0.3976
 3024TIP3    H130631   6.450   4.116   0.989 -1.2799  0.4866 -0.5824
 3024TIP3    H230632   6.566   4.128   0.894  0.5140 -0.3200  1.4175
 3025TIP3   OH230633   6.153   6.653   8.620 -0.1180  0.4021  0.6152
 3025TIP3    H130634   6.117   6.727   8.669 -2.8811 -1.6390  1.9180
 3025TIP3    H230635   6.123   6.666   8.530  0.8808  1.6903  0.4444
 3026TIP3   OH230636   4.183   1.374   0.121 -0.3859 -0.3672  0.8235
 3026TIP3    H130637   4.133   1.431   0.063 -0.5251  0.6238  1.8859
 3026TIP3    H230638   4.262   1.424   0.143  1.0217 -1.8215 -0.6391
 3027TIP3   OH230639   4.639   6.614   8.489  0.7569  0.0042  0.3179
 3027TIP3    H130640   4.650   6.645   8.579 -0.4192  1.6992 -0.0829
 3027TIP3    H230641   4.546   6.593   8.481  0.7761  0.2068 -0.6069
 3028TIP3   OH230642   3.802   2.909   0.067  0.1245  0.1331  0.0029
 3028TIP3    H130643   3.813   2.829   0.017 -1.2373 -0.1796  0.1699
 3028TIP3    H230644   3.876   2.910   0.128  0.4339 -0.7219 -0.3530
 3029TIP3   OH230645   2.944   2.084   7.346  0.8700  0.3031  0.1831
 3029TIP3    H130646   2.870   2.114   7.294  0.4575  0.3240  0.7674
 3029TIP3    H230647   3.021   2.099   7.290  0.4543  0.4378 -0.3615
 3030TIP3   OH230648   0.231   0.555   8.021 -0.0250  0.1010 -0.3953
 3030TIP3    H130649   0.243   0.511   7.937 -0.4300  0.4374 -0.6334
 3030TIP3    H230650   0.320   0.568   8.054  0.2468  1.5404 -1.5990
 3031TIP3   OH230651   5.389   1.863   0.800  0.5359  0.2369  0.1592
 3031TIP3    H130652   5.310   1.866   0.853  0.8836  2.3134  0.6387
 3031TIP3    H230653   5.450   1.923   0.844  1.1228  1.4134 -2.1038
 3032TIP3   OH230654   3.299   0.344   1.492  0.1000 -0.0896  0.7271
 3032TIP3    H130655   3.265   0.275   1.435  1.0903 -0.7222  0.8773
 3032TIP3    H230656   3.391   0.355   1.466  0.6443 -0.5331  2.2920
 3033TIP3   OH230657   2.079   5.552   0.183  0.2073 -0.4175 -0.5490
 3033TIP3    H130658   2.108   5.637   0.149  1.0351 -0.4792 -0.0361
 3033TIP3    H230659   2.103   5.555   0.276 -2.0257 -0.2385  0.0721
 3034TIP3   OH230660   3.893   6.053   0.586  0.4249 -0.0403 -0.0455
 3034TIP3    H130661   3.917   6.046   0.678 -1.2070 -0.5054  0.3943
 3034TIP3    H230662   3.893   6.147   0.568 -2.0132  0.3254  1.3087
 3035TIP3   OH230663   4.897   2.936   1.927  0.3921  0.1306  0.6809
 3035TIP3    H130664   4.821   2.888   1.961 -0.5280 -0.0626 -1.4671
 3035TIP3    H230665   4.973   2.889   1.960 -0.4777 -1.7519  0.1093
 3036TIP3   OH230666   5.298   5.306   0.076  0.1715 -0.0808 -0.0802
 3036TIP3    H130667   5.226   5.284   0.136  1.5947 -1.9093  1.0444
 3036TIP3    H230668   5.261   5.294  -0.011 -0.6872 -1.8285  0.4809
 3037TIP3   OH230669   0.050   3.042   1.438  0.2972  0.0045  0.2202
 3037TIP3    H130670   0.006   3.122   1.465  0.2170  0.5988 -1.5178
 3037TIP3    H230671   0.112   3.023   1.509 -0.3174  1.0975  1.0720
 3038TIP3   OH230672   4.561   4.102   7.884  0.4663  0.2633 -0.9161
 3038TIP3    H130673   4.534   4.156   7.958 -0.0929  0.1971 -1.0711
 3038TIP3    H230674   4.642   4.143   7.852  0.1156  0.9326 -0.9550
 3039TIP3   OH230675   1.155   2.474   1.570 -0.0130  0.4110  0.2295
 3039TIP3    H130676   1.175   2.385   1.598 -0.3764 -0.1636 -1.2074
 3039TIP3    H230677   1.235   2.524   1.585  1.4991 -1.0517 -2.3608
 3040TIP3   OH230678   6.603   1.165   1.355 -0.3747  0.0730  0.7847
 3040TIP3    H130679   6.585   1.082   1.313 -3.1457  0.8472  0.2804
 3040TIP3    H230680   6.591   1.148   1.449 -0.6999 -0.1499  0.7014
 3041TIP3   OH230681   3.987   1.464   8.629  0.0290  0.4325 -0.0464
 3041TIP3    H130682   3.901   1.475   8.588 -1.1627  0.5405  2.3523
 3041TIP3    H230683   4.012   1.374   8.607 -1.4481 -0.1491  0.5310
 3042TIP3   OH230684   0.029   6.109   1.679 -0.4399  0.1001  0.2238
 3042TIP3    H130685   0.005   6.086   1.769  0.0303  1.3461  0.6895
 3042TIP3    H230686  -0.033   6.177   1.654 -0.9331 -0.6488 -0.6212
 3043TIP3   OH230687   1.776   0.828   0.994 -0.9834 -0.7474  0.3245
 3043TIP3    H130688   1.842   0.796   0.933 -1.6264 -1.3107 -0.0985
 3043TIP3    H230689   1.730   0.897   0.947 -1.3933 -1.0901  0.2163
 3044TIP3   OH230690   2.825   1.443   8.558 -0.6254  0.6154 -0.2317
 3044TIP3    H130691   2.853   1.534   8.551  0.0407  0.5343  1.0782
 3044TIP3    H230692   2.758   1.433   8.491 -0.7990  2.1126 -0.3059
 3045TIP3   OH230693   5.439   3.866   2.331 -0.1119  0.2034  0.1057
 3045TIP3    H130694   5.481   3.928   2.391  2.2721 -0.0929 -1.0943
 3045TIP3    H230695   5.459   3.780   2.368  2.6287 -0.0625 -1.6459
 3046TIP3   OH230696   1.150   1.606   1.753  0.2692 -0.8339  0.2243
 3046TIP3    H130697   1.170   1.688   1.707 -0.7819 -1.2579 -1.0523
 3046TIP3    H230698   1.221   1.596   1.816 -0.4565  1.9856  1.6895
 3047TIP3   OH230699   2.642   5.655   1.215 -0.3090 -0.4082 -0.1848
 3047TIP3    H130700   2.724   5.687   1.253  0.6974 -0.7426 -1.9578
 3047TIP3    H230701   2.623   5.575   1.263  1.5873 -1.4827 -1.0792
 3048TIP3   OH230702   0.540   4.006   2.366  0.0197 -0.3778  0.2407
 3048TIP3    H130703   0.616   4.029   2.419  0.3479  0.8674 -0.7191
 3048TIP3    H230704   0.485   3.952   2.424  1.5709 -1.2405  0.9749
 3049TIP3   OH230705   0.921   1.706   6.476 -0.3487 -0.4334 -0.4383
 3049TIP3    H130706   0.959   1.742   6.556 -0.2214 -2.0610  0.2916
 3049TIP3    H230707   0.995   1.663   6.433 -0.7449 -1.0144 -0.5539
 3050TIP3   OH230708   4.281   6.540   1.988  0.0813  0.2335 -0.2719
 3050TIP3    H130709   4.294   6.620   1.937  1.9340 -0.3100 -0.7494
 3050TIP3    H230710   4.346   6.546   2.058  0.2481 -0.8339 -0.3226
 3051TIP3   OH230711   6.058   6.447   0.185  0.3951  0.3019 -0.4349
 3051TIP3    H130712   6.038   6.373   0.243 -1.3037  0.4291 -0.8048
 3051TIP3    H230713   6.074   6.521   0.244 -1.9613  0.5962 -0.0685
 3052TIP3   OH230714   0.251   0.669   0.860  0.4021  0.4115  0.0431
 3052TIP3    H130715   0.247   0.753   0.815  1.4073  0.4141 -0.0605
 3052TIP3    H230716   0.176   0.620   0.827  1.6154  0.0478 -2.3654
 3053TIP3   OH230717   6.307   6.804   1.711  0.3289  0.1293 -0.0605
 3053TIP3    H130718   6.338   6.718   1.741  1.7600  0.8802  0.7139
 3053TIP3    H230719   6.321   6.803   1.617 -0.5669 -0.8163 -0.2112
 3054TIP3   OH230720   3.790   4.226   0.694  0.2258 -0.1592  0.2224
 3054TIP3    H130721   3.700   4.224   0.661  1.0070  0.6432 -2.2139
 3054TIP3    H230722   3.784   4.271   0.778 -1.7777 -1.2660  0.7622
 3055TIP3   OH230723   4.384   5.472   8.098  0.4474  0.3977 -0.2933
 3055TIP3    H130724   4.455   5.518   8.055  1.9058 -0.3304  1.2272
 3055TIP3    H230725   4.392   5.381   8.067 -0.5081  0.5196 -0.9384
 3056TIP3   OH230726   6.241   0.173   0.874 -0.0865 -0.0907 -0.0159
 3056TIP3    H130727   6.249   0.265   0.899  2.3312  0.1505 -1.4287
 3056TIP3    H230728   6.149   0.152   0.890 -1.3356  3.2419 -1.8550
 3057TIP3   OH230729   6.671   4.600   2.201 -0.5365  0.0913 -0.5054
 3057TIP3    H130730   6.619   4.593   2.280  0.0142 -1.4253 -0.2415
 3057TIP3    H230731   6.609   4.587   2.129 -0.3245 -4.1696 -0.1608
 3058TIP3   OH230732   3.665   0.780   8.250  1.2254 -0.5453 -0.0505
 3058TIP3    H130733   3.707   0.851   8.201 -0.3795  0.1613 -0.4768
 3058TIP3    H230734   3.733   0.748   8.309  2.2160  0.8357 -0.3814
 3059TIP3   OH230735   3.113   0.335   7.677  0.6372 -0.6712  0.6079
 3059TIP3    H130736   3.192   0.280   7.673  0.4846 -0.8523  0.0768
 3059TIP3    H230737   3.147   0.425   7.673  0.8826 -0.7194  1.4123
 3060TIP3   OH230738   6.613   3.528   1.434  0.5961  0.2320  0.7527
 3060TIP3    H130739   6.620   3.622   1.417 -0.4858  0.5669  2.0517
 3060TIP3    H230740   6.591   3.521   1.527  0.4592 -1.3046  0.6364
 3061TIP3   OH230741   4.529   0.598   0.623 -0.4625 -0.3920  0.5805
 3061TIP3    H130742   4.543   0.553   0.539 -1.0078  1.2798 -0.4587
 3061TIP3    H230743   4.601   0.568   0.679 -1.1875 -3.0759  0.2207
 3062TIP3   OH230744   6.480   5.159   0.579  0.4756  0.3443 -0.2361
 3062TIP3    H130745   6.387   5.160   0.602 -0.4760 -3.2915 -2.9731
 3062TIP3    H230746   6.495   5.243   0.537 -0.9833  1.7973  1.9085
 3063TIP3   OH230747   1.307   6.361   7.517  0.4414 -0.0113  0.0596
 3063TIP3    H130748   1.328   6.423   7.448 -1.0763  0.5308  0.0438
 3063TIP3    H230749   1.217   6.333   7.498  1.2067 -2.5641 -0.1825
 3064TIP3   OH230750   4.295   6.105   0.903 -0.6348 -0.5202  0.6862
 3064TIP3    H130751   4.226   6.063   0.852  1.2606 -1.0554 -1.6175
 3064TIP3    H230752   4.277   6.199   0.893 -1.4657 -0.6578  0.7893
 3065TIP3   OH230753   2.051   3.816   1.394  0.2276 -0.4008 -0.9639
 3065TIP3    H130754   2.052   3.908   1.366  0.8384 -0.0194  0.2114
 3065TIP3    H230755   2.142   3.788   1.386  0.7280  0.1256  1.6995
 3066TIP3   OH230756   1.397   0.321   1.818  0.1456 -0.4992 -0.3554
 3066TIP3    H130757   1.373   0.232   1.842 -0.6152  0.4370  2.9624
 3066TIP3    H230758   1.324   0.353   1.766 -0.8355 -1.0459  0.6454
 3067TIP3   OH230759   6.198   0.369   0.641 -0.1071  0.5326  0.2401
 3067TIP3    H130760   6.140   0.307   0.685  0.3918 -0.3854 -0.3759
 3067TIP3    H230761   6.198   0.446   0.698  1.5043 -1.0606  2.5267
 3068TIP3   OH230762   6.539   2.366   1.714  0.1249 -0.3049 -0.5910
 3068TIP3    H130763   6.512   2.274   1.722  0.4065 -0.3601 -0.2389
 3068TIP3    H230764   6.628   2.368   1.750  0.0228  0.1552 -0.3561
 3069TIP3   OH230765   5.325   1.448   0.374  0.1261  0.8404  0.4170
 3069TIP3    H130766   5.400   1.482   0.423  0.1752 -0.1526  1.0617
 3069TIP3    H230767   5.252   1.506   0.398 -0.2583 -0.5451  3.0469
 3070TIP3   OH230768   2.205   0.455   1.689  0.2414  0.7374  0.4829
 3070TIP3    H130769   2.161   0.511   1.752 -0.1028  0.0795  0.8374
 3070TIP3    H230770   2.288   0.499   1.671 -0.5496  2.0210 -0.2234
 3071TIP3   OH230771   6.178   3.575   8.359  0.0166  0.3474 -0.1267
 3071TIP3    H130772   6.142   3.499   8.315  0.8789 -0.0723 -0.1295
 3071TIP3    H230773   6.254   3.542   8.407  1.2069  1.4086 -1.1821
 3072TIP3   OH230774   0.450   3.947   7.565  0.9899 -0.3340 -0.3310
 3072TIP3    H130775   0.520   3.888   7.541  0.1288 -0.2497 -3.4256
 3072TIP3    H230776   0.481   4.034   7.541  0.0182 -0.2585 -1.4319
 3073TIP3   OH230777   4.253   2.435   1.405 -0.1463 -0.1786 -0.1847
 3073TIP3    H130778   4.212   2.434   1.492 -2.0805  2.1971 -0.9631
 3073TIP3    H230779   4.202   2.372   1.354 -1.3566  1.0274 -0.5079
 3074TIP3   OH230780   1.393   6.640   0.453 -0.1301  0.4921 -0.3593
 3074TIP3    H130781   1.399   6.673   0.543  0.8857 -2.8083  0.9232
 3074TIP3    H230782   1.300   6.623   0.439 -0.1144 -0.6901  0.8095
 3075TIP3   OH230783   0.214   0.280   8.194 -0.1925  0.3577 -0.8455
 3075TIP3    H130784   0.229   0.223   8.269 -1.9972 -2.1773 -2.2707
 3075TIP3    H230785   0.291   0.266   8.138  1.0099  2.0255  0.2783
 3076TIP3   OH230786   3.255   4.171   7.150 -0.0562  0.3543  0.2815
 3076TIP3    H130787   3.169   4.196   7.116 -0.2058  0.5005  0.7626
 3076TIP3    H230788   3.291   4.113   7.083  0.4134  2.0462 -1.0205
 3077TIP3   OH230789   2.644   2.420   7.215  0.0036  0.6797  0.4274
 3077TIP3    H130790   2.668   2.327   7.211 -0.1953  0.6483 -0.3869
 3077TIP3    H230791   2.650   2.449   7.124  0.1621  1.4939  0.6903
 3078TIP3   OH230792   1.384   4.249   1.611  0.5356  0.0979 -0.1519
 3078TIP3    H130793   1.371   4.174   1.553  0.3742  0.9563 -1.2639
 3078TIP3    H230794   1.372   4.325   1.554 -0.6405  0.9824  1.2327
 3079TIP3   OH230795   6.012   4.302   7.787 -0.1723 -0.3689  0.2784
 3079TIP3    H130796   6.092   4.315   7.735 -1.5855 -0.4353 -2.0622
 3079TIP3    H230797   5.968   4.387   7.786 -0.8095 -0.6903  0.3398
 3080TIP3   OH230798   2.883   3.691   7.517  0.0111  0.6008 -0.1419
 3080TIP3    H130799   2.818   3.675   7.448  0.2294 -0.6455 -0.0873
 3080TIP3    H230800   2.964   3.655   7.482  0.6348  1.9028 -0.0995
 3081TIP3   OH230801   2.590   1.911   1.522  0.5559  0.5283  0.5508
 3081TIP3    H130802   2.600   1.974   1.593  0.7510  0.2147  0.7983
 3081TIP3    H230803   2.615   1.827   1.559  0.9714  0.4110  0.0251
 3082TIP3   OH230804   5.180   4.732   2.211  0.4333  0.0393 -0.2298
 3082TIP3    H130805   5.266   4.769   2.230 -0.3364  2.0837 -0.4596
 3082TIP3    H230806   5.174   4.654   2.266  3.2266 -1.3875 -1.7545
 3083TIP3   OH230807   0.725   6.750   6.542 -0.3814 -0.0520 -0.0094
 3083TIP3    H130808   0.810   6.713   6.522 -0.4680  0.2979 -1.0509
 3083TIP3    H230809   0.735   6.844   6.523 -1.4993 -0.2694 -1.8957
 3084TIP3   OH230810   6.314   6.498   1.741  0.0073  0.3118  0.2197
 3084TIP3    H130811   6.227   6.511   1.781 -0.2425  0.1319 -0.2583
 3084TIP3    H230812   6.343   6.413   1.774 -0.5017 -0.1572 -0.5200
 3085TIP3   OH230813   2.241   6.644   6.570 -0.4750 -0.1738 -0.4304
 3085TIP3    H130814   2.209   6.619   6.483 -0.3610  0.5304 -0.6763
 3085TIP3    H230815   2.290   6.567   6.599 -1.2200 -0.7454 -0.6210
 3086TIP3   OH230816   4.209   1.975   8.142 -0.4907 -0.3336  0.5208
 3086TIP3    H130817   4.181   1.898   8.093 -2.3736 -0.0153  1.0086
 3086TIP3    H230818   4.285   1.945   8.192 -0.7631 -1.6838  0.1664
 3087TIP3   OH230819   4.240   0.762   1.693 -0.1592 -0.8325 -0.4808
 3087TIP3    H130820   4.332   0.738   1.694  0.6190  1.8394  0.2799
 3087TIP3    H230821   4.219   0.779   1.785 -0.3754  1.8438 -0.9376
 3088TIP3   OH230822   1.809   1.189   7.821 -0.3223  0.6695 -0.3169
 3088TIP3    H130823   1.865   1.264   7.801 -1.3758  1.6488  0.3137
 3088TIP3    H230824   1.775   1.160   7.736  0.3198  0.7104 -0.5901
 3089TIP3   OH230825   0.590   3.019   1.276  0.0124  0.4235 -0.4269
 3089TIP3    H130826   0.504   3.055   1.257 -0.0313  0.0900 -0.8605
 3089TIP3    H230827   0.593   3.013   1.372 -0.4092  0.5184 -0.4086
 3090TIP3   OH230828   5.559   2.524   6.913  0.0955  0.1012 -0.0941
 3090TIP3    H130829   5.510   2.596   6.875 -0.4097 -1.1155 -1.8741
 3090TIP3    H230830   5.508   2.497   6.989 -1.6930 -0.7048 -1.5204
 3091TIP3   OH230831   4.456   3.873   6.359  0.2352  0.4165  0.0642
 3091TIP3    H130832   4.463   3.959   6.400 -0.1842  0.1340  0.7515
 3091TIP3    H230833   4.367   3.843   6.380  0.8044 -0.7428  0.9774
 3092TIP3   OH230834   2.710   3.981   7.566 -0.0832  0.4465  0.1282
 3092TIP3    H130835   2.757   4.055   7.604  0.2471 -0.1231  0.8425
 3092TIP3    H230836   2.756   3.964   7.484  2.7405 -1.7768  1.9970
 3093TIP3   OH230837   2.456   5.331   1.797 -0.3177  0.8252  0.1957
 3093TIP3    H130838   2.504   5.250   1.779  1.4709  2.0663 -0.9065
 3093TIP3    H230839   2.503   5.398   1.748 -2.3187  2.3975  0.2928
 3094TIP3   OH230840   3.617   4.549   7.989  0.1787 -0.1826 -0.1252
 3094TIP3    H130841   3.632   4.580   7.900 -1.6860  0.7269 -0.1816
 3094TIP3    H230842   3.529   4.511   7.987  0.6641 -1.4405  1.0100
 3095TIP3   OH230843   4.204   0.284   6.327 -0.0371 -0.0277 -0.1282
 3095TIP3    H130844   4.200   0.218   6.396  0.0494  0.9152  0.8024
 3095TIP3    H230845   4.265   0.248   6.263 -0.8281 -1.3405 -0.1805
 3096TIP3   OH230846   4.181   0.689   0.454 -0.1276  0.4998 -0.3703
 3096TIP3    H130847   4.156   0.745   0.527  0.9353 -1.3690  1.5322
 3096TIP3    H230848   4.277   0.692   0.453 -0.0614 -1.0265 -0.4000
 3097TIP3   OH230849   4.850   3.269   0.210 -0.4201 -0.0305 -0.2146
 3097TIP3    H130850   4.775   3.279   0.268  2.2942 -0.3208  3.6767
 3097TIP3    H230851   4.868   3.175   0.211  1.3456  0.2905  0.8685
 3098TIP3   OH230852   4.137   2.847   1.294 -0.2429  0.5665 -0.2131
 3098TIP3    H130853   4.099   2.806   1.372 -1.9933 -0.6553 -1.6245
 3098TIP3    H230854   4.102   2.796   1.221  1.0057  1.9353 -1.8372
 3099TIP3   OH230855   2.574   5.045   7.436 -0.7486 -0.0628  0.2822
 3099TIP3    H130856   2.648   5.078   7.385 -0.9393 -0.1574 -0.0562
 3099TIP3    H230857   2.537   4.975   7.383 -0.7140 -0.4238  0.7257
 3100TIP3   OH230858   0.186   6.773   0.462 -0.3654  0.1823 -0.2765
 3100TIP3    H130859   0.167   6.864   0.440 -3.5119 -0.3069 -0.0798
 3100TIP3    H230860   0.123   6.751   0.531 -0.4315 -2.4015 -1.0422
 3101TIP3   OH230861   4.621   2.439   0.028  0.3020  0.9294  0.5116
 3101TIP3    H130862   4.669   2.373  -0.021 -1.7027 -0.9085  0.8954
 3101TIP3    H230863   4.664   2.443   0.114 -0.4589 -1.0600  1.0316
 3102TIP3   OH230864   4.540   3.852   8.023 -0.7350 -0.0872 -1.0422
 3102TIP3    H130865   4.583   3.800   7.955 -1.1303  0.5641 -1.8053
 3102TIP3    H230866   4.562   3.943   8.001  1.5419  0.0715  1.3277
 3103TIP3   OH230867   5.790   2.760   8.678 -0.1719  0.2103 -0.6371
 3103TIP3    H130868   5.872   2.718   8.651  1.6865  0.9139  3.2374
 3103TIP3    H230869   5.817   2.839   8.724 -2.7567 -0.6519  2.7918
 3104TIP3   OH230870   2.130   2.308   0.114  0.0082  0.4201 -0.5089
 3104TIP3    H130871   2.086   2.270   0.039  0.0151 -2.9960  1.0282
 3104TIP3    H230872   2.220   2.275   0.108  0.5765  1.7808 -0.0251
 3105TIP3   OH230873   1.341   4.076   1.420  0.1771  0.0201  0.0107
 3105TIP3    H130874   1.258   4.050   1.381  0.2435  1.7021 -1.3872
 3105TIP3    H230875   1.405   4.066   1.350  1.1481 -1.0126  0.9989
 3106TIP3   OH230876   5.256   3.010   7.813 -0.0644 -0.5284 -0.2626
 3106TIP3    H130877   5.170   3.046   7.791  1.0628  1.7322 -1.2788
 3106TIP3    H230878   5.239   2.953   7.888 -2.3112  0.5913  0.1654
 3107TIP3   OH230879   4.636   6.260   0.655  0.2282  0.1318  0.6820
 3107TIP3    H130880   4.547   6.289   0.672 -0.2064 -0.6754 -0.1469
 3107TIP3    H230881   4.646   6.181   0.708  0.7512  0.6732  1.4220
 3108TIP3   OH230882   4.835   0.529   0.663  0.6190  0.7505  0.3091
 3108TIP3    H130883   4.887   0.556   0.588 -0.2035  0.7020 -0.2913
 3108TIP3    H230884   4.896   0.531   0.737  2.1581 -1.7146 -0.7571
 3109TIP3   OH230885   2.156   5.869   2.080 -0.2726 -0.0395  0.1289
 3109TIP3    H130886   2.062   5.880   2.062 -0.2885 -0.4247 -0.0326
 3109TIP3    H230887   2.187   5.814   2.008  0.3046  0.9866 -0.4410
 3110TIP3   OH230888   3.551   2.597   0.893 -0.2112 -0.1986 -0.1523
 3110TIP3    H130889   3.473   2.644   0.922  0.0795  1.1904 -1.4774
 3110TIP3    H230890   3.535   2.506   0.919 -0.4485  0.6879  3.1746
 3111TIP3   OH230891   4.574   2.331   1.236  0.2727  0.1125  0.2851
 3111TIP3    H130892   4.556   2.249   1.282 -1.1893 -0.3255 -0.9842
 3111TIP3    H230893   4.545   2.400   1.297 -1.6633 -0.4511  0.0659
 3112TIP3   OH230894   5.445   2.054   2.445  0.9519  0.2373  0.0673
 3112TIP3    H130895   5.495   1.995   2.501  1.9324  0.9240 -0.0618
 3112TIP3    H230896   5.504   2.127   2.428  1.3082 -0.6947 -3.2458
 3113TIP3   OH230897   5.609   1.091   0.037  0.2137 -0.6945  0.5738
 3113TIP3    H130898   5.693   1.079  -0.006 -0.1396  0.2140 -0.4081
 3113TIP3    H230899   5.546   1.048  -0.020 -0.3955  1.3680 -0.4118
 3114TIP3   OH230900   1.076   1.488   0.746  0.0193 -0.2921  0.1619
 3114TIP3    H130901   1.124   1.558   0.701  0.5998 -0.1559  0.9745
 3114TIP3    H230902   0.988   1.524   0.757 -0.4961 -0.7875 -1.8995
 3115TIP3   OH230903   4.179   3.056   7.269 -0.3719 -0.1341  0.1248
 3115TIP3    H130904   4.142   2.978   7.227 -1.0968  0.6237 -0.6754
 3115TIP3    H230905   4.105   3.098   7.313  0.2573 -0.5701  1.6739
 3116TIP3   OH230906   3.713   4.114   0.294 -0.2851 -0.1008  0.1113
 3116TIP3    H130907   3.649   4.115   0.365 -0.9686 -0.2414 -0.4914
 3116TIP3    H230908   3.758   4.198   0.301 -0.4515 -0.0487  0.6111
 3117TIP3   OH230909   5.408   3.906   6.953 -0.3395  0.3010 -0.1264
 3117TIP3    H130910   5.387   3.832   6.896  0.4500  0.0130 -0.0566
 3117TIP3    H230911   5.401   3.983   6.897  1.8673 -0.0935 -1.0389
 3118TIP3   OH230912   0.389   4.933   6.423  0.3928  0.4838  0.4245
 3118TIP3    H130913   0.431   5.009   6.381 -0.7733  1.0682  0.2821
 3118TIP3    H230914   0.390   4.865   6.356  0.4530  0.7311  0.1707
 3119TIP3   OH230915   6.190   2.395   1.677 -0.1902  0.0336 -0.4459
 3119TIP3    H130916   6.189   2.387   1.772  0.2789  2.0765 -0.2189
 3119TIP3    H230917   6.199   2.305   1.645  0.9778 -0.5864  1.4725
 3120TIP3   OH230918   5.358   4.338   0.796  0.4447  0.5530 -0.4287
 3120TIP3    H130919   5.269   4.372   0.784 -0.0309 -0.9115 -1.3380
 3120TIP3    H230920   5.399   4.346   0.710  0.7571  0.0455 -0.3298
 3121TIP3   OH230921   4.377   1.125   7.773  0.1187 -0.2243  0.7202
 3121TIP3    H130922   4.447   1.157   7.830  0.0454  1.6190 -0.1655
 3121TIP3    H230923   4.421   1.102   7.691 -0.0910 -0.6781  0.7331
 3122TIP3   OH230924   2.677   5.052   8.238  0.0926  0.5613  0.5343
 3122TIP3    H130925   2.772   5.035   8.239 -0.2167 -1.3656 -0.1065
 3122TIP3    H230926   2.646   5.018   8.322  0.0327  1.8319  1.0524
 3123TIP3   OH230927   0.907   2.985   0.542 -0.3920 -0.0497 -0.0264
 3123TIP3    H130928   0.837   3.043   0.512  0.1166 -0.2821 -1.7850
 3123TIP3    H230929   0.902   2.909   0.485  0.4483 -0.6724  0.7025
 3124TIP3   OH230930   3.004   6.372   2.135 -0.4287 -0.0337  0.4356
 3124TIP3    H130931   3.019   6.464   2.156  1.5156 -0.4835  1.1738
 3124TIP3    H230932   2.974   6.373   2.044 -2.4813  1.4378  1.0385
 3125TIP3   OH230933   0.420   3.422   6.860 -0.6838 -0.2017 -0.4223
 3125TIP3    H130934   0.417   3.497   6.920 -2.1591 -0.0519 -0.6426
 3125TIP3    H230935   0.460   3.456   6.781 -1.3632  0.3773 -0.5276
 3126TIP3   OH230936   0.405   2.883   8.132 -0.2320 -0.0133 -0.1188
 3126TIP3    H130937   0.464   2.808   8.132  0.8310  0.8078  0.7239
 3126TIP3    H230938   0.459   2.957   8.158 -0.7007  1.5105 -3.0284
 3127TIP3   OH230939   2.361   4.345   8.343  0.7506  0.5578  0.6024
 3127TIP3    H130940   2.321   4.422   8.302  4.0198  1.2077 -1.8384
 3127TIP3    H230941   2.347   4.274   8.279  2.0028  0.4222  0.4545
 3128TIP3   OH230942   0.082   1.624   8.365  0.4140 -0.0114  0.4261
 3128TIP3    H130943   0.153   1.684   8.391  0.9910 -0.4402 -0.1291
 3128TIP3    H230944   0.103   1.601   8.274  0.3547 -1.2674  0.7147
 3129TIP3   OH230945   1.435   2.543   7.197 -0.1400  0.5552  0.0447
 3129TIP3    H130946   1.350   2.534   7.240  0.1807 -1.2643  0.3822
 3129TIP3    H230947   1.417   2.525   7.104  0.0108 -0.9886  0.2802
 3130TIP3   OH230948   4.734   4.603   0.691  0.5796 -0.1509 -0.4829
 3130TIP3    H130949   4.640   4.592   0.675  0.5109 -0.5152  0.1366
 3130TIP3    H230950   4.759   4.525   0.739  0.7964  0.8008  1.0422
 3131TIP3   OH230951   5.068   6.602   2.732 -0.3854  0.5780 -0.6198
 3131TIP3    H130952   4.973   6.615   2.735 -0.4350  0.2593 -0.6981
 3131TIP3    H230953   5.085   6.568   2.644 -0.6028 -2.2150  0.2936
 3132TIP3   OH230954   3.067   1.335   0.731 -0.0758 -0.2242 -0.4416
 3132TIP3    H130955   3.078   1.247   0.768  1.1616 -0.0757 -0.3992
 3132TIP3    H230956   3.015   1.322   0.652 -1.3357 -0.7644  0.4511
 3133TIP3   OH230957   3.883   4.078   2.827 -0.3522 -0.5455 -0.0313
 3133TIP3    H130958   3.912   4.157   2.871  0.4411 -1.0108  0.3074
 3133TIP3    H230959   3.830   4.109   2.753  0.6094  0.3254 -0.3749
 3134TIP3   OH230960   1.077   3.472   7.802  0.2901  0.6227  0.2490
 3134TIP3    H130961   1.047   3.511   7.884  0.8082  1.3053  0.1250
 3134TIP3    H230962   0.997   3.460   7.751  0.2499  3.5361 -0.5654
 3135TIP3   OH230963   2.209   4.521   8.200  0.3419 -0.0499 -0.0157
 3135TIP3    H130964   2.114   4.518   8.198  0.2933  1.1280 -0.3370
 3135TIP3    H230965   2.233   4.576   8.126  1.2916 -0.5733 -0.1105
 3136TIP3   OH230966   1.577   0.975   0.556 -0.1876 -0.1254 -0.2698
 3136TIP3    H130967   1.646   0.953   0.493  0.6829  2.1235 -0.1988
 3136TIP3    H230968   1.511   0.907   0.544  0.8273 -0.8409 -2.2411
 3137TIP3   OH230969   2.922   0.184   7.304  0.7536 -0.6551 -0.0891
 3137TIP3    H130970   2.878   0.201   7.388 -0.4039 -1.6152 -0.4649
 3137TIP3    H230971   2.916   0.266   7.256  0.5278 -0.3918  0.3856
 3138TIP3   OH230972   6.403   0.587   0.359  0.3098 -0.7330 -0.2544
 3138TIP3    H130973   6.489   0.581   0.400  0.0343  0.2744  0.5001
 3138TIP3    H230974   6.404   0.518   0.292  1.5214 -1.0414  0.0520
 3139TIP3   OH230975   5.986   0.930   1.161 -0.0007  0.5363  0.3064
 3139TIP3    H130976   5.954   0.935   1.251 -0.9919 -0.7323  0.0551
 3139TIP3    H230977   5.988   1.021   1.131 -1.2820  0.8431  1.0804
 3140TIP3   OH230978   3.801   1.744   7.325 -0.2861  0.0605 -0.0072
 3140TIP3    H130979   3.835   1.656   7.339  1.9734  0.9516  0.5745
 3140TIP3    H230980   3.741   1.736   7.251  1.4647 -1.6211 -1.3389
 3141TIP3   OH230981   0.093   4.430   0.896  0.1880 -0.1926 -0.4427
 3141TIP3    H130982   0.152   4.375   0.844  0.2558 -0.0961 -0.4682
 3141TIP3    H230983   0.080   4.508   0.843  0.5665  0.0790 -0.1478
 3142TIP3   OH230984   5.653   0.837   6.489 -0.1686  0.4372  0.4877
 3142TIP3    H130985   5.728   0.819   6.433  1.4195 -2.2030  3.1227
 3142TIP3    H230986   5.636   0.931   6.478  0.6670  0.2850 -3.4140
 3143TIP3   OH230987   6.722   2.834   6.423 -1.0026  0.0172  0.5575
 3143TIP3    H130988   6.713   2.892   6.348 -0.9009 -1.1798 -0.4026
 3143TIP3    H230989   6.635   2.830   6.461 -1.4673 -0.7635 -0.5636
 3144TIP3   OH230990   5.068   5.635   8.472  0.2164 -0.1428  0.5099
 3144TIP3    H130991   5.096   5.601   8.387  0.9509  1.9644 -0.1628
 3144TIP3    H230992   4.974   5.620   8.474  0.1262  0.1239 -0.8561
 3145TIP3   OH230993   3.816   2.722   8.590  0.2707 -0.0202 -0.0793
 3145TIP3    H130994   3.807   2.712   8.495 -0.8575 -3.5049  0.2339
 3145TIP3    H230995   3.899   2.678   8.611 -0.7053 -1.6157  0.6928
 3146TIP3   OH230996   5.755   2.911   1.216  0.2699  0.2287 -0.9059
 3146TIP3    H130997   5.811   2.836   1.235 -0.1724 -0.1282 -1.0092
 3146TIP3    H230998   5.669   2.886   1.250  0.4274  1.2316  0.2989
 3147TIP3   OH230999   1.071   5.422   1.739 -0.4756  0.6396  0.0047
 3147TIP3    H131000   1.121   5.479   1.797  1.2818 -0.3645 -0.4524
 3147TIP3    H231001   1.052   5.477   1.663  0.6108  0.8301 -0.1410
 3148TIP3   OH231002   0.220   6.434   0.897 -0.3370  0.9300  1.1804
 3148TIP3    H131003   0.274   6.512   0.903 -1.3823  1.5976  2.4115
 3148TIP3    H231004   0.175   6.443   0.813  0.1025  1.2754  0.9791
 3149TIP3   OH231005   0.475   3.329   6.550  0.4723 -0.0246  0.3462
 3149TIP3    H131006   0.537   3.263   6.579  0.5456  1.1727  3.1725
 3149TIP3    H231007   0.526   3.410   6.544 -0.1922  0.3596 -0.3645
 3150TIP3   OH231008   0.090   0.551   7.505  0.3342 -0.2504  0.1900
 3150TIP3    H131009   0.154   0.612   7.467  1.1793 -1.3514 -0.2094
 3150TIP3    H231010   0.063   0.496   7.432 -0.5590 -0.2529  0.5084
 3151TIP3   OH231011   0.168   3.840   2.380  0.4015  0.1462 -0.1596
 3151TIP3    H131012   0.215   3.871   2.457  1.9256 -2.7707  0.2105
 3151TIP3    H231013   0.202   3.894   2.308  2.2789 -0.0266  0.5473
 3152TIP3   OH231014   6.072   6.079   1.615 -0.4394  0.2967  0.1378
 3152TIP3    H131015   6.122   6.161   1.615 -0.0107  0.0427  0.0828
 3152TIP3    H231016   6.027   6.079   1.530  0.7841 -0.2423 -0.5379
 3153TIP3   OH231017   3.346   3.192   1.505 -0.4964  0.3002  0.0236
 3153TIP3    H131018   3.400   3.230   1.574  0.1699 -0.4873 -0.0442
 3153TIP3    H231019   3.405   3.131   1.460 -1.2278  0.0051 -0.5545
 3154TIP3   OH231020   2.932   1.977   1.620  0.5876 -0.0686  0.5533
 3154TIP3    H131021   2.879   2.043   1.575  1.7630 -0.4870 -1.5972
 3154TIP3    H231022   2.872   1.904   1.634  0.2190 -0.0273 -0.6468
 3155TIP3   OH231023   1.107   3.412   2.483 -0.3337  0.2301  0.1585
 3155TIP3    H131024   1.102   3.482   2.548 -2.3376  0.5928 -0.2918
 3155TIP3    H231025   1.054   3.444   2.410  0.9582 -0.6334 -1.2047
 3156TIP3   OH231026   1.186   1.200   6.961  0.0323  0.1978 -0.1533
 3156TIP3    H131027   1.225   1.137   6.901 -0.5365  0.3333 -0.6766
 3156TIP3    H231028   1.175   1.279   6.910  0.8117  0.7615  0.5269
 3157TIP3   OH231029   4.406   2.743   7.098 -0.7047  0.2592 -0.3663
 3157TIP3    H131030   4.451   2.776   7.176  0.9683  0.0584 -1.2095
 3157TIP3    H231031   4.403   2.648   7.111  0.6342  0.0989 -1.0418
 3158TIP3   OH231032   4.577   6.309   2.517  0.0602  0.6612 -0.0840
 3158TIP3    H131033   4.507   6.297   2.454 -0.2186 -3.8235  0.7788
 3158TIP3    H231034   4.657   6.315   2.464 -0.4361  0.0154 -0.9157
 3159TIP3   OH231035   1.094   1.391   0.038  0.0902  0.1571  0.7316
 3159TIP3    H131036   1.115   1.298   0.054  0.0376  0.1179  0.5749
 3159TIP3    H231037   1.156   1.439   0.093  1.1989  0.0520 -0.3773
 3160TIP3   OH231038   6.003   2.699   0.392 -0.2243  0.6345  0.4249
 3160TIP3    H131039   5.943   2.755   0.343  0.8029 -0.0925 -1.7805
 3160TIP3    H231040   6.070   2.758   0.425 -1.1876  1.2010  1.4465
 3161TIP3   OH231041   4.439   2.100   0.803  0.1687 -0.4580 -0.4132
 3161TIP3    H131042   4.497   2.044   0.854 -0.0849 -0.4877 -0.1523
 3161TIP3    H231043   4.427   2.178   0.856  2.5721  1.0204 -1.8813
 3162TIP3   OH231044   6.527   4.586   1.975  0.2126 -0.3199 -0.1411
 3162TIP3    H131045   6.466   4.520   2.009  1.5630 -0.2227  2.7392
 3162TIP3    H231046   6.482   4.622   1.898 -2.0480 -2.2244  0.1553
 3163TIP3   OH231047   5.306   3.666   1.068  0.2399  0.0755 -0.7800
 3163TIP3    H131048   5.351   3.677   1.152  1.5284  1.7290 -1.6362
 3163TIP3    H231049   5.247   3.592   1.083  0.3929  0.3368  1.5934
 3164TIP3   OH231050   3.600   1.552   6.523 -0.5948 -0.5132 -0.2647
 3164TIP3    H131051   3.576   1.551   6.615  1.5824  0.4097  0.3844
 3164TIP3    H231052   3.606   1.645   6.501 -1.3412 -0.7234 -1.4180
 3165TIP3   OH231053   2.856   0.473   0.187  0.2286  0.5624 -0.2634
 3165TIP3    H131054   2.762   0.457   0.182  0.0242  1.5133  0.3689
 3165TIP3    H231055   2.883   0.429   0.268 -0.2587  2.8790  1.2477
 3166TIP3   OH231056   3.816   1.616   0.144 -0.2708 -0.6372  0.5518
 3166TIP3    H131057   3.729   1.649   0.121 -0.3000 -0.5324  0.8088
 3166TIP3    H231058   3.832   1.545   0.082  0.4788  0.9066 -1.1122
 3167TIP3   OH231059   6.647   3.485   8.708 -0.1744  0.0488  0.7602
 3167TIP3    H131060   6.613   3.410   8.660 -0.2349  1.2492 -1.1557
 3167TIP3    H231061   6.574   3.547   8.713  0.1250  0.3575  1.5431
 3168TIP3   OH231062   0.421   6.103   1.980  0.1642 -0.5145 -0.0629
 3168TIP3    H131063   0.495   6.152   2.017 -0.3665 -0.2372  0.6548
 3168TIP3    H231064   0.386   6.054   2.055 -0.2500 -0.8018 -0.4437
 3169TIP3   OH231065   0.886   6.098   7.705 -0.2855  0.0788 -0.0089
 3169TIP3    H131066   0.929   6.014   7.686  1.0246  0.0151  2.8252
 3169TIP3    H231067   0.794   6.075   7.720 -0.0922 -0.7326 -0.0335
 3170TIP3   OH231068   5.634   2.373   7.623  0.4321  0.4543  0.5307
 3170TIP3    H131069   5.613   2.396   7.714  3.2360 -1.4777  1.8104
 3170TIP3    H231070   5.644   2.278   7.624  2.7544  0.5930 -1.2248
 3171TIP3   OH231071   4.237   1.756   2.112  0.3142  0.2250 -0.2074
 3171TIP3    H131072   4.244   1.709   2.195  0.5003 -0.0142 -0.3575
 3171TIP3    H231073   4.261   1.846   2.133  1.2826 -0.0240 -0.1830
 3172TIP3   OH231074   1.152   1.207   7.799 -0.3098 -0.4795 -0.1845
 3172TIP3    H131075   1.140   1.196   7.893  1.0657  1.5145  0.2906
 3172TIP3    H231076   1.109   1.130   7.760 -1.9153 -0.7787  1.9707
 3173TIP3   OH231077   2.481   3.405   7.207 -0.0853  0.1572 -1.0232
 3173TIP3    H131078   2.421   3.411   7.132 -0.2837  1.7954 -0.7819
 3173TIP3    H231079   2.467   3.487   7.254  1.3002 -0.0895 -0.1467
 3174TIP3   OH231080   3.952   2.077   1.518 -0.2006  0.2790  0.1635
 3174TIP3    H131081   3.920   2.167   1.527 -2.0034 -0.2653 -0.2840
 3174TIP3    H231082   3.933   2.036   1.603  1.4960  0.5473  0.7017
 3175TIP3   OH231083   1.629   2.721   7.510  0.0231 -0.1313  0.2347
 3175TIP3    H131084   1.628   2.813   7.534 -1.1603  0.2707 -1.1769
 3175TIP3    H231085   1.602   2.720   7.418  1.7557 -1.7540 -0.3323
 3176TIP3   OH231086   6.196   2.205   8.295 -0.2472  0.1928 -0.2883
 3176TIP3    H131087   6.248   2.270   8.343  0.2363  0.0397 -0.6003
 3176TIP3    H231088   6.151   2.255   8.227 -0.6272  0.3485  0.0724
 3177TIP3   OH231089   4.449   0.018   0.497 -0.1700  0.4305  0.2336
 3177TIP3    H131090   4.413   0.039   0.583  0.3504  1.9055  0.1147
 3177TIP3    H231091   4.473   0.103   0.459 -1.0765 -0.0949 -1.6740
 3178TIP3   OH231092   1.826   5.083   1.370 -0.2271  0.4602  0.0937
 3178TIP3    H131093   1.861   5.068   1.282  0.2967  1.3973  0.1248
 3178TIP3    H231094   1.735   5.053   1.366  0.3803 -1.5113 -0.1521
 3179TIP3   OH231095   3.980   1.445   7.679 -0.1012  0.1035  0.1470
 3179TIP3    H131096   4.061   1.416   7.720  0.2809  1.3110  0.2718
 3179TIP3    H231097   3.994   1.538   7.660 -1.1243  0.1157 -0.6367
 3180TIP3   OH231098   5.116   4.301   1.064  0.4824  0.3211  0.2912
 3180TIP3    H131099   5.059   4.369   1.026 -0.0612 -1.0308 -1.4997
 3180TIP3    H231100   5.092   4.298   1.156 -0.6651  1.4300  0.0601
 3181TIP3   OH231101   0.737   3.796   7.349  0.0553  0.5423  0.3469
 3181TIP3    H131102   0.801   3.839   7.406  1.7933 -1.7706  0.2986
 3181TIP3    H231103   0.701   3.726   7.403  0.5008 -0.6378 -0.8143
 3182TIP3   OH231104   3.023   5.648   7.391  0.1711 -0.2030  0.1112
 3182TIP3    H131105   3.082   5.639   7.316  1.1920  0.6681  0.7769
 3182TIP3    H231106   3.078   5.686   7.460 -1.3922  1.6328  0.4309
 3183TIP3   OH231107   6.420   0.215   8.417  0.5358 -0.1656  0.2179
 3183TIP3    H131108   6.453   0.191   8.331  0.7363 -0.1912  0.3012
 3183TIP3    H231109   6.493   0.197   8.477 -0.0446 -1.4057  0.5857
 3184TIP3   OH231110   4.570   0.378   0.933  0.1594 -0.0070  0.1356
 3184TIP3    H131111   4.581   0.473   0.930  2.0815 -0.1949 -0.4375
 3184TIP3    H231112   4.658   0.343   0.919 -0.8021 -1.9110 -1.7359
 3185TIP3   OH231113   2.513   2.391   7.929  0.0292  0.3875 -0.7285
 3185TIP3    H131114   2.438   2.349   7.886 -0.3600 -1.4251  1.5363
 3185TIP3    H231115   2.587   2.334   7.910  0.2641  0.6717 -0.6760
 3186TIP3   OH231116   4.065   3.806   0.185  0.1746  0.3189 -0.1345
 3186TIP3    H131117   3.996   3.741   0.171  0.9134 -0.4573 -0.1977
 3186TIP3    H231118   4.137   3.778   0.129  0.3714  1.4144 -0.4588
 3187TIP3   OH231119   6.809   2.354   6.561  0.1586  0.6267 -0.3124
 3187TIP3    H131120   6.902   2.354   6.536  0.0209  1.3417 -0.8476
 3187TIP3    H231121   6.809   2.387   6.651  0.4538  0.2459 -0.1675
 3188TIP3   OH231122   5.128   6.544   7.958 -0.0901  0.7830  0.2202
 3188TIP3    H131123   5.205   6.531   8.014 -1.3897  0.5986  2.0469
 3188TIP3    H231124   5.053   6.528   8.015 -1.5315  1.7054 -1.2956
 3189TIP3   OH231125   2.764   6.791   7.270  0.3698  0.2981  0.2214
 3189TIP3    H131126   2.769   6.883   7.295  0.7183  0.1022  0.8746
 3189TIP3    H231127   2.844   6.775   7.220  1.3844 -0.1807  1.9137
 3190TIP3   OH231128   5.019   3.428   0.557 -0.1567 -0.0851  0.1001
 3190TIP3    H131129   4.937   3.408   0.602  0.1455 -0.4065  0.5126
 3190TIP3    H231130   5.060   3.497   0.609  0.0372 -0.2245  0.1342
 3191TIP3   OH231131   5.780   5.210   7.929 -0.8360  0.0704 -0.4013
 3191TIP3    H131132   5.725   5.287   7.912  0.0693  0.7569 -0.3130
 3191TIP3    H231133   5.850   5.243   7.986 -1.3671 -1.2034  1.0384
 3192TIP3   OH231134   0.740   3.502   7.426 -0.3138 -0.2405  0.1844
 3192TIP3    H131135   0.832   3.492   7.452 -0.3480 -0.0147  0.3901
 3192TIP3    H231136   0.739   3.477   7.334 -0.2608 -1.4350  0.4844
 3193TIP3   OH231137   2.145   4.290   2.042  0.4836  0.5110 -0.1508
 3193TIP3    H131138   2.124   4.358   1.979  0.7466 -0.4019 -1.2592
 3193TIP3    H231139   2.230   4.256   2.015 -0.5276 -1.6405 -0.9298
 3194TIP3   OH231140   4.318   1.119   0.129 -0.2670 -0.6545  0.0644
 3194TIP3    H131141   4.350   1.125   0.219  2.7215 -0.4777 -0.9026
 3194TIP3    H231142   4.268   1.200   0.117 -3.2409 -1.9792  2.3416
 3195TIP3   OH231143   2.328   2.610   8.262 -0.1155  0.2427 -0.6317
 3195TIP3    H131144   2.313   2.701   8.290  0.4698 -0.1295  1.0385
 3195TIP3    H231145   2.410   2.585   8.306  0.5022 -0.6639 -2.1919
 3196TIP3   OH231146   4.673   5.939   1.576  0.5100 -0.1354 -0.4708
 3196TIP3    H131147   4.695   5.887   1.499 -3.7666 -0.0585 -2.0452
 3196TIP3    H231148   4.657   5.875   1.645  0.9370 -0.4773 -0.6888
 3197TIP3   OH231149   3.005   2.672   0.839 -0.0571  0.3706  0.2495
 3197TIP3    H131150   3.057   2.602   0.877 -1.4859 -1.6753 -1.3266
 3197TIP3    H231151   2.995   2.647   0.747 -2.2992  1.5550  0.0884
 3198TIP3   OH231152   5.119   1.603   0.464  0.2552 -0.0713  0.2082
 3198TIP3    H131153   5.049   1.656   0.426 -0.8071 -0.4642  1.5636
 3198TIP3    H231154   5.141   1.647   0.546  0.4244 -0.8786  0.6043
 3199TIP3   OH231155   6.287   2.662   1.369  0.5642 -0.0597 -0.7088
 3199TIP3    H131156   6.232   2.584   1.363 -1.0820  0.9033  0.6670
 3199TIP3    H231157   6.275   2.692   1.459  1.4419  1.5648 -1.0961
 3200TIP3   OH231158   5.833   0.068   6.850  0.3632  0.0905 -0.2569
 3200TIP3    H131159   5.749   0.066   6.805  0.2011 -2.3935  0.0130
 3200TIP3    H231160   5.898   0.050   6.782  0.5575  0.7926 -0.2579
 3201TIP3   OH231161   3.230   2.998   1.734  0.0269 -0.0575  0.5443
 3201TIP3    H131162   3.159   2.946   1.695 -0.2873  0.0037  1.0246
 3201TIP3    H231163   3.259   3.056   1.664  0.7489 -1.2466 -0.1750
 3202TIP3   OH231164   2.008   6.107   0.337 -0.5931 -0.4058  0.1947
 3202TIP3    H131165   1.982   6.054   0.262 -1.6249 -0.7397  0.7737
 3202TIP3    H231166   2.009   6.046   0.411 -1.1532  0.2363  0.7467
 3203TIP3   OH231167   1.671   1.378   0.335  0.0120  0.5474 -0.1449
 3203TIP3    H131168   1.638   1.463   0.306 -0.7575  0.7782  1.3013
 3203TIP3    H231169   1.600   1.342   0.388  1.4451  0.3515  1.7463
 3204TIP3   OH231170   1.882   2.631   7.028 -0.0537 -0.0983 -0.6043
 3204TIP3    H131171   1.947   2.670   7.086 -0.0719  0.1880 -0.7727
 3204TIP3    H231172   1.831   2.573   7.084  1.2437 -1.4453 -0.7444
 3205TIP3   OH231173   6.774   2.664   8.243 -0.0876  0.0192 -0.1099
 3205TIP3    H131174   6.770   2.673   8.338  0.7726 -1.7515  0.1384
 3205TIP3    H231175   6.812   2.577   8.229  0.9316  0.7189 -2.0638
 3206TIP3   OH231176   5.593   3.478   8.329 -0.1654  0.0785  0.7885
 3206TIP3    H131177   5.514   3.483   8.383 -1.1688  1.6239 -0.7061
 3206TIP3    H231178   5.573   3.411   8.264 -0.8823  1.4145 -0.4377
 3207TIP3   OH231179   0.624   2.954   7.412 -0.6510 -0.2250  0.4445
 3207TIP3    H131180   0.574   2.967   7.331  0.7210  1.8375 -0.1508
 3207TIP3    H231181   0.666   2.869   7.400 -0.1819  0.1911 -1.2258
 3208TIP3   OH231182   4.848   6.733   7.514  0.6869  0.4355  0.6528
 3208TIP3    H131183   4.890   6.820   7.511 -1.8429  1.7339  0.5972
 3208TIP3    H231184   4.756   6.751   7.534 -0.0899 -2.2167 -0.1459
 3209TIP3   OH231185   3.493   2.009   7.726  0.3134 -0.8349  0.0914
 3209TIP3    H131186   3.511   2.091   7.680  3.5056 -2.3123 -1.6715
 3209TIP3    H231187   3.504   1.941   7.659 -0.8793 -2.8035  1.7655
 3210TIP3   OH231188   2.135   5.167   0.753  0.4177  0.1705  0.6097
 3210TIP3    H131189   2.204   5.217   0.710 -1.9582  2.5597 -0.7318
 3210TIP3    H231190   2.120   5.213   0.835  0.1854 -0.1059  0.7226
 3211TIP3   OH231191   1.626   5.914   8.247 -0.3750 -0.5440 -0.0802
 3211TIP3    H131192   1.586   6.001   8.244 -0.6163 -0.6813 -1.4233
 3211TIP3    H231193   1.711   5.928   8.288 -0.0270  0.4810 -1.1120
 3212TIP3   OH231194   3.796   0.042   7.428 -0.0230  0.0800  0.3153
 3212TIP3    H131195   3.823  -0.008   7.351 -0.0882 -0.2128  0.4844
 3212TIP3    H231196   3.701   0.034   7.430  0.0421 -0.5948  0.8934
 3213TIP3   OH231197   1.095   5.574   1.473 -0.0985  0.1720 -0.4855
 3213TIP3    H131198   1.007   5.598   1.445 -0.5592 -0.7219  0.1468
 3213TIP3    H231199   1.145   5.564   1.391 -1.4064 -2.3689 -1.0752
 3214TIP3   OH231200   5.717   1.570   0.136 -0.1658  0.7391 -0.4095
 3214TIP3    H131201   5.780   1.641   0.133  0.3373  0.2719 -2.6182
 3214TIP3    H231202   5.638   1.605   0.093 -0.1784  0.2313 -0.8169
 3215TIP3   OH231203   5.859   4.417   8.542 -0.6122  1.0686 -0.0220
 3215TIP3    H131204   5.798   4.443   8.610 -1.2452  0.0781 -0.1909
 3215TIP3    H231205   5.858   4.489   8.479 -2.2595  0.7177 -0.4387
 3216TIP3   OH231206   2.541   3.157   7.268  0.1865  0.0681  0.2388
 3216TIP3    H131207   2.515   3.107   7.191  0.1424  0.7341 -0.1827
 3216TIP3    H231208   2.524   3.248   7.245  2.3437  0.5083  0.1268
 3217TIP3   OH231209   5.544   3.977   6.665  0.0195 -0.2497  0.2249
 3217TIP3    H131210   5.457   3.937   6.672 -0.7520  0.6901 -2.5197
 3217TIP3    H231211   5.540   4.053   6.722 -0.4513 -0.9902  1.2104
 3218TIP3   OH231212   5.927   5.846   6.781 -0.3716  0.2485  0.3882
 3218TIP3    H131213   5.843   5.890   6.772 -0.9769 -0.5173  1.8742
 3218TIP3    H231214   5.985   5.912   6.817  0.0855  1.1781 -1.9005
 3219TIP3   OH231215   3.977   0.576   1.781  0.0776 -0.7212  0.3399
 3219TIP3    H131216   4.007   0.538   1.863  0.0623 -1.6977 -0.0916
 3219TIP3    H231217   4.058   0.592   1.732  0.2510  1.8108  1.3317
 3220TIP3   OH231218   4.176   5.620   7.690  0.0950  0.1152 -0.2731
 3220TIP3    H131219   4.160   5.714   7.686  0.7676  0.2913  0.7354
 3220TIP3    H231220   4.130   5.591   7.768  0.9943 -0.1332  0.1848
 3221TIP3   OH231221   5.442   4.291   8.449 -0.0667  0.5936  0.0082
 3221TIP3    H131222   5.498   4.321   8.377  0.8507 -0.8487  0.0775
 3221TIP3    H231223   5.375   4.238   8.406 -2.3013  3.3781 -0.2284
 3222TIP3   OH231224   6.534   2.526   1.290  0.0571  0.1083 -0.2239
 3222TIP3    H131225   6.523   2.549   1.197  0.5093  1.1461 -0.0457
 3222TIP3    H231226   6.471   2.582   1.336 -0.8534 -1.0937  0.0460
 3223TIP3   OH231227   6.851   0.926   0.140  0.0279  0.3596  0.3787
 3223TIP3    H131228   6.869   0.937   0.046  0.1525  0.7842  0.4476
 3223TIP3    H231229   6.927   0.881   0.174 -0.0683  0.1017  0.2557
 3224TIP3   OH231230   5.797   5.295   2.742  0.0047  0.1800  0.0427
 3224TIP3    H131231   5.824   5.381   2.775  1.8279 -0.2842 -0.1429
 3224TIP3    H231232   5.878   5.252   2.717 -0.8822 -1.5614 -0.0158
 3225TIP3   OH231233   0.456   2.470   1.482  0.5637 -0.1166 -0.2617
 3225TIP3    H131234   0.438   2.387   1.439 -0.2463 -1.1511  1.9243
 3225TIP3    H231235   0.551   2.471   1.493  0.7932  0.1643 -1.9253
 3226TIP3   OH231236   2.526   2.307   0.106 -0.0192 -0.3632 -0.1254
 3226TIP3    H131237   2.443   2.267   0.079  0.5559 -0.9319 -1.0718
 3226TIP3    H231238   2.588   2.235   0.112  1.1760  0.3950 -2.3903
 3227TIP3   OH231239   1.267   6.687   7.852 -0.0948  0.6803 -0.0332
 3227TIP3    H131240   1.340   6.628   7.871  0.2984  1.0948 -0.2689
 3227TIP3    H231241   1.192   6.644   7.894  0.2983  0.3151  0.3171
 3228TIP3   OH231242   2.825   4.626   7.254  0.1371  0.2357 -0.5030
 3228TIP3    H131243   2.861   4.694   7.196 -2.0533  1.1944 -0.8594
 3228TIP3    H231244   2.782   4.565   7.194  0.2474 -0.2927 -0.0427
 3229TIP3   OH231245   3.681   4.008   7.854 -0.3483 -0.1405 -0.3854
 3229TIP3    H131246   3.621   4.051   7.916 -1.0760 -0.4116 -0.8945
 3229TIP3    H231247   3.683   4.066   7.778  1.6559  0.9359  0.3990
 3230TIP3   OH231248   4.236   4.329   1.176 -0.6655  0.2459  0.0176
 3230TIP3    H131249   4.330   4.310   1.181 -0.1979  2.6430  2.5550
 3230TIP3    H231250   4.196   4.244   1.157  1.8355 -1.3009  1.1096
 3231TIP3   OH231251   4.755   3.945   0.884 -0.3308  0.0018  0.1821
 3231TIP3    H131252   4.724   4.035   0.891  1.1757  0.4479  1.6336
 3231TIP3    H231253   4.848   3.952   0.867 -0.3828 -1.3108 -0.8469
 3232TIP3   OH231254   0.814   6.193   1.327 -0.7570  0.0050 -0.0398
 3232TIP3    H131255   0.732   6.242   1.320 -2.2842 -2.2543  0.7143
 3232TIP3    H231256   0.844   6.210   1.416 -1.1969 -0.2631  0.1669
 3233TIP3   OH231257   5.629   4.266   0.854 -0.2372 -0.2627 -0.6340
 3233TIP3    H131258   5.659   4.335   0.796 -0.8488 -1.1333 -2.0307
 3233TIP3    H231259   5.538   4.249   0.828  0.0494 -1.9354 -0.6970
 3234TIP3   OH231260   0.548   2.656   7.584 -0.6401  0.0617 -0.1178
 3234TIP3    H131261   0.522   2.736   7.630 -2.3668  0.0535 -0.9989
 3234TIP3    H231262   0.495   2.656   7.504 -0.4297 -1.7876 -0.3008
 3235TIP3   OH231263   1.916   5.639   1.482 -0.0933 -0.2996 -0.0636
 3235TIP3    H131264   1.996   5.617   1.530 -1.1963 -0.6352  1.7196
 3235TIP3    H231265   1.873   5.554   1.468 -2.3506  0.1161  3.1821
 3236TIP3   OH231266   4.638   5.752   1.763 -0.1113  0.6247 -0.0582
 3236TIP3    H131267   4.543   5.754   1.777  0.0399  2.6671  1.2324
 3236TIP3    H231268   4.667   5.669   1.800 -1.1178  1.1773  2.1709
 3237TIP3   OH231269   1.561   1.259   1.405  0.1835 -0.1245  0.3842
 3237TIP3    H131270   1.649   1.294   1.423 -0.6008  3.2792 -1.4642
 3237TIP3    H231271   1.512   1.334   1.372 -2.9012 -2.3397 -0.5279
 3238TIP3   OH231272   4.591   3.621   1.648 -0.6193  0.2128 -0.2931
 3238TIP3    H131273   4.601   3.715   1.640  2.2077  0.2354  1.8640
 3238TIP3    H231274   4.529   3.609   1.720 -0.8542  0.4192 -0.4620
 3239TIP3   OH231275   1.389   4.416   7.328  0.1105 -0.3713 -0.3952
 3239TIP3    H131276   1.472   4.379   7.298  1.0200 -1.3261  2.9081
 3239TIP3    H231277   1.413   4.499   7.368 -0.4793 -0.6851  0.6477
 3240TIP3   OH231278   1.985   2.289   0.362 -0.2721 -0.2106 -0.4632
 3240TIP3    H131279   2.031   2.352   0.418  0.4508 -2.4266  1.6006
 3240TIP3    H231280   2.014   2.310   0.273  0.9800  1.4835  0.2872
 3241TIP3   OH231281   0.186   1.527   8.038 -0.2807 -0.2903  0.3492
 3241TIP3    H131282   0.201   1.440   8.001 -0.7587  0.3035 -1.3275
 3241TIP3    H231283   0.158   1.581   7.964 -0.7175  1.1242  1.4779
 3242TIP3   OH231284   1.973   4.948   8.034 -0.3616  0.4158 -0.1712
 3242TIP3    H131285   2.023   4.924   8.112  1.1730  3.0138 -0.2448
 3242TIP3    H231286   1.882   4.934   8.059  0.0538  1.5742  2.2679
 3243TIP3   OH231287   3.601   6.066   1.286 -0.0164 -0.2435 -0.2538
 3243TIP3    H131288   3.604   6.130   1.357 -1.6813 -0.7535  0.3400
 3243TIP3    H231289   3.591   6.118   1.207 -1.0999  0.2852  0.2018
 3244TIP3   OH231290   0.409   0.448   7.472  0.0102 -0.3458 -0.1733
 3244TIP3    H131291   0.501   0.431   7.451  0.4141  0.0190  1.1768
 3244TIP3    H231292   0.373   0.362   7.493  0.7292 -0.2540  1.7107
 3245TIP3   OH231293   4.781   6.651   1.122 -0.5255 -0.4731 -0.0968
 3245TIP3    H131294   4.828   6.720   1.076 -0.9506 -0.9419 -1.2658
 3245TIP3    H231295   4.691   6.681   1.127 -0.9750 -1.4373 -1.6998
 3246TIP3   OH231296   4.763   5.721   8.182 -0.4096 -0.7059  0.2824
 3246TIP3    H131297   4.739   5.658   8.113  0.8473 -1.4382  0.4860
 3246TIP3    H231298   4.699   5.791   8.173  0.5098 -0.0998 -2.5432
 3247TIP3   OH231299   4.716   1.134   0.951  0.1975  0.2782  0.3707
 3247TIP3    H131300   4.772   1.066   0.914  0.0019 -0.4569  1.3595
 3247TIP3    H231301   4.634   1.088   0.972 -0.6452  1.2445 -0.6898
 3248TIP3   OH231302   2.504   1.733   6.761  0.5336 -0.2115 -0.4892
 3248TIP3    H131303   2.583   1.730   6.815  0.9889 -0.3296 -1.1415
 3248TIP3    H231304   2.472   1.643   6.761  0.3137 -0.1346 -0.1048
 3249TIP3   OH231305   1.107   0.466   0.809 -0.8714 -0.3164 -0.0036
 3249TIP3    H131306   1.152   0.541   0.770 -0.6875  0.1535  1.0796
 3249TIP3    H231307   1.041   0.441   0.744 -0.6806  0.5436 -0.5411
 3250TIP3   OH231308   4.502   4.944   7.569 -0.3738  0.5303 -0.7793
 3250TIP3    H131309   4.555   4.970   7.494  1.0065 -0.1095 -0.0594
 3250TIP3    H231310   4.456   5.024   7.595 -0.5174  0.8682 -1.9901
 3251TIP3   OH231311   3.311   2.245   7.512 -0.5104 -0.0422 -0.1621
 3251TIP3    H131312   3.284   2.208   7.428 -0.4808 -0.6102  0.0740
 3251TIP3    H231313   3.234   2.295   7.541 -0.4977  0.2107 -0.5527
 3252TIP3   OH231314   5.050   6.016   7.295 -0.6087 -0.0443 -0.1907
 3252TIP3    H131315   4.972   5.967   7.270  0.3230 -1.8639  0.3342
 3252TIP3    H231316   5.110   6.006   7.221 -0.4277  0.3436 -0.0985
 3253TIP3   OH231317   1.296   1.243   0.347 -0.2208  0.1885  0.3801
 3253TIP3    H131318   1.245   1.322   0.365 -1.6264 -0.9592  1.6773
 3253TIP3    H231319   1.360   1.239   0.418 -1.6541 -1.0000  1.6736
 3254TIP3   OH231320   4.193   3.838   1.698 -0.1259  0.1269 -0.5331
 3254TIP3    H131321   4.147   3.755   1.715 -3.0768  1.4945 -1.1630
 3254TIP3    H231322   4.204   3.877   1.785 -0.2037 -0.1882 -0.3804
 3255TIP3   OH231323   0.146   1.781   2.522 -0.4391  0.1532 -0.2250
 3255TIP3    H131324   0.128   1.743   2.608  0.2931  1.4231  0.5243
 3255TIP3    H231325   0.060   1.806   2.489 -0.5851  2.2089  1.4206
 3256TIP3   OH231326   0.163   5.848   1.458  0.2768  0.1339 -0.8534
 3256TIP3    H131327   0.189   5.939   1.472  0.9007 -0.1647 -0.0017
 3256TIP3    H231328   0.068   5.852   1.449  0.3182  0.8963 -1.0457
 3257TIP3   OH231329   4.954   0.019   1.271  0.4737  0.1668 -0.1198
 3257TIP3    H131330   5.029  -0.016   1.222  0.3853 -1.4345  0.7905
 3257TIP3    H231331   4.877  -0.017   1.227  0.3118  0.4479 -0.0702
 3258TIP3   OH231332   3.382   6.806   7.885 -0.0420  0.7572  0.1483
 3258TIP3    H131333   3.350   6.870   7.822 -0.3639  2.2763  1.7953
 3258TIP3    H231334   3.439   6.855   7.944  1.6067 -0.9505  0.1110
 3259TIP3   OH231335   4.858   4.198   7.014 -0.4579 -0.3012  0.3046
 3259TIP3    H131336   4.929   4.159   6.963  1.1191  1.5604  0.9637
 3259TIP3    H231337   4.822   4.266   6.957 -2.8538 -2.2336 -0.6432
 3260TIP3   OH231338   6.671   5.655   7.629  0.6878  0.6620 -0.4878
 3260TIP3    H131339   6.723   5.722   7.673 -0.3906  0.6461  0.9181
 3260TIP3    H231340   6.657   5.588   7.697 -0.3883  0.2553 -1.0889
 3261TIP3   OH231341   3.405   4.952   7.004 -0.2312 -0.6486  0.1163
 3261TIP3    H131342   3.318   4.971   6.971  0.0671 -1.3275 -1.1365
 3261TIP3    H231343   3.392   4.885   7.071 -0.9728  1.5983  2.3633
 3262TIP3   OH231344   5.342   2.203   6.838  0.1890  0.1291 -0.1080
 3262TIP3    H131345   5.313   2.291   6.861  0.9115  0.1029  0.9706
 3262TIP3    H231346   5.397   2.215   6.761  1.5606  0.8519  0.9425
 3263TIP3   OH231347   0.903   6.231   8.314  0.2660 -0.2729  0.0850
 3263TIP3    H131348   0.918   6.247   8.221 -0.3520 -0.5049 -0.0621
 3263TIP3    H231349   0.919   6.138   8.326  0.1486 -0.2837  0.1677
 3264TIP3   OH231350   2.444   2.386   6.632 -0.3860 -0.4502  0.4866
 3264TIP3    H131351   2.495   2.458   6.595  0.2130  0.0119  2.1063
 3264TIP3    H231352   2.437   2.322   6.561 -1.8416  1.5950 -1.3503
 3265TIP3   OH231353   6.245   1.116   7.615  0.0751 -0.1527 -0.7832
 3265TIP3    H131354   6.299   1.181   7.571 -1.0538  0.1477 -1.7650
 3265TIP3    H231355   6.258   1.133   7.708  1.2131  0.2699 -1.0073
 3266TIP3   OH231356   1.094   6.268   0.466  0.3256 -0.2124  0.2077
 3266TIP3    H131357   1.106   6.173   0.456 -1.6664 -0.4472 -0.4141
 3266TIP3    H231358   1.051   6.278   0.551  1.9772  0.3093  1.0134
 3267TIP3   OH231359   5.086   5.619   0.783  0.0178 -0.3867  0.5847
 3267TIP3    H131360   5.135   5.642   0.705  0.6851 -1.3878  0.6874
 3267TIP3    H231361   5.016   5.684   0.788 -0.6837 -0.9041 -1.4331
 3268TIP3   OH231362   1.085   6.750   0.076 -0.6673  0.0032  0.0103
 3268TIP3    H131363   1.026   6.708   0.139 -0.7269  1.4984  1.0034
 3268TIP3    H231364   1.092   6.840   0.107  2.9450 -0.3214  0.5415
 3269TIP3   OH231365   4.479   2.818   1.435 -0.2394  0.1027  0.0596
 3269TIP3    H131366   4.449   2.828   1.525  3.7715 -0.7253  1.7092
 3269TIP3    H231367   4.496   2.907   1.405  0.5875  0.2967  1.0456
 3270TIP3   OH231368   1.467   6.389   8.321 -0.4914 -0.2031  0.6528
 3270TIP3    H131369   1.523   6.450   8.273 -0.9400 -0.2175  0.1074
 3270TIP3    H231370   1.378   6.413   8.296 -0.6532 -1.6219 -0.2427
 3271TIP3   OH231371   6.343   3.337   8.406  0.2022  0.1485  0.6348
 3271TIP3    H131372   6.291   3.281   8.462  0.0615  2.5491  3.1349
 3271TIP3    H231373   6.428   3.344   8.450  0.3291  1.5820  0.2403
 3272TIP3   OH231374   1.714   5.431   0.797  0.0442 -0.4237  0.1105
 3272TIP3    H131375   1.662   5.350   0.806  1.1531 -1.1726 -0.0228
 3272TIP3    H231376   1.803   5.405   0.819  0.4799  0.7021 -0.2621
 3273TIP3   OH231377   5.233   5.163   7.747 -0.2128 -0.2991  0.0200
 3273TIP3    H131378   5.257   5.179   7.838 -0.4922 -0.4264  0.1182
 3273TIP3    H231379   5.265   5.075   7.729  0.5228  0.0088 -0.2433
 3274TIP3   OH231380   6.462   1.665   8.442  0.3541 -0.5143 -0.1881
 3274TIP3    H131381   6.516   1.616   8.380  0.5880 -1.5638  0.8015
 3274TIP3    H231382   6.504   1.650   8.527 -1.6987 -1.7444  0.6872
 3275TIP3   OH231383   4.016   3.193   1.645 -0.3195 -0.4274 -0.3286
 3275TIP3    H131384   4.034   3.115   1.593 -2.8228 -0.0713 -1.8951
 3275TIP3    H231385   3.947   3.167   1.705 -1.1712  0.5138 -0.8519
 3276TIP3   OH231386   3.266   2.396   7.862 -0.2748 -0.0965 -0.2824
 3276TIP3    H131387   3.357   2.389   7.832  0.1870 -0.2795  1.1131
 3276TIP3    H231388   3.252   2.489   7.874 -0.0578 -0.1194  0.1472
 3277TIP3   OH231389   5.277   6.118   1.707  0.3679  0.3730 -0.4478
 3277TIP3    H131390   5.224   6.157   1.638 -0.4183  1.7275  0.8581
 3277TIP3    H231391   5.237   6.033   1.723 -2.3967  1.8738  1.4277
 3278TIP3   OH231392   3.542   2.741   0.442  0.5040  0.1933 -0.0768
 3278TIP3    H131393   3.527   2.715   0.352  0.8013 -0.9182  0.1853
 3278TIP3    H231394   3.487   2.819   0.454  0.4193  0.3208 -1.1842
 3279TIP3   OH231395   1.282   0.704   1.822 -0.5185 -0.2903  0.1878
 3279TIP3    H131396   1.232   0.697   1.904 -1.6685 -0.3319 -0.5084
 3279TIP3    H231397   1.223   0.671   1.755 -0.2553  1.4351 -0.9305
 3280TIP3   OH231398   2.197   1.039   6.707 -0.1662  0.1808  0.1247
 3280TIP3    H131399   2.244   0.999   6.633  0.1342 -3.0617  1.8772
 3280TIP3    H231400   2.266   1.069   6.766 -0.0537 -3.3297  2.0501
 3281TIP3   OH231401   1.423   3.690   6.699 -0.5709 -0.3416  0.0637
 3281TIP3    H131402   1.363   3.722   6.632 -0.8540 -1.6620 -0.3469
 3281TIP3    H231403   1.481   3.630   6.653  0.4681  0.1863  0.6486
 3282TIP3   OH231404   3.551   3.236   7.170 -0.0449  0.3074  0.4717
 3282TIP3    H131405   3.540   3.146   7.198 -1.3540 -0.0217 -0.9425
 3282TIP3    H231406   3.465   3.277   7.184  0.5615  1.3778  1.2171
 3283TIP3   OH231407   2.412   0.184   8.048  0.2361 -0.1377 -0.2026
 3283TIP3    H131408   2.340   0.245   8.059  0.3703  0.2132 -1.1742
 3283TIP3    H231409   2.445   0.169   8.137 -1.8243 -1.3051  0.4350
 3284TIP3   OH231410   0.592   0.045   8.213  0.4478  0.4861  0.3053
 3284TIP3    H131411   0.686   0.052   8.230  0.4503 -0.6373  0.7832
 3284TIP3    H231412   0.551   0.053   8.299  0.1727 -0.0757  0.2315
 3285TIP3   OH231413   0.010   2.772   7.529 -0.4896  0.1750  0.2167
 3285TIP3    H131414  -0.000   2.695   7.585 -1.1359 -0.2499 -0.4623
 3285TIP3    H231415   0.086   2.817   7.564 -0.0337 -0.8336  0.5651
 3286TIP3   OH231416   0.090   2.869   6.839  0.1926 -0.1476 -0.0576
 3286TIP3    H131417   0.040   2.924   6.899  1.8255  0.1241  1.1273
 3286TIP3    H231418   0.123   2.798   6.894  0.5107 -0.7087 -0.9546
 3287TIP3   OH231419   1.510   2.831   8.196  0.7214 -0.8145 -0.2106
 3287TIP3    H131420   1.425   2.792   8.176 -0.7731  1.1542  1.7535
 3287TIP3    H231421   1.536   2.875   8.116 -0.0753 -1.5097 -0.8658
 3288TIP3   OH231422   6.538   6.632   0.213 -0.2770 -0.8215  0.0308
 3288TIP3    H131423   6.557   6.713   0.166  0.9162 -1.0054  0.1633
 3288TIP3    H231424   6.478   6.659   0.283 -1.3543 -0.3906 -1.0258
 3289TIP3   OH231425   5.446   4.409   1.057  0.1595  0.8973 -0.2773
 3289TIP3    H131426   5.369   4.401   1.113 -0.2152 -1.5867 -1.0172
 3289TIP3    H231427   5.412   4.407   0.968  1.0005  0.8994 -0.6096
 3290TIP3   OH231428   4.225   5.491   1.564 -0.2189 -0.3116 -0.4425
 3290TIP3    H131429   4.163   5.470   1.634  0.1711 -0.7437 -0.2187
 3290TIP3    H231430   4.172   5.489   1.484 -0.6680  0.1885 -0.1598
 3291TIP3   OH231431   0.197   2.413   1.126 -1.0466 -0.1738  0.1851
 3291TIP3    H131432   0.137   2.413   1.200 -1.8388  0.8047 -0.4340
 3291TIP3    H231433   0.193   2.503   1.091  0.2076 -0.2932 -0.3184
 3292TIP3   OH231434   1.807   2.443   1.564  0.2398  0.7579  0.2085
 3292TIP3    H131435   1.864   2.367   1.550  1.7387  2.1184 -1.5168
 3292TIP3    H231436   1.731   2.426   1.509  1.0618  0.9575 -1.0329
 3293TIP3   OH231437   6.773   0.731   0.948  0.0399  0.7364 -0.3973
 3293TIP3    H131438   6.718   0.668   0.995 -0.1326  0.8163 -0.4921
 3293TIP3    H231439   6.803   0.683   0.870 -0.3015  0.8546 -0.6024
 3294TIP3   OH231440   6.817   6.570   6.338  0.1631  0.4902 -0.3597
 3294TIP3    H131441   6.900   6.553   6.294  0.7664 -0.7800  1.1928
 3294TIP3    H231442   6.833   6.548   6.429 -1.4771  1.6174  0.2515
 3295TIP3   OH231443   1.193   2.874   1.052  0.8552 -0.3854  0.2292
 3295TIP3    H131444   1.180   2.808   0.984  0.6767 -0.2051  0.0845
 3295TIP3    H231445   1.131   2.943   1.030 -1.4255 -1.6275  2.2556
 3296TIP3   OH231446   4.570   5.926   8.493  0.1541  0.1389  0.2182
 3296TIP3    H131447   4.544   6.011   8.530 -1.1244 -0.2005  0.1266
 3296TIP3    H231448   4.498   5.901   8.436  0.9074 -0.6229 -0.4353
 3297TIP3   OH231449   1.487   5.246   7.106  0.1614  0.1596  0.6324
 3297TIP3    H131450   1.413   5.306   7.114 -0.6957 -0.6882 -0.5618
 3297TIP3    H231451   1.447   5.160   7.097  1.0437 -0.0263 -3.4379
 3298TIP3   OH231452   0.893   5.745   0.138 -0.4583  0.0173  0.0207
 3298TIP3    H131453   0.869   5.667   0.188 -0.3879 -0.8823 -1.2995
 3298TIP3    H231454   0.830   5.748   0.067 -0.2759  1.0057 -0.1097
 3299TIP3   OH231455   5.170   6.309   7.344 -0.5467 -0.0774 -0.0664
 3299TIP3    H131456   5.252   6.358   7.352 -0.9586  0.7121 -0.5386
 3299TIP3    H231457   5.159   6.296   7.250 -1.6435  1.0291 -0.1121
 3300TIP3   OH231458   0.384   3.236   1.681  0.2294 -0.2354 -0.1847
 3300TIP3    H131459   0.471   3.248   1.721  0.6604 -1.8250 -0.5713
 3300TIP3    H231460   0.399   3.245   1.587  0.2936 -1.9128 -0.3755
 3301TIP3   OH231461   5.948   4.498   0.640  0.0178  0.2266 -0.3999
 3301TIP3    H131462   5.994   4.437   0.582  1.6671  0.3841  0.6899
 3301TIP3    H231463   5.857   4.469   0.637  0.7764 -2.5187  0.3135
 3302TIP3   OH231464   6.654   4.356   8.014 -0.0067  0.1922 -0.2061
 3302TIP3    H131465   6.704   4.414   7.956  0.3979  0.6082  0.5384
 3302TIP3    H231466   6.714   4.335   8.084 -0.1730 -1.1228 -0.4395
 3303TIP3   OH231467   1.880   6.523   0.134 -0.1075 -0.2150  0.2437
 3303TIP3    H131468   1.872   6.538   0.229 -0.9964  1.5071 -0.0697
 3303TIP3    H231469   1.933   6.597   0.103  0.4742 -0.9592 -0.5693
 3304TIP3   OH231470   3.894   5.065   8.489 -0.2824  0.2896 -0.0149
 3304TIP3    H131471   3.825   5.029   8.545  0.0335 -0.0438  0.1620
 3304TIP3    H231472   3.963   4.999   8.490 -0.5187 -0.0055 -1.3018
 3305TIP3   OH231473   5.908   0.493   1.927 -0.4022 -0.0655  0.4851
 3305TIP3    H131474   5.858   0.507   2.007  0.0312  1.3226  0.5279
 3305TIP3    H231475   5.996   0.470   1.957 -0.5910 -0.9645  0.3956
 3306TIP3   OH231476   3.687   2.884   7.785 -0.1685  0.9598  0.3228
 3306TIP3    H131477   3.714   2.974   7.804  0.0434  1.1761 -0.9110
 3306TIP3    H231478   3.677   2.882   7.690  0.0183 -0.3742  0.3149
 3307TIP3   OH231479   2.116   1.617   2.126 -0.7348 -0.6994  0.0285
 3307TIP3    H131480   2.193   1.570   2.157 -0.2579 -0.0476 -0.1278
 3307TIP3    H231481   2.136   1.639   2.035 -0.1873  1.2661  0.5607
 3308TIP3   OH231482   6.172   0.315   1.776 -0.3728  0.1353 -0.0686
 3308TIP3    H131483   6.250   0.331   1.829  0.3622 -0.7547 -0.8434
 3308TIP3    H231484   6.134   0.236   1.814  0.4852 -0.8532 -1.1863
 3309TIP3   OH231485   1.887   2.719   0.459 -0.1950  0.2701  0.6930
 3309TIP3    H131486   1.942   2.644   0.437 -0.6864 -0.4590  1.8326
 3309TIP3    H231487   1.833   2.733   0.382  1.0987  0.5784 -0.1952
 3310TIP3   OH231488   0.925   0.976   6.783 -0.2716  0.5501 -0.0680
 3310TIP3    H131489   0.837   0.942   6.768  1.1027 -2.6831 -1.9039
 3310TIP3    H231490   0.940   0.964   6.877 -1.3634 -0.0056  0.0462
 3311TIP3   OH231491   0.889   4.814   0.176 -0.2271 -0.1708  0.2819
 3311TIP3    H131492   0.901   4.719   0.171 -1.3097 -0.4200  1.4848
 3311TIP3    H231493   0.807   4.824   0.226 -1.1736  1.3704 -1.4740
 3312TIP3   OH231494   3.089   2.605   7.207 -0.7240 -0.6478 -0.2142
 3312TIP3    H131495   3.133   2.611   7.292  1.2696 -0.3742 -1.1810
 3312TIP3    H231496   3.080   2.511   7.192 -1.3592 -0.6939  0.4206
 3313TIP3   OH231497   6.119   2.650   1.879 -0.1977 -0.0421 -0.1335
 3313TIP3    H131498   6.198   2.698   1.854 -1.6495  2.0554 -0.9706
 3313TIP3    H231499   6.140   2.611   1.964  1.4068  1.2911  0.1291
 3314TIP3   OH231500   0.675   4.175   1.218 -0.8286 -0.0735 -0.6688
 3314TIP3    H131501   0.689   4.192   1.125 -1.7677  0.0962 -0.7921
 3314TIP3    H231502   0.621   4.096   1.221  1.0801 -1.4247 -0.1789
 3315TIP3   OH231503   2.505   3.302   2.395 -0.0350 -0.1968 -0.7132
 3315TIP3    H131504   2.586   3.303   2.445  0.7096  1.2290 -1.8708
 3315TIP3    H231505   2.443   3.255   2.451  1.1723 -0.0264  0.8423
 3316TIP3   OH231506   6.238   1.333   7.005 -0.1340 -0.1553  0.0790
 3316TIP3    H131507   6.287   1.321   6.924 -0.5937 -1.4050 -0.0263
 3316TIP3    H231508   6.295   1.387   7.059  0.7390 -0.3895 -0.5824
 3317TIP3   OH231509   4.758   5.586   1.180  0.1779 -0.6762  0.0760
 3317TIP3    H131510   4.827   5.528   1.211 -0.1325 -1.4170 -0.5878
 3317TIP3    H231511   4.682   5.529   1.169  0.2382 -0.4371 -1.9103
 3318TIP3   OH231512   4.347   6.617   8.536  0.2911 -0.7516  0.7265
 3318TIP3    H131513   4.379   6.635   8.624  1.5992 -0.5886  0.2500
 3318TIP3    H231514   4.293   6.538   8.545 -0.7136  0.0425  1.8731
 3319TIP3   OH231515   5.263   5.634   7.877 -0.1873 -0.3802  0.3458
 3319TIP3    H131516   5.174   5.606   7.852 -0.3687  2.2631 -2.5513
 3319TIP3    H231517   5.306   5.653   7.794  2.2278  0.9145  1.7887
 3320TIP3   OH231518   6.255   4.371   0.440  0.4275 -0.6392  0.4433
 3320TIP3    H131519   6.292   4.453   0.471 -0.8006  0.1863 -0.1890
 3320TIP3    H231520   6.278   4.368   0.347  0.7592 -1.1783  0.5391
 3321TIP3   OH231521   2.372   2.331   8.577  0.2727  0.4563  0.6928
 3321TIP3    H131522   2.453   2.372   8.606  0.2484  0.3330  0.9337
 3321TIP3    H231523   2.387   2.237   8.587  0.2207  0.4182  0.4203
 3322TIP3   OH231524   0.257   6.653   8.244  0.2905  0.3697 -0.1858
 3322TIP3    H131525   0.253   6.579   8.184  0.1649  0.9549 -0.9251
 3322TIP3    H231526   0.349   6.679   8.243  0.2756  0.4232 -0.1830
 3323TIP3   OH231527   2.644   1.335   0.176  0.7135 -0.2137 -0.0217
 3323TIP3    H131528   2.673   1.415   0.131  3.0815 -1.0263 -0.1183
 3323TIP3    H231529   2.655   1.266   0.111  1.7723 -1.0454  0.9959
 3324TIP3   OH231530   4.248   2.438   8.568  0.4474  0.1936  0.1619
 3324TIP3    H131531   4.219   2.347   8.561 -0.0408  0.4476 -1.4087
 3324TIP3    H231532   4.292   2.442   8.653 -1.8347 -0.8604  1.4939
 3325TIP3   OH231533   0.154   0.525   8.375  0.8843  0.2183 -0.4298
 3325TIP3    H131534   0.161   0.604   8.429 -0.4349  0.5895 -0.7618
 3325TIP3    H231535   0.228   0.471   8.402  1.5998  1.4043  0.0734
 3326TIP3   OH231536   0.578   3.409   8.672 -0.1561 -0.1561 -0.0288
 3326TIP3    H131537   0.570   3.333   8.730 -1.2609 -1.6622 -2.0282
 3326TIP3    H231538   0.493   3.453   8.678  0.1546  0.4079  0.3894
 3327TIP3   OH231539   5.166   2.294   8.604 -0.3693 -0.0969 -0.2445
 3327TIP3    H131540   5.179   2.290   8.699 -1.4892  0.4159 -0.0451
 3327TIP3    H231541   5.179   2.204   8.574  1.3619 -0.0165  0.1857
 3328TIP3   OH231542   4.726   6.000   1.110  0.1888 -0.2475 -0.1996
 3328TIP3    H131543   4.660   6.057   1.149 -0.0524 -1.6723  1.6422
 3328TIP3    H231544   4.809   6.040   1.134  0.0125  0.1589 -0.2606
 3329TIP3   OH231545   1.709   2.317   7.788 -0.0906 -0.1061  0.0347
 3329TIP3    H131546   1.709   2.372   7.865  1.2010  0.0981 -0.0885
 3329TIP3    H231547   1.644   2.356   7.730  1.0002  1.4828 -0.1727
 3330TIP3   OH231548   2.032   3.959   0.694 -0.5004  0.1541 -0.2766
 3330TIP3    H131549   2.078   3.880   0.721 -2.3834 -0.7297  0.5403
 3330TIP3    H231550   2.044   4.020   0.767  1.9958  1.1529 -1.4296
 3331TIP3   OH231551   2.378   5.472   0.210 -0.5104  0.1325 -0.1127
 3331TIP3    H131552   2.379   5.536   0.138  3.4629  0.5944  0.1037
 3331TIP3    H231553   2.392   5.388   0.167 -2.3861 -0.2153 -0.1225
 3332TIP3   OH231554   1.258   2.720   2.556 -0.6720  0.5530  0.4000
 3332TIP3    H131555   1.303   2.797   2.523 -1.0070  0.5914  0.0207
 3332TIP3    H231556   1.320   2.648   2.542 -0.1040  0.8441  1.3518
 3333TIP3   OH231557   2.492   0.503   1.689  0.4868  0.4331  0.2268
 3333TIP3    H131558   2.528   0.592   1.689 -0.8167  0.9942 -0.7979
 3333TIP3    H231559   2.545   0.456   1.754  1.2547  1.9192  0.7329
 3334TIP3   OH231560   4.109   4.077   7.990  0.0732  0.0381 -0.1585
 3334TIP3    H131561   4.141   4.017   8.056  1.2287  0.2279 -0.5165
 3334TIP3    H231562   4.078   4.021   7.918  1.6951 -0.1445 -0.7409
 3335TIP3   OH231563   6.356   1.535   1.653 -0.4020  0.3614  0.1460
 3335TIP3    H131564   6.426   1.577   1.703  0.5597  1.0029 -1.6513
 3335TIP3    H231565   6.278   1.545   1.708  0.5753  1.1218  1.4530
 3336TIP3   OH231566   5.755   4.792   6.376 -0.4243  0.1556 -0.0871
 3336TIP3    H131567   5.734   4.702   6.403  1.4585 -0.3163 -0.0669
 3336TIP3    H231568   5.742   4.793   6.281 -1.2590  0.1176  0.0186
 3337TIP3   OH231569   5.845   5.250   1.731  0.1125 -0.2679  0.0812
 3337TIP3    H131570   5.758   5.239   1.767 -0.1345  0.5098 -0.2548
 3337TIP3    H231571   5.862   5.344   1.738 -0.0571 -0.0456 -2.0648
 3338TIP3   OH231572   3.693   1.002   0.240 -0.7572  0.8691 -0.2342
 3338TIP3    H131573   3.746   1.057   0.183  0.8247  0.6098  0.9297
 3338TIP3    H231574   3.756   0.945   0.284 -2.0969 -0.0522  0.5542
 3339TIP3   OH231575   3.650   0.910   7.086 -0.5814 -0.0477  0.4823
 3339TIP3    H131576   3.710   0.926   7.014 -1.3979 -2.1569 -0.7434
 3339TIP3    H231577   3.672   0.978   7.151  1.5785  0.6035 -0.8320
 3340TIP3   OH231578   1.573   1.361   8.345  0.4043 -0.2574 -0.6149
 3340TIP3    H131579   1.605   1.452   8.343 -0.9844  0.2507 -2.6264
 3340TIP3    H231580   1.642   1.311   8.301  0.2914  0.1566 -1.2715
 3341TIP3   OH231581   2.264   5.869   1.310  0.4462  0.2279  0.5404
 3341TIP3    H131582   2.252   5.865   1.215  0.6283 -0.8491  0.5451
 3341TIP3    H231583   2.358   5.880   1.322  0.5436 -0.6235  0.5994
 3342TIP3   OH231584   2.556   2.155   1.682 -0.1735  0.5692 -0.3156
 3342TIP3    H131585   2.545   2.134   1.774 -1.3797  0.7228 -0.4020
 3342TIP3    H231586   2.467   2.153   1.646  0.4969 -2.2181 -2.1010
 3343TIP3   OH231587   5.840   1.538   8.372  0.7264  0.2600  0.1946
 3343TIP3    H131588   5.856   1.597   8.298  2.2598  1.6745  1.5697
 3343TIP3    H231589   5.867   1.588   8.449  2.0123 -2.1871  1.4600
 3344TIP3   OH231590   4.273   0.014   0.081 -0.2362 -0.4974  0.0848
 3344TIP3    H131591   4.339   0.069   0.123 -1.0806  0.2466  0.4529
 3344TIP3    H231592   4.214  -0.011   0.152  0.8573 -3.0407  0.2286
 3345TIP3   OH231593   3.374   3.729   0.807 -0.0542 -0.2803  0.1478
 3345TIP3    H131594   3.398   3.639   0.829 -0.3812 -0.3828  0.0947
 3345TIP3    H231595   3.450   3.763   0.760 -0.3973 -0.9386 -0.9426
 3346TIP3   OH231596   5.828   6.781   1.932 -0.2112 -0.0610  0.4877
 3346TIP3    H131597   5.840   6.692   1.966  2.1695 -0.6416 -1.5513
 3346TIP3    H231598   5.779   6.770   1.851 -0.7850  0.6140  0.7345
 3347TIP3   OH231599   3.946   0.350   8.360 -0.6879  0.1168 -0.7299
 3347TIP3    H131600   3.880   0.306   8.412 -1.3090 -1.1399 -2.4867
 3347TIP3    H231601   4.021   0.291   8.362 -0.5420  0.2965 -0.8590
 3348TIP3   OH231602   5.803   6.390   7.277 -0.3488 -0.3998  0.1224
 3348TIP3    H131603   5.725   6.353   7.235 -0.0721  0.0257 -0.7838
 3348TIP3    H231604   5.849   6.314   7.313 -2.2601 -0.5011  2.6297
 3349TIP3   OH231605   2.578   3.277   1.007  0.1161  0.1073 -0.6079
 3349TIP3    H131606   2.611   3.193   0.974  0.6783  1.4173 -3.6213
 3349TIP3    H231607   2.655   3.334   1.011 -0.8128  1.5630 -2.3069
 3350TIP3   OH231608   4.509   0.263   0.399 -0.5466 -0.1360 -0.5530
 3350TIP3    H131609   4.415   0.265   0.417 -0.4515  0.9086 -0.0810
 3350TIP3    H231610   4.518   0.302   0.312 -0.4529  1.1268 -0.0065
 3351TIP3   OH231611   5.217   5.307   1.259 -0.5808 -0.1057  0.2533
 3351TIP3    H131612   5.207   5.252   1.337  0.0147 -0.6182 -0.0178
 3351TIP3    H231613   5.310   5.300   1.237 -1.0700 -1.6242 -1.6607
 3352TIP3   OH231614   4.259   2.060   1.601 -0.5495  0.5418  0.1990
 3352TIP3    H131615   4.198   2.058   1.675 -0.8140 -2.0735  0.0029
 3352TIP3    H231616   4.203   2.078   1.525 -0.8736 -0.4760  0.1898
 3353TIP3   OH231617   0.410   2.645   0.760  0.2337 -0.2157 -0.3356
 3353TIP3    H131618   0.466   2.705   0.711  1.2214 -0.4381  0.4752
 3353TIP3    H231619   0.462   2.564   0.766 -0.8225 -0.9594 -0.8974
 3354TIP3   OH231620   5.649   6.099   7.423 -0.3231  0.3300  0.6426
 3354TIP3    H131621   5.604   6.136   7.499 -1.2513 -0.8182  0.6846
 3354TIP3    H231622   5.612   6.146   7.348 -1.3895 -0.3779  0.7035
 3355TIP3   OH231623   5.322   3.678   7.179  0.6876  0.0153 -0.1583
 3355TIP3    H131624   5.233   3.667   7.145  0.6250  0.5241 -0.1675
 3355TIP3    H231625   5.373   3.611   7.134  0.1776 -0.7419  0.3624
 3356TIP3   OH231626   1.605   2.192   8.183 -0.5138  0.0803  0.1495
 3356TIP3    H131627   1.560   2.167   8.103 -0.1549  0.9443 -0.3262
 3356TIP3    H231628   1.675   2.127   8.193 -0.2086  0.3095 -0.5312
 3357TIP3   OH231629   1.052   2.740   0.578  0.1811  0.1749  0.8888
 3357TIP3    H131630   1.040   2.792   0.499  0.4513  1.5828  1.7293
 3357TIP3    H231631   1.116   2.673   0.554  1.0713  1.2342  0.1976
 3358TIP3   OH231632   2.373   4.623   1.183  0.2819 -0.7514  0.5731
 3358TIP3    H131633   2.283   4.653   1.195  0.4309 -1.0599  2.7215
 3358TIP3    H231634   2.375   4.536   1.223  1.1639 -1.4597 -0.9161
 3359TIP3   OH231635   5.456   2.871   0.992  0.6622 -0.3878  0.4166
 3359TIP3    H131636   5.399   2.918   0.931  0.4247 -2.3273 -0.9273
 3359TIP3    H231637   5.423   2.781   0.991  2.0621 -0.9534  1.7216
 3360TIP3   OH231638   4.140   1.962   0.326 -0.0992 -0.1542  0.0588
 3360TIP3    H131639   4.183   1.964   0.412 -2.2856  1.8687  1.2054
 3360TIP3    H231640   4.080   2.036   0.327 -1.4937 -1.1102 -2.5830
 3361TIP3   OH231641   1.191   1.243   0.693  0.2156  0.6147  0.4902
 3361TIP3    H131642   1.149   1.325   0.720  0.3024  0.5726  0.7637
 3361TIP3    H231643   1.128   1.201   0.634 -0.7743 -0.1328  2.0041
 3362TIP3   OH231644   3.290   2.714   8.324 -0.3343  0.2527 -0.2465
 3362TIP3    H131645   3.240   2.668   8.256  0.0575 -1.3033  0.4702
 3362TIP3    H231646   3.223   2.752   8.381 -0.6669  0.7926 -0.9716
 3363TIP3   OH231647   2.968   4.098   1.461  0.2427 -0.3296 -0.1458
 3363TIP3    H131648   2.913   4.030   1.500 -0.4758  0.5085  0.3253
 3363TIP3    H231649   3.005   4.146   1.535  0.0943  0.3044 -0.4701
 3364TIP3   OH231650   0.558   0.427   0.486  0.5346  0.0852  0.1616
 3364TIP3    H131651   0.626   0.416   0.420 -0.6651 -0.5251 -1.0184
 3364TIP3    H231652   0.479   0.445   0.436 -0.2805  0.3235  1.4840
 3365TIP3   OH231653   5.700   1.426   6.942  0.4128 -0.0125 -0.1551
 3365TIP3    H131654   5.771   1.447   7.003  0.5003  0.1074 -0.2956
 3365TIP3    H231655   5.666   1.511   6.915  1.5122  0.0134 -1.5920
 3366TIP3   OH231656   5.344   3.902   1.255 -0.5356 -0.3412  0.1851
 3366TIP3    H131657   5.271   3.952   1.293 -1.6063 -0.5441 -1.4786
 3366TIP3    H231658   5.333   3.913   1.160  1.7338 -0.2377 -0.1146
 3367TIP3   OH231659   4.824   3.845   1.765 -0.0892 -0.5256  0.1072
 3367TIP3    H131660   4.833   3.904   1.840  0.9843 -0.5461  0.0078
 3367TIP3    H231661   4.912   3.814   1.747  0.2125  1.5506 -2.8260
 3368TIP3   OH231662   2.897   6.174   1.669 -0.0008 -0.1478 -0.1218
 3368TIP3    H131663   2.835   6.186   1.596 -2.4366  0.8494  1.9501
 3368TIP3    H231664   2.919   6.081   1.667 -1.4076 -0.4895 -1.0959
 3369TIP3   OH231665   3.248   2.110   8.602  0.2497  0.5215 -0.1459
 3369TIP3    H131666   3.297   2.180   8.558  1.1614  0.0017  0.0079
 3369TIP3    H231667   3.287   2.106   8.690  0.7569 -0.6899 -0.4034
 3370TIP3   OH231668   1.273   3.804   0.243  0.2154  0.7138 -0.3624
 3370TIP3    H131669   1.198   3.857   0.219  1.0399  1.7027 -0.8384
 3370TIP3    H231670   1.331   3.863   0.291  0.3860 -0.2137  0.6047
 3371TIP3   OH231671   3.944   1.160   1.408  0.2155 -0.6274  0.2121
 3371TIP3    H131672   3.875   1.214   1.448  0.2368 -0.2940 -0.1906
 3371TIP3    H231673   3.903   1.124   1.330  0.5603 -0.2591 -0.1426
 3372TIP3   OH231674   1.053   6.807   8.532 -0.1875 -0.0551 -0.4315
 3372TIP3    H131675   1.127   6.747   8.540 -2.6634 -3.1490  1.2234
 3372TIP3    H231676   1.021   6.818   8.622 -1.9218  0.9443 -1.1271
 3373TIP3   OH231677   2.984   3.158   0.924  0.1381  0.2053 -0.1802
 3373TIP3    H131678   2.962   3.124   1.011  1.3730  0.2109  0.1516
 3373TIP3    H231679   2.981   3.081   0.867  0.1713  0.0448  0.0327
 3374TIP3   OH231680   0.788   6.485   1.291 -0.1070  0.8705  0.3705
 3374TIP3    H131681   0.758   6.420   1.228  0.3740  0.9108  0.0923
 3374TIP3    H231682   0.710   6.537   1.312 -1.5034 -2.0824  3.4653
 3375TIP3   OH231683   2.885   4.255   1.892 -0.2755  0.4152  0.0899
 3375TIP3    H131684   2.843   4.269   1.976 -0.1600  1.7458 -0.0551
 3375TIP3    H231685   2.949   4.326   1.884  2.3415 -1.7130  0.4792
 3376TIP3   OH231686   0.235   2.795   2.088 -1.2933 -0.1767 -0.3034
 3376TIP3    H131687   0.163   2.835   2.137 -1.4219  0.0176 -0.6533
 3376TIP3    H231688   0.310   2.802   2.147 -0.7870  2.4581 -1.1018
 3377TIP3   OH231689   6.021   6.634   2.525 -0.0096 -0.3471 -0.6385
 3377TIP3    H131690   5.947   6.619   2.584  1.6599 -0.5466  1.4905
 3377TIP3    H231691   6.042   6.727   2.536  1.0782 -0.6633  0.0454
 3378TIP3   OH231692   3.188   5.768   1.161 -0.0159 -0.6148  0.6539
 3378TIP3    H131693   3.103   5.807   1.184  0.6403 -0.2111  2.5965
 3378TIP3    H231694   3.166   5.695   1.104 -1.5906  0.0495  0.3491
 3379TIP3   OH231695   3.248   1.356   0.166 -0.3525  0.3755  0.1692
 3379TIP3    H131696   3.300   1.435   0.176 -0.7513  0.5586  0.8590
 3379TIP3    H231697   3.160   1.387   0.145 -0.2029  0.0702 -0.9819
 3380TIP3   OH231698   1.680   6.840   7.928 -0.0491  0.2215  0.1694
 3380TIP3    H131699   1.738   6.795   7.989  0.8986  1.4001  0.1745
 3380TIP3    H231700   1.705   6.806   7.842 -0.3869 -0.3663  0.2970
 3381TIP3   OH231701   6.371   4.712   0.160 -0.3097 -0.1857  0.3692
 3381TIP3    H131702   6.382   4.705   0.255  1.5014  1.8689  0.3894
 3381TIP3    H231703   6.289   4.759   0.148 -0.2808  0.0193  0.9505
 3382TIP3   OH231704   1.499   1.852   1.919  0.2731 -0.1422 -0.0037
 3382TIP3    H131705   1.545   1.771   1.939  1.7310  0.5008 -0.5527
 3382TIP3    H231706   1.517   1.910   1.993 -0.1980 -0.0971  0.0780
 3383TIP3   OH231707   5.070   3.336   2.469 -0.1430 -0.1088 -0.1981
 3383TIP3    H131708   5.045   3.331   2.377  0.1124 -0.2742 -0.2616
 3383TIP3    H231709   4.997   3.380   2.512 -1.3157 -2.0667 -0.0848
 3384TIP3   OH231710   2.458   3.495   2.173  0.6304 -0.3176 -0.2332
 3384TIP3    H131711   2.480   3.428   2.238  1.9985 -0.6219 -0.9729
 3384TIP3    H231712   2.467   3.578   2.220  0.3676 -0.5924  0.3022
 3385TIP3   OH231713   4.792   2.992   8.034 -0.1021  0.0429  0.0813
 3385TIP3    H131714   4.772   3.064   7.974  0.6276  2.1132  2.1899
 3385TIP3    H231715   4.733   2.922   8.007 -1.0331  1.4847 -1.9117
 3386TIP3   OH231716   3.020   6.402   1.000  0.2160 -0.3491  0.3920
 3386TIP3    H131717   3.093   6.465   1.001  0.9996 -1.2291  1.7784
 3386TIP3    H231718   3.014   6.371   1.091 -2.1008 -0.0939  0.3859
 3387TIP3   OH231719   2.476   1.014   1.009 -0.2282 -0.3396  0.4979
 3387TIP3    H131720   2.524   1.069   1.071 -0.1392 -0.2175  0.3219
 3387TIP3    H231721   2.507   1.042   0.923  0.2358 -1.0499  0.4264
 3388TIP3   OH231722   0.099   2.287   7.276  0.4760  0.2424  0.2775
 3388TIP3    H131723   0.175   2.331   7.313  0.1055  0.9418  0.2104
 3388TIP3    H231724   0.132   2.250   7.194  0.4824  1.4801 -0.2983
 3389TIP3   OH231725   3.666   4.729   2.319 -0.2425  0.1786 -0.4999
 3389TIP3    H131726   3.746   4.723   2.266 -1.1534 -0.0398 -1.9060
 3389TIP3    H231727   3.622   4.645   2.305  0.3211 -0.6046  2.0533
 3390TIP3   OH231728   0.587   4.143   0.384  0.1879  0.0817 -0.6905
 3390TIP3    H131729   0.637   4.122   0.463  2.0681 -0.7244 -2.0348
 3390TIP3    H231730   0.563   4.235   0.394 -0.5158 -0.2761  1.2707
 3391TIP3   OH231731   3.428   6.153   0.510  0.1473 -0.3151 -0.0597
 3391TIP3    H131732   3.417   6.092   0.437 -1.4207  0.1599 -0.2481
 3391TIP3    H231733   3.340   6.164   0.546  0.9480 -1.0240  2.3206
 3392TIP3   OH231734   2.902   1.956   1.060  0.0597  0.2078  0.2038
 3392TIP3    H131735   2.807   1.968   1.056  0.0039  0.2964  1.4247
 3392TIP3    H231736   2.934   2.034   1.105  0.8696  0.7902 -1.3138
 3393TIP3   OH231737   4.440   4.988   1.718 -0.3284 -0.2613 -0.4055
 3393TIP3    H131738   4.349   5.003   1.691 -0.4591 -1.2089 -0.5403
 3393TIP3    H231739   4.462   4.902   1.681  1.1039  0.5749 -1.5927
 3394TIP3   OH231740   1.290   4.977   0.971  0.2306  0.1993 -0.3251
 3394TIP3    H131741   1.333   4.901   1.010 -1.0374 -0.4579 -0.1931
 3394TIP3    H231742   1.303   4.967   0.876 -1.3527 -1.0745 -0.4316
 3395TIP3   OH231743   1.771   2.236   0.528  0.4770  0.2069 -0.1496
 3395TIP3    H131744   1.839   2.272   0.471 -1.1517  0.0895 -2.3076
 3395TIP3    H231745   1.727   2.312   0.564  0.6461  0.3000 -0.1388
 3396TIP3   OH231746   2.260   0.686   6.685 -0.1763 -0.4985  0.0114
 3396TIP3    H131747   2.302   0.738   6.617 -0.6131 -0.1947 -0.0307
 3396TIP3    H231748   2.271   0.737   6.765 -2.7028  0.8949 -0.4269
 3397TIP3   OH231749   5.622   1.846   1.392  0.2586 -0.2819 -0.2848
 3397TIP3    H131750   5.712   1.835   1.423 -0.1361 -0.0266  1.0232
 3397TIP3    H231751   5.568   1.819   1.467 -0.7621 -1.1647 -1.3071
 3398TIP3   OH231752   0.185   4.039   7.391  0.1055 -0.1115  0.4054
 3398TIP3    H131753   0.167   4.069   7.302  1.1869  0.1036  0.2537
 3398TIP3    H231754   0.258   4.092   7.421 -0.1977 -0.2294  1.4092
 3399TIP3   OH231755   1.632   2.261   7.100 -0.2050  0.1863  0.5147
 3399TIP3    H131756   1.706   2.270   7.160 -0.7058 -0.1037  1.1830
 3399TIP3    H231757   1.563   2.220   7.152 -0.2980 -1.0613 -0.5409
 3400TIP3   OH231758   3.374   2.360   8.176  0.0370 -0.8245 -0.1318
 3400TIP3    H131759   3.417   2.316   8.102 -0.5825 -2.2127  0.2984
 3400TIP3    H231760   3.446   2.393   8.229  0.5109  1.7985 -2.2128
 3401TIP3   OH231761   3.902   6.239   2.020  0.0283 -0.2714 -0.4763
 3401TIP3    H131762   3.837   6.270   2.084  0.2325  0.5025 -0.6313
 3401TIP3    H231763   3.861   6.165   1.977 -0.1142 -0.8093  0.5618
 3402TIP3   OH231764   1.997   3.270   6.550 -0.3622 -0.7487  0.0567
 3402TIP3    H131765   1.996   3.361   6.579  0.6016 -0.6079 -0.3352
 3402TIP3    H231766   2.075   3.233   6.591 -0.1693 -1.1153 -0.6310
 3403TIP3   OH231767   6.755   3.820   0.146 -0.2367  0.3406  0.2707
 3403TIP3    H131768   6.733   3.795   0.056  1.0641 -0.1626  0.0667
 3403TIP3    H231769   6.723   3.748   0.200  0.3382 -0.0899  0.0456
 3404TIP3   OH231770   6.385   3.179   0.275  0.0924 -0.1093 -0.7085
 3404TIP3    H131771   6.467   3.214   0.240 -0.1617  0.6036 -0.6006
 3404TIP3    H231772   6.351   3.249   0.331  0.0538 -0.8921  0.2797
 3405TIP3   OH231773   4.936   3.693   1.106 -1.0086  0.3097  0.1130
 3405TIP3    H131774   5.002   3.660   1.045  1.0708  0.0661  2.3604
 3405TIP3    H231775   4.918   3.782   1.077  1.6504  1.0108  0.4135
 3406TIP3   OH231776   1.769   0.382   6.949  0.0131 -0.1137  0.0959
 3406TIP3    H131777   1.674   0.391   6.958  0.0076  1.0308 -0.8348
 3406TIP3    H231778   1.780   0.317   6.879 -0.0249 -2.2103  1.9517
 3407TIP3   OH231779   6.545   6.127   8.177  0.0809  0.4579 -0.3296
 3407TIP3    H131780   6.519   6.039   8.204 -1.9515  1.3591  0.8611
 3407TIP3    H231781   6.610   6.153   8.241  1.4987 -0.5338 -1.3078
 3408TIP3   OH231782   5.764   1.394   2.126  1.1432  0.0433 -0.2892
 3408TIP3    H131783   5.718   1.449   2.061 -1.8167  0.8473  2.2474
 3408TIP3    H231784   5.705   1.320   2.141  2.4817 -0.9204  0.4019
 3409TIP3   OH231785   1.678   2.089   8.536  0.1821  0.0097 -0.3141
 3409TIP3    H131786   1.611   2.147   8.574  1.0360  0.5342  0.4388
 3409TIP3    H231787   1.628   2.020   8.493 -0.8506  0.6920 -0.2538
 3410TIP3   OH231788   5.459   1.949   1.904 -0.2309 -0.3519 -0.4628
 3410TIP3    H131789   5.484   1.863   1.940  0.2946  0.0388  0.1247
 3410TIP3    H231790   5.428   1.998   1.980  0.6891  0.4199 -0.5719
 3411TIP3   OH231791   2.212   1.218   8.300 -0.0929 -0.6050  0.1319
 3411TIP3    H131792   2.250   1.253   8.219 -1.0107 -0.7056 -0.3682
 3411TIP3    H231793   2.217   1.123   8.289 -0.2498 -0.6191  0.1677
 3412TIP3   OH231794   2.809   6.065   0.460  0.4698 -0.6915  0.0122
 3412TIP3    H131795   2.884   6.013   0.488  0.4704 -0.6513  0.0836
 3412TIP3    H231796   2.750   6.064   0.535  0.7489 -0.0566  0.2450
 3413TIP3   OH231797   3.998   6.836   0.509  0.6131 -0.4879  0.1444
 3413TIP3    H131798   3.980   6.930   0.505  0.7006 -0.4861 -0.1894
 3413TIP3    H231799   3.934   6.796   0.451  2.5610 -0.3491 -2.2706
 3414TIP3   OH231800   1.575   3.348   7.864 -0.3611  0.2775 -0.5517
 3414TIP3    H131801   1.584   3.443   7.861  1.5307  0.0962 -2.5101
 3414TIP3    H231802   1.487   3.331   7.830 -0.3723  1.2940 -1.0617
 3415TIP3   OH231803   3.347   3.409   8.056 -0.4014  0.5287 -0.2035
 3415TIP3    H131804   3.425   3.462   8.038 -0.6184  1.7490  2.0728
 3415TIP3    H231805   3.274   3.467   8.033 -0.6346  0.5925  0.6770
 3416TIP3   OH231806   2.272   1.349   0.941  0.2975 -0.1427  0.4505
 3416TIP3    H131807   2.251   1.438   0.912  0.3304 -0.2089  0.2252
 3416TIP3    H231808   2.320   1.362   1.023 -0.2761  0.0205  0.7602
 3417TIP3   OH231809   4.831   5.722   6.906 -0.4408 -0.2280 -0.7043
 3417TIP3    H131810   4.770   5.652   6.929 -0.5436 -0.1436 -0.7176
 3417TIP3    H231811   4.779   5.782   6.851 -0.7261  0.5355  0.3611
 3418TIP3   OH231812   2.179   4.696   8.477  0.5509  0.4502 -0.1035
 3418TIP3    H131813   2.268   4.688   8.511  0.5194 -0.9186 -0.2718
 3418TIP3    H231814   2.171   4.625   8.413 -0.5569  0.7588 -0.3400
 3419TIP3   OH231815   4.801   4.987   0.934 -0.3626 -0.0123  0.3608
 3419TIP3    H131816   4.708   4.965   0.950 -1.9058  2.2140 -4.1145
 3419TIP3    H231817   4.804   5.082   0.935  1.3370  0.0290 -1.8038
 3420TIP3   OH231818   6.168   2.543   7.766 -0.0490  0.3701 -0.3079
 3420TIP3    H131819   6.084   2.527   7.722 -0.6570  1.7532  0.2983
 3420TIP3    H231820   6.145   2.592   7.845  1.1661 -0.8058  0.8213
 3421TIP3   OH231821   1.138   3.425   8.167  0.0913  0.7634 -0.4210
 3421TIP3    H131822   1.054   3.467   8.188 -1.7746 -0.6093 -4.1675
 3421TIP3    H231823   1.185   3.423   8.250 -2.8679  3.1140  1.5496
 3422TIP3   OH231824   0.391   2.876   6.880 -0.0500 -0.6395 -0.3253
 3422TIP3    H131825   0.355   2.962   6.857 -0.2714 -0.6897 -0.1742
 3422TIP3    H231826   0.464   2.863   6.819 -0.9528 -0.9977 -1.3647
 3423TIP3   OH231827   6.728   4.545   1.537  0.4655  0.0963 -0.5734
 3423TIP3    H131828   6.733   4.637   1.510  1.1261  0.5261  0.8880
 3423TIP3    H231829   6.662   4.507   1.479  1.3581  1.0617 -2.3135
 3424TIP3   OH231830   6.396   5.065   8.219  0.3855  0.4321 -0.1023
 3424TIP3    H131831   6.368   5.030   8.135 -1.7757  1.5983  0.0572
 3424TIP3    H231832   6.461   5.002   8.251  0.2124 -0.7707 -1.9653
 3425TIP3   OH231833   6.196   1.575   1.412 -0.1177  0.2200 -0.5309
 3425TIP3    H131834   6.251   1.549   1.485  0.5972  1.9067 -0.4129
 3425TIP3    H231835   6.249   1.640   1.365 -1.9472  1.8266 -0.4705
 3426TIP3   OH231836   3.022   2.582   6.484  0.5426 -0.1788 -0.0950
 3426TIP3    H131837   3.057   2.496   6.508  0.4502 -0.2794 -0.3150
 3426TIP3    H231838   3.038   2.637   6.561 -1.0416 -0.8729  0.7885
 3427TIP3   OH231839   5.807   1.246   1.440 -0.0837 -0.1249  0.7375
 3427TIP3    H131840   5.852   1.330   1.434  0.9877 -0.7775 -1.0901
 3427TIP3    H231841   5.877   1.182   1.455 -0.7020 -0.8806  0.4921
 3428TIP3   OH231842   4.727   5.291   8.345  0.3560 -0.0889  0.6719
 3428TIP3    H131843   4.696   5.201   8.335 -0.6337 -0.0525  2.9213
 3428TIP3    H231844   4.666   5.332   8.406  0.0961  2.5063 -1.1613
 3429TIP3   OH231845   0.424   4.265   6.493 -0.1823  0.1822 -0.2522
 3429TIP3    H131846   0.513   4.239   6.515 -0.8992 -1.6306  0.6484
 3429TIP3    H231847   0.379   4.271   6.577 -0.3782  3.4818 -0.4462
 3430TIP3   OH231848   3.572   6.156   7.284  0.5698  0.5077  0.1169
 3430TIP3    H131849   3.491   6.104   7.280  1.7677 -1.4987  0.6838
 3430TIP3    H231850   3.542   6.245   7.304 -1.4954 -0.2033  0.4174
 3431TIP3   OH231851   2.087   3.556   7.397  0.4155  0.1135  0.6810
 3431TIP3    H131852   2.175   3.571   7.430  1.2000  0.2121 -1.2767
 3431TIP3    H231853   2.082   3.461   7.383  0.2924  0.1322  0.5924
 3432TIP3   OH231854   1.889   3.305   0.971  0.3798  0.4733  0.2159
 3432TIP3    H131855   1.909   3.288   1.064 -1.3423  0.3467  0.5904
 3432TIP3    H231856   1.802   3.267   0.958  0.9001 -0.1999 -1.6714
 3433TIP3   OH231857   2.014   0.463   7.441  0.2062  0.0294  0.3906
 3433TIP3    H131858   1.953   0.403   7.398 -1.1073  2.2770 -1.0357
 3433TIP3    H231859   2.068   0.498   7.370 -0.7494  2.4022  0.7600
 3434TIP3   OH231860   4.438   0.798   6.728  0.2468 -0.0262 -0.1787
 3434TIP3    H131861   4.346   0.784   6.747  0.4619 -0.2970  0.7337
 3434TIP3    H231862   4.449   0.770   6.637 -0.2973 -1.3551  0.1428
 3435TIP3   OH231863   0.015   6.295   1.248  0.9705  0.4296  0.3127
 3435TIP3    H131864  -0.016   6.298   1.339 -0.6406 -0.1318 -0.1931
 3435TIP3    H231865   0.048   6.384   1.231  2.2245  0.2785  1.7319
 3436TIP3   OH231866   1.763   2.187   7.537  0.4985  0.0075  0.0679
 3436TIP3    H131867   1.738   2.222   7.623 -0.6293  0.8207 -0.5667
 3436TIP3    H231868   1.688   2.205   7.481  1.3158 -0.2944 -1.1646
 3437TIP3   OH231869   6.120   1.874   1.571  0.0513 -0.7453 -0.1704
 3437TIP3    H131870   6.209   1.867   1.536 -0.0874 -0.5097 -0.5832
 3437TIP3    H231871   6.126   1.838   1.659  0.7282 -0.0306  0.0941
 3438TIP3   OH231872   4.054   1.043   6.689  0.0354  0.1415  0.3986
 3438TIP3    H131873   4.096   0.976   6.635  1.6588  0.0873  1.6436
 3438TIP3    H231874   4.115   1.117   6.687  0.0863  0.1857  2.0211
 3439TIP3   OH231875   4.397   5.575   2.138  0.8096 -0.1813  0.3399
 3439TIP3    H131876   4.357   5.490   2.161  2.3535 -0.8617  0.6199
 3439TIP3    H231877   4.486   5.569   2.171  1.1820  1.2779 -0.3391
 3440TIP3   OH231878   5.848   1.310   0.574  0.3779 -0.4463 -0.2879
 3440TIP3    H131879   5.909   1.339   0.507  3.0401 -1.1152  1.6839
 3440TIP3    H231880   5.842   1.215   0.561  0.0344 -0.4349 -0.2334
 3441TIP3   OH231881   4.144   3.932   2.180 -0.0203 -0.8334 -0.0981
 3441TIP3    H131882   4.131   3.838   2.194  1.7245 -0.9619  1.0590
 3441TIP3    H231883   4.134   3.971   2.267  1.3616 -0.2714 -0.1522
 3442TIP3   OH231884   3.595   6.800   0.893 -0.1560  0.4392 -0.0410
 3442TIP3    H131885   3.634   6.790   0.806 -3.9634 -0.1408 -1.8756
 3442TIP3    H231886   3.648   6.868   0.935  2.4736 -0.0089 -2.3283
 3443TIP3   OH231887   6.486   5.793   7.912  0.1809 -0.3338  0.5381
 3443TIP3    H131888   6.420   5.733   7.878  1.9598 -1.1598 -1.7983
 3443TIP3    H231889   6.464   5.804   8.004 -2.9178 -0.8620 -0.0361
 3444TIP3   OH231890   3.182   2.678   2.736 -0.2537  0.2919  0.2507
 3444TIP3    H131891   3.159   2.731   2.659  2.1130 -0.0077 -0.7508
 3444TIP3    H231892   3.220   2.598   2.699  3.6486  1.3348  1.5555
 3445TIP3   OH231893   3.918   1.874   0.028 -0.1278 -0.0583  0.1240
 3445TIP3    H131894   3.887   1.961   0.051 -1.4429 -0.3672 -0.3957
 3445TIP3    H231895   3.897   1.820   0.103  0.2196 -0.0436  0.2357
 3446TIP3   OH231896   6.760   3.023   0.585  0.1215 -0.1240  0.3586
 3446TIP3    H131897   6.797   3.013   0.497 -0.4398  0.6140  0.0269
 3446TIP3    H231898   6.832   3.002   0.644  0.6651 -0.0834 -0.2768
 3447TIP3   OH231899   2.164   5.809   0.067 -0.1937 -0.2556  0.6249
 3447TIP3    H131900   2.225   5.874   0.101 -0.2898 -0.4987  1.2796
 3447TIP3    H231901   2.102   5.859   0.014  0.5939 -0.0101 -0.0869
 3448TIP3   OH231902   3.124   0.389   1.079  0.1813  0.3712  0.3202
 3448TIP3    H131903   3.215   0.370   1.104  0.9563  2.6557 -0.5049
 3448TIP3    H231904   3.093   0.449   1.146 -1.1387 -1.1954  1.1826
 3449TIP3   OH231905   1.238   5.407   7.456 -0.2149 -0.0711 -0.4191
 3449TIP3    H131906   1.208   5.490   7.494 -1.0167 -0.7440  0.4718
 3449TIP3    H231907   1.228   5.419   7.362  1.5653  1.5558 -0.4565
 3450TIP3   OH231908   0.187   4.641   1.682 -0.1421 -0.0583 -0.4254
 3450TIP3    H131909   0.246   4.591   1.738  1.0097  1.0356 -0.6168
 3450TIP3    H231910   0.195   4.731   1.714 -0.3423  0.3944 -1.6031
 3451TIP3   OH231911   4.943   6.529   0.434 -0.2902  0.1573  0.5115
 3451TIP3    H131912   4.980   6.461   0.378  1.3024  1.9626 -0.7493
 3451TIP3    H231913   4.945   6.492   0.522 -0.0389 -1.6397 -0.2210
 3452TIP3   OH231914   0.785   1.633   0.146 -0.3084  0.2189 -0.5911
 3452TIP3    H131915   0.719   1.694   0.181 -1.2071 -1.5603  1.0468
 3452TIP3    H231916   0.769   1.552   0.194  0.6305 -1.4197 -2.8944
 3453TIP3   OH231917   2.438   4.791   8.101  0.5442 -0.2941  0.6244
 3453TIP3    H131918   2.487   4.846   8.040 -0.1590 -2.1986 -1.8154
 3453TIP3    H231919   2.366   4.846   8.130 -1.2924 -0.3271 -3.2781
 3454TIP3   OH231920   3.720   3.441   7.757  0.3236 -0.2508  0.7948
 3454TIP3    H131921   3.736   3.443   7.663 -0.8542 -0.4096  0.5757
 3454TIP3    H231922   3.631   3.477   7.767  0.6119  0.1837  1.8825
 3455TIP3   OH231923   1.781   2.234   1.860  0.3287  0.2533  0.1417
 3455TIP3    H131924   1.693   2.214   1.828  0.6623  0.9458 -1.2848
 3455TIP3    H231925   1.767   2.291   1.935 -0.4741 -1.2184  1.1720
 3456TIP3   OH231926   0.537   2.280   0.485  0.4579 -0.3271 -0.1712
 3456TIP3    H131927   0.585   2.311   0.562  0.3111  1.0503 -0.6050
 3456TIP3    H231928   0.599   2.224   0.439  2.1192  2.2161 -1.2638
 3457TIP3   OH231929   0.389   4.564   8.378  0.2529  0.3335 -0.2740
 3457TIP3    H131930   0.344   4.519   8.449 -0.3196  1.3930  0.0623
 3457TIP3    H231931   0.475   4.522   8.373 -0.3643 -0.9728 -0.1887
 3458TIP3   OH231932   4.155   2.710   7.445 -0.1360 -0.1010 -0.0283
 3458TIP3    H131933   4.154   2.771   7.372 -0.6812  0.9514  0.8254
 3458TIP3    H231934   4.238   2.726   7.490 -0.5065  0.3909  0.4934
 3459TIP3   OH231935   1.699   1.178   0.144 -0.6480 -0.1216  0.1279
 3459TIP3    H131936   1.616   1.217   0.115 -0.2276  1.2481  0.6679
 3459TIP3    H231937   1.732   1.239   0.210 -0.0799 -1.5733  1.2373
 3460TIP3   OH231938   6.079   4.931   2.416 -0.8284  0.4226 -0.6109
 3460TIP3    H131939   6.149   4.950   2.353  0.3234 -2.2199 -0.2629
 3460TIP3    H231940   6.001   4.919   2.362 -0.6381  1.5809 -1.1744
 3461TIP3   OH231941   3.574   0.963   1.331  0.3703 -0.1657  0.4823
 3461TIP3    H131942   3.562   0.965   1.426  0.6767 -1.1920  0.5565
 3461TIP3    H231943   3.538   0.879   1.304  0.4699  0.0305 -0.2874
 3462TIP3   OH231944   5.290   2.625   0.508 -0.2035  0.1235 -0.0247
 3462TIP3    H131945   5.308   2.585   0.593 -0.1507 -0.8287 -0.4779
 3462TIP3    H231946   5.286   2.552   0.447  0.9326  0.8790 -1.0552
 3463TIP3   OH231947   1.262   5.760   0.983 -0.2691 -0.6420 -0.2825
 3463TIP3    H131948   1.255   5.693   0.914  1.9081 -0.4333 -0.7688
 3463TIP3    H231949   1.310   5.716   1.053 -0.4446 -0.1368  0.1575
 3464TIP3   OH231950   1.456   1.659   0.477 -0.0662  0.0589 -0.0001
 3464TIP3    H131951   1.491   1.668   0.565  0.6062 -0.4362 -0.2018
 3464TIP3    H231952   1.534   1.647   0.422 -0.5074 -0.2185 -0.5750
 3465TIP3   OH231953   6.508   0.228   6.873 -0.1149  0.3366 -0.3981
 3465TIP3    H131954   6.558   0.158   6.831  0.4481  0.9007 -0.7022
 3465TIP3    H231955   6.497   0.293   6.804 -1.3685  0.1794 -0.3531
 3466TIP3   OH231956   0.624   4.570   7.480  0.3720 -0.6953 -0.0405
 3466TIP3    H131957   0.645   4.649   7.531 -1.7414  1.0909 -1.7154
 3466TIP3    H231958   0.700   4.558   7.422  0.2453  0.9007 -0.5927
 3467TIP3   OH231959   2.702   0.360   1.859 -0.2479  0.6768 -0.0450
 3467TIP3    H131960   2.675   0.301   1.929  1.2995 -0.4490 -0.3606
 3467TIP3    H231961   2.751   0.430   1.903  1.3183 -0.3878 -0.0190
 3468TIP3   OH231962   3.232   1.154   8.419 -0.3937 -0.7287  0.2723
 3468TIP3    H131963   3.248   1.218   8.488 -2.8145 -0.5811  0.7796
 3468TIP3    H231964   3.278   1.075   8.449  0.7401  0.0678  0.7410
 3469TIP3   OH231965   2.472   5.179   0.196 -0.0855 -0.3180  0.4872
 3469TIP3    H131966   2.440   5.170   0.285  0.9433  0.3084  0.9355
 3469TIP3    H231967   2.551   5.124   0.193  0.2049  0.1094  0.1387
 3470TIP3   OH231968   5.868   1.487   7.151  0.0070  0.1764  0.6317
 3470TIP3    H131969   5.862   1.395   7.176  1.9298 -0.1391  0.0889
 3470TIP3    H231970   5.959   1.512   7.170 -0.3225  1.8011  0.2443
 3471TIP3   OH231971   3.192   4.072   8.671 -0.1223  0.1210  0.1184
 3471TIP3    H131972   3.235   4.063   8.756  0.6200  1.7334 -0.0549
 3471TIP3    H231973   3.210   4.162   8.644 -1.8289  0.1806 -0.9526
 3472TIP3   OH231974   0.449   3.660   2.164  0.0461  0.1575 -0.5243
 3472TIP3    H131975   0.513   3.623   2.103  1.3060  0.1174  0.7626
 3472TIP3    H231976   0.448   3.753   2.144  1.0984  0.2829 -0.0731
 3473TIP3   OH231977   3.941   4.699   2.774 -0.8699  0.1536  0.1823
 3473TIP3    H131978   3.853   4.664   2.759 -2.0529  2.2016  1.7505
 3473TIP3    H231979   3.946   4.774   2.716  0.3158 -0.5823 -0.6984
 3474TIP3   OH231980   0.070   5.520   0.267  1.0390 -0.2255 -0.1874
 3474TIP3    H131981   0.161   5.495   0.282  1.0366  0.1385  0.4867
 3474TIP3    H231982   0.031   5.520   0.355  0.2297 -0.9819 -0.5315
 3475TIP3   OH231983   3.483   3.421   8.296  0.1787 -0.3470 -0.6540
 3475TIP3    H131984   3.434   3.456   8.370  1.4048 -0.3533  0.1882
 3475TIP3    H231985   3.416   3.401   8.230 -0.7719  1.5012 -0.3306
 3476TIP3   OH231986   4.277   1.019   0.836  0.2021 -0.0899 -0.2449
 3476TIP3    H131987   4.284   0.931   0.798  0.3858  0.5027 -1.6536
 3476TIP3    H231988   4.368   1.047   0.850  0.4303  1.4379 -3.7164
 3477TIP3   OH231989   6.338   6.838   7.458  0.3993  0.1732 -0.1871
 3477TIP3    H131990   6.303   6.754   7.486 -0.7522  0.4547 -0.7316
 3477TIP3    H231991   6.330   6.894   7.534  0.5351 -0.0171 -0.0302
 3478TIP3   OH231992   3.037   4.937   0.130  0.4577 -0.0444 -0.0291
 3478TIP3    H131993   3.018   4.860   0.183 -0.7508  0.5105  0.3871
 3478TIP3    H231994   3.118   4.972   0.167  0.4931 -0.5639  0.3993
 3479TIP3   OH231995   2.755   3.469   7.210  0.0791  0.5442  0.1431
 3479TIP3    H131996   2.797   3.417   7.279  1.4820  2.0700  0.4907
 3479TIP3    H231997   2.662   3.444   7.215  0.4466 -0.7465  1.3238
 3480TIP3   OH231998   5.458   1.288   1.738 -0.0226  0.7211 -0.6098
 3480TIP3    H131999   5.370   1.280   1.703 -0.4981 -0.4257  0.7416
 3480TIP3    H232000   5.482   1.380   1.725 -1.2162  0.9288 -1.4267
 3481TIP3   OH232001   1.427   1.958   1.168 -0.1476 -0.7932  0.3055
 3481TIP3    H132002   1.509   1.910   1.158 -0.4020 -0.9473 -1.2570
 3481TIP3    H232003   1.455   2.047   1.191  0.6445 -0.1925 -2.6040
 3482TIP3   OH232004   2.218   1.700   8.708 -0.4802 -0.3400  0.1634
 3482TIP3    H132005   2.206   1.767   8.640 -3.2971 -1.8532 -1.0002
 3482TIP3    H232006   2.297   1.653   8.682  1.6834  2.5020  1.1096
 3483TIP3   OH232007   1.893   1.648   8.519 -0.2475 -0.2005  0.0715
 3483TIP3    H132008   1.892   1.741   8.543  1.7196 -0.0348 -0.3528
 3483TIP3    H232009   1.985   1.628   8.503 -0.5132 -2.4983  1.0834
 3484TIP3   OH232010   2.870   0.112   8.015  0.4391  0.2243  0.1572
 3484TIP3    H132011   2.915   0.034   8.050  1.2819  0.6372  0.0232
 3484TIP3    H232012   2.804   0.133   8.081  0.0176 -0.7598  0.0694
 3485TIP3   OH232013   5.759   5.595   7.102 -0.0259 -0.0094  0.0248
 3485TIP3    H132014   5.729   5.530   7.165 -0.6155  0.6106  0.4002
 3485TIP3    H232015   5.831   5.552   7.055  1.0092 -0.1739  1.6877
 3486TIP3   OH232016   6.407   1.351   7.611  0.1833  0.1087 -0.5407
 3486TIP3    H132017   6.391   1.362   7.705 -3.1326 -1.3643 -0.7867
 3486TIP3    H232018   6.418   1.440   7.578  3.0774  0.6108  1.3440
 3487TIP3   OH232019   0.698   0.243   7.702  0.1991 -0.2362 -0.3107
 3487TIP3    H132020   0.781   0.196   7.686 -0.2206 -1.4247  0.7583
 3487TIP3    H232021   0.683   0.294   7.623  0.2593 -2.6055 -1.9475
 3488TIP3   OH232022   0.585   5.381   7.457  0.3783 -0.2886 -0.5674
 3488TIP3    H132023   0.527   5.454   7.435  0.0291 -0.5939 -0.6780
 3488TIP3    H232024   0.571   5.367   7.551 -0.0855 -0.6626 -0.6855
 3489TIP3   OH232025   5.334   2.869   1.702 -0.9350 -0.1412  0.7454
 3489TIP3    H132026   5.317   2.822   1.620  0.1194  0.6340  0.0493
 3489TIP3    H232027   5.250   2.869   1.748 -1.3818 -1.1576 -0.0375
 3490TIP3   OH232028   2.879   0.261   1.397 -0.4069  0.3411 -0.1299
 3490TIP3    H132029   2.892   0.322   1.469  0.4845 -0.8973  0.7910
 3490TIP3    H232030   2.956   0.204   1.399  0.6846  1.4508 -3.2956
 3491TIP3   OH232031   5.850   2.649   1.825  0.4097  0.0629  0.3789
 3491TIP3    H132032   5.942   2.674   1.826  0.6566 -0.8051  0.0861
 3491TIP3    H232033   5.824   2.646   1.917  0.3023  1.5888  0.4268
 3492TIP3   OH232034   5.523   3.388   0.717  0.2169  0.0022  0.8119
 3492TIP3    H132035   5.529   3.473   0.672 -0.5327 -0.7166 -0.7509
 3492TIP3    H232036   5.434   3.386   0.752  0.0769 -0.3125  0.4473
 3493TIP3   OH232037   1.170   0.237   0.943 -0.5634  0.2420 -0.0978
 3493TIP3    H132038   1.133   0.179   0.877 -0.1297 -0.3920  0.2062
 3493TIP3    H232039   1.171   0.323   0.902  0.1337 -0.2211 -1.0894
 3494TIP3   OH232040   5.678   5.641   0.401  0.4510 -0.4850  0.0071
 3494TIP3    H132041   5.585   5.653   0.421  0.5688  1.4100 -0.4009
 3494TIP3    H232042   5.723   5.665   0.483  0.6351  0.6627 -0.4035
 3495TIP3   OH232043   2.569   5.263   6.862  0.0615 -0.4649  0.0800
 3495TIP3    H132044   2.624   5.264   6.940 -0.4469 -2.1894  0.5003
 3495TIP3    H232045   2.629   5.275   6.789  0.5641  1.0121  0.7009
 3496TIP3   OH232046   0.484   2.400   1.187 -0.1344  0.0860  0.1989
 3496TIP3    H132047   0.522   2.487   1.201  2.2450 -0.3534 -2.5254
 3496TIP3    H232048   0.390   2.416   1.175  0.4410  2.5864 -1.8942
 3497TIP3   OH232049   1.950   3.669   1.611 -0.1010 -0.6523 -0.4100
 3497TIP3    H132050   1.992   3.724   1.545  0.4886 -0.0935  0.4089
 3497TIP3    H232051   1.869   3.716   1.633  0.3266 -0.1808  0.1777
 3498TIP3   OH232052   0.518   1.397   7.343  0.9492 -0.0383 -0.2110
 3498TIP3    H132053   0.465   1.444   7.280  0.0276 -0.3527  0.3131
 3498TIP3    H232054   0.608   1.421   7.322  0.7600 -0.9869 -2.3495
 3499TIP3   OH232055   4.383   4.306   0.902 -0.5390  0.0336  0.4599
 3499TIP3    H132056   4.398   4.398   0.924 -0.6419  0.0954  0.2725
 3499TIP3    H232057   4.369   4.306   0.808  0.0713 -0.2506  0.3608
 3500TIP3   OH232058   3.194   2.669   1.364  0.3274  0.2893  0.5966
 3500TIP3    H132059   3.110   2.643   1.402 -0.1962  0.5509 -0.3399
 3500TIP3    H232060   3.198   2.623   1.280  1.1455  0.2358  0.6603
 3501TIP3   OH232061   4.385   1.605   8.139  0.1117  0.2268  0.3503
 3501TIP3    H132062   4.412   1.616   8.047 -1.2315 -0.8185 -0.1998
 3501TIP3    H232063   4.456   1.554   8.178 -0.2081 -1.0068 -0.6173
 3502TIP3   OH232064   4.002   6.686   6.891  0.2780 -0.0084  0.2552
 3502TIP3    H132065   3.908   6.698   6.879  0.6027  3.7294  0.2612
 3502TIP3    H232066   4.028   6.629   6.818 -2.0208 -2.0583  0.8725
 3503TIP3   OH232067   2.425   6.350   8.712 -0.0384 -0.0175  0.2159
 3503TIP3    H132068   2.434   6.418   8.779  1.4218  1.1827 -1.1425
 3503TIP3    H232069   2.511   6.309   8.708 -0.1280 -0.1299 -0.8624
 3504TIP3   OH232070   6.773   4.870   7.700  0.2906 -0.0015  0.3767
 3504TIP3    H132071   6.824   4.931   7.646 -0.1236  0.4627  0.4981
 3504TIP3    H232072   6.832   4.798   7.717  1.0686  0.7541  0.9341
 3505TIP3   OH232073   0.709   6.030   0.886  0.3418  0.6611  0.3457
 3505TIP3    H132074   0.772   6.067   0.948  0.4663  0.4690  0.3359
 3505TIP3    H232075   0.624   6.060   0.917  0.5477  2.2380 -0.5377
 3506TIP3   OH232076   4.587   0.349   1.622  0.7979 -0.2160  0.3713
 3506TIP3    H132077   4.617   0.383   1.538  0.1746  1.0328  0.6236
 3506TIP3    H232078   4.526   0.416   1.654  1.2554 -0.5203  1.9542
 3507TIP3   OH232079   1.064   0.697   8.509  1.0408  0.1899 -0.8137
 3507TIP3    H132080   1.139   0.666   8.561  1.1266  0.0656 -1.0116
 3507TIP3    H232081   0.995   0.633   8.526  0.6166  0.9017  0.2422
 3508TIP3   OH232082   4.558   3.325   7.943 -0.2086  0.4355  0.2822
 3508TIP3    H132083   4.537   3.243   7.989  1.8419 -0.6181 -0.4892
 3508TIP3    H232084   4.553   3.392   8.011 -0.5588 -0.5635  1.2858
 3509TIP3   OH232085   1.319   5.847   0.168  0.2843 -0.3176  0.0548
 3509TIP3    H132086   1.265   5.816   0.096 -0.3190  3.7383 -1.5069
 3509TIP3    H232087   1.261   5.846   0.244 -0.8138  0.2871 -0.7445
 3510TIP3   OH232088   0.281   5.610   1.323  0.2712  0.4843 -0.6196
 3510TIP3    H132089   0.283   5.686   1.381  0.4793  0.8771 -1.1386
 3510TIP3    H232090   0.371   5.578   1.322  0.1559  0.1361 -0.2861
 3511TIP3   OH232091   6.705   4.829   0.191  0.4155  0.4607 -1.0220
 3511TIP3    H132092   6.789   4.873   0.207  0.3549  0.6455 -1.2089
 3511TIP3    H232093   6.648   4.859   0.261  0.8750 -0.6534 -0.1470
 3512TIP3   OH232094   6.599   3.957   1.788 -0.1753 -0.6906  0.2220
 3512TIP3    H132095   6.608   4.012   1.866 -2.7469 -0.0920  0.1863
 3512TIP3    H232096   6.527   3.996   1.739 -0.8735 -2.9987 -0.7523
 3513TIP3   OH232097   5.776   3.071   7.944  0.0128  0.4307 -0.1970
 3513TIP3    H132098   5.788   3.165   7.957  2.5537  0.2954 -1.0460
 3513TIP3    H232099   5.682   3.061   7.931 -0.6281  2.5350  2.0100
 3514TIP3   OH232100   6.797   3.695   8.611 -0.2013  1.0113 -0.2746
 3514TIP3    H132101   6.797   3.687   8.516 -0.3477  0.2862 -0.2263
 3514TIP3    H232102   6.756   3.614   8.642 -0.9222  1.6086  0.3782
 3515TIP3   OH232103   5.721   2.908   2.103  0.2966  0.1632 -0.3029
 3515TIP3    H132104   5.760   2.821   2.112  0.2727 -0.0046 -1.6237
 3515TIP3    H232105   5.639   2.903   2.152  1.1516  0.0334  1.1848
 3516TIP3   OH232106   2.710   3.660   1.730 -0.1996  0.4252 -0.1224
 3516TIP3    H132107   2.665   3.704   1.657  0.0203 -1.5692 -1.5534
 3516TIP3    H232108   2.641   3.642   1.793 -1.3629 -1.7752 -1.8788
 3517TIP3   OH232109   0.664   0.475   7.873  0.2188 -0.0027 -0.2678
 3517TIP3    H132110   0.662   0.384   7.844  0.5472  0.0001 -0.3025
 3517TIP3    H232111   0.610   0.522   7.810  1.0894  0.0346 -1.0056
 3518TIP3   OH232112   1.537   3.420   1.487  0.6107 -0.5105  0.4386
 3518TIP3    H132113   1.573   3.349   1.433 -0.8504 -0.8491 -0.1236
 3518TIP3    H232114   1.593   3.495   1.466  2.0111 -1.4053  0.8401
 3519TIP3   OH232115   4.456   5.882   0.863 -0.3163  0.1402  0.7038
 3519TIP3    H132116   4.392   5.951   0.881 -0.6534  0.2842 -0.9004
 3519TIP3    H232117   4.495   5.863   0.948 -2.9401 -0.4080  1.9006
 3520TIP3   OH232118   1.363   2.826   6.874  0.8544  0.2376 -0.4867
 3520TIP3    H132119   1.366   2.809   6.779 -0.2982 -0.2673 -0.4516
 3520TIP3    H232120   1.383   2.742   6.914  0.1023  0.1496 -0.2899
 3521TIP3   OH232121   1.344   3.650   0.025  0.7620 -0.8366  0.0037
 3521TIP3    H132122   1.428   3.618   0.057  0.6324 -1.7208 -0.5188
 3521TIP3    H232123   1.300   3.683   0.103  1.7804  0.1028  0.2158
 3522TIP3   OH232124   2.952   3.557   6.868 -0.4978 -0.6313 -0.5129
 3522TIP3    H132125   2.917   3.474   6.900  1.2599 -1.1297  0.2267
 3522TIP3    H232126   2.953   3.547   6.773 -1.6871 -0.8425 -0.5282
 3523TIP3   OH232127   4.536   1.852   0.112 -0.2811  0.6769  0.0146
 3523TIP3    H132128   4.533   1.822   0.203  2.3929  1.2267  0.3510
 3523TIP3    H232129   4.521   1.947   0.118 -0.9475  0.5958 -0.2416
 3524TIP3   OH232130   2.028   6.425   7.756 -0.4453  0.5037 -0.4203
 3524TIP3    H132131   1.946   6.380   7.735  0.5676 -1.3630 -0.5945
 3524TIP3    H232132   2.009   6.471   7.838 -1.2603 -1.1205  0.3665
 3525TIP3   OH232133   3.817   3.013   7.263  0.1535 -0.1335 -0.1605
 3525TIP3    H132134   3.783   2.985   7.348  0.1517  0.6580  0.1063
 3525TIP3    H232135   3.887   3.074   7.285 -0.1748  0.4565 -0.7222
 3526TIP3   OH232136   2.262   2.622   0.544  0.2381  0.4169  0.3323
 3526TIP3    H132137   2.325   2.673   0.595  1.5064 -0.0605 -0.6859
 3526TIP3    H232138   2.277   2.650   0.454  1.9023 -2.5942 -0.4512
 3527TIP3   OH232139   2.721   5.749   8.519  0.1301  0.3181 -0.2442
 3527TIP3    H132140   2.681   5.819   8.467  0.6631 -0.9257 -2.4669
 3527TIP3    H232141   2.652   5.682   8.525  0.5355 -0.1359 -0.5964
 3528TIP3   OH232142   5.009   6.179   0.432 -0.1686  0.1957  0.1796
 3528TIP3    H132143   5.034   6.089   0.451 -0.0906  0.0597 -0.5299
 3528TIP3    H232144   4.947   6.172   0.359  0.4609  0.7560 -0.4315
 3529TIP3   OH232145   4.528   4.259   1.936  0.0537  0.3998  0.7245
 3529TIP3    H132146   4.551   4.343   1.976  2.7551  0.1575 -0.1044
 3529TIP3    H232147   4.550   4.271   1.843  0.8770 -1.3350  0.6696
 3530TIP3   OH232148   1.414   6.490   0.775 -0.0710 -0.1671 -0.4222
 3530TIP3    H132149   1.405   6.396   0.760 -3.0169 -0.0743  0.0907
 3530TIP3    H232150   1.328   6.517   0.809  0.8142  2.6408 -0.1575
 3531TIP3   OH232151   1.465   5.946   7.731 -0.3081 -0.2426 -0.0345
 3531TIP3    H132152   1.510   5.864   7.713  0.6226 -0.2141  1.9034
 3531TIP3    H232153   1.372   5.926   7.718  0.0098 -1.1775 -1.0012
 3532TIP3   OH232154   2.252   0.636   2.305  0.0145  0.2268  0.5121
 3532TIP3    H132155   2.322   0.697   2.328  1.5848 -1.3310  0.1544
 3532TIP3    H232156   2.173   0.675   2.340  1.3260  1.1983  2.5888
 3533TIP3   OH232157   1.638   4.333   7.260  0.2774 -0.0542 -0.4973
 3533TIP3    H132158   1.662   4.327   7.352 -1.2375 -1.4644 -0.1254
 3533TIP3    H232159   1.672   4.417   7.230  1.5960  0.0120  1.0902
 3534TIP3   OH232160   5.332   4.959   0.088 -0.2716  0.3469  0.4800
 3534TIP3    H132161   5.413   4.974   0.039 -0.4421 -0.5015 -0.0859
 3534TIP3    H232162   5.362   4.923   0.172 -0.0524  0.1726  0.3291
 3535TIP3   OH232163   0.595   2.014   6.535  0.0352  0.4215 -0.0729
 3535TIP3    H132164   0.617   1.924   6.513  1.6255  1.1523 -1.7181
 3535TIP3    H232165   0.679   2.054   6.558 -0.2804  2.0325 -1.5338
 3536TIP3   OH232166   3.913   0.663   8.625 -0.3156  0.1231  0.6104
 3536TIP3    H132167   3.977   0.732   8.645 -0.0738  0.4851 -1.2351
 3536TIP3    H232168   3.924   0.646   8.531  0.1762 -3.0055  1.1206
 3537TIP3   OH232169   4.398   3.377   1.497 -0.0172  0.0038  0.6659
 3537TIP3    H132170   4.393   3.409   1.587 -0.3870 -1.2311  1.1203
 3537TIP3    H232171   4.307   3.366   1.471  0.0842  0.6452  0.0175
 3538TIP3   OH232172   1.984   3.975   0.206 -0.1216 -0.2485 -0.2844
 3538TIP3    H132173   1.914   3.965   0.141 -0.7163 -1.3998  0.5125
 3538TIP3    H232174   1.939   3.974   0.290  0.3908  3.2638  0.1918
 3539TIP3   OH232175   5.392   6.051   1.139  0.1833  0.4729  0.2501
 3539TIP3    H132176   5.428   6.111   1.205  0.1150  1.0314 -0.2027
 3539TIP3    H232177   5.367   6.109   1.067 -2.1168  0.1752  0.7285
 3540TIP3   OH232178   5.872   4.595   2.535  0.0698 -0.5662  0.0515
 3540TIP3    H132179   5.814   4.665   2.505 -0.0995 -0.5989  0.2916
 3540TIP3    H232180   5.952   4.640   2.561  0.0377 -0.4840  0.0090
 3541TIP3   OH232181   4.837   4.475   1.817 -0.2600 -0.1459 -0.1644
 3541TIP3    H132182   4.878   4.548   1.863 -0.0767 -1.2053  1.4231
 3541TIP3    H232183   4.829   4.506   1.727  1.8393  1.0101 -0.0299
 3542TIP3   OH232184   3.353   4.985   6.592  0.2073 -0.0721 -0.0908
 3542TIP3    H132185   3.400   4.958   6.513 -0.6663 -0.8067 -0.3747
 3542TIP3    H232186   3.340   4.904   6.642  0.3341  0.3129  0.5852
 3543TIP3   OH232187   6.376   3.526   6.592 -0.6765  0.0991 -1.1189
 3543TIP3    H132188   6.432   3.502   6.666 -1.6394  1.4370  0.0817
 3543TIP3    H232189   6.370   3.445   6.540  0.0665 -0.8537  0.2156
 3544TIP3   OH232190   2.814   2.724   0.300 -0.0095  0.2986  0.1578
 3544TIP3    H132191   2.796   2.802   0.354 -1.4046 -0.8336  1.4415
 3544TIP3    H232192   2.741   2.721   0.238 -1.1676 -1.0943  1.5089
 3545TIP3   OH232193   5.417   0.149   1.587  0.2004 -0.3118 -0.1873
 3545TIP3    H132194   5.388   0.085   1.522  0.6605 -0.1014 -0.6066
 3545TIP3    H232195   5.497   0.187   1.549  0.0911  0.2994  0.1902
 3546TIP3   OH232196   4.948   5.124   1.203  0.5749  0.0289 -0.2362
 3546TIP3    H132197   4.959   5.048   1.146 -0.4483  1.1308 -1.9910
 3546TIP3    H232198   5.026   5.178   1.185  0.1569  0.4672 -0.7633
 3547TIP3   OH232199   1.408   1.125   7.712 -0.4130  0.4428 -0.1476
 3547TIP3    H132200   1.318   1.149   7.735 -0.2652  0.5529  0.3407
 3547TIP3    H232201   1.399   1.065   7.638 -0.9436 -0.2721  0.4691
 3548TIP3   OH232202   1.004   6.636   6.546  0.2841  0.2466  0.0675
 3548TIP3    H132203   1.067   6.667   6.481  1.2046  0.9632  1.2596
 3548TIP3    H232204   0.972   6.552   6.512 -1.0274  1.6618 -2.4347
 3549TIP3   OH232205   0.425   4.824   8.204  0.1398 -0.4988 -0.0492
 3549TIP3    H132206   0.422   4.741   8.253 -0.6371 -0.0657  0.6472
 3549TIP3    H232207   0.419   4.892   8.271 -0.3051  0.1132 -0.7031
 3550TIP3   OH232208   0.007   5.019   8.205 -0.4307  0.1370  0.3554
 3550TIP3    H132209   0.008   4.980   8.118 -1.1423  0.0402  0.3896
 3550TIP3    H232210   0.090   4.990   8.244  1.3780  2.6184 -1.3271
 3551TIP3   OH232211   2.383   0.677   0.727  0.4129 -0.0142  0.6038
 3551TIP3    H132212   2.348   0.589   0.743  0.6285 -0.0317  0.9997
 3551TIP3    H232213   2.399   0.712   0.815  2.4879 -0.4465  0.4538
 3552TIP3   OH232214   5.381   6.391   0.087 -0.2949  0.2178  0.0048
 3552TIP3    H132215   5.338   6.345   0.159 -1.0504  0.4185 -0.3035
 3552TIP3    H232216   5.474   6.374   0.099 -0.5666 -1.6783 -0.3001
 3553TIP3   OH232217   3.892   3.312   0.390  0.3836 -0.5549  0.8802
 3553TIP3    H132218   3.797   3.302   0.396  0.1176 -0.0150 -1.5949
 3553TIP3    H232219   3.927   3.225   0.411 -0.6373 -0.8293  1.5348
 3554TIP3   OH232220   4.350   6.276   2.345  0.1822 -0.4630  0.2364
 3554TIP3    H132221   4.379   6.218   2.274  0.1498  0.3221 -0.4263
 3554TIP3    H232222   4.270   6.235   2.378 -0.3064 -0.3478 -0.7869
 3555TIP3   OH232223   0.260   0.584   0.560 -0.3940  0.6251  0.5563
 3555TIP3    H132224   0.338   0.570   0.507 -1.4804 -0.8512 -0.7104
 3555TIP3    H232225   0.228   0.496   0.580 -1.5699  1.1989  1.2989
 3556TIP3   OH232226   1.871   3.910   2.046 -0.6202 -0.4925  0.1681
 3556TIP3    H132227   1.871   3.826   2.092  1.4651 -1.8318 -2.0482
 3556TIP3    H232228   1.918   3.970   2.104 -0.6266 -1.2965  1.0294
 3557TIP3   OH232229   4.938   6.820   0.948 -0.5158  0.2527 -0.2215
 3557TIP3    H132230   5.023   6.860   0.962 -0.6893  0.0973  1.4425
 3557TIP3    H232231   4.952   6.758   0.876  0.4987  0.9888 -0.6851
 3558TIP3   OH232232   2.852   1.082   6.550  0.0898  0.0560  0.1128
 3558TIP3    H132233   2.915   1.013   6.529  0.7003  1.1509 -1.9375
 3558TIP3    H232234   2.770   1.036   6.564  0.1402 -1.0759 -2.6767
 3559TIP3   OH232235   6.252   4.170   7.180 -0.1565 -0.0269  0.3456
 3559TIP3    H132236   6.200   4.141   7.104  0.3688  0.3644 -0.1657
 3559TIP3    H232237   6.220   4.115   7.252  0.1343 -1.2035 -0.3951
 3560TIP3   OH232238   1.583   4.126   6.602 -0.0825  0.6261 -0.2988
 3560TIP3    H132239   1.636   4.049   6.581 -2.2189 -0.6780 -1.2407
 3560TIP3    H232240   1.629   4.199   6.562  1.4848 -0.3026 -0.2590
 3561TIP3   OH232241   5.161   5.519   2.253 -0.1389 -0.1708 -0.3840
 3561TIP3    H132242   5.117   5.483   2.330  1.2002 -0.2010  0.3991
 3561TIP3    H232243   5.227   5.454   2.231 -0.3879 -0.0700 -1.4695
 3562TIP3   OH232244   0.907   2.023   1.252 -0.4312 -0.1942 -0.3288
 3562TIP3    H132245   0.883   2.107   1.213  0.2759  0.9205  1.4465
 3562TIP3    H232246   0.829   1.996   1.300  0.1685  0.9178  1.3781
 3563TIP3   OH232247   1.638   2.177   1.442  0.3544  0.3032 -0.4562
 3563TIP3    H132248   1.630   2.164   1.348  0.4052  0.7597 -0.5253
 3563TIP3    H232249   1.608   2.267   1.457  0.1920  0.1808 -0.0163
 3564TIP3   OH232250   1.810   0.974   0.000 -0.0149 -0.1799 -0.3582
 3564TIP3    H132251   1.746   0.970  -0.071  0.6634 -0.5621 -0.9667
 3564TIP3    H232252   1.773   1.036   0.063 -1.5987 -1.3828 -0.0613
 3565TIP3   OH232253   4.829   0.766   0.315 -0.0330  0.5177 -0.3746
 3565TIP3    H132254   4.797   0.817   0.241 -0.3821  1.6179  0.4931
 3565TIP3    H232255   4.908   0.812   0.343  0.4493 -0.2558 -0.4477
 3566TIP3   OH232256   3.949   2.037   7.461  0.0485 -0.4018 -0.0410
 3566TIP3    H132257   3.992   2.120   7.485 -0.9162  0.4557 -1.1255
 3566TIP3    H232258   4.009   1.997   7.398  0.5712 -0.5904  0.5684
 3567TIP3   OH232259   5.815   6.612   8.196 -0.4316  0.1505  0.0381
 3567TIP3    H132260   5.795   6.544   8.132 -2.3068  1.9960 -1.5018
 3567TIP3    H232261   5.757   6.593   8.270 -0.7053 -0.1288 -0.2428
 3568TIP3   OH232262   3.449   5.993   7.582 -0.0708  0.1602 -0.3800
 3568TIP3    H132263   3.455   6.089   7.587 -1.1462  0.2990 -1.3372
 3568TIP3    H232264   3.415   5.976   7.494 -0.8414 -1.0543  0.1302
 3569TIP3   OH232265   4.695   1.606   2.015  0.2188 -0.0526 -0.4151
 3569TIP3    H132266   4.613   1.559   2.029 -0.1079  0.7340  0.3732
 3569TIP3    H232267   4.668   1.696   1.994  0.8882  0.3698  0.4889
 3570TIP3   OH232268   4.747   3.613   1.920 -0.1457  0.2228 -0.1383
 3570TIP3    H132269   4.840   3.624   1.942 -0.3641  2.4274 -0.1557
 3570TIP3    H232270   4.729   3.683   1.857 -2.2006  0.8381  1.0517
 3571TIP3   OH232271   5.325   4.118   1.050  0.0246  0.3800 -0.1809
 3571TIP3    H132272   5.362   4.168   1.122 -0.2514 -0.6039  0.6625
 3571TIP3    H232273   5.252   4.171   1.018  1.0876  1.5520 -0.7816
 3572TIP3   OH232274   4.991   1.001   1.038  0.1621  0.7754 -0.4220
 3572TIP3    H132275   4.998   1.089   1.075 -1.6013  1.1569 -0.8783
 3572TIP3    H232276   5.058   0.999   0.969 -0.4473  2.1486 -1.0966
 3573TIP3   OH232277   6.785   3.026   7.004 -0.4276 -0.1051  0.3884
 3573TIP3    H132278   6.762   3.065   7.088  1.9173  1.6016  0.3618
 3573TIP3    H232279   6.713   3.049   6.946  0.0055  2.8184  0.8417
 3574TIP3   OH232280   2.578   0.246   7.277 -0.4812  0.2106 -0.0818
 3574TIP3    H132281   2.567   0.191   7.355 -0.8873 -0.5597 -0.6653
 3574TIP3    H232282   2.622   0.324   7.309 -1.6008  0.3906  1.1275
 3575TIP3   OH232283   2.920   0.065   2.063 -0.6498  0.2418  0.1515
 3575TIP3    H132284   2.833   0.102   2.044 -0.8956 -1.5577 -2.7688
 3575TIP3    H232285   2.905   0.008   2.138 -1.4094  1.7722  1.2284
 3576TIP3   OH232286   6.849   2.490   1.883 -0.1704  0.1035 -0.0293
 3576TIP3    H132287   6.829   2.502   1.791  0.4831 -0.1753 -0.2112
 3576TIP3    H232288   6.907   2.563   1.906  0.2216 -0.2075 -0.0167
 3577TIP3   OH232289   2.266   6.356   7.982 -0.0881 -0.4273 -0.0718
 3577TIP3    H132290   2.249   6.265   8.006  2.0741 -0.6928  0.7339
 3577TIP3    H232291   2.220   6.407   8.047 -0.6228 -0.9637 -0.0192
 3578TIP3   OH232292   4.825   1.651   1.540  0.7356  0.0455  0.1155
 3578TIP3    H132293   4.837   1.598   1.618 -0.2839  0.9210  0.9025
 3578TIP3    H232294   4.772   1.596   1.481  0.1066 -0.0180  0.7209
 3579TIP3   OH232295   0.807   1.909   7.264 -0.2486  0.4274  0.2667
 3579TIP3    H132296   0.725   1.860   7.254 -0.5841  1.0228  0.0669
 3579TIP3    H232297   0.869   1.863   7.208 -0.5452  0.2046  0.1185
 3580TIP3   OH232298   6.005   3.320   7.137 -0.3484  0.0879  0.2431
 3580TIP3    H132299   6.042   3.245   7.183 -0.5825 -0.1798 -0.0000
 3580TIP3    H232300   6.016   3.300   7.044 -1.6896 -0.3161  0.1435
 3581TIP3   OH232301   0.453   2.659   7.345 -0.5466 -0.0565  0.9461
 3581TIP3    H132302   0.546   2.661   7.322 -0.5051 -0.0717  1.1109
 3581TIP3    H232303   0.413   2.723   7.286 -0.6814 -1.1210 -0.1685
 3582TIP3   OH232304   6.802   1.974   0.324  0.1758  0.1123 -0.1485
 3582TIP3    H132305   6.712   1.951   0.347  0.3915  0.3731  1.0300
 3582TIP3    H232306   6.794   2.047   0.263 -0.4055 -0.0120 -0.2244
 3583TIP3   OH232307   2.836   6.006   8.235 -1.1203  0.0119 -0.5028
 3583TIP3    H132308   2.921   6.044   8.213 -1.6708  1.2550 -0.5596
 3583TIP3    H232309   2.843   5.914   8.211 -0.5280  0.5637 -2.5935
 3584TIP3   OH232310   2.169   1.890   8.499  0.4112 -0.2797 -0.0523
 3584TIP3    H132311   2.109   1.903   8.573  1.9802  0.0445  1.2377
 3584TIP3    H232312   2.129   1.937   8.427 -1.6251 -1.3448  0.3137
 3585TIP3   OH232313   2.194   3.044   1.287  0.7911  0.0217 -0.2481
 3585TIP3    H132314   2.253   3.068   1.359  1.3689  0.9299 -1.0000
 3585TIP3    H232315   2.244   3.063   1.208  0.4006 -1.5403 -0.9146
 3586TIP3   OH232316   2.454   3.841   7.431  0.0518 -0.2393 -0.7132
 3586TIP3    H132317   2.471   3.819   7.340  0.4490  0.4018 -0.8037
 3586TIP3    H232318   2.528   3.898   7.456 -0.9116  0.9442 -0.4858
 3587TIP3   OH232319   4.770   4.842   8.720 -0.1505  0.5039 -0.2579
 3587TIP3    H132320   4.806   4.781   8.656  0.7437 -0.0405  0.7469
 3587TIP3    H232321   4.830   4.917   8.718 -0.8692  1.0910 -0.9953
 3588TIP3   OH232322   5.781   1.047   0.562 -0.1087  0.0230  0.1686
 3588TIP3    H132323   5.825   0.969   0.529  0.7752  0.9383 -0.8876
 3588TIP3    H232324   5.717   1.069   0.494 -0.3471  0.2312  0.4567
 3589TIP3   OH232325   4.276   6.410   0.545  0.4234 -0.2515 -0.0727
 3589TIP3    H132326   4.276   6.497   0.505  1.2567 -0.5007 -0.6427
 3589TIP3    H232327   4.311   6.424   0.633  0.3084  0.0306 -0.0713
 3590TIP3   OH232328   1.128   2.786   1.302 -0.6922  0.0563  0.0428
 3590TIP3    H132329   1.137   2.829   1.217 -1.4555 -1.3094 -0.7662
 3590TIP3    H232330   1.156   2.696   1.287 -2.9990 -0.8357  0.6261
 3591TIP3   OH232331   2.419   0.129   1.372 -0.6159  0.2120  0.0299
 3591TIP3    H132332   2.493   0.123   1.312 -0.3997 -0.3070  0.3373
 3591TIP3    H232333   2.454   0.172   1.450 -0.0127 -2.0121  1.0741
 3592TIP3   OH232334   3.020   2.902   1.078 -0.2319 -0.4837 -0.8555
 3592TIP3    H132335   3.103   2.925   1.036  0.2772  0.8979  0.7948
 3592TIP3    H232336   3.039   2.903   1.172 -1.3973 -3.1746 -0.5019
 3593TIP3   OH232337   1.141   4.307   8.664 -0.3705  0.1352  0.3155
 3593TIP3    H132338   1.219   4.350   8.699 -0.5630 -0.0014  0.9078
 3593TIP3    H232339   1.134   4.226   8.713  0.2981 -0.8561 -1.1515
 3594TIP3   OH232340   5.910   0.144   1.352 -0.1647  0.0233  0.6204
 3594TIP3    H132341   5.883   0.058   1.383 -0.0532  0.3234  1.5583
 3594TIP3    H232342   5.935   0.192   1.431 -0.0228  0.8473  0.0876
 3595TIP3   OH232343   1.889   5.777   8.132  0.1114  0.0442 -0.5421
 3595TIP3    H132344   1.956   5.823   8.081 -0.3870  1.8567  0.3413
 3595TIP3    H232345   1.875   5.833   8.208 -1.4296 -0.9911 -0.0235
 3596TIP3   OH232346   5.806   3.165   1.139 -1.1186  0.3427 -0.0617
 3596TIP3    H132347   5.735   3.161   1.075 -0.7558 -0.7165 -0.4232
 3596TIP3    H232348   5.801   3.082   1.186 -0.0532  0.1973 -0.1818
 3597TIP3   OH232349   1.453   4.443   8.698 -0.0597  0.0705 -0.1194
 3597TIP3    H132350   1.541   4.480   8.697 -1.2553  3.1753 -0.9259
 3597TIP3    H232351   1.442   4.406   8.610  0.7441 -1.3899  0.3406
 3598TIP3   OH232352   5.742   1.137   7.672 -0.2666  0.3912 -0.5061
 3598TIP3    H132353   5.824   1.169   7.634 -0.0670  1.9433  1.0714
 3598TIP3    H232354   5.735   1.185   7.755 -1.2386 -1.9732  0.8557
 3599TIP3   OH232355   2.066   4.407   7.032  0.6787  0.0301 -0.7003
 3599TIP3    H132356   1.978   4.389   6.999  0.6355  0.9563 -1.1261
 3599TIP3    H232357   2.054   4.432   7.124  0.7049 -1.6777 -0.2106
 3600TIP3   OH232358   3.866   3.010   0.476  0.3428  0.0094  0.4716
 3600TIP3    H132359   3.847   2.932   0.528  0.7005  1.1556  2.3842
 3600TIP3    H232360   3.781   3.037   0.441  0.1761 -1.0427 -0.0020
 3601TIP3   OH232361   3.806   3.514   0.798  0.3964 -0.1126  0.3598
 3601TIP3    H132362   3.876   3.460   0.763  1.4986  0.6263  1.3380
 3601TIP3    H232363   3.836   3.537   0.886 -0.8434  0.6535  0.6002
 3602TIP3   OH232364   5.360   5.356   0.924 -0.5279  0.2806 -0.3793
 3602TIP3    H132365   5.267   5.375   0.940 -0.3984  1.4096 -0.8445
 3602TIP3    H232366   5.388   5.306   1.001 -1.8513 -1.3367 -0.8735
 3603TIP3   OH232367   2.426   6.107   7.091 -0.7112 -0.1087 -0.0330
 3603TIP3    H132368   2.403   6.173   7.156 -0.2474 -0.7841  0.8485
 3603TIP3    H232369   2.514   6.130   7.063 -0.7425 -0.0691 -0.0997
 3604TIP3   OH232370   1.375   2.741   6.603 -0.1245 -0.1229  0.1700
 3604TIP3    H132371   1.432   2.672   6.571  0.0069  0.4048 -0.7647
 3604TIP3    H232372   1.294   2.696   6.628  0.8013 -0.9387  1.9008
 3605TIP3   OH232373   0.434   0.174   0.392 -0.1812  0.3921  0.2276
 3605TIP3    H132374   0.520   0.158   0.430 -1.1973 -0.5645  2.3634
 3605TIP3    H232375   0.432   0.267   0.373  1.0787  0.5611  0.8363
 3606TIP3   OH232376   6.701   3.212   8.110 -0.3277  0.0182  0.1685
 3606TIP3    H132377   6.685   3.301   8.143 -1.9953 -0.5993  1.1461
 3606TIP3    H232378   6.766   3.176   8.170  0.0834  0.4374 -0.0138
 3607TIP3   OH232379   6.324   4.374   1.261  0.2648  0.3135  0.1959
 3607TIP3    H132380   6.267   4.298   1.274  0.9575 -0.1200  0.7728
 3607TIP3    H232381   6.318   4.392   1.167 -0.8937  0.3458  0.2618
 3608TIP3   OH232382   2.307   6.553   1.243  0.0930  0.1231 -0.3100
 3608TIP3    H132383   2.297   6.625   1.306 -2.5732  1.6854 -2.2749
 3608TIP3    H232384   2.366   6.588   1.177  0.1759 -0.1794 -0.3947
 3609TIP3   OH232385   3.344   2.686   2.371  0.3257  0.5998 -0.2274
 3609TIP3    H132386   3.291   2.753   2.326  0.2042  1.2010  0.7857
 3609TIP3    H232387   3.432   2.724   2.375  0.9563 -0.5095 -2.1485
 3610TIP3   OH232388   1.982   3.579   1.239  0.3670  0.2762 -0.1146
 3610TIP3    H132389   1.976   3.667   1.276 -2.0877 -0.1302  0.6190
 3610TIP3    H232390   1.960   3.590   1.146  0.3090  0.4404 -0.0808
 3611TIP3   OH232391   2.359   6.091   1.842  0.2965  0.1642 -0.2655
 3611TIP3    H132392   2.349   6.111   1.935  0.6173 -1.6021  0.1752
 3611TIP3    H232393   2.452   6.072   1.831  0.4969  1.5118 -1.2266
 3612TIP3   OH232394   2.146   3.918   7.223  0.1305 -0.2851  0.2571
 3612TIP3    H132395   2.209   3.976   7.266  1.3096 -0.8089 -0.7021
 3612TIP3    H232396   2.198   3.867   7.161 -1.2836 -0.5230 -0.8001
 3613TIP3   OH232397   1.403   3.232   6.460 -0.8548 -0.1201  0.1816
 3613TIP3    H132398   1.494   3.211   6.443 -0.7243  0.2807  0.3808
 3613TIP3    H232399   1.358   3.147   6.459 -0.4571 -0.3325  0.2411
 3614TIP3   OH232400   3.268   0.066   0.619  0.4784 -0.0383  0.5730
 3614TIP3    H132401   3.277   0.161   0.631  0.6679  0.0212 -0.0223
 3614TIP3    H232402   3.185   0.056   0.573 -0.1632 -0.2550  1.7426
 3615TIP3   OH232403   1.471   0.166   8.249  0.1464  0.6855 -0.0257
 3615TIP3    H132404   1.389   0.132   8.286  0.7027 -0.2872  0.3520
 3615TIP3    H232405   1.449   0.186   8.158 -0.8176  1.5978  0.3867
 3616TIP3   OH232406   0.941   6.179   8.028 -0.2883  0.5185  0.3329
 3616TIP3    H132407   0.954   6.134   7.945 -0.4258 -1.2244  1.2147
 3616TIP3    H232408   0.846   6.184   8.039 -0.3361 -1.6231  1.5354
 3617TIP3   OH232409   1.989   1.880   1.337  0.4865 -0.0665  0.2692
 3617TIP3    H132410   1.957   1.834   1.416 -0.2898 -1.0110 -0.5649
 3617TIP3    H232411   2.053   1.820   1.300 -0.2095 -0.2990 -0.5890
 3618TIP3   OH232412   6.241   0.201   7.125  0.1349  0.6146  0.1552
 3618TIP3    H132413   6.173   0.136   7.107  2.3671 -1.5656 -0.9156
 3618TIP3    H232414   6.231   0.267   7.056 -2.0742  1.4569  1.1811
 3619TIP3   OH232415   2.694   1.686   1.967 -0.7436 -0.1503  0.1991
 3619TIP3    H132416   2.636   1.748   1.922  0.0352  0.7944  0.4827
 3619TIP3    H232417   2.663   1.684   2.057 -0.8468 -0.2885  0.1626
 3620TIP3   OH232418   3.175   2.549   8.125  0.0712  0.6141 -0.2853
 3620TIP3    H132419   3.111   2.496   8.172  1.0432 -0.1271  0.2197
 3620TIP3    H232420   3.256   2.500   8.130  0.6218  1.3953 -1.1886
 3621TIP3   OH232421   0.406   0.773   0.258 -0.6342  0.1185 -0.2441
 3621TIP3    H132422   0.441   0.851   0.300  1.0591 -0.0591 -1.2476
 3621TIP3    H232423   0.350   0.805   0.188 -0.4917  0.4347 -0.2118
 3622TIP3   OH232424   6.666   1.633   2.578 -0.1580 -0.2638  0.8827
 3622TIP3    H132425   6.652   1.587   2.495  0.2096 -2.1546  1.8271
 3622TIP3    H232426   6.622   1.718   2.566  0.7827 -0.0658 -1.5874
 3623TIP3   OH232427   5.506   4.466   7.522  0.4518  0.4705 -0.1882
 3623TIP3    H132428   5.421   4.489   7.559 -0.4148 -1.1948 -1.0535
 3623TIP3    H232429   5.489   4.452   7.429  1.6370 -0.1259 -0.3344
 3624TIP3   OH232430   1.799   3.729   8.258 -0.2802 -0.4702  0.3659
 3624TIP3    H132431   1.761   3.810   8.293 -1.4537 -0.3292 -1.1504
 3624TIP3    H232432   1.893   3.747   8.253 -0.4656  0.6258  0.5151
 3625TIP3   OH232433   1.385   6.159   0.440  0.3985  0.4890  0.3739
 3625TIP3    H132434   1.295   6.134   0.419  0.2216  2.2984 -1.4487
 3625TIP3    H232435   1.439   6.105   0.383  0.1976  1.7954 -1.1515
 3626TIP3   OH232436   1.855   4.520   0.736  1.0441  0.3404 -0.7655
 3626TIP3    H132437   1.805   4.438   0.728 -0.0471  1.0517 -1.4763
 3626TIP3    H232438   1.939   4.493   0.772  0.0473 -0.8653  0.7801
 3627TIP3   OH232439   6.580   6.281   0.116  0.0963 -0.1633  0.1053
 3627TIP3    H132440   6.545   6.196   0.143 -0.4199  0.1638  0.4873
 3627TIP3    H232441   6.608   6.268   0.026 -1.7398 -0.2409 -0.5048
 3628TIP3   OH232442   5.373   2.166   7.791  0.0080  0.2988  0.1146
 3628TIP3    H132443   5.445   2.112   7.823 -0.0465  0.9702  1.4274
 3628TIP3    H232444   5.388   2.173   7.696  0.3321 -1.5126 -0.0078
 3629TIP3   OH232445   4.409   0.165   1.725 -0.4696  0.2241 -0.3674
 3629TIP3    H132446   4.434   0.236   1.666 -0.7750  0.9883  0.4039
 3629TIP3    H232447   4.478   0.162   1.791 -2.7265  3.0666  2.4062
 3630TIP3   OH232448   2.605   3.953   1.783 -0.2246  0.1475 -0.1741
 3630TIP3    H132449   2.545   3.955   1.857  0.4048 -1.1892  0.3922
 3630TIP3    H232450   2.692   3.964   1.822  0.0771 -0.1523 -0.7529
 3631TIP3   OH232451   5.135   3.800   7.397  0.1708 -0.2716 -0.5441
 3631TIP3    H132452   5.112   3.833   7.310  0.8055 -0.8214 -0.9268
 3631TIP3    H232453   5.111   3.708   7.395 -3.2255  0.3907  1.0948
 3632TIP3   OH232454   6.117   2.799   6.984 -0.5106 -0.2011 -0.1280
 3632TIP3    H132455   6.203   2.831   6.955 -0.4342 -1.0622 -0.8980
 3632TIP3    H232456   6.136   2.752   7.065  0.0591 -1.8920 -1.1838
 3633TIP3   OH232457   3.996   2.868   0.746 -0.2089  0.0077  0.2602
 3633TIP3    H132458   3.915   2.851   0.697  0.5133  1.2857 -1.4413
 3633TIP3    H232459   3.970   2.932   0.813 -1.4373 -2.5219  2.3821
 3634TIP3   OH232460   1.800   4.012   1.210 -0.4509  0.3623  0.0879
 3634TIP3    H132461   1.864   3.981   1.274  1.4172  1.8738 -0.9407
 3634TIP3    H232462   1.839   3.989   1.125 -2.1053 -0.1675 -0.5540
 3635TIP3   OH232463   6.817   6.047   1.178 -0.4455 -0.4833 -0.0983
 3635TIP3    H132464   6.801   6.123   1.234 -2.8306 -0.6180 -0.5051
 3635TIP3    H232465   6.772   5.975   1.222 -0.6975 -1.0120 -1.1902
 3636TIP3   OH232466   4.476   2.345   0.584  0.0483 -0.3989 -0.3089
 3636TIP3    H132467   4.400   2.336   0.641 -0.8369  0.5220 -1.3067
 3636TIP3    H232468   4.541   2.390   0.639 -0.9140  0.7973 -0.1095
 3637TIP3   OH232469   5.317   0.510   1.096  0.0312 -0.3389 -0.4673
 3637TIP3    H132470   5.397   0.553   1.068  0.7760 -0.3907  1.4615
 3637TIP3    H232471   5.282   0.566   1.165 -0.5028 -1.3480  0.1032
 3638TIP3   OH232472   4.186   4.800   1.169  0.5272  0.0247 -0.0146
 3638TIP3    H132473   4.147   4.727   1.121  0.8241 -0.6571  0.7498
 3638TIP3    H232474   4.161   4.878   1.119 -2.0871 -0.3364  0.5892
 3639TIP3   OH232475   2.586   0.742   1.722 -0.0688  0.2361 -0.3300
 3639TIP3    H132476   2.626   0.736   1.809  0.6686 -1.0409 -0.7406
 3639TIP3    H232477   2.655   0.777   1.666  0.2350 -1.1288 -0.8554
 3640TIP3   OH232478   0.674   0.510   7.066  0.1981  0.5533  0.1763
 3640TIP3    H132479   0.692   0.476   6.978  4.4801  0.7823  0.7425
 3640TIP3    H232480   0.640   0.436   7.114  0.4300 -0.3482 -0.9967
 3641TIP3   OH232481   5.792   3.048   7.264 -0.0174 -0.2131  0.3121
 3641TIP3    H132482   5.836   3.064   7.348 -2.1570  0.4471  1.3799
 3641TIP3    H232483   5.760   2.958   7.271  1.6545 -0.9480 -0.7547
 3642TIP3   OH232484   4.537   6.509   8.081  0.6277  0.1567  0.3307
 3642TIP3    H132485   4.486   6.562   8.019  0.3291 -0.7433 -0.2039
 3642TIP3    H232486   4.602   6.570   8.116  0.8438  0.6658 -0.9135
 3643TIP3   OH232487   2.846   1.537   0.551 -0.0987  0.5136 -0.3041
 3643TIP3    H132488   2.853   1.569   0.641  0.0552  1.3081 -0.5919
 3643TIP3    H232489   2.786   1.462   0.557  1.0945 -0.3996  0.6970
 3644TIP3   OH232490   1.257   6.625   8.499  0.0443  0.3002 -0.1173
 3644TIP3    H132491   1.257   6.532   8.479  0.5152  0.6213 -1.7483
 3644TIP3    H232492   1.311   6.664   8.430  1.1562  1.5999  1.4154
 3645TIP3   OH232493   2.729   2.951   1.852  0.3960 -0.3308 -0.8450
 3645TIP3    H132494   2.683   3.028   1.885 -0.3941 -1.6721  1.4220
 3645TIP3    H232495   2.738   2.967   1.758 -1.4813  1.6105 -0.7801
 3646TIP3   OH232496   6.138   6.511   7.294 -0.5953 -0.3363  0.2790
 3646TIP3    H132497   6.104   6.436   7.343  0.4553 -0.5103  0.7686
 3646TIP3    H232498   6.205   6.549   7.351  0.8309 -0.6811 -1.0894
 3647TIP3   OH232499   1.168   5.717   8.268  0.0802  0.0375  0.2389
 3647TIP3    H132500   1.240   5.662   8.238  1.4038  1.8602 -0.0935
 3647TIP3    H232501   1.192   5.806   8.240 -2.0177  0.7940  0.6432
 3648TIP3   OH232502   2.252   6.329   7.135 -0.2363  0.4229  0.7520
 3648TIP3    H132503   2.173   6.344   7.083  0.6619  2.0070 -0.2332
 3648TIP3    H232504   2.222   6.331   7.226 -1.2220  1.7494  0.4171
 3649TIP3   OH232505   6.656   0.177   8.589  0.0106 -0.3011  0.0963
 3649TIP3    H132506   6.722   0.242   8.612 -0.7388  0.7057 -0.5385
 3649TIP3    H232507   6.695   0.093   8.616  0.4391  0.5059  2.1475
 3650TIP3   OH232508   0.159   6.429   8.070  0.0189 -0.2411 -0.1243
 3650TIP3    H132509   0.131   6.457   7.983 -0.4047 -2.4112 -0.7527
 3650TIP3    H232510   0.224   6.361   8.053 -0.2726 -0.8851  1.2560
 3651TIP3   OH232511   0.742   0.880   0.369  0.4423 -0.0670 -0.1836
 3651TIP3    H132512   0.683   0.925   0.429 -0.8583 -0.7684 -0.9019
 3651TIP3    H232513   0.796   0.824   0.426  1.6911  1.8798  0.6567
 3652TIP3   OH232514   1.718   3.408   6.296  0.1509  0.6728  0.5102
 3652TIP3    H132515   1.697   3.325   6.340  0.4277 -0.9305 -2.1354
 3652TIP3    H232516   1.804   3.432   6.330  0.2399 -0.3217  1.0277
 3653TIP3   OH232517   3.956   4.359   0.905 -0.3523  0.3170  0.0061
 3653TIP3    H132518   3.986   4.439   0.948 -1.0192  0.3312  0.4688
 3653TIP3    H232519   4.001   4.358   0.821 -1.1356  1.7412 -0.4705
 3654TIP3   OH232520   0.979   4.525   7.854  0.0837  0.2435 -0.5142
 3654TIP3    H132521   0.937   4.477   7.782  0.8063 -0.3085 -0.5721
 3654TIP3    H232522   1.073   4.518   7.836  0.2676  0.1807  0.4320
 3655TIP3   OH232523   0.896   5.807   0.909 -0.2209  0.1083 -0.0501
 3655TIP3    H132524   0.825   5.870   0.894 -0.0514  0.0237 -1.3592
 3655TIP3    H232525   0.877   5.735   0.849 -0.8320 -1.5065  1.9493
 3656TIP3   OH232526   6.085   2.400   8.094  0.5021 -0.3235  0.0004
 3656TIP3    H132527   6.021   2.443   8.151  0.5846 -1.3052  0.8552
 3656TIP3    H232528   6.147   2.470   8.072  0.3817  0.1123  0.9879
 3657TIP3   OH232529   1.840   6.761   8.141 -0.0153  0.0410  0.1320
 3657TIP3    H132530   1.855   6.855   8.138 -0.8889  0.1667 -1.0059
 3657TIP3    H232531   1.919   6.725   8.180  0.1703  1.2754  0.9458
 3658TIP3   OH232532   4.957   6.240   7.795 -0.3915  0.4495  0.1014
 3658TIP3    H132533   4.987   6.323   7.832 -1.3348  1.3127 -0.9884
 3658TIP3    H232534   4.971   6.250   7.701 -1.1527 -0.3522 -0.1093
 3659TIP3   OH232535   5.879   3.850   8.457 -0.2508 -0.7444 -0.4279
 3659TIP3    H132536   5.839   3.798   8.388 -1.0715 -0.2026 -0.3768
 3659TIP3    H232537   5.837   3.820   8.537 -2.7438  1.7851 -0.6625
 3660TIP3   OH232538   3.390   1.521   7.804 -0.5163 -0.5394 -0.6299
 3660TIP3    H132539   3.352   1.561   7.882  2.3132 -0.4168  0.8069
 3660TIP3    H232540   3.411   1.432   7.831 -0.5331 -0.8544 -1.6335
 3661TIP3   OH232541   5.461   6.804   7.553  0.7524  0.0034 -0.2828
 3661TIP3    H132542   5.501   6.781   7.469  0.9854  1.0337 -0.4646
 3661TIP3    H232543   5.493   6.737   7.613  1.4920 -0.0919 -0.7693
 3662TIP3   OH232544   5.934   3.332   0.187 -0.1815 -0.8324 -0.2146
 3662TIP3    H132545   5.978   3.251   0.211  1.6594  0.6525  1.9372
 3662TIP3    H232546   5.844   3.307   0.169 -0.2132 -3.1054  2.4521
 3663TIP3   OH232547   1.644   3.733   1.937  0.1705  0.4625  0.7181
 3663TIP3    H132548   1.662   3.820   1.972 -0.2454  0.2121  1.5992
 3663TIP3    H232549   1.597   3.689   2.008  1.4131 -0.8800  0.7576
 3664TIP3   OH232550   4.116   4.676   7.352  0.1353  0.3519  0.1615
 3664TIP3    H132551   4.035   4.626   7.337  0.3283 -0.5032  1.7293
 3664TIP3    H232552   4.184   4.624   7.309  0.1650 -0.1694  0.8144
 3665TIP3   OH232553   1.061   6.134   6.539 -0.1730 -0.1379  0.3977
 3665TIP3    H132554   0.967   6.128   6.556 -0.3249  0.3202 -0.2752
 3665TIP3    H232555   1.078   6.228   6.533 -0.1697 -0.2350 -2.1656
 3666TIP3   OH232556   4.132   0.726   2.626  0.3429 -0.3374  0.7209
 3666TIP3    H132557   4.105   0.671   2.699 -3.0477  1.9671  1.4022
 3666TIP3    H232558   4.176   0.801   2.667 -0.7983  0.5434  0.3710
 3667TIP3   OH232559   5.089   4.490   0.777 -0.0072  0.0772 -0.2452
 3667TIP3    H132560   5.081   4.548   0.701 -0.7632 -1.1722 -1.1558
 3667TIP3    H232561   5.006   4.499   0.823 -1.6545 -2.7210 -2.2711
 3668TIP3   OH232562   3.910   2.580   7.776  0.0003  0.7945 -0.7425
 3668TIP3    H132563   3.919   2.669   7.741 -0.3320  1.1985  0.1908
 3668TIP3    H232564   3.970   2.576   7.849  0.5688 -0.0042 -1.2350
 3669TIP3   OH232565   4.947   3.408   1.718  0.5126  1.1054 -0.0091
 3669TIP3    H132566   4.975   3.444   1.802 -2.0882 -1.3192  2.0901
 3669TIP3    H232567   5.023   3.361   1.685  1.7580  2.6057  0.6098
 3670TIP3   OH232568   0.001   1.344   1.448 -0.5791  0.1000  0.9834
 3670TIP3    H132569   0.088   1.326   1.412 -1.3507 -3.0659  0.3951
 3670TIP3    H232570   0.012   1.426   1.497  2.4965  0.2326  0.2971
 3671TIP3   OH232571   2.725   1.386   1.608  0.0574 -0.1616 -0.1078
 3671TIP3    H132572   2.805   1.344   1.639 -0.0408 -0.9714 -0.9268
 3671TIP3    H232573   2.668   1.388   1.685  1.0575  0.9471  0.6355
 3672TIP3   OH232574   4.378   3.116   0.518  0.0809 -0.1135  0.0378
 3672TIP3    H132575   4.286   3.092   0.511  0.7004 -2.8698  0.2538
 3672TIP3    H232576   4.411   3.109   0.429 -0.0821  1.8884 -0.2231
 3673TIP3   OH232577   0.040   4.101   0.749 -0.8610  0.1823 -0.1023
 3673TIP3    H132578  -0.003   4.186   0.743 -0.9653  0.1381  0.0259
 3673TIP3    H232579   0.031   4.063   0.661 -1.8688 -0.2088  0.1572
 3674TIP3   OH232580   2.524   3.369   7.915 -0.2923 -0.1849 -0.2242
 3674TIP3    H132581   2.498   3.321   7.994 -2.3412  1.2543  0.0515
 3674TIP3    H232582   2.537   3.300   7.849 -0.5268 -1.2781  0.8248
 3675TIP3   OH232583   2.786   4.756   0.122 -0.3900 -0.2032  0.0246
 3675TIP3    H132584   2.858   4.730   0.179 -0.5555 -0.4692  0.1156
 3675TIP3    H232585   2.712   4.702   0.151 -0.6403  0.1132 -0.0279
 3676TIP3   OH232586   4.509   4.587   7.536  0.0714 -0.6302  0.7585
 3676TIP3    H132587   4.476   4.544   7.457  1.5048  0.6405 -0.6135
 3676TIP3    H232588   4.435   4.637   7.569 -0.2038 -0.0691 -0.6250
 3677TIP3   OH232589   3.762   4.269   7.191 -0.4045  0.0067  0.0527
 3677TIP3    H132590   3.678   4.223   7.191 -0.8002  0.7200 -0.6007
 3677TIP3    H232591   3.754   4.335   7.123  1.1588 -0.7431 -0.9041
 3678TIP3   OH232592   6.391   5.801   8.467 -0.2744  0.2387 -0.2894
 3678TIP3    H132593   6.470   5.831   8.422 -0.3218  0.5008 -0.1947
 3678TIP3    H232594   6.368   5.872   8.526  0.2731 -0.4240  0.7776
 3679TIP3   OH232595   1.029   1.037   8.632 -0.4684 -0.2505 -0.3730
 3679TIP3    H132596   0.951   0.985   8.652 -0.1840 -0.3946  0.4117
 3679TIP3    H232597   1.102   0.987   8.668  0.0053 -0.1477 -1.1515
 3680TIP3   OH232598   5.436   3.896   8.182 -0.5479  0.2249  1.1498
 3680TIP3    H132599   5.496   3.952   8.133 -1.0643 -0.4994 -0.3784
 3680TIP3    H232600   5.483   3.874   8.263  1.8175 -1.3338 -0.5085
 3681TIP3   OH232601   0.110   4.880   0.881 -0.3422 -0.1781 -0.2929
 3681TIP3    H132602   0.200   4.876   0.913 -0.7509 -0.1865  0.8957
 3681TIP3    H232603   0.091   4.792   0.851 -0.2367 -0.3841  0.2437
 3682TIP3   OH232604   6.619   3.083   1.023 -0.3278  0.1292  0.2871
 3682TIP3    H132605   6.579   3.121   0.945 -0.3889 -0.3418  0.0827
 3682TIP3    H232606   6.619   2.988   1.006  1.2623  0.1322  0.0841
 3683TIP3   OH232607   1.624   3.198   0.986 -0.6774  0.6272 -0.0345
 3683TIP3    H132608   1.529   3.202   0.982 -0.8757 -2.4741 -0.6606
 3683TIP3    H232609   1.650   3.152   0.906  1.2655  0.6008  0.5525
 3684TIP3   OH232610   2.797   4.531   1.421 -0.4081  0.3591 -0.0111
 3684TIP3    H132611   2.796   4.480   1.502 -1.0029 -0.0015 -0.2437
 3684TIP3    H232612   2.817   4.620   1.449 -1.2311  0.3536  0.6011
 3685TIP3   OH232613   3.805   3.643   2.086 -0.0444  0.5853 -0.2966
 3685TIP3    H132614   3.739   3.677   2.147  0.0964  1.3385 -0.5430
 3685TIP3    H232615   3.772   3.668   2.000  0.5522  0.9571 -0.4221
 3686TIP3   OH232616   4.483   1.481   1.876  0.0787 -0.6203 -0.3174
 3686TIP3    H132617   4.540   1.404   1.869  1.6020  0.3462  0.7207
 3686TIP3    H232618   4.438   1.470   1.960  0.2448 -0.4103 -0.2012
 3687TIP3   OH232619   5.486   2.453   1.877 -0.5472 -0.0561  1.1216
 3687TIP3    H132620   5.398   2.434   1.843 -0.4074  1.0264  0.0999
 3687TIP3    H232621   5.519   2.522   1.820  0.6607  0.1145  2.0023
 3688TIP3   OH232622   5.855   6.516   0.775 -0.1963 -0.2064  0.3621
 3688TIP3    H132623   5.804   6.589   0.811  0.6190  0.5927 -0.0686
 3688TIP3    H232624   5.794   6.443   0.773 -1.0638  0.4914  0.7110
 3689TIP3   OH232625   4.465   2.469   7.263 -0.0974 -0.6460 -0.2150
 3689TIP3    H132626   4.498   2.396   7.210  1.0288 -1.1329  1.1262
 3689TIP3    H232627   4.393   2.431   7.313 -0.3262 -0.4993 -0.4248
 3690TIP3   OH232628   1.839   2.942   0.609  0.4011 -0.1808 -0.0176
 3690TIP3    H132629   1.855   2.855   0.571  0.6758  0.0867 -0.5176
 3690TIP3    H232630   1.783   2.924   0.685  0.0982 -0.7530 -0.3684
 3691TIP3   OH232631   6.346   0.851   0.386 -0.2711 -0.1286  0.0781
 3691TIP3    H132632   6.342   0.869   0.480  0.6660  1.1886 -0.1104
 3691TIP3    H232633   6.365   0.757   0.380  0.7912 -0.0100  1.2422
 3692TIP3   OH232634   6.347   2.964   6.981 -0.1718  0.0863 -0.0073
 3692TIP3    H132635   6.419   2.998   6.929 -0.3405  0.6926  0.1439
 3692TIP3    H232636   6.389   2.916   7.052  0.1570  1.7830  1.0168
 3693TIP3   OH232637   0.015   0.177   7.074 -0.4059 -0.2823  0.1157
 3693TIP3    H132638   0.053   0.190   6.987  0.3597  1.4440  0.6814
 3693TIP3    H232639  -0.079   0.189   7.061 -0.5658 -2.0956 -0.8181
 3694TIP3   OH232640   5.131   6.261   7.047 -0.2027 -0.0231 -0.3114
 3694TIP3    H132641   5.086   6.250   6.963  0.4864 -0.8623 -0.5837
 3694TIP3    H232642   5.209   6.311   7.025  1.2812 -2.3571 -0.6492
 3695TIP3   OH232643   2.429   5.754   1.625  0.2582  0.0861  0.5592
 3695TIP3    H132644   2.491   5.681   1.621  0.8418  0.5891  0.2409
 3695TIP3    H232645   2.484   5.832   1.631 -0.2902  0.6177 -0.7625
 3696TIP3   OH232646   3.708   1.520   1.749  0.0908  0.3866 -0.4700
 3696TIP3    H132647   3.789   1.481   1.714 -1.2703 -1.6427 -1.6311
 3696TIP3    H232648   3.698   1.481   1.836 -0.2115 -0.3264 -0.8100
 3697TIP3   OH232649   0.675   6.199   8.096  0.1865 -0.1419  0.1161
 3697TIP3    H132650   0.667   6.117   8.146 -2.8392 -0.8192 -1.2770
 3697TIP3    H232651   0.602   6.253   8.126  1.0035  1.3053 -0.3852
 3698TIP3   OH232652   2.277   0.749   1.229 -0.5414 -0.3288 -0.4277
 3698TIP3    H132653   2.269   0.784   1.318 -1.0867 -2.1479  0.2756
 3698TIP3    H232654   2.187   0.737   1.199 -0.3843 -1.8874 -0.3185
 3699TIP3   OH232655   4.344   5.144   2.450 -0.8022 -0.4805  0.1306
 3699TIP3    H132656   4.288   5.078   2.491 -0.1339 -0.8620  0.4447
 3699TIP3    H232657   4.405   5.095   2.395  0.9738 -0.3394  1.8471
 3700TIP3   OH232658   3.973   5.467   2.139  0.8024  0.1991  0.6446
 3700TIP3    H132659   3.961   5.546   2.192  0.1658  2.3867 -2.4867
 3700TIP3    H232660   3.950   5.395   2.198  1.1145  2.2926  3.5785
 3701TIP3   OH232661   2.971   5.437   2.078 -0.0999  0.0787  0.0769
 3701TIP3    H132662   2.888   5.413   2.037 -1.2516  0.7590  1.8542
 3701TIP3    H232663   2.952   5.436   2.172  1.8374  0.5472  0.5183
 3702TIP3   OH232664   1.936   6.593   0.694  0.4964  0.0950 -0.0688
 3702TIP3    H132665   1.975   6.638   0.769  2.1553 -0.6955 -0.4030
 3702TIP3    H232666   1.842   6.608   0.702  0.7224  0.6954  1.7144
 3703TIP3   OH232667   2.270   5.151   6.372  0.2051 -0.0747  0.1143
 3703TIP3    H132668   2.176   5.169   6.382  0.4560  1.1837  0.3198
 3703TIP3    H232669   2.304   5.226   6.323  1.5406  0.7422  2.1583
 3704TIP3   OH232670   3.347   5.416   8.140 -0.0384 -0.1081 -0.6877
 3704TIP3    H132671   3.413   5.403   8.072  0.2464 -1.5330 -0.1737
 3704TIP3    H232672   3.371   5.499   8.181  0.7913 -0.0772 -1.2056
 3705TIP3   OH232673   3.245   3.581   6.931  0.5746 -0.1736 -0.0774
 3705TIP3    H132674   3.285   3.506   6.888  2.5673 -0.1608  1.6062
 3705TIP3    H232675   3.154   3.555   6.946  0.3561 -0.9338 -2.4014
 3706TIP3   OH232676   4.273   1.796   1.835 -0.4735 -0.2822 -0.5231
 3706TIP3    H132677   4.204   1.849   1.794 -0.4779  1.0170  1.0846
 3706TIP3    H232678   4.242   1.782   1.924  2.2195  2.1657  0.9491
 3707TIP3   OH232679   5.736   1.390   7.443 -0.1675  0.1113  0.2326
 3707TIP3    H132680   5.751   1.439   7.524 -0.5270 -0.1142  0.4372
 3707TIP3    H232681   5.815   1.337   7.432 -0.3142 -0.2167  0.6966
 3708TIP3   OH232682   6.630   0.717   0.549  0.0566  0.1000 -0.4044
 3708TIP3    H132683   6.577   0.752   0.620 -0.1408 -0.4199 -0.2931
 3708TIP3    H232684   6.708   0.682   0.591  0.1032  0.1052 -0.4844
 3709TIP3   OH232685   2.887   6.251   0.273  0.5426  0.4035  0.1980
 3709TIP3    H132686   2.913   6.179   0.215  2.6313  0.3656  1.0650
 3709TIP3    H232687   2.856   6.208   0.352 -0.3521  0.4628 -0.1147
 3710TIP3   OH232688   3.467   2.310   6.656 -0.3199 -0.2103 -0.4706
 3710TIP3    H132689   3.405   2.375   6.689 -2.8868 -1.9555 -1.5402
 3710TIP3    H232690   3.531   2.361   6.606  0.0691  1.8108  1.8488
 3711TIP3   OH232691   2.766   2.770   1.358 -0.4824 -0.3325 -0.4236
 3711TIP3    H132692   2.747   2.777   1.264  0.7782  0.0480 -0.6760
 3711TIP3    H232693   2.773   2.861   1.387  3.1202 -0.3210 -0.8779
 3712TIP3   OH232694   6.603   4.780   7.292 -0.3861 -0.3372  0.1601
 3712TIP3    H132695   6.643   4.863   7.315  0.0472 -0.4512 -0.1665
 3712TIP3    H232696   6.604   4.777   7.197  0.8654 -1.3071  0.1805
 3713TIP3   OH232697   2.735   3.992   0.092  0.5511 -0.2117  0.2926
 3713TIP3    H132698   2.772   4.069   0.050  1.0086 -1.0431 -0.8719
 3713TIP3    H232699   2.641   3.997   0.073  0.6498 -0.1968 -0.1879
 3714TIP3   OH232700   4.053   1.735   8.550  0.0732 -0.4977  0.3324
 3714TIP3    H132701   4.065   1.650   8.592  0.0443 -0.3302  0.6842
 3714TIP3    H232702   4.019   1.791   8.619 -2.8136 -0.9476 -0.5804
 3715TIP3   OH232703   4.973   3.001   0.221 -0.7058 -0.1253 -0.2601
 3715TIP3    H132704   5.034   3.037   0.286 -0.5011  1.5572 -1.3286
 3715TIP3    H232705   4.969   2.907   0.241  0.6986  0.0657  1.0742
 3716TIP3   OH232706   2.731   2.678   1.773 -0.4039 -0.2668 -0.2820
 3716TIP3    H132707   2.658   2.705   1.716  0.8585  3.2238 -0.4499
 3716TIP3    H232708   2.777   2.611   1.722 -1.7241 -0.3135 -1.4900
 3717TIP3   OH232709   0.975   5.278   1.252 -0.1425  0.3164 -0.4888
 3717TIP3    H132710   0.978   5.278   1.348 -0.9963  0.4374 -0.4530
 3717TIP3    H232711   1.067   5.275   1.225  0.1056  0.2770  0.3322
 3718TIP3   OH232712   2.782   4.277   0.677  0.3133 -0.2466  0.3261
 3718TIP3    H132713   2.774   4.324   0.760 -1.0652 -1.1998  0.7595
 3718TIP3    H232714   2.875   4.255   0.671  0.6089  0.7231  1.1043
 3719TIP3   OH232715   6.716   3.273   1.768 -0.2333  0.0023  0.4931
 3719TIP3    H132716   6.804   3.308   1.781 -0.1894 -0.5144  1.6646
 3719TIP3    H232717   6.707   3.266   1.672  1.5207 -1.2359  0.3671
 3720TIP3   OH232718   5.348   4.464   2.215 -0.0574  0.2593  0.1195
 3720TIP3    H132719   5.409   4.537   2.217  0.6282 -0.2876 -0.2453
 3720TIP3    H232720   5.298   4.472   2.296 -0.0672  1.1866  0.0331
 3721TIP3   OH232721   1.026   4.558   0.151  0.5236 -0.5998 -0.3295
 3721TIP3    H132722   1.053   4.490   0.213  0.2788  0.9880  1.6396
 3721TIP3    H232723   1.108   4.594   0.117  0.6537 -1.9665 -1.5704
 3722TIP3   OH232724   3.076   0.765   0.656  0.6008 -0.2271 -0.2615
 3722TIP3    H132725   3.154   0.733   0.701  0.7303  0.5423  0.0763
 3722TIP3    H232726   3.003   0.734   0.709  0.7146 -0.1056 -0.0326
 3723TIP3   OH232727   2.101   2.320   8.458  0.2898  0.2614  0.1684
 3723TIP3    H132728   2.081   2.398   8.406 -3.7716  1.3206  2.8574
 3723TIP3    H232729   2.180   2.344   8.507  1.3549  1.0570 -1.8070
 3724TIP3   OH232730   3.159   1.304   2.049  0.2491  0.6195  0.9697
 3724TIP3    H132731   3.185   1.387   2.008  1.0330  0.2328  0.6651
 3724TIP3    H232732   3.152   1.325   2.142  0.3496  1.0521  0.8834
 3725TIP3   OH232733   1.705   1.433   6.889 -0.0899  0.0597  0.1396
 3725TIP3    H132734   1.695   1.393   6.803  1.6662  1.9836 -1.0538
 3725TIP3    H232735   1.752   1.368   6.941  0.2683 -0.5039 -0.8731
 3726TIP3   OH232736   1.203   0.685   2.075  0.0264  0.0182 -0.3128
 3726TIP3    H132737   1.188   0.760   2.134 -0.8259 -0.3355 -0.0624
 3726TIP3    H232738   1.263   0.628   2.123 -1.3835 -0.7226  0.6615
 3727TIP3   OH232739   5.413   3.631   1.351  0.3860 -0.3858 -0.4552
 3727TIP3    H132740   5.491   3.593   1.310  1.0939 -0.6635  1.0610
 3727TIP3    H232741   5.406   3.718   1.313  1.5226 -0.3166 -0.5539
 3728TIP3   OH232742   5.770   4.949   2.574 -0.1036  0.2479 -0.3767
 3728TIP3    H132743   5.722   4.880   2.528 -0.3097 -0.3613  0.7143
 3728TIP3    H232744   5.702   5.003   2.614  0.0926 -0.1675  0.5348
 3729TIP3   OH232745   6.058   3.007   1.907  0.4605  0.5581 -0.4115
 3729TIP3    H132746   6.059   2.945   1.981  1.4625  1.8047  0.6793
 3729TIP3    H232747   5.978   2.986   1.859 -0.6084  0.1580  1.4442
 3730TIP3   OH232748   1.791   1.785   0.455 -0.1597 -0.3407  0.5354
 3730TIP3    H132749   1.820   1.699   0.425 -0.6531 -0.3119 -0.0557
 3730TIP3    H232750   1.842   1.847   0.403 -3.0347 -0.2533 -2.5338
 3731TIP3   OH232751   5.793   2.469   6.791  0.0030 -0.1847  0.4398
 3731TIP3    H132752   5.702   2.482   6.818 -0.0238  0.2199  0.1617
 3731TIP3    H232753   5.844   2.521   6.854  0.2378 -2.2157  2.0460
 3732TIP3   OH232754   3.635   4.417   1.153 -0.1980  0.4929 -0.9077
 3732TIP3    H132755   3.687   4.468   1.215 -1.1226 -0.9830  1.1810
 3732TIP3    H232756   3.688   4.340   1.134 -0.5688  0.1823 -0.7040
 3733TIP3   OH232757   5.187   5.211   7.278 -0.4019  0.3225  0.4598
 3733TIP3    H132758   5.101   5.251   7.267 -0.7088 -0.1893  0.9313
 3733TIP3    H232759   5.168   5.118   7.292  0.2727  0.0780 -0.2270
 3734TIP3   OH232760   3.884   0.009   0.209  0.1522  0.1555  0.8355
 3734TIP3    H132761   3.806   0.054   0.243 -0.0565 -0.3149  0.9928
 3734TIP3    H232762   3.907   0.058   0.130 -1.4431 -0.8098 -0.2842
 3735TIP3   OH232763   2.732   3.212   7.767  0.1603 -0.0733 -0.2582
 3735TIP3    H132764   2.815   3.240   7.730  0.8897 -1.2615  0.4212
 3735TIP3    H232765   2.726   3.119   7.746  0.0358 -0.5019  1.5330
 3736TIP3   OH232766   4.102   5.091   2.304 -0.3977 -0.3713 -0.0774
 3736TIP3    H132767   4.128   5.061   2.217  0.8240 -1.7496  0.7105
 3736TIP3    H232768   4.176   5.143   2.335 -0.2090 -1.0488  0.6561
 3737TIP3   OH232769   3.957   0.721   2.414  0.2552  0.0249  0.2678
 3737TIP3    H132770   3.986   0.725   2.505  1.0759 -1.3434  0.0951
 3737TIP3    H232771   4.035   0.741   2.362  0.0341 -0.1808 -0.1540
 3738TIP3   OH232772   1.393   3.973   7.052 -0.5429 -0.5715  0.4739
 3738TIP3    H132773   1.300   3.996   7.052 -0.6635 -1.0069 -0.6097
 3738TIP3    H232774   1.426   4.004   7.137 -1.6468 -0.3178  0.8177
 3739TIP3   OH232775   5.063   1.691   0.107 -0.5644  0.3932 -0.5215
 3739TIP3    H132776   5.040   1.711   0.197 -0.0728 -1.0236 -0.0469
 3739TIP3    H232777   4.989   1.723   0.055 -0.3359  2.2683  0.2409
 3740TIP3   OH232778   0.822   3.135   0.941  0.0187  0.0776  0.3419
 3740TIP3    H132779   0.892   3.088   0.895 -0.8664  0.0959 -1.0925
 3740TIP3    H232780   0.808   3.084   1.021  2.1973  0.5333  1.0949
 3741TIP3   OH232781   6.219   6.225   0.114  0.2989  0.3666  0.4019
 3741TIP3    H132782   6.271   6.186   0.184  0.3405 -1.3067 -0.5001
 3741TIP3    H232783   6.137   6.250   0.156  0.6718  0.2661  1.2190
 3742TIP3   OH232784   3.375   2.614   1.094  0.3323 -0.1086  0.4847
 3742TIP3    H132785   3.415   2.552   1.155 -4.0586 -1.1847  2.7273
 3742TIP3    H232786   3.374   2.697   1.142  0.9285  0.2184 -0.0605
 3743TIP3   OH232787   0.289   1.381   8.609  0.7113  0.3874  0.7331
 3743TIP3    H132788   0.345   1.416   8.540  1.1242  0.8540  1.2984
 3743TIP3    H232789   0.288   1.449   8.676 -3.0667  1.8358 -0.5236
 3744TIP3   OH232790   1.819   1.077   6.704  0.0870  0.5734 -0.4081
 3744TIP3    H132791   1.830   1.124   6.622 -0.6654  1.0112 -0.2688
 3744TIP3    H232792   1.735   1.032   6.695 -0.5430  1.5142  0.5319
 3745TIP3   OH232793   4.271   4.210   2.101  0.6436  0.5713 -0.0099
 3745TIP3    H132794   4.342   4.225   2.038  1.2680  0.9095  0.7394
 3745TIP3    H232795   4.307   4.145   2.162 -0.2389 -0.3386 -0.4365
 3746TIP3   OH232796   5.942   3.804   0.446 -0.2654  0.2278  1.0253
 3746TIP3    H132797   5.948   3.763   0.360  3.4020  1.2735  0.6133
 3746TIP3    H232798   5.917   3.732   0.505 -1.0886 -0.8992 -0.6285
 3747TIP3   OH232799   6.712   6.354   8.041 -0.3079  0.2120  0.1727
 3747TIP3    H132800   6.678   6.268   8.064  1.8994 -0.5666  0.8032
 3747TIP3    H232801   6.806   6.340   8.029  0.1088  2.5385  0.2784
 3748TIP3   OH232802   0.327   2.596   8.434  0.5282  0.7129  0.7311
 3748TIP3    H132803   0.379   2.516   8.444  0.2414  0.5748  1.1840
 3748TIP3    H232804   0.325   2.634   8.522  0.1577  0.8998  0.6457
 3749TIP3   OH232805   0.025   3.980   1.589 -0.1932 -0.0583  0.1805
 3749TIP3    H132806  -0.024   4.055   1.555 -0.3463 -0.0787  0.3547
 3749TIP3    H232807  -0.037   3.908   1.588 -0.6453  0.2620  1.8152
 3750TIP3   OH232808   1.282   5.503   1.103  0.5521 -0.2122 -0.3379
 3750TIP3    H132809   1.199   5.460   1.120  0.3327  0.4746  0.3740
 3750TIP3    H232810   1.346   5.432   1.102  0.1897 -0.5697  0.7448
 3751TIP3   OH232811   1.430   2.190   7.277  0.1115 -0.0871  0.2114
 3751TIP3    H132812   1.338   2.216   7.274 -0.8756 -2.8316  2.4270
 3751TIP3    H232813   1.431   2.100   7.246  2.5202  0.5596 -2.0011
 3752TIP3   OH232814   2.128   6.432   8.242  0.5765 -0.7195  0.3941
 3752TIP3    H132815   2.120   6.348   8.289  1.2236 -1.0277 -0.0348
 3752TIP3    H232816   2.209   6.470   8.275  2.0533 -1.8082 -1.7962
 3753TIP3   OH232817   6.166   1.367   6.311 -0.0629  0.6023 -1.3621
 3753TIP3    H132818   6.073   1.352   6.294  0.1474 -1.4974 -0.9955
 3753TIP3    H232819   6.202   1.279   6.324  1.3086  1.5109  2.0175
 3754TIP3   OH232820   5.101   6.191   0.097 -0.3157  0.4127  0.1484
 3754TIP3    H132821   5.135   6.149   0.018  0.4909 -0.4391  0.9271
 3754TIP3    H232822   5.027   6.136   0.123  0.1434  0.0105  0.6270
 3755TIP3   OH232823   2.210   4.983   1.720  0.5150 -0.2822  0.0559
 3755TIP3    H132824   2.128   5.028   1.696  0.8926  0.1788 -0.3924
 3755TIP3    H232825   2.218   4.913   1.656  0.5745 -0.1994 -0.0278
 3756TIP3   OH232826   5.785   2.155   8.059  0.2697  0.0375 -0.5274
 3756TIP3    H132827   5.755   2.227   8.114  1.1590  1.8655 -2.3042
 3756TIP3    H232828   5.743   2.077   8.095 -1.5361  1.5780  0.8438
 3757TIP3   OH232829   0.716   1.117   2.273 -0.0804  0.0229  0.4162
 3757TIP3    H132830   0.704   1.155   2.360  2.0348  1.4017  0.1770
 3757TIP3    H232831   0.809   1.128   2.255 -0.7487  1.5524 -2.8077
 3758TIP3   OH232832   6.025   3.651   2.376 -0.2668 -0.1146  0.0500
 3758TIP3    H132833   6.009   3.565   2.415 -2.3149  0.8206  1.4829
 3758TIP3    H232834   5.950   3.704   2.405  1.0993  2.2391 -0.4982
 3759TIP3   OH232835   3.233   0.774   1.088 -0.0288  0.0983 -0.3957
 3759TIP3    H132836   3.263   0.808   1.004 -1.0313  1.0195 -0.4032
 3759TIP3    H232837   3.156   0.722   1.067  0.6969 -1.0967 -0.2183
 3760TIP3   OH232838   2.337   3.440   6.965 -0.1741  0.0531 -0.1549
 3760TIP3    H132839   2.277   3.484   6.905  1.9306  0.7704 -1.8480
 3760TIP3    H232840   2.311   3.348   6.960 -0.0303  0.0723 -2.2870
 3761TIP3   OH232841   1.022   0.597   7.164 -0.5799 -0.1168  0.1961
 3761TIP3    H132842   1.104   0.567   7.203 -0.6932 -0.8858 -0.1432
 3761TIP3    H232843   0.957   0.534   7.194 -1.5064  1.7008  2.2789
 3762TIP3   OH232844   2.894   1.145   0.566  0.0213 -0.0201  0.1484
 3762TIP3    H132845   2.829   1.114   0.503 -1.5599 -0.1012  1.7255
 3762TIP3    H232846   2.843   1.191   0.633  1.7805  1.3998  0.6052
 3763TIP3   OH232847   3.839   0.894   7.375 -0.0134  0.1908 -0.8911
 3763TIP3    H132848   3.843   0.828   7.443 -2.9233  0.0073 -0.7684
 3763TIP3    H232849   3.810   0.847   7.297 -0.2479  0.9856 -1.3026
 3764TIP3   OH232850   1.439   2.581   8.513 -0.6351  0.7785 -0.6694
 3764TIP3    H132851   1.519   2.634   8.509 -1.5092  2.1866 -0.4886
 3764TIP3    H232852   1.443   2.537   8.598 -0.5559  1.7353 -0.1525
 3765TIP3   OH232853   1.085   3.026   1.571  0.0507  0.6224  0.4123
 3765TIP3    H132854   1.138   2.952   1.599  1.1329  0.8313 -1.0007
 3765TIP3    H232855   1.103   3.094   1.635 -0.4757 -0.1016  1.3638
 3766TIP3   OH232856   0.533   5.909   0.421 -0.1755 -0.1011 -0.4344
 3766TIP3    H132857   0.498   5.998   0.419  1.8128  0.7365 -0.4688
 3766TIP3    H232858   0.625   5.920   0.446  0.3409 -2.0688 -1.2793
 3767TIP3   OH232859   4.633   5.316   1.162  0.0793 -0.3861  0.3726
 3767TIP3    H132860   4.624   5.242   1.223 -1.8982 -2.3807 -2.1171
 3767TIP3    H232861   4.544   5.348   1.150  0.6539  1.0671 -0.1978
 3768TIP3   OH232862   1.735   6.073   7.525 -0.2834 -0.2410 -0.2617
 3768TIP3    H132863   1.749   5.978   7.517  0.1442 -0.3101  1.0856
 3768TIP3    H232864   1.823   6.110   7.529 -0.4167 -0.0279  1.5524
 3769TIP3   OH232865   0.255   2.779   2.491  0.2955  0.3211 -0.3455
 3769TIP3    H132866   0.323   2.814   2.435  1.5126  0.2172  0.9992
 3769TIP3    H232867   0.239   2.847   2.557 -1.9277  0.9275 -1.4068
 3770TIP3   OH232868   6.632   2.656   6.900 -0.0610 -0.8977 -0.8164
 3770TIP3    H132869   6.669   2.694   6.820  4.1232 -1.3467  0.6708
 3770TIP3    H232870   6.555   2.709   6.918  1.0012  1.6941 -3.1026
 3771TIP3   OH232871   5.551   6.822   6.722 -0.3720 -0.3512 -0.5569
 3771TIP3    H132872   5.478   6.814   6.783  1.4744 -0.5024  1.8100
 3771TIP3    H232873   5.592   6.735   6.723  0.9376  0.2444 -0.2595
 3772TIP3   OH232874   2.075   2.700   7.224  0.5319 -0.1979 -0.0108
 3772TIP3    H132875   2.006   2.728   7.284  1.2946 -0.1761  0.8847
 3772TIP3    H232876   2.134   2.775   7.219  2.4945 -1.4527  2.2494
 3773TIP3   OH232877   5.530   0.314   7.898 -0.2898  0.0195  0.3833
 3773TIP3    H132878   5.541   0.376   7.825  1.2948  0.5834  1.0629
 3773TIP3    H232879   5.579   0.237   7.871 -1.1030 -0.4293  0.1492
 3774TIP3   OH232880   0.486   5.181   7.189  0.0580  0.1109 -0.3520
 3774TIP3    H132881   0.540   5.112   7.226  2.2447  1.7686 -0.2033
 3774TIP3    H232882   0.493   5.170   7.095 -0.2257 -0.3026 -0.3266
 3775TIP3   OH232883   6.099   5.894   7.344 -0.8535  0.1019 -0.4467
 3775TIP3    H132884   6.180   5.923   7.303  0.2557 -0.1000  1.4716
 3775TIP3    H232885   6.090   5.802   7.317 -1.4513  0.6294 -2.1299
 3776TIP3   OH232886   2.659   3.046   0.872  0.6449 -0.0054  0.2957
 3776TIP3    H132887   2.641   2.952   0.880  0.2923 -0.2196 -2.1316
 3776TIP3    H232888   2.662   3.061   0.777 -1.7220  2.8810  0.5516
 3777TIP3   OH232889   4.508   0.721   1.785  0.0335 -0.4588 -0.2951
 3777TIP3    H132890   4.603   0.726   1.782 -0.0393  0.5849 -1.5453
 3777TIP3    H232891   4.478   0.810   1.767 -1.1869 -0.7318  0.2459
 3778TIP3   OH232892   4.862   3.164   0.745 -0.3544 -0.3459 -0.3351
 3778TIP3    H132893   4.825   3.231   0.687  1.5152  0.3754 -0.7511
 3778TIP3    H232894   4.905   3.214   0.814 -0.5392 -1.1713  0.3956
 3779TIP3   OH232895   3.435   3.483   1.530  0.2077  0.6429 -1.3563
 3779TIP3    H132896   3.446   3.419   1.459 -0.7939  1.1276 -1.9761
 3779TIP3    H232897   3.344   3.512   1.522  0.4921  1.7485 -0.7530
 3780TIP3   OH232898   6.110   2.198   7.887  0.2030 -0.3790 -0.5575
 3780TIP3    H132899   6.096   2.253   7.964  1.5502 -0.0860 -0.5012
 3780TIP3    H232900   6.023   2.166   7.865 -0.5315  1.2810 -0.2305
 3781TIP3   OH232901   5.581   2.718   0.340  0.0109 -0.0673  0.4264
 3781TIP3    H132902   5.569   2.749   0.250  0.1734  1.0739  0.7939
 3781TIP3    H232903   5.568   2.795   0.395 -0.4482 -0.8312  1.4191
 3782TIP3   OH232904   0.007   4.202   0.018 -0.0642  0.1854  0.2759
 3782TIP3    H132905  -0.063   4.265   0.003 -1.2491 -1.3706 -1.2045
 3782TIP3    H232906  -0.005   4.136  -0.051  2.0496 -0.8422  0.8103
 3783TIP3   OH232907   3.371   0.284   1.757 -0.1978  0.2102  0.5397
 3783TIP3    H132908   3.444   0.233   1.722 -0.0242  0.3576  0.6833
 3783TIP3    H232909   3.319   0.306   1.681 -0.2008 -0.0649  0.4596
 3784TIP3   OH232910   5.834   6.629   0.091 -0.6363 -0.4897  0.0854
 3784TIP3    H132911   5.820   6.629   0.186  0.7145  0.3722  0.3141
 3784TIP3    H232912   5.872   6.543   0.072 -1.6188 -0.9623  0.1843
 3785TIP3   OH232913   1.209   1.444   8.449 -0.3192  0.8232  0.3210
 3785TIP3    H132914   1.143   1.505   8.483 -0.7296  0.1488  0.7593
 3785TIP3    H232915   1.208   1.371   8.511 -2.1371 -1.1409 -1.8487
 3786TIP3   OH232916   6.431   5.008   1.450  0.1517 -0.5978 -0.2054
 3786TIP3    H132917   6.366   5.041   1.387  0.7111  0.3148 -0.3270
 3786TIP3    H232918   6.381   4.949   1.507 -0.0073 -3.2115 -2.7702
 3787TIP3   OH232919   1.412   6.456   7.943 -0.1321 -0.7517 -0.9777
 3787TIP3    H132920   1.477   6.484   8.007 -0.3380 -2.4979  0.0572
 3787TIP3    H232921   1.364   6.386   7.986 -2.9677  0.6714 -1.5635
 3788TIP3   OH232922   6.459   5.300   7.361  0.0495  0.0549  0.0309
 3788TIP3    H132923   6.512   5.380   7.362 -0.1596  0.2126 -0.7788
 3788TIP3    H232924   6.423   5.295   7.449  0.5541  0.5242  0.2716
 3789TIP3   OH232925   0.598   2.981   8.584  0.4088 -0.3427 -0.8698
 3789TIP3    H132926   0.541   3.050   8.550  1.2653  1.4474  1.1480
 3789TIP3    H232927   0.660   2.965   8.512  0.9525  1.9072 -0.9778
 3790TIP3   OH232928   6.654   2.788   0.246  0.3174 -0.4616  0.1873
 3790TIP3    H132929   6.647   2.764   0.154  0.0079  0.5132 -0.0576
 3790TIP3    H232930   6.712   2.722   0.284 -0.7878 -1.7948 -0.3519
 3791TIP3   OH232931   3.379   1.052   7.589  0.4207 -0.3082 -0.2212
 3791TIP3    H132932   3.298   1.076   7.544 -0.0486 -0.8112  0.3429
 3791TIP3    H232933   3.444   1.112   7.554 -0.6009  1.4807  0.7796
 3792TIP3   OH232934   0.086   4.907   7.093  0.3267  0.0806  0.3390
 3792TIP3    H132935   0.065   4.814   7.099  1.7719 -0.2955  0.1548
 3792TIP3    H232936   0.015   4.946   7.042  0.2179 -1.1141 -0.4489
 3793TIP3   OH232937   5.588   4.348   0.145  0.3927  0.4754  0.0385
 3793TIP3    H132938   5.642   4.299   0.082  0.5849  0.2064  0.4069
 3793TIP3    H232939   5.562   4.427   0.098 -1.0038 -0.5661 -1.0461
 3794TIP3   OH232940   2.355   4.310   0.161  0.4752  0.4312 -0.2190
 3794TIP3    H132941   2.269   4.269   0.168  1.4080 -1.3352  2.1966
 3794TIP3    H232942   2.357   4.375   0.231  0.5495  1.7036 -1.3526
 3795TIP3   OH232943   5.750   3.536   0.058 -0.4566 -0.4256  0.0536
 3795TIP3    H132944   5.719   3.477  -0.010 -1.0488 -2.4402  1.9486
 3795TIP3    H232945   5.790   3.609   0.011  0.2575 -2.2952 -2.4028
 3796TIP3   OH232946   5.853   1.333   0.193 -0.1857  0.1380 -0.0625
 3796TIP3    H132947   5.778   1.368   0.144 -1.1015 -1.1903  0.3267
 3796TIP3    H232948   5.930   1.361   0.142 -1.0193  0.3041 -1.2814
 3797TIP3   OH232949   4.742   6.650   8.208  0.5941  0.2520  0.1124
 3797TIP3    H132950   4.785   6.736   8.205 -1.3012  1.3848  2.1046
 3797TIP3    H232951   4.736   6.630   8.301 -1.1198 -0.8774 -0.1895
 3798TIP3   OH232952   3.537   0.183   8.593  0.6087 -0.0418  0.4071
 3798TIP3    H132953   3.462   0.174   8.535  0.5021 -0.2926  0.5811
 3798TIP3    H232954   3.553   0.095   8.626  1.2382 -0.0658  0.0575
 3799TIP3   OH232955   2.870   2.296   6.681  0.6788 -0.0675 -0.2500
 3799TIP3    H132956   2.816   2.374   6.672  2.2763  0.8536 -3.5813
 3799TIP3    H232957   2.949   2.327   6.726  0.0024 -0.6038  1.3924
 3800TIP3   OH232958   5.591   2.439   7.885  0.0958  0.4449 -0.5768
 3800TIP3    H132959   5.528   2.379   7.924  0.1875  0.4866 -0.3640
 3800TIP3    H232960   5.574   2.523   7.928 -0.0580  0.5831 -0.8997
 3801TIP3   OH232961   4.996   4.912   1.483 -0.2499  0.5960 -0.3839
 3801TIP3    H132962   5.035   4.979   1.427 -1.0526  2.6583  1.3927
 3801TIP3    H232963   4.906   4.904   1.451 -0.1412  0.2818 -0.6264
 3802TIP3   OH232964   3.032   2.266   0.263 -0.0646  0.3892 -0.1098
 3802TIP3    H132965   3.096   2.197   0.282  0.5664  1.1056  0.4440
 3802TIP3    H232966   3.021   2.312   0.346  1.6048  2.6361 -1.0214
 3803TIP3   OH232967   3.168   0.549   7.479  0.2927 -0.0673  0.4553
 3803TIP3    H132968   3.150   0.596   7.398  0.1546 -1.0378 -0.0930
 3803TIP3    H232969   3.263   0.554   7.490  0.6334 -2.0000 -1.0975
 3804TIP3   OH232970   6.480   5.240   2.236  0.5536 -0.2468  0.5462
 3804TIP3    H132971   6.461   5.302   2.166  2.1023  0.0676  0.3675
 3804TIP3    H232972   6.557   5.276   2.280  3.3228 -3.3495 -1.2793
 3805TIP3   OH232973   3.764   4.792   0.317 -0.9573 -0.6275 -0.0359
 3805TIP3    H132974   3.745   4.700   0.338 -2.3607 -0.0893  1.2470
 3805TIP3    H232975   3.808   4.788   0.233 -0.3717 -2.5272  0.3067
 3806TIP3   OH232976   1.427   3.742   1.745  0.0586  0.2261  0.1490
 3806TIP3    H132977   1.457   3.651   1.749 -0.7748 -0.0930 -0.4336
 3806TIP3    H232978   1.427   3.764   1.652  3.0717  1.8499  0.4208
 3807TIP3   OH232979   5.572   2.594   0.015  0.0430 -0.1868  0.2296
 3807TIP3    H132980   5.649   2.647  -0.009 -1.0534  1.0364 -0.7367
 3807TIP3    H232981   5.568   2.527  -0.053  0.4707 -0.4966  0.5039
 3808TIP3   OH232982   1.195   0.308   7.072  0.5119  0.1321  0.2786
 3808TIP3    H132983   1.185   0.238   7.137 -1.2162 -0.4657 -0.5489
 3808TIP3    H232984   1.182   0.389   7.121  1.0422 -0.2092  0.9921
 3809TIP3   OH232985   5.253   4.751   0.723 -0.4275  0.0284  0.0626
 3809TIP3    H132986   5.280   4.841   0.743  1.0230  0.5539 -3.3901
 3809TIP3    H232987   5.186   4.761   0.655 -0.1944 -1.4820 -0.4255
 3810TIP3   OH232988   3.036   4.926   6.452  0.2924 -0.9465 -0.0819
 3810TIP3    H132989   3.097   4.980   6.402  0.5558 -0.2275  0.9873
 3810TIP3    H232990   2.953   4.973   6.448  1.0943  1.0438  3.0153
 3811TIP3   OH232991   0.638   2.050   7.711  0.1236 -0.1726 -0.8051
 3811TIP3    H132992   0.697   2.097   7.653  2.6863 -0.2019  1.5855
 3811TIP3    H232993   0.689   1.976   7.744 -1.4325 -0.5739  0.8917
 3812TIP3   OH232994   0.588   3.453   1.613 -0.2716 -0.1169 -0.0981
 3812TIP3    H132995   0.683   3.469   1.611 -0.4173  0.7855 -0.1941
 3812TIP3    H232996   0.577   3.372   1.563  0.5516 -0.8125  0.8092
 3813TIP3   OH232997   2.979   5.649   8.507 -0.3195  0.1034 -0.0623
 3813TIP3    H132998   2.994   5.555   8.509  0.7962  0.2680 -0.0605
 3813TIP3    H232999   2.885   5.659   8.527 -0.5870 -1.0240 -0.6585
 3814TIP3   OH233000   0.524   2.253   7.895 -0.0178 -0.1982  0.3541
 3814TIP3    H133001   0.591   2.277   7.959  0.2030  1.6773 -0.5234
 3814TIP3    H233002   0.573   2.237   7.814 -0.4666 -0.6828  0.1770
 3815TIP3   OH233003   1.568   3.847   1.080  0.4692 -0.3784  0.2043
 3815TIP3    H133004   1.492   3.902   1.062  1.9248  1.6189 -0.1765
 3815TIP3    H233005   1.583   3.857   1.174  0.9827  0.2312  0.0615
 3816TIP3   OH233006   1.773   2.052   6.979 -0.1516  0.8597  0.3023
 3816TIP3    H133007   1.822   2.081   6.901  1.8132 -1.8961  0.3776
 3816TIP3    H233008   1.696   2.109   6.981  1.8231  3.8664 -1.2046
 3817TIP3   OH233009   1.331   4.236   0.947  0.3792 -0.3557 -0.8178
 3817TIP3    H133010   1.306   4.182   1.022  2.6876  0.6003  0.7370
 3817TIP3    H233011   1.324   4.176   0.872 -1.9039 -1.3640  0.1129
 3818TIP3   OH233012   3.613   3.723   8.282  0.1830  0.4706 -0.0327
 3818TIP3    H133013   3.704   3.703   8.306 -0.6221 -1.3465  1.8893
 3818TIP3    H233014   3.595   3.666   8.207  0.5961  0.7421 -0.3398
 3819TIP3   OH233015   2.678   0.578   0.463 -0.3316 -0.1787  0.2181
 3819TIP3    H133016   2.694   0.518   0.391 -0.5603  0.8796 -0.7470
 3819TIP3    H233017   2.715   0.534   0.540  0.3541 -1.1116 -0.6199
 3820TIP3   OH233018   2.728   5.009   0.006  0.4238 -0.7554 -0.3682
 3820TIP3    H133019   2.743   4.926   0.051  0.6825 -0.6576 -0.2716
 3820TIP3    H233020   2.758   5.076   0.068 -1.5062 -0.4730  0.3046
 3821TIP3   OH233021   3.299   4.383   0.936  0.1531 -0.5182  0.2906
 3821TIP3    H133022   3.222   4.395   0.991 -0.5306 -2.1193 -0.2426
 3821TIP3    H233023   3.339   4.302   0.968 -0.2283 -1.4553 -1.4428
 3822TIP3   OH233024   0.992   5.228   1.521  0.1265 -0.4075  0.0589
 3822TIP3    H133025   1.018   5.230   1.613 -0.7374  1.3617  0.3004
 3822TIP3    H233026   0.912   5.175   1.519 -0.6624  0.7298  0.5798
 3823TIP3   OH233027   2.469   0.562   7.616  0.5000  0.8366  0.6145
 3823TIP3    H133028   2.431   0.593   7.698  1.1562  1.3635  0.7341
 3823TIP3    H233029   2.545   0.510   7.642 -0.5131 -0.8070  0.4016
 3824TIP3   OH233030   0.322   3.174   1.236  0.0692 -0.1981  0.0890
 3824TIP3    H133031   0.362   3.198   1.152  0.0552 -0.1199  0.1044
 3824TIP3    H233032   0.244   3.124   1.212  1.0585 -1.7943  0.0712
 3825TIP3   OH233033   1.675   6.149   6.907 -0.2845  0.1797 -0.9528
 3825TIP3    H133034   1.657   6.156   7.001 -1.1570  0.3903 -1.1296
 3825TIP3    H233035   1.735   6.221   6.889 -0.6989  0.5971 -0.6922
 3826TIP3   OH233036   5.447   3.686   2.554  0.1229 -0.4223  0.1866
 3826TIP3    H133037   5.453   3.765   2.608 -2.4949  0.3885 -0.5648
 3826TIP3    H233038   5.385   3.630   2.600 -1.5610 -0.0424 -1.4871
 3827TIP3   OH233039   1.229   4.141   8.362  0.3158  0.1856  0.0925
 3827TIP3    H133040   1.202   4.110   8.275  0.8084 -0.5705  0.1933
 3827TIP3    H233041   1.245   4.060   8.412  1.5697  0.6019  0.3993
 3828TIP3   OH233042   1.990   4.339   1.246 -1.1388 -0.4261 -0.6206
 3828TIP3    H133043   2.056   4.372   1.307 -1.4854  0.3532 -0.6509
 3828TIP3    H233044   1.985   4.405   1.178 -3.0206  0.3268  0.1685
 3829TIP3   OH233045   4.627   4.172   8.419 -0.5494 -0.1158 -0.5605
 3829TIP3    H133046   4.646   4.226   8.496 -2.1148  0.8752 -0.8192
 3829TIP3    H233047   4.531   4.168   8.415 -0.4888 -1.6032 -1.4786
 3830TIP3   OH233048   5.007   3.167   8.435  0.4370  0.2725  0.4650
 3830TIP3    H133049   4.955   3.095   8.471  1.0005 -0.8585 -0.8439
 3830TIP3    H233050   5.057   3.201   8.509 -0.2142 -0.3610  1.2093
 3831TIP3   OH233051   2.637   1.233   6.967 -0.1828  0.4109 -0.1591
 3831TIP3    H133052   2.705   1.175   7.001  0.0178 -0.1568 -1.4480
 3831TIP3    H233053   2.631   1.304   7.030  1.7571  0.5853 -0.1154
 3832TIP3   OH233054   1.648   4.582   6.960  0.2787  0.6323 -0.3502
 3832TIP3    H133055   1.602   4.573   6.877  0.5794  0.6583 -0.5199
 3832TIP3    H233056   1.686   4.669   6.958  0.8636  0.3756 -0.4786
 3833TIP3   OH233057   6.632   6.083   7.106 -0.2673 -0.2836 -0.1823
 3833TIP3    H133058   6.682   6.017   7.058 -0.5454 -1.2493  0.8199
 3833TIP3    H233059   6.587   6.132   7.038  0.9241 -0.3104 -1.0188
 3834TIP3   OH233060   0.534   1.242   0.450  0.5802  0.0824  0.4347
 3834TIP3    H133061   0.492   1.156   0.443 -0.4227  0.5445  0.5942
 3834TIP3    H233062   0.535   1.276   0.361 -0.0054  0.3580  0.5336
 3835TIP3   OH233063   0.891   6.633   0.229  0.8702  0.6714  0.3250
 3835TIP3    H133064   0.879   6.550   0.274 -0.7418 -0.0805 -1.3664
 3835TIP3    H233065   0.803   6.667   0.216  1.3542  1.5459 -0.9215
 3836TIP3   OH233066   4.777   1.918   1.700 -0.3954  0.2574 -0.2566
 3836TIP3    H133067   4.693   1.930   1.744 -0.4060 -0.7471  0.0303
 3836TIP3    H233068   4.765   1.839   1.646  1.3220 -2.0075  2.3813
 3837TIP3   OH233069   3.710   5.836   1.201  0.6669 -0.7690  0.1745
 3837TIP3    H133070   3.694   5.918   1.247 -1.2406 -1.7864  1.4515
 3837TIP3    H233071   3.738   5.775   1.270  1.9809 -1.2543 -0.7381
 3838TIP3   OH233072   2.012   2.539   1.749 -0.0892  0.4310 -0.8499
 3838TIP3    H133073   1.948   2.571   1.813  1.0001  2.6720 -0.7898
 3838TIP3    H233074   1.971   2.461   1.712 -1.2249 -0.3204  1.7767
 3839TIP3   OH233075   1.311   2.037   8.352  0.6432  0.4226  0.0930
 3839TIP3    H133076   1.245   1.986   8.398  1.4765 -0.4698  0.3458
 3839TIP3    H233077   1.338   1.980   8.279  0.5570  1.1060 -0.4774
 3840TIP3   OH233078   2.633   0.727   8.664  0.9682 -0.3384  0.0231
 3840TIP3    H133079   2.566   0.795   8.667  1.8909  0.6029 -0.1237
 3840TIP3    H233080   2.638   0.694   8.754  0.9656  0.2405  0.2370
 3841TIP3   OH233081   3.616   0.657   0.739 -0.3590 -0.2651 -0.1503
 3841TIP3    H133082   3.670   0.628   0.812  1.2245  3.3008  0.3394
 3841TIP3    H233083   3.657   0.617   0.662  0.4639 -0.8882  0.5852
 3842TIP3   OH233084   3.710   3.242   8.185 -0.0286 -0.0303  0.4380
 3842TIP3    H133085   3.654   3.320   8.183  1.2355  1.0711  3.2012
 3842TIP3    H233086   3.654   3.171   8.152 -1.2204  1.9598 -2.1895
 3843TIP3   OH233087   4.596   3.316   7.143  0.4574 -0.1965 -0.4951
 3843TIP3    H133088   4.615   3.322   7.050  1.3535  2.6955 -0.2067
 3843TIP3    H233089   4.534   3.387   7.160  0.7353 -0.3119  1.2014
 3844TIP3   OH233090   1.481   1.733   7.798 -0.5012 -0.3920  0.2592
 3844TIP3    H133091   1.550   1.679   7.837 -0.0902 -0.2470 -0.2503
 3844TIP3    H233092   1.403   1.712   7.848  0.2982  0.9372  2.1880
 3845TIP3   OH233093   3.565   6.818   0.027 -0.0294 -0.3809 -0.1946
 3845TIP3    H133094   3.593   6.746   0.085  0.5780  0.4892  0.6232
 3845TIP3    H233095   3.495   6.861   0.075  0.1045  0.0171 -0.3545
 3846TIP3   OH233096   5.079   4.532   8.646  0.0889  0.1816 -0.3414
 3846TIP3    H133097   5.063   4.535   8.551  1.3910  1.6906 -0.5653
 3846TIP3    H233098   5.083   4.439   8.667  1.1749 -0.1999 -2.0486
 3847TIP3   OH233099   4.231   5.006   2.057  0.2395 -0.4101 -0.4525
 3847TIP3    H133100   4.181   4.925   2.041  2.0463 -1.4270 -1.2559
 3847TIP3    H233101   4.249   5.040   1.970  0.6073  0.1556 -0.1569
 3848TIP3   OH233102   0.167   5.181   7.069 -0.7113  0.6263  0.1503
 3848TIP3    H133103   0.147   5.088   7.078 -0.9095  0.6266 -0.2563
 3848TIP3    H233104   0.095   5.226   7.113 -0.2374  0.5796  1.0008
 3849TIP3   OH233105   0.313   2.415   7.403  0.2293 -0.0524 -0.2661
 3849TIP3    H133106   0.343   2.499   7.367 -0.1077  0.5967  0.9148
 3849TIP3    H233107   0.387   2.356   7.390  0.9187  0.7423 -0.0769
 3850TIP3   OH233108   2.361   2.786   7.383 -0.2894  0.0583 -0.7426
 3850TIP3    H133109   2.293   2.779   7.450 -1.2760 -2.0478 -1.8744
 3850TIP3    H233110   2.323   2.843   7.316  0.0345  0.7995 -0.3115
 3851TIP3   OH233111   5.812   1.894   8.633 -0.0818  0.2845  0.2629
 3851TIP3    H133112   5.867   1.816   8.638  0.3880  0.4395 -1.7366
 3851TIP3    H233113   5.760   1.892   8.714  1.2439 -1.0663  1.1361
 3852TIP3   OH233114   2.008   1.608   0.124 -0.0438  0.3896  0.1867
 3852TIP3    H133115   1.961   1.691   0.131 -1.6923 -0.3895 -1.0003
 3852TIP3    H233116   2.079   1.626   0.063  0.0178  1.0859  0.4484
 3853TIP3   OH233117   0.368   4.734   7.608  0.2429 -0.4648  0.3555
 3853TIP3    H133118   0.417   4.807   7.646  1.5827 -0.6708 -0.8565
 3853TIP3    H233119   0.406   4.656   7.650 -1.1441 -0.5070  1.6065
 3854TIP3   OH233120   4.654   1.668   8.471  0.0931 -0.3834 -0.3872
 3854TIP3    H133121   4.571   1.629   8.499 -1.0906  2.8645  1.1090
 3854TIP3    H233122   4.708   1.668   8.550  0.5969 -0.2166 -0.7268
 3855TIP3   OH233123   1.347   5.661   7.163  0.2253 -0.4221 -0.2434
 3855TIP3    H133124   1.334   5.715   7.241 -0.2153 -1.4670  0.4256
 3855TIP3    H233125   1.288   5.587   7.175  0.1789 -0.6176 -1.5597
 3856TIP3   OH233126   2.335   5.465   1.550 -0.4765  1.1136  0.0298
 3856TIP3    H133127   2.430   5.451   1.544 -0.7624 -0.4604 -1.3446
 3856TIP3    H233128   2.325   5.559   1.542  0.8641  1.1564 -1.8752
 3857TIP3   OH233129   3.728   1.818   1.548 -0.2834 -0.3909  0.2621
 3857TIP3    H133130   3.807   1.839   1.599 -1.1053  0.8606  1.0661
 3857TIP3    H233131   3.658   1.814   1.613 -0.8711 -1.7210 -0.4165
 3858TIP3   OH233132   3.734   1.079   2.687 -0.2519  0.7354  0.3005
 3858TIP3    H133133   3.752   1.044   2.600  0.3591  0.6888  0.4378
 3858TIP3    H233134   3.643   1.058   2.704  0.4034 -1.9318  0.9075
 3859TIP3   OH233135   3.851   6.537   1.695 -0.1433  0.6968  0.3194
 3859TIP3    H133136   3.925   6.489   1.733 -1.7829 -2.4401 -0.1078
 3859TIP3    H233137   3.807   6.576   1.770  0.3205  0.1060  0.9136
 3860TIP3   OH233138   3.972   2.528   2.239  0.1055  0.2036 -0.0477
 3860TIP3    H133139   3.895   2.577   2.269  0.1387  0.1193  0.1696
 3860TIP3    H233140   4.043   2.555   2.297  0.2422  0.2828 -0.2504
 3861TIP3   OH233141   4.977   5.289   0.326  0.0442 -0.2880  0.6903
 3861TIP3    H133142   5.045   5.234   0.287  0.9807  0.2140  1.5619
 3861TIP3    H233143   5.010   5.378   0.319 -0.4162 -0.0567  1.3471
 3862TIP3   OH233144   3.474   3.123   8.036  0.2323  0.1103  0.3305
 3862TIP3    H133145   3.401   3.179   8.062 -0.1952 -0.3304  0.1131
 3862TIP3    H233146   3.434   3.036   8.025  1.1127 -0.5309  1.9027
 3863TIP3   OH233147   0.028   6.681   1.832 -0.2441 -0.0084 -0.5327
 3863TIP3    H133148   0.023   6.750   1.897  1.4539 -1.3349  1.0962
 3863TIP3    H233149  -0.055   6.687   1.784 -1.4196  1.2034  1.5333
 3864TIP3   OH233150   1.540   6.387   7.265 -0.1620 -0.3503  0.0240
 3864TIP3    H133151   1.457   6.362   7.224  0.3042 -0.3501 -0.9654
 3864TIP3    H233152   1.596   6.412   7.191  0.2717  0.9793  0.7841
 3865TIP3   OH233153   6.045   2.400   1.159  0.6721 -0.1040 -0.5271
 3865TIP3    H133154   6.002   2.485   1.160 -0.3225 -0.5820 -0.5740
 3865TIP3    H233155   5.979   2.340   1.194  1.0765 -0.9749 -1.2212
 3866TIP3   OH233156   0.171   1.739   7.552  0.2444  0.1682 -0.0012
 3866TIP3    H133157   0.122   1.821   7.563  0.7347  0.5665 -0.7202
 3866TIP3    H233158   0.207   1.744   7.463  0.4098 -0.7608  0.0023
 3867TIP3   OH233159   0.601   1.823   0.225  0.1747 -0.3397  0.5327
 3867TIP3    H133160   0.630   1.903   0.267 -0.2932 -0.9428  2.0656
 3867TIP3    H233161   0.570   1.851   0.139  0.3796  1.0504  0.8868
 3868TIP3   OH233162   2.210   0.824   0.555 -0.4219  0.4955  0.3792
 3868TIP3    H133163   2.260   0.800   0.633 -0.2241  3.1349  1.1768
 3868TIP3    H233164   2.261   0.894   0.514 -1.0492 -0.1072 -1.5855
 3869TIP3   OH233165   2.217   6.281   1.237 -0.2156  0.2037 -0.0897
 3869TIP3    H133166   2.255   6.368   1.241  1.2333 -0.4022 -0.0358
 3869TIP3    H233167   2.292   6.222   1.243 -0.7230 -1.0711 -3.7534
 3870TIP3   OH233168   1.197   4.355   7.518 -0.6004 -0.0714  0.0580
 3870TIP3    H133169   1.235   4.388   7.600 -1.5557 -0.1179  0.5308
 3870TIP3    H233170   1.263   4.374   7.452  0.8306 -1.3277  1.0549
 3871TIP3   OH233171   1.382   3.675   7.022  0.7493  0.6433  0.3292
 3871TIP3    H133172   1.310   3.674   6.958  2.0845  0.4541 -1.2308
 3871TIP3    H233173   1.349   3.728   7.094 -0.6230  1.3097 -0.7419
 3872TIP3   OH233174   2.258   1.678   7.739 -0.4732 -0.2180 -0.3477
 3872TIP3    H133175   2.167   1.707   7.740 -0.0103  1.4493 -1.8804
 3872TIP3    H233176   2.308   1.757   7.721  1.1650 -1.3682 -1.0651
 3873TIP3   OH233177   2.563   2.703   1.558 -0.0673  0.1618  0.1083
 3873TIP3    H133178   2.640   2.730   1.507 -0.9527  2.0039 -0.3331
 3873TIP3    H233179   2.526   2.630   1.508  0.3373  0.4843 -0.6753
 3874TIP3   OH233180   1.969   0.101   0.850 -0.5618 -0.0903  0.2377
 3874TIP3    H133181   1.984   0.009   0.872  0.7322  0.3037  1.1515
 3874TIP3    H233182   1.946   0.100   0.757 -0.4179 -1.3227  0.1946
 3875TIP3   OH233183   5.694   4.970   8.364 -0.3988 -0.3657 -0.3059
 3875TIP3    H133184   5.782   4.935   8.378 -0.1208  0.7070  0.7342
 3875TIP3    H233185   5.654   4.972   8.451 -1.8230 -1.7201 -0.8755
 3876TIP3   OH233186   2.576   0.109   7.528 -0.2565 -0.0744  0.5320
 3876TIP3    H133187   2.567   0.164   7.606  1.3963  3.0934 -1.3018
 3876TIP3    H233188   2.658   0.062   7.541 -0.6292 -0.5436  1.2257
 3877TIP3   OH233189   3.263   1.862   8.113 -0.7198  0.0835  0.1490
 3877TIP3    H133190   3.269   1.883   8.206 -1.0259 -1.1009  0.4601
 3877TIP3    H233191   3.288   1.943   8.068  2.8980 -0.2243  1.2340
 3878TIP3   OH233192   0.398   5.509   6.529 -0.0548 -0.5294 -0.2815
 3878TIP3    H133193   0.471   5.446   6.533  0.7506  0.3199 -0.9701
 3878TIP3    H233194   0.398   5.538   6.438 -0.8460 -0.0298 -0.1266
 3879TIP3   OH233195   1.155   1.316   6.691 -0.3886 -0.2529 -0.2407
 3879TIP3    H133196   1.079   1.370   6.713  0.1466  0.0000  1.0675
 3879TIP3    H233197   1.163   1.324   6.596 -0.3612  1.9258 -0.1042
 3880TIP3   OH233198   6.230   1.828   2.877  0.3164  0.4732  0.0551
 3880TIP3    H133199   6.263   1.787   2.957  1.4413 -1.2594 -1.2304
 3880TIP3    H233200   6.250   1.921   2.889  1.2778  0.1286  1.4213
 3881TIP3   OH233201   0.296   6.323   1.124 -0.4144 -0.5224 -0.8488
 3881TIP3    H133202   0.253   6.239   1.136  3.1580 -2.7159 -1.8761
 3881TIP3    H233203   0.268   6.352   1.037  0.8087 -2.3842 -1.9185
 3882TIP3   OH233204   1.004   6.578   7.956  0.0275  0.1821  0.0011
 3882TIP3    H133205   0.925   6.525   7.964  1.1671 -1.6427 -0.1729
 3882TIP3    H233206   1.013   6.621   8.041 -0.3730 -0.7402  0.5234
 3883TIP3   OH233207   5.653   1.625   1.906  0.3151 -0.4753 -0.1517
 3883TIP3    H133208   5.692   1.699   1.860 -1.2501 -1.0464 -2.6398
 3883TIP3    H233209   5.651   1.555   1.841 -3.7757 -0.7829  0.0233
 3884TIP3   OH233210   5.544   2.940   0.520 -0.1516  0.1506 -0.2026
 3884TIP3    H133211   5.561   2.904   0.607 -1.3079  0.5958  0.2245
 3884TIP3    H233212   5.572   3.032   0.527 -2.6919  0.9494  0.5680
 3885TIP3   OH233213   4.252   6.343   8.576 -0.4102  0.0200  0.4301
 3885TIP3    H133214   4.206   6.266   8.542  1.1304 -0.2728 -1.1279
 3885TIP3    H233215   4.320   6.308   8.632  0.4121  0.1950 -0.4265
 3886TIP3   OH233216   0.331   3.977   8.052 -0.1721 -0.2604 -0.2780
 3886TIP3    H133217   0.304   3.910   8.115  3.2723 -0.1105  1.5794
 3886TIP3    H233218   0.355   3.928   7.973 -2.6528 -0.6129 -0.9145
 3887TIP3   OH233219   6.853   6.113   7.997 -0.1870  0.4549  0.1705
 3887TIP3    H133220   6.917   6.062   8.047 -0.9274  0.1548  0.8490
 3887TIP3    H233221   6.828   6.056   7.924 -0.8256 -0.0876  0.7870
 3888TIP3   OH233222   3.067   4.656   0.564 -0.0737  0.2408  0.4440
 3888TIP3    H133223   3.064   4.571   0.520  0.8148  0.0083  0.8044
 3888TIP3    H233224   3.160   4.673   0.576 -0.2703  0.8859  1.1101
 3889TIP3   OH233225   2.031   3.096   7.076 -0.1635  0.1596  0.4556
 3889TIP3    H133226   2.118   3.119   7.042  0.3440  1.4402  2.4664
 3889TIP3    H233227   1.992   3.180   7.100 -1.0271 -0.5758  1.7114
 3890TIP3   OH233228   2.737   3.067   1.420  0.0883 -0.0807  0.2942
 3890TIP3    H133229   2.811   3.082   1.479  1.3080 -3.1235 -0.2730
 3890TIP3    H233230   2.739   3.142   1.360  0.4749  1.7026  2.4135
 3891TIP3   OH233231   1.303   3.992   1.118  0.2242  0.3004  0.2271
 3891TIP3    H133232   1.318   3.927   1.186 -0.3218  0.6955  0.7422
 3891TIP3    H233233   1.216   4.026   1.136  0.2960  0.8100 -0.3349
 3892TIP3   OH233234   2.465   2.035   8.235  0.1245  0.0507  0.1443
 3892TIP3    H133235   2.518   1.998   8.164 -0.1018 -1.3962  0.7141
 3892TIP3    H233236   2.485   2.129   8.232  0.3708 -0.0140 -1.6202
 3893TIP3   OH233237   5.667   1.296   8.406  0.6072  0.1204 -0.2553
 3893TIP3    H133238   5.703   1.385   8.406  0.5504  0.1664  1.1086
 3893TIP3    H233239   5.742   1.240   8.429  0.0870  0.1197  1.6351
 3894TIP3   OH233240   5.636   6.354   0.190 -0.4752 -0.3278 -0.0362
 3894TIP3    H133241   5.694   6.411   0.240  0.3571 -0.5343 -0.7502
 3894TIP3    H233242   5.598   6.295   0.255  0.2570 -0.3107  0.4158
 3895TIP3   OH233243   5.696   0.385   1.313  0.0906  0.6111  0.0890
 3895TIP3    H133244   5.657   0.472   1.315  1.1867  1.1564 -0.8978
 3895TIP3    H233245   5.790   0.401   1.321  0.2924 -0.4963  0.0857
 3896TIP3   OH233246   6.711   1.901   2.147  0.2129 -0.1213 -0.0447
 3896TIP3    H133247   6.647   1.963   2.112  0.9106  0.0261 -1.1233
 3896TIP3    H233248   6.754   1.864   2.069  1.2766 -0.3772  0.6352
 3897TIP3   OH233249   2.318   3.943   2.447  0.0813 -0.1785  0.2905
 3897TIP3    H133250   2.234   3.990   2.447  0.5126  0.6579 -0.9633
 3897TIP3    H233251   2.356   3.963   2.532 -0.6088  0.1656  0.5282
 3898TIP3   OH233252   3.545   1.486   0.234  0.1805 -0.1479  0.1653
 3898TIP3    H133253   3.467   1.444   0.272 -1.3551  2.4672  0.1346
 3898TIP3    H233254   3.566   1.432   0.158 -1.2266 -1.2705  0.5319
 3899TIP3   OH233255   6.064   0.294   1.188  0.0636  0.2029 -0.4065
 3899TIP3    H133256   6.066   0.373   1.242  0.0536 -1.3216  1.9787
 3899TIP3    H233257   5.981   0.252   1.209 -0.2243 -0.1733 -2.1291
 3900TIP3   OH233258   3.895   6.173   1.170 -0.0169 -0.3500 -0.2235
 3900TIP3    H133259   3.804   6.154   1.146 -0.9607  2.1564  0.9983
 3900TIP3    H233260   3.896   6.171   1.266  0.8565  0.9785 -0.1777
 3901TIP3   OH233261   3.739   3.841   1.435 -0.5178  0.0419  0.1231
 3901TIP3    H133262   3.808   3.871   1.494  0.2054  1.2459 -1.2682
 3901TIP3    H233263   3.725   3.750   1.459  0.7617  0.0913  1.1868
 3902TIP3   OH233264   0.538   6.249   1.617 -0.0904  0.7223  0.2816
 3902TIP3    H133265   0.502   6.257   1.529 -1.2688 -2.9985  0.2083
 3902TIP3    H233266   0.622   6.204   1.605 -0.3079  0.0985  1.0085
 3903TIP3   OH233267   3.069   1.931   8.557  0.0349  0.0453  0.4483
 3903TIP3    H133268   3.121   2.009   8.575  1.1301 -0.2766 -1.1116
 3903TIP3    H233269   2.979   1.962   8.553  0.5015  1.3465 -0.6798
 3904TIP3   OH233270   1.682   5.044   8.009 -0.0152 -0.0867  0.0705
 3904TIP3    H133271   1.596   5.068   7.973 -0.8158 -1.1570  1.1843
 3904TIP3    H233272   1.731   5.126   8.008 -1.2970  0.7207  0.0575
 3905TIP3   OH233273   2.135   1.712   7.251 -0.5101 -0.4353  0.2093
 3905TIP3    H133274   2.203   1.769   7.284 -0.2395 -0.7128  0.1379
 3905TIP3    H233275   2.179   1.628   7.237 -0.9164 -0.6783  0.3741
 3906TIP3   OH233276   3.967   6.824   1.196 -0.2425 -0.3591 -0.3228
 3906TIP3    H133277   3.990   6.792   1.109  0.2722 -0.2641 -0.2237
 3906TIP3    H233278   4.040   6.879   1.221 -0.6378  0.0508 -0.0508
 3907TIP3   OH233279   3.167   0.657   0.381  0.0895  0.3215 -0.2041
 3907TIP3    H133280   3.111   0.731   0.406  0.1705  0.6295 -0.9046
 3907TIP3    H233281   3.172   0.662   0.286 -2.3682 -2.3410 -0.6161
 3908TIP3   OH233282   4.551   3.597   7.369 -0.2024  0.3937  0.2292
 3908TIP3    H133283   4.546   3.571   7.461 -1.8181 -0.8156 -0.1444
 3908TIP3    H233284   4.642   3.622   7.356  0.0592  0.5838  2.1448
 3909TIP3   OH233285   1.913   0.197   0.060 -0.5335 -0.0382 -0.0202
 3909TIP3    H133286   1.892   0.170   0.150  3.2052  0.5160  1.1983
 3909TIP3    H233287   1.951   0.284   0.070  1.4305 -0.6067 -1.8791
 3910TIP3   OH233288   5.210   3.673   6.923 -0.3620  0.0781  0.1576
 3910TIP3    H133289   5.204   3.722   6.841 -1.7729 -2.0010 -1.0719
 3910TIP3    H233290   5.286   3.616   6.912 -0.5888 -0.2507  0.2798
 3911TIP3   OH233291   2.251   2.303   7.892 -0.1737  0.0039 -0.1538
 3911TIP3    H133292   2.184   2.329   7.829 -1.7468 -1.4071  0.8434
 3911TIP3    H233293   2.234   2.210   7.907  0.6708  0.1165  1.7038
 3912TIP3   OH233294   2.953   2.830   6.133  0.3624 -0.2891  0.3305
 3912TIP3    H133295   2.997   2.905   6.174 -0.3574  0.4955 -0.2932
 3912TIP3    H233296   3.013   2.757   6.145  0.6030  0.1346  1.9122
 3913TIP3   OH233297   4.559   5.179   0.414 -0.3259  0.7419  0.3961
 3913TIP3    H133298   4.595   5.239   0.349  0.8204 -0.3252  0.0189
 3913TIP3    H233299   4.589   5.214   0.498 -0.6631  1.3525  0.2674
 3914TIP3   OH233300   0.369   3.137   8.223  0.2432 -0.1859 -0.1841
 3914TIP3    H133301   0.440   3.151   8.286  0.8725 -0.5203 -0.8063
 3914TIP3    H233302   0.387   3.198   8.151 -0.6961  0.4832  0.1198
 3915TIP3   OH233303   0.679   6.678   0.756  0.5573 -0.0673  0.3440
 3915TIP3    H133304   0.622   6.706   0.685  1.0739 -0.2954 -0.1621
 3915TIP3    H233305   0.766   6.710   0.733  0.7889 -0.4039  0.7174
 3916TIP3   OH233306   2.197   6.306   0.910 -0.0361 -0.0925  0.6309
 3916TIP3    H133307   2.145   6.323   0.988 -1.8015 -3.1423  0.2725
 3916TIP3    H233308   2.135   6.315   0.837  1.1561  0.9333 -0.3042
 3917TIP3   OH233309   4.303   3.927   7.723 -0.1631 -0.0576  0.4414
 3917TIP3    H133310   4.335   4.016   7.729 -0.9055  0.1461  2.0265
 3917TIP3    H233311   4.219   3.934   7.677  0.7372 -0.2350 -1.2781
 3918TIP3   OH233312   4.344   2.946   0.038 -0.0129 -0.1301  0.2246
 3918TIP3    H133313   4.401   2.913   0.108  1.9984  3.4959  0.5547
 3918TIP3    H233314   4.386   2.917  -0.043 -0.6298 -1.7679  0.4652
 3919TIP3   OH233315   2.965   6.518   0.612  0.0915  0.2884 -0.0174
 3919TIP3    H133316   3.054   6.482   0.616  0.6115  1.5283  0.1258
 3919TIP3    H233317   2.952   6.558   0.698 -0.8419 -0.3904  0.1685
 3920TIP3   OH233318   3.402   0.512   8.520 -0.2678 -0.5172 -0.0199
 3920TIP3    H133319   3.377   0.552   8.603 -0.1428  0.2638 -0.3403
 3920TIP3    H233320   3.497   0.502   8.525 -0.4114 -1.7844  0.4775
 3921TIP3   OH233321   3.570   3.036   0.926  0.2915  0.8836 -0.4399
 3921TIP3    H133322   3.642   3.082   0.969  0.5037 -1.4601  2.0066
 3921TIP3    H233323   3.493   3.090   0.944  0.7575  1.1217  1.0206
 3922TIP3   OH233324   1.055   3.238   0.576  0.5576  0.3495  0.5003
 3922TIP3    H133325   1.015   3.151   0.565  0.9830  0.2293 -0.1338
 3922TIP3    H233326   1.113   3.228   0.652  0.1985  0.2329  0.7657
 3923TIP3   OH233327   5.378   0.215   1.844  0.1376  0.3542 -0.1531
 3923TIP3    H133328   5.291   0.255   1.854 -1.1340 -2.2049 -0.1117
 3923TIP3    H233329   5.380   0.184   1.753  0.9147  0.1585 -0.0787
 3924TIP3   OH233330   0.644   5.396   7.737 -0.6061 -0.2422 -0.0506
 3924TIP3    H133331   0.643   5.492   7.732 -1.3746 -0.2374  0.1058
 3924TIP3    H233332   0.553   5.372   7.757 -0.4192 -1.0038 -0.0929
 3925TIP3   OH233333   5.980   0.885   0.037 -0.3890  0.3397 -0.2499
 3925TIP3    H133334   6.016   0.947   0.101  1.4309 -0.3128 -0.5703
 3925TIP3    H233335   5.953   0.810   0.089  0.1858  0.2087 -0.1246
 3926TIP3   OH233336   6.389   6.354   7.665 -0.4376 -0.1256  0.4227
 3926TIP3    H133337   6.304   6.384   7.698 -0.2166 -0.3726  1.2408
 3926TIP3    H233338   6.367   6.290   7.597 -0.9106 -0.2331  0.6729
 3927TIP3   OH233339   2.358   4.619   7.705  0.3307 -0.3149 -0.2022
 3927TIP3    H133340   2.394   4.601   7.792 -0.3440 -0.2496  0.0988
 3927TIP3    H233341   2.434   4.641   7.651  0.8680 -1.3361  0.1130
 3928TIP3   OH233342   2.913   3.577   6.094 -0.7518  0.5340 -0.4772
 3928TIP3    H133343   2.971   3.634   6.144 -0.9480  1.3111 -1.1168
 3928TIP3    H233344   2.851   3.637   6.052 -0.8449 -0.1336 -1.3206
 3929TIP3   OH233345   0.479   6.605   6.537  0.4608 -0.9721  0.2737
 3929TIP3    H133346   0.462   6.651   6.619  0.0292  0.6463 -0.6695
 3929TIP3    H233347   0.566   6.636   6.510  0.3405 -1.0132 -0.1719
 3930TIP3   OH233348   1.824   1.304   1.519 -0.0255  0.5525 -0.2881
 3930TIP3    H133349   1.827   1.228   1.577 -1.3809  0.3757 -0.4234
 3930TIP3    H233350   1.889   1.284   1.451  2.7997  1.4878  1.9435
 3931TIP3   OH233351   4.137   3.602   1.241  0.6004  0.7246 -0.2314
 3931TIP3    H133352   4.138   3.523   1.295 -1.7120  0.1925 -0.8417
 3931TIP3    H233353   4.152   3.674   1.303 -0.5750  0.0230  0.9233
 3932TIP3   OH233354   4.746   1.710   0.561  0.4721 -0.3031 -0.2589
 3932TIP3    H133355   4.675   1.740   0.618  0.7701  0.5820 -0.3260
 3932TIP3    H233356   4.708   1.639   0.510 -1.0239  1.4206 -1.7112
 3933TIP3   OH233357   2.926   6.696   8.212  0.0137  0.2545 -0.2651
 3933TIP3    H133358   2.841   6.717   8.174 -0.0772 -0.8667 -0.7264
 3933TIP3    H233359   2.970   6.643   8.145  0.5795 -0.2138  0.4568
 3934TIP3   OH233360   6.758   5.483   1.091 -0.2262  0.3767 -0.1687
 3934TIP3    H133361   6.682   5.511   1.040 -0.0462 -0.4961 -0.9510
 3934TIP3    H233362   6.769   5.391   1.067  2.4144  1.0253 -1.8009
 3935TIP3   OH233363   6.635   4.801   0.734 -0.3415 -0.0692 -0.2810
 3935TIP3    H133364   6.543   4.775   0.735 -0.1068 -0.9147  0.6659
 3935TIP3    H233365   6.634   4.891   0.701 -1.5445  0.0609  0.0653
 3936TIP3   OH233366   3.058   5.438   8.099  0.1230  0.1732  0.0511
 3936TIP3    H133367   3.048   5.526   8.063 -0.7085  0.7033  1.4689
 3936TIP3    H233368   3.148   5.436   8.133 -0.6296  1.4407  2.3063
 3937TIP3   OH233369   0.730   0.179   0.832  0.4627 -0.1770  0.3713
 3937TIP3    H133370   0.751   0.182   0.925  2.5018  2.3929 -0.0604
 3937TIP3    H233371   0.745   0.268   0.800 -0.1806 -0.9480 -2.4423
 3938TIP3   OH233372   0.249   5.900   0.070  0.2229  0.1371 -0.2057
 3938TIP3    H133373   0.161   5.867   0.087 -0.0704  1.1566  0.3478
 3938TIP3    H233374   0.285   5.840   0.005 -0.9211 -0.2432 -0.5174
 3939TIP3   OH233375   6.530   3.535   1.711 -0.1580  0.3860  0.5860
 3939TIP3    H133376   6.551   3.501   1.798 -1.5542 -1.3120  0.3153
 3939TIP3    H233377   6.435   3.551   1.714 -0.3696 -0.4713 -0.8521
 3940TIP3   OH233378   0.465   1.217   7.089  0.2889  0.3348  0.3725
 3940TIP3    H133379   0.553   1.250   7.067  0.0787  0.5019 -0.2385
 3940TIP3    H233380   0.476   1.122   7.094  0.0282  0.1298 -2.0552
 3941TIP3   OH233381   3.066   0.989   8.642 -0.3194 -0.2736 -0.1318
 3941TIP3    H133382   3.054   1.083   8.652  1.1940 -0.0637 -0.1063
 3941TIP3    H233383   3.061   0.954   8.731 -1.0850 -0.2527 -0.1620
 3942TIP3   OH233384   6.120   3.504   6.714  0.2698 -0.1873 -0.5994
 3942TIP3    H133385   6.209   3.521   6.680  0.3018  0.4379 -0.2306
 3942TIP3    H233386   6.068   3.577   6.680  0.7668  1.7687  2.4265
 3943TIP3   OH233387   4.029   5.204   7.821 -0.1441  0.1655 -0.2922
 3943TIP3    H133388   4.013   5.275   7.883  0.8969 -0.9970  1.4079
 3943TIP3    H233389   4.079   5.139   7.872 -1.0346 -1.7713 -1.7694
 3944TIP3   OH233390   3.397   0.143   0.186 -0.4514 -0.0478  1.0101
 3944TIP3    H133391   3.316   0.094   0.169 -0.4659 -0.1661  1.4131
 3944TIP3    H233392   3.370   0.213   0.245  0.0668 -1.1842  2.6714
 3945TIP3   OH233393   5.232   0.787   0.593  0.2159  0.0152 -0.1009
 3945TIP3    H133394   5.199   0.805   0.681 -0.1854 -0.0311 -0.2382
 3945TIP3    H233395   5.250   0.874   0.556  1.9574 -0.0128  0.6035
 3946TIP3   OH233396   2.789   0.951   1.120  0.3554 -0.0021 -0.1450
 3946TIP3    H133397   2.706   0.997   1.137 -0.2690 -0.8972 -0.6757
 3946TIP3    H233398   2.775   0.864   1.156  0.2524 -0.8560 -2.1330
 3947TIP3   OH233399   6.505   3.084   1.551 -0.2741  0.1941  0.2540
 3947TIP3    H133400   6.486   3.177   1.563 -0.6982  0.2238 -0.5928
 3947TIP3    H233401   6.544   3.078   1.463  1.1689 -0.2320  0.8825
 3948TIP3   OH233402   6.080   5.258   7.760  0.0233 -0.1495  0.4143
 3948TIP3    H133403   6.024   5.273   7.836 -0.3360  0.8725 -0.0339
 3948TIP3    H233404   6.026   5.284   7.685  1.4793  2.0422  0.0462
 3949TIP3   OH233405   1.685   6.528   6.240 -0.3236  0.2938 -0.0102
 3949TIP3    H133406   1.630   6.452   6.259 -2.7143  1.8300 -0.4420
 3949TIP3    H233407   1.660   6.593   6.305  0.1064  1.4699 -0.9902
 3950TIP3   OH233408   4.491   2.139   7.310  0.1654 -0.0699 -0.3559
 3950TIP3    H133409   4.430   2.139   7.236 -1.0465 -1.2510  0.5792
 3950TIP3    H233410   4.578   2.139   7.270 -0.2967  3.5094 -1.7543
 3951TIP3   OH233411   0.710   2.081   1.833  0.6173  0.5253  0.4441
 3951TIP3    H133412   0.735   2.130   1.755  0.3358 -0.4268 -0.2667
 3951TIP3    H233413   0.727   2.141   1.906 -1.5432  2.4263 -0.5031
 3952TIP3   OH233414   2.367   6.512   7.410 -0.1541 -0.2534  0.0878
 3952TIP3    H133415   2.304   6.556   7.352  0.8611  0.3836 -0.5749
 3952TIP3    H233416   2.371   6.568   7.487  0.3557  0.2736 -0.3106
 3953TIP3   OH233417   4.200   2.081   7.259  0.4570  0.8419 -0.2642
 3953TIP3    H133418   4.146   2.003   7.241  0.0829  1.2423 -0.9313
 3953TIP3    H233419   4.254   2.091   7.181 -0.8778  2.3597 -1.0637
 3954TIP3   OH233420   4.593   4.159   0.937  0.6119  0.3683  0.3143
 3954TIP3    H133421   4.595   4.146   1.031 -0.2324 -0.7822  0.1866
 3954TIP3    H233422   4.517   4.215   0.921  0.7911  0.6152  0.3094
 3955TIP3   OH233423   2.718   5.877   1.644  0.5558 -0.1026  0.3771
 3955TIP3    H133424   2.674   5.932   1.708  0.3531  0.6507 -0.3975
 3955TIP3    H233425   2.785   5.830   1.695 -0.7692 -0.8802  1.4722
 3956TIP3   OH233426   3.040   4.815   1.108 -0.1498 -1.0343 -0.1187
 3956TIP3    H133427   2.989   4.755   1.162 -0.6274  1.0527  1.9113
 3956TIP3    H233428   2.988   4.895   1.104 -0.4772 -1.2329 -4.3799
 3957TIP3   OH233429   1.308   2.786   2.111 -0.6496  0.1662  0.3219
 3957TIP3    H133430   1.322   2.822   2.199 -0.3600  0.6006  0.1010
 3957TIP3    H233431   1.245   2.715   2.124 -0.7713  0.3661  0.8511
 3958TIP3   OH233432   3.873   2.340   1.546  0.0493 -0.1476  0.5849
 3958TIP3    H133433   3.788   2.381   1.562 -0.0114 -0.6419  1.5912
 3958TIP3    H233434   3.931   2.378   1.612  0.2701 -0.8015  0.7780
 3959TIP3   OH233435   3.200   1.891   0.138  0.3693 -0.2288  0.1323
 3959TIP3    H133436   3.267   1.854   0.081  2.2293  0.7927  1.5270
 3959TIP3    H233437   3.204   1.838   0.217  0.0702  0.3202  0.5190
 3960TIP3   OH233438   4.765   1.683   8.711  0.0375 -0.1055 -0.0368
 3960TIP3    H133439   4.754   1.599   8.755  2.5840  0.2116  1.4632
 3960TIP3    H233440   4.726   1.747   8.771  0.2886 -0.0110  0.0299
 3961TIP3   OH233441   0.552   4.627   7.162 -0.6512 -0.4142 -0.0750
 3961TIP3    H133442   0.567   4.602   7.071 -1.2672  0.3171 -0.3829
 3961TIP3    H233443   0.634   4.605   7.207 -0.8366 -2.1154 -0.5017
 3962TIP3   OH233444   1.475   5.898   7.330  0.4540  0.2420 -0.4654
 3962TIP3    H133445   1.550   5.927   7.278 -0.4436  0.9329 -1.4145
 3962TIP3    H233446   1.460   5.970   7.391 -0.0294  0.5327 -0.9246
 3963TIP3   OH233447   2.054   2.558   6.767 -0.2736  0.0761  0.3376
 3963TIP3    H133448   2.136   2.510   6.779 -0.4753 -0.5306 -0.5584
 3963TIP3    H233449   2.081   2.645   6.737  0.0601  0.0621  0.5967
 3964TIP3   OH233450   6.011   4.957   0.270  0.3909  0.4872 -0.1512
 3964TIP3    H133451   5.924   4.936   0.304  1.2067  0.2233  1.8619
 3964TIP3    H233452   6.016   5.052   0.272  0.6495  0.4539  1.0672
 3965TIP3   OH233453   4.263   1.000   1.269 -0.5862 -0.7691 -0.8683
 3965TIP3    H133454   4.191   1.006   1.206 -1.6021  0.9901  0.3541
 3965TIP3    H233455   4.231   0.940   1.336 -0.2592 -1.2159 -1.1114
 3966TIP3   OH233456   2.628   1.812   7.006 -0.5287 -0.0215  0.0594
 3966TIP3    H133457   2.660   1.841   7.092  1.4631  2.3339 -1.3155
 3966TIP3    H233458   2.534   1.827   7.009 -0.4660  0.2584  1.7412
 3967TIP3   OH233459   4.048   3.034   1.041 -0.0896 -0.1911  0.5141
 3967TIP3    H133460   4.061   2.972   1.112 -0.3994  1.0562  1.7121
 3967TIP3    H233461   3.957   3.063   1.051 -0.4010 -0.5887 -0.9085
 3968TIP3   OH233462   5.932   1.220   1.850 -0.1972  0.2081  0.3174
 3968TIP3    H133463   5.878   1.217   1.771  1.4995 -2.8810 -0.9161
 3968TIP3    H233464   5.993   1.292   1.835 -0.5771  0.3335 -0.6716
 3969TIP3   OH233465   5.615   0.877   7.836  0.2446 -0.7116  0.5323
 3969TIP3    H133466   5.696   0.889   7.886  0.6905 -1.5278  0.0346
 3969TIP3    H233467   5.616   0.785   7.810  0.6873 -0.0709 -2.0596
 3970TIP3   OH233468   2.888   6.732   7.033 -0.1621  0.8746  0.2095
 3970TIP3    H133469   2.852   6.783   6.960  1.1022  1.5450  0.0217
 3970TIP3    H233470   2.983   6.746   7.027  0.1968 -1.2451  0.3801
 3971TIP3   OH233471   0.758   1.602   1.271 -0.0031 -0.2271 -0.1996
 3971TIP3    H133472   0.844   1.570   1.298  0.6437 -0.4071 -2.3035
 3971TIP3    H233473   0.756   1.693   1.299 -0.1433 -0.8655  2.0289
 3972TIP3   OH233474   0.437   3.281   7.670 -0.1384 -0.6508 -0.2746
 3972TIP3    H133475   0.370   3.335   7.710 -1.3352 -0.2203 -2.6555
 3972TIP3    H233476   0.419   3.193   7.703 -1.0088 -0.3077  0.2101
 3973TIP3   OH233477   3.600   4.910   7.828  0.3997 -0.5470  0.4891
 3973TIP3    H133478   3.687   4.924   7.790 -0.7491 -1.2576 -2.7255
 3973TIP3    H233479   3.574   4.824   7.796 -0.5980 -1.4581  3.4321
 3974TIP3   OH233480   5.024   1.078   1.997 -0.2295 -0.1158  0.2217
 3974TIP3    H133481   4.947   1.119   1.957 -1.1049 -0.8923  1.0410
 3974TIP3    H233482   5.005   1.079   2.091  1.2287  0.5745  0.5341
 3975TIP3   OH233483   3.665   0.277   8.085  0.1241 -0.2985  0.0064
 3975TIP3    H133484   3.641   0.278   7.992  1.8078 -0.5649 -0.4615
 3975TIP3    H233485   3.663   0.369   8.112 -0.0662 -0.1873 -0.3823
 3976TIP3   OH233486   5.277   5.087   0.545 -0.4222  0.3861  0.2237
 3976TIP3    H133487   5.348   5.049   0.596 -0.1307  1.1023  0.3637
 3976TIP3    H233488   5.273   5.178   0.573 -2.6982 -0.0757  1.6855
 3977TIP3   OH233489   2.666   1.810   7.280  0.4710 -0.5547 -0.1859
 3977TIP3    H133490   2.613   1.884   7.309 -0.3846 -1.3424  0.2953
 3977TIP3    H233491   2.657   1.745   7.349  1.9148 -0.7992 -0.1832
 3978TIP3   OH233492   1.848   0.203   1.275 -0.5203 -0.4158 -0.3285
 3978TIP3    H133493   1.884   0.265   1.211  0.5555 -0.4930  0.1666
 3978TIP3    H233494   1.836   0.256   1.354 -3.0034 -0.0261 -0.8883
 3979TIP3   OH233495   0.537   6.192   2.347 -0.0930 -0.6115 -0.0611
 3979TIP3    H133496   0.495   6.144   2.418 -0.2045  1.6611  1.5210
 3979TIP3    H233497   0.624   6.214   2.381  0.3606 -0.6193 -1.1650
 3980TIP3   OH233498   3.630   4.276   8.149  0.1112 -0.1777 -0.0746
 3980TIP3    H133499   3.705   4.302   8.096 -1.0385  1.3437 -1.0387
 3980TIP3    H233500   3.600   4.358   8.189 -0.4823 -0.9158  1.0314
 3981TIP3   OH233501   2.144   4.303   7.988 -0.1857 -0.1968  0.0037
 3981TIP3    H133502   2.104   4.362   8.051  0.1581  0.9415 -0.8050
 3981TIP3    H233503   2.237   4.304   8.010  0.0423  0.7410 -0.8949
 3982TIP3   OH233504   2.513   3.557   1.874 -0.0644 -0.0660 -0.6887
 3982TIP3    H133505   2.479   3.554   1.963  2.3501  0.4250  0.3220
 3982TIP3    H233506   2.437   3.540   1.819 -2.0261  1.5705  1.3427
 3983TIP3   OH233507   3.345   6.388   7.976  0.6288  0.0750 -0.6022
 3983TIP3    H133508   3.290   6.458   8.011 -0.3411 -0.7987 -0.3227
 3983TIP3    H233509   3.292   6.349   7.906  1.0283 -0.5682 -0.5518
 3984TIP3   OH233510   1.621   1.499   0.774 -0.0010 -0.2155 -1.0506
 3984TIP3    H133511   1.593   1.589   0.762  3.4226  0.9383 -1.6631
 3984TIP3    H233512   1.548   1.456   0.819 -1.8126  2.7773 -0.8907
 3985TIP3   OH233513   0.793   3.040   0.034 -0.1404 -0.1569 -0.5370
 3985TIP3    H133514   0.721   3.094   0.066 -0.0662 -0.7632  0.7066
 3985TIP3    H233515   0.764   3.009  -0.051  0.5221  3.2346 -2.1521
 3986TIP3   OH233516   5.487   5.950   7.664 -0.3458 -0.4831  0.6011
 3986TIP3    H133517   5.425   5.977   7.597 -0.3159  0.4098  0.9162
 3986TIP3    H233518   5.459   5.997   7.743  0.1272 -0.8492  0.9960
 3987TIP3   OH233519   3.567   1.997   8.639 -0.0077 -0.0130 -0.0933
 3987TIP3    H133520   3.634   2.036   8.582 -0.4387  0.2237 -0.4433
 3987TIP3    H233521   3.558   2.059   8.711  0.1959 -0.0751 -0.0144
 3988TIP3   OH233522   3.403   1.466   8.202  0.0007  0.5534  0.6823
 3988TIP3    H133523   3.354   1.503   8.128 -1.0184  0.2515  1.1805
 3988TIP3    H233524   3.392   1.372   8.193  0.4113  0.4873  0.8680
 3989TIP3   OH233525   0.403   1.531   8.415  0.2805 -0.2005  0.1483
 3989TIP3    H133526   0.495   1.558   8.421  0.4391 -0.6276 -0.3685
 3989TIP3    H233527   0.360   1.603   8.371  0.2252  0.3229  1.0304
 3990TIP3   OH233528   6.001   1.194   1.107  0.2995 -0.3613 -0.0414
 3990TIP3    H133529   6.069   1.248   1.147  0.9141 -1.2530  0.1539
 3990TIP3    H233530   5.927   1.253   1.095  0.8078  0.4130  0.5426
 3991TIP3   OH233531   4.219   1.669   7.154  0.1379 -0.0313 -0.3500
 3991TIP3    H133532   4.173   1.605   7.100  1.5121 -0.3903 -1.1407
 3991TIP3    H233533   4.242   1.740   7.093 -0.9725  1.0375  0.4222
 3992TIP3   OH233534   6.586   6.246   0.422  0.3452 -0.6270  0.0857
 3992TIP3    H133535   6.623   6.301   0.353 -1.5067  2.6088  1.4641
 3992TIP3    H233536   6.625   6.279   0.503 -2.5019  0.3539  1.1949
 3993TIP3   OH233537   6.456   4.680   0.963 -0.1130 -0.0998  0.5763
 3993TIP3    H133538   6.497   4.595   0.952 -0.6199 -0.2019 -0.7161
 3993TIP3    H233539   6.390   4.667   1.031  1.8356  0.0347  2.5869
 3994TIP3   OH233540   5.255   6.018   8.246 -0.1986  0.2618  0.1679
 3994TIP3    H133541   5.172   5.976   8.268  0.2307 -0.1745  1.0379
 3994TIP3    H233542   5.306   5.949   8.204 -0.2433  0.4997 -0.2725
 3995TIP3   OH233543   4.488   0.321   2.064 -0.5181 -0.1792 -0.4088
 3995TIP3    H133544   4.559   0.386   2.067 -0.7328  0.0392 -0.0779
 3995TIP3    H233545   4.534   0.237   2.060 -0.2208  0.0250 -2.2847
 3996TIP3   OH233546   0.080   3.749   0.512 -0.3272 -0.4341 -0.5757
 3996TIP3    H133547   0.018   3.820   0.496  0.6224  0.3819 -0.7015
 3996TIP3    H233548   0.075   3.694   0.434  0.6177  0.7743 -1.5188
 3997TIP3   OH233549   6.248   0.922   0.654 -0.3355  0.0389  0.4208
 3997TIP3    H133550   6.197   0.842   0.665 -1.0929  0.2209 -1.4112
 3997TIP3    H233551   6.231   0.972   0.734 -1.6171 -0.6728  0.6209
 3998TIP3   OH233552   0.101   3.329   2.054  0.2753  0.0041 -0.1024
 3998TIP3    H133553   0.101   3.313   1.959 -0.0846 -0.5892 -0.0071
 3998TIP3    H233554   0.048   3.258   2.090 -1.1737  1.2704  0.3727
 3999TIP3   OH233555   5.929   2.480   0.542 -0.0321  0.3592 -0.1788
 3999TIP3    H133556   5.993   2.481   0.613  0.1379 -0.9220 -0.2986
 3999TIP3    H233557   5.961   2.546   0.480  1.2490 -0.3368 -0.2929
 4000TIP3   OH233558   2.646   2.122   0.830 -0.6527  0.2771  0.1807
 4000TIP3    H133559   2.577   2.107   0.765  0.0075  0.4286 -0.5666
 4000TIP3    H233560   2.725   2.138   0.779 -0.4337  1.9776  0.9764
 4001TIP3   OH233561   5.965   2.669   0.841 -0.0883  0.1285 -0.4014
 4001TIP3    H133562   5.946   2.743   0.783  0.7616 -0.1052 -0.9874
 4001TIP3    H233563   6.025   2.614   0.791  0.6638 -0.0788  0.6931
 4002TIP3   OH233564   6.383   6.357   8.568 -0.3883 -0.3070  0.0178
 4002TIP3    H133565   6.372   6.403   8.484 -1.7698  0.2336  0.4744
 4002TIP3    H233566   6.459   6.301   8.554  2.0306  2.7426 -0.2865
 4003TIP3   OH233567   5.074   4.401   7.258 -0.1522  0.0264 -0.1078
 4003TIP3    H133568   5.112   4.363   7.337  0.2659  1.5836  0.4850
 4003TIP3    H233569   5.046   4.489   7.284 -2.8888 -0.5239 -0.9017
 4004TIP3   OH233570   3.511   4.112   8.567 -0.2335 -0.2157 -0.0832
 4004TIP3    H133571   3.499   4.056   8.643 -0.7645  0.4840  0.3534
 4004TIP3    H233572   3.451   4.077   8.501  1.6298 -2.0757 -0.9335
 4005TIP3   OH233573   4.949   4.617   0.355 -0.9644 -0.0117  0.2540
 4005TIP3    H133574   4.931   4.701   0.314  0.1705  0.0015 -0.2734
 4005TIP3    H233575   4.982   4.562   0.283 -0.1499 -0.3843  0.8976
 4006TIP3   OH233576   3.919   0.235   0.400  0.3522 -0.1634 -0.4036
 4006TIP3    H133577   3.921   0.325   0.369  0.2729  0.0497  0.1924
 4006TIP3    H233578   3.838   0.199   0.363  0.0389  0.2160 -0.0955
 4007TIP3   OH233579   0.932   5.986   0.258  0.1660 -0.5324  0.2779
 4007TIP3    H133580   0.924   5.900   0.218 -0.2130 -0.9000  1.1139
 4007TIP3    H233581   0.939   6.047   0.184 -0.3309 -1.2006 -0.3308
 4008TIP3   OH233582   1.876   4.850   1.753  0.1307 -0.0080  0.4370
 4008TIP3    H133583   1.839   4.913   1.691 -1.1840 -1.0764  0.0890
 4008TIP3    H233584   1.840   4.766   1.726  0.6423 -0.7020  1.8135
 4009TIP3   OH233585   1.923   3.890   0.994  0.4609 -0.1336  0.1986
 4009TIP3    H133586   1.998   3.834   1.010  1.6645  1.6055  0.9126
 4009TIP3    H233587   1.873   3.846   0.925  2.9358 -0.5784 -1.3995
 4010TIP3   OH233588   1.033   5.387   0.667 -0.7347 -0.4132  0.0422
 4010TIP3    H133589   1.058   5.351   0.582  0.3416  1.2699 -0.4029
 4010TIP3    H233590   1.024   5.311   0.724 -0.8043 -1.5229 -1.4048
 4011TIP3   OH233591   3.073   3.936   6.801  0.1715  0.1692 -0.0033
 4011TIP3    H133592   2.997   3.984   6.833  1.2485  1.8031  0.2407
 4011TIP3    H233593   3.142   3.955   6.864  0.7537 -1.4336 -0.1147
 4012TIP3   OH233594   5.300   2.308   1.673 -0.1221 -0.0631 -0.1523
 4012TIP3    H133595   5.249   2.373   1.722  2.7019  0.8825  1.7741
 4012TIP3    H233596   5.362   2.359   1.622  2.4908 -1.1091  1.7685
 4013TIP3   OH233597   3.032   5.974   0.580 -0.3513  0.0714  0.1660
 4013TIP3    H133598   3.084   6.055   0.576 -0.4326  0.1375  0.4514
 4013TIP3    H233599   3.058   5.933   0.662  0.2728 -0.5857 -0.3477
 4014TIP3   OH233600   3.015   1.253   8.704  1.4264  0.1191  0.2447
 4014TIP3    H133601   2.938   1.302   8.677  3.4623  3.6227  0.2375
 4014TIP3    H233602   3.009   1.248   8.799 -0.2209 -2.3942  0.0989
 4015TIP3   OH233603   1.531   4.908   1.860  0.0009  0.3927 -0.4097
 4015TIP3    H133604   1.521   4.831   1.804  1.4593  1.4352 -2.2179
 4015TIP3    H233605   1.575   4.876   1.939 -1.6334 -1.0163 -0.0091
 4016TIP3   OH233606   0.776   1.160   1.953 -0.0891 -0.0462 -0.2353
 4016TIP3    H133607   0.819   1.075   1.942 -1.8441 -1.2757  1.5747
 4016TIP3    H233608   0.762   1.168   2.047 -1.2666  1.5832 -0.4931
 4017TIP3   OH233609   5.770   1.732   0.968 -0.3292 -0.2066 -0.0301
 4017TIP3    H133610   5.798   1.703   1.055  1.1880 -0.3984 -0.5514
 4017TIP3    H233611   5.747   1.824   0.979 -0.2808 -0.2670  0.5989
 4018TIP3   OH233612   3.246   5.387   1.215 -0.0124 -0.1010  0.1994
 4018TIP3    H133613   3.313   5.435   1.265 -0.6527 -0.3435  1.3224
 4018TIP3    H233614   3.210   5.325   1.277 -0.4172 -0.8443 -0.7608
 4019TIP3   OH233615   0.999   1.432   8.165 -0.0281  0.1311 -0.3414
 4019TIP3    H133616   1.023   1.467   8.251  0.1895 -0.3176 -0.2145
 4019TIP3    H233617   1.081   1.400   8.129 -0.7071 -4.5667  1.5100
 4020TIP3   OH233618   1.943   0.771   0.474  0.0577  0.0939  0.1535
 4020TIP3    H133619   1.897   0.850   0.446 -0.6989  0.4009  2.0980
 4020TIP3    H233620   2.033   0.799   0.486 -0.1089  0.5522  0.3645
 4021TIP3   OH233621   4.670   2.703   8.478  0.1912  0.4702  0.5567
 4021TIP3    H133622   4.760   2.684   8.451 -0.2496 -1.1057  0.1229
 4021TIP3    H233623   4.617   2.678   8.402 -0.6239  1.5462  0.7425
 4022TIP3   OH233624   4.465   0.099   7.639 -0.4950 -0.1685  0.1547
 4022TIP3    H133625   4.500   0.157   7.572  1.6694 -1.8045 -0.2485
 4022TIP3    H233626   4.470   0.149   7.720 -0.3109  0.7991 -0.4394
 4023TIP3   OH233627   2.669   4.760   0.483  0.0436  0.0388 -0.5727
 4023TIP3    H133628   2.640   4.719   0.401 -1.0736 -0.8152  0.2268
 4023TIP3    H233629   2.653   4.693   0.550 -2.2654  1.8839  0.8631
 4024TIP3   OH233630   0.957   0.298   8.646  0.8140 -0.1168 -0.2768
 4024TIP3    H133631   0.931   0.275   8.557  0.1601 -1.6146  0.2654
 4024TIP3    H233632   0.889   0.359   8.675 -0.5805 -1.7570  0.1099
 4025TIP3   OH233633   0.665   4.401   8.240  0.1591 -0.1714 -0.5043
 4025TIP3    H133634   0.644   4.309   8.226 -3.0710  0.5199 -1.0662
 4025TIP3    H233635   0.657   4.441   8.154  1.4105  0.6901 -0.2487
 4026TIP3   OH233636   0.934   0.134   0.128 -0.7949 -0.5024 -0.1303
 4026TIP3    H133637   0.866   0.074   0.099 -1.6370  0.3362  0.0653
 4026TIP3    H233638   0.947   0.193   0.053  0.5741 -1.3704 -0.6101
 4027TIP3   OH233639   1.571   4.986   1.417  0.4436  0.1052  0.0156
 4027TIP3    H133640   1.530   5.039   1.484 -0.8128 -2.1554  1.1623
 4027TIP3    H233641   1.498   4.945   1.370  1.3117  0.7877 -2.0742
 4028TIP3   OH233642   0.666   4.421   0.242 -0.1377  0.0528  0.1155
 4028TIP3    H133643   0.664   4.356   0.172 -0.5412 -1.8307  1.7764
 4028TIP3    H233644   0.592   4.479   0.223 -0.3452 -0.5232 -0.9279
 4029TIP3   OH233645   0.575   4.008   0.958 -0.0863 -0.0088 -0.7820
 4029TIP3    H133646   0.503   4.027   0.898 -0.5949  1.0568  0.1079
 4029TIP3    H233647   0.549   3.927   1.002 -0.4996  0.0874 -0.8407
 4030TIP3   OH233648   6.761   6.319   0.622  0.0776 -0.7231  0.0077
 4030TIP3    H133649   6.789   6.230   0.602  0.3407 -0.2427 -1.8877
 4030TIP3    H233650   6.842   6.368   0.630 -0.0949 -0.1608 -1.4600
 4031TIP3   OH233651   0.757   5.874   1.186  0.0985 -0.4287 -0.0708
 4031TIP3    H133652   0.807   5.934   1.131 -0.1284 -0.8531 -0.7513
 4031TIP3    H233653   0.701   5.826   1.125  0.4435 -1.5024  0.4286
 4032TIP3   OH233654   3.787   6.675   0.711 -0.0592  0.0978 -0.5869
 4032TIP3    H133655   3.872   6.636   0.692  0.2665 -0.2397  1.4188
 4032TIP3    H233656   3.760   6.716   0.628  2.4278  0.9554 -1.0408
 4033TIP3   OH233657   2.180   4.051   7.662  0.0213 -0.5540 -0.9178
 4033TIP3    H133658   2.230   4.107   7.603 -0.2454 -0.4668 -1.0606
 4033TIP3    H233659   2.126   4.112   7.712  1.4561 -0.4610  0.6035
 4034TIP3   OH233660   5.085   3.896   0.376 -0.4315 -0.0513 -0.0156
 4034TIP3    H133661   5.148   3.884   0.304 -1.1418  0.1824 -0.6810
 4034TIP3    H233662   5.035   3.814   0.377 -0.7047  0.1163 -0.0627
 4035TIP3   OH233663   0.164   4.724   0.516  1.0198 -0.1331  0.3352
 4035TIP3    H133664   0.108   4.716   0.594  0.0595 -1.3454 -0.4279
 4035TIP3    H233665   0.239   4.774   0.546  0.6879 -0.5746  2.0641
 4036TIP3   OH233666   5.408   3.625   8.139 -0.2721 -0.1066 -0.0076
 4036TIP3    H133667   5.427   3.709   8.182 -0.4179 -0.3996  0.6407
 4036TIP3    H233668   5.313   3.614   8.150 -0.4308  0.1448 -1.0192
 4037TIP3   OH233669   3.271   4.140   8.241  0.5052 -0.4369  0.9019
 4037TIP3    H133670   3.277   4.066   8.302  0.7567  0.0303  1.4531
 4037TIP3    H233671   3.274   4.218   8.297  3.0346  0.0810  0.1709
 4038TIP3   OH233672   2.206   5.421   0.924 -0.4384  0.3516 -0.3601
 4038TIP3    H133673   2.242   5.467   0.848 -0.0619  0.2649 -0.2345
 4038TIP3    H233674   2.209   5.486   0.994  1.7557 -0.3834  0.2826
 4039TIP3   OH233675   0.308   4.020   1.527 -0.6083 -0.1609 -0.0700
 4039TIP3    H133676   0.343   4.108   1.509 -2.0696  0.2043 -1.2893
 4039TIP3    H233677   0.213   4.032   1.529 -0.8320 -1.7272 -0.3619
 4040TIP3   OH233678   4.299   0.573   8.533  0.8129  0.2640 -0.6218
 4040TIP3    H133679   4.322   0.651   8.583 -0.0808 -0.0433  0.3086
 4040TIP3    H233680   4.288   0.604   8.443  0.6045  1.1918 -0.2864
 4041TIP3   OH233681   5.045   4.899   2.487 -0.4617 -0.2851 -0.7496
 4041TIP3    H133682   4.963   4.947   2.479 -0.4942  0.2745  2.0114
 4041TIP3    H233683   5.019   4.810   2.508 -0.3471 -0.8707 -2.8811
 4042TIP3   OH233684   6.735   2.158   1.669 -0.2554 -0.4807 -0.1732
 4042TIP3    H133685   6.824   2.153   1.705 -0.7055  0.6870  1.1657
 4042TIP3    H233686   6.686   2.090   1.715 -0.8769  1.1342  1.6433
 4043TIP3   OH233687   4.174   5.687   2.365 -0.9181  0.3860  0.1174
 4043TIP3    H133688   4.150   5.773   2.398  0.7483  0.5390  1.0512
 4043TIP3    H233689   4.231   5.705   2.290 -0.0951  0.1192  0.6690
 4044TIP3   OH233690   0.928   1.644   8.012 -0.3702  0.0368  0.0876
 4044TIP3    H133691   0.932   1.580   8.083  0.2922  0.4408  0.4219
 4044TIP3    H233692   0.859   1.611   7.954 -0.3672 -0.7232  0.5010
 4045TIP3   OH233693   5.071   3.621   0.872  0.6618 -0.2327  0.6753
 4045TIP3    H133694   5.149   3.646   0.822  0.7950 -1.1576  0.4211
 4045TIP3    H233695   4.998   3.653   0.820  0.8352 -0.2171  0.4396
 4046TIP3   OH233696   1.531   0.769   8.378 -0.2971  0.3644  0.2239
 4046TIP3    H133697   1.499   0.683   8.407  0.2068 -0.2985 -1.0894
 4046TIP3    H233698   1.463   0.830   8.405 -0.8206 -0.4843  0.9064
 4047TIP3   OH233699   2.225   4.349   1.751 -0.2391  0.7463  0.1231
 4047TIP3    H133700   2.287   4.335   1.679  2.0070  1.6882  1.7397
 4047TIP3    H233701   2.184   4.433   1.731  0.3739  1.0072 -0.0752
 4048TIP3   OH233702   2.828   1.709   2.259  0.5996  0.0420 -0.0158
 4048TIP3    H133703   2.732   1.711   2.264  0.4772 -0.6227 -1.4296
 4048TIP3    H233704   2.857   1.721   2.349 -0.8105  0.4549  0.4111
 4049TIP3   OH233705   5.987   4.157   0.036 -0.4495  0.7012  0.7218
 4049TIP3    H133706   6.051   4.101  -0.007  0.9320  2.6295  0.0983
 4049TIP3    H233707   5.918   4.169  -0.028  0.8100  2.2412 -0.4155
 4050TIP3   OH233708   6.534   6.682   7.622  0.0602 -0.4963  0.1419
 4050TIP3    H133709   6.549   6.588   7.629 -0.0666 -0.6677 -1.5029
 4050TIP3    H233710   6.603   6.713   7.564  0.0530  0.4187  0.6043
 4051TIP3   OH233711   5.680   3.821   7.793  0.4447  0.5587  0.1730
 4051TIP3    H133712   5.615   3.755   7.818  1.2582 -0.3313  0.0094
 4051TIP3    H233713   5.645   3.860   7.713 -0.4481  0.9183  0.7235
 4052TIP3   OH233714   5.915   4.552   7.774  0.3693  0.1352 -0.4810
 4052TIP3    H133715   5.839   4.599   7.740 -0.0121 -0.1400 -0.0271
 4052TIP3    H233716   5.927   4.588   7.863 -0.0390 -0.7559 -0.0628
 4053TIP3   OH233717   1.311   3.666   0.797 -0.2171 -0.6090 -0.0473
 4053TIP3    H133718   1.217   3.676   0.811  0.0162 -1.2808  2.6697
 4053TIP3    H233719   1.320   3.584   0.749 -0.9874 -1.8064  1.7482
 4054TIP3   OH233720   4.518   0.961   8.117  0.0103 -0.1516 -0.6189
 4054TIP3    H133721   4.485   1.047   8.143 -2.3070 -1.5619  1.5850
 4054TIP3    H233722   4.588   0.942   8.180  0.8114  0.2617 -1.3687
 4055TIP3   OH233723   1.212   5.547   0.832 -0.2134 -0.0844 -0.1211
 4055TIP3    H133724   1.148   5.490   0.789  0.0382 -0.1260 -0.4448
 4055TIP3    H233725   1.201   5.529   0.925 -0.8959  0.1468 -0.1514
 4056TIP3   OH233726   3.263   6.329   0.287 -0.0069  0.1100  0.2113
 4056TIP3    H133727   3.336   6.311   0.228 -0.7651 -0.1578 -0.6634
 4056TIP3    H233728   3.271   6.422   0.308  0.9533 -0.0607  0.6464
 4057TIP3   OH233729   4.557   3.306   6.550  0.1585 -0.2374 -0.0221
 4057TIP3    H133730   4.530   3.368   6.618 -0.0654 -0.6670  0.2808
 4057TIP3    H233731   4.646   3.333   6.528  0.0652  0.1941  0.1071
 4058TIP3   OH233732   3.599   1.839   1.814  0.2837 -0.3600  0.2523
 4058TIP3    H133733   3.598   1.930   1.842 -1.4246 -0.3172  0.1487
 4058TIP3    H233734   3.518   1.802   1.849 -0.6639 -0.9883 -2.3600
 4059TIP3   OH233735   3.350   4.722   0.473  0.4003 -0.3318 -0.6603
 4059TIP3    H133736   3.440   4.706   0.446  0.5077 -1.2716  0.1950
 4059TIP3    H233737   3.343   4.817   0.477  1.5819 -0.2465 -0.0326
 4060TIP3   OH233738   6.023   0.372   2.352 -0.1063 -0.1268 -0.1033
 4060TIP3    H133739   5.969   0.450   2.367  1.0987  0.1558  4.1447
 4060TIP3    H233740   5.969   0.299   2.382  0.5770 -0.2579  0.8455
 4061TIP3   OH233741   0.749   4.046   7.985  0.5254  0.0745  0.0031
 4061TIP3    H133742   0.841   4.054   8.008  0.2476  1.6143  0.7065
 4061TIP3    H233743   0.711   3.993   8.056  0.7868 -0.2135 -0.0718
 4062TIP3   OH233744   0.309   1.786   8.321 -0.0165  0.4811  0.1724
 4062TIP3    H133745   0.279   1.805   8.232  0.9898  1.1518 -0.0429
 4062TIP3    H233746   0.345   1.869   8.352 -0.0458  0.1627  1.0873
 4063TIP3   OH233747   6.098   5.870   7.986 -0.2508  0.3815 -0.0083
 4063TIP3    H133748   6.127   5.889   8.076 -0.4892 -0.2139  0.2006
 4063TIP3    H233749   6.167   5.906   7.931  0.4823 -0.2775  0.4569
 4064TIP3   OH233750   6.150   4.862   0.065  0.1617 -0.1176 -0.1071
 4064TIP3    H133751   6.107   4.895   0.143  1.7766  0.8722  0.4081
 4064TIP3    H233752   6.116   4.916  -0.006 -0.1802 -0.0097  0.1365
 4065TIP3   OH233753   4.742   2.083   1.447 -0.4467 -0.1393  0.1712
 4065TIP3    H133754   4.737   2.121   1.535 -0.1013  1.7186 -0.5588
 4065TIP3    H233755   4.653   2.089   1.413 -0.9172 -2.2439  0.8836
 4066TIP3   OH233756   6.092   2.169   1.559 -0.1314  0.0478  0.0539
 4066TIP3    H133757   6.041   2.155   1.479  1.5953  2.1076 -1.5227
 4066TIP3    H233758   6.112   2.081   1.590 -3.1951 -0.8206 -0.1493
 4067TIP3   OH233759   0.480   0.018   8.471  0.0297  0.2496 -0.4933
 4067TIP3    H133760   0.467  -0.041   8.546  1.1835 -0.6817 -0.9958
 4067TIP3    H233761   0.393   0.049   8.450 -0.3882  0.0869  0.8947
 4068TIP3   OH233762   4.583   2.699   7.296  0.4076 -1.0233 -0.3688
 4068TIP3    H133763   4.528   2.735   7.366  0.2213 -2.2291  0.1288
 4068TIP3    H233764   4.540   2.617   7.272 -0.5139  0.1387 -3.1365
 4069TIP3   OH233765   5.828   2.637   2.136  0.2298 -0.1384  0.1252
 4069TIP3    H133766   5.909   2.613   2.180  0.0237 -1.2005 -0.0435
 4069TIP3    H233767   5.798   2.555   2.094 -1.2402  0.0712  0.6943
 4070TIP3   OH233768   0.104   4.943   1.161  0.1965  0.5818  0.2116
 4070TIP3    H133769   0.155   4.910   1.087 -0.1373 -0.7372  0.5353
 4070TIP3    H233770   0.056   5.018   1.126 -0.5515 -0.4791 -1.1278
 4071TIP3   OH233771   0.142   3.314   1.765  0.2423  0.1575 -0.3867
 4071TIP3    H133772   0.222   3.262   1.766 -0.8985 -1.7248 -1.1585
 4071TIP3    H233773   0.172   3.405   1.760  2.3296 -0.5512 -2.4546
 4072TIP3   OH233774   1.441   5.965   1.337 -0.3687 -0.6372 -0.4870
 4072TIP3    H133775   1.393   6.038   1.376  0.0220 -0.3389 -0.5637
 4072TIP3    H233776   1.523   5.960   1.386 -0.7611 -1.5876  0.1005
 4073TIP3   OH233777   4.389   4.959   0.401  0.2190 -0.6653 -0.1912
 4073TIP3    H133778   4.358   4.988   0.316 -2.6655 -1.0157  0.6369
 4073TIP3    H233779   4.471   5.006   0.414 -0.4238  1.1635 -2.1628
 4074TIP3   OH233780   3.842   3.403   1.381  0.3559 -0.7680 -0.8127
 4074TIP3    H133781   3.760   3.448   1.361  1.1799  0.8337 -0.6921
 4074TIP3    H233782   3.816   3.330   1.438 -0.9469 -0.1329 -0.5563
 4075TIP3   OH233783   0.327   1.820   0.992 -0.1609 -0.0187 -0.0840
 4075TIP3    H133784   0.416   1.785   0.985  0.3641  1.3190 -0.3576
 4075TIP3    H233785   0.276   1.770   0.929  0.6851  0.0431 -0.8415
 4076TIP3   OH233786   1.778   0.919   1.282  0.0530  0.3311 -0.1150
 4076TIP3    H133787   1.829   0.999   1.271  1.2711 -0.3608  0.2161
 4076TIP3    H233788   1.720   0.916   1.206  1.0160  0.7997 -0.8881
 4077TIP3   OH233789   2.846   1.626   7.133  0.0134 -0.5091  0.3314
 4077TIP3    H133790   2.789   1.684   7.184  0.1943 -0.5282  0.5613
 4077TIP3    H233791   2.935   1.653   7.158  0.1096 -0.2381 -0.3016
 4078TIP3   OH233792   5.562   4.460   8.615  0.2223  0.3106 -0.3003
 4078TIP3    H133793   5.488   4.514   8.645  1.1977  2.1277 -1.0048
 4078TIP3    H233794   5.522   4.390   8.564 -1.1973 -0.5474  1.8178
 4079TIP3   OH233795   2.000   0.897   6.840 -0.2608  0.2833  0.4429
 4079TIP3    H133796   1.934   0.956   6.877  0.5118  0.9897  0.7322
 4079TIP3    H233797   2.041   0.949   6.771 -0.9530 -0.6501 -0.7073
 4080TIP3   OH233798   6.792   4.224   0.290  0.5135 -0.1998  0.3248
 4080TIP3    H133799   6.800   4.218   0.195 -1.1544 -1.5114  0.2176
 4080TIP3    H233800   6.716   4.281   0.303  1.3734  0.8543  0.9263
 4081TIP3   OH233801   2.340   0.547   7.363 -0.1760  0.4133  0.1005
 4081TIP3    H133802   2.402   0.595   7.308 -0.8872  1.5035  0.2012
 4081TIP3    H233803   2.378   0.550   7.451  0.5492 -0.5934 -0.1721
 4082TIP3   OH233804   2.768   5.622   8.196  0.5321 -0.4554 -0.0072
 4082TIP3    H133805   2.863   5.611   8.183  0.3762 -1.0266 -0.6940
 4082TIP3    H233806   2.736   5.533   8.210 -0.1785 -0.4981 -1.6957
 4083TIP3   OH233807   6.823   1.176   0.479 -0.0338 -0.6152 -0.3583
 4083TIP3    H133808   6.873   1.225   0.413  0.9008 -0.0469  0.7403
 4083TIP3    H233809   6.759   1.126   0.428  0.7934 -0.3461 -1.7105
 4084TIP3   OH233810   3.986   1.892   7.208  0.5126  0.5134  0.0644
 4084TIP3    H133811   4.011   1.854   7.124  1.1079  1.6794 -0.3147
 4084TIP3    H233812   3.931   1.825   7.249  1.7641 -0.8738 -0.4126
 4085TIP3   OH233813   4.931   6.730   7.872 -0.3758 -0.3424 -0.4453
 4085TIP3    H133814   4.972   6.802   7.824 -1.2840 -0.3003 -1.1870
 4085TIP3    H233815   4.992   6.657   7.863  1.4370  0.7659  1.8167
 4086TIP3   OH233816   3.956   2.893   1.716  0.1484  0.5584  0.0716
 4086TIP3    H133817   3.875   2.916   1.670  1.7143  4.0821 -1.3687
 4086TIP3    H233818   4.004   2.838   1.655 -0.2947  0.2055  0.0424
 4087TIP3   OH233819   0.892   2.939   2.242 -0.8268 -0.2930 -0.2287
 4087TIP3    H133820   0.920   2.866   2.297 -2.6005 -1.4185 -0.7446
 4087TIP3    H233821   0.797   2.936   2.244 -0.9555  1.7389 -0.6692
 4088TIP3   OH233822   0.234   3.139   8.583  0.2966 -0.0256  0.4917
 4088TIP3    H133823   0.319   3.177   8.562 -0.0207  0.1977 -0.4613
 4088TIP3    H233824   0.239   3.050   8.549 -0.5518  0.6299 -1.5149
 4089TIP3   OH233825   6.101   5.114   0.861 -0.4733 -0.1108  0.5174
 4089TIP3    H133826   6.066   5.059   0.791  0.2443 -0.2855  0.2862
 4089TIP3    H233827   6.167   5.168   0.818 -0.8529  0.6165  0.8318
 4090TIP3   OH233828   0.524   0.809   7.522  0.7505  0.0762  0.4801
 4090TIP3    H133829   0.495   0.779   7.436  1.6149 -1.7056  0.7556
 4090TIP3    H233830   0.445   0.846   7.562 -0.5527 -2.1742  0.1958
 4091TIP3   OH233831   2.361   6.419   6.626  0.5930  0.2325 -0.6428
 4091TIP3    H133832   2.349   6.340   6.679 -2.5109  1.0627  0.0966
 4091TIP3    H233833   2.347   6.389   6.536 -0.4973 -0.1386 -0.3745
 4092TIP3   OH233834   3.498   0.025   1.145 -0.2326  0.3989 -0.7001
 4092TIP3    H133835   3.436   0.073   1.090 -1.1917 -0.7416 -0.6511
 4092TIP3    H233836   3.584   0.054   1.114 -0.7689  1.5177 -1.2138
 4093TIP3   OH233837   6.156   1.079   0.427  0.1946 -0.4786 -0.2960
 4093TIP3    H133838   6.237   1.046   0.387  0.2133 -0.7347 -0.0561
 4093TIP3    H233839   6.175   1.078   0.521 -0.8113 -2.5587 -0.0677
 4094TIP3   OH233840   4.265   3.404   0.519 -0.2687  0.4624  0.0676
 4094TIP3    H133841   4.258   3.475   0.456  1.5018 -1.5140 -2.5830
 4094TIP3    H233842   4.242   3.325   0.468  2.4955 -1.3860  1.4671
 4095TIP3   OH233843   3.394   1.885   1.423  0.0405 -0.0133 -0.4380
 4095TIP3    H133844   3.358   1.906   1.337 -3.0104 -1.4311  0.3669
 4095TIP3    H233845   3.436   1.800   1.411  0.1772  0.0796 -0.6392
 4096TIP3   OH233846   4.590   3.708   6.535 -0.1145 -0.2347 -0.4033
 4096TIP3    H133847   4.533   3.761   6.478  0.6532  1.6558  0.5065
 4096TIP3    H233848   4.539   3.694   6.614  0.2606  0.5045 -0.0264
 4097TIP3   OH233849   4.668   4.972   7.236 -0.3328  0.5359 -0.2344
 4097TIP3    H133850   4.611   4.895   7.240 -0.4695  0.6842  1.0115
 4097TIP3    H233851   4.741   4.945   7.180  1.0917 -1.5342  2.3790
 4098TIP3   OH233852   0.721   3.752   1.212  0.1755 -0.4003  0.0910
 4098TIP3    H133853   0.775   3.721   1.140  1.6131 -1.6138  1.5976
 4098TIP3    H233854   0.679   3.673   1.246  0.6163 -0.1017  1.4076
 4099TIP3   OH233855   2.105   2.613   2.289  0.2059 -0.0552  0.5792
 4099TIP3    H133856   2.088   2.572   2.373 -1.5832 -1.3423 -0.3569
 4099TIP3    H233857   2.020   2.647   2.261  0.9624  1.2035 -0.2900
 4100TIP3   OH233858   3.417   2.567   0.186 -0.0366  0.3766  0.1368
 4100TIP3    H133859   3.421   2.478   0.222  1.2342  0.8997  1.3919
 4100TIP3    H233860   3.428   2.555   0.092  0.4658 -0.7821  0.3244
 4101TIP3   OH233861   3.612   6.651   7.673  0.1655  0.7930 -0.0190
 4101TIP3    H133862   3.543   6.610   7.724  0.6887 -0.8820 -0.6131
 4101TIP3    H233863   3.567   6.687   7.597 -0.1960  0.6412  0.1199
 4102TIP3   OH233864   5.064   4.845   8.348 -0.2042  0.0105  0.6320
 4102TIP3    H133865   4.991   4.860   8.289 -0.3070 -1.6499  0.2859
 4102TIP3    H233866   5.055   4.913   8.415 -1.9089 -0.0122  0.4628
 4103TIP3   OH233867   4.384   5.689   1.885 -0.3244 -0.2222  0.2482
 4103TIP3    H133868   4.383   5.601   1.847  2.3795 -0.5337  0.7462
 4103TIP3    H233869   4.408   5.675   1.976  0.5749  1.0534  0.2205
 4104TIP3   OH233870   3.726   4.809   7.510 -0.0873 -0.2579  0.5754
 4104TIP3    H133871   3.630   4.813   7.510 -0.0436  1.3393  0.6699
 4104TIP3    H233872   3.746   4.722   7.544 -1.4979 -0.3450  1.2722
 4105TIP3   OH233873   6.733   5.444   7.164 -0.0315 -0.3325  0.2282
 4105TIP3    H133874   6.718   5.537   7.150 -0.6468 -0.3503  0.7174
 4105TIP3    H233875   6.724   5.432   7.259 -0.6934 -1.0172  0.0910
 4106TIP3   OH233876   0.409   2.049   0.690  0.5334 -0.1664 -0.5806
 4106TIP3    H133877   0.345   2.071   0.622  0.6534 -1.3123 -1.0872
 4106TIP3    H233878   0.449   2.133   0.714  0.3371  0.2857 -1.7801
 4107TIP3   OH233879   0.469   0.215   7.205  0.3557  0.1788  0.2958
 4107TIP3    H133880   0.432   0.243   7.289  1.5756  0.9843  0.5899
 4107TIP3    H233881   0.394   0.213   7.146 -0.9473 -2.4762  1.8445
 4108TIP3   OH233882   5.900   2.160   8.377 -0.5147 -0.1562 -0.3784
 4108TIP3    H133883   5.876   2.098   8.308  0.2535 -1.3539  0.3751
 4108TIP3    H233884   5.989   2.187   8.354 -1.2287  1.5435 -1.2831
 4109TIP3   OH233885   3.649   4.994   6.877  0.1268 -0.2023  0.2180
 4109TIP3    H133886   3.592   4.923   6.907  0.4662  0.3045  2.1948
 4109TIP3    H233887   3.590   5.061   6.843 -0.5194  0.2727  2.1496
 4110TIP3   OH233888   2.321   3.424   1.300 -0.5092 -0.0117 -0.0167
 4110TIP3    H133889   2.401   3.390   1.340  0.8374  1.5692 -1.2165
 4110TIP3    H233890   2.324   3.518   1.316 -2.7955 -0.0199  0.9651
 4111TIP3   OH233891   1.726   3.297   0.050 -0.1389 -0.9278  0.0799
 4111TIP3    H133892   1.821   3.292   0.053 -0.1071 -0.2582  0.3289
 4111TIP3    H233893   1.697   3.207   0.038  0.5176 -1.1599  0.2419
 4112TIP3   OH233894   4.656   5.550   2.809 -0.0789 -0.4086  0.3146
 4112TIP3    H133895   4.740   5.506   2.795 -0.1757 -0.1590 -1.1910
 4112TIP3    H233896   4.679   5.643   2.814 -0.2547 -0.3355 -0.1500
 4113TIP3   OH233897   0.681   2.192   1.504 -0.1926 -0.0674  0.1967
 4113TIP3    H133898   0.674   2.198   1.408  1.8622  0.2108  0.0254
 4113TIP3    H233899   0.767   2.227   1.524 -0.6074 -0.0867  2.1810
 4114TIP3   OH233900   2.768   4.225   7.995  0.9010 -0.1104  0.5930
 4114TIP3    H133901   2.730   4.140   8.018  0.3459 -0.2384 -0.7263
 4114TIP3    H233902   2.835   4.241   8.063  1.2270 -1.7351  0.6826
 4115TIP3   OH233903   0.532   1.130   2.088  0.2928 -0.1657 -0.6374
 4115TIP3    H133904   0.485   1.049   2.106 -1.0716  0.5380 -0.8479
 4115TIP3    H233905   0.594   1.139   2.160 -0.7615 -0.5211  0.3422
 4116TIP3   OH233906   2.126   0.965   7.925  0.1680  0.3262 -0.5868
 4116TIP3    H133907   2.190   1.031   7.899  0.7497  0.4896  1.1386
 4116TIP3    H233908   2.178   0.890   7.953 -0.3518  0.5163  1.0021
 4117TIP3   OH233909   1.570   3.635   0.587 -0.9794 -0.1367  0.1032
 4117TIP3    H133910   1.557   3.693   0.662 -0.1599 -1.8227  1.6298
 4117TIP3    H233911   1.597   3.552   0.626  1.0265 -0.6417 -2.1427
 4118TIP3   OH233912   3.450   2.629   1.786 -0.1402  0.0491 -0.2326
 4118TIP3    H133913   3.449   2.537   1.761 -2.1554  0.1356 -0.6093
 4118TIP3    H233914   3.422   2.676   1.708 -1.2849  0.7832  0.5899
 4119TIP3   OH233915   1.733   1.521   1.693  0.3917  0.2186 -0.2035
 4119TIP3    H133916   1.684   1.571   1.628  1.5774  1.4021 -0.2219
 4119TIP3    H233917   1.791   1.464   1.641  0.2534  0.0558 -0.1802
 4120TIP3   OH233918   0.181   1.516   0.187  0.0296 -0.3446  0.0374
 4120TIP3    H133919   0.270   1.532   0.155 -0.4274 -1.4299 -1.9544
 4120TIP3    H233920   0.149   1.602   0.215  0.8642  0.4922 -1.4873
 4121TIP3   OH233921   5.958   3.469   0.506 -0.3127  0.3901  0.2423
 4121TIP3    H133922   5.958   3.375   0.488  0.4334  0.5853 -0.8666
 4121TIP3    H233923   6.009   3.507   0.434  0.1863  1.5440  1.1772
 4122TIP3   OH233924   2.570   5.980   7.898 -0.7606 -0.2480  0.0750
 4122TIP3    H133925   2.537   5.904   7.849 -1.6703 -0.1723  0.5432
 4122TIP3    H233926   2.544   5.963   7.988  0.9198 -0.3875  0.5548
 4123TIP3   OH233927   1.116   5.730   0.534  0.1550  0.0505 -0.0426
 4123TIP3    H133928   1.079   5.679   0.606  0.3694 -0.9687 -0.6367
 4123TIP3    H233929   1.155   5.665   0.476  1.0398  0.9436 -0.4836
 4124TIP3   OH233930   0.707   2.559   1.703 -0.8593 -0.4323 -0.1447
 4124TIP3    H133931   0.633   2.601   1.747 -1.6478 -2.3868  0.5268
 4124TIP3    H233932   0.673   2.532   1.618 -0.1376  0.9038 -0.8839
 4125TIP3   OH233933   4.311   0.116   8.542 -0.7105 -0.4179 -0.1783
 4125TIP3    H133934   4.383   0.057   8.517  0.8133  0.8528  0.9848
 4125TIP3    H233935   4.277   0.079   8.624 -2.4523 -1.8491 -1.4658
 4126TIP3   OH233936   3.329   1.198   8.165 -0.2092  0.0575 -0.6583
 4126TIP3    H133937   3.293   1.178   8.251 -1.1767  0.7498 -0.8738
 4126TIP3    H233938   3.271   1.153   8.103  1.6222 -2.0943 -0.9372
 4127TIP3   OH233939   2.479   4.325   8.022  0.1981  0.5959  0.2225
 4127TIP3    H133940   2.524   4.245   7.996 -0.1347  0.5151 -0.1168
 4127TIP3    H233941   2.548   4.390   8.031  0.9814 -0.4886  3.8176
 4128TIP3   OH233942   3.791   5.669   8.717  0.7312 -0.2854  0.0099
 4128TIP3    H133943   3.710   5.716   8.695  1.6969 -0.1485 -4.0376
 4128TIP3    H233944   3.765   5.604   8.782 -2.9559 -1.0606 -2.0025
 4129TIP3   OH233945   2.481   5.822   7.083  0.2850  0.1694  0.4403
 4129TIP3    H133946   2.496   5.814   6.989 -0.9545  0.2796  0.2227
 4129TIP3    H233947   2.452   5.913   7.096  0.4444  0.1562  0.9287
 4130TIP3   OH233948   2.753   5.110   7.798 -0.1472  0.1471 -0.0313
 4130TIP3    H133949   2.829   5.122   7.855 -1.1735 -0.3591  1.4881
 4130TIP3    H233950   2.739   5.196   7.758  0.8725  0.3846  0.0854
 4131TIP3   OH233951   1.005   3.578   8.342  0.0240 -0.0674 -0.0775
 4131TIP3    H133952   1.080   3.593   8.399  0.4717 -2.5415  0.0750
 4131TIP3    H233953   0.947   3.521   8.392  0.4102 -2.2958 -1.9992
 4132TIP3   OH233954   4.407   4.898   2.838  0.1559 -0.5792 -0.4383
 4132TIP3    H133955   4.404   4.966   2.906 -0.0377  1.6686 -2.5592
 4132TIP3    H233956   4.498   4.899   2.807  0.3641 -1.9343  0.0787
 4133TIP3   OH233957   3.544   6.261   0.798 -0.2376 -0.4005  0.3082
 4133TIP3    H133958   3.538   6.269   0.703 -0.4624  1.1521  0.4304
 4133TIP3    H233959   3.606   6.329   0.823  2.7685 -3.1156  0.9755
 4134TIP3   OH233960   2.316   1.732   1.726  0.2930 -0.8476 -0.3065
 4134TIP3    H133961   2.325   1.789   1.803 -0.3503  1.0111 -1.5493
 4134TIP3    H233962   2.347   1.646   1.756 -1.9145 -0.7686  2.6765
 4135TIP3   OH233963   0.461   0.127   0.720  0.0506  0.3194 -0.2692
 4135TIP3    H133964   0.534   0.167   0.767 -0.2193  4.2077 -2.6832
 4135TIP3    H233965   0.499   0.097   0.637 -0.6215 -0.2672 -0.3799
 4136TIP3   OH233966   2.197   4.464   7.528  0.4450 -0.1407 -0.3894
 4136TIP3    H133967   2.243   4.524   7.587 -0.5086  0.2567 -0.0141
 4136TIP3    H233968   2.238   4.379   7.543 -1.7165 -0.7879  3.2735
 4137TIP3   OH233969   2.536   2.048   7.372 -0.8647 -0.4563  0.3868
 4137TIP3    H133970   2.543   2.099   7.453  2.0797 -2.4644  1.6054
 4137TIP3    H233971   2.565   2.107   7.303  0.7401  0.1130  1.4887
 4138TIP3   OH233972   4.719   1.460   1.373 -0.1181 -0.1465 -0.3834
 4138TIP3    H133973   4.680   1.405   1.305  0.8276 -0.4172 -0.7237
 4138TIP3    H233974   4.789   1.507   1.328  0.3309 -0.1103  0.3399
 4139TIP3   OH233975   5.256   5.633   2.013 -0.0645  0.3069  0.4336
 4139TIP3    H133976   5.321   5.588   2.067  0.8536  1.2841  0.1865
 4139TIP3    H233977   5.173   5.621   2.059 -0.1462 -2.8367 -0.3473
 4140TIP3   OH233978   6.565   0.523   8.699  0.7163 -0.0982 -0.1824
 4140TIP3    H133979   6.497   0.455   8.696  1.8545 -1.2870  0.1059
 4140TIP3    H233980   6.516   0.604   8.712 -0.7665 -0.7174 -1.4016
 4141TIP3   OH233981   0.246   1.898   1.658  0.0647 -0.4890  0.2775
 4141TIP3    H133982   0.320   1.837   1.656 -0.0023 -0.5589 -0.2044
 4141TIP3    H233983   0.265   1.960   1.588  0.9967  1.0747  1.8083
 4142TIP3   OH233984   0.706   1.107   0.786 -0.3369  0.1010  0.4585
 4142TIP3    H133985   0.693   1.193   0.748 -1.7644 -0.1818  0.2279
 4142TIP3    H233986   0.791   1.111   0.829  0.5976  0.9237 -1.3933
 4143TIP3   OH233987   2.081   2.590   1.195 -0.0775  0.1918 -0.7066
 4143TIP3    H133988   2.101   2.502   1.225 -0.7268 -0.4872 -2.1585
 4143TIP3    H233989   2.029   2.629   1.265  0.7701 -0.3251  0.2354
 4144TIP3   OH233990   1.744   5.548   8.390  0.2435 -0.4010 -0.5903
 4144TIP3    H133991   1.764   5.529   8.298  1.6610 -0.1131 -0.3527
 4144TIP3    H233992   1.685   5.624   8.386 -1.2485 -1.5330 -1.3103
 4145TIP3   OH233993   5.154   5.804   6.639  0.1604  0.2512 -0.0644
 4145TIP3    H133994   5.082   5.861   6.610 -0.3845 -1.0987 -1.5287
 4145TIP3    H233995   5.148   5.805   6.734 -0.0758  2.2936 -0.0571
 4146TIP3   OH233996   2.601   3.871   1.055  0.1945 -0.1297 -0.0355
 4146TIP3    H133997   2.597   3.933   1.127  1.5355 -1.0172  0.8507
 4146TIP3    H233998   2.631   3.789   1.094 -0.8434 -1.1709 -1.2918
 4147TIP3   OH233999   6.151   3.170   2.446 -0.2856  0.2450  0.0134
 4147TIP3    H134000   6.190   3.225   2.378 -1.6441 -0.8772 -1.7808
 4147TIP3    H234001   6.057   3.170   2.425 -0.7437 -0.1773  1.8968
 4148TIP3   OH234002   1.573   3.373   8.368  0.1185 -0.2188  0.2478
 4148TIP3    H134003   1.562   3.355   8.462 -3.2853  0.1077  0.0516
 4148TIP3    H234004   1.564   3.288   8.326 -0.1445 -0.1473  0.1547
 4149TIP3   OH234005   0.637   0.958   7.883  0.1638  0.7667 -0.3931
 4149TIP3    H134006   0.607   1.048   7.870 -0.2565  0.6186 -0.4549
 4149TIP3    H234007   0.559   0.910   7.910  0.7968  0.8585  1.7709
 4150TIP3   OH234008   1.242   3.464   0.603 -0.1176  0.2623 -0.0997
 4150TIP3    H134009   1.234   3.369   0.591 -0.5820  0.3424 -0.4407
 4150TIP3    H234010   1.206   3.501   0.522  0.4264  0.7198 -0.1380
 4151TIP3   OH234011   2.514   6.235   0.279 -0.4068  0.6364  0.1889
 4151TIP3    H134012   2.505   6.286   0.360  1.5787  1.5752 -0.1139
 4151TIP3    H234013   2.546   6.150   0.307  0.1401  0.9130  0.4277
 4152TIP3   OH234014   6.576   2.826   0.912  0.2098  0.5533 -0.6541
 4152TIP3    H134015   6.559   2.745   0.960 -0.8862  0.3120 -1.4390
 4152TIP3    H234016   6.599   2.798   0.824  0.8925  1.0582 -0.6469
 4153TIP3   OH234017   5.822   1.829   0.199  0.2193 -0.2635  0.3202
 4153TIP3    H134018   5.890   1.860   0.259 -0.2333  0.2256  0.5840
 4153TIP3    H234019   5.752   1.798   0.257 -0.1587  0.0756  0.0457
 4154TIP3   OH234020   4.418   3.630   1.894  0.7501  0.4352  0.3183
 4154TIP3    H134021   4.456   3.592   1.974  0.8386  0.2469  0.1887
 4154TIP3    H234022   4.368   3.705   1.925 -0.9999 -0.8693  0.8045
 4155TIP3   OH234023   1.736   4.049   7.643  0.2947  0.1284 -0.5170
 4155TIP3    H134024   1.708   4.139   7.661  2.6782  0.8188  0.1318
 4155TIP3    H234025   1.659   3.995   7.660 -0.9484  1.9587 -0.1040
 4156TIP3   OH234026   4.968   0.993   0.381 -0.6102 -0.2648 -0.4294
 4156TIP3    H134027   4.955   1.016   0.289 -0.1445  1.8162 -0.0174
 4156TIP3    H234028   5.063   0.987   0.391 -0.6383  0.0672  0.0372
 4157TIP3   OH234029   5.661   0.469   8.383  0.3162 -0.6896  0.4625
 4157TIP3    H134030   5.661   0.444   8.476 -0.9244 -3.7240 -0.2443
 4157TIP3    H234031   5.576   0.509   8.369 -0.3395 -2.0951  0.2554
 4158TIP3   OH234032   6.465   2.067   2.381  0.1434  0.2147 -0.9667
 4158TIP3    H134033   6.553   2.034   2.400 -0.3012 -0.7073 -0.3821
 4158TIP3    H234034   6.414   2.042   2.458 -0.4586  1.4456 -0.9407
 4159TIP3   OH234035   4.282   6.673   8.287  0.1546  0.4888 -0.3307
 4159TIP3    H134036   4.322   6.741   8.233  1.3802 -2.7437 -3.9244
 4159TIP3    H234037   4.335   6.672   8.367  1.1522  2.5668 -0.8920
 4160TIP3   OH234038   3.510   3.028   7.345  0.2672  0.2835 -0.0483
 4160TIP3    H134039   3.585   3.065   7.393  0.1687  1.3252 -0.6761
 4160TIP3    H234040   3.532   2.936   7.335  0.7420  0.2426  1.1467
 4161TIP3   OH234041   5.702   5.195   2.268  0.4267 -0.0563  0.4797
 4161TIP3    H134042   5.790   5.162   2.248  0.4667 -0.1750  0.8473
 4161TIP3    H234043   5.713   5.246   2.348  0.5224  1.5696 -0.5223
 4162TIP3   OH234044   4.395   1.429   6.874  0.2480 -0.2905  0.3177
 4162TIP3    H134045   4.489   1.414   6.882  0.8129  1.8301 -1.5201
 4162TIP3    H234046   4.382   1.519   6.904 -1.2787 -0.6739  0.9007
 4163TIP3   OH234047   3.507   0.590   6.571 -0.6375 -0.4896  0.5670
 4163TIP3    H134048   3.519   0.622   6.481 -0.7882 -0.4200  0.5706
 4163TIP3    H234049   3.584   0.536   6.588 -0.5923 -0.4769  0.4065
 4164TIP3   OH234050   1.738   4.255   0.812  0.4650 -0.1676  0.0518
 4164TIP3    H134051   1.821   4.212   0.830 -0.0807 -1.7202 -0.9179
 4164TIP3    H234052   1.710   4.221   0.727 -1.1395  0.3213  0.3321
 4165TIP3   OH234053   3.370   0.332   1.160  0.3304  0.5185 -0.6710
 4165TIP3    H134054   3.409   0.342   1.074  0.2279 -0.8421 -0.8936
 4165TIP3    H234055   3.445   0.322   1.219  0.3732  0.1891 -0.7799
 4166TIP3   OH234056   0.070   2.539   7.976  0.7552 -0.2684  0.0993
 4166TIP3    H134057   0.133   2.470   7.957  0.3921 -0.0404 -2.2185
 4166TIP3    H234058   0.104   2.582   8.055  1.7991 -2.0784  0.6967
 4167TIP3   OH234059   3.561   6.681   2.350  0.6391 -0.1715  0.2276
 4167TIP3    H134060   3.473   6.645   2.345 -0.1803  1.7991 -0.1798
 4167TIP3    H234061   3.616   6.606   2.374 -1.1261 -1.4274  0.5187
 4168TIP3   OH234062   3.326   0.416   0.345 -0.2332 -0.2032 -0.0661
 4168TIP3    H134063   3.415   0.451   0.340 -1.0031  1.6933 -2.1141
 4168TIP3    H234064   3.270   0.494   0.348 -1.8996 -1.2957 -1.0568
 4169TIP3   OH234065   3.996   2.822   7.626 -0.2999  0.3569 -0.1256
 4169TIP3    H134066   4.069   2.784   7.576 -0.5938  0.0565 -0.3343
 4169TIP3    H234067   4.009   2.916   7.620  0.3663  0.2957  0.2798
 4170TIP3   OH234068   3.506   3.626   8.023 -0.2922  0.7945  0.3046
 4170TIP3    H134069   3.450   3.700   8.047  0.0287  0.3729  2.5561
 4170TIP3    H234070   3.590   3.667   8.002  0.2358  1.0949  2.6600
 4171TIP3   OH234071   1.908   1.520   0.370  0.4893 -0.5106  0.1574
 4171TIP3    H134072   1.849   1.450   0.344 -1.7509  1.3410 -0.1187
 4171TIP3    H234073   1.952   1.546   0.288 -1.0246  0.4048 -0.4199
 4172TIP3   OH234074   4.766   1.745   6.509 -0.2266 -0.2173 -0.1303
 4172TIP3    H134075   4.743   1.663   6.553  0.9671 -1.2568 -1.3341
 4172TIP3    H234076   4.832   1.719   6.444 -0.8825  1.4732 -1.5400
 4173TIP3   OH234077   2.440   4.419   1.572 -0.1252  0.2142  0.0457
 4173TIP3    H134078   2.524   4.377   1.554 -0.1308 -0.0437  0.5786
 4173TIP3    H234079   2.463   4.501   1.615 -0.1381 -0.7521  2.0629
 4174TIP3   OH234080   2.682   3.073   0.566 -0.2025  0.2136  0.2060
 4174TIP3    H134081   2.605   3.048   0.514 -1.0063  1.4661  0.7543
 4174TIP3    H234082   2.732   2.992   0.574 -1.4207 -0.6189 -0.2536
 4175TIP3   OH234083   2.097   6.239   8.710  0.1694  0.3697  0.6039
 4175TIP3    H134084   2.166   6.204   8.766 -0.2940 -1.9301 -0.1593
 4175TIP3    H234085   2.125   6.328   8.691  2.9557 -0.4798  0.2925
 4176TIP3   OH234086   5.761   5.371   2.488  0.0005 -0.3119  0.3058
 4176TIP3    H134087   5.752   5.431   2.561 -0.4472 -1.2382  1.0303
 4176TIP3    H234088   5.831   5.311   2.514 -0.0362 -0.5379 -0.0969
 4177TIP3   OH234089   1.500   1.479   0.061 -0.4186  0.5167  0.1843
 4177TIP3    H134090   1.471   1.389   0.051  0.2789  0.1246  1.4476
 4177TIP3    H234091   1.580   1.484   0.009 -0.6058  0.4958 -0.1105
 4178TIP3   OH234092   6.517   3.992   0.471 -0.3897  0.6307  0.6674
 4178TIP3    H134093   6.518   3.919   0.533 -1.7542  0.5522  0.6155
 4178TIP3    H234094   6.450   4.051   0.504  0.1539  1.4944  0.2681
 4179TIP3   OH234095   4.000   2.169   0.870  0.5884  0.1234 -0.2820
 4179TIP3    H134096   3.927   2.171   0.931 -1.0073 -2.6102 -1.9095
 4179TIP3    H234097   3.980   2.239   0.807  1.0329  1.3865  0.9210
 4180TIP3   OH234098   4.903   3.113   1.424 -0.3418  0.4499  0.3593
 4180TIP3    H134099   4.949   3.069   1.496 -0.0141  0.0618 -0.0800
 4180TIP3    H234100   4.814   3.125   1.457 -0.5832 -1.0059  0.3105
 4181TIP3   OH234101   5.240   0.537   6.908  0.3752  0.3698 -0.1059
 4181TIP3    H134102   5.156   0.497   6.887  1.2772 -1.2267 -0.8330
 4181TIP3    H234103   5.234   0.556   7.002 -0.8873  0.5688 -0.2064
 4182TIP3   OH234104   4.135   6.295   1.173  0.3834  0.3939 -0.0903
 4182TIP3    H134105   4.045   6.266   1.187 -0.0731  1.4183 -0.8402
 4182TIP3    H234106   4.141   6.312   1.079  1.3110  0.5137 -0.0238
 4183TIP3   OH234107   6.353   2.214   2.190 -0.4305  0.2842  0.1822
 4183TIP3    H134108   6.405   2.180   2.263 -1.4747  1.8117  1.7022
 4183TIP3    H234109   6.304   2.138   2.159 -1.5821  0.0051  2.4944
 4184TIP3   OH234110   6.288   6.005   7.782 -0.3555 -0.2970 -0.6998
 4184TIP3    H134111   6.319   5.938   7.722 -2.5733 -1.1558 -1.0070
 4184TIP3    H234112   6.228   6.059   7.730  0.2522  1.0226 -0.0834
 4185TIP3   OH234113   3.621   3.608   1.378  0.0742 -0.2900 -0.5857
 4185TIP3    H134114   3.562   3.572   1.443  0.5629 -2.4864 -1.2893
 4185TIP3    H234115   3.564   3.638   1.307 -0.3116 -0.2248 -0.2473
 4186TIP3   OH234116   4.996   4.155   6.783  0.0390  0.3332 -0.2871
 4186TIP3    H134117   5.013   4.071   6.741 -0.4812 -0.9823  1.9535
 4186TIP3    H234118   5.054   4.216   6.738  3.0599 -1.8783  0.2542
 4187TIP3   OH234119   5.015   5.872   8.193  0.0845 -0.2206  0.4517
 4187TIP3    H134120   5.025   5.781   8.220  3.5986 -0.2847 -0.5330
 4187TIP3    H234121   5.018   5.868   8.097 -1.7828  0.8329  0.3001
 4188TIP3   OH234122   3.011   1.571   7.456  0.4316  0.7897 -0.2286
 4188TIP3    H134123   2.959   1.651   7.455  1.6484  1.6047 -0.7428
 4188TIP3    H234124   3.080   1.586   7.391  0.6901 -0.6736 -0.3328
 4189TIP3   OH234125   0.903   4.233   1.939 -0.2699 -0.2319 -0.0760
 4189TIP3    H134126   0.970   4.302   1.934  0.1748 -0.6917 -0.6141
 4189TIP3    H234127   0.944   4.166   1.994 -0.1743 -0.6379 -0.6413
 4190TIP3   OH234128   5.910   0.279   6.640 -0.2457  0.5596  0.3546
 4190TIP3    H134129   5.950   0.362   6.613  1.0432  0.8412  2.8655
 4190TIP3    H234130   5.940   0.266   6.730 -2.6868 -1.2490  1.0091
 4191TIP3   OH234131   5.029   1.995   8.362  0.5666 -0.2498  0.3905
 4191TIP3    H134132   4.987   2.081   8.365 -1.5074 -1.1955  0.4081
 4191TIP3    H234133   4.958   1.935   8.337  2.0101 -1.9257  0.1371
 4192TIP3   OH234134   1.915   2.584   7.505 -0.6349 -0.1475  0.4045
 4192TIP3    H134135   1.998   2.627   7.528  0.2517 -1.9860  0.8154
 4192TIP3    H234136   1.848   2.637   7.547  0.3084  1.4375 -0.0059
 4193TIP3   OH234137   3.851   4.353   0.326 -0.2579  0.6385  0.2840
 4193TIP3    H134138   3.902   4.292   0.379  2.2462  1.1113 -1.4042
 4193TIP3    H234139   3.914   4.421   0.301 -1.8852  1.5736 -1.4850
 4194TIP3   OH234140   5.080   2.556   0.168  0.2051 -0.0388 -0.1256
 4194TIP3    H134141   5.163   2.601   0.152  0.9418 -0.9456  1.0060
 4194TIP3    H234142   5.093   2.509   0.250 -1.0798 -1.0441 -0.4600
 4195TIP3   OH234143   0.845   5.341   7.357  0.1326  0.1258 -0.0468
 4195TIP3    H134144   0.901   5.306   7.427 -0.6475 -0.1851  0.4346
 4195TIP3    H234145   0.768   5.375   7.402  1.1253  3.1547 -0.4119
 4196TIP3   OH234146   3.622   0.216   7.259 -0.0159  0.4951  0.6004
 4196TIP3    H134147   3.716   0.225   7.272 -0.0224  1.0112  0.3020
 4196TIP3    H234148   3.612   0.196   7.166 -0.2318  0.8912  0.5377
 4197TIP3   OH234149   3.191   3.534   0.611 -0.2323  0.1531  0.3992
 4197TIP3    H134150   3.098   3.530   0.587 -0.6270  0.3791  1.7826
 4197TIP3    H234151   3.190   3.532   0.707  1.2622 -1.0697  0.4150
 4198TIP3   OH234152   6.483   1.842   0.645 -0.4680  0.8421 -0.0895
 4198TIP3    H134153   6.489   1.883   0.559 -0.5728 -0.0776 -0.5533
 4198TIP3    H234154   6.491   1.748   0.627  4.5877  0.7120  1.3476
 4199TIP3   OH234155   1.229   1.470   6.927  0.1427  0.0270  0.3021
 4199TIP3    H134156   1.269   1.498   6.844  0.0418  3.7139  1.3283
 4199TIP3    H234157   1.303   1.453   6.985  0.2045 -1.6265 -0.2316
 4200TIP3   OH234158   6.616   2.895   7.435  0.3081  0.7938 -0.0078
 4200TIP3    H134159   6.614   2.895   7.531  1.0354 -1.6102  0.0715
 4200TIP3    H234160   6.702   2.861   7.412 -0.3771 -0.0358 -1.4930
 4201TIP3   OH234161   0.943   4.157   7.740 -0.2421  0.7999 -0.4180
 4201TIP3    H134162   0.857   4.116   7.733  0.0360 -0.0246  0.7424
 4201TIP3    H234163   0.930   4.247   7.708 -1.7050  0.9326  0.4877
 4202TIP3   OH234164   5.607   1.829   8.388 -0.1996 -0.1246  0.2783
 4202TIP3    H134165   5.593   1.736   8.367  2.0374 -0.8346  1.5074
 4202TIP3    H234166   5.643   1.827   8.477 -1.1244  2.0379  0.7463
 4203TIP3   OH234167   2.086   3.377   8.205 -0.5937  0.5441 -0.2902
 4203TIP3    H134168   2.172   3.410   8.232  0.5416 -1.9233 -0.5686
 4203TIP3    H234169   2.035   3.373   8.286  0.5876 -0.6989  0.4359
 4204TIP3   OH234170   5.962   5.647   1.462 -0.1643  0.8407  0.0865
 4204TIP3    H134171   5.898   5.713   1.438 -1.7596  0.0637  1.8887
 4204TIP3    H234172   5.932   5.614   1.547  0.7874 -1.8736 -0.5107
 4205TIP3   OH234173   6.088   6.407   1.911  0.0524  0.0257 -0.4045
 4205TIP3    H134174   6.060   6.376   1.825 -2.0782 -0.7351  0.4926
 4205TIP3    H234175   6.007   6.418   1.960  1.0615  2.5262  0.8774
 4206TIP3   OH234176   1.771   3.683   7.917 -0.4574 -1.1424 -0.4492
 4206TIP3    H134177   1.723   3.660   7.837 -0.4349 -0.6267 -0.6108
 4206TIP3    H234178   1.712   3.656   7.988 -1.2724  0.0313 -0.6453
 4207TIP3   OH234179   1.377   1.230   1.657 -0.0384  0.0391 -0.1107
 4207TIP3    H134180   1.463   1.238   1.614 -0.3788 -0.0159 -0.8162
 4207TIP3    H234181   1.364   1.136   1.668 -0.3305  0.0090 -0.6796
 4208TIP3   OH234182   6.712   0.315   0.767 -0.3442  0.5847 -0.0078
 4208TIP3    H134183   6.780   0.345   0.827  2.5650 -0.0043 -2.7190
 4208TIP3    H234184   6.638   0.374   0.782  1.2393  2.1622  2.1686
 4209TIP3   OH234185   6.687   2.146   0.727 -0.0523 -0.2991  0.5071
 4209TIP3    H134186   6.711   2.058   0.700 -0.5356  0.2423 -1.9116
 4209TIP3    H234187   6.760   2.200   0.699 -0.9090  0.3896 -0.5153
 4210TIP3   OH234188   3.666   2.984   1.409 -0.0069 -0.4915  0.5526
 4210TIP3    H134189   3.674   2.993   1.504 -0.8108 -1.5361  0.7343
 4210TIP3    H234190   3.676   3.074   1.376  0.2310 -0.1125  1.6203
 4211TIP3   OH234191   1.023   2.189   1.008 -0.4642 -0.4425  0.0597
 4211TIP3    H134192   1.021   2.188   0.912  1.1539 -0.2046  0.0004
 4211TIP3    H234193   0.974   2.267   1.032  0.3202  0.2779 -0.6355
 4212TIP3   OH234194   3.189   2.590   7.458 -0.2332  0.0004  0.3322
 4212TIP3    H134195   3.170   2.679   7.486 -0.1764  0.7523 -1.8053
 4212TIP3    H234196   3.136   2.534   7.514  0.7889  1.2491  2.6487
 4213TIP3   OH234197   6.784   1.849   8.340  0.4213  0.0861  0.0730
 4213TIP3    H134198   6.734   1.854   8.258  0.6166 -0.5177 -0.0956
 4213TIP3    H234199   6.799   1.755   8.352 -0.3932  0.0971  1.2950
 4214TIP3   OH234200   4.714   6.056   7.805 -0.0143  0.2411 -0.0158
 4214TIP3    H134201   4.781   6.098   7.751  0.9794  1.1330  1.8312
 4214TIP3    H234202   4.681   6.126   7.861 -0.8230 -0.7144  0.7396
 4215TIP3   OH234203   3.707   3.038   1.666  0.4870 -0.3286 -0.3780
 4215TIP3    H134204   3.654   2.991   1.730 -1.3308  1.0074 -0.8264
 4215TIP3    H234205   3.748   3.109   1.715  0.0638 -0.0300 -0.4530
 4216TIP3   OH234206   2.947   2.981   7.164 -1.0051  0.1478 -0.0031
 4216TIP3    H134207   2.863   2.954   7.127  0.4048 -0.3882 -3.2021
 4216TIP3    H234208   2.955   3.073   7.141 -0.3471 -0.0491 -0.6262
 4217TIP3   OH234209   4.565   6.784   0.234  0.3906 -0.3149  0.5786
 4217TIP3    H134210   4.630   6.853   0.223 -1.3531  1.2621 -0.2274
 4217TIP3    H234211   4.519   6.807   0.315 -0.2842 -0.4683  0.2428
 4218TIP3   OH234212   3.029   4.061   7.470  0.1707  0.4478  0.2571
 4218TIP3    H134213   3.072   4.003   7.407 -0.9227  0.4469 -0.4934
 4218TIP3    H234214   3.020   4.007   7.549 -0.2081 -0.1889 -0.2130
 4219TIP3   OH234215   1.602   2.672   1.245  0.3446 -0.1932  0.1501
 4219TIP3    H134216   1.654   2.691   1.166 -0.6943  0.7051 -0.3509
 4219TIP3    H234217   1.512   2.693   1.220  0.0258  0.3542  1.6551
 4220TIP3   OH234218   0.032   6.761   8.073 -0.1898  0.4463  0.3294
 4220TIP3    H134219   0.121   6.782   8.099 -0.4330  2.1712 -0.1279
 4220TIP3    H234220   0.041   6.690   8.010  0.8502  0.5394  0.3651
 4221TIP3   OH234221   6.380   1.697   3.076 -0.1773  0.2429  0.3045
 4221TIP3    H134222   6.411   1.607   3.083 -1.0479 -0.1587 -0.7495
 4221TIP3    H234223   6.452   1.750   3.110 -0.4357 -0.9301  2.8329
 4222TIP3   OH234224   2.579   2.543   8.424 -0.2339 -0.1967  0.0238
 4222TIP3    H134225   2.632   2.540   8.503 -0.2446 -0.6465  0.0187
 4222TIP3    H234226   2.617   2.614   8.372  0.9616 -1.1043 -0.3891
 4223TIP3   OH234227   6.096   0.707   8.045  0.1515  0.3855  0.9332
 4223TIP3    H134228   6.159   0.635   8.048 -0.9720 -0.6388  0.6515
 4223TIP3    H234229   6.063   0.713   8.135 -1.4140 -1.0229  0.5176
 4224TIP3   OH234230   4.609   0.523   0.322  0.2737  0.1915  0.2481
 4224TIP3    H134231   4.680   0.584   0.301 -0.3943  0.9109  0.0064
 4224TIP3    H234232   4.550   0.529   0.247  0.3340 -0.9751  0.0968
 4225TIP3   OH234233   1.657   4.563   0.504  0.4030  0.3570  0.1000
 4225TIP3    H134234   1.655   4.467   0.506  0.9657  0.2313 -2.2324
 4225TIP3    H234235   1.730   4.587   0.561  1.2311 -0.6902 -0.4955
 4226TIP3   OH234236   5.746   5.282   7.083 -0.0077 -0.4955 -0.4662
 4226TIP3    H134237   5.723   5.342   7.011 -0.2480  0.8127  0.6598
 4226TIP3    H234238   5.701   5.317   7.159  0.4307 -1.7233  0.3898
 4227TIP3   OH234239   4.630   6.145   1.735  0.1326 -0.3307  0.1472
 4227TIP3    H134240   4.642   6.210   1.665  3.1881  0.0117  0.8293
 4227TIP3    H234241   4.656   6.062   1.694 -0.4992 -0.5543  0.1988
 4228TIP3   OH234242   2.130   4.989   2.240 -0.3268  0.0137 -0.1314
 4228TIP3    H134243   2.158   4.963   2.152  0.0736 -2.6726  0.6842
 4228TIP3    H234244   2.043   5.027   2.228 -0.6471 -1.0881 -1.6163
 4229TIP3   OH234245   6.325   2.787   7.380  0.4734 -0.2962  0.1343
 4229TIP3    H134246   6.360   2.716   7.434  1.8678  1.0982  1.1647
 4229TIP3    H234247   6.393   2.854   7.382  0.9519 -0.4353 -4.0859
 4230TIP3   OH234248   0.237   3.220   0.111  0.2329 -0.1530 -0.1735
 4230TIP3    H134249   0.217   3.186   0.024  1.7227  0.6091 -0.8542
 4230TIP3    H234250   0.333   3.219   0.116  0.2493 -2.9709  2.6067
 4231TIP3   OH234251   2.588   3.265   0.362  0.3389 -0.3866 -0.1592
 4231TIP3    H134252   2.556   3.280   0.450  0.7376 -0.7303  0.0476
 4231TIP3    H234253   2.510   3.269   0.307 -0.0585 -1.2110  0.3339
 4232TIP3   OH234254   5.038   4.245   8.668  0.6951 -0.3734 -0.1654
 4232TIP3    H134255   4.971   4.193   8.623  0.8809 -1.4785  0.8048
 4232TIP3    H234256   5.117   4.192   8.664  0.3781 -1.2304  2.7049
 4233TIP3   OH234257   6.397   1.844   6.598 -0.2611  0.4064 -0.0664
 4233TIP3    H134258   6.343   1.918   6.569 -0.2908  0.3868 -0.0611
 4233TIP3    H234259   6.337   1.770   6.599 -0.1543  0.3112 -0.4014
 4234TIP3   OH234260   6.672   1.565   1.519 -0.2213  0.1778 -0.3054
 4234TIP3    H134261   6.671   1.659   1.499 -2.5353 -0.2251 -2.5999
 4234TIP3    H234262   6.608   1.555   1.589  2.2920  0.5716  2.2716
 4235TIP3   OH234263   3.221   3.059   8.544 -0.3140  0.3980  0.8728
 4235TIP3    H134264   3.228   3.121   8.617 -0.5605  0.8874  0.4880
 4235TIP3    H234265   3.293   3.083   8.485  0.0617 -0.1800  1.0869
 4236TIP3   OH234266   6.104   5.949   0.449  0.2024  0.0532 -0.3735
 4236TIP3    H134267   6.094   5.950   0.545  0.0439  0.6251 -0.3948
 4236TIP3    H234268   6.196   5.969   0.434  0.0329  0.8763 -0.3634
 4237TIP3   OH234269   1.652   1.267   1.923  0.3772 -0.4285 -0.2821
 4237TIP3    H134270   1.744   1.239   1.923  0.9329  1.2095  1.2867
 4237TIP3    H234271   1.650   1.345   1.868  0.1154  0.0419  0.3820
 4238TIP3   OH234272   4.933   4.296   2.461  0.2867 -0.1854  0.2243
 4238TIP3    H134273   4.929   4.202   2.480  0.3872 -0.0150  1.1344
 4238TIP3    H234274   4.844   4.328   2.480 -0.1154 -0.2989 -1.3075
 4239TIP3   OH234275   1.063   1.905   0.917  0.2984 -0.5126  0.0459
 4239TIP3    H134276   1.067   1.987   0.967  0.4210  0.4037 -1.4244
 4239TIP3    H234277   0.982   1.864   0.947 -0.8593  1.1451 -0.6498
 4240TIP3   OH234278   6.192   1.533   8.126  0.6426  0.0074  0.3806
 4240TIP3    H134279   6.256   1.602   8.109  1.2009 -0.6710 -0.3986
 4240TIP3    H234280   6.231   1.481   8.197 -0.3458  1.1669  1.8330
 4241TIP3   OH234281   5.287   5.456   6.516 -0.1461 -1.0173  0.3148
 4241TIP3    H134282   5.272   5.394   6.445 -2.9001  1.6165 -1.6686
 4241TIP3    H234283   5.207   5.453   6.569 -0.7662  1.3305 -0.3594
 4242TIP3   OH234284   6.113   5.049   8.291 -0.7751 -0.3968 -0.3162
 4242TIP3    H134285   6.075   4.968   8.256 -2.1049  0.0973 -0.0532
 4242TIP3    H234286   6.204   5.026   8.310 -1.1528 -1.8561 -0.1660
 4243TIP3   OH234287   6.837   1.453   6.735 -0.4045 -0.0673 -0.2134
 4243TIP3    H134288   6.777   1.420   6.802 -0.5493  0.3302 -0.1464
 4243TIP3    H234289   6.823   1.548   6.734 -2.3874 -0.2607 -2.6863
 4244TIP3   OH234290   0.259   5.215   6.546  0.0381  0.3927  0.0111
 4244TIP3    H134291   0.256   5.153   6.472 -0.2415 -0.2150  0.5181
 4244TIP3    H234292   0.338   5.267   6.530 -0.2684  0.5852 -0.9580
 4245TIP3   OH234293   5.666   5.072   1.291 -0.6131  0.5909  0.2479
 4245TIP3    H134294   5.705   5.155   1.319  3.1371 -1.6541  2.6720
 4245TIP3    H234295   5.725   5.040   1.223 -1.9222 -0.1552 -0.5585
 4246TIP3   OH234296   2.333   1.021   2.124  0.1581 -0.4636 -0.0352
 4246TIP3    H134297   2.335   1.090   2.191 -0.7871 -1.1031  0.6831
 4246TIP3    H234298   2.405   0.962   2.148 -0.4222 -0.9004  0.6667
 4247TIP3   OH234299   3.780   5.869   1.563  0.2550 -0.3821 -0.5274
 4247TIP3    H134300   3.697   5.868   1.611 -0.5640  3.2924 -1.5864
 4247TIP3    H234301   3.776   5.790   1.508 -1.5889 -1.3655  0.8821
 4248TIP3   OH234302   5.719   5.080   6.405  0.0895  0.2213  0.0443
 4248TIP3    H134303   5.762   5.114   6.327  0.4973  1.1653  0.6668
 4248TIP3    H234304   5.750   4.990   6.412  1.5197  0.7046  0.1505
 4249TIP3   OH234305   2.375   0.367   0.511  0.1836 -0.6142  0.2495
 4249TIP3    H134306   2.342   0.363   0.600 -0.8939 -0.5834 -0.1333
 4249TIP3    H234307   2.411   0.455   0.502 -2.0771  0.3530 -0.1242
 4250TIP3   OH234308   6.503   0.000   0.804 -0.7114  0.1109 -0.2066
 4250TIP3    H134309   6.426   0.050   0.831 -0.9028 -0.1022 -0.3545
 4250TIP3    H234310   6.503   0.007   0.708 -1.0304 -0.5924 -0.2675
 4251TIP3   OH234311   2.042   0.045   6.800 -0.0380  0.1803  0.2489
 4251TIP3    H134312   1.964   0.006   6.760 -0.0729 -2.2421  2.3552
 4251TIP3    H234313   2.058   0.125   6.750 -1.6133 -1.1840 -2.7032
 4252TIP3   OH234314   2.192   5.495   7.145 -0.0151  0.4425  0.0078
 4252TIP3    H134315   2.176   5.552   7.070  0.6155  0.0302 -0.4575
 4252TIP3    H234316   2.139   5.532   7.216  0.3541  1.5744 -0.2858
 4253TIP3   OH234317   5.408   1.646   7.220 -0.3584  0.5606 -0.5358
 4253TIP3    H134318   5.498   1.657   7.249 -0.8533 -0.4600  1.5475
 4253TIP3    H234319   5.398   1.551   7.206 -1.1160  0.6481 -0.6642
 4254TIP3   OH234320   2.915   5.181   8.041 -0.2296 -0.0814 -0.7053
 4254TIP3    H134321   2.863   5.239   8.096 -0.2061 -0.9067  0.2120
 4254TIP3    H234322   3.001   5.224   8.035  0.2175 -0.6334  1.0770
 4255TIP3   OH234323   0.585   3.685   7.616  0.2188  0.4067 -0.5619
 4255TIP3    H134324   0.622   3.611   7.568  1.7476 -0.1496  1.3446
 4255TIP3    H234325   0.565   3.650   7.703  0.5337  2.1045  0.2356
 4256TIP3   OH234326   6.005   2.235   7.380 -0.6747 -0.3717  0.5240
 4256TIP3    H134327   6.037   2.293   7.310 -0.9944 -0.7259  0.0760
 4256TIP3    H234328   6.071   2.166   7.384 -1.3437 -1.0956 -0.3915
 4257TIP3   OH234329   1.912   4.426   6.681 -0.0108  0.5018  0.6028
 4257TIP3    H134330   1.927   4.513   6.718 -0.2286  0.8962 -0.2058
 4257TIP3    H234331   1.977   4.418   6.611 -0.0284  0.0374  0.6365
 4258TIP3   OH234332   0.912   5.781   7.658  0.3017 -0.5450 -0.8077
 4258TIP3    H134333   0.948   5.692   7.665  1.0865 -0.1959 -0.2899
 4258TIP3    H234334   0.883   5.801   7.746 -1.5746 -0.9657 -1.2887
 4259TIP3   OH234335   4.054   6.825   7.470 -0.0151  0.2983 -0.6552
 4259TIP3    H134336   3.963   6.853   7.459 -0.9814 -1.9970  0.7400
 4259TIP3    H234337   4.070   6.766   7.397  0.7399  1.4377 -1.4504
 4260TIP3   OH234338   2.239   1.963   2.249  0.4064 -0.0265  0.2903
 4260TIP3    H134339   2.252   2.057   2.234 -0.7844  0.1055 -0.0059
 4260TIP3    H234340   2.324   1.924   2.228 -0.0564  0.5697 -3.5232
 4261TIP3   OH234341   3.848   2.484   8.385 -0.4415 -0.2430  0.5297
 4261TIP3    H134342   3.829   2.575   8.360 -0.1769 -0.6283 -1.2524
 4261TIP3    H234343   3.943   2.479   8.386 -0.4495 -0.6144  0.0586
 4262TIP3   OH234344   0.168   6.140   1.450 -0.0851 -0.2372 -0.3495
 4262TIP3    H134345   0.128   6.134   1.536  0.2123  2.6735  0.0805
 4262TIP3    H234346   0.206   6.228   1.447  2.0219 -1.1100 -2.5514
 4263TIP3   OH234347   1.916   6.512   8.508 -0.8375 -0.0998 -0.7362
 4263TIP3    H134348   1.927   6.494   8.601  0.8497  1.5035 -0.5812
 4263TIP3    H234349   2.002   6.495   8.470 -0.7564  1.8680 -1.5218
 4264TIP3   OH234350   0.191   0.552   1.828  0.0378  0.0166 -0.6781
 4264TIP3    H134351   0.238   0.469   1.822  0.6428  0.4138 -1.7511
 4264TIP3    H234352   0.233   0.598   1.900 -0.8352 -0.9151  0.4579
 4265TIP3   OH234353   6.675   2.367   7.295 -0.1447 -0.1464  0.2914
 4265TIP3    H134354   6.671   2.456   7.260 -0.5584  0.0598  0.8524
 4265TIP3    H234355   6.768   2.350   7.309 -0.0267  0.0080 -0.2926
 4266TIP3   OH234356   4.140   5.745   0.445 -0.0772  0.7100  0.9051
 4266TIP3    H134357   4.160   5.663   0.491  0.3387  1.3481  1.9010
 4266TIP3    H234358   4.137   5.811   0.514 -2.1354  1.2744  0.3514
 4267TIP3   OH234359   6.202   4.783   8.374 -0.0164  0.1086 -0.3184
 4267TIP3    H134360   6.237   4.720   8.310 -3.0915 -0.6213 -1.4619
 4267TIP3    H234361   6.246   4.760   8.456  0.7388 -1.9642 -1.2261
 4268TIP3   OH234362   4.873   1.779   8.325 -0.6115 -0.2911  0.3186
 4268TIP3    H134363   4.792   1.782   8.376 -0.3385 -0.3323  0.7552
 4268TIP3    H234364   4.861   1.704   8.267 -0.7801 -0.4566  0.5625
 4269TIP3   OH234365   5.654   3.965   6.384  0.0014 -0.6607  0.2853
 4269TIP3    H134366   5.652   3.870   6.384  0.5491 -0.6769  0.1295
 4269TIP3    H234367   5.602   3.991   6.460  0.5550 -1.1004  0.8227
 4270TIP3   OH234368   2.584   0.137   6.386  0.1599  0.0323  0.2450
 4270TIP3    H134369   2.595   0.123   6.480  0.2462  0.0663  0.2393
 4270TIP3    H234370   2.520   0.070   6.360  0.8131 -0.5621  0.1564
 4271TIP3   OH234371   6.578   5.057   6.664  0.1676 -0.5341 -0.6739
 4271TIP3    H134372   6.554   5.050   6.572 -0.4206 -1.8567 -0.4415
 4271TIP3    H234373   6.674   5.054   6.664  0.2081  0.4275 -1.3001
 4272TIP3   OH234374   4.015   5.832   1.751  0.7158  0.0279  0.0620
 4272TIP3    H134375   4.077   5.905   1.752  0.0903  0.5911 -0.5722
 4272TIP3    H234376   3.959   5.849   1.675 -0.3528 -0.3381  0.7343
 4273TIP3   OH234377   5.160   0.212   2.071 -0.2057 -0.7419 -0.4876
 4273TIP3    H134378   5.114   0.296   2.077 -2.4604 -1.9187  0.1382
 4273TIP3    H234379   5.245   0.228   2.112 -0.6575  1.1820 -0.1956
 4274TIP3   OH234380   6.331   0.869   8.373  0.0107 -0.0226 -0.3277
 4274TIP3    H134381   6.404   0.892   8.430  1.3228 -4.3282  0.1265
 4274TIP3    H234382   6.255   0.866   8.431 -0.0091  1.7133 -0.2153
 4275TIP3   OH234383   5.640   6.517   1.565  0.2160 -0.1096 -0.1678
 4275TIP3    H134384   5.668   6.501   1.475  0.6569 -1.5113  0.1919
 4275TIP3    H234385   5.550   6.487   1.568  0.4734 -0.8680  0.0652
 4276TIP3   OH234386   0.360   1.011   8.012 -0.8093  0.2004  0.7173
 4276TIP3    H134387   0.280   1.049   7.976 -0.7336 -0.3320 -0.0335
 4276TIP3    H234388   0.358   0.920   7.983  1.7079  0.9283 -2.2074
 4277TIP3   OH234389   2.318   5.582   8.694  0.0098  0.0766  0.0778
 4277TIP3    H134390   2.280   5.670   8.706  0.0367  0.2885 -1.2331
 4277TIP3    H234391   2.244   5.523   8.706 -0.0279  0.2758  0.8820
 4278TIP3   OH234392   6.818   5.730   6.594 -0.3449 -0.6622 -0.0440
 4278TIP3    H134393   6.782   5.727   6.683 -1.8005 -2.5309 -0.6300
 4278TIP3    H234394   6.744   5.752   6.538  0.1304 -1.3166 -0.9660
 4279TIP3   OH234395   0.659   6.012   8.303 -0.3602 -0.3407  0.5011
 4279TIP3    H134396   0.696   6.046   8.384 -1.3781 -0.9740  1.2602
 4279TIP3    H234397   0.565   6.010   8.318 -0.4900 -1.4391 -0.3134
 4280TIP3   OH234398   6.160   5.661   0.385 -0.0543 -0.2895 -0.3542
 4280TIP3    H134399   6.139   5.753   0.399 -0.1590 -0.2288 -0.8958
 4280TIP3    H234400   6.091   5.630   0.326  0.6069 -0.4313 -1.0653
 4281TIP3   OH234401   4.707   2.214   8.571  0.2273 -0.1476 -0.1300
 4281TIP3    H134402   4.791   2.169   8.584  0.8327  0.5172 -1.4330
 4281TIP3    H234403   4.649   2.147   8.537 -0.0798 -0.8395  1.6618
 4282TIP3   OH234404   4.801   4.609   8.587 -0.4316 -0.4455  0.2527
 4282TIP3    H134405   4.893   4.590   8.569 -0.4725 -0.7434  0.3616
 4282TIP3    H234406   4.753   4.567   8.515 -0.4168  0.5281 -0.3352
 4283TIP3   OH234407   3.615   1.163   7.256  0.0207  0.6332  0.2338
 4283TIP3    H134408   3.707   1.180   7.273  0.1273 -0.0606  0.3492
 4283TIP3    H234409   3.570   1.201   7.332  0.3896 -1.1267  1.3771
 4284TIP3   OH234410   1.231   3.775   6.493 -0.3891 -0.2413  0.1035
 4284TIP3    H134411   1.146   3.739   6.467 -1.5147  0.8195  2.0590
 4284TIP3    H234412   1.245   3.848   6.432 -0.6316 -0.7334 -0.5552
 4285TIP3   OH234413   1.104   4.958   8.517  0.4773 -0.2213 -0.2897
 4285TIP3    H134414   1.028   5.000   8.476  1.4291  0.8669 -0.9973
 4285TIP3    H234415   1.110   4.872   8.474 -1.8438 -1.4717  1.5885
 4286TIP3   OH234416   1.341   4.525   8.370  0.4022  0.3109 -0.0894
 4286TIP3    H134417   1.369   4.597   8.313  0.6139  0.1451 -0.1978
 4286TIP3    H234418   1.396   4.451   8.343  0.7154  0.3102  0.5389
 4287TIP3   OH234419   1.497   1.036   1.235  0.0219 -0.5484 -0.2642
 4287TIP3    H134420   1.495   1.097   1.308 -1.0398  0.1129 -0.8158
 4287TIP3    H234421   1.574   1.062   1.184 -0.0527 -0.0844 -0.1441
 4288TIP3   OH234422   5.859   0.668   2.271 -0.5681 -0.0019 -0.0489
 4288TIP3    H134423   5.836   0.666   2.363 -0.2072  1.5885  0.0973
 4288TIP3    H234424   5.809   0.596   2.232 -0.2416 -1.0903  1.4657
 4289TIP3   OH234425   2.365   3.867   7.763 -0.1198 -0.0030  0.7571
 4289TIP3    H134426   2.337   3.822   7.842 -1.3641 -1.3376 -0.3825
 4289TIP3    H234427   2.285   3.899   7.723  0.3699 -0.1373 -0.4038
 4290TIP3   OH234428   5.602   0.122   6.460 -0.1330  0.4833 -0.0903
 4290TIP3    H134429   5.601   0.113   6.556  0.1254 -0.8095 -0.1916
 4290TIP3    H234430   5.573   0.211   6.445 -1.9756  0.1538  1.1413
 4291TIP3   OH234431   3.240   5.209   7.519 -0.0217 -0.4133 -0.0213
 4291TIP3    H134432   3.163   5.265   7.528  0.9344  1.0383 -0.4978
 4291TIP3    H234433   3.217   5.129   7.565 -2.1399 -0.3719 -0.8720
 4292TIP3   OH234434   5.609   3.781   8.362 -0.2811  0.2470  0.2884
 4292TIP3    H134435   5.658   3.721   8.306  1.3507  0.5923  1.2649
 4292TIP3    H234436   5.547   3.725   8.409 -0.7019 -0.2409 -0.8156
 4293TIP3   OH234437   0.178   4.991   8.454 -0.6001 -0.3316  0.0065
 4293TIP3    H134438   0.103   5.041   8.487 -1.7310 -1.5955 -0.5782
 4293TIP3    H234439   0.207   4.940   8.529 -0.9067 -0.5079  0.0101
 4294TIP3   OH234440   5.905   5.990   7.536  0.1786 -0.2268 -0.2431
 4294TIP3    H134441   5.870   6.049   7.469  0.4803 -0.2435 -0.4159
 4294TIP3    H234442   5.978   5.945   7.493  0.7290  0.1672  0.2603
 4295TIP3   OH234443   2.125   6.590   6.327  0.2059  0.4093  0.1694
 4295TIP3    H134444   2.064   6.643   6.378  0.5557  0.6864  0.3100
 4295TIP3    H234445   2.072   6.552   6.257 -0.2205  0.2552  0.5711
 4296TIP3   OH234446   6.142   5.135   1.438 -0.0814  0.1815  0.1026
 4296TIP3    H134447   6.095   5.186   1.372  0.8718 -0.4035 -1.0714
 4296TIP3    H234448   6.074   5.090   1.487 -0.8405  1.0695 -0.1093
 4297TIP3   OH234449   4.606   6.009   1.976 -0.1382 -0.5228  0.5530
 4297TIP3    H134450   4.599   6.042   1.886  1.8863  0.0692  0.5723
 4297TIP3    H234451   4.515   5.997   2.004 -0.8213 -0.4514 -1.4624
 4298TIP3   OH234452   5.672   6.477   1.833 -0.1091 -0.5625 -0.2630
 4298TIP3    H134453   5.676   6.516   1.745  0.8643  2.9772  1.1801
 4298TIP3    H234454   5.579   6.477   1.855 -0.2286 -0.0506 -0.7380
 4299TIP3   OH234455   2.512   2.135   7.691 -0.3055  0.0840  0.8372
 4299TIP3    H134456   2.424   2.103   7.671  0.2313 -0.7051 -0.4606
 4299TIP3    H234457   2.511   2.227   7.666 -1.0396  0.3476  1.8003
 4300TIP3   OH234458   6.047   6.428   8.308  0.2033 -0.5778  0.5564
 4300TIP3    H134459   5.968   6.466   8.269  0.7016 -0.4587 -0.3635
 4300TIP3    H234460   6.062   6.348   8.257  0.8083 -0.4711  0.5596
 4301TIP3   OH234461   4.770   1.982   0.714  0.4057 -0.0473 -0.1972
 4301TIP3    H134462   4.750   2.020   0.799  0.6945 -0.0898 -0.1070
 4301TIP3    H234463   4.692   1.998   0.661  0.3390  0.2418 -0.0143
 4302TIP3   OH234464   5.398   6.366   8.234  0.5160  0.1441  0.4700
 4302TIP3    H134465   5.411   6.461   8.232 -0.3325  0.2745 -1.3942
 4302TIP3    H234466   5.323   6.351   8.176  2.1878 -1.8605 -1.3635
 4303TIP3   OH234467   1.742   4.079   8.543 -0.1996 -0.4375 -0.3042
 4303TIP3    H134468   1.745   4.173   8.559 -0.8648 -0.3903 -0.4112
 4303TIP3    H234469   1.730   4.040   8.630 -1.4273 -0.3209 -0.3929
 4304TIP3   OH234470   5.667   5.074   0.345  0.6157 -0.0076  0.9210
 4304TIP3    H134471   5.628   5.114   0.268  1.1060  0.5060  0.9371
 4304TIP3    H234472   5.598   5.018   0.380 -0.6100  1.9415  1.7611
 4305TIP3   OH234473   6.466   2.930   0.435 -0.3815 -0.2089 -0.1314
 4305TIP3    H134474   6.510   2.890   0.360  1.8581  1.4361  0.2155
 4305TIP3    H234475   6.449   3.020   0.408  1.5064  0.7607  1.6537
 4306TIP3   OH234476   4.806   4.048   1.576  0.5202  0.2060  0.0036
 4306TIP3    H134477   4.863   4.125   1.582  1.2606 -0.3032 -0.3164
 4306TIP3    H234478   4.830   3.994   1.651 -0.1345  0.3624  0.3378
 4307TIP3   OH234479   6.595   2.660   1.714  0.0177  0.3313  0.1276
 4307TIP3    H134480   6.639   2.585   1.675 -3.3135 -1.6089 -0.3063
 4307TIP3    H234481   6.631   2.736   1.668  0.1575 -1.4140 -2.8872
 4308TIP3   OH234482   6.232   5.509   0.577  0.1868  0.0407  0.2646
 4308TIP3    H134483   6.179   5.548   0.647 -0.0522  0.2745 -0.0416
 4308TIP3    H234484   6.214   5.564   0.500  2.6163  1.5341  0.6601
 4309TIP3   OH234485   6.833   4.719   1.277  0.4522 -0.1051 -0.2756
 4309TIP3    H134486   6.848   4.794   1.220  2.4591 -0.9739 -1.0167
 4309TIP3    H234487   6.743   4.728   1.307 -0.2986  1.0564 -2.6180
 4310TIP3   OH234488   3.939   4.885   1.747  0.0269  0.4679 -0.1016
 4310TIP3    H134489   3.961   4.864   1.838  0.0080  0.0837 -0.1836
 4310TIP3    H234490   3.914   4.802   1.709 -1.9712  0.9507  0.0813
 4311TIP3   OH234491   1.140   5.099   7.829  0.2790 -0.3233 -0.3462
 4311TIP3    H134492   1.228   5.067   7.811  0.2415 -1.2341  0.9846
 4311TIP3    H234493   1.153   5.173   7.888  0.2014  0.2772 -1.0692
 4312TIP3   OH234494   3.944   5.461   7.306 -0.1355  0.1891  0.3540
 4312TIP3    H134495   3.923   5.436   7.396  1.4779 -1.2127  0.3824
 4312TIP3    H234496   4.039   5.456   7.300 -0.2726 -1.4828 -1.8791
 4313TIP3   OH234497   5.217   3.969   7.850  0.0859 -0.1019 -0.2687
 4313TIP3    H134498   5.141   4.026   7.864 -0.3585 -1.0653  1.4909
 4313TIP3    H234499   5.179   3.886   7.821  0.4913 -0.4628  0.2340
 4314TIP3   OH234500   2.826   3.883   1.559  0.3947 -0.0848 -0.0047
 4314TIP3    H134501   2.832   3.898   1.653  0.5210 -1.3520  0.2065
 4314TIP3    H234502   2.733   3.867   1.542  0.4846 -0.7019  0.0544
 4315TIP3   OH234503   5.804   0.303   7.159 -0.4271  0.3280 -1.1111
 4315TIP3    H134504   5.863   0.233   7.133  0.1544  0.3336  0.1154
 4315TIP3    H234505   5.742   0.260   7.219  0.2952  0.9669  0.1192
 4316TIP3   OH234506   6.742   1.309   6.979  0.5664  0.2609 -0.0964
 4316TIP3    H134507   6.712   1.284   7.066  0.0078  0.7893 -0.1273
 4316TIP3    H234508   6.709   1.240   6.921 -1.6678  1.4055 -0.2976
 4317TIP3   OH234509   2.758   3.465   0.299 -0.2299 -0.0112  0.3501
 4317TIP3    H134510   2.785   3.449   0.209  1.2282 -1.9369  1.0560
 4317TIP3    H234511   2.705   3.389   0.322 -0.5599  0.4444  1.1472
 4318TIP3   OH234512   3.863   6.128   8.384 -0.9790  0.5226 -0.6635
 4318TIP3    H134513   3.851   6.130   8.289 -1.6970  2.1112 -0.5726
 4318TIP3    H234514   3.779   6.098   8.419  0.0061 -2.4480 -0.5689
 4319TIP3   OH234515   3.321   1.334   1.393  0.4070 -0.5793  0.2870
 4319TIP3    H134516   3.377   1.397   1.438  1.2833 -2.2871  1.7061
 4319TIP3    H234517   3.381   1.269   1.356 -0.5253 -1.2837 -0.0403
 4320TIP3   OH234518   0.153   2.485   6.831  0.4809  0.2444 -0.7933
 4320TIP3    H134519   0.172   2.564   6.881  0.4002 -0.0779 -0.2444
 4320TIP3    H234520   0.180   2.413   6.888 -0.5776 -0.1609 -0.7805
 4321TIP3   OH234521   2.691   6.572   7.663  0.2760 -0.0147  0.0382
 4321TIP3    H134522   2.674   6.519   7.586  0.0015 -0.0987  0.1550
 4321TIP3    H234523   2.739   6.648   7.630 -2.4028  1.4609 -0.7000
 4322TIP3   OH234524   5.164   0.437   0.265 -0.0194  0.1998  0.1208
 4322TIP3    H134525   5.237   0.454   0.206 -0.3769  0.3055 -0.2914
 4322TIP3    H234526   5.091   0.487   0.228 -0.3582 -0.0770  0.4122
 4323TIP3   OH234527   3.543   4.741   8.379  0.1303  0.2924 -0.0137
 4323TIP3    H134528   3.573   4.819   8.426 -3.0507  0.7613  1.4899
 4323TIP3    H234529   3.530   4.771   8.289 -1.4615  1.7146  0.6291
 4324TIP3   OH234530   6.382   4.304   0.088  0.1026 -0.3632 -0.2000
 4324TIP3    H134531   6.475   4.317   0.069 -0.2233 -1.3649 -2.8018
 4324TIP3    H234532   6.375   4.213   0.116 -0.0299 -0.0871  0.7075
 4325TIP3   OH234533   0.303   0.343   8.488  0.1499 -0.0697  0.1977
 4325TIP3    H134534   0.389   0.372   8.458 -0.0708 -0.3373 -0.7071
 4325TIP3    H234535   0.300   0.250   8.465 -1.1656  0.3826 -1.6677
 4326TIP3   OH234536   2.815   1.071   2.615 -0.4125  0.3054  0.1263
 4326TIP3    H134537   2.876   1.008   2.653 -0.8893  0.8051  1.8149
 4326TIP3    H234538   2.868   1.124   2.556  0.4876 -0.1849  0.4755
 4327TIP3   OH234539   1.355   5.466   8.662 -0.2097  0.2466 -0.8521
 4327TIP3    H134540   1.405   5.547   8.676 -0.2964  0.3104 -0.9200
 4327TIP3    H234541   1.414   5.411   8.611  0.9664 -0.7848  1.4382
 4328TIP3   OH234542   6.726   6.825   0.935 -0.5255 -0.5183  0.0632
 4328TIP3    H134543   6.758   6.749   0.887 -0.4680 -1.2145  1.1717
 4328TIP3    H234544   6.642   6.847   0.893  0.2225 -0.1767 -1.2950
 4329TIP3   OH234545   4.532   4.026   8.711  0.2727 -0.0114  0.1590
 4329TIP3    H134546   4.543   3.940   8.672  0.8021 -0.2252  0.7556
 4329TIP3    H234547   4.439   4.046   8.701  0.4314  0.0267 -1.3475
 4330TIP3   OH234548   4.244   5.412   8.336 -0.3806  0.1600 -0.4281
 4330TIP3    H134549   4.191   5.333   8.321 -1.0201  0.9127 -2.3231
 4330TIP3    H234550   4.284   5.430   8.251  1.6859  0.5384  0.5793
 4331TIP3   OH234551   4.627   3.908   8.338 -0.8715  0.1383 -0.3628
 4331TIP3    H134552   4.625   4.002   8.322 -1.0404  0.2541  0.3217
 4331TIP3    H234553   4.540   3.887   8.370 -1.1496 -0.4300 -1.4250
 4332TIP3   OH234554   2.083   6.677   0.386 -0.2720 -0.2942  0.3099
 4332TIP3    H134555   2.138   6.603   0.413  0.7237 -0.9181 -2.9960
 4332TIP3    H234556   1.993   6.647   0.400  0.1438 -1.4107  0.6938
 4333TIP3   OH234557   0.341   6.573   2.089  0.3346 -0.1313 -0.0503
 4333TIP3    H134558   0.411   6.637   2.084 -1.6097  2.0789 -0.5982
 4333TIP3    H234559   0.272   6.616   2.140 -0.4506 -2.4231  0.9636
 4334TIP3   OH234560   5.963   1.656   8.592  0.0659 -0.2853  0.3750
 4334TIP3    H134561   6.039   1.673   8.536  0.1470 -0.0486  0.5513
 4334TIP3    H234562   5.986   1.578   8.642 -0.6729 -1.4798 -1.0883
 4335TIP3   OH234563   3.433   4.783   0.838 -0.3936 -0.2300  0.2946
 4335TIP3    H134564   3.397   4.868   0.814 -1.2213 -1.0828 -1.6995
 4335TIP3    H234565   3.356   4.730   0.861 -0.0187 -0.8665  0.1066
 4336TIP3   OH234566   6.302   1.130   6.402  0.1077 -0.4118  0.3276
 4336TIP3    H134567   6.241   1.078   6.455 -0.7805 -1.3929 -1.5657
 4336TIP3    H234568   6.355   1.176   6.467  0.6615 -3.3013  2.1432
 4337TIP3   OH234569   5.016   2.760   0.406  0.4490 -0.6037 -0.1491
 4337TIP3    H134570   5.017   2.831   0.470 -1.6475 -3.5780  3.5775
 4337TIP3    H234571   5.107   2.753   0.376  1.1470  2.1069  1.0442
 4338TIP3   OH234572   1.130   4.751   0.843  0.1957  0.4204 -0.8490
 4338TIP3    H134573   1.195   4.683   0.860  1.1847  1.6922  0.8093
 4338TIP3    H234574   1.152   4.785   0.757 -0.8306 -1.8431 -2.0892
 4339TIP3   OH234575   1.759   0.125   7.131 -0.6964  0.0170 -0.0024
 4339TIP3    H134576   1.854   0.129   7.119 -0.8857  0.6513 -1.6009
 4339TIP3    H234577   1.736   0.035   7.109 -0.5601  0.1072 -0.5336
 4340TIP3   OH234578   4.701   0.040   7.956  0.0891  0.3529 -0.6292
 4340TIP3    H134579   4.641  -0.006   7.898  0.0658 -1.8312  0.9689
 4340TIP3    H234580   4.778  -0.018   7.961  0.0127  0.3577  1.5656
 4341TIP3   OH234581   4.045   5.339   8.686  0.5763 -0.0022 -0.2860
 4341TIP3    H134582   3.962   5.308   8.649  0.1799  1.8200 -1.0429
 4341TIP3    H234583   4.024   5.358   8.778 -0.2438  1.6370 -0.7667
 4342TIP3   OH234584   3.497   5.130   7.469  0.4051 -0.2799  0.0194
 4342TIP3    H134585   3.545   5.211   7.450 -1.7286  0.6252 -1.8658
 4342TIP3    H234586   3.408   5.158   7.487 -0.0720 -2.1389  0.7876
 4343TIP3   OH234587   1.203   5.369   2.696 -0.5529 -0.0303 -0.2928
 4343TIP3    H134588   1.287   5.330   2.675 -0.7151 -0.2681 -0.5063
 4343TIP3    H234589   1.150   5.357   2.617 -0.8139  0.0402 -0.1316
 4344TIP3   OH234590   6.815   6.704   7.045  0.1986  0.3217  0.3044
 4344TIP3    H134591   6.840   6.665   6.961 -1.7461 -1.6131  0.5244
 4344TIP3    H234592   6.897   6.736   7.082  1.7045 -2.0606 -0.7279
 4345TIP3   OH234593   1.907   5.572   1.077  0.0271  0.1193  0.3146
 4345TIP3    H134594   1.966   5.590   1.150  1.5730 -1.1619 -0.5662
 4345TIP3    H234595   1.857   5.653   1.067  0.9824  0.9298  1.6712
 4346TIP3   OH234596   5.809   1.042   8.586  0.3522  0.0614 -0.3186
 4346TIP3    H134597   5.804   0.978   8.514 -0.2061 -0.9324  0.5721
 4346TIP3    H234598   5.877   1.006   8.644 -0.5951 -0.2118  0.6431
 4347TIP3   OH234599   1.700   5.901   8.689  0.2000 -0.2677  0.0733
 4347TIP3    H134600   1.713   5.925   8.597 -0.5739  0.5241  0.1553
 4347TIP3    H234601   1.641   5.968   8.723  1.4037  0.1296  1.4648
 4348TIP3   OH234602   0.660   4.795   0.334 -0.0223  0.3330  0.0286
 4348TIP3    H134603   0.597   4.730   0.300  0.4350 -0.4565  0.6441
 4348TIP3    H234604   0.607   4.852   0.389 -0.5136  0.7624 -0.8795
 4349TIP3   OH234605   0.878   5.896   2.207  0.3144 -0.0668  0.8344
 4349TIP3    H134606   0.954   5.951   2.227  0.8441 -1.0129  1.5277
 4349TIP3    H234607   0.885   5.824   2.269  0.1657 -1.4164 -0.6642
 4350TIP3   OH234608   5.418   2.572   8.259 -0.0737 -0.3132 -0.4495
 4350TIP3    H134609   5.451   2.611   8.340  0.5765 -2.1354  0.2153
 4350TIP3    H234610   5.436   2.638   8.192  2.3068 -0.0185  0.3635
 4351TIP3   OH234611   0.269   6.709   1.529  0.2091 -0.2519  0.3886
 4351TIP3    H134612   0.195   6.762   1.559  0.6117 -0.0779  1.0895
 4351TIP3    H234613   0.258   6.704   1.434 -1.9674 -2.1189  0.6543
 4352TIP3   OH234614   4.441   0.985   1.747 -0.0625 -0.8346 -0.0103
 4352TIP3    H134615   4.346   0.996   1.755 -0.2794 -2.6147  0.1851
 4352TIP3    H234616   4.477   1.071   1.769 -1.5840 -0.3943  0.8883
 4353TIP3   OH234617   1.070   6.276   6.249 -0.3184 -0.4591  0.2947
 4353TIP3    H134618   1.080   6.222   6.171  1.1481  0.9490 -0.5457
 4353TIP3    H234619   1.155   6.272   6.292  0.8225  3.3317 -1.2824
 4354TIP3   OH234620   6.210   5.378   7.259 -0.3858  0.1228 -0.5607
 4354TIP3    H134621   6.279   5.318   7.287 -0.1458  0.9814  0.7346
 4354TIP3    H234622   6.137   5.321   7.235 -0.1877 -0.6890  0.7111
 4355TIP3   OH234623   1.196   0.622   1.015 -0.2783  0.1791  0.6331
 4355TIP3    H134624   1.153   0.558   0.958  0.4508 -0.1228  0.4110
 4355TIP3    H234625   1.193   0.704   0.967 -0.3653  0.0994  0.5024
 4356TIP3   OH234626   4.355   0.259   1.368 -0.2979  0.0812  0.2568
 4356TIP3    H134627   4.402   0.313   1.432  0.9788 -0.3661 -0.2733
 4356TIP3    H234628   4.352   0.312   1.289 -0.2680 -0.0794  0.1474
 4357TIP3   OH234629   0.259   1.659   1.907  0.6407  0.2393  0.3751
 4357TIP3    H134630   0.243   1.566   1.920 -1.0591  0.4681  0.1393
 4357TIP3    H234631   0.333   1.663   1.846  0.4522 -0.9619  0.0514
 4358TIP3   OH234632   1.042   2.539   8.015  0.4311 -0.0372  0.5678
 4358TIP3    H134633   0.958   2.568   7.978 -0.4899 -1.0767  1.7470
 4358TIP3    H234634   1.085   2.495   7.942 -0.6658 -0.6914  0.2840
 4359TIP3   OH234635   2.508   2.015   6.745  0.1758  0.0543 -0.4765
 4359TIP3    H134636   2.534   1.923   6.749 -0.7724 -0.1866  0.8106
 4359TIP3    H234637   2.483   2.029   6.654  0.2787 -0.9718 -0.6695
 4360TIP3   OH234638   5.294   0.736   0.081  0.4876  0.4650  0.6070
 4360TIP3    H134639   5.272   0.647   0.054  0.0415  0.4221  1.1043
 4360TIP3    H234640   5.242   0.792   0.025  1.2158  0.4380 -0.1198
 4361TIP3   OH234641   1.219   3.402   8.690  0.2465 -0.2196  0.0148
 4361TIP3    H134642   1.231   3.497   8.684  0.1184 -0.1511  0.7368
 4361TIP3    H234643   1.208   3.385   8.784  1.7019 -1.1091  0.0616
 4362TIP3   OH234644   4.839   4.453   0.093 -0.9845  0.4141  0.3991
 4362TIP3    H134645   4.841   4.505   0.012 -0.0890  2.2613  1.5279
 4362TIP3    H234646   4.809   4.367   0.065  0.2585  0.6654 -2.0792
 4363TIP3   OH234647   3.523   2.248   0.659 -0.2223 -0.0596 -0.5203
 4363TIP3    H134648   3.435   2.243   0.620  0.3881 -0.2601 -1.9387
 4363TIP3    H234649   3.538   2.341   0.673 -0.5711 -0.0046 -0.4945
 4364TIP3   OH234650   3.895   5.823   0.225 -0.1820 -0.6086 -0.0563
 4364TIP3    H134651   3.859   5.785   0.144 -0.0126 -0.8290 -0.0293
 4364TIP3    H234652   3.989   5.806   0.220 -0.1957 -0.7825  0.2749
 4365TIP3   OH234653   5.850   3.354   7.993  0.7874  0.1196  0.6167
 4365TIP3    H134654   5.864   3.400   7.910  2.9180  0.9061  1.3204
 4365TIP3    H234655   5.773   3.395   8.031  1.0609  1.2697 -0.0176
 4366TIP3   OH234656   2.180   5.959   7.280  0.6856 -0.0406 -0.5250
 4366TIP3    H134657   2.227   5.883   7.315 -0.3522 -0.5391 -0.1564
 4366TIP3    H234658   2.130   5.925   7.206  0.9150  0.4850 -0.9295
 4367TIP3   OH234659   5.095   4.532   1.554 -0.2408  0.3638  0.1457
 4367TIP3    H134660   5.131   4.619   1.534  1.0106 -0.4802 -1.4589
 4367TIP3    H234661   5.163   4.491   1.608 -0.4140  0.0365  0.1110
 4368TIP3   OH234662   3.248   3.564   7.451 -0.1363  0.4590 -0.4418
 4368TIP3    H134663   3.170   3.549   7.398 -0.5847 -1.7585  0.6939
 4368TIP3    H234664   3.244   3.496   7.519  1.8867  1.3737  0.6882
 4369TIP3   OH234665   1.867   3.991   0.481 -0.2745 -0.3512  0.4479
 4369TIP3    H134666   1.830   4.073   0.512  2.2816  2.0846 -2.2522
 4369TIP3    H234667   1.940   3.973   0.540  0.7196  0.8154 -0.3691
 4370TIP3   OH234668   3.009   5.110   0.645 -0.1937  0.1074 -0.5512
 4370TIP3    H134669   2.969   5.026   0.666  1.9478 -1.7243 -3.1548
 4370TIP3    H234670   3.029   5.149   0.730 -1.7419 -1.7416  0.7323
 4371TIP3   OH234671   4.524   6.459   7.633  0.0778 -0.2726  0.4930
 4371TIP3    H134672   4.564   6.452   7.720 -0.6605  0.5615  0.9141
 4371TIP3    H234673   4.517   6.368   7.603 -1.4240 -0.7789  2.1297
 4372TIP3   OH234674   5.878   1.092   0.817  0.6087 -0.4001  0.2854
 4372TIP3    H134675   5.825   1.134   0.886  0.1041 -1.9827  0.9141
 4372TIP3    H234676   5.830   1.109   0.736 -0.5678 -1.2709  0.7694
 4373TIP3   OH234677   3.638   1.568   0.545 -0.1372  0.4408 -0.1392
 4373TIP3    H134678   3.583   1.647   0.551  1.6999  1.7548  0.3034
 4373TIP3    H234679   3.723   1.601   0.517  0.2578 -1.6350 -1.6441
 4374TIP3   OH234680   0.202   0.100   8.696  0.3035 -0.2717  0.1354
 4374TIP3    H134681   0.130   0.159   8.717 -0.6922 -0.9534 -1.2145
 4374TIP3    H234682   0.268   0.117   8.763  0.0113  2.2809 -0.1234
 4375TIP3   OH234683   3.674   6.821   2.536 -0.5815  0.0169 -0.2253
 4375TIP3    H134684   3.707   6.898   2.490  0.4167  0.0885  0.5850
 4375TIP3    H234685   3.618   6.777   2.472  2.0681 -0.8105 -2.1556
 4376TIP3   OH234686   3.762   3.699   1.793 -0.0989  0.2397 -0.2859
 4376TIP3    H134687   3.696   3.747   1.743  1.7650  0.4088 -2.7715
 4376TIP3    H234688   3.832   3.763   1.808 -0.5077  0.1411  2.5216
 4377TIP3   OH234689   1.551   0.414   6.485 -0.6172 -0.7797 -0.0354
 4377TIP3    H134690   1.627   0.366   6.519 -0.9836 -1.1672  0.2515
 4377TIP3    H234691   1.569   0.422   6.391 -0.5439 -1.4805 -0.0907
 4378TIP3   OH234692   6.737   6.475   0.316  0.0361  0.2481 -0.1723
 4378TIP3    H134693   6.762   6.445   0.228 -0.2842 -0.7224  0.0517
 4378TIP3    H234694   6.647   6.504   0.307 -0.3233 -0.7476  0.0140
 4379TIP3   OH234695   0.824   2.567   7.870  0.5658 -0.9904 -0.1226
 4379TIP3    H134696   0.752   2.626   7.890  0.9417 -0.5327 -0.1015
 4379TIP3    H234697   0.845   2.584   7.778  0.2692 -1.5346 -0.2926
 4380TIP3   OH234698   1.083   3.931   1.617  0.6923  0.1630  0.1821
 4380TIP3    H134699   1.057   3.915   1.526  1.4107  1.8705 -0.3798
 4380TIP3    H234700   1.051   4.020   1.635  0.1600 -0.3132  1.7791
 4381TIP3   OH234701   5.658   5.572   1.489  0.4802  0.3508  0.0352
 4381TIP3    H134702   5.619   5.566   1.402  1.5259  0.0611 -0.4318
 4381TIP3    H234703   5.649   5.664   1.513 -0.0244  0.3845 -0.2830
 4382TIP3   OH234704   4.984   0.914   1.645 -0.0173  0.0106 -0.3164
 4382TIP3    H134705   4.935   0.965   1.581  3.5057  1.4270 -2.1556
 4382TIP3    H234706   5.047   0.975   1.681  0.4006 -1.6551  1.9786
 4383TIP3   OH234707   5.555   2.374   8.571  1.2387  0.4186 -0.1233
 4383TIP3    H134708   5.477   2.343   8.618  1.2303 -0.1467 -0.4891
 4383TIP3    H234709   5.605   2.294   8.554  1.2425  0.6080 -1.0618
 4384TIP3   OH234710   1.201   3.304   0.300 -0.0492 -0.5195 -0.3246
 4384TIP3    H134711   1.109   3.277   0.293 -0.4370  0.9793 -1.6659
 4384TIP3    H234712   1.196   3.397   0.324  1.1664 -0.7791  1.0390
 4385TIP3   OH234713   0.501   0.688   6.982  0.7679  0.2492 -0.0583
 4385TIP3    H134714   0.567   0.631   7.021  2.0442  0.2170 -2.0964
 4385TIP3    H234715   0.517   0.682   6.887 -0.6301  2.0948 -0.4777
 4386TIP3   OH234716   5.265   5.692   2.511  0.2978 -0.2376 -0.1293
 4386TIP3    H134717   5.186   5.639   2.509  1.0256 -1.3846  0.1538
 4386TIP3    H234718   5.235   5.782   2.500 -1.4458 -0.1914  3.5902
 4387TIP3   OH234719   4.750   5.133   1.730  0.0540 -0.0073  0.0358
 4387TIP3    H134720   4.837   5.170   1.718 -0.4783  0.9819 -1.0802
 4387TIP3    H234721   4.691   5.209   1.724 -0.7951 -0.3949  2.5726
 4388TIP3   OH234722   3.828   4.171   1.521  0.2694 -0.3742  0.4181
 4388TIP3    H134723   3.916   4.156   1.485  0.0872 -1.2321  0.3135
 4388TIP3    H234724   3.820   4.105   1.590  0.2094  0.5643  1.3362
 4389TIP3   OH234725   5.796   5.749   6.536  0.0531  0.1534  0.2809
 4389TIP3    H134726   5.835   5.804   6.605  0.2851  0.8562 -0.4034
 4389TIP3    H234727   5.730   5.804   6.495  0.1567 -0.1428 -0.2900
 4390TIP3   OH234728   3.149   2.006   1.317 -0.6857 -0.5197  0.0570
 4390TIP3    H134729   3.204   1.983   1.242 -2.3571  0.2714 -1.4778
 4390TIP3    H234730   3.099   1.928   1.336 -0.6000 -0.5779  0.0432
 4391TIP3   OH234731   2.456   5.063   0.501  0.1421 -0.3411 -0.1960
 4391TIP3    H134732   2.471   4.973   0.475 -0.4336  0.0066 -1.8635
 4391TIP3    H234733   2.367   5.083   0.470 -0.0623  0.5540  0.8711
 4392TIP3   OH234734   1.429   2.139   2.438 -0.4444 -0.0483 -0.2638
 4392TIP3    H134735   1.450   2.118   2.529 -1.5811 -2.0812 -0.4203
 4392TIP3    H234736   1.371   2.069   2.410 -1.3816  1.3740 -2.0986
 4393TIP3   OH234737   0.991   1.732   2.844  0.1341 -0.2072 -1.0823
 4393TIP3    H134738   0.952   1.784   2.914 -0.8572 -0.4243 -1.4626
 4393TIP3    H234739   0.999   1.793   2.771 -0.1170 -0.3348 -1.2168
 4394TIP3   OH234740   0.437   3.062   7.876  0.2922 -0.2317  0.1905
 4394TIP3    H134741   0.442   3.020   7.790 -0.7346  0.7184 -0.3666
 4394TIP3    H234742   0.399   2.995   7.933  2.0063 -1.2539  0.1997
 4395TIP3   OH234743   5.777   1.021   7.270 -0.3059 -0.6513  0.6044
 4395TIP3    H134744   5.821   0.953   7.218  1.1431 -0.2682  1.2821
 4395TIP3    H234745   5.829   1.100   7.255 -0.5576 -0.2619  1.7007
 4396TIP3   OH234746   2.486   2.481   0.333  0.0215 -0.1601 -0.5078
 4396TIP3    H134747   2.428   2.555   0.316 -1.5072 -1.2360 -0.1583
 4396TIP3    H234748   2.499   2.440   0.247  0.7378  0.4055 -0.6751
 4397TIP3   OH234749   2.574   3.793   1.534  0.3738  0.4387  0.4376
 4397TIP3    H134750   2.508   3.778   1.467  0.6669 -2.7704  0.6699
 4397TIP3    H234751   2.527   3.832   1.608 -0.4111  1.8044 -0.7496
 4398TIP3   OH234752   4.549   2.939   7.890 -0.1427  0.3451  0.0922
 4398TIP3    H134753   4.459   2.945   7.858 -0.2472 -0.9853  0.0824
 4398TIP3    H234754   4.592   2.876   7.832 -0.0636 -1.3679  1.8938
 4399TIP3   OH234755   3.851   5.760   7.789  0.2336 -0.1214 -0.2895
 4399TIP3    H134756   3.940   5.754   7.824  0.1661  0.3036 -0.0332
 4399TIP3    H234757   3.802   5.691   7.835 -0.6565  2.4033  2.9536
 4400TIP3   OH234758   6.472   5.935   1.687 -0.3682 -0.1501 -0.0285
 4400TIP3    H134759   6.462   5.984   1.769  1.0344  1.2444 -0.6413
 4400TIP3    H234760   6.402   5.870   1.690 -1.4469  0.9958  1.4664
 4401TIP3   OH234761   2.957   1.320   1.757  0.1560 -0.2946  0.0462
 4401TIP3    H134762   2.987   1.410   1.767  0.9902 -0.6010  0.4512
 4401TIP3    H234763   3.017   1.282   1.692  0.0389 -0.6491  0.1425
 4402TIP3   OH234764   1.373   2.401   2.441  0.1864  0.4066 -0.8604
 4402TIP3    H134765   1.464   2.406   2.412  0.2994  0.4136 -0.5138
 4402TIP3    H234766   1.351   2.308   2.437  0.3951  0.3310 -0.4010
 4403TIP3   OH234767   5.542   0.640   0.965 -0.7967 -0.0929  0.0195
 4403TIP3    H134768   5.595   0.695   1.022 -0.0933 -0.5358 -0.1914
 4403TIP3    H234769   5.562   0.671   0.877 -0.9833 -0.1809 -0.0539
 4404TIP3   OH234770   5.368   6.497   7.306  0.3910  0.6057  0.1664
 4404TIP3    H134771   5.352   6.496   7.212  0.1015  0.7184  0.2147
 4404TIP3    H234772   5.395   6.587   7.325  2.4611  0.1104 -0.1384
 4405TIP3   OH234773   3.325   1.756   1.862 -0.3220  0.8214 -0.3968
 4405TIP3    H134774   3.287   1.816   1.926  0.6294  2.2063 -1.0691
 4405TIP3    H234775   3.303   1.795   1.777  2.5593  1.7921 -0.8282
 4406TIP3   OH234776   2.143   4.857   7.186  0.3074 -0.5189  0.3801
 4406TIP3    H134777   2.060   4.904   7.172  0.0856 -1.0446 -0.0729
 4406TIP3    H234778   2.125   4.802   7.262  0.0646 -1.0361 -0.0485
 4407TIP3   OH234779   6.460   1.250   2.887 -0.5765  0.3181 -0.4490
 4407TIP3    H134780   6.375   1.209   2.871 -2.0313  2.7215  0.6329
 4407TIP3    H234781   6.518   1.209   2.823 -2.2612 -2.1203 -0.5793
 4408TIP3   OH234782   4.302   1.063   6.853 -0.2124  0.2649 -0.2830
 4408TIP3    H134783   4.380   1.076   6.800  0.7312  1.7674  1.3712
 4408TIP3    H234784   4.244   1.135   6.829 -1.3891 -1.1160 -1.8645
 4409TIP3   OH234785   6.847   0.864   2.296  0.2120  0.4778 -0.0347
 4409TIP3    H134786   6.863   0.771   2.311 -3.3491 -0.5836 -1.6510
 4409TIP3    H234787   6.895   0.884   2.215  0.2956 -0.1930 -0.1562
 4410TIP3   OH234788   3.816   4.511   1.372 -0.5485  0.3653  0.1760
 4410TIP3    H134789   3.815   4.489   1.465  2.0854  0.1547  0.2379
 4410TIP3    H234790   3.888   4.459   1.336 -1.1917  0.8102 -1.8947
 4411TIP3   OH234791   4.796   2.800   0.767 -0.3514 -0.0756 -0.4901
 4411TIP3    H134792   4.872   2.755   0.805 -0.6883  0.9230  1.5593
 4411TIP3    H234793   4.827   2.835   0.684  1.7599  1.0539  0.6858
 4412TIP3   OH234794   4.956   0.003   7.147 -0.4220 -0.2522 -0.2365
 4412TIP3    H134795   4.979   0.087   7.106 -0.3151  1.1412  2.4409
 4412TIP3    H234796   5.036  -0.023   7.193 -0.4459 -1.9248 -1.0609
 4413TIP3   OH234797   3.127   0.426   6.531 -0.0104  0.0443  0.0414
 4413TIP3    H134798   3.169   0.501   6.573 -2.4300  1.6988 -0.2938
 4413TIP3    H234799   3.093   0.374   6.604 -0.9316  0.9032  0.2379
 4414TIP3   OH234800   3.657   0.858   6.670  0.4515  0.5238 -0.1138
 4414TIP3    H134801   3.582   0.883   6.724  0.0215  0.7419 -0.7990
 4414TIP3    H234802   3.650   0.913   6.592  1.1744  0.3526 -0.3069
 4415TIP3   OH234803   2.115   2.555   7.743 -0.0290 -0.0203  0.2569
 4415TIP3    H134804   2.132   2.563   7.837  1.4309 -1.4213  0.1538
 4415TIP3    H234805   2.136   2.642   7.708 -3.1933  1.4108  1.4840
 4416TIP3   OH234806   5.099   5.109   8.114  0.2350 -0.3604  0.2262
 4416TIP3    H134807   5.126   5.050   8.185  0.4704 -0.9351 -0.3347
 4416TIP3    H234808   5.181   5.144   8.079  0.1947 -1.0365 -0.5701
 4417TIP3   OH234809   4.690   2.571   7.579  0.0115 -0.4262 -0.2322
 4417TIP3    H134810   4.679   2.553   7.672  1.3484  2.2020  0.5227
 4417TIP3    H234811   4.616   2.526   7.537  0.0789 -2.7250  1.8907
 4418TIP3   OH234812   2.682   2.081   2.090  0.1224  0.0639 -0.0394
 4418TIP3    H134813   2.615   2.112   2.029 -1.1258  0.6794  1.6015
 4418TIP3    H234814   2.760   2.067   2.035 -0.9604  0.5721 -1.7586
 4419TIP3   OH234815   6.221   1.848   0.331  0.0220 -0.3070  0.8011
 4419TIP3    H134816   6.282   1.851   0.257 -1.4121  1.5422 -0.3771
 4419TIP3    H234817   6.248   1.770   0.380  2.2436 -0.5042 -0.5740
 4420TIP3   OH234818   3.075   4.177   7.779  0.2752  0.1929  0.8288
 4420TIP3    H134819   3.067   4.088   7.745  1.5792  0.3537  0.0506
 4420TIP3    H234820   3.169   4.190   7.791  0.1868  1.7540  0.1134
 4421TIP3   OH234821   5.621   3.477   1.595  0.3375 -0.1155  0.1598
 4421TIP3    H134822   5.706   3.520   1.591 -0.3047  1.2648  0.9675
 4421TIP3    H234823   5.625   3.424   1.675  0.3491  0.1089  0.3058
 4422TIP3   OH234824   0.996   6.469   8.395 -0.0826  0.2424  0.2062
 4422TIP3    H134825   0.992   6.496   8.487  0.8211  1.5473 -0.1165
 4422TIP3    H234826   0.940   6.392   8.391 -1.7623  1.3096  1.4519
 4423TIP3   OH234827   1.977   4.372   0.445  0.0363 -0.4713  0.6531
 4423TIP3    H134828   2.001   4.445   0.503  0.3594 -0.1967  0.1817
 4423TIP3    H234829   1.902   4.331   0.488 -1.0447  0.9749  0.2645
 4424TIP3   OH234830   3.933   1.430   1.627 -0.1849  0.2289  0.3435
 4424TIP3    H134831   3.907   1.356   1.572  0.2840  0.5027 -0.2533
 4424TIP3    H234832   3.970   1.494   1.566  0.5871  0.4287  1.0032
 4425TIP3   OH234833   0.857   4.822   7.331  0.1154 -0.3509 -0.1751
 4425TIP3    H134834   0.816   4.854   7.412 -0.5703  1.3333 -1.1158
 4425TIP3    H234835   0.848   4.727   7.336 -0.4045 -0.2597  1.4700
 4426TIP3   OH234836   6.401   1.088   7.119  0.0179 -0.5290  0.2928
 4426TIP3    H134837   6.361   1.095   7.206  0.1403  0.3098  0.2882
 4426TIP3    H234838   6.488   1.125   7.129 -0.1211 -0.0201 -0.2827
 4427TIP3   OH234839   4.370   3.327   7.599  0.4282  0.0277  0.0836
 4427TIP3    H134840   4.435   3.268   7.562 -1.2854 -1.6238 -0.4906
 4427TIP3    H234841   4.419   3.384   7.658  2.1473 -2.2144  0.9543
 4428TIP3   OH234842   6.636   6.248   1.644 -0.4532 -0.1964 -0.5845
 4428TIP3    H134843   6.644   6.294   1.728 -0.3623  1.4998 -1.4643
 4428TIP3    H234844   6.542   6.240   1.630 -0.6023  2.7733 -1.9212
 4429TIP3   OH234845   2.383   1.370   0.296  0.1155 -0.0119  0.8154
 4429TIP3    H134846   2.469   1.365   0.255 -0.1827 -1.3296  0.2956
 4429TIP3    H234847   2.380   1.293   0.354 -1.5488 -1.3379 -0.8987
 4430TIP3   OH234848   5.267   4.504   7.655  0.2127  0.7285 -0.3031
 4430TIP3    H134849   5.309   4.475   7.736 -0.8625  0.5776  0.2187
 4430TIP3    H234850   5.173   4.509   7.676 -0.6337 -2.7481 -2.4737
 4431TIP3   OH234851   5.289   5.270   8.001  0.1660  0.8604 -0.0536
 4431TIP3    H134852   5.204   5.305   7.972 -0.3856  0.9828  1.6256
 4431TIP3    H234853   5.332   5.344   8.044  0.7569  0.5612 -0.1207
 4432TIP3   OH234854   6.710   1.169   2.084  0.0078  0.3390 -0.0968
 4432TIP3    H134855   6.650   1.237   2.052  1.9918  1.6069 -1.4167
 4432TIP3    H234856   6.696   1.095   2.025  0.1575  0.8508 -0.7864
 4433TIP3   OH234857   5.316   1.763   7.767  0.2395  0.3040  0.6140
 4433TIP3    H134858   5.326   1.687   7.711 -0.1381  0.3641  0.4648
 4433TIP3    H234859   5.343   1.733   7.854 -1.6364 -0.5247  0.9565
 4434TIP3   OH234860   4.981   4.680   0.618 -0.1077 -0.3230  0.4223
 4434TIP3    H134861   4.969   4.655   0.527 -0.0995  0.5668  0.1671
 4434TIP3    H234862   4.892   4.680   0.655  0.0813 -2.9567  1.0652
 4435TIP3   OH234863   0.613   1.601   7.540 -0.3399 -0.3958 -0.3220
 4435TIP3    H134864   0.544   1.656   7.578 -1.1707 -0.1845 -2.0294
 4435TIP3    H234865   0.595   1.514   7.573 -0.7598 -0.1424  0.1264
 4436TIP3   OH234866   5.661   6.107   1.537  0.0819  0.4720 -0.0125
 4436TIP3    H134867   5.756   6.097   1.544  0.3438  2.3866 -0.2921
 4436TIP3    H234868   5.636   6.157   1.614 -0.1245  3.0814 -1.6438
 4437TIP3   OH234869   4.266   6.756   1.078  0.2389 -0.3802  0.0786
 4437TIP3    H134870   4.271   6.728   0.986 -0.8875 -2.6704  0.6458
 4437TIP3    H234871   4.320   6.835   1.082  0.5623 -0.3933 -2.4781
 4438TIP3   OH234872   3.348   4.465   7.981  0.1102  0.0877  0.4049
 4438TIP3    H134873   3.341   4.504   8.069  3.3081  1.9669 -0.0254
 4438TIP3    H234874   3.269   4.495   7.936 -0.6000  0.7832  2.0333
 4439TIP3   OH234875   1.097   2.209   0.221  0.7304  0.5247 -0.9342
 4439TIP3    H134876   1.037   2.268   0.176  0.9196  1.1065 -0.4233
 4439TIP3    H234877   1.141   2.161   0.150 -0.0627  0.3509 -1.3212
 4440TIP3   OH234878   3.978   1.526   1.892  0.3409 -0.4544 -0.0358
 4440TIP3    H134879   4.010   1.454   1.947  0.9581 -0.7140 -0.7099
 4440TIP3    H234880   4.014   1.507   1.805  0.4975  0.6613 -0.2308
 4441TIP3   OH234881   0.261   5.038   1.368 -0.3358  0.8206  0.1272
 4441TIP3    H134882   0.325   4.987   1.320 -0.0003  1.8811 -0.5877
 4441TIP3    H234883   0.177   5.018   1.326 -0.3017  0.3731  0.2685
 4442TIP3   OH234884   6.467   5.458   7.995 -0.1435  0.0111  0.4653
 4442TIP3    H134885   6.421   5.373   7.998 -0.3355  0.1195  0.6344
 4442TIP3    H234886   6.410   5.514   7.942 -0.1021  0.0861  0.5008
 4443TIP3   OH234887   3.709   6.657   0.432  0.5069  1.0741  0.0321
 4443TIP3    H134888   3.619   6.687   0.446 -0.8709 -1.8844 -1.6388
 4443TIP3    H234889   3.711   6.629   0.341  2.7529 -0.1584  0.3875
 4444TIP3   OH234890   1.331   1.574   1.996 -0.4209 -0.3648  0.0193
 4444TIP3    H134891   1.424   1.585   1.977 -0.3304 -0.5133  0.3713
 4444TIP3    H234892   1.315   1.632   2.071 -0.5656 -0.5059  0.0981
 4445TIP3   OH234893   1.275   4.617   2.161  0.7252  0.1801 -0.6431
 4445TIP3    H134894   1.336   4.683   2.195  0.2254 -0.1050  0.9013
 4445TIP3    H234895   1.222   4.593   2.237  1.5215 -2.7141 -0.8992
 4446TIP3   OH234896   6.009   4.583   0.291  0.6933 -0.2722 -0.5027
 4446TIP3    H134897   5.916   4.565   0.283  0.6977 -0.4090 -0.2684
 4446TIP3    H234898   6.052   4.519   0.235  0.6071  0.3247 -1.2604
 4447TIP3   OH234899   4.840   5.069   7.418  0.1558 -0.2368  0.3884
 4447TIP3    H134900   4.783   5.067   7.342  1.6283  1.8599 -0.8915
 4447TIP3    H234901   4.904   5.000   7.402 -0.6320 -1.0709  0.7177
 4448TIP3   OH234902   0.677   1.010   8.640 -0.3647  0.5573 -0.1469
 4448TIP3    H134903   0.721   1.049   8.565 -0.1209  0.7887  0.1155
 4448TIP3    H234904   0.589   1.047   8.639  0.1480  1.8671  0.6526
 4449TIP3   OH234905   5.640   1.885   0.649  0.1954 -0.6894 -0.1022
 4449TIP3    H134906   5.676   1.974   0.644  0.0875 -0.5448  1.3432
 4449TIP3    H234907   5.545   1.897   0.645  0.2188 -0.9115 -1.8597
 4450TIP3   OH234908   0.939   1.154   6.558  0.2198  0.5611  0.0065
 4450TIP3    H134909   1.001   1.227   6.550  1.0363 -0.0667  0.4535
 4450TIP3    H234910   0.963   1.111   6.640 -0.0351 -0.4044 -0.4075
 4451TIP3   OH234911   5.534   3.591   0.222 -0.6071 -0.3147  0.0040
 4451TIP3    H134912   5.550   3.682   0.248 -1.2242  0.0862 -0.9605
 4451TIP3    H234913   5.614   3.565   0.176 -0.9609  0.1958 -0.9058
 4452TIP3   OH234914   3.838   6.778   7.177 -0.2489 -0.1033 -0.2599
 4452TIP3    H134915   3.821   6.835   7.102 -0.1948 -0.3386 -0.4522
 4452TIP3    H234916   3.783   6.701   7.161  0.7460 -0.7369 -0.7239
 4453TIP3   OH234917   4.588   4.812   8.339  0.5294 -0.6423 -0.2187
 4453TIP3    H134918   4.661   4.775   8.290  1.7980 -0.1793  1.2286
 4453TIP3    H234919   4.533   4.737   8.360  2.1442 -1.5286  1.1630
 4454TIP3   OH234920   1.528   5.355   8.213 -0.1800 -0.1588  0.7983
 4454TIP3    H134921   1.569   5.438   8.187  0.0400 -0.8571 -1.2253
 4454TIP3    H234922   1.600   5.304   8.250  0.8924 -1.2751 -2.4863
 4455TIP3   OH234923   5.704   3.126   0.896  0.5586 -0.1367 -0.2908
 4455TIP3    H134924   5.647   3.083   0.833 -0.8664 -0.1964  0.9782
 4455TIP3    H234925   5.767   3.175   0.843  0.1099 -1.0816 -1.7332
 4456TIP3   OH234926   6.017   0.767   8.287  0.0041 -0.4897  0.5043
 4456TIP3    H134927   5.946   0.805   8.339  0.4414  2.4377 -0.8384
 4456TIP3    H234928   6.082   0.739   8.351 -0.3703  1.0952  1.6303
 4457TIP3   OH234929   4.631   6.278   2.775  0.2541  0.3790  0.1937
 4457TIP3    H134930   4.706   6.225   2.801  0.5541  0.7667  0.1290
 4457TIP3    H234931   4.624   6.267   2.681  0.3987  0.5635  0.1622
 4458TIP3   OH234932   4.131   2.822   0.390  0.0534  0.6066 -0.3268
 4458TIP3    H134933   4.115   2.807   0.484  2.2462 -1.3434 -0.1816
 4458TIP3    H234934   4.062   2.773   0.346  1.3743 -1.9676  0.2969
 4459TIP3   OH234935   2.433   1.984   8.507 -0.0562 -0.1736 -0.0362
 4459TIP3    H134936   2.474   2.004   8.422  1.4860  1.3862  1.0087
 4459TIP3    H234937   2.346   1.951   8.484  0.4808 -0.2016 -2.2397
 4460TIP3   OH234938   3.129   1.030   7.528  0.3884  0.0442 -0.2152
 4460TIP3    H134939   3.119   1.070   7.615  0.2577 -0.9023  0.2080
 4460TIP3    H234940   3.081   1.088   7.470  0.1938  0.5067  0.3945
 4461TIP3   OH234941   6.220   0.200   6.386  0.1690 -0.1480  0.2264
 4461TIP3    H134942   6.236   0.245   6.468 -0.4863  1.5292 -0.5125
 4461TIP3    H234943   6.124   0.194   6.381  0.2407 -2.5031  0.7251
 4462TIP3   OH234944   1.893   1.848   7.227 -0.2848  0.6399  0.4835
 4462TIP3    H134945   1.980   1.808   7.218 -0.3758  0.6845 -0.6352
 4462TIP3    H234946   1.906   1.938   7.199 -0.7943  0.5282 -0.1087
 4463TIP3   OH234947   5.702   4.171   1.511 -0.2098  0.5325  0.0277
 4463TIP3    H134948   5.614   4.133   1.519  0.0423  0.2596  1.8972
 4463TIP3    H234949   5.730   4.186   1.601  1.5727  0.8466 -0.5406
 4464TIP3   OH234950   4.021   0.770   8.179 -0.1576  0.8524 -0.2532
 4464TIP3    H134951   4.099   0.731   8.139  0.5200  2.5615 -0.6877
 4464TIP3    H234952   3.999   0.844   8.123 -2.0896  0.4431 -0.1027
 4465TIP3   OH234953   4.831   6.759   0.361  0.3495 -0.1807  0.1676
 4465TIP3    H134954   4.857   6.671   0.387 -0.2671 -0.0100  1.4411
 4465TIP3    H234955   4.794   6.798   0.440  2.1325  1.8273  0.1145
 4466TIP3   OH234956   0.517   4.379   0.960  0.5809  0.1895 -0.4782
 4466TIP3    H134957   0.539   4.329   0.882 -0.8519  2.2057 -2.3195
 4466TIP3    H234958   0.601   4.398   1.001  1.5030  0.0257 -2.1934
 4467TIP3   OH234959   6.504   0.564   7.063 -0.3830 -0.1004 -0.1605
 4467TIP3    H134960   6.513   0.630   6.995 -0.6957  0.3034  0.1836
 4467TIP3    H234961   6.409   0.556   7.075 -0.3429 -0.5175 -0.1076
 4468TIP3   OH234962   0.154   1.804   0.227 -0.4555 -0.3103  0.1862
 4468TIP3    H134963   0.085   1.853   0.272 -0.4753 -0.3026  0.1474
 4468TIP3    H234964   0.229   1.807   0.287 -0.2678  0.2595 -0.0625
 4469TIP3   OH234965   1.507   5.697   8.679 -0.1767 -0.7687  0.4589
 4469TIP3    H134966   1.574   5.762   8.699  0.7349 -0.9462 -1.6451
 4469TIP3    H234967   1.493   5.705   8.584 -0.9090 -2.7875  0.3282
 4470TIP3   OH234968   2.979   3.608   1.754  0.2690 -0.0645 -0.5359
 4470TIP3    H134969   2.889   3.642   1.756 -0.1299 -0.7028 -3.1422
 4470TIP3    H234970   3.034   3.686   1.760 -0.3555  0.2637  2.1245
 4471TIP3   OH234971   3.949   6.277   7.912  0.6290 -0.2833 -0.0635
 4471TIP3    H134972   3.971   6.338   7.842  1.5322 -2.2104 -1.5078
 4471TIP3    H234973   3.938   6.334   7.989  0.1219  1.8318 -1.5962
 4472TIP3   OH234974   0.876   0.901   1.959 -0.4424  0.3608 -0.2843
 4472TIP3    H134975   0.932   0.836   1.917 -0.5675 -0.2886  0.5398
 4472TIP3    H234976   0.869   0.872   2.050 -1.3822  0.9327 -0.1632
 4473TIP3   OH234977   4.758   3.592   8.556 -0.0530 -0.0504  0.9534
 4473TIP3    H134978   4.802   3.542   8.625 -1.8933 -0.6052  1.7887
 4473TIP3    H234979   4.814   3.668   8.542  2.3832 -1.8560  0.2830
 4474TIP3   OH234980   5.368   1.190   0.291  0.6383  0.0951 -0.3542
 4474TIP3    H134981   5.348   1.273   0.335 -0.7644 -0.5049  0.1984
 4474TIP3    H234982   5.464   1.185   0.292  0.7550  1.8109 -0.6201
 4475TIP3   OH234983   5.736   0.187   2.012 -0.6152  0.0308 -0.0020
 4475TIP3    H134984   5.781   0.240   1.946  0.4341  1.0174  1.4493
 4475TIP3    H234985   5.789   0.108   2.020 -0.2062  0.3285  0.3045
 4476TIP3   OH234986   1.592   3.500   0.173  0.2199  0.5876 -0.7404
 4476TIP3    H134987   1.647   3.422   0.170  0.7218  0.9468 -2.4942
 4476TIP3    H234988   1.598   3.531   0.263  0.2380 -1.2188 -0.0896
 4477TIP3   OH234989   4.902   6.378   0.659  0.3541 -0.3950 -0.0541
 4477TIP3    H134990   4.806   6.375   0.652  0.3146  1.4067 -0.5960
 4477TIP3    H234991   4.927   6.286   0.670 -1.3373 -1.0695 -1.2867
 4478TIP3   OH234992   4.582   0.517   8.585  0.0967  0.0555  0.0664
 4478TIP3    H134993   4.568   0.447   8.521 -0.3461  0.7229 -0.5886
 4478TIP3    H234994   4.575   0.598   8.534  0.0144  0.5961  0.9121
 4479TIP3   OH234995   2.944   6.585   2.534 -0.2058 -0.3196 -0.4618
 4479TIP3    H134996   2.885   6.631   2.593 -0.2703 -1.9175  0.7788
 4479TIP3    H234997   3.001   6.654   2.499 -0.1110  0.6946  1.5398
 4480TIP3   OH234998   4.346   4.196   8.490 -0.3434  0.0158 -0.2359
 4480TIP3    H134999   4.305   4.204   8.404  0.1859  1.3949 -0.3878
 4480TIP3    H235000   4.324   4.278   8.534 -1.6680 -1.1801  1.4389
 4481TIP3   OH235001   5.519   5.856   2.591  0.0122 -0.5406 -0.2495
 4481TIP3    H135002   5.464   5.883   2.665  0.2112 -1.3727  0.2139
 4481TIP3    H235003   5.593   5.916   2.592 -0.1052 -0.4023  0.0816
 4482TIP3   OH235004   6.124   0.127   8.461  0.0826  0.2135 -0.2572
 4482TIP3    H135005   6.137   0.046   8.510 -0.0609  0.4603  0.1890
 4482TIP3    H235006   6.208   0.173   8.467 -0.2301  0.6934  0.5871
 4483TIP3   OH235007   4.521   5.504   1.435  0.4355  0.5553 -0.5572
 4483TIP3    H135008   4.461   5.442   1.393 -1.0798  1.4956  0.1183
 4483TIP3    H235009   4.497   5.589   1.397  1.6346  0.9068 -0.5593
 4484TIP3   OH235010   5.641   2.672   1.625  0.4407  0.2830  0.1063
 4484TIP3    H135011   5.731   2.703   1.621  0.2253  0.8607 -0.4732
 4484TIP3    H235012   5.604   2.714   1.703  0.1973  1.4080 -0.5813
 4485TIP3   OH235013   1.335   6.527   0.120 -0.2998 -0.5236 -0.2482
 4485TIP3    H135014   1.283   6.526   0.201 -0.4004  1.6127 -0.2173
 4485TIP3    H235015   1.414   6.477   0.141 -0.2150  0.1839  1.2652
 4486TIP3   OH235016   1.827   2.485   8.483  0.7671  0.7029 -0.1162
 4486TIP3    H135017   1.785   2.552   8.429 -0.4105  0.5491  0.5749
 4486TIP3    H235018   1.820   2.405   8.432 -0.0519  0.6238  0.1048
 4487TIP3   OH235019   5.118   2.151   1.042  0.2353 -0.4002  0.2264
 4487TIP3    H135020   5.064   2.073   1.024 -0.0963  0.0920 -0.9790
 4487TIP3    H235021   5.080   2.220   0.988  0.7023  0.5490  1.0646
 4488TIP3   OH235022   6.715   2.049   7.268  0.5451 -0.4012 -0.4082
 4488TIP3    H135023   6.678   1.962   7.255 -0.6196 -0.2830  1.6446
 4488TIP3    H235024   6.809   2.036   7.271  0.3938 -1.5627 -0.2971
 4489TIP3   OH235025   4.964   3.859   8.001 -0.3553  0.7951 -1.3219
 4489TIP3    H135026   4.946   3.930   7.940 -1.7807  0.3697 -1.4312
 4489TIP3    H235027   5.008   3.793   7.949 -1.3942  0.5145 -1.8688
 4490TIP3   OH235028   4.128   2.400   1.057  0.0879 -0.1337  0.4540
 4490TIP3    H135029   4.046   2.382   1.103  0.6165 -2.0456  0.7653
 4490TIP3    H235030   4.184   2.326   1.080  0.8871 -0.4165 -2.0944
 4491TIP3   OH235031   4.659   3.042   1.545 -0.1792 -0.3386  0.0812
 4491TIP3    H135032   4.581   3.049   1.491 -1.0633 -0.2935  1.3283
 4491TIP3    H235033   4.626   3.025   1.633  1.2714 -1.8926  0.3738
 4492TIP3   OH235034   6.204   3.594   0.571 -0.3861 -0.0235 -0.1486
 4492TIP3    H135035   6.244   3.537   0.637  1.1785  0.4395 -0.6417
 4492TIP3    H235036   6.149   3.655   0.620 -1.1724 -1.2086  0.4874
 4493TIP3   OH235037   0.388   5.107   8.696  0.1526 -0.3151 -0.0371
 4493TIP3    H135038   0.410   5.019   8.724 -0.0243 -0.9827 -1.8587
 4493TIP3    H235039   0.392   5.160   8.776  1.2638 -1.7601  0.9026
 4494TIP3   OH235040   0.408   1.264   0.181  0.2617  0.0632 -0.0110
 4494TIP3    H135041   0.436   1.353   0.159 -1.9036  0.7140 -0.3696
 4494TIP3    H235042   0.401   1.220   0.097  2.1754 -0.7798  0.2173
 4495TIP3   OH235043   2.888   1.501   7.682 -0.3585 -0.0106  0.3124
 4495TIP3    H135044   2.867   1.593   7.696  1.1525  0.3013  0.6520
 4495TIP3    H235045   2.942   1.500   7.603 -0.8717 -0.6826 -0.0431
 4496TIP3   OH235046   1.523   2.189   6.809 -0.5282 -0.4571  0.7039
 4496TIP3    H135047   1.484   2.146   6.733  0.4627  0.3338 -0.2751
 4496TIP3    H235048   1.471   2.268   6.821  1.2743  1.1331 -1.2339
 4497TIP3   OH235049   2.546   4.135   0.708 -0.5116  0.1174  0.2967
 4497TIP3    H135050   2.579   4.049   0.736 -0.3049  0.0554 -0.1400
 4497TIP3    H235051   2.623   4.181   0.675 -0.4040  0.9047  1.5807
 4498TIP3   OH235052   2.990   0.415   0.419 -0.6560  0.0698  0.3958
 4498TIP3    H135053   3.053   0.484   0.440 -1.5826  0.7345  1.0862
 4498TIP3    H235054   3.042   0.348   0.374  0.4740  0.7265  0.6762
 4499TIP3   OH235055   3.295   1.721   0.347  0.1725 -0.1584  0.0078
 4499TIP3    H135056   3.368   1.777   0.371 -0.0738 -0.4599  1.5507
 4499TIP3    H235057   3.321   1.634   0.377  0.4627 -0.8804 -2.1600
 4500TIP3   OH235058   1.666   3.324   0.404  0.2649  0.3386 -0.3927
 4500TIP3    H135059   1.704   3.356   0.486 -1.0420  0.2091  0.2912
 4500TIP3    H235060   1.715   3.244   0.384  0.6901  0.4490  0.1837
 4501TIP3   OH235061   0.805   5.000   1.487 -0.1409 -0.1436 -0.1799
 4501TIP3    H135062   0.830   4.958   1.569  0.4454 -0.8884 -0.7163
 4501TIP3    H235063   0.721   4.958   1.464  0.1058 -0.5425 -0.3702
 4502TIP3   OH235064   6.067   1.434   8.717 -0.1094  0.0572  0.0494
 4502TIP3    H135065   6.143   1.455   8.772 -0.5050  1.9102 -0.0305
 4502TIP3    H235066   6.103   1.430   8.628  0.2878 -1.5388  0.2547
 4503TIP3   OH235067   1.269   1.565   0.194 -0.1677  0.0707 -0.2229
 4503TIP3    H135068   1.355   1.538   0.161 -0.2070  0.3046 -0.5217
 4503TIP3    H235069   1.286   1.592   0.284  0.2631  1.0213 -0.5693
 4504TIP3   OH235070   1.447   3.421   6.825  0.7999  0.5960  0.0751
 4504TIP3    H135071   1.398   3.498   6.852  0.4735  0.1996  0.6371
 4504TIP3    H235072   1.537   3.437   6.856  0.4438  0.1691  1.3991
 4505TIP3   OH235073   5.811   1.871   1.853  0.1704  0.4931 -0.1074
 4505TIP3    H135074   5.797   1.944   1.914  1.1543 -0.1068  0.8717
 4505TIP3    H235075   5.906   1.867   1.841  0.0193  0.3200 -1.3515
 4506TIP3   OH235076   5.933   5.633   1.101  0.4242 -0.0984  0.0145
 4506TIP3    H135077   5.942   5.728   1.089 -0.6463  0.0100  0.0254
 4506TIP3    H235078   5.953   5.619   1.193  1.6880 -0.0368 -0.2318
 4507TIP3   OH235079   5.419   6.247   7.559  0.7166 -0.3088  0.2510
 4507TIP3    H135080   5.377   6.207   7.483  1.2910 -1.9458  0.7672
 4507TIP3    H235081   5.351   6.247   7.627  0.0662  1.5449 -0.3358
 4508TIP3   OH235082   0.055   0.627   0.150 -0.5100  0.3305 -0.0042
 4508TIP3    H135083  -0.024   0.679   0.161 -0.5950 -0.1848  2.3036
 4508TIP3    H235084   0.086   0.610   0.239  0.8869 -1.4760 -0.7559
 4509TIP3   OH235085   0.511   3.269   1.412  0.0696  0.5434  0.3471
 4509TIP3    H135086   0.426   3.254   1.370 -0.2161  3.2730 -0.2261
 4509TIP3    H235087   0.573   3.274   1.340  0.7367 -1.3045  0.7564
 4510TIP3   OH235088   1.082   0.676   7.613 -0.4610  0.3606  0.0742
 4510TIP3    H135089   1.027   0.657   7.689  1.1912 -0.6656  1.0738
 4510TIP3    H235090   1.027   0.654   7.538 -1.2999 -0.9965  1.0292
 4511TIP3   OH235091   1.294   5.358   8.382 -0.2559  0.2785  0.6769
 4511TIP3    H135092   1.217   5.323   8.336 -0.8810  2.1910  0.1937
 4511TIP3    H235093   1.364   5.355   8.317 -0.1630 -0.5168  0.8014
 4512TIP3   OH235094   2.178   4.066   1.592 -0.8311  0.2693 -0.6691
 4512TIP3    H135095   2.152   4.156   1.612 -0.1859  0.1629  0.7333
 4512TIP3    H235096   2.130   4.012   1.655  2.3554  0.0385  1.7751
 4513TIP3   OH235097   3.553   1.774   7.567 -0.4269  0.9861 -0.1064
 4513TIP3    H135098   3.488   1.719   7.524  0.6951 -0.4246 -0.0880
 4513TIP3    H235099   3.631   1.767   7.511  0.6844  0.0835  1.4603
 4514TIP3   OH235100   6.054   3.812   1.745  0.1745 -0.0214  0.3319
 4514TIP3    H135101   6.056   3.891   1.690  0.0500 -1.1996 -1.4425
 4514TIP3    H235102   6.106   3.836   1.822 -0.8043  2.1635  0.3924
 4515TIP3   OH235103   4.130   1.559   1.129 -0.2557 -0.2917 -0.3561
 4515TIP3    H135104   4.157   1.501   1.200 -1.3941 -0.4736 -0.0466
 4515TIP3    H235105   4.066   1.617   1.169  1.9788  2.2897 -0.2337
 4516TIP3   OH235106   3.669   3.325   0.574  0.1322 -0.7813 -0.2133
 4516TIP3    H135107   3.616   3.402   0.554  0.8175 -0.3761 -0.4745
 4516TIP3    H235108   3.723   3.351   0.648 -1.2949 -1.7873  1.2641
 4517TIP3   OH235109   2.849   3.730   6.652  0.5348  0.3876  0.0642
 4517TIP3    H135110   2.823   3.786   6.725 -1.4306 -1.4635  0.8704
 4517TIP3    H235111   2.945   3.733   6.652  0.5105  2.4264  1.0660
 4518TIP3   OH235112   5.762   1.520   7.697  0.5699 -0.3566  0.0809
 4518TIP3    H135113   5.824   1.590   7.719 -0.6028  0.9792 -0.7182
 4518TIP3    H235114   5.721   1.497   7.780 -0.6367  1.5113  0.0443
 4519TIP3   OH235115   0.749   2.985   7.836 -0.1580 -0.6821 -0.0514
 4519TIP3    H135116   0.779   3.023   7.919 -2.8633  1.6913 -0.0101
 4519TIP3    H235117   0.696   2.910   7.863  2.4006 -2.6184  0.0247
 4520TIP3   OH235118   4.282   3.537   0.796  0.3418 -0.1067  0.2146
 4520TIP3    H135119   4.296   3.492   0.712  0.7716  0.0115  0.2210
 4520TIP3    H235120   4.189   3.560   0.795  0.6951  1.3933 -0.9797
 4521TIP3   OH235121   6.246   0.629   0.742  0.2673 -0.3595 -0.6437
 4521TIP3    H135122   6.314   0.695   0.730 -0.5090  0.2897 -1.7388
 4521TIP3    H235123   6.201   0.655   0.822  0.1502  0.2946 -0.9125
 4522TIP3   OH235124   2.601   3.359   8.447 -0.0537  0.3824  0.1684
 4522TIP3    H135125   2.688   3.341   8.414  0.1066 -1.0002  1.2529
 4522TIP3    H235126   2.588   3.453   8.431  0.6511  0.1395 -2.1696
 4523TIP3   OH235127   0.420   5.855   7.555  0.0352  0.3676 -0.1876
 4523TIP3    H135128   0.440   5.902   7.475 -1.0307  0.2880 -0.5035
 4523TIP3    H235129   0.427   5.921   7.624 -0.1615  0.6878 -0.4735
 4524TIP3   OH235130   6.131   5.939   8.385  0.0133  0.2066 -0.3686
 4524TIP3    H135131   6.147   5.845   8.391 -1.7456 -0.0426  1.2960
 4524TIP3    H235132   6.172   5.976   8.463 -0.2554  0.6698 -0.4410
 4525TIP3   OH235133   2.810   4.486   6.947  0.1092  0.3803 -0.2252
 4525TIP3    H135134   2.762   4.408   6.918  0.9708 -0.4427  0.5311
 4525TIP3    H235135   2.833   4.531   6.866 -1.4205  0.4993 -0.6335
 4526TIP3   OH235136   4.921   2.952   0.580 -0.4536  0.5100  0.3056
 4526TIP3    H135137   4.897   3.017   0.646 -0.2924 -0.5223  1.4158
 4526TIP3    H235138   4.988   2.996   0.527  0.6595  0.7970  1.8843
 4527TIP3   OH235139   4.452   3.009   7.342 -0.3169  0.2921 -0.0749
 4527TIP3    H135140   4.362   3.010   7.309 -0.1333 -1.2415 -0.6893
 4527TIP3    H235141   4.506   3.028   7.265 -0.0092 -1.1023 -0.2303
 4528TIP3   OH235142   2.861   2.401   2.605  0.3050 -0.5080  0.3350
 4528TIP3    H135143   2.872   2.459   2.681 -1.7765 -1.2853  1.3109
 4528TIP3    H235144   2.835   2.317   2.643  1.7219 -1.6837 -1.1417
 4529TIP3   OH235145   1.160   2.381   7.816  0.1085  0.2872  0.2672
 4529TIP3    H135146   1.123   2.293   7.821  0.3057  0.0558 -1.5414
 4529TIP3    H235147   1.174   2.396   7.722 -0.0719  2.3178  0.5148
 4530TIP3   OH235148   0.728   5.970   1.969 -0.2142  0.3175  0.3922
 4530TIP3    H135149   0.758   5.942   2.056  0.7154 -1.3741 -0.4137
 4530TIP3    H235150   0.808   5.970   1.916 -1.1257 -1.4224 -1.1130
 4531TIP3   OH235151   6.433   3.371   1.316 -0.4132 -0.2060 -0.3314
 4531TIP3    H135152   6.468   3.449   1.359 -1.6268  0.3479 -0.3231
 4531TIP3    H235153   6.472   3.372   1.228 -1.2079  0.9714 -0.6809
 4532TIP3   OH235154   1.207   6.559   0.937  0.4413  0.2112  0.4063
 4532TIP3    H135155   1.170   6.646   0.949  1.2146  0.7498 -0.8862
 4532TIP3    H235156   1.157   6.503   0.997 -1.2657  1.2005 -0.0162
 4533TIP3   OH235157   5.303   3.654   0.027  0.8203 -0.1035 -0.3987
 4533TIP3    H135158   5.371   3.646  -0.039  2.3048 -0.3415  1.0702
 4533TIP3    H235159   5.280   3.564   0.049  0.9447 -0.0494 -0.0261
 4534TIP3   OH235160   3.680   2.728   1.343  0.2601 -0.2193 -0.4237
 4534TIP3    H135161   3.660   2.715   1.251 -0.8336  0.3244 -0.2757
 4534TIP3    H235162   3.693   2.823   1.352  1.3791 -0.3727 -0.1988
 4535TIP3   OH235163   4.725   3.498   1.024  0.0116  0.8916  0.2070
 4535TIP3    H135164   4.775   3.559   1.077 -1.5442  2.9055 -0.4974
 4535TIP3    H235165   4.788   3.461   0.963  0.9995  1.8346  0.6327
 4536TIP3   OH235166   6.004   2.726   2.873 -0.1053  0.2518  0.2806
 4536TIP3    H135167   6.047   2.653   2.828  1.2754  1.4613 -0.4459
 4536TIP3    H235168   6.045   2.727   2.959  0.7311  0.8449 -0.1035
 4537TIP3   OH235169   1.606   1.644   0.244  0.6229 -0.1429 -0.5643
 4537TIP3    H135170   1.577   1.599   0.165  0.8171 -0.1883 -0.6117
 4537TIP3    H235171   1.624   1.734   0.215  4.4118 -1.0220 -1.4941
 4538TIP3   OH235172   1.043   1.392   7.618  0.5170 -0.3298  0.2205
 4538TIP3    H135173   1.087   1.336   7.682  1.2779 -0.4390 -0.3855
 4538TIP3    H235174   1.051   1.345   7.535  1.9656  1.0635 -0.4824
 4539TIP3   OH235175   2.065   4.746   0.875  0.1234  0.3456 -0.0435
 4539TIP3    H135176   2.004   4.807   0.835 -1.0667 -0.5965  0.2787
 4539TIP3    H235177   2.152   4.780   0.852 -0.4728  2.6374  0.8837
 4540TIP3   OH235178   6.850   4.691   8.098 -0.0234  0.2975  0.0403
 4540TIP3    H135179   6.918   4.624   8.094  0.7418  1.0925 -1.4837
 4540TIP3    H235180   6.860   4.739   8.015 -2.0246  0.8542  0.0778
 4541TIP3   OH235181   3.184   6.599   1.940 -0.0658 -0.9499 -0.5750
 4541TIP3    H135182   3.274   6.618   1.965 -0.2233  1.6863 -1.7029
 4541TIP3    H235183   3.137   6.592   2.023  1.2850 -3.5239  0.0896
 4542TIP3   OH235184   2.143   3.745   0.428  0.6752 -0.7745 -0.2177
 4542TIP3    H135185   2.195   3.710   0.501  0.8454  0.8353  0.4881
 4542TIP3    H235186   2.196   3.817   0.393 -0.2166 -0.3451 -0.7346
 4543TIP3   OH235187   6.206   0.302   7.619 -0.5034  0.4005  0.4691
 4543TIP3    H135188   6.197   0.397   7.609 -1.1666  0.2566 -0.4054
 4543TIP3    H235189   6.161   0.266   7.543  0.2431 -0.6077  0.4864
 4544TIP3   OH235190   2.724   2.873   7.049  0.1304 -0.3681 -0.0148
 4544TIP3    H135191   2.679   2.802   7.094 -1.3722 -0.0255 -0.8818
 4544TIP3    H235192   2.804   2.834   7.015 -0.7788 -1.7469 -0.6836
 4545TIP3   OH235193   6.067   5.076   8.606  0.2272 -0.0097  0.4206
 4545TIP3    H135194   6.013   5.056   8.529  0.8438 -0.4945  0.1079
 4545TIP3    H235195   6.075   5.172   8.605 -0.1257  0.0179  0.1291
 4546TIP3   OH235196   3.160   6.770   6.968 -0.3685  0.1237 -0.3088
 4546TIP3    H135197   3.134   6.716   6.893  1.8234 -0.6395 -0.6101
 4546TIP3    H235198   3.231   6.825   6.934  0.8772 -0.4529  1.2637
 4547TIP3   OH235199   2.550   3.646   8.505  0.5026  0.2614  0.0116
 4547TIP3    H135200   2.509   3.721   8.463 -0.9306 -0.1057  0.7065
 4547TIP3    H235201   2.529   3.655   8.597  0.9745 -0.5856  0.2143
 4548TIP3   OH235202   0.889   3.269   8.379  0.0350 -0.2103 -0.3035
 4548TIP3    H135203   0.873   3.312   8.463 -0.8012 -2.5197  0.8239
 4548TIP3    H235204   0.843   3.323   8.315 -0.2382  1.0261  0.8964
 4549TIP3   OH235205   2.839   2.370   2.330 -0.3953  0.6124 -0.4752
 4549TIP3    H135206   2.871   2.400   2.415  0.4283  0.6909 -0.8115
 4549TIP3    H235207   2.791   2.289   2.349 -1.3096  1.2912  0.2298
 4550TIP3   OH235208   2.474   1.169   1.515 -0.1669 -0.0768 -0.0981
 4550TIP3    H135209   2.503   1.212   1.434 -0.4047 -0.8988 -0.6294
 4550TIP3    H235210   2.520   1.085   1.515 -0.9301 -0.5001  0.1165
 4551TIP3   OH235211   5.183   4.699   0.142 -0.3716  0.3886  0.0656
 4551TIP3    H135212   5.135   4.653   0.072  0.0072  1.1298 -0.7050
 4551TIP3    H235213   5.206   4.784   0.103  2.1173 -0.1595  0.1580
 4552TIP3   OH235214   0.762   3.378   0.847  0.3645 -0.3351  0.5300
 4552TIP3    H135215   0.754   3.286   0.873 -0.5114 -0.4106  0.0205
 4552TIP3    H235216   0.843   3.382   0.797  0.0880 -0.9665  0.0145
 4553TIP3   OH235217   4.369   0.416   1.130 -0.1013 -0.2268  0.2507
 4553TIP3    H135218   4.290   0.368   1.108 -0.5980  0.8892 -0.5223
 4553TIP3    H235219   4.411   0.432   1.045  0.8985 -0.7147  0.6436
 4554TIP3   OH235220   4.570   3.232   7.428  0.0738  0.1006 -0.5965
 4554TIP3    H135221   4.550   3.278   7.346 -1.5834 -1.5776 -1.2148
 4554TIP3    H235222   4.512   3.156   7.427  0.4335 -0.2800  1.8916
 4555TIP3   OH235223   5.851   1.636   0.558  0.3414  0.0713 -0.1497
 4555TIP3    H135224   5.804   1.618   0.477 -0.3706 -0.1489  0.2935
 4555TIP3    H235225   5.936   1.594   0.547 -0.0660 -0.6962 -0.4502
 4556TIP3   OH235226   5.993   5.401   1.345  0.5411 -0.1981 -0.4629
 4556TIP3    H135227   6.082   5.405   1.310  0.8747 -1.5349  0.1821
 4556TIP3    H235228   5.978   5.487   1.384  0.7047  0.8291 -2.5359
 4557TIP3   OH235229   2.584   3.554   1.246  0.1125 -0.4098 -0.0339
 4557TIP3    H135230   2.579   3.498   1.323  0.0284 -0.6591 -0.2210
 4557TIP3    H235231   2.523   3.626   1.265 -0.3836 -0.8005 -0.1364
 4558TIP3   OH235232   5.771   4.014   0.251  0.2518 -0.6867 -0.3529
 4558TIP3    H135233   5.829   4.065   0.195  0.6434 -2.0187 -1.2248
 4558TIP3    H235234   5.825   3.939   0.279 -0.3541 -0.7426  0.7144
 4559TIP3   OH235235   6.617   6.468   7.806 -0.1547 -0.1635 -0.0129
 4559TIP3    H135236   6.634   6.421   7.888 -1.1942 -0.8713 -0.1862
 4559TIP3    H235237   6.556   6.411   7.758  0.5230  0.1926 -1.3273
 4560TIP3   OH235238   3.671   6.476   0.894 -0.2452 -0.2074 -0.0670
 4560TIP3    H135239   3.639   6.533   0.823  0.8673 -0.7147 -0.9960
 4560TIP3    H235240   3.651   6.525   0.974 -1.8417  0.2297 -0.6907
 4561TIP3   OH235241   3.585   4.327   0.890 -0.2353 -0.5848 -0.1731
 4561TIP3    H135242   3.559   4.405   0.841 -0.1962 -1.0026 -0.8848
 4561TIP3    H235243   3.599   4.357   0.979  1.0144  0.4679 -0.6963
 4562TIP3   OH235244   0.561   5.975   1.752 -0.1042 -0.3610  1.0130
 4562TIP3    H135245   0.494   6.039   1.731  0.9833  0.4242 -0.2289
 4562TIP3    H235246   0.572   5.982   1.847  0.0165  1.3404  0.9004
 4563TIP3   OH235247   4.343   5.069   1.095  0.0149 -0.4066 -0.5999
 4563TIP3    H135248   4.348   5.035   1.184  1.9179  2.2959  0.4438
 4563TIP3    H235249   4.433   5.071   1.065 -0.4084  0.4514 -1.8909
 4564TIP3   OH235250   2.381   1.329   8.480 -0.3774  0.1926  0.3812
 4564TIP3    H135251   2.317   1.278   8.431 -0.1288  1.1551 -1.0022
 4564TIP3    H235252   2.466   1.299   8.448 -0.2203  1.0644 -0.0554
 4565TIP3   OH235253   4.632   4.133   1.218 -0.0660  0.3953  0.2157
 4565TIP3    H135254   4.613   4.107   1.308 -1.5073  0.1525 -0.1282
 4565TIP3    H235255   4.583   4.215   1.207 -0.5050  0.0334 -0.5692
 4566TIP3   OH235256   4.774   0.979   1.472 -0.2223 -0.0981 -0.2215
 4566TIP3    H135257   4.680   0.968   1.457 -0.1298 -0.3989 -0.5784
 4566TIP3    H235258   4.784   1.071   1.496 -0.6132 -0.0768 -0.1365
 4567TIP3   OH235259   4.784   4.312   0.756 -0.0506 -0.5131 -0.2758
 4567TIP3    H135260   4.866   4.286   0.798  0.4202  2.0150  0.5439
 4567TIP3    H235261   4.716   4.291   0.820  0.1532 -0.9117 -0.1873
 4568TIP3   OH235262   1.922   2.566   0.783  0.6421  0.2370 -0.8958
 4568TIP3    H135263   1.964   2.648   0.808 -0.7376  0.1616  2.1265
 4568TIP3    H235264   1.830   2.589   0.769  0.3478 -0.6924 -0.5930
 4569TIP3   OH235265   6.411   4.340   8.126  0.6099 -0.4561  0.2065
 4569TIP3    H135266   6.364   4.390   8.059  1.8602 -1.8857 -1.8772
 4569TIP3    H235267   6.503   4.349   8.102  1.4127  1.1115  3.3576
 4570TIP3   OH235268   5.847   4.074   1.024  0.0067 -0.3405  0.2332
 4570TIP3    H135269   5.926   4.059   1.076  1.1210  1.5846 -0.7775
 4570TIP3    H235270   5.840   3.997   0.968  1.5000 -0.3356 -0.0124
 4571TIP3   OH235271   3.337   3.996   0.170  0.1513  0.3107  0.0554
 4571TIP3    H135272   3.343   3.959   0.258 -0.9937  0.5488  0.2395
 4571TIP3    H235273   3.426   3.989   0.136  0.2682 -1.3185  0.6023
 4572TIP3   OH235274   2.575   2.529   0.869 -0.2557 -0.2743  0.2665
 4572TIP3    H135275   2.591   2.493   0.956  2.7742  0.4221  0.0994
 4572TIP3    H235276   2.654   2.510   0.820 -1.1834  0.9100 -1.8217
 4573TIP3   OH235277   6.697   1.855   1.446  0.2073 -0.4348  0.1052
 4573TIP3    H135278   6.719   1.844   1.354  1.8509 -0.2530  0.4543
 4573TIP3    H235279   6.775   1.827   1.493 -0.3789  0.0715  1.4234
 4574TIP3   OH235280   4.748   1.994   7.407  0.8250 -0.0314 -0.1017
 4574TIP3    H135281   4.763   2.057   7.477 -1.6222  0.0444  0.4202
 4574TIP3    H235282   4.744   2.047   7.327  1.9297  0.0626 -0.1201
 4575TIP3   OH235283   1.646   5.817   0.478 -0.3011  0.8261 -0.3593
 4575TIP3    H135284   1.633   5.812   0.383 -0.8418 -2.7855 -0.2539
 4575TIP3    H235285   1.559   5.801   0.515  0.2929 -0.2225  0.6700
 4576TIP3   OH235286   2.227   0.197   7.497  0.2386  0.3802 -0.1492
 4576TIP3    H135287   2.174   0.276   7.492 -0.1577  0.2939  1.9300
 4576TIP3    H235288   2.283   0.209   7.573  2.6269  0.0634 -1.7394
 4577TIP3   OH235289   1.823   2.683   1.064  0.6772 -0.2757 -0.3983
 4577TIP3    H135290   1.867   2.598   1.059  1.2420 -0.0684  0.6106
 4577TIP3    H235291   1.890   2.742   1.099 -0.2063  0.1916  0.5695
 4578TIP3   OH235292   6.614   5.264   0.795  0.2982 -0.4075 -0.6053
 4578TIP3    H135293   6.701   5.224   0.804  0.2684 -0.4950 -0.7073
 4578TIP3    H235294   6.580   5.229   0.713 -0.1868 -1.0334 -0.1384
 4579TIP3   OH235295   2.852   3.250   0.683  0.5642  0.1923 -0.5181
 4579TIP3    H135296   2.875   3.216   0.770 -0.1993  0.2720 -0.2818
 4579TIP3    H235297   2.784   3.191   0.652 -0.3831  1.1682 -0.3412
 4580TIP3   OH235298   0.076   2.817   8.440  0.4200 -0.0326 -0.1281
 4580TIP3    H135299   0.167   2.847   8.443  0.8343 -1.1738  3.3769
 4580TIP3    H235300   0.083   2.722   8.443 -0.8711 -0.1117  1.0397
 4581TIP3   OH235301   6.448   0.891   1.335  0.0446 -0.2004 -0.0533
 4581TIP3    H135302   6.516   0.833   1.369  0.1206 -0.0478  0.0587
 4581TIP3    H235303   6.419   0.941   1.411  0.3370  0.2658 -0.2419
 4582TIP3   OH235304   6.101   1.180   7.335  0.0677  0.1107  0.4747
 4582TIP3    H135305   6.194   1.200   7.338 -0.0687  1.1084 -0.9459
 4582TIP3    H235306   6.070   1.198   7.424  1.2768 -0.5407  1.0421
 4583TIP3   OH235307   0.566   1.297   1.471  0.0489 -0.1995 -0.3552
 4583TIP3    H135308   0.610   1.357   1.530  0.6898 -0.4132 -0.6108
 4583TIP3    H235309   0.543   1.351   1.395 -0.5736  0.0221 -0.0188
 4584TIP3   OH235310   3.905   1.478   7.306 -0.0072 -0.0142 -0.1583
 4584TIP3    H135311   3.955   1.405   7.343  1.6043  0.8459 -0.5820
 4584TIP3    H235312   3.940   1.489   7.218 -1.5104  0.1104 -0.7669
 4585TIP3   OH235313   2.365   0.473   6.943 -0.0260 -0.2502  0.0818
 4585TIP3    H135314   2.333   0.411   7.008  0.9259 -0.7858  0.0605
 4585TIP3    H235315   2.286   0.514   6.908 -0.8044 -2.5290 -0.9991
 4586TIP3   OH235316   3.741   6.158   1.680 -0.5167 -0.0212 -0.2207
 4586TIP3    H135317   3.741   6.114   1.765 -0.9789  0.6032  0.1138
 4586TIP3    H235318   3.824   6.134   1.640  0.0705  0.3375  0.7518
 4587TIP3   OH235319   5.334   1.722   2.030 -0.1895 -0.0315  0.4163
 4587TIP3    H135320   5.370   1.722   2.118 -0.9581  0.1736  0.7405
 4587TIP3    H235321   5.240   1.706   2.042  0.1122 -3.5241 -0.5346
 4588TIP3   OH235322   4.113   6.546   8.081 -0.0315  0.4068  0.1886
 4588TIP3    H135323   4.138   6.598   8.157 -1.2273  2.3514 -0.6560
 4588TIP3    H235324   4.033   6.500   8.109  0.9670 -0.9489  0.9021
 4589TIP3   OH235325   3.454   3.114   1.873  0.9100 -0.6161 -0.4321
 4589TIP3    H135326   3.388   3.055   1.836  1.3388 -1.1303 -0.3827
 4589TIP3    H235327   3.499   3.062   1.939  0.2541  0.2513  0.7288
 4590TIP3   OH235328   1.725   4.563   0.009 -0.4714  0.9388 -0.0705
 4590TIP3    H135329   1.725   4.657  -0.010  0.7004  1.0989  0.6411
 4590TIP3    H235330   1.751   4.557   0.101  0.0179 -0.1068 -0.2647
 4591TIP3   OH235331   3.601   1.947   1.199  0.1506  0.3136  0.4275
 4591TIP3    H135332   3.630   1.862   1.233 -1.0148 -0.7259 -1.0174
 4591TIP3    H235333   3.660   2.010   1.238  2.6245 -1.3999 -0.2953
 4592TIP3   OH235334   1.854   5.477   8.648  0.7132  0.1721 -0.0582
 4592TIP3    H135335   1.851   5.487   8.552  0.3856 -1.1156 -0.2023
 4592TIP3    H235336   1.794   5.545   8.680 -0.2376 -0.2458 -0.8594
 4593TIP3   OH235337   5.518   4.869   1.059 -0.9491  0.2556  0.0008
 4593TIP3    H135338   5.563   4.950   1.082  0.7660 -0.2936 -1.2203
 4593TIP3    H235339   5.429   4.897   1.035 -0.7983  1.5753  0.8892
 4594TIP3   OH235340   0.790   3.658   6.933  0.4243  0.1441 -0.8965
 4594TIP3    H135341   0.824   3.712   7.005 -1.8901 -0.5069  0.7941
 4594TIP3    H235342   0.713   3.706   6.902 -0.1598 -0.9207 -1.1049
 4595TIP3   OH235343   0.570   2.879   0.176 -0.2175  0.2454  0.4182
 4595TIP3    H135344   0.654   2.909   0.143 -0.3547 -0.2178 -0.3699
 4595TIP3    H235345   0.590   2.802   0.229 -0.2204 -0.3633 -0.4500
 4596TIP3   OH235346   1.691   1.819   1.132  0.5659 -0.1033  0.3912
 4596TIP3    H135347   1.703   1.733   1.092  2.3804  0.3277 -0.0949
 4596TIP3    H235348   1.766   1.828   1.192 -0.0557  0.8002  1.0601
 4597TIP3   OH235349   0.272   2.180   0.455 -0.1722  0.3670 -0.2025
 4597TIP3    H135350   0.284   2.151   0.365  0.2480 -1.1359  0.2990
 4597TIP3    H235351   0.358   2.214   0.481  0.6936 -2.1668  0.5850
 4598TIP3   OH235352   0.341   2.625   8.714  0.0564  0.2631 -0.5048
 4598TIP3    H135353   0.330   2.719   8.729  1.0119  0.2019  0.7477
 4598TIP3    H235354   0.429   2.605   8.746  0.3805 -0.8365 -1.9807
 4599TIP3   OH235355   2.743   1.233   0.773 -0.0256  0.1474 -0.1321
 4599TIP3    H135356   2.813   1.197   0.828 -2.2335 -0.9469  2.1352
 4599TIP3    H235357   2.689   1.283   0.833 -1.6626  0.3018 -1.6523
 4600TIP3   OH235358   6.596   1.964   8.145  0.1901  0.2287 -0.0706
 4600TIP3    H135359   6.561   2.036   8.093 -1.0503  1.3553  2.1599
 4600TIP3    H235360   6.548   1.969   8.228  1.9687 -1.5058  1.1512
 4601TIP3   OH235361   2.494   0.842   8.240  0.1368  0.1743 -0.0278
 4601TIP3    H135362   2.537   0.824   8.324  2.1197  1.3574 -0.7188
 4601TIP3    H235363   2.401   0.852   8.262  0.4981 -0.3202  1.8862
 4602TIP3   OH235364   5.885   6.391   1.641  0.4394  0.1851  0.1610
 4602TIP3    H135365   5.894   6.462   1.705  1.6231  1.2904 -1.1803
 4602TIP3    H235366   5.805   6.411   1.593 -0.0696 -0.2691  0.7884
 4603TIP3   OH235367   1.773   4.601   1.716  0.2460 -0.7999 -0.5505
 4603TIP3    H135368   1.768   4.505   1.713 -0.6611 -0.7462 -1.0709
 4603TIP3    H235369   1.682   4.628   1.730  0.4459  0.0034 -0.8167
 4604TIP3   OH235370   2.664   4.546   7.999 -0.1048  0.1104  0.1304
 4604TIP3    H135371   2.710   4.630   8.000 -0.3459  0.2447  0.4287
 4604TIP3    H235372   2.681   4.510   7.913  1.9073 -0.6015  0.7726
 4605TIP3   OH235373   4.028   3.826   8.248  0.4628  0.2237  0.3351
 4605TIP3    H135374   3.963   3.884   8.208  0.3075  1.0221  1.6835
 4605TIP3    H235375   4.111   3.855   8.212  0.2535  0.4241  0.0083
 4606TIP3   OH235376   4.704   4.230   0.502 -0.2753 -0.5640 -0.6110
 4606TIP3    H135377   4.731   4.271   0.584  0.6162 -2.7169  0.2437
 4606TIP3    H235378   4.654   4.298   0.457  0.2030  1.0687  1.1692
 4607TIP3   OH235379   3.301   4.340   1.499  0.6803  0.4021 -0.4971
 4607TIP3    H135380   3.265   4.386   1.423  0.1678 -1.7172 -1.6379
 4607TIP3    H235381   3.225   4.323   1.555  0.7721  0.4531 -0.3572
 4608TIP3   OH235382   2.679   6.236   1.071 -0.2810  0.1281 -0.2023
 4608TIP3    H135383   2.701   6.323   1.105 -0.9042  0.3218 -0.2887
 4608TIP3    H235384   2.683   6.246   0.976  1.9135 -0.5260 -0.2391
 4609TIP3   OH235385   3.766   3.916   0.522  0.2627 -0.4439 -0.0626
 4609TIP3    H135386   3.682   3.960   0.507 -0.4556 -1.3181  1.2160
 4609TIP3    H235387   3.782   3.869   0.440  1.1102  2.1651 -1.5073
 4610TIP3   OH235388   3.802   6.818   8.227 -0.4835  0.2702 -0.1275
 4610TIP3    H135389   3.866   6.855   8.166 -0.6496  2.2672  0.8529
 4610TIP3    H235390   3.841   6.832   8.314 -0.9469 -1.1499  0.3430
 4611TIP3   OH235391   5.393   5.809   8.052 -0.5158  0.1073  0.5078
 4611TIP3    H135392   5.472   5.757   8.036 -1.0969 -0.5224 -0.3969
 4611TIP3    H235393   5.340   5.797   7.973 -1.5070  0.5458  1.0909
 4612TIP3   OH235394   5.321   5.847   1.542 -0.3883  0.3089 -0.1145
 4612TIP3    H135395   5.295   5.805   1.460  0.7416 -0.0156 -0.3151
 4612TIP3    H235396   5.239   5.852   1.592 -0.5785 -2.3361 -0.0006
 4613TIP3   OH235397   0.475   2.128   0.050  0.7822  0.5847  0.1827
 4613TIP3    H135398   0.439   2.156  -0.035  1.2988 -2.0897 -1.0111
 4613TIP3    H235399   0.560   2.171   0.055  0.1513  1.8895  0.0326
 4614TIP3   OH235400   6.687   1.691   0.216  0.2635  0.4434  0.4577
 4614TIP3    H135401   6.725   1.769   0.175 -0.1002  0.3544 -0.0627
 4614TIP3    H235402   6.735   1.681   0.298 -0.8021  2.1659  1.3304
 4615TIP3   OH235403   4.570   0.821   7.443 -0.0247  0.0826 -0.3779
 4615TIP3    H135404   4.479   0.795   7.454  0.1009 -0.1855  0.0360
 4615TIP3    H235405   4.621   0.747   7.478  0.3539  0.1125 -0.8461
 4616TIP3   OH235406   0.840   2.032   8.047 -0.2837  0.1386 -0.1453
 4616TIP3    H135407   0.900   1.970   8.088 -0.4766  0.1338  0.1366
 4616TIP3    H235408   0.762   1.981   8.028 -0.5882  0.3781  0.4392
 4617TIP3   OH235409   5.917   3.302   0.745  0.8368 -0.8474 -0.2303
 4617TIP3    H135410   6.003   3.339   0.767  1.1114 -1.5327 -0.1385
 4617TIP3    H235411   5.923   3.280   0.652  0.7346 -0.8328 -0.2406
 4618TIP3   OH235412   3.388   5.377   1.557  0.6703 -0.2489  0.0676
 4618TIP3    H135413   3.420   5.297   1.515  2.9257  0.3507  0.4997
 4618TIP3    H235414   3.340   5.347   1.633 -0.8397 -1.2437 -1.2219
 4619TIP3   OH235415   5.860   2.169   7.811 -0.0998 -0.3169  0.1297
 4619TIP3    H135416   5.824   2.176   7.899 -1.3287 -1.2537 -0.2527
 4619TIP3    H235417   5.786   2.137   7.758  0.6088  0.2165 -1.2342
 4620TIP3   OH235418   2.743   6.509   1.104  0.0109 -0.4303  0.4173
 4620TIP3    H135419   2.710   6.560   1.029 -0.6681 -2.0022 -0.3963
 4620TIP3    H235420   2.838   6.519   1.099  0.0562 -1.3382 -1.3135
 4621TIP3   OH235421   0.540   5.458   0.094  0.3407 -0.3846 -0.0859
 4621TIP3    H135422   0.550   5.553   0.096  1.7721 -0.5230  0.3068
 4621TIP3    H235423   0.475   5.442   0.026 -0.0077  0.8790 -0.0690
 4622TIP3   OH235424   4.282   2.058   1.998  0.6020 -0.2282 -0.4829
 4622TIP3    H135425   4.213   2.063   1.933 -0.0709 -0.6475  0.1883
 4622TIP3    H235426   4.237   2.044   2.081  1.4519  0.1096  0.0576
 4623TIP3   OH235427   2.299   5.049   0.027 -0.3880  0.4672 -0.6469
 4623TIP3    H135428   2.372   5.094   0.070 -0.4863 -0.9644  1.1490
 4623TIP3    H235429   2.275   4.979   0.088 -2.0402 -0.2716 -2.0642
 4624TIP3   OH235430   2.924   3.975   1.004 -0.4960 -0.0728  0.1230
 4624TIP3    H135431   2.886   3.900   1.050 -3.1324  0.7362 -0.6281
 4624TIP3    H235432   3.004   3.940   0.963 -1.7099 -2.5102 -0.3052
 4625TIP3   OH235433   6.511   0.326   2.219 -0.1843 -0.0828  0.0472
 4625TIP3    H135434   6.525   0.231   2.222  0.9594  0.0820  0.5288
 4625TIP3    H235435   6.448   0.344   2.288 -1.1187 -0.5977 -0.6572
 4626TIP3   OH235436   4.390   3.086   2.571 -0.7027 -0.5586 -0.3761
 4626TIP3    H135437   4.385   3.173   2.532 -1.4547 -0.5641 -0.3130
 4626TIP3    H235438   4.313   3.081   2.628  0.0700 -0.7591  0.6742
 4627TIP3   OH235439   5.030   4.465   6.977  0.3708  0.6237 -0.2458
 4627TIP3    H135440   4.970   4.423   6.915  2.0780 -1.9739 -0.2811
 4627TIP3    H235441   4.986   4.454   7.062  0.1396 -0.0402 -0.4372
 4628TIP3   OH235442   5.575   5.934   8.243 -0.1607  0.6505  0.3719
 4628TIP3    H135443   5.499   5.907   8.192 -0.6452  0.9901  0.9105
 4628TIP3    H235444   5.650   5.909   8.189 -0.6379 -0.1855  0.0858
 4629TIP3   OH235445   4.551   5.138   2.712  0.2491 -0.0291  0.7237
 4629TIP3    H135446   4.573   5.049   2.685 -0.8455  0.5087 -2.2831
 4629TIP3    H235447   4.627   5.190   2.687 -0.1992  0.2614 -0.0734
 4630TIP3   OH235448   1.453   5.202   0.556 -0.5840 -0.4460  0.4037
 4630TIP3    H135449   1.497   5.177   0.475 -0.2329 -0.8355  0.7059
 4630TIP3    H235450   1.446   5.297   0.551 -0.2744 -0.4390  0.0626
 4631TIP3   OH235451   6.296   6.024   8.624  0.2502  0.3091 -0.0371
 4631TIP3    H135452   6.302   6.119   8.628  0.9090  0.2826 -0.3155
 4631TIP3    H235453   6.258   5.999   8.708  0.9505  0.7534  0.4251
 4632TIP3   OH235454   2.200   0.198   8.308  0.6505  0.8126  0.6400
 4632TIP3    H135455   2.156   0.116   8.331  0.8428  0.7000  0.6085
 4632TIP3    H235456   2.157   0.225   8.227 -0.6654  1.6929  1.5917
 4633TIP3   OH235457   4.001   6.537   7.798  0.2637 -0.0239 -0.1737
 4633TIP3    H135458   4.059   6.549   7.873  0.3159 -1.8499  0.1150
 4633TIP3    H235459   3.916   6.569   7.827  0.6511  0.8328  0.0660
 4634TIP3   OH235460   1.526   4.094   7.258 -0.6665  0.3502  0.4642
 4634TIP3    H135461   1.543   4.188   7.249 -0.3509  0.1879 -0.9650
 4634TIP3    H235462   1.602   4.060   7.304  0.0019  0.5757 -0.4357
 4635TIP3   OH235463   3.630   6.598   0.160 -0.0984  0.2865 -0.3577
 4635TIP3    H135464   3.696   6.571   0.096  0.4205  1.7454 -0.4835
 4635TIP3    H235465   3.566   6.527   0.161  1.6126 -1.3216 -0.0168
 4636TIP3   OH235466   3.256   5.450   7.787 -0.1887 -0.0026  0.3627
 4636TIP3    H135467   3.261   5.485   7.698 -1.0685  0.0607  0.3309
 4636TIP3    H235468   3.185   5.386   7.783 -1.1705  0.9907  1.3431
 4637TIP3   OH235469   5.881   2.674   1.277  0.4279 -0.0027 -0.1057
 4637TIP3    H135470   5.888   2.687   1.372 -0.3023 -1.8713  0.2405
 4637TIP3    H235471   5.793   2.638   1.264 -0.1875  1.9122 -1.7349
 4638TIP3   OH235472   0.290   5.297   7.996  0.1000  0.4404  0.2561
 4638TIP3    H135473   0.296   5.308   8.091 -2.3422 -0.4764  0.5754
 4638TIP3    H235474   0.378   5.269   7.970  0.9553  1.2119  2.1560
 4639TIP3   OH235475   5.858   1.527   1.682  0.0817 -0.2358 -0.3120
 4639TIP3    H135476   5.899   1.486   1.606 -0.6183 -1.5414 -0.0136
 4639TIP3    H235477   5.915   1.504   1.755  0.9105  1.2549 -0.4346
 4640TIP3   OH235478   2.178   2.376   1.454  0.3493  0.0715 -1.1778
 4640TIP3    H135479   2.240   2.306   1.474  0.6847  0.6560 -0.0934
 4640TIP3    H235480   2.092   2.334   1.459  0.6036 -0.4998 -1.6028
 4641TIP3   OH235481   4.976   4.920   0.297 -0.4151  0.0862  0.4303
 4641TIP3    H135482   4.934   4.980   0.359  0.2497  0.6588  0.3403
 4641TIP3    H235483   5.045   4.973   0.256  3.0153 -1.7284  3.2764
 4642TIP3   OH235484   5.850   4.894   2.270  0.3027 -0.1479  0.0999
 4642TIP3    H135485   5.799   4.911   2.349 -0.3005 -1.2993 -0.0243
 4642TIP3    H235486   5.789   4.908   2.198  0.7508  0.5387 -0.1615
 4643TIP3   OH235487   0.394   3.160   6.910 -0.8827  0.4842 -0.1921
 4643TIP3    H135488   0.394   3.135   7.002 -0.5908  0.2352 -0.2576
 4643TIP3    H235489   0.375   3.254   6.910 -1.7448  0.3145  0.0722
 4644TIP3   OH235490   3.091   3.916   2.032  0.5435  0.4955  0.3587
 4644TIP3    H135491   3.097   4.011   2.044  2.1084  0.5570 -0.7038
 4644TIP3    H235492   3.125   3.879   2.114 -1.6960  0.7801  1.5073
 4645TIP3   OH235493   4.385   3.572   2.259  0.4851 -0.7170  0.3397
 4645TIP3    H135494   4.479   3.556   2.263  0.3183 -1.7583  0.3492
 4645TIP3    H235495   4.358   3.582   2.350  0.4661 -1.1993  0.3903
 4646TIP3   OH235496   4.114   0.448   7.088 -0.0793 -0.0016  0.8131
 4646TIP3    H135497   4.176   0.511   7.052  0.1097 -1.0435 -0.7633
 4646TIP3    H235498   4.093   0.482   7.175  2.8398  0.2974  1.4969
 4647TIP3   OH235499   0.956   4.248   0.624 -0.0223  0.6731 -0.2319
 4647TIP3    H135500   0.884   4.309   0.610  0.4817  1.2559 -0.3543
 4647TIP3    H235501   1.032   4.304   0.640  0.1964  0.0584  0.9578
 4648TIP3   OH235502   1.025   5.862   7.398 -0.4367 -0.0027 -0.4607
 4648TIP3    H135503   0.986   5.799   7.338  0.6913 -0.6238 -0.5796
 4648TIP3    H235504   0.989   5.840   7.483 -1.4194  0.3553 -0.7733
 4649TIP3   OH235505   4.378   2.574   1.820  0.7678 -0.4354  0.1817
 4649TIP3    H135506   4.335   2.589   1.904 -0.8050 -0.0731 -0.6453
 4649TIP3    H235507   4.408   2.661   1.793  1.1954 -0.5379  0.3235
 4650TIP3   OH235508   1.700   4.520   1.100 -0.4404 -0.4989  0.2199
 4650TIP3    H135509   1.703   4.556   1.189  1.2815 -0.4690  0.1774
 4650TIP3    H235510   1.647   4.441   1.108  2.0457 -2.1423  1.9307
 4651TIP3   OH235511   0.616   1.337   8.584 -0.1288 -0.0606 -0.2414
 4651TIP3    H135512   0.631   1.313   8.492  0.4520 -0.5182 -0.0332
 4651TIP3    H235513   0.703   1.346   8.621 -0.3596 -0.6279  0.4533
 4652TIP3   OH235514   6.629   6.772   1.713  0.1350 -0.1229 -0.2183
 4652TIP3    H135515   6.638   6.865   1.735 -1.5995  0.1249 -0.4089
 4652TIP3    H235516   6.587   6.772   1.627  1.6302 -1.1009 -0.9935
 4653TIP3   OH235517   6.786   4.210   1.484  0.3582 -0.1313 -0.1931
 4653TIP3    H135518   6.876   4.241   1.471 -0.4399  2.5056 -0.0254
 4653TIP3    H235519   6.731   4.286   1.465 -1.7892 -1.3081  0.8729
 4654TIP3   OH235520   5.805   4.125   7.827  0.1371  0.7020  0.1316
 4654TIP3    H135521   5.726   4.176   7.812  0.7986  2.0579  1.0581
 4654TIP3    H235522   5.876   4.189   7.825  1.2203 -0.4654 -0.5913
 4655TIP3   OH235523   2.413   4.248   0.496 -0.4930 -0.0108  0.3518
 4655TIP3    H135524   2.448   4.210   0.576 -1.8410  0.7590  1.3455
 4655TIP3    H235525   2.383   4.335   0.522 -0.9782  0.2460 -0.9860
 4656TIP3   OH235526   0.503   4.467   7.714 -0.1060  0.0897 -0.0175
 4656TIP3    H135527   0.554   4.490   7.637  0.3402 -0.5797  0.0739
 4656TIP3    H235528   0.470   4.379   7.696 -0.9484  0.3838  0.0702
 4657TIP3   OH235529   1.561   3.861   6.867  0.4861 -0.2954 -0.2346
 4657TIP3    H135530   1.515   3.784   6.832  0.7606 -0.2956 -0.6016
 4657TIP3    H235531   1.508   3.888   6.942  0.2516 -0.6945 -0.2513
 4658TIP3   OH235532   5.358   3.201   0.486  0.3950 -1.0334  1.1055
 4658TIP3    H135533   5.440   3.184   0.532  0.7231  0.1371  0.9838
 4658TIP3    H235534   5.346   3.296   0.492 -0.6544 -1.1187  0.6193
 4659TIP3   OH235535   3.691   5.113   7.225 -0.0344  0.0537 -0.1457
 4659TIP3    H135536   3.654   5.095   7.312  0.4369  1.3990  0.3500
 4659TIP3    H235537   3.771   5.061   7.222  0.3629  0.6064  0.5527
 4660TIP3   OH235538   6.019   6.236   7.683 -0.1048 -0.3543  0.0478
 4660TIP3    H135539   6.014   6.207   7.775 -0.6028  0.3513  0.2541
 4660TIP3    H235540   5.969   6.170   7.635 -3.0599  1.1689  0.7861
 4661TIP3   OH235541   1.398   5.032   7.727  0.0919  0.4243 -0.3098
 4661TIP3    H135542   1.427   5.123   7.735 -0.0662  0.3645  1.0276
 4661TIP3    H235543   1.403   5.014   7.633 -1.6492  2.4018 -0.8741
 4662TIP3   OH235544   4.491   6.815   2.267 -0.0062  0.0023  0.2675
 4662TIP3    H135545   4.540   6.897   2.266  0.4111 -0.2392 -1.3332
 4662TIP3    H235546   4.548   6.753   2.314  1.9750 -0.6585 -2.7359
 4663TIP3   OH235547   5.511   5.460   2.418  0.3698 -0.1845 -0.1857
 4663TIP3    H135548   5.595   5.417   2.431  0.0027 -0.3223  2.1245
 4663TIP3    H235549   5.460   5.398   2.365  0.5251 -1.7990  1.4454
 4664TIP3   OH235550   2.926   0.766   7.513 -0.5797 -0.4405 -0.1330
 4664TIP3    H135551   2.963   0.833   7.571 -2.5096 -0.4006  1.1524
 4664TIP3    H235552   2.965   0.684   7.544  2.0938 -0.0140 -1.9569
 4665TIP3   OH235553   0.734   5.678   6.925 -0.1366  0.6987  0.2826
 4665TIP3    H135554   0.775   5.726   6.853 -1.3819  1.2291 -0.1047
 4665TIP3    H235555   0.780   5.708   7.004  0.3201  1.1436 -0.1488
 4666TIP3   OH235556   6.481   4.408   6.613  0.6878  0.0958 -0.2440
 4666TIP3    H135557   6.510   4.322   6.583  1.7606  0.3291  0.0991
 4666TIP3    H235558   6.546   4.469   6.578 -0.3450  0.8479 -0.9267
 4667TIP3   OH235559   1.649   4.965   0.807  0.6451 -0.1303  0.1031
 4667TIP3    H135560   1.632   4.930   0.719  1.2692 -1.5477  0.5209
 4667TIP3    H235561   1.688   4.892   0.854  0.0327  0.5235  1.6706
 4668TIP3   OH235562   5.776   4.254   1.793  0.1699 -0.1285 -0.0621
 4668TIP3    H135563   5.764   4.348   1.784 -0.1856  0.2364  3.0945
 4668TIP3    H235564   5.871   4.241   1.798  0.2759 -0.1266 -1.7087
 4669TIP3   OH235565   3.583   2.774   7.325  0.0972  0.1878 -0.6617
 4669TIP3    H135566   3.631   2.739   7.400  1.4061 -0.4875 -1.7555
 4669TIP3    H235567   3.532   2.700   7.293 -0.7719  0.5854 -0.2119
 4670TIP3   OH235568   0.760   5.141   7.717 -0.4597  0.3483 -0.0058
 4670TIP3    H135569   0.793   5.175   7.800  1.5894 -0.8726 -0.2657
 4670TIP3    H235570   0.698   5.208   7.686  0.3303  1.8142  1.4632
 4671TIP3   OH235571   6.432   6.694   8.599  0.2535 -0.0479 -0.2375
 4671TIP3    H135572   6.343   6.661   8.610  0.6733 -0.7567  1.1347
 4671TIP3    H235573   6.441   6.762   8.666  0.8510 -0.1961 -0.1634
 4672TIP3   OH235574   4.819   1.867   1.278 -0.2698 -0.3488 -0.0493
 4672TIP3    H135575   4.801   1.941   1.335  1.2615  0.2766 -0.3570
 4672TIP3    H235576   4.735   1.820   1.273 -1.3472  1.5038 -0.0880
 4673TIP3   OH235577   5.809   3.111   8.248  0.3808 -0.2345 -0.3735
 4673TIP3    H135578   5.832   3.197   8.283  1.4918  0.5216 -2.7545
 4673TIP3    H235579   5.764   3.129   8.166  1.8205 -1.8887 -1.6079
 4674TIP3   OH235580   0.100   3.842   1.816 -0.5115  0.0858  0.3333
 4674TIP3    H135581   0.089   3.915   1.877 -0.7003 -0.0303  0.4413
 4674TIP3    H235582   0.092   3.882   1.729  3.2343  0.8827  0.1868
 4675TIP3   OH235583   6.825   1.952   7.609 -0.1900  0.3031 -0.0495
 4675TIP3    H135584   6.832   2.031   7.556  0.4590  0.4680  0.2846
 4675TIP3    H235585   6.856   1.977   7.696 -1.8842  0.2180  0.6270
 4676TIP3   OH235586   5.364   5.022   8.513  0.0545 -0.0177 -0.1962
 4676TIP3    H135587   5.435   4.958   8.513 -2.1699 -2.6789 -1.5676
 4676TIP3    H235588   5.353   5.046   8.421 -0.6615  0.5350  0.0249
 4677TIP3   OH235589   0.384   3.594   2.446 -0.1795 -0.0443 -0.6733
 4677TIP3    H135590   0.447   3.535   2.487  0.7809  2.4532  1.7109
 4677TIP3    H235591   0.412   3.599   2.354  1.2313 -1.2654 -0.3483
 4678TIP3   OH235592   1.129   0.572   1.296  0.0372  0.6241  0.4494
 4678TIP3    H135593   1.145   0.602   1.207 -1.8560 -1.3280 -0.6369
 4678TIP3    H235594   1.115   0.478   1.288 -0.0692  0.3640  2.8476
 4679TIP3   OH235595   4.914   6.421   6.329  0.1903 -0.6531  0.1693
 4679TIP3    H135596   4.907   6.375   6.413 -0.7271 -1.1162 -0.1475
 4679TIP3    H235597   5.003   6.402   6.299  0.3670 -0.8709  0.8167
 4680TIP3   OH235598   1.278   4.475   1.514  0.1417  0.3344 -0.0975
 4680TIP3    H135599   1.300   4.562   1.550  2.0982 -0.5741  1.0585
 4680TIP3    H235600   1.193   4.454   1.554  0.7588  0.7352  1.4926
 4681TIP3   OH235601   4.250   6.767   2.614  0.0184 -0.1586 -0.2890
 4681TIP3    H135602   4.288   6.685   2.584 -2.5561 -1.1413 -1.1491
 4681TIP3    H235603   4.302   6.791   2.691  2.2900 -1.3227 -1.3699
 4682TIP3   OH235604   6.069   4.024   8.350 -0.1854 -0.3591  0.0760
 4682TIP3    H135605   6.091   3.985   8.266  0.5232 -1.2347  0.6376
 4682TIP3    H235606   6.014   3.959   8.393  0.6781 -0.5969  0.8641
 4683TIP3   OH235607   1.799   4.349   1.641  0.0788 -0.5704 -0.0570
 4683TIP3    H135608   1.773   4.357   1.549 -0.1527  1.0088  0.1055
 4683TIP3    H235609   1.887   4.312   1.638 -0.3870 -1.6614 -0.8475
 4684TIP3   OH235610   6.636   0.569   2.630  0.3536  0.1041 -0.3526
 4684TIP3    H135611   6.602   0.479   2.633 -0.1616  0.3095  0.2785
 4684TIP3    H235612   6.564   0.621   2.596 -0.4038  0.7037  1.9805
 4685TIP3   OH235613   0.621   3.165   6.735 -0.1807  0.0713  0.0578
 4685TIP3    H135614   0.535   3.163   6.778  0.4831  1.3322  1.5444
 4685TIP3    H235615   0.683   3.181   6.807  1.1011  1.1216 -1.2211
 4686TIP3   OH235616   2.714   3.946   8.402 -0.3189  0.2068 -0.6851
 4686TIP3    H135617   2.621   3.929   8.417 -0.3919  0.8016 -0.4123
 4686TIP3    H235618   2.735   4.016   8.464  0.1743  0.4728 -1.1521
 4687TIP3   OH235619   5.644   3.265   7.533 -1.0772 -0.2991 -0.7599
 4687TIP3    H135620   5.696   3.186   7.552  2.2087  2.0740  1.1959
 4687TIP3    H235621   5.609   3.291   7.618  1.1930  2.3597 -0.5273
 4688TIP3   OH235622   0.743   6.722   7.806 -0.6469 -0.0245  0.1401
 4688TIP3    H135623   0.777   6.700   7.719  0.2405 -0.1923  0.5192
 4688TIP3    H235624   0.754   6.642   7.858  0.8152  0.6880  0.9860
 4689TIP3   OH235625   0.921   4.557   1.843  0.0621 -0.4728  0.1330
 4689TIP3    H135626   0.964   4.579   1.926 -0.7385  1.8706 -0.0169
 4689TIP3    H235627   0.846   4.616   1.838  1.0306  0.6777 -3.0634
 4690TIP3   OH235628   0.994   2.042   1.612 -0.2299 -0.4080 -0.0465
 4690TIP3    H135629   0.923   2.047   1.549 -0.9469  0.7265  0.8100
 4690TIP3    H235630   1.039   1.960   1.592 -1.1867 -0.6617 -1.2217
 4691TIP3   OH235631   3.385   5.955   0.336  0.2742  0.0943 -0.4922
 4691TIP3    H135632   3.468   5.914   0.310  0.8287 -0.8043  2.3016
 4691TIP3    H235633   3.328   5.882   0.359 -0.8340  0.7508 -1.0956
 4692TIP3   OH235634   6.053   5.223   0.200  0.1949  0.2114 -0.5287
 4692TIP3    H135635   6.013   5.201   0.116 -0.7589  0.4627 -0.1547
 4692TIP3    H235636   6.101   5.304   0.184 -2.1455  1.7247 -0.2368
 4693TIP3   OH235637   3.166   4.880   1.878 -0.1953  0.4698  0.4470
 4693TIP3    H135638   3.258   4.908   1.873  0.0757 -0.6421 -1.6532
 4693TIP3    H235639   3.117   4.962   1.873  0.6518  0.9256 -2.7264
 4694TIP3   OH235640   5.313   4.156   1.682  0.1325  0.2656  0.1206
 4694TIP3    H135641   5.300   4.099   1.758  3.2440  0.6851  1.1100
 4694TIP3    H235642   5.309   4.245   1.718 -1.1276  0.5831 -0.7539
 4695TIP3   OH235643   0.848   0.611   2.249 -0.3479 -0.1508  0.1222
 4695TIP3    H135644   0.886   0.595   2.336 -1.7410 -0.3594  0.7210
 4695TIP3    H235645   0.859   0.705   2.234 -1.8695  0.2814  1.4372
 4696TIP3   OH235646   2.340   1.464   1.959  0.4717  0.3939 -0.0508
 4696TIP3    H135647   2.333   1.466   2.054 -0.4885  0.2150 -0.1109
 4696TIP3    H235648   2.274   1.400   1.931  0.0692  1.1541 -0.8929
 4697TIP3   OH235649   0.032   1.738   1.630  0.1774 -0.3552  1.1804
 4697TIP3    H135650   0.057   1.674   1.563  0.4585 -2.0335  2.8086
 4697TIP3    H235651   0.113   1.783   1.651  0.2050 -0.2281  0.8126
 4698TIP3   OH235652   0.448   3.855   7.835 -0.0283  0.4027 -0.2066
 4698TIP3    H135653   0.412   3.872   7.748  2.7186  0.0682 -1.5104
 4698TIP3    H235654   0.457   3.760   7.838 -0.7584  0.3537  0.7602
 4699TIP3   OH235655   5.490   5.772   0.589  0.3899  0.4793 -0.2291
 4699TIP3    H135656   5.549   5.834   0.630  2.0531  0.5855 -2.5720
 4699TIP3    H235657   5.487   5.697   0.649  2.0860  0.9105  0.4453
 4700TIP3   OH235658   4.670   2.612   2.659  0.0125 -0.8284  0.1923
 4700TIP3    H135659   4.748   2.645   2.614  0.0045 -1.6294 -0.4396
 4700TIP3    H235660   4.610   2.686   2.659  0.0710 -0.7526 -1.0161
 4701TIP3   OH235661   6.424   4.028   2.025  0.5474  0.0524 -0.0847
 4701TIP3    H135662   6.380   4.067   2.101 -1.2942  0.4032 -1.2556
 4701TIP3    H235663   6.513   4.061   2.029 -0.0356  1.6389  0.8681
 4702TIP3   OH235664   0.394   2.900   7.197 -0.1718  0.9101 -0.2358
 4702TIP3    H135665   0.321   2.961   7.209 -2.5604 -1.3809 -2.0087
 4702TIP3    H235666   0.422   2.914   7.107  0.4951  0.6489 -0.0753
 4703TIP3   OH235667   3.351   3.319   0.633 -0.6117  0.3399 -0.8576
 4703TIP3    H135668   3.372   3.271   0.552  0.2247  0.2509 -0.5984
 4703TIP3    H235669   3.307   3.398   0.602  1.0100  1.0205 -1.5195
 4704TIP3   OH235670   3.183   3.141   7.840 -0.2190 -0.0381  0.1702
 4704TIP3    H135671   3.172   3.140   7.936  0.6477 -0.4573  0.2700
 4704TIP3    H235672   3.264   3.093   7.825 -1.5755 -2.0844 -0.9612
 4705TIP3   OH235673   3.819   4.014   8.185 -0.2694 -0.6834  0.4547
 4705TIP3    H135674   3.805   4.049   8.273 -1.6844  0.3062 -0.1238
 4705TIP3    H235675   3.787   4.083   8.127 -0.2991 -1.7271 -0.8174
 4706TIP3   OH235676   2.260   3.700   7.055 -0.4386  0.3988 -0.3381
 4706TIP3    H135677   2.316   3.681   6.980  0.0371  0.8091 -0.0927
 4706TIP3    H235678   2.206   3.621   7.066 -0.7994  0.4952 -1.3541
 4707TIP3   OH235679   3.732   1.512   8.150 -0.4807 -0.0486 -0.5495
 4707TIP3    H135680   3.658   1.573   8.151 -0.7348 -0.3406 -1.1687
 4707TIP3    H235681   3.755   1.504   8.057 -0.1131 -0.4904 -0.4220
 4708TIP3   OH235682   5.871   6.487   7.673  0.6695 -0.6161 -0.3135
 4708TIP3    H135683   5.928   6.413   7.692  0.8543 -1.4851 -3.7325
 4708TIP3    H235684   5.799   6.449   7.623 -0.0395  1.3070 -0.8310
 4709TIP3   OH235685   5.691   2.719   6.674  0.5813  0.2669 -0.1991
 4709TIP3    H135686   5.761   2.660   6.704 -0.3395  0.3880  2.3828
 4709TIP3    H235687   5.610   2.677   6.704 -0.3033  1.3213 -1.0568
 4710TIP3   OH235688   2.410   0.744   1.976 -0.1699 -0.2989  0.2619
 4710TIP3    H135689   2.380   0.753   2.067 -0.3762  0.0097  0.1624
 4710TIP3    H235690   2.488   0.689   1.983  2.0944  2.7948  1.0776
 4711TIP3   OH235691   0.515   2.000   8.390 -0.5143 -0.1025  0.2608
 4711TIP3    H135692   0.440   2.054   8.415 -0.6555  0.2094 -0.8012
 4711TIP3    H235693   0.591   2.058   8.402 -0.7600  0.8261 -2.0543
 4712TIP3   OH235694   2.273   4.846   0.215 -0.6573 -0.1446 -0.5025
 4712TIP3    H135695   2.319   4.825   0.296 -0.0880  0.1040 -0.7594
 4712TIP3    H235696   2.268   4.763   0.168  0.6796  0.0625 -1.0544
 4713TIP3   OH235697   1.598   6.753   0.279 -0.1149 -0.1195 -0.1909
 4713TIP3    H135698   1.562   6.755   0.190 -0.1248 -0.6380 -0.2028
 4713TIP3    H235699   1.523   6.734   0.335 -0.4993  2.1758  0.1601
 4714TIP3   OH235700   6.484   1.474   2.128  0.1778 -0.0083  0.1583
 4714TIP3    H135701   6.421   1.449   2.195  0.6802  0.5415  0.8424
 4714TIP3    H235702   6.479   1.404   2.063  0.4415 -1.0808  1.2694
 4715TIP3   OH235703   2.567   0.052   0.794 -0.3092 -0.1249 -0.1541
 4715TIP3    H135704   2.542   0.128   0.741  0.3500  0.0505 -0.2288
 4715TIP3    H235705   2.628   0.003   0.738  0.1714 -0.0895  0.3258
 4716TIP3   OH235706   3.720   1.356   1.977  0.0843  0.0748 -0.1370
 4716TIP3    H135707   3.807   1.317   1.981  0.2118  0.0849 -1.8188
 4716TIP3    H235708   3.710   1.402   2.060  1.2197 -0.8585  0.5509
 4717TIP3   OH235709   6.337   2.283   0.769 -0.0922 -0.1981 -0.0530
 4717TIP3    H135710   6.405   2.310   0.707 -0.8323 -0.5339 -1.0437
 4717TIP3    H235711   6.379   2.216   0.823  0.4592 -0.1685 -0.4366
 4718TIP3   OH235712   4.611   6.817   0.980  0.5430  0.2499  0.5281
 4718TIP3    H135713   4.649   6.893   0.936  0.4821 -0.2285 -0.3743
 4718TIP3    H235714   4.564   6.854   1.055 -0.9864  1.3048 -0.8838
 4719TIP3   OH235715   3.249   2.070   0.356 -0.5647 -0.3499 -0.0519
 4719TIP3    H135716   3.246   2.013   0.279  0.3585  1.6907 -1.6839
 4719TIP3    H235717   3.257   2.010   0.430  0.9561 -2.3369 -1.7169
 4720TIP3   OH235718   4.607   1.967   8.509  0.1639 -0.7298  0.3646
 4720TIP3    H135719   4.538   1.925   8.560 -0.6532 -0.2139 -0.2845
 4720TIP3    H235720   4.597   1.931   8.421  0.0630  0.1145  0.0234
 4721TIP3   OH235721   6.196   4.324   7.564  0.1116 -0.1917 -0.0177
 4721TIP3    H135722   6.195   4.329   7.469  0.6555 -1.8591 -0.1552
 4721TIP3    H235723   6.288   4.310   7.586  0.3418  2.3405  0.9540
 4722TIP3   OH235724   5.334   2.059   2.162 -0.0856  0.2501  0.5430
 4722TIP3    H135725   5.245   2.092   2.175  0.5929  2.3952  0.2041
 4722TIP3    H235726   5.358   2.021   2.246 -1.4333 -0.7026  0.5271
 4723TIP3   OH235727   4.515   4.823   8.605  0.6614  0.9587 -0.1884
 4723TIP3    H135728   4.592   4.831   8.662  0.8327  0.4948 -0.3459
 4723TIP3    H235729   4.551   4.821   8.517  0.5532 -0.1964 -0.2212
 4724TIP3   OH235730   1.723   4.932   0.328  0.5339 -0.3533  0.2142
 4724TIP3    H135731   1.782   4.926   0.253  0.5577 -1.8067  0.3293
 4724TIP3    H235732   1.771   4.890   0.400 -0.4172 -1.0654  0.4488
 4725TIP3   OH235733   0.735   4.436   0.541  0.1629  0.1219 -0.1289
 4725TIP3    H135734   0.780   4.520   0.554 -1.9960  1.4441 -0.6088
 4725TIP3    H235735   0.728   4.428   0.446  0.1124 -0.4747 -0.0757
 4726TIP3   OH235736   5.610   2.565   0.772  0.1723 -0.1110 -0.2804
 4726TIP3    H135737   5.604   2.660   0.785 -0.7881  0.0049 -1.4116
 4726TIP3    H235738   5.650   2.556   0.686  1.2246 -0.7707  0.2573
 4727TIP3   OH235739   1.344   0.032   0.184  0.8900  0.3067  0.0762
 4727TIP3    H135740   1.331   0.039   0.278 -0.3295  1.8738 -0.1724
 4727TIP3    H235741   1.309   0.113   0.148 -0.9904 -1.2705 -1.9643
 4728TIP3   OH235742   4.521   4.536   1.838  0.3102 -0.3525 -0.0417
 4728TIP3    H135743   4.594   4.567   1.892 -0.8520  1.4909  0.5930
 4728TIP3    H235744   4.523   4.592   1.760 -0.4774 -0.1676  0.0558
 4729TIP3   OH235745   5.442   0.025   7.111 -0.4056 -0.4822  0.0950
 4729TIP3    H135746   5.524   0.019   7.062  0.4889  3.0029  0.9079
 4729TIP3    H235747   5.426   0.119   7.121 -1.8926 -0.9576  4.1840
 4730TIP3   OH235748   3.219   3.269   8.701 -0.6243 -0.0207  0.6119
 4730TIP3    H135749   3.173   3.243   8.781 -0.3560 -0.8406  0.5123
 4730TIP3    H235750   3.298   3.312   8.733 -1.0726  0.6911  0.7838
 4731TIP3   OH235751   2.933   6.773   8.476  0.2204  0.0395  0.2926
 4731TIP3    H135752   3.022   6.777   8.512  0.2845 -0.6770  0.2187
 4731TIP3    H235753   2.940   6.717   8.400 -0.4807 -0.8330  0.8495
 4732TIP3   OH235754   0.595   3.464   0.501 -0.2578 -0.2530  0.1032
 4732TIP3    H135755   0.683   3.472   0.465 -0.1435 -0.9687  0.2112
 4732TIP3    H235756   0.585   3.539   0.559 -0.3763  0.8462 -1.2607
 4733TIP3   OH235757   2.013   2.623   0.242  0.1075 -0.0425  0.2765
 4733TIP3    H135758   2.075   2.697   0.243 -0.7418  0.6833  0.5720
 4733TIP3    H235759   2.015   2.592   0.151  0.4400  0.3681  0.1384
 4734TIP3   OH235760   4.487   4.612   0.147 -0.8057  0.2809 -0.1890
 4734TIP3    H135761   4.423   4.643   0.083 -1.1496  1.0071  0.4999
 4734TIP3    H235762   4.551   4.682   0.153  0.9123 -1.0256 -1.9559
 4735TIP3   OH235763   2.065   5.648   1.892  0.0483  0.1983 -0.1590
 4735TIP3    H135764   2.065   5.564   1.848  0.7077 -0.9050  1.8265
 4735TIP3    H235765   1.997   5.640   1.959 -0.1251  1.3816 -0.1644
 4736TIP3   OH235766   2.936   5.698   7.677 -0.5365  0.4019  0.4983
 4736TIP3    H135767   2.899   5.659   7.598  0.8688 -2.3014  1.0622
 4736TIP3    H235768   2.938   5.626   7.740  2.1740  1.3824  1.6739
 4737TIP3   OH235769   4.618   3.177   1.091  0.1814 -0.0063 -0.1944
 4737TIP3    H135770   4.562   3.099   1.094 -0.9658  0.7899  0.0232
 4737TIP3    H235771   4.705   3.144   1.071 -0.4094 -1.2781 -0.7809
 4738TIP3   OH235772   1.688   3.524   1.096 -0.7838 -1.0329  0.2471
 4738TIP3    H135773   1.753   3.576   1.049  0.1191 -0.2175  2.2450
 4738TIP3    H235774   1.732   3.441   1.115  1.5034  0.9006  5.1066
 4739TIP3   OH235775   4.496   1.178   0.770 -0.2510  0.2251  0.3783
 4739TIP3    H135776   4.438   1.244   0.732  0.1643 -0.1012 -0.8600
 4739TIP3    H235777   4.584   1.209   0.750 -0.0589 -1.0269 -0.8101
 4740TIP3   OH235778   6.701   3.760   1.630  0.3119  0.2781 -0.3463
 4740TIP3    H135779   6.670   3.832   1.685  3.7318  0.3345  1.7959
 4740TIP3    H235780   6.647   3.685   1.655 -0.5299  1.1500  0.5036
 4741TIP3   OH235781   1.872   5.237   7.353 -0.5169  0.2318 -0.2177
 4741TIP3    H135782   1.875   5.301   7.424 -0.0400 -1.0378  0.9552
 4741TIP3    H235783   1.939   5.268   7.291 -1.7552  2.0089 -0.7489
 4742TIP3   OH235784   5.750   4.550   1.461 -0.0158  0.0925  0.6253
 4742TIP3    H135785   5.672   4.533   1.408  0.1961  2.3502 -0.5173
 4742TIP3    H235786   5.731   4.632   1.506  0.4317 -0.9941  2.9427
 4743TIP3   OH235787   0.763   0.284   8.080 -0.8905 -0.5811  0.8493
 4743TIP3    H135788   0.790   0.205   8.033  0.0994  0.1185  0.1894
 4743TIP3    H235789   0.731   0.343   8.012 -1.6734 -0.4284  1.3416
 4744TIP3   OH235790   5.630   2.111   1.317 -0.2212 -0.4266 -0.3506
 4744TIP3    H135791   5.547   2.158   1.320  0.1657  0.4390 -1.9326
 4744TIP3    H235792   5.618   2.036   1.374 -1.2326  1.0116  1.4194
 4745TIP3   OH235793   0.955   1.542   6.931 -0.9267 -0.1642  0.0208
 4745TIP3    H135794   0.945   1.509   6.841  0.3419  1.3449 -0.7136
 4745TIP3    H235795   1.049   1.533   6.949 -0.4334  3.2211 -0.3493
 4746TIP3   OH235796   6.736   0.273   8.295 -0.0561 -0.1383 -0.1195
 4746TIP3    H135797   6.766   0.182   8.286  0.7718  0.2542 -1.6774
 4746TIP3    H235798   6.749   0.294   8.387  0.1883 -1.4408  0.1596
 4747TIP3   OH235799   1.855   5.851   1.253  0.2239 -0.1653 -0.1188
 4747TIP3    H135800   1.788   5.791   1.223 -0.2041  0.5776 -0.6881
 4747TIP3    H235801   1.824   5.938   1.227  0.1696  0.4674  1.8787
 4748TIP3   OH235802   1.847   1.782   1.552 -0.3089 -0.2972  0.8812
 4748TIP3    H135803   1.796   1.843   1.605  0.4137 -0.0100  1.2614
 4748TIP3    H235804   1.910   1.744   1.613  0.4511 -0.0553  0.2665
 4749TIP3   OH235805   0.113   6.693   2.199  0.0750  0.3048 -0.0474
 4749TIP3    H135806   0.101   6.678   2.293  0.2937 -1.1191 -0.2150
 4749TIP3    H235807   0.127   6.787   2.191 -0.9604  0.5993  1.2288
 4750TIP3   OH235808   0.672   0.911   6.733  0.2997 -0.6144 -0.9074
 4750TIP3    H135809   0.620   0.830   6.732 -1.7195  0.6115 -1.2522
 4750TIP3    H235810   0.630   0.967   6.668 -0.0774  1.7364  1.2082
 4751TIP3   OH235811   1.701   1.459   8.626 -0.2974  0.3960  0.0900
 4751TIP3    H135812   1.788   1.499   8.627 -0.7942  1.5133  0.9767
 4751TIP3    H235813   1.713   1.377   8.577  1.4976 -0.0629  1.1912
 4752TIP3   OH235814   2.447   2.805   6.735  0.1038 -0.0209  0.7542
 4752TIP3    H135815   2.449   2.895   6.765 -0.1363  0.3084 -0.1798
 4752TIP3    H235816   2.502   2.804   6.657 -0.9550 -0.3759 -0.0115
 4753TIP3   OH235817   0.599   2.641   2.790  0.2653 -0.2974 -0.0888
 4753TIP3    H135818   0.526   2.586   2.759  0.1022  0.7271 -1.5836
 4753TIP3    H235819   0.569   2.730   2.776  1.3229  0.1606  0.4923
 4754TIP3   OH235820   0.645   3.526   2.022 -0.2762 -0.0397 -0.3008
 4754TIP3    H135821   0.658   3.444   2.069 -0.5450  0.2468  0.2913
 4754TIP3    H235822   0.730   3.570   2.027 -0.3498  0.0688  0.0934
 4755TIP3   OH235823   3.234   3.110   7.436 -0.9599  0.6779  0.0001
 4755TIP3    H135824   3.325   3.091   7.415 -0.6032  1.0862  1.1113
 4755TIP3    H235825   3.200   3.030   7.475 -1.2720  0.3172 -0.9885
 4756TIP3   OH235826   2.333   3.604   7.503 -0.2198 -0.8765 -0.5296
 4756TIP3    H135827   2.389   3.671   7.462  0.6012 -0.9650  0.4233
 4756TIP3    H235828   2.347   3.615   7.597 -0.7935 -1.7799 -0.3299
 4757TIP3   OH235829   2.246   2.832   0.112  0.1457  0.3626  0.4652
 4757TIP3    H135830   2.300   2.908   0.092  0.6099  0.0692  0.5795
 4757TIP3    H235831   2.291   2.759   0.071  0.6092 -0.1011  1.7489
 4758TIP3   OH235832   5.179   6.212   8.059 -0.1375  0.4029 -0.2158
 4758TIP3    H135833   5.084   6.203   8.066 -0.1188  1.0018  1.2080
 4758TIP3    H235834   5.213   6.163   8.134  0.7126 -0.0452 -0.8688
 4759TIP3   OH235835   4.730   1.260   7.680  0.1116  0.3622  0.1096
 4759TIP3    H135836   4.648   1.278   7.634  0.7225  0.6007 -0.9378
 4759TIP3    H235837   4.768   1.347   7.695  0.6139  0.2195 -0.2824
 4760TIP3   OH235838   2.611   3.490   7.542 -0.5446 -0.2061  0.5708
 4760TIP3    H135839   2.569   3.563   7.586  1.4392  0.9631  0.6737
 4760TIP3    H235840   2.693   3.477   7.590 -0.9024 -2.6122  0.6251
 4761TIP3   OH235841   5.163   1.340   2.010  0.4777 -0.3298 -0.0520
 4761TIP3    H135842   5.100   1.275   2.042 -1.1058  1.2819  0.2686
 4761TIP3    H235843   5.248   1.300   2.025 -0.4203 -2.2405  0.3053
 4762TIP3   OH235844   1.268   1.773   1.042  0.1807 -0.2786 -0.1407
 4762TIP3    H135845   1.217   1.822   0.978  3.6023  1.6236 -1.6506
 4762TIP3    H235846   1.309   1.840   1.097 -0.6985 -1.8005  2.5846
 4763TIP3   OH235847   4.437   5.124   2.975 -0.3881 -0.0940  0.0136
 4763TIP3    H135848   4.479   5.154   2.895 -0.3666 -0.3334 -0.0657
 4763TIP3    H235849   4.415   5.204   3.022  0.0150  0.0360 -0.0156
 4764TIP3   OH235850   0.404   1.046   8.276  0.0198  0.0463  0.1531
 4764TIP3    H135851   0.367   1.132   8.298 -1.0364 -0.3649  0.0201
 4764TIP3    H235852   0.407   1.044   8.181  1.9401  0.7071  0.1593
 4765TIP3   OH235853   5.043   0.581   0.476  0.3047 -0.7597 -0.2612
 4765TIP3    H135854   5.069   0.548   0.389 -1.1788 -0.5168 -0.8314
 4765TIP3    H235855   5.118   0.634   0.504  0.3320  0.2052 -1.9698
 4766TIP3   OH235856   4.292   1.369   8.410 -0.1639 -0.1844 -0.0943
 4766TIP3    H135857   4.319   1.453   8.446  2.3375 -0.0188 -2.1024
 4766TIP3    H235858   4.201   1.383   8.382 -1.3080  0.4427  3.3754
 4767TIP3   OH235859   1.863   6.423   1.520 -0.2305  0.1089 -0.5251
 4767TIP3    H135860   1.917   6.349   1.492 -0.2717 -0.3645  0.5916
 4767TIP3    H235861   1.808   6.443   1.444  0.3784 -0.4575 -1.1217
 4768TIP3   OH235862   5.984   5.203   2.275 -0.5760 -0.4472  0.3062
 4768TIP3    H135863   6.064   5.168   2.234 -2.2813 -2.3483 -1.6746
 4768TIP3    H235864   5.978   5.293   2.242  0.4580 -0.4688  0.0143
 4769TIP3   OH235865   4.265   1.491   0.368 -0.1172 -0.2950 -0.5790
 4769TIP3    H135866   4.281   1.581   0.342  0.8983  0.0783  1.2390
 4769TIP3    H235867   4.171   1.487   0.386 -0.2353  0.2816 -1.0662
 4770TIP3   OH235868   6.518   5.838   2.338  0.1441  0.1689  0.0632
 4770TIP3    H135869   6.450   5.785   2.295  0.0414  0.5211 -0.2172
 4770TIP3    H235870   6.515   5.921   2.292  0.4481  0.3473  0.3654
 4771TIP3   OH235871   4.387   3.306   2.408  0.5322 -0.0365  0.1348
 4771TIP3    H135872   4.360   3.386   2.452 -1.0780  0.7078 -1.9922
 4771TIP3    H235873   4.477   3.322   2.380 -0.1270  1.5472 -1.2271
 4772TIP3   OH235874   5.618   5.540   8.472 -0.4272 -0.4908  0.6177
 4772TIP3    H135875   5.686   5.494   8.423 -0.0088  0.2842  0.4409
 4772TIP3    H235876   5.602   5.485   8.549  2.0945  0.3918  1.8975
 4773TIP3   OH235877   0.028   3.396   0.768 -0.3318  0.1899 -0.4000
 4773TIP3    H135878   0.036   3.468   0.831 -0.4155  0.6119 -0.8640
 4773TIP3    H235879   0.116   3.386   0.732 -0.6773  1.2425 -1.6061
 4774TIP3   OH235880   0.320   6.760   7.435 -0.0249  0.4341  0.3481
 4774TIP3    H135881   0.281   6.698   7.497 -0.9411  1.1584  0.5120
 4774TIP3    H235882   0.414   6.740   7.437  0.0348  0.7559  2.3233
 4775TIP3   OH235883   5.455   5.658   7.646 -0.5453  0.4885 -0.8406
 4775TIP3    H135884   5.476   5.751   7.653  1.4775  0.1120 -1.0914
 4775TIP3    H235885   5.431   5.645   7.554  0.4971  0.5685 -1.1445
 4776TIP3   OH235886   0.888   2.487   2.553  0.4121  0.0503  0.1852
 4776TIP3    H135887   0.981   2.470   2.540  0.1845 -0.3313 -1.0075
 4776TIP3    H235888   0.880   2.503   2.647  1.7279  0.4063  0.2609
 4777TIP3   OH235889   2.338   1.332   1.220 -0.6146 -0.0864  0.4252
 4777TIP3    H135890   2.401   1.381   1.273  0.0436  0.0635 -0.4639
 4777TIP3    H235891   2.345   1.242   1.252 -0.6840  0.1137  1.0109
 4778TIP3   OH235892   4.472   3.358   0.867 -0.5412  0.6800 -0.3672
 4778TIP3    H135893   4.410   3.417   0.825  0.1744  0.8932 -1.1502
 4778TIP3    H235894   4.443   3.270   0.841 -1.4454  0.6791  0.5768
 4779TIP3   OH235895   4.644   2.590   8.177  0.0655 -0.4564  0.2181
 4779TIP3    H135896   4.575   2.602   8.113 -0.3610  2.4680  1.0644
 4779TIP3    H235897   4.722   2.628   8.137  0.8573 -2.3361 -0.1205
 4780TIP3   OH235898   0.004   0.286   1.857  0.4326 -0.4086 -0.4950
 4780TIP3    H135899  -0.028   0.374   1.880  0.2769 -0.1539 -1.5837
 4780TIP3    H235900  -0.020   0.231   1.931 -0.8002  0.1786 -0.4276
 4781TIP3   OH235901   4.809   4.437   7.543 -0.0637  0.2621  0.6070
 4781TIP3    H135902   4.868   4.501   7.505  1.1065 -0.5907  0.9469
 4781TIP3    H235903   4.745   4.419   7.473  1.2210 -0.2480 -0.4781
 4782TIP3   OH235904   2.530   2.369   1.438  0.2303 -0.1544 -0.8065
 4782TIP3    H135905   2.538   2.294   1.379 -0.8239  0.4351 -1.7258
 4782TIP3    H235906   2.519   2.444   1.380  1.6085  0.7871  0.0866
 4783TIP3   OH235907   4.495   1.709   7.861 -0.0545  0.0303  0.0713
 4783TIP3    H135908   4.535   1.743   7.781 -0.9248  0.0160 -0.3838
 4783TIP3    H235909   4.418   1.661   7.831  0.0845 -0.6998  0.8598
 4784TIP3   OH235910   5.876   5.524   0.003 -0.4577 -0.0069  0.2280
 4784TIP3    H135911   5.953   5.511  -0.053 -0.8736 -1.2161 -0.0865
 4784TIP3    H235912   5.910   5.574   0.078  0.3685  0.5488 -0.4903
 4785TIP3   OH235913   2.654   6.768   8.144 -0.3253  0.9866 -0.4801
 4785TIP3    H135914   2.577   6.734   8.189  0.5774 -0.8677 -0.2390
 4785TIP3    H235915   2.631   6.766   8.051 -1.3794  2.6960 -0.2991
 4786TIP3   OH235916   2.381   1.291   0.709 -0.2623 -0.4283  0.2354
 4786TIP3    H135917   2.430   1.366   0.674  0.7832 -0.7165  1.0145
 4786TIP3    H235918   2.339   1.324   0.788 -2.1052  0.0528 -0.8840
 4787TIP3   OH235919   3.387   4.570   8.216 -0.3574  0.5990  0.2485
 4787TIP3    H135920   3.402   4.582   8.310 -0.2370  1.7514  0.0999
 4787TIP3    H235921   3.439   4.639   8.175 -0.3804  0.0826 -0.6700
 4788TIP3   OH235922   3.669   1.815   6.474 -0.3186 -0.4287  0.7582
 4788TIP3    H135923   3.672   1.896   6.422  1.4595 -0.1984  1.1549
 4788TIP3    H235924   3.674   1.845   6.565 -1.0224 -0.9432  0.9717
 4789TIP3   OH235925   1.445   3.042   0.608  0.2158 -0.4625 -0.1308
 4789TIP3    H135926   1.447   3.061   0.514  1.5196 -0.8808 -0.2114
 4789TIP3    H235927   1.446   2.946   0.613  0.3790 -0.4407  0.2981
 4790TIP3   OH235928   5.830   6.730   7.764  0.3550 -0.3425 -0.1099
 4790TIP3    H135929   5.838   6.639   7.734  1.2107 -0.4394  0.3688
 4790TIP3    H235930   5.888   6.779   7.706  1.8488 -0.4991  1.1570
 4791TIP3   OH235931   2.711   3.564   7.870  0.7625 -0.5055 -0.3202
 4791TIP3    H135932   2.650   3.610   7.811  0.4614 -0.6601 -0.1284
 4791TIP3    H235933   2.669   3.480   7.888  0.9998 -0.5844 -0.1302
 4792TIP3   OH235934   6.200   3.421   0.175  0.1213 -0.3271 -0.2030
 4792TIP3    H135935   6.106   3.406   0.167  0.0429  0.1964 -0.3338
 4792TIP3    H235936   6.241   3.341   0.142 -0.2843 -0.8608  0.5502
 4793TIP3   OH235937   5.746   5.963   0.388 -0.5458  0.1945 -0.3094
 4793TIP3    H135938   5.756   5.964   0.484 -1.0109  0.8729 -0.2612
 4793TIP3    H235939   5.664   5.917   0.373 -1.7428  2.1717 -0.2286
 4794TIP3   OH235940   2.932   3.203   6.970 -0.1341 -0.5951 -0.0217
 4794TIP3    H135941   2.846   3.191   6.930 -1.1602  0.1361  1.8784
 4794TIP3    H235942   2.993   3.198   6.896 -1.8098 -0.8344 -1.4536
 4795TIP3   OH235943   2.531   4.600   0.923 -0.2939  0.0660 -0.0904
 4795TIP3    H135944   2.497   4.531   0.980 -1.6022  0.1867 -0.6932
 4795TIP3    H235945   2.584   4.655   0.981  0.3641 -1.1427  0.4999
 4796TIP3   OH235946   3.664   3.756   0.774  0.3792  0.0598 -0.5848
 4796TIP3    H135947   3.682   3.803   0.693  0.6292  0.1003 -0.5077
 4796TIP3    H235948   3.689   3.665   0.755 -1.4026 -0.3623 -1.1884
 4797TIP3   OH235949   5.900   2.752   1.532 -0.2595 -0.5355  0.3146
 4797TIP3    H135950   5.906   2.841   1.498 -0.8409 -0.6599 -0.1364
 4797TIP3    H235951   5.988   2.732   1.564 -0.4352  0.6672  1.6432
 4798TIP3   OH235952   1.500   5.533   7.482 -0.0895 -0.2044  0.0951
 4798TIP3    H135953   1.422   5.508   7.432  0.7655  0.8862 -1.9165
 4798TIP3    H235954   1.560   5.459   7.471 -1.4588 -2.0029  3.3817
 4799TIP3   OH235955   4.914   4.059   1.183 -0.1250 -0.2361 -0.2840
 4799TIP3    H135956   4.819   4.075   1.182 -0.6004 -2.6116 -1.1227
 4799TIP3    H235957   4.943   4.080   1.095  0.3399  1.3285  0.2122
 4800TIP3   OH235958   2.100   1.551   0.789 -0.5364 -0.0693  0.3997
 4800TIP3    H135959   2.124   1.636   0.752 -1.3287  0.7137  1.5953
 4800TIP3    H235960   2.004   1.555   0.795 -0.5033 -0.6492  1.3702
 4801TIP3   OH235961   4.738   1.664   7.966 -0.4028  0.2908 -0.2770
 4801TIP3    H135962   4.781   1.745   7.993  1.6480 -1.3976  1.9376
 4801TIP3    H235963   4.650   1.692   7.939  0.5769  3.3440 -0.7409
 4802TIP3   OH235964   4.434   4.256   7.692 -0.1181  0.2273  0.4847
 4802TIP3    H135965   4.457   4.341   7.729 -0.7425  1.4809 -1.8340
 4802TIP3    H235966   4.484   4.193   7.744  1.5621  2.1189  1.2850
 4803TIP3   OH235967   0.233   2.127   7.467  0.3057 -0.0653 -0.4563
 4803TIP3    H135968   0.164   2.155   7.406 -0.5291  1.2143  1.0060
 4803TIP3    H235969   0.295   2.080   7.412 -0.8061  0.3464 -2.1593
 4804TIP3   OH235970   2.140   5.361   1.363 -0.0145 -0.1355 -0.1065
 4804TIP3    H135971   2.209   5.399   1.417  0.4682 -1.5096  0.2884
 4804TIP3    H235972   2.086   5.312   1.426 -2.2822  2.1017 -0.1387
 4805TIP3   OH235973   2.970   4.779   7.810 -0.0169 -0.3153  0.6580
 4805TIP3    H135974   3.034   4.849   7.791 -0.3046 -0.2720 -0.2082
 4805TIP3    H235975   3.024   4.701   7.823  0.2121 -0.4449 -0.8142
 4806TIP3   OH235976   2.489   0.917   0.497  0.2219 -0.9453 -0.1965
 4806TIP3    H135977   2.533   0.922   0.582  0.3406 -0.4965 -0.2827
 4806TIP3    H235978   2.514   0.832   0.462  0.7756 -0.8173 -0.1124
 4807TIP3   OH235979   6.535   4.963   0.359 -0.7584  0.2710 -0.6937
 4807TIP3    H135980   6.518   5.019   0.435 -0.6899  0.7990 -1.0619
 4807TIP3    H235981   6.478   4.998   0.291 -1.1208 -0.4603 -0.7693
 4808TIP3   OH235982   0.768   3.921   2.137  0.0622 -0.5806  0.2498
 4808TIP3    H135983   0.836   3.975   2.097  0.6670  0.3769  2.4236
 4808TIP3    H235984   0.687   3.971   2.127  0.5529  0.6152  1.8972
 4809TIP3   OH235985   0.075   2.578   2.729 -0.1709 -0.3050 -0.1875
 4809TIP3    H135986   0.024   2.524   2.668  0.2685 -0.2689 -0.5975
 4809TIP3    H235987   0.011   2.640   2.765 -0.3937 -0.1488 -0.8221
 4810TIP3   OH235988   2.532   4.932   7.103 -0.2676 -0.4542 -0.6994
 4810TIP3    H135989   2.483   4.886   7.172 -0.0677 -1.4183 -1.1768
 4810TIP3    H235990   2.624   4.908   7.120  0.2041  2.0730  0.7525
 4811TIP3   OH235991   1.083   6.207   0.920 -0.7485 -0.1784  0.1990
 4811TIP3    H135992   1.169   6.236   0.949 -0.4859  1.2872 -1.8180
 4811TIP3    H235993   1.097   6.120   0.884  0.3340  0.7555 -1.7965
 4812TIP3   OH235994   0.739   5.696   8.634  0.1374 -0.3772 -0.1551
 4812TIP3    H135995   0.651   5.672   8.603  0.7197  0.9542 -3.1727
 4812TIP3    H235996   0.779   5.742   8.560  2.7564  0.6682  1.7530
 4813TIP3   OH235997   3.126   2.332   0.607  0.2501 -0.6191 -0.0251
 4813TIP3    H135998   3.035   2.353   0.628 -0.1298 -1.8971 -0.2822
 4813TIP3    H235999   3.149   2.262   0.668  0.0877 -2.3075 -1.7908
 4814TIP3   OH236000   0.804   2.502   7.591 -0.0983 -0.2257  0.2108
 4814TIP3    H136001   0.860   2.568   7.549  1.4165 -1.4331  0.2821
 4814TIP3    H236002   0.715   2.539   7.583  0.7831  2.4002  1.3376
 4815TIP3   OH236003   6.501   4.227   7.283 -0.2711  0.3190 -0.0646
 4815TIP3    H136004   6.417   4.219   7.238  1.6868 -1.0347 -3.8567
 4815TIP3    H236005   6.492   4.307   7.335 -3.4472  0.9348 -1.3139
 4816TIP3   OH236006   0.697   5.503   1.103 -0.6256  0.2631  0.6061
 4816TIP3    H136007   0.698   5.579   1.161  1.8136  0.7909 -0.0040
 4816TIP3    H236008   0.676   5.539   1.016 -0.6759  0.0423  0.5251
 4817TIP3   OH236009   4.455   5.240   8.480  0.3080 -0.3568 -0.0862
 4817TIP3    H136010   4.400   5.280   8.413 -0.0428  0.1174  0.4746
 4817TIP3    H236011   4.394   5.215   8.549  0.6583 -0.9154  0.0253
 4818TIP3   OH236012   5.672   2.831   0.781  0.2169 -0.0943 -0.3908
 4818TIP3    H136013   5.758   2.872   0.775 -0.1847  0.8621  0.1184
 4818TIP3    H236014   5.640   2.855   0.868 -0.5661 -0.4297 -0.5761
 4819TIP3   OH236015   0.299   4.647   7.094  0.3846 -0.1093  0.3266
 4819TIP3    H136016   0.384   4.630   7.136  1.0126 -1.3815 -1.3305
 4819TIP3    H236017   0.322   4.671   7.004 -1.0310 -1.1608 -0.3424
 4820TIP3   OH236018   3.428   3.931   8.372 -0.2113 -0.1761  0.0964
 4820TIP3    H136019   3.384   3.870   8.431  1.6966 -0.5844  1.1989
 4820TIP3    H236020   3.505   3.882   8.341  0.4664  1.0974 -0.3004
 4821TIP3   OH236021   6.322   3.345   7.454 -0.9219 -1.0203  0.2385
 4821TIP3    H136022   6.256   3.277   7.466  0.5505 -2.4277  0.7136
 4821TIP3    H236023   6.385   3.308   7.392 -1.2163  0.8007 -1.2228
 4822TIP3   OH236024   2.543   5.086   2.127 -0.4435 -0.1883  0.0088
 4822TIP3    H136025   2.465   5.131   2.160 -0.3008  0.1797 -0.1508
 4822TIP3    H236026   2.615   5.145   2.145 -0.1277 -0.7368  0.5837
 4823TIP3   OH236027   4.225   6.633   6.657  0.3737 -0.0562 -0.0971
 4823TIP3    H136028   4.180   6.550   6.672  0.1690 -0.1997 -1.3613
 4823TIP3    H236029   4.218   6.647   6.562  0.5504  1.3222  0.0761
 4824TIP3   OH236030   5.621   5.961   8.597  0.0575  0.0490  0.4051
 4824TIP3    H136031   5.556   5.891   8.591  0.3052 -0.1198 -0.4742
 4824TIP3    H236032   5.646   5.963   8.689 -0.0642 -0.9197  0.4654
 4825TIP3   OH236033   5.010   6.448   6.851  0.1099 -0.2639 -0.0693
 4825TIP3    H136034   4.935   6.402   6.888  0.9649 -0.4603  1.5281
 4825TIP3    H236035   5.007   6.535   6.891  1.1498 -0.5338  0.6481
 4826TIP3   OH236036   0.202   2.657   0.457  0.0195 -0.4727  0.0979
 4826TIP3    H136037   0.131   2.595   0.466 -0.6311  0.4104  1.2112
 4826TIP3    H236038   0.281   2.603   0.450 -0.5772 -1.4186  0.5697
 4827TIP3   OH236039   6.224   2.719   8.276 -0.4602  0.0078  0.1880
 4827TIP3    H136040   6.299   2.667   8.306 -0.8887  0.0398  1.3665
 4827TIP3    H236041   6.188   2.757   8.355 -1.4368  0.3962 -0.4232
 4828TIP3   OH236042   5.649   3.326   1.337  0.7658 -0.4677  0.7441
 4828TIP3    H136043   5.629   3.375   1.416 -0.1041  2.2974 -1.0623
 4828TIP3    H236044   5.741   3.345   1.319  1.0137 -1.2397  1.1501
 4829TIP3   OH236045   2.271   1.962   1.281 -0.1951  0.2876  0.4071
 4829TIP3    H136046   2.213   1.887   1.290  0.6341 -0.4815 -0.3595
 4829TIP3    H236047   2.312   1.972   1.367  0.7622 -1.0862  0.1527
 4830TIP3   OH236048   3.383   0.164   2.268 -0.0180  0.2419 -0.4057
 4830TIP3    H136049   3.349   0.076   2.251 -0.3155 -0.0385  1.4214
 4830TIP3    H236050   3.477   0.156   2.252 -0.0392 -0.4159 -0.2449
 4831TIP3   OH236051   4.848   1.278   1.963  0.3002  0.5521 -0.0390
 4831TIP3    H136052   4.833   1.339   1.892  1.5231  0.6581 -0.2225
 4831TIP3    H236053   4.849   1.333   2.042 -0.0268  0.5666 -0.0413
 4832TIP3   OH236054   1.653   1.921   8.157  0.0688  0.1367  0.2103
 4832TIP3    H136055   1.650   1.914   8.253 -3.5418 -1.3807  0.1480
 4832TIP3    H236056   1.715   1.853   8.131 -1.1763 -1.5638  1.4482
 4833TIP3   OH236057   3.082   0.306   1.839  0.3653  0.4450 -0.2311
 4833TIP3    H136058   3.153   0.244   1.854  0.1026 -0.0497 -0.9960
 4833TIP3    H236059   3.060   0.339   1.927 -0.9344 -2.1414  0.5202
 4834TIP3   OH236060   3.714   4.084   1.902  0.5562 -0.4133  0.2567
 4834TIP3    H136061   3.679   4.035   1.977  0.2750 -0.0708  0.3545
 4834TIP3    H236062   3.661   4.164   1.900 -0.1560 -0.8861 -0.9429
 4835TIP3   OH236063   1.403   1.152   8.455 -0.2347  0.7426  0.3302
 4835TIP3    H136064   1.346   1.147   8.378 -1.7278  0.1322  1.4168
 4835TIP3    H236065   1.463   1.224   8.436  1.7132 -1.4560 -2.8244
 4836TIP3   OH236066   0.906   5.098   0.553 -0.0777  0.0883  0.2472
 4836TIP3    H136067   0.944   5.115   0.639  1.1748 -1.8665  0.1364
 4836TIP3    H236068   0.966   5.140   0.492  0.5146 -0.7639  0.2191
 4837TIP3   OH236069   0.516   0.170   2.065  0.5921 -0.2867 -0.1026
 4837TIP3    H136070   0.463   0.144   2.140  1.4954  0.8042  0.9377
 4837TIP3    H236071   0.481   0.255   2.038 -0.0759 -0.9076 -1.2839
 4838TIP3   OH236072   3.885   3.591   8.299  0.0499 -0.3739  0.7593
 4838TIP3    H136073   3.908   3.516   8.244 -1.0039  0.7468 -1.3025
 4838TIP3    H236074   3.948   3.659   8.275 -1.7408  0.8464 -0.7714
 4839TIP3   OH236075   0.137   1.184   1.998  0.0927  0.1447  0.2173
 4839TIP3    H136076   0.156   1.100   2.041 -0.4860  0.5490  1.2788
 4839TIP3    H236077   0.042   1.191   2.000  0.1250  0.6921 -0.1422
 4840TIP3   OH236078   6.727   3.059   0.162  0.0261 -0.2863 -0.0336
 4840TIP3    H136079   6.729   3.054   0.066  2.6086 -0.7629 -0.0363
 4840TIP3    H236080   6.692   2.975   0.190  1.0697 -0.9247 -0.5712
 4841TIP3   OH236081   5.862   1.471   0.806  0.1913  0.4552  0.2765
 4841TIP3    H136082   5.817   1.432   0.881 -1.0323  1.4636  0.1099
 4841TIP3    H236083   5.860   1.402   0.739  0.9707 -0.3241  1.0294
 4842TIP3   OH236084   6.122   0.998   2.327  0.2269 -0.1607 -0.1715
 4842TIP3    H136085   6.209   0.958   2.325  0.5273  0.5206 -1.0119
 4842TIP3    H236086   6.128   1.065   2.395  0.6318  0.4879 -0.8394
 4843TIP3   OH236087   2.913   1.839   8.101  0.1452  0.0834  0.1138
 4843TIP3    H136088   2.938   1.925   8.135  2.6886  0.2429 -1.8662
 4843TIP3    H236089   2.974   1.778   8.144  1.0753 -0.1509 -1.4771
 4844TIP3   OH236090   6.564   1.429   1.323  0.2550 -0.2533  0.5939
 4844TIP3    H136091   6.612   1.475   1.392  1.7649 -0.4279 -0.3028
 4844TIP3    H236092   6.596   1.339   1.327 -0.0918 -0.4079  0.0408
 4845TIP3   OH236093   6.482   0.811   1.072 -0.1865 -0.0374 -0.0399
 4845TIP3    H136094   6.576   0.794   1.077 -0.2273 -0.0153  2.1797
 4845TIP3    H236095   6.460   0.844   1.159 -2.1593  0.4787 -0.6933
 4846TIP3   OH236096   0.891   4.189   0.291  0.0074 -0.3216  0.2994
 4846TIP3    H136097   0.896   4.280   0.321  0.8226 -0.0803 -0.5194
 4846TIP3    H236098   0.837   4.194   0.211  1.6127 -0.2397 -0.8239
 4847TIP3   OH236099   2.238   3.184   0.205  0.0883 -0.2252 -0.3082
 4847TIP3    H136100   2.265   3.271   0.178  2.6939 -0.5840  0.8429
 4847TIP3    H236101   2.176   3.198   0.276  0.0972  0.6904 -0.4785
 4848TIP3   OH236102   1.132   3.674   7.183  0.6606 -0.1469 -0.5868
 4848TIP3    H136103   1.120   3.711   7.271  0.6729 -0.9978 -0.2158
 4848TIP3    H236104   1.052   3.696   7.136 -0.6112 -2.0999  0.5352
 4849TIP3   OH236105   1.327   2.707   1.865 -0.0459  0.2896 -0.7818
 4849TIP3    H136106   1.290   2.741   1.946 -1.0254 -1.7861 -0.2945
 4849TIP3    H236107   1.399   2.767   1.844  0.3006  0.8157  1.6648
 4850TIP3   OH236108   3.424   4.794   7.236  0.2890  0.1346  0.3313
 4850TIP3    H136109   3.449   4.836   7.319  0.0585 -0.8996  0.9433
 4850TIP3    H236110   3.478   4.715   7.233 -0.0319 -0.0631 -0.2968
 4851TIP3   OH236111   2.741   2.112   2.450  0.4194  0.4270 -0.0042
 4851TIP3    H136112   2.709   2.029   2.414  2.9767 -0.2008 -1.1157
 4851TIP3    H236113   2.670   2.144   2.505 -1.0327 -2.0188 -0.3086
 4852TIP3   OH236114   1.319   2.628   8.220  1.1736  0.4018 -0.5610
 4852TIP3    H136115   1.374   2.599   8.292  1.0949  1.3662 -0.0916
 4852TIP3    H236116   1.316   2.554   8.160  1.5874 -0.2595  0.2243
 4853TIP3   OH236117   2.892   3.747   8.354  0.2863 -0.2491 -0.6041
 4853TIP3    H136118   2.819   3.805   8.375  0.8888  1.1659 -2.2101
 4853TIP3    H236119   2.897   3.747   8.258  0.0389 -3.3635 -0.7312
 4854TIP3   OH236120   0.343   5.728   0.489 -0.4123  0.4316  0.1045
 4854TIP3    H136121   0.413   5.790   0.469  0.1404 -0.6702 -1.5398
 4854TIP3    H236122   0.386   5.658   0.538 -0.7910  0.6961  0.8430
 4855TIP3   OH236123   5.047   1.764   1.707  0.5171 -0.6006 -0.4294
 4855TIP3    H136124   5.137   1.734   1.721  1.1613  1.1788 -0.4553
 4855TIP3    H236125   5.012   1.706   1.639  2.5559  0.2759 -2.3551
 4856TIP3   OH236126   3.006   1.606   8.212 -0.0671 -0.1619  0.6744
 4856TIP3    H136127   3.014   1.650   8.297  3.0249 -0.3280  0.5806
 4856TIP3    H236128   3.013   1.513   8.232 -1.7732 -0.3881  0.4031
 4857TIP3   OH236129   2.417   4.910   6.302  0.2869  0.0735  0.2193
 4857TIP3    H136130   2.362   4.976   6.345 -0.1616 -1.6860  2.5232
 4857TIP3    H236131   2.498   4.957   6.281  0.3037  1.2187  2.5358
 4858TIP3   OH236132   5.786   5.968   2.257 -0.4463  0.2402  0.2305
 4858TIP3    H136133   5.708   5.918   2.232 -0.0216 -0.3532  0.0783
 4858TIP3    H236134   5.770   5.991   2.349 -1.0271  0.5713  0.0590
 4859TIP3   OH236135   2.538   4.979   1.012  0.5064  0.3961  0.4401
 4859TIP3    H136136   2.545   4.945   0.923  0.6930 -0.8457  0.9082
 4859TIP3    H236137   2.551   4.903   1.068 -1.4136  0.7915  1.5343
 4860TIP3   OH236138   1.357   2.868   0.378 -0.2517 -0.2945  0.0504
 4860TIP3    H136139   1.354   2.933   0.308 -0.6112 -0.0540  0.2840
 4860TIP3    H236140   1.396   2.791   0.338  4.0445  1.2723  0.7430
 4861TIP3   OH236141   1.479   2.385   0.003  0.2135 -0.5138 -0.1784
 4861TIP3    H136142   1.447   2.345   0.084  0.9472 -1.9259 -0.5496
 4861TIP3    H236143   1.455   2.322  -0.066  1.2883 -0.2590 -0.8078
 4862TIP3   OH236144   4.201   5.905   7.704  0.4609 -0.6954  0.5452
 4862TIP3    H136145   4.286   5.947   7.715 -0.2519  0.9007  0.3418
 4862TIP3    H236146   4.148   5.941   7.775  0.3058 -2.7262  1.5114
 4863TIP3   OH236147   5.243   0.682   1.294  0.1911 -0.0815 -0.0127
 4863TIP3    H136148   5.311   0.738   1.333  0.5049 -0.3698 -0.1418
 4863TIP3    H236149   5.184   0.744   1.251 -0.7730  0.3434  1.8262
 4864TIP3   OH236150   5.240   2.467   6.582  0.6138  0.0406 -0.1498
 4864TIP3    H136151   5.286   2.465   6.498 -0.0535  0.4193 -0.5312
 4864TIP3    H236152   5.266   2.550   6.622  1.2459 -0.3175  0.2121
 4865TIP3   OH236153   5.821   4.857   0.855 -0.0262 -0.2491  0.0146
 4865TIP3    H136154   5.761   4.787   0.831 -0.0019 -0.2252 -0.1207
 4865TIP3    H236155   5.886   4.858   0.784 -0.2881  0.2105 -0.2259
 4866TIP3   OH236156   1.946   1.877   0.155  0.4364 -0.0515  0.0942
 4866TIP3    H136157   1.962   1.914   0.242  1.3045  0.5984 -0.3267
 4866TIP3    H236158   1.851   1.875   0.147  0.2745  3.2114 -0.2809
 4867TIP3   OH236159   4.965   4.641   7.745 -0.8720 -0.2810 -0.2568
 4867TIP3    H136160   4.911   4.571   7.782 -1.3413 -1.3381 -2.7375
 4867TIP3    H236161   4.903   4.699   7.700 -0.4345  1.5280  1.3407
 4868TIP3   OH236162   0.420   5.116   0.486 -0.1626  0.3682 -0.2209
 4868TIP3    H136163   0.430   5.108   0.391 -0.4305  3.4481 -0.6080
 4868TIP3    H236164   0.480   5.186   0.511  0.0194 -0.4908  1.9350
 4869TIP3   OH236165   4.689   3.319   1.770  0.0488 -0.5360  0.7520
 4869TIP3    H136166   4.777   3.350   1.751  0.0872  0.3918  2.2264
 4869TIP3    H236167   4.673   3.348   1.860 -1.7884 -0.5976  0.4840
 4870TIP3   OH236168   2.558   4.567   0.631 -0.1261  0.0630  0.6923
 4870TIP3    H136169   2.473   4.538   0.599  0.8004 -1.2453 -0.6944
 4870TIP3    H236170   2.553   4.557   0.726 -1.4131 -0.2230  0.6112
 4871TIP3   OH236171   4.702   4.427   6.851 -0.0893 -0.0226 -0.2394
 4871TIP3    H136172   4.656   4.404   6.770 -0.3054 -0.3032 -0.0433
 4871TIP3    H236173   4.660   4.372   6.918  0.5074 -0.2570 -0.0474
 4872TIP3   OH236174   0.867   5.849   6.742 -0.0367 -0.3687  0.2304
 4872TIP3    H136175   0.794   5.886   6.791  0.0773  1.1236 -0.6770
 4872TIP3    H236176   0.934   5.916   6.744  0.7002 -1.0698 -0.3260
 4873TIP3   OH236177   3.092   3.415   8.305  0.6377  0.2097  0.4451
 4873TIP3    H136178   3.098   3.398   8.211 -2.1068  1.3910 -0.0469
 4873TIP3    H236179   3.108   3.510   8.313  2.6446 -0.1547  1.4633
 4874TIP3   OH236180   6.410   6.003   1.951  0.6339  0.2345 -0.2075
 4874TIP3    H136181   6.356   5.924   1.960  0.4813  0.2932 -0.5784
 4874TIP3    H236182   6.441   6.021   2.040 -0.2077  0.3744  0.0752
 4875TIP3   OH236183   5.851   3.383   8.351  0.2367 -0.3311  0.4780
 4875TIP3    H136184   5.895   3.460   8.315  0.1074 -1.3482 -2.0071
 4875TIP3    H236185   5.758   3.404   8.349  0.2301 -0.3865  0.2064
 4876TIP3   OH236186   4.552   4.494   1.417  0.0249 -0.8698  0.6068
 4876TIP3    H136187   4.508   4.579   1.405  2.3945  0.3401 -0.2717
 4876TIP3    H236188   4.539   4.473   1.509  1.2294  1.6524  1.4711
 4877TIP3   OH236189   5.181   0.395   8.264 -0.2201  0.4922 -0.0960
 4877TIP3    H136190   5.128   0.360   8.193 -0.6910 -0.5650  0.7535
 4877TIP3    H236191   5.264   0.348   8.258 -0.0352  0.8369 -0.3025
 4878TIP3   OH236192   2.380   0.853   1.478  0.3702 -0.0028  0.2340
 4878TIP3    H136193   2.351   0.804   1.555 -0.0947  1.6952  1.2026
 4878TIP3    H236194   2.470   0.880   1.500  1.8754 -2.9793 -1.6263
 4879TIP3   OH236195   0.210   3.885   6.815  0.1131  0.0446 -0.8960
 4879TIP3    H136196   0.122   3.888   6.853  0.9648  0.1663  1.1751
 4879TIP3    H236197   0.262   3.944   6.869  1.5798 -0.3292 -1.8370
 4880TIP3   OH236198   4.944   6.164   8.549  0.0810 -0.0913 -0.1941
 4880TIP3    H136199   5.039   6.153   8.546  0.2275  1.0389 -0.2332
 4880TIP3    H236200   4.909   6.091   8.498  0.7812 -2.0719  1.9849
 4881TIP3   OH236201   1.550   0.030   6.951  0.2109 -0.1212  0.1486
 4881TIP3    H136202   1.636   0.056   6.918  0.6772  0.1036  1.4896
 4881TIP3    H236203   1.503  -0.001   6.874  1.5417 -0.3930 -0.5763
 4882TIP3   OH236204   3.608   3.780   7.736 -0.3287  0.0967 -0.0628
 4882TIP3    H136205   3.654   3.823   7.808 -0.2500 -1.3612  0.8115
 4882TIP3    H236206   3.545   3.844   7.706 -1.0552  0.4239  1.9939
 4883TIP3   OH236207   3.090   6.636   7.749 -0.3523  0.3315  0.3595
 4883TIP3    H136208   3.067   6.723   7.781 -0.2313  0.8617 -0.9376
 4883TIP3    H236209   3.168   6.649   7.696 -0.1513 -0.6183  0.4044
 4884TIP3   OH236210   5.083   5.546   0.250 -0.1900  0.0311  0.2007
 4884TIP3    H136211   5.072   5.543   0.155 -0.9645  0.7277  0.2643
 4884TIP3    H236212   5.170   5.584   0.263  0.5702 -1.4779 -0.2364
 4885TIP3   OH236213   5.414   3.909   7.358 -0.0345 -0.6343  0.2168
 4885TIP3    H136214   5.349   3.875   7.297 -0.6360  0.3291  0.2998
 4885TIP3    H236215   5.362   3.945   7.431  0.5267  0.9527 -0.1311
 4886TIP3   OH236216   6.762   1.379   1.033 -0.0816  0.1160  0.6424
 4886TIP3    H136217   6.772   1.301   1.087 -0.4343  0.5187  1.2916
 4886TIP3    H236218   6.668   1.387   1.019 -0.0402  0.3830  0.5053
 4887TIP3   OH236219   0.081   0.693   6.725  0.4468  0.0520  0.5398
 4887TIP3    H136220   0.039   0.729   6.647  0.5876 -0.9755 -0.0269
 4887TIP3    H236221   0.172   0.722   6.720  0.3378  0.4017  0.5864
 4888TIP3   OH236222   0.479   6.622   7.662  0.3755 -0.2938  0.2028
 4888TIP3    H136223   0.494   6.704   7.710  0.0450 -0.1112 -0.0067
 4888TIP3    H236224   0.489   6.554   7.729  0.5413 -0.0786  0.4000
 4889TIP3   OH236225   5.158   2.826   8.041  0.0106  0.2831 -0.3357
 4889TIP3    H136226   5.123   2.884   8.109 -1.3556 -0.1461 -0.6273
 4889TIP3    H236227   5.137   2.738   8.072  1.2660 -0.0291 -0.3263
 4890TIP3   OH236228   4.976   2.521   7.796 -0.3212  0.1071  0.4345
 4890TIP3    H136229   5.019   2.592   7.749 -0.9925  0.8077  0.8719
 4890TIP3    H236230   5.039   2.448   7.791  1.0391  1.1742  1.2873
 4891TIP3   OH236231   6.261   5.901   0.937 -0.1478  0.5234  0.1499
 4891TIP3    H136232   6.318   5.915   0.861 -2.3794  3.7878 -1.1395
 4891TIP3    H236233   6.262   5.984   0.984 -2.6972  0.2422  0.8509
 4892TIP3   OH236234   4.064   4.429   0.166 -0.0310  0.1641  0.8956
 4892TIP3    H136235   4.147   4.409   0.208  0.6287 -0.3534 -0.6047
 4892TIP3    H236236   4.083   4.503   0.109 -1.1278  1.4461  2.1291
 4893TIP3   OH236237   4.776   0.008   0.638 -0.0107  0.0386  0.4187
 4893TIP3    H136238   4.784   0.103   0.645 -0.0859  0.0689  0.0947
 4893TIP3    H236239   4.866  -0.024   0.651  0.0292  0.1596  0.4430
 4894TIP3   OH236240   3.582   1.205   8.246  0.2235  0.5535  0.1019
 4894TIP3    H136241   3.503   1.169   8.207  1.9167 -1.0368 -2.1012
 4894TIP3    H236242   3.600   1.285   8.196  1.1762 -0.2775 -0.9161
 4895TIP3   OH236243   3.244   1.870   2.106 -0.0761 -0.5329 -0.0322
 4895TIP3    H136244   3.174   1.805   2.118 -1.9409  1.6491  1.8876
 4895TIP3    H236245   3.322   1.827   2.141 -0.6737 -2.6074 -1.0952
 4896TIP3   OH236246   5.248   5.547   1.716 -0.0955 -0.0128 -0.8211
 4896TIP3    H136247   5.275   5.571   1.804  1.1836 -0.8439 -0.9627
 4896TIP3    H236248   5.159   5.583   1.707  1.0032  3.0617 -0.4162
 4897TIP3   OH236249   1.281   3.659   8.095  0.4292  0.0992 -0.1293
 4897TIP3    H136250   1.360   3.612   8.120  0.6891  1.6357  2.3289
 4897TIP3    H236251   1.213   3.592   8.091  1.5399 -1.0266 -0.7607
 4898TIP3   OH236252   0.819   0.430   0.203  0.6566  0.3376  0.2418
 4898TIP3    H136253   0.779   0.516   0.185 -0.1923 -0.3483 -1.3595
 4898TIP3    H236254   0.913   0.448   0.205  0.4440  1.4982  1.1487
 4899TIP3   OH236255   1.333   5.107   0.066  0.0542  0.7269  0.4450
 4899TIP3    H136256   1.346   5.126  -0.027 -0.1455  0.0104  0.2611
 4899TIP3    H236257   1.250   5.059   0.069  2.0113 -3.0403  0.4284
 4900TIP3   OH236258   2.967   6.506   0.337 -0.0040  0.2401  0.3230
 4900TIP3    H136259   2.946   6.500   0.430  1.1907 -0.7552  0.5526
 4900TIP3    H236260   2.946   6.420   0.302 -1.9052  1.0457 -0.6903
 4901TIP3   OH236261   4.042   5.542   1.810 -0.3309 -0.0196 -0.1844
 4901TIP3    H136262   3.968   5.535   1.871 -0.6561 -1.3634 -0.6975
 4901TIP3    H236263   4.057   5.636   1.802 -0.3794  0.1978  1.8235
 4902TIP3   OH236264   5.127   3.537   1.400  0.4312 -0.2359 -0.7576
 4902TIP3    H136265   5.216   3.562   1.424  0.0122 -0.4417  1.0975
 4902TIP3    H236266   5.112   3.454   1.445 -0.8314 -0.0126 -0.7286
 4903TIP3   OH236267   5.493   6.438   2.467  0.0594 -0.3730  0.3443
 4903TIP3    H136268   5.528   6.525   2.450 -0.1508 -0.5308 -1.0112
 4903TIP3    H236269   5.404   6.453   2.498 -0.1254 -0.0967 -0.2951
 4904TIP3   OH236270   1.966   3.767   2.492 -0.4503 -0.2132  0.0059
 4904TIP3    H136271   1.973   3.735   2.582  0.1974  1.1146  0.4497
 4904TIP3    H236272   2.043   3.732   2.448 -0.0829  0.1885  0.3186
 4905TIP3   OH236273   6.156   0.643   6.538  0.2767  0.3337  0.0700
 4905TIP3    H136274   6.077   0.666   6.587  0.2360  2.2275 -0.7710
 4905TIP3    H236275   6.124   0.596   6.461 -0.0082  0.7491 -0.0670
 4906TIP3   OH236276   6.143   1.490   0.538 -0.3768  0.6880 -0.0932
 4906TIP3    H136277   6.134   1.446   0.623 -3.0820 -1.6926 -1.4251
 4906TIP3    H236278   6.225   1.456   0.502  1.2754  2.4182  1.8343
 4907TIP3   OH236279   2.613   1.463   6.751 -0.1500 -0.0441 -0.2677
 4907TIP3    H136280   2.687   1.512   6.787 -0.4516  0.9021 -0.9159
 4907TIP3    H236281   2.599   1.392   6.813  2.1812 -1.0658 -0.7999
 4908TIP3   OH236282   3.095   2.954   0.124 -0.3325 -0.4909  0.2559
 4908TIP3    H136283   3.023   3.001   0.083  1.0596  0.4542 -1.2033
 4908TIP3    H236284   3.081   2.863   0.100 -1.0222 -0.3218 -0.0112
 4909TIP3   OH236285   3.767   0.907   2.468  0.5068  0.4648 -0.3774
 4909TIP3    H136286   3.840   0.849   2.444 -0.9836 -1.7898  0.2323
 4909TIP3    H236287   3.697   0.882   2.408 -0.3718  1.2111  0.3153
 4910TIP3   OH236288   1.260   0.273   0.094  0.2616 -0.0993 -0.2321
 4910TIP3    H136289   1.336   0.284   0.037  0.5242 -3.3976 -0.7389
 4910TIP3    H236290   1.185   0.271   0.035  0.1446 -0.1145 -0.0844
 4911TIP3   OH236291   0.779   0.139   8.444  0.5370  0.5687  0.0286
 4911TIP3    H136292   0.832   0.095   8.378  0.8962  0.3281  0.4728
 4911TIP3    H236293   0.774   0.076   8.517  1.4441  1.4280  0.8644
 4912TIP3   OH236294   4.308   2.881   1.679  0.0173  0.0733 -0.6108
 4912TIP3    H136295   4.237   2.907   1.736  0.4721 -0.4123  0.2009
 4912TIP3    H236296   4.387   2.918   1.719  0.2557  0.4367 -1.3824
 4913TIP3   OH236297   5.669   0.823   1.134  0.2398  0.1679  0.1494
 4913TIP3    H136298   5.685   0.780   1.218 -0.0498  1.2940  0.7968
 4913TIP3    H236299   5.615   0.899   1.155  0.3742  0.6194 -1.0223
 4914TIP3   OH236300   2.279   1.213   6.184 -0.1105  0.1455  0.4978
 4914TIP3    H136301   2.262   1.119   6.190 -0.6313  0.2012  0.0220
 4914TIP3    H236302   2.366   1.224   6.221 -0.0745 -0.5158  0.6279
 4915TIP3   OH236303   0.402   6.084   8.251 -0.3067  0.3035  0.0877
 4915TIP3    H136304   0.353   6.048   8.176  1.1584  0.9770 -1.2431
 4915TIP3    H236305   0.358   6.167   8.270 -1.4214 -0.4199  0.7807
 4916TIP3   OH236306   5.236   4.456   0.359 -0.0853 -0.4547 -0.4602
 4916TIP3    H136307   5.189   4.529   0.318  1.9019  0.2316 -1.6413
 4916TIP3    H236308   5.203   4.379   0.313 -0.1069  0.0107 -1.2548
 4917TIP3   OH236309   0.117   2.070   1.845 -0.0069  0.1242 -0.1571
 4917TIP3    H136310   0.179   2.015   1.796 -1.1806 -0.1712 -1.3700
 4917TIP3    H236311   0.057   2.007   1.885  0.6338  0.3959  1.2577
 4918TIP3   OH236312   6.026   6.187   0.359 -0.2675  0.1068  0.0549
 4918TIP3    H136313   5.932   6.199   0.356 -0.0637  2.1078 -3.3943
 4918TIP3    H236314   6.037   6.094   0.381 -2.9714 -0.1198  0.8253
 4919TIP3   OH236315   0.921   6.523   8.651  0.0644  0.1293 -0.2078
 4919TIP3    H136316   0.956   6.447   8.697 -0.3212 -0.0296 -0.1758
 4919TIP3    H236317   0.910   6.589   8.719  0.0631  0.0947 -0.1741
 4920TIP3   OH236318   6.132   0.377   2.100 -0.0096  0.3694 -0.0233
 4920TIP3    H136319   6.215   0.421   2.085 -0.3289  1.3516  0.9006
 4920TIP3    H236320   6.111   0.396   2.191 -0.6800 -0.8577  0.1031
 4921TIP3   OH236321   4.207   4.024   0.637 -0.4673 -0.3826 -0.3576
 4921TIP3    H136322   4.170   3.981   0.559 -0.3301  0.5849 -0.9719
 4921TIP3    H236323   4.228   3.951   0.696 -1.8950 -1.0524 -0.6166
 4922TIP3   OH236324   0.700   2.080   7.005  0.1464 -0.0189  0.1169
 4922TIP3    H136325   0.767   2.013   6.990  0.7149  0.5449  0.1002
 4922TIP3    H236326   0.707   2.101   7.098  0.4984  0.5604 -0.0322
 4923TIP3   OH236327   6.732   4.084   7.307  0.3915  0.1016  0.2143
 4923TIP3    H136328   6.745   4.037   7.390 -0.4289 -0.8797 -0.1929
 4923TIP3    H236329   6.644   4.121   7.315 -0.1071 -0.8522 -0.6048
 4924TIP3   OH236330   5.802   6.094   7.097  0.1724 -0.1052 -0.1138
 4924TIP3    H136331   5.773   6.002   7.098 -0.4417  0.0006 -2.3129
 4924TIP3    H236332   5.746   6.135   7.031  2.0068  1.3042 -0.8649
 4925TIP3   OH236333   5.701   6.785   7.045 -0.2834  0.0046 -0.3807
 4925TIP3    H136334   5.748   6.821   6.970  0.3043  3.1518  1.3432
 4925TIP3    H236335   5.769   6.767   7.110 -0.8340 -2.1873 -0.3120
 4926TIP3   OH236336   4.083   3.328   7.602  0.3888  0.3244 -0.0365
 4926TIP3    H136337   4.177   3.314   7.593  0.6044  0.0200  2.0638
 4926TIP3    H236338   4.074   3.422   7.616  0.4905  0.2396  0.6366
 4927TIP3   OH236339   2.762   5.387   0.492 -0.1592  0.3786 -0.3957
 4927TIP3    H136340   2.758   5.363   0.585 -1.4038  0.8839 -0.3012
 4927TIP3    H236341   2.829   5.329   0.455  0.7120  0.5133  0.9051
 4928TIP3   OH236342   6.227   0.565   1.336 -0.0746 -0.3417  0.1105
 4928TIP3    H136343   6.222   0.531   1.425 -0.0731 -1.1820 -0.2044
 4928TIP3    H236344   6.143   0.609   1.323 -0.4045 -0.9237  0.2436
 4929TIP3   OH236345   2.065   6.819   7.784 -0.4101 -0.1555  0.3119
 4929TIP3    H136346   1.975   6.804   7.755 -0.9579  1.1119  1.2806
 4929TIP3    H236347   2.095   6.734   7.813 -0.2232 -1.2821 -2.7863
 4930TIP3   OH236348   3.705   1.223   6.604  0.0627  0.7030  0.3425
 4930TIP3    H136349   3.642   1.259   6.541 -0.6822  1.3457  1.4206
 4930TIP3    H236350   3.782   1.201   6.551 -0.2833  1.8436 -0.6898
 4931TIP3   OH236351   3.784   1.075   1.206 -0.1410 -0.6270  0.8421
 4931TIP3    H136352   3.709   1.043   1.256 -0.1013  0.0337  1.3308
 4931TIP3    H236353   3.746   1.102   1.122 -0.4196 -0.5187  0.9994
 4932TIP3   OH236354   1.726   3.197   6.477  0.2234  0.1373 -0.0478
 4932TIP3    H136355   1.736   3.110   6.437 -1.0730 -0.5212  0.9610
 4932TIP3    H236356   1.813   3.216   6.514  0.4767 -0.8397 -0.1040
 4933TIP3   OH236357   4.135   1.698   7.404  0.1533 -0.8240  0.1864
 4933TIP3    H136358   4.186   1.776   7.422  0.5635 -1.3902  1.6221
 4933TIP3    H236359   4.162   1.671   7.317  0.8067  0.0158  0.1224
 4934TIP3   OH236360   5.184   6.365   6.330 -0.6018  0.3649  0.0990
 4934TIP3    H136361   5.248   6.340   6.263 -0.0306 -1.2765  1.2045
 4934TIP3    H236362   5.226   6.344   6.413 -1.6466  1.5514  0.9693
 4935TIP3   OH236363   0.550   4.898   7.306 -0.3538  0.0353  0.0198
 4935TIP3    H136364   0.577   4.840   7.234 -0.1442  1.4685 -1.0932
 4935TIP3    H236365   0.456   4.883   7.314 -0.1369 -1.2192  0.4726
 4936TIP3   OH236366   0.453   0.755   7.972  0.2996  0.5072 -0.1880
 4936TIP3    H136367   0.424   0.708   7.894  0.2107 -1.9963  1.2249
 4936TIP3    H236368   0.534   0.711   7.997  0.8334  1.8892  0.6153
 4937TIP3   OH236369   6.674   3.613   0.315  0.5377 -0.4836 -0.1688
 4937TIP3    H136370   6.670   3.601   0.410  0.2103 -0.8177 -0.2251
 4937TIP3    H236371   6.647   3.529   0.278 -0.5362  0.0172 -0.5626
 4938TIP3   OH236372   2.732   5.415   1.964  0.1146 -0.2011  0.2692
 4938TIP3    H136373   2.711   5.365   1.885 -0.8268  0.1357  0.2978
 4938TIP3    H236374   2.694   5.364   2.035  0.1658 -0.0362  0.4138
 4939TIP3   OH236375   4.312   3.755   0.067  0.3008 -0.6782 -0.8672
 4939TIP3    H136376   4.265   3.815   0.008 -0.2757 -0.7439 -0.4735
 4939TIP3    H236377   4.402   3.757   0.034  0.5424  1.2428 -0.2195
 4940TIP3   OH236378   5.409   1.032   1.104  0.0595  0.0665  0.5464
 4940TIP3    H136379   5.351   1.060   1.174 -1.2484 -0.9833 -0.0466
 4940TIP3    H236380   5.383   1.085   1.029 -0.3769 -0.6049  0.2040
 4941TIP3   OH236381   2.297   1.871   7.393  0.0522  0.4265  0.3138
 4941TIP3    H136382   2.338   1.919   7.322 -0.3589 -0.1192 -0.3072
 4941TIP3    H236383   2.268   1.938   7.454 -1.0340  1.0259 -0.8115
 4942TIP3   OH236384   6.699   1.429   7.708 -0.0343 -0.5345 -0.2102
 4942TIP3    H136385   6.757   1.358   7.683 -0.4337 -1.3237  1.0231
 4942TIP3    H236386   6.612   1.390   7.711 -0.1916 -0.1496  0.9927
 4943TIP3   OH236387   4.428   1.577   1.136 -0.1271  0.8153  0.0847
 4943TIP3    H136388   4.441   1.552   1.228  1.0150 -0.0239 -0.2857
 4943TIP3    H236389   4.334   1.585   1.127 -0.3856 -0.9494  0.8642
 4944TIP3   OH236390   1.670   0.982   1.851 -0.0606 -0.3144 -0.4489
 4944TIP3    H136391   1.610   1.055   1.869  2.1380  1.3141  0.9255
 4944TIP3    H236392   1.719   1.010   1.773  3.1568  1.5162  1.9718
 4945TIP3   OH236393   2.057   4.646   1.592 -0.4503 -0.0174 -0.2204
 4945TIP3    H136394   1.973   4.643   1.638  0.3807  0.6624  1.4653
 4945TIP3    H236395   2.035   4.675   1.504 -2.0761 -0.7452 -0.0910
 4946TIP3   OH236396   1.947   4.994   0.855 -1.1650  0.6438  0.2744
 4946TIP3    H136397   2.008   5.040   0.797 -0.2841  0.5058  1.0730
 4946TIP3    H236398   1.861   5.021   0.825 -0.7705 -0.0592 -1.6462
 4947TIP3   OH236399   2.062   4.037   2.442  0.0386 -0.2460 -0.0415
 4947TIP3    H136400   2.006   3.960   2.444 -0.6925  0.2622 -0.6043
 4947TIP3    H236401   2.038   4.083   2.361 -0.1008  0.9939  0.6710
 4948TIP3   OH236402   0.752   4.978   1.067 -0.4923  0.3113 -0.4269
 4948TIP3    H136403   0.687   4.908   1.071  0.0285 -0.1867 -0.5610
 4948TIP3    H236404   0.835   4.932   1.054 -0.3042  1.0177 -1.8589
 4949TIP3   OH236405   1.666   2.496   7.970  0.0301 -0.5163  0.4184
 4949TIP3    H136406   1.645   2.488   8.063 -0.5155  2.0053  0.6054
 4949TIP3    H236407   1.585   2.527   7.929 -0.4451 -3.7205 -1.4038
 4950TIP3   OH236408   6.389   3.118   8.227 -0.4041  0.3640 -0.1922
 4950TIP3    H136409   6.387   3.194   8.285 -1.5299  0.3405 -0.1781
 4950TIP3    H236410   6.470   3.072   8.251  0.8011  2.0238 -0.8596
 4951TIP3   OH236411   1.937   6.473   8.026  0.7181  0.0410  0.1595
 4951TIP3    H136412   1.999   6.457   8.097  1.1715  0.4585 -0.1408
 4951TIP3    H236413   1.864   6.414   8.045  0.8597  0.1035  0.9415
 4952TIP3   OH236414   2.671   0.158   1.239  0.2764  0.2795 -0.5129
 4952TIP3    H136415   2.723   0.211   1.300  2.9105 -1.9022 -0.6686
 4952TIP3    H236416   2.690   0.195   1.153 -1.5086  1.8052 -0.3317
 4953TIP3   OH236417   5.064   4.206   0.719  0.4616  0.4107  0.0440
 4953TIP3    H136418   5.113   4.172   0.644  1.5579 -1.5274  1.5390
 4953TIP3    H236419   5.085   4.299   0.721  1.1251  0.3288 -1.5082
 4954TIP3   OH236420   2.799   3.938   7.316  0.2799  0.1246  0.1368
 4954TIP3    H136421   2.888   3.954   7.284 -0.2846  0.1147 -1.5662
 4954TIP3    H236422   2.743   3.962   7.242 -1.1560  0.4304  1.2806
 4955TIP3   OH236423   1.871   2.721   1.915 -0.1803  0.1171  0.1858
 4955TIP3    H136424   1.868   2.814   1.892  2.4959  0.1753 -0.2175
 4955TIP3    H236425   1.876   2.720   2.011 -0.2889  0.3794  0.1945
 4956TIP3   OH236426   1.269   1.512   2.316 -0.5772  0.3104  0.1951
 4956TIP3    H136427   1.285   1.595   2.272 -0.1921 -0.6255 -1.5366
 4956TIP3    H236428   1.189   1.526   2.366  0.8693  2.4816  2.0636
 4957TIP3   OH236429   6.357   2.588   7.575 -0.0103  0.0213 -0.3289
 4957TIP3    H136430   6.297   2.549   7.639 -0.8584  0.6195 -0.7311
 4957TIP3    H236431   6.444   2.573   7.610 -0.4379 -0.2450  0.6317
 4958TIP3   OH236432   3.910   3.575   0.109  0.3634 -0.3254 -0.1857
 4958TIP3    H136433   3.885   3.482   0.111 -1.0366  0.0245 -0.4144
 4958TIP3    H236434   3.921   3.595   0.017  0.4685 -0.2124 -0.1491
 4959TIP3   OH236435   4.899   2.388   0.135  0.4999  0.2682  0.2559
 4959TIP3    H136436   4.891   2.372   0.041 -0.3327 -0.9350  0.5019
 4959TIP3    H236437   4.968   2.454   0.143  0.4945  0.4798 -1.1978
 4960TIP3   OH236438   2.148   3.291   7.520  0.5986  0.2042 -0.2634
 4960TIP3    H136439   2.107   3.208   7.495  0.7592  0.4180 -1.2808
 4960TIP3    H236440   2.241   3.277   7.508  0.8287 -0.1114  1.5561
 4961TIP3   OH236441   3.191   6.209   7.065  0.0828  0.0456 -0.0652
 4961TIP3    H136442   3.215   6.290   7.019 -3.0071  0.1631 -1.7425
 4961TIP3    H236443   3.223   6.139   7.008 -1.4599  0.1873 -1.1741
 4962TIP3   OH236444   2.880   4.657   8.356 -0.1199 -0.1650  0.5727
 4962TIP3    H136445   2.968   4.662   8.320  0.1409  0.2204  1.2505
 4962TIP3    H236446   2.824   4.638   8.280  0.5586 -0.5753  0.1648
 4963TIP3   OH236447   0.484   0.508   1.165 -0.4411  0.5047 -0.1435
 4963TIP3    H136448   0.435   0.581   1.128  0.0670  1.1231  0.3594
 4963TIP3    H236449   0.518   0.461   1.089 -1.4576  0.3079 -0.4833
 4964TIP3   OH236450   1.415   0.935   7.179  0.2131  0.2360  0.1237
 4964TIP3    H136451   1.330   0.905   7.210  0.9679 -1.1875  0.8917
 4964TIP3    H236452   1.452   0.859   7.134  1.5153  0.5059  0.7183
 4965TIP3   OH236453   3.724   5.778   7.310  0.0756 -0.2368 -0.3354
 4965TIP3    H136454   3.732   5.718   7.384 -2.3523  0.7267  0.8232
 4965TIP3    H236455   3.708   5.863   7.350  1.1757  0.7839 -1.9685
 4966TIP3   OH236456   4.325   4.500   7.276 -0.1510 -0.6394 -0.5295
 4966TIP3    H136457   4.319   4.430   7.341 -1.8303  0.4574  0.5879
 4966TIP3    H236458   4.321   4.455   7.192  2.0281 -2.0837  0.0686
 4967TIP3   OH236459   3.489   3.395   0.043 -0.5514 -0.4775 -0.3182
 4967TIP3    H136460   3.529   3.318   0.082 -1.5418 -0.7751  0.1631
 4967TIP3    H236461   3.560   3.440  -0.003  0.8673  0.2857  2.3937
 4968TIP3   OH236462   2.883   1.993   0.506 -0.2028  0.0659 -0.0920
 4968TIP3    H136463   2.929   1.983   0.422 -0.1297 -0.0673 -0.0357
 4968TIP3    H236464   2.793   1.967   0.487  0.4662 -3.1054  0.6058
 4969TIP3   OH236465   5.438   0.640   7.519 -0.6234 -0.3395  0.1765
 4969TIP3    H136466   5.367   0.702   7.504  0.3384  1.2264  1.7058
 4969TIP3    H236467   5.396   0.554   7.514 -3.9385  0.4152  5.8708
 4970TIP3   OH236468   0.606   1.949   7.974  0.5612 -0.1470 -0.1057
 4970TIP3    H136469   0.582   1.989   7.890  0.1412  0.2812  0.2086
 4970TIP3    H236470   0.547   1.990   8.037  1.2620 -0.0320  0.4905
 4971TIP3   OH236471   6.773   6.048   1.931  0.8209 -0.3944 -0.4832
 4971TIP3    H136472   6.803   5.984   1.995  0.5859  1.9641  2.1813
 4971TIP3    H236473   6.734   6.118   1.984 -0.7070  1.0668 -3.3124
 4972TIP3   OH236474   5.471   5.415   8.180  0.0890  0.1242 -0.1554
 4972TIP3    H136475   5.510   5.468   8.110  0.2836  0.9650  0.5882
 4972TIP3    H236476   5.543   5.400   8.241  1.0686 -3.8439 -1.8789
 4973TIP3   OH236477   5.257   4.771   1.510 -0.1699  0.3523  0.0373
 4973TIP3    H136478   5.197   4.836   1.547  0.2669  0.5098  0.4924
 4973TIP3    H236479   5.337   4.821   1.493 -0.0772  0.0859 -0.2997
 4974TIP3   OH236480   1.487   4.836   0.082 -0.1873  0.0621  0.6393
 4974TIP3    H136481   1.449   4.922   0.064  1.2302  1.1388  2.4121
 4974TIP3    H236482   1.568   4.836   0.031  0.4647  0.3437  1.6549
 4975TIP3   OH236483   2.331   6.567   8.366  0.2135  0.1115 -0.3541
 4975TIP3    H136484   2.407   6.513   8.344  0.7093  0.1909  1.0685
 4975TIP3    H236485   2.368   6.654   8.382 -0.4270  0.6029 -1.3897
 4976TIP3   OH236486   2.558   2.637   7.500 -0.0521 -0.4063 -0.1136
 4976TIP3    H136487   2.646   2.672   7.484  0.6474 -1.5425  0.9942
 4976TIP3    H236488   2.499   2.703   7.466  1.2213  1.1430  0.5653
 4977TIP3   OH236489   5.495   1.743   0.396 -1.1094  0.1120  0.0401
 4977TIP3    H136490   5.553   1.785   0.459 -1.3088  1.3274 -0.5443
 4977TIP3    H236491   5.411   1.788   0.406 -1.0883  0.4802 -1.2103
 4978TIP3   OH236492   4.554   1.870   0.388  0.4100  0.4063  0.3243
 4978TIP3    H136493   4.556   1.963   0.409 -0.9223  0.1998  1.5453
 4978TIP3    H236494   4.589   1.827   0.466  2.1507 -0.0823 -0.6942
 4979TIP3   OH236495   0.282   2.303   1.718 -0.1787 -0.5574  0.2499
 4979TIP3    H136496   0.230   2.255   1.783 -0.4561  0.5454  0.8575
 4979TIP3    H236497   0.226   2.305   1.640 -0.9311  0.3371  0.7971
 4980TIP3   OH236498   6.558   3.612   8.324 -0.2057  0.5560 -0.0759
 4980TIP3    H136499   6.527   3.586   8.411 -0.1426  1.4074  0.2103
 4980TIP3    H236500   6.509   3.692   8.304 -0.1985  0.3834 -0.8187
 4981TIP3   OH236501   6.063   2.965   8.442 -0.4523  0.7948  0.3061
 4981TIP3    H136502   5.971   2.992   8.448 -0.4252  1.0051 -0.1595
 4981TIP3    H236503   6.063   2.874   8.473 -0.7447  0.9284  0.7162
 4982TIP3   OH236504   0.969   0.386   7.340 -0.0414  0.4852 -0.0404
 4982TIP3    H136505   0.952   0.294   7.322 -1.2228  0.6333  0.2186
 4982TIP3    H236506   1.007   0.387   7.428 -0.9461  0.2998  0.3690
 4983TIP3   OH236507   5.195   5.842   2.216 -0.1968 -0.0932 -0.3368
 4983TIP3    H136508   5.172   5.750   2.229  1.2026 -0.2461  1.4242
 4983TIP3    H236509   5.183   5.882   2.302 -0.5501  1.3229 -1.0240
 4984TIP3   OH236510   1.208   5.111   6.666  0.7066  0.0564  0.2855
 4984TIP3    H136511   1.154   5.044   6.709 -0.1134  0.8045  0.4499
 4984TIP3    H236512   1.240   5.069   6.586  1.1944 -0.9241  0.9735
 4985TIP3   OH236513   1.304   3.469   8.373  0.2057 -0.2088  0.4970
 4985TIP3    H136514   1.294   3.530   8.446  1.4659 -0.4912  0.9362
 4985TIP3    H236515   1.399   3.454   8.367  0.1759  0.1877 -1.5196
 4986TIP3   OH236516   2.523   3.554   0.380  0.4011 -0.0574 -0.5078
 4986TIP3    H136517   2.508   3.492   0.452  0.6558 -0.1624 -0.5434
 4986TIP3    H236518   2.616   3.544   0.359  0.3800  0.1406 -0.6974
 4987TIP3   OH236519   0.013   0.085   7.868 -0.0279 -0.1337 -0.0758
 4987TIP3    H136520   0.023   0.032   7.947 -0.4328  0.3252  0.2905
 4987TIP3    H236521  -0.071   0.056   7.830  0.0241 -0.1489 -0.1794
 4988TIP3   OH236522   5.828   0.900   7.520 -0.2938  0.6033  0.0888
 4988TIP3    H136523   5.806   0.921   7.429 -2.1613 -0.8463  0.1354
 4988TIP3    H236524   5.762   0.945   7.572  0.9457  1.6716  0.7816
 4989TIP3   OH236525   2.101   5.223   7.625 -0.3292  0.6910 -0.2627
 4989TIP3    H136526   2.186   5.202   7.586  0.1252  1.5542  0.2377
 4989TIP3    H236527   2.104   5.183   7.712 -0.7969 -0.0280 -0.5582
 4990TIP3   OH236528   2.759   4.445   0.451 -0.2873  0.3088 -0.1080
 4990TIP3    H136529   2.740   4.411   0.538 -1.0717  3.7126  1.1948
 4990TIP3    H236530   2.692   4.512   0.436  2.6949  3.3311 -1.1347
 4991TIP3   OH236531   2.322   1.249   2.316 -0.1384  0.3049 -0.4455
 4991TIP3    H136532   2.229   1.235   2.331 -0.1816  0.9772 -0.0567
 4991TIP3    H236533   2.327   1.337   2.279  0.4955  1.0476  1.3055
 4992TIP3   OH236534   2.982   5.343   7.539  0.1173 -0.2597  0.2580
 4992TIP3    H136535   2.968   5.284   7.464 -0.2376 -0.7870  0.7298
 4992TIP3    H236536   2.931   5.421   7.517 -1.1625 -0.9736  0.5771
 4993TIP3   OH236537   2.797   4.798   8.003 -0.3709  0.1602 -0.0430
 4993TIP3    H136538   2.858   4.799   7.930  1.2768 -0.7660  1.2502
 4993TIP3    H236539   2.762   4.887   8.007  1.5690  0.9842 -0.3125
 4994TIP3   OH236540   6.654   5.195   1.515  0.2834 -0.0035  0.1037
 4994TIP3    H136541   6.702   5.116   1.543 -0.0315 -1.4392 -2.9547
 4994TIP3    H236542   6.563   5.167   1.508 -0.1754  1.2246  0.7761
 4995TIP3   OH236543   0.659   5.521   0.555 -0.3937  0.0828 -0.5115
 4995TIP3    H136544   0.570   5.517   0.588 -0.9979 -0.7914 -2.1188
 4995TIP3    H236545   0.694   5.433   0.571 -0.1230  0.1612 -0.6700
 4996TIP3   OH236546   4.684   0.123   6.266  0.5436 -0.7296 -0.4208
 4996TIP3    H136547   4.692   0.167   6.351 -0.0005 -0.3246 -0.5766
 4996TIP3    H236548   4.772   0.128   6.229  0.5486  0.0104 -0.3237
 4997TIP3   OH236549   0.211   0.317   0.602  0.5026  0.5935  0.0720
 4997TIP3    H136550   0.204   0.252   0.672  0.0018  0.6051  0.0317
 4997TIP3    H236551   0.249   0.269   0.529  0.4469  0.4278  0.1518
 4998TIP3   OH236552   3.074   3.906   7.704  0.8578 -0.2520 -0.6444
 4998TIP3    H136553   3.014   3.841   7.741  0.9845 -0.4683 -0.8196
 4998TIP3    H236554   3.155   3.858   7.687  0.2932 -0.5664 -2.7276
 4999TIP3   OH236555   6.290   6.188   7.473 -0.0852  0.4139  0.0444
 4999TIP3    H136556   6.199   6.196   7.445 -0.2370 -1.3690 -0.1179
 4999TIP3    H236557   6.337   6.167   7.392  0.2558  0.0622  0.3328
 5000TIP3   OH236558   0.624   0.720   8.506  0.5239 -0.3328 -0.1629
 5000TIP3    H136559   0.622   0.766   8.422  1.2811 -0.3651 -0.2078
 5000TIP3    H236560   0.632   0.790   8.571  4.3311 -0.3790 -0.3506
 5001TIP3   OH236561   0.348   2.538   2.647 -0.0965 -0.0756  0.3246
 5001TIP3    H136562   0.262   2.568   2.677 -1.2869  0.2085 -2.9866
 5001TIP3    H236563   0.365   2.589   2.568  1.6038 -2.4214 -0.9509
 5002TIP3   OH236564   3.798   0.780   1.162 -0.7180 -0.0183  0.1218
 5002TIP3    H136565   3.744   0.850   1.127 -0.0265 -0.3323 -1.7099
 5002TIP3    H236566   3.888   0.812   1.153 -0.4937 -0.3341  1.1658
 5003TIP3   OH236567   0.541   3.677   0.656  0.1644  0.6039 -0.8198
 5003TIP3    H136568   0.612   3.737   0.678  0.2236 -0.1264  1.2105
 5003TIP3    H236569   0.463   3.732   0.650  0.1401  0.8853  1.4296
 5004TIP3   OH236570   4.373   2.413   7.848  0.1079 -0.1873 -0.0750
 5004TIP3    H136571   4.285   2.389   7.878  0.0165  0.1740 -0.0490
 5004TIP3    H236572   4.409   2.332   7.812  0.3452 -0.7257  1.3072
 5005TIP3   OH236573   3.527   4.928   0.349 -0.6688  0.2354  0.4952
 5005TIP3    H136574   3.613   4.887   0.334 -1.8487 -1.8589 -1.1280
 5005TIP3    H236575   3.511   4.980   0.270  0.6705  3.9016  2.4003
 5006TIP3   OH236576   5.371   2.172   1.431  0.0783  0.0995  0.2044
 5006TIP3    H136577   5.290   2.215   1.403 -0.1892 -0.6956 -0.2816
 5006TIP3    H236578   5.373   2.184   1.526 -0.1100  0.9705  0.1058
 5007TIP3   OH236579   6.318   5.313   7.617 -0.4095 -0.0118  0.1376
 5007TIP3    H136580   6.269   5.389   7.586  0.1225 -0.2370 -1.3255
 5007TIP3    H236581   6.260   5.270   7.679 -0.4989  1.9047  1.4828
 5008TIP3   OH236582   3.670   0.554   8.551  0.2498 -0.4521  0.0786
 5008TIP3    H136583   3.713   0.592   8.475 -0.9236 -0.9109 -0.8661
 5008TIP3    H236584   3.705   0.602   8.626  1.2421  0.1926 -0.7693
 5009TIP3   OH236585   5.484   0.035   0.920  0.1525 -0.5855  0.5450
 5009TIP3    H136586   5.465   0.106   0.858 -1.1735 -1.9272 -0.6723
 5009TIP3    H236587   5.521   0.079   0.996  1.5080  1.1726 -1.0320
 5010TIP3   OH236588   2.966   2.614   7.730  0.1169 -0.0951 -0.0476
 5010TIP3    H136589   2.889   2.569   7.764  0.8116 -1.4833 -0.2249
 5010TIP3    H236590   2.932   2.692   7.686 -1.0824 -0.1557  0.7401
 5011TIP3   OH236591   4.796   2.712   7.956 -0.2648 -0.5554  0.0738
 5011TIP3    H136592   4.772   2.769   7.883  0.5111 -1.7080 -1.1159
 5011TIP3    H236593   4.880   2.674   7.931  0.4429 -0.3376  1.9624
 5012TIP3   OH236594   3.986   3.338   0.718  0.3735 -0.5324 -0.2190
 5012TIP3    H136595   3.977   3.317   0.625 -1.1150 -5.0629  0.7138
 5012TIP3    H236596   4.054   3.279   0.749  0.0142  0.0502  1.8284
 5013TIP3   OH236597   5.569   3.234   8.135 -0.3049 -0.2401  0.7625
 5013TIP3    H136598   5.546   3.291   8.062 -0.7165 -1.4346 -0.0743
 5013TIP3    H236599   5.486   3.195   8.162 -0.5205  1.6740  3.2462
 5014TIP3   OH236600   3.790   4.543   7.579  0.3221  0.2304 -0.5951
 5014TIP3    H136601   3.835   4.531   7.495  1.8442 -1.0388  0.3358
 5014TIP3    H236602   3.783   4.454   7.615  1.9500  0.9198  1.6740
 5015TIP3   OH236603   6.229   5.695   1.439  0.1306 -0.0722 -0.0029
 5015TIP3    H136604   6.230   5.748   1.518 -0.1236 -1.0060  0.6459
 5015TIP3    H236605   6.138   5.666   1.431  0.3020 -0.5530 -0.2395
 5016TIP3   OH236606   1.174   2.522   8.594 -0.1419 -0.1484  0.3861
 5016TIP3    H136607   1.129   2.438   8.582 -0.2299 -0.2058  1.0473
 5016TIP3    H236608   1.257   2.512   8.548 -0.4650 -0.3295 -0.1705
 5017TIP3   OH236609   5.151   0.674   7.452 -0.0483 -0.5035  0.1573
 5017TIP3    H136610   5.143   0.633   7.538  0.9749  2.5305  1.8607
 5017TIP3    H236611   5.092   0.749   7.455  1.1209  0.5398 -1.1791
 5018TIP3   OH236612   0.550   5.221   1.477  0.1597 -0.5632  0.3040
 5018TIP3    H136613   0.582   5.148   1.529 -0.8820 -1.0351  0.3015
 5018TIP3    H236614   0.601   5.217   1.396  0.5212 -0.9078  0.5449
 5019TIP3   OH236615   5.515   1.724   1.176 -0.9073  0.5490  0.4380
 5019TIP3    H136616   5.450   1.786   1.140 -0.2188  0.5084 -0.9369
 5019TIP3    H236617   5.554   1.770   1.250 -0.5335  1.7112 -0.4578
 5020TIP3   OH236618   6.517   0.183   1.956  0.2038  0.0558  0.2919
 5020TIP3    H136619   6.462   0.257   1.981 -0.0846  0.1044 -0.4769
 5020TIP3    H236620   6.531   0.136   2.038 -0.8049  0.1618  0.5417
 5021TIP3   OH236621   3.301   4.885   2.167 -0.4781  0.1960  0.5005
 5021TIP3    H136622   3.382   4.909   2.212  0.8804 -2.5342 -0.2768
 5021TIP3    H236623   3.322   4.893   2.074 -1.3235  0.0298  0.2862
 5022TIP3   OH236624   1.114   2.696   7.409  0.7070  0.1518  0.1884
 5022TIP3    H136625   1.061   2.737   7.341 -2.1017 -1.7229  1.0334
 5022TIP3    H236626   1.156   2.622   7.364  1.5278  0.8238 -0.1779
 5023TIP3   OH236627   6.260   3.538   1.711 -0.3867 -0.1267 -0.1541
 5023TIP3    H136628   6.237   3.570   1.798 -0.4437 -0.3739 -0.0774
 5023TIP3    H236629   6.226   3.448   1.709  1.5701 -0.9310  0.3773
 5024TIP3   OH236630   6.297   4.287   8.562  0.0828  0.0888  0.0886
 5024TIP3    H136631   6.355   4.313   8.634 -0.5947  0.3290  0.5589
 5024TIP3    H236632   6.251   4.368   8.539 -0.3908 -0.1995  0.0281
 5025TIP3   OH236633   6.185   1.394   1.163 -0.5520 -0.7804 -0.1398
 5025TIP3    H136634   6.147   1.464   1.111 -1.0876 -2.1995 -1.7406
 5025TIP3    H236635   6.200   1.434   1.249 -1.4770  1.0744 -0.7771
 5026TIP3   OH236636   6.600   4.898   8.314  0.3482  0.5147  0.0434
 5026TIP3    H136637   6.673   4.930   8.261  0.0362 -0.6633 -1.1690
 5026TIP3    H236638   6.640   4.846   8.383  0.6774 -0.0198 -0.5391
 5027TIP3   OH236639   6.395   0.554   6.276 -0.0200  0.3907 -0.3778
 5027TIP3    H136640   6.419   0.617   6.208  1.1280  3.9043  2.9136
 5027TIP3    H236641   6.476   0.537   6.323 -1.1971  0.5054  1.8655
 5028TIP3   OH236642   3.600   2.542   0.641 -0.0763  0.0708 -0.1185
 5028TIP3    H136643   3.576   2.590   0.721  0.3101  0.4473 -0.2285
 5028TIP3    H236644   3.566   2.596   0.570  0.5965  0.3189 -0.2536
 5029TIP3   OH236645   0.901   1.012   7.421  0.4172  0.1646  0.0893
 5029TIP3    H136646   0.821   1.009   7.368 -0.3639  3.7971  0.7415
 5029TIP3    H236647   0.873   0.985   7.508  0.2482  0.0202 -0.0085
 5030TIP3   OH236648   2.878   0.704   1.628  0.0579  0.4711 -0.0307
 5030TIP3    H136649   2.962   0.731   1.591 -0.1223  0.1427 -0.6973
 5030TIP3    H236650   2.880   0.608   1.622 -0.0662  0.4280  0.6147
 5031TIP3   OH236651   1.728   0.223   0.834  0.2670  0.2722  0.1391
 5031TIP3    H136652   1.715   0.273   0.914  0.3463  0.1324  0.2407
 5031TIP3    H236653   1.802   0.165   0.854  0.4810  0.4458 -0.1323
 5032TIP3   OH236654   3.981   4.323   1.911 -0.2671 -0.2045 -0.4583
 5032TIP3    H136655   4.076   4.323   1.897 -0.3477  0.0450 -1.0162
 5032TIP3    H236656   3.967   4.393   1.974 -0.1743  0.3453 -1.0442
 5033TIP3   OH236657   2.352   1.286   8.073  0.1033 -0.3453 -0.7710
 5033TIP3    H136658   2.359   1.381   8.065  0.0133 -0.3962 -1.4830
 5033TIP3    H236659   2.442   1.255   8.080  0.0817  0.0463  2.8058
 5034TIP3   OH236660   6.292   2.733   0.456  0.0734  0.3966 -0.1863
 5034TIP3    H136661   6.351   2.801   0.422  0.1003 -0.5873 -2.2662
 5034TIP3    H236662   6.339   2.694   0.529  1.1322  0.9719 -0.5447
 5035TIP3   OH236663   3.288   5.310   0.905  0.1375  0.5426 -0.0179
 5035TIP3    H136664   3.240   5.333   0.825  0.0751  2.1540  0.4428
 5035TIP3    H236665   3.268   5.382   0.966  0.5892 -0.3923  1.2744
 5036TIP3   OH236666   2.370   6.781   0.981  0.8988 -0.4252  0.0170
 5036TIP3    H136667   2.436   6.840   0.944 -0.1571  0.9859  0.3118
 5036TIP3    H236668   2.314   6.757   0.908  0.9173 -0.5079  0.0297
 5037TIP3   OH236669   6.231   1.036   2.700  0.2409  0.2231 -0.3162
 5037TIP3    H136670   6.247   1.087   2.621  2.3938 -1.0625 -0.8078
 5037TIP3    H236671   6.136   1.022   2.701  0.1600  0.1687 -2.7655
 5038TIP3   OH236672   3.529   2.625   8.242 -0.2703 -0.4819  0.1853
 5038TIP3    H136673   3.448   2.668   8.270  0.5910  0.1537  1.7816
 5038TIP3    H236674   3.545   2.660   8.154 -0.4691  1.2027  0.7900
 5039TIP3   OH236675   1.974   4.924   6.644 -0.3012  0.1005  0.1564
 5039TIP3    H136676   1.946   5.014   6.659 -0.5358 -0.0515  0.6698
 5039TIP3    H236677   1.898   4.871   6.669 -0.5859 -0.1996 -1.2424
 5040TIP3   OH236678   3.337   2.067   7.938 -0.2409 -0.0745  0.2764
 5040TIP3    H136679   3.393   2.027   7.872 -0.4172  0.4497 -0.2014
 5040TIP3    H236680   3.371   2.156   7.947 -1.0598  0.2845 -0.0988
 5041TIP3   OH236681   6.066   4.225   8.148 -0.0090 -0.4999  0.1473
 5041TIP3    H136682   6.069   4.165   8.222 -0.5241 -0.3665  0.2803
 5041TIP3    H236683   6.063   4.167   8.071  0.0423 -0.6426  0.2525
 5042TIP3   OH236684   4.895   1.736   7.591 -0.6603 -0.5605 -0.5872
 5042TIP3    H136685   4.858   1.824   7.594  0.7052  0.0184 -0.0651
 5042TIP3    H236686   4.929   1.727   7.502  1.1113  0.2908 -0.0425
 5043TIP3   OH236687   1.082   1.214   7.416 -0.3348  0.1236  0.2214
 5043TIP3    H136688   1.008   1.153   7.414 -0.1681 -0.1884  1.7654
 5043TIP3    H236689   1.153   1.164   7.458 -0.1252  1.2971  1.3157
 5044TIP3   OH236690   2.502   1.868   1.906  0.3135 -0.0136  0.1837
 5044TIP3    H136691   2.480   1.960   1.893 -1.4456 -0.2331  1.2531
 5044TIP3    H236692   2.491   1.853   2.000 -1.2500 -1.7082 -0.2093
 5045TIP3   OH236693   2.691   3.975   1.295  0.0812  0.2172 -0.0950
 5045TIP3    H136694   2.772   3.973   1.347 -0.4274  0.0397  0.7140
 5045TIP3    H236695   2.625   3.938   1.353 -0.4603 -0.2106 -0.9732
 5046TIP3   OH236696   4.123   2.005   7.729 -0.1166  0.0188 -0.2459
 5046TIP3    H136697   4.075   2.086   7.746  0.9843  0.2214  2.3278
 5046TIP3    H236698   4.178   2.026   7.653 -1.3971  0.9474 -0.9643
 5047TIP3   OH236699   6.487   0.458   7.540  0.0244  0.4982 -0.1979
 5047TIP3    H136700   6.474   0.372   7.499 -0.0341 -0.0885  0.9971
 5047TIP3    H236701   6.444   0.520   7.481 -3.4222 -0.7216  0.7804
 5048TIP3   OH236702   2.492   2.301   8.189 -0.5945  0.0557  0.1607
 5048TIP3    H136703   2.474   2.320   8.097  0.2066 -3.3081 -0.8308
 5048TIP3    H236704   2.499   2.387   8.230 -0.2860  1.7148 -3.0395
 5049TIP3   OH236705   2.586   4.928   1.615 -0.7326 -0.0711 -0.5186
 5049TIP3    H136706   2.596   5.013   1.570  0.2222 -0.2349 -0.6401
 5049TIP3    H236707   2.582   4.951   1.708  0.6335  0.0415 -0.4749
 5050TIP3   OH236708   1.731   0.773   6.978 -0.0559  0.1517 -0.1457
 5050TIP3    H136709   1.700   0.728   7.057  0.3417 -0.6127 -0.4174
 5050TIP3    H236710   1.667   0.843   6.964 -0.1914  0.2364  0.7932
 5051TIP3   OH236711   1.765   0.660   7.462 -0.2806 -0.0237  0.1693
 5051TIP3    H136712   1.714   0.722   7.514 -0.3799  1.3277 -1.4411
 5051TIP3    H236713   1.842   0.641   7.516  0.1962  2.2223  0.4079
 5052TIP3   OH236714   5.145   5.926   0.459  0.0805  0.0547 -0.6586
 5052TIP3    H136715   5.061   5.881   0.451  1.1177 -1.9227 -1.1234
 5052TIP3    H236716   5.158   5.936   0.554  0.4519 -1.9891 -0.4483
 5053TIP3   OH236717   1.162   0.910   0.978  0.3428 -0.1832  0.8635
 5053TIP3    H136718   1.221   0.975   0.941 -0.5911  0.2316  0.0471
 5053TIP3    H236719   1.154   0.935   1.070  0.9078  0.1459  0.8311
 5054TIP3   OH236720   0.820   1.263   7.991  0.1188 -0.1342 -0.5223
 5054TIP3    H136721   0.853   1.192   8.046  1.3139  1.4988  0.9414
 5054TIP3    H236722   0.837   1.343   8.040 -1.3401  1.1995 -2.0472
 5055TIP3   OH236723   0.488   2.731   1.781  0.2367 -0.1294 -0.2926
 5055TIP3    H136724   0.400   2.767   1.792  0.5334  0.3113  0.8243
 5055TIP3    H236725   0.545   2.795   1.822  0.8765 -1.3678  0.8276
 5056TIP3   OH236726   5.527   6.221   1.755 -0.0828  0.2898  0.0809
 5056TIP3    H136727   5.442   6.193   1.722 -1.2029 -1.1709  3.7768
 5056TIP3    H236728   5.512   6.310   1.788  0.4784  0.8998 -1.2196
 5057TIP3   OH236729   2.054   4.177   7.362  0.0328 -0.3039  0.6476
 5057TIP3    H136730   2.144   4.145   7.369 -0.0365 -0.9896 -1.1218
 5057TIP3    H236731   2.004   4.102   7.329 -0.3389  1.2085 -2.5915
 5058TIP3   OH236732   6.478   0.216   7.393  0.2620 -0.2996 -0.0193
 5058TIP3    H136733   6.449   0.125   7.402  1.3086 -0.8924 -2.0389
 5058TIP3    H236734   6.476   0.233   7.299 -0.7152  2.0831  0.3611
 5059TIP3   OH236735   6.011   4.426   0.904 -0.4215  0.9290  0.2348
 5059TIP3    H136736   5.993   4.450   0.813  0.9803 -0.1951 -0.3800
 5059TIP3    H236737   5.937   4.463   0.954 -1.7779  0.6444 -1.4717
 5060TIP3   OH236738   5.181   3.946   7.115 -0.4125  0.5610 -0.1877
 5060TIP3    H136739   5.198   4.037   7.094  0.2592  0.5378  0.2236
 5060TIP3    H236740   5.258   3.899   7.083 -0.0749  0.3330  0.9127
 5061TIP3   OH236741   1.020   6.737   6.811 -0.0487 -0.0120 -0.3316
 5061TIP3    H136742   0.972   6.690   6.743 -1.6223  1.7619 -0.5423
 5061TIP3    H236743   1.054   6.815   6.767 -0.8118  0.9960  0.8057
 5062TIP3   OH236744   4.358   6.786   0.767 -0.2203  0.0733  0.2035
 5062TIP3    H136745   4.442   6.832   0.773  0.0495 -0.4242  0.3246
 5062TIP3    H236746   4.382   6.694   0.759 -0.7440 -0.0136 -0.4886
 5063TIP3   OH236747   0.746   3.659   0.093  0.3825 -0.0865  0.0593
 5063TIP3    H136748   0.670   3.653   0.151  0.0928 -2.2069 -0.4758
 5063TIP3    H236749   0.795   3.579   0.110  0.8591 -0.2335 -1.8458
 5064TIP3   OH236750   5.245   6.437   1.597  0.6901 -0.1419  0.1007
 5064TIP3    H136751   5.234   6.363   1.537 -2.5308  0.1296  0.1474
 5064TIP3    H236752   5.221   6.514   1.545 -0.5763  0.2740  1.2253
 5065TIP3   OH236753   3.093   2.947   6.506 -0.3803 -0.5440 -0.5898
 5065TIP3    H136754   3.050   3.000   6.574 -2.0410 -0.0113 -1.9893
 5065TIP3    H236755   3.114   2.865   6.550 -3.6322 -1.1952  0.0728
 5066TIP3   OH236756   6.267   4.759   7.466 -0.1129 -0.4932  0.0037
 5066TIP3    H136757   6.191   4.802   7.504  0.7255  1.6580 -0.6214
 5066TIP3    H236758   6.290   4.690   7.529  0.0557  1.6653  2.4573
 5067TIP3   OH236759   2.245   6.211   7.393  0.1209 -0.0320 -0.0400
 5067TIP3    H136760   2.319   6.208   7.454  0.5355  0.4350 -0.5113
 5067TIP3    H236761   2.247   6.126   7.349  1.3451  0.5329 -1.1593
 5068TIP3   OH236762   6.001   6.044   2.611 -0.4072  0.7645  0.0693
 5068TIP3    H136763   6.056   5.988   2.555 -1.2623 -0.5262  0.4730
 5068TIP3    H236764   6.054   6.122   2.626  1.1761 -0.2813  0.1659
 5069TIP3   OH236765   0.609   2.233   8.202 -0.5031 -0.0045 -0.3216
 5069TIP3    H136766   0.644   2.229   8.290 -1.9910  3.8494  0.6796
 5069TIP3    H236767   0.686   2.238   8.145  0.4732 -1.1243  0.8458
 5070TIP3   OH236768   3.336   0.157   7.697  0.1574 -0.7008 -0.5505
 5070TIP3    H136769   3.396   0.144   7.623  0.8654 -1.2714  0.1112
 5070TIP3    H236770   3.392   0.188   7.768 -1.0015  3.4989 -1.1965
 5071TIP3   OH236771   6.498   3.544   7.605  0.3249  0.2111 -0.3393
 5071TIP3    H136772   6.580   3.497   7.594  0.6938  0.2172  1.8774
 5071TIP3    H236773   6.431   3.476   7.602  0.6495 -0.1509  0.4196
 5072TIP3   OH236774   0.844   4.614   1.414 -0.1968  0.0998 -0.3402
 5072TIP3    H136775   0.884   4.562   1.483  0.3730 -0.5343 -1.1331
 5072TIP3    H236776   0.916   4.632   1.353 -1.0329 -0.7969 -1.6354
 5073TIP3   OH236777   4.615   6.274   0.354 -0.3889  0.0637 -0.0628
 5073TIP3    H136778   4.633   6.263   0.447 -1.0869  0.5582  0.1357
 5073TIP3    H236779   4.587   6.365   0.345  2.4856  0.9479 -1.2178
 5074TIP3   OH236780   4.195   0.725   1.959  0.1668 -0.1265 -0.3302
 5074TIP3    H136781   4.229   0.636   1.966  0.2249 -0.1446 -0.8126
 5074TIP3    H236782   4.209   0.763   2.046 -1.3652 -1.1012  0.3697
 5075TIP3   OH236783   2.746   6.132   0.830 -0.5536 -0.2563  0.1793
 5075TIP3    H136784   2.779   6.099   0.914 -1.5733 -1.5597  0.1004
 5075TIP3    H236785   2.821   6.177   0.791  0.7146 -1.8215  0.6637
 5076TIP3   OH236786   2.365   4.759   0.483  0.4204 -0.1227  1.0893
 5076TIP3    H136787   2.272   4.747   0.503 -0.3668 -3.0884 -2.9857
 5076TIP3    H236788   2.408   4.686   0.528  0.0826 -1.1244 -0.1457
 5077TIP3   OH236789   6.061   0.929   7.248 -0.1817 -0.3642 -0.4403
 5077TIP3    H136790   6.081   1.022   7.255 -0.5187 -0.3544  0.5071
 5077TIP3    H236791   6.095   0.890   7.328 -0.4201 -0.9875 -0.6331
 5078TIP3   OH236792   2.551   3.395   1.479  0.4450 -0.3107  0.4348
 5078TIP3    H136793   2.493   3.377   1.553 -0.3080 -0.7706 -0.2656
 5078TIP3    H236794   2.638   3.402   1.519 -0.0625  0.2633  1.4725
 5079TIP3   OH236795   0.651   4.708   1.078 -0.5213  0.1065 -0.0444
 5079TIP3    H136796   0.667   4.657   0.999 -0.4245  0.1066 -0.0249
 5079TIP3    H236797   0.601   4.650   1.135 -1.6378  0.5051 -0.5719
 5080TIP3   OH236798   2.037   4.099   8.698 -0.0868  1.0294 -0.0301
 5080TIP3    H136799   1.992   4.084   8.782  0.4725  1.8652  0.4270
 5080TIP3    H236800   2.059   4.192   8.699  0.8765  0.8159 -0.6316
 5081TIP3   OH236801   5.646   3.117   1.518 -0.1302 -0.1433 -0.7055
 5081TIP3    H136802   5.711   3.058   1.479  1.3692  1.2609 -0.4460
 5081TIP3    H236803   5.632   3.184   1.452  0.5787  0.9083  0.1660
 5082TIP3   OH236804   5.008   0.233   1.726  0.1901 -0.3282 -0.7336
 5082TIP3    H136805   5.047   0.146   1.712  1.6396  0.4241 -1.5820
 5082TIP3    H236806   4.974   0.258   1.640  3.2480  1.5252 -1.5497
 5083TIP3   OH236807   1.583   2.411   7.371 -0.1504 -0.6727  0.3101
 5083TIP3    H136808   1.566   2.470   7.297 -0.4397  0.0933  0.9826
 5083TIP3    H236809   1.499   2.368   7.387  0.3181 -2.1517 -0.9043
 5084TIP3   OH236810   3.510   5.385   7.886  0.5328 -0.1945 -0.4415
 5084TIP3    H136811   3.483   5.294   7.876 -0.3765 -0.2948  2.2904
 5084TIP3    H236812   3.437   5.435   7.848  0.5956 -0.5720 -1.0762
 5085TIP3   OH236813   3.507   6.265   7.534 -0.5200 -0.3361  0.2392
 5085TIP3    H136814   3.538   6.295   7.449 -2.4929  0.0300 -0.4019
 5085TIP3    H236815   3.576   6.292   7.595  0.4558  0.3120 -1.0837
 5086TIP3   OH236816   5.870   0.205   2.475 -0.2730  0.0737 -0.3630
 5086TIP3    H136817   5.782   0.242   2.477  0.2505  1.3051  0.8899
 5086TIP3    H236818   5.859   0.121   2.429 -1.9095  0.6403 -1.0756
 5087TIP3   OH236819   4.819   4.490   7.969 -0.0305  0.2846  0.5404
 5087TIP3    H136820   4.734   4.456   7.941  0.4263  0.0721 -0.6621
 5087TIP3    H236821   4.860   4.418   8.016  0.1381 -0.1904 -0.3093
 5088TIP3   OH236822   4.141   4.538   2.943 -0.2304 -0.1813 -0.0709
 5088TIP3    H136823   4.074   4.584   2.892  0.0268  0.4485  0.1588
 5088TIP3    H236824   4.224   4.571   2.910 -0.0307 -0.7147 -0.1187
 5089TIP3   OH236825   0.074   2.007   8.682  0.5335 -0.3043  0.2827
 5089TIP3    H136826   0.015   1.934   8.664  1.6773 -0.6239 -2.9207
 5089TIP3    H236827   0.043   2.077   8.625  1.1914  0.7332  1.1544
 5090TIP3   OH236828   0.540   0.521   1.627 -0.0185 -0.7655 -0.7419
 5090TIP3    H136829   0.574   0.565   1.549  0.5662 -1.6020 -0.9777
 5090TIP3    H236830   0.492   0.445   1.593 -0.9622 -0.3599 -0.3396
 5091TIP3   OH236831   3.178   1.604   1.130  0.0534 -0.0761 -0.2619
 5091TIP3    H136832   3.270   1.577   1.139  0.1289 -0.3436 -1.6539
 5091TIP3    H236833   3.129   1.540   1.181  0.5703 -0.4916 -0.2727
 5092TIP3   OH236834   1.556   3.055   0.079 -0.1556  0.1992 -0.2203
 5092TIP3    H136835   1.524   3.111   0.150  0.8983  3.5052 -2.1372
 5092TIP3    H236836   1.477   3.026   0.033 -0.7284  0.0445  0.8468
 5093TIP3   OH236837   2.046   0.721   0.880  0.4710  0.2502  0.1980
 5093TIP3    H136838   2.141   0.735   0.880  0.3661  0.9781  0.1672
 5093TIP3    H236839   2.009   0.806   0.856 -0.2076  0.0799  0.6316
 5094TIP3   OH236840   0.422   0.221   8.049  0.1959  0.1488  0.1993
 5094TIP3    H136841   0.444   0.314   8.057  1.3276 -0.1673  1.0995
 5094TIP3    H236842   0.504   0.175   8.070 -0.3994 -1.0508 -0.0100
 5095TIP3   OH236843   1.983   1.014   6.316  0.0722  0.0434  0.2406
 5095TIP3    H136844   2.069   0.975   6.302 -1.0194 -2.2281 -0.7958
 5095TIP3    H236845   1.949   1.030   6.228 -0.3125  1.5877  0.6417
 5096TIP3   OH236846   0.511   1.453   1.248 -0.4222  0.0935 -0.0997
 5096TIP3    H136847   0.606   1.452   1.238 -0.4197 -2.2529 -0.3439
 5096TIP3    H236848   0.478   1.439   1.159 -0.9722 -0.2723  0.1614
 5097TIP3   OH236849   4.172   5.024   1.657  0.1455  0.0810  0.2552
 5097TIP3    H136850   4.097   4.968   1.679 -0.3043  0.4674 -0.2751
 5097TIP3    H236851   4.179   5.020   1.562 -0.8907  2.1429  0.0375
 5098TIP3   OH236852   2.136   4.493   0.836  0.0420 -0.0800  0.4311
 5098TIP3    H136853   2.136   4.449   0.920  1.1423 -0.5020  0.2212
 5098TIP3    H236854   2.121   4.585   0.856 -2.6237 -0.5250  0.8540
 5099TIP3   OH236855   6.044   2.633   6.764 -0.1934 -0.1371 -0.8105
 5099TIP3    H136856   6.028   2.691   6.839  3.1050 -0.2802  0.1415
 5099TIP3    H236857   6.067   2.549   6.803 -1.8701 -1.2807 -2.1392
 5100TIP3   OH236858   6.083   1.111   1.468 -0.2488  0.5209 -0.2968
 5100TIP3    H136859   6.161   1.061   1.443  0.0370  0.7100  0.1946
 5100TIP3    H236860   6.115   1.175   1.531 -1.0943 -0.5850  1.3277
 5101TIP3   OH236861   5.722   5.808   1.828 -0.6533 -0.2346  0.5682
 5101TIP3    H136862   5.648   5.859   1.793 -1.5884 -1.4911  0.6276
 5101TIP3    H236863   5.691   5.718   1.827  0.8465 -0.7804  0.7570
 5102TIP3   OH236864   1.011   2.648   2.990  0.2912 -0.1856  0.2242
 5102TIP3    H136865   0.959   2.729   2.993 -0.9428 -0.9737  1.5897
 5102TIP3    H236866   0.964   2.593   2.927  0.0352 -0.5374  0.7222
 5103TIP3   OH236867   0.137   4.806   2.291 -0.0772  0.0549 -0.2618
 5103TIP3    H136868   0.086   4.800   2.210 -0.9672 -2.9500  0.3920
 5103TIP3    H236869   0.072   4.800   2.361  0.8291  0.6543  0.6569
 5104TIP3   OH236870   3.348   3.203   1.104 -0.0165 -0.3737 -0.2982
 5104TIP3    H136871   3.281   3.248   1.156  0.6478  2.0847 -1.4006
 5104TIP3    H236872   3.307   3.188   1.019  1.1684  2.8058 -1.6283
 5105TIP3   OH236873   0.557   6.316   2.116  0.5518  0.1125 -0.2611
 5105TIP3    H136874   0.473   6.361   2.124  0.2825 -0.4708  0.2158
 5105TIP3    H236875   0.572   6.277   2.202  1.3455  0.2622 -0.3198
 5106TIP3   OH236876   0.855   0.823   0.021  0.5486  0.2112  0.4256
 5106TIP3    H136877   0.802   0.768   0.077 -0.1239  1.5572  1.1743
 5106TIP3    H236878   0.799   0.842  -0.054  0.9358 -0.4641 -0.0382
 5107TIP3   OH236879   4.363   6.172   7.796  0.2136 -0.2739 -0.9767
 5107TIP3    H136880   4.307   6.240   7.834 -0.5143 -0.9588 -0.7969
 5107TIP3    H236881   4.411   6.136   7.871  0.2879 -0.2368 -1.0072
 5108TIP3   OH236882   5.970   5.849   1.735 -0.0100 -0.9966  0.1920
 5108TIP3    H136883   5.983   5.925   1.678  0.0944  0.5207  2.1609
 5108TIP3    H236884   5.875   5.845   1.748  0.1457  0.5726  2.3001
 5109TIP3   OH236885   3.590   2.023   0.862  0.2740  0.2596  0.0571
 5109TIP3    H136886   3.578   2.099   0.805 -0.2039 -0.5219 -0.9370
 5109TIP3    H236887   3.516   1.966   0.840  0.8473 -0.6628  0.4822
 5110TIP3   OH236888   3.895   6.103   1.436  0.8189 -0.1733  0.4230
 5110TIP3    H136889   3.851   6.026   1.472 -1.0953  0.7814  0.2866
 5110TIP3    H236890   3.943   6.140   1.509 -1.6237  0.7697  1.6704
 5111TIP3   OH236891   5.600   5.227   7.632  0.2205  0.0588  0.5568
 5111TIP3    H136892   5.542   5.158   7.664  0.5172 -0.8604 -0.8283
 5111TIP3    H236893   5.558   5.260   7.553  0.1140  1.4474  1.1695
 5112TIP3   OH236894   2.885   0.537   1.286 -0.5124  0.3946  0.3860
 5112TIP3    H136895   2.951   0.552   1.353 -0.7714  0.6027  0.5971
 5112TIP3    H236896   2.856   0.447   1.302  0.6074 -0.1503 -0.4984
 5113TIP3   OH236897   6.019   4.636   8.647 -0.2030  0.1312 -0.2710
 5113TIP3    H136898   6.087   4.694   8.681  0.9487 -1.4447  0.2041
 5113TIP3    H236899   5.991   4.585   8.723 -1.4559  0.2880 -0.6073
 5114TIP3   OH236900   0.102   2.646   0.137  0.1521 -0.3084  0.4817
 5114TIP3    H136901   0.171   2.699   0.098 -0.3366  0.2352  0.3370
 5114TIP3    H236902   0.143   2.562   0.156  0.5672 -0.3641 -0.6218
 5115TIP3   OH236903   6.218   4.244   0.850 -0.3215 -0.2853 -0.1859
 5115TIP3    H136904   6.313   4.254   0.858 -0.0240 -1.9712 -1.1334
 5115TIP3    H236905   6.183   4.329   0.876  1.4239  0.2632  0.5303
 5116TIP3   OH236906   0.700   4.107   7.467 -0.0234 -0.3325  0.5583
 5116TIP3    H136907   0.715   4.195   7.431 -3.3796 -0.3328 -1.2479
 5116TIP3    H236908   0.678   4.123   7.559 -0.7252  0.7590  0.2173
 5117TIP3   OH236909   1.710   5.206   2.055  0.5557 -0.6066 -0.3736
 5117TIP3    H136910   1.784   5.267   2.050 -1.5222  2.2839  1.1307
 5117TIP3    H236911   1.741   5.136   2.113  1.4720  1.7981  2.3335
 5118TIP3   OH236912   1.789   0.769   6.291 -0.4867 -0.0765 -0.4050
 5118TIP3    H136913   1.769   0.844   6.235 -0.5542  0.0350 -0.2336
 5118TIP3    H236914   1.854   0.803   6.353 -0.4928 -0.1683 -0.3494
 5119TIP3   OH236915   5.180   1.149   0.082  0.4822  0.3590 -0.5822
 5119TIP3    H136916   5.108   1.211   0.095 -1.9881 -2.6893  1.9573
 5119TIP3    H236917   5.253   1.188   0.131 -0.8328  1.4630  0.6081
 5120TIP3   OH236918   2.043   0.420   0.837  0.1623 -0.4667 -0.2529
 5120TIP3    H136919   2.060   0.514   0.843 -0.9562 -0.2399 -0.4304
 5120TIP3    H236920   2.011   0.396   0.924  2.0615 -1.0537  0.3314
 5121TIP3   OH236921   6.157   0.898   7.502 -0.0036  0.1436 -0.8142
 5121TIP3    H136922   6.200   0.982   7.520 -0.5091  0.2056  0.1797
 5121TIP3    H236923   6.109   0.878   7.583 -1.1018 -0.3758 -1.5775
 5122TIP3   OH236924   6.185   1.876   1.035 -0.2123 -0.7286  0.4409
 5122TIP3    H136925   6.147   1.810   0.977  0.0669 -0.4547 -0.0656
 5122TIP3    H236926   6.227   1.826   1.104  0.9887 -1.1541 -0.5507
 5123TIP3   OH236927   3.240   5.102   1.236 -0.0121 -0.2041  0.1501
 5123TIP3    H136928   3.264   5.015   1.205 -0.6439  0.1378 -1.3854
 5123TIP3    H236929   3.261   5.160   1.163 -2.2068  0.5562  0.0402
 5124TIP3   OH236930   5.881   2.550   8.186  0.6592  0.0566 -0.5088
 5124TIP3    H136931   5.889   2.644   8.200  1.5295 -0.2089  0.9415
 5124TIP3    H236932   5.842   2.517   8.266  0.6118 -0.8531 -0.8959
 5125TIP3   OH236933   3.350   4.092   1.388 -0.0645 -0.4694 -0.6335
 5125TIP3    H136934   3.442   4.093   1.363  0.7326 -0.3752  2.0635
 5125TIP3    H236935   3.335   4.177   1.429 -2.2039  0.7230 -3.5113
 5126TIP3   OH236936   0.440   0.286   1.554 -0.0018 -0.3280 -0.0719
 5126TIP3    H136937   0.448   0.232   1.632 -0.9373  0.1436  0.3686
 5126TIP3    H236938   0.393   0.230   1.491  0.1746 -0.4763 -0.0725
 5127TIP3   OH236939   3.456   0.141   2.577  0.4122 -0.3571 -0.3375
 5127TIP3    H136940   3.550   0.123   2.585  0.2290 -2.6538 -2.3988
 5127TIP3    H236941   3.414   0.074   2.631 -0.0863  0.9379  0.9438
 5128TIP3   OH236942   3.609   4.650   7.755 -0.0090  0.3065  0.3362
 5128TIP3    H136943   3.665   4.614   7.686  0.6025  2.2643 -0.2390
 5128TIP3    H236944   3.520   4.638   7.722  0.1737 -0.4606  0.0829
 5129TIP3   OH236945   6.365   6.476   8.064  0.3079  0.5947 -0.1856
 5129TIP3    H136946   6.387   6.555   8.015  0.2719 -0.1980 -1.5371
 5129TIP3    H236947   6.369   6.406   7.999  2.3534 -0.8447  1.3884
 5130TIP3   OH236948   0.224   0.904   8.422 -0.5819 -0.1223  0.1177
 5130TIP3    H136949   0.167   0.865   8.356 -1.1419  3.0584 -1.4991
 5130TIP3    H236950   0.298   0.940   8.372  0.9731 -0.8701  1.7414
 5131TIP3   OH236951   1.555   6.784   7.201  0.3404 -0.3901  0.3444
 5131TIP3    H136952   1.628   6.725   7.185 -0.5008 -1.5302  0.5468
 5131TIP3    H236953   1.539   6.826   7.116 -0.8614 -2.6161 -0.6164
 5132TIP3   OH236954   4.357   4.087   7.337 -0.3914 -0.3372  0.8912
 5132TIP3    H136955   4.336   4.120   7.249  0.8182 -1.8854 -0.0358
 5132TIP3    H236956   4.354   4.164   7.393 -0.1600  0.8930 -0.7117
 5133TIP3   OH236957   4.486   5.267   0.881 -0.5450 -0.2838  0.2946
 5133TIP3    H136958   4.393   5.248   0.869 -0.4825 -0.7863  0.5687
 5133TIP3    H236959   4.489   5.322   0.959 -0.6615  0.2529 -0.0708
 5134TIP3   OH236960   2.772   4.605   1.151 -0.3857 -0.1708 -0.5357
 5134TIP3    H136961   2.824   4.544   1.098  0.0525 -0.6912  0.4614
 5134TIP3    H236962   2.769   4.564   1.238  0.0379  1.2823  0.1948
 5135TIP3   OH236963   4.397   2.826   0.298 -0.1640 -0.1208  0.3692
 5135TIP3    H136964   4.467   2.801   0.358  0.6175  3.2871  1.0627
 5135TIP3    H236965   4.319   2.833   0.353 -0.1835 -0.2197  0.3534
 5136TIP3   OH236966   4.822   4.236   8.078  0.4215  0.4705 -0.2506
 5136TIP3    H136967   4.886   4.239   8.149  0.6136  1.6114 -0.4394
 5136TIP3    H236968   4.737   4.247   8.120  0.5678  1.6138 -0.2113
 5137TIP3   OH236969   6.544   2.575   2.039  0.0062  0.0954 -0.2408
 5137TIP3    H136970   6.514   2.607   1.954  0.1443  2.2311  0.4352
 5137TIP3    H236971   6.567   2.655   2.087 -2.4142 -0.8104  2.6978
 5138TIP3   OH236972   3.167   3.921   0.881  0.0127 -0.0640  0.0564
 5138TIP3    H136973   3.202   3.997   0.928 -0.5085  2.1286 -2.8814
 5138TIP3    H236974   3.245   3.872   0.855  0.5336  1.0029 -0.4443
 5139TIP3   OH236975   4.371   3.799   6.670 -0.1534 -0.0398  0.3343
 5139TIP3    H136976   4.345   3.891   6.659 -0.8958 -0.2611  0.1513
 5139TIP3    H236977   4.299   3.760   6.719  2.1048  0.4255  4.4647
 5140TIP3   OH236978   3.320   0.858   0.826 -0.0576  0.0424 -0.2477
 5140TIP3    H136979   3.407   0.864   0.787 -0.0980 -0.6661 -0.4537
 5140TIP3    H236980   3.282   0.945   0.811  0.1930  0.0085 -1.1512
 5141TIP3   OH236981   2.289   2.781   1.121 -0.4779 -0.5046 -0.6949
 5141TIP3    H136982   2.250   2.707   1.074 -1.8265 -1.5302  1.8217
 5141TIP3    H236983   2.213   2.831   1.152  0.4060  1.1762 -1.1361
 5142TIP3   OH236984   3.317   3.855   1.551  0.5187 -0.1232  0.2086
 5142TIP3    H136985   3.347   3.937   1.511  0.1926 -0.1428 -0.0784
 5142TIP3    H236986   3.285   3.803   1.477  1.3076 -0.7665  0.3043
 5143TIP3   OH236987   0.883   3.199   2.116  0.5074  0.1597 -0.3905
 5143TIP3    H136988   0.800   3.238   2.144  0.8357  1.1015 -0.6850
 5143TIP3    H236989   0.878   3.108   2.146 -0.7347  0.1272 -0.6371
 5144TIP3   OH236990   4.788   0.212   0.921 -0.0904 -0.1088  0.1839
 5144TIP3    H136991   4.838   0.131   0.923  3.1990  1.7657  1.4102
 5144TIP3    H236992   4.790   0.245   1.011 -0.0641  1.9924 -0.5167
 5145TIP3   OH236993   2.300   1.591   1.477  1.1258  0.3553  0.3994
 5145TIP3    H136994   2.289   1.504   1.513  0.7269  0.2460  0.0206
 5145TIP3    H236995   2.292   1.650   1.552  0.1741  0.1387  0.4794
 5146TIP3   OH236996   5.181   5.615   8.173 -0.0450  0.1287 -0.1991
 5146TIP3    H136997   5.198   5.670   8.096 -1.0708  2.2131  0.9674
 5146TIP3    H236998   5.267   5.583   8.199  0.3091 -0.7817 -2.2785
 5147TIP3   OH236999   2.770   2.272   8.219 -0.1285 -0.2089 -0.7149
 5147TIP3    H137000   2.678   2.293   8.202 -0.0945  0.0134 -0.6290
 5147TIP3    H237001   2.783   2.187   8.177 -0.1674  0.1127 -1.3909
 5148TIP3   OH237002   2.065   2.289   7.653 -0.4475 -0.6622  0.0637
 5148TIP3    H137003   2.012   2.275   7.574 -0.8208  1.5692 -0.1670
 5148TIP3    H237004   2.092   2.381   7.647 -0.9069 -0.2645  2.7732
 5149TIP3   OH237005   5.976   4.278   0.432 -0.1335  0.2661 -0.1063
 5149TIP3    H137006   6.071   4.274   0.422 -0.0414  1.3908  0.2047
 5149TIP3    H237007   5.957   4.218   0.504  0.2671 -0.4072 -0.5501
 5150TIP3   OH237008   2.553   4.673   1.625 -0.2675 -0.1318 -0.3386
 5150TIP3    H137009   2.535   4.757   1.583  1.8235 -0.5626 -2.3366
 5150TIP3    H237010   2.645   4.677   1.649 -0.6188 -1.1554  1.3855
 5151TIP3   OH237011   2.626   1.183   1.170  0.4461  0.5564 -0.4775
 5151TIP3    H137012   2.638   1.243   1.096 -0.8556 -0.2090 -1.3437
 5151TIP3    H237013   2.612   1.241   1.245 -0.2940  1.3457 -1.2040
 5152TIP3   OH237014   5.866   3.171   2.547  0.1757 -0.6110  0.2252
 5152TIP3    H137015   5.799   3.119   2.503  0.9569 -1.0340 -0.4937
 5152TIP3    H237016   5.883   3.123   2.628  0.8522 -1.4823 -0.4094
 5153TIP3   OH237017   0.784   4.911   1.759 -0.6389  0.1169  0.2985
 5153TIP3    H137018   0.758   4.819   1.772  1.2449 -0.6624 -0.9782
 5153TIP3    H237019   0.702   4.958   1.750 -1.7031 -1.9485 -2.0529
 5154TIP3   OH237020   1.878   5.925   0.174  0.0729  0.0304 -0.2750
 5154TIP3    H137021   1.860   5.853   0.234 -2.9803  0.0279 -1.0321
 5154TIP3    H237022   1.822   5.908   0.098  0.5459  2.3053 -1.2226
 5155TIP3   OH237023   3.878   3.436   1.915  0.2949 -0.5587  0.5861
 5155TIP3    H137024   3.877   3.506   1.980 -1.1438 -0.6632  0.7124
 5155TIP3    H237025   3.961   3.448   1.868  0.3832  0.8057  1.0502
 5156TIP3   OH237026   3.333   6.063   6.869  0.0410 -0.1579 -0.2956
 5156TIP3    H137027   3.386   6.001   6.820 -0.3047 -0.3796 -0.3979
 5156TIP3    H237028   3.393   6.104   6.931  0.2252 -0.7608 -0.0720
 5157TIP3   OH237029   1.450   5.852   8.028 -0.5328  0.0704 -0.2204
 5157TIP3    H137030   1.509   5.897   8.088  0.7826 -0.3425 -1.1831
 5157TIP3    H237031   1.461   5.897   7.944  2.0387 -2.9208 -1.6525
 5158TIP3   OH237032   4.250   1.323   7.635  0.0403  0.6078  0.0223
 5158TIP3    H137033   4.244   1.375   7.715 -0.8678  2.0878 -0.9421
 5158TIP3    H237034   4.294   1.243   7.661 -2.4827 -0.1006  2.5629
 5159TIP3   OH237035   1.579   1.881   8.414  0.1463  0.1447 -0.2368
 5159TIP3    H137036   1.493   1.894   8.375 -0.1768  0.3975  0.5459
 5159TIP3    H237037   1.579   1.791   8.446  0.4214 -0.0716 -0.8354
 5160TIP3   OH237038   0.542   3.017   0.802  0.1980  0.2086 -0.4811
 5160TIP3    H137039   0.534   2.969   0.720  4.0505  2.5795 -2.5472
 5160TIP3    H237040   0.620   2.981   0.844  0.0005  1.0413  0.6507
 5161TIP3   OH237041   3.533   5.924   8.723 -0.1997 -0.4500 -0.5612
 5161TIP3    H137042   3.446   5.963   8.729  0.4286  0.8492  0.5348
 5161TIP3    H237043   3.570   5.960   8.643 -0.8496 -1.4578 -1.3474
 5162TIP3   OH237044   2.981   0.159   8.326  0.2225 -0.2136  0.0110
 5162TIP3    H137045   2.986   0.247   8.364 -0.3231  0.0758 -0.5838
 5162TIP3    H237046   2.907   0.117   8.370 -0.4008  0.1168 -0.6998
 5163TIP3   OH237047   2.881   5.492   7.038 -0.7991 -0.6407 -0.2672
 5163TIP3    H137048   2.786   5.490   7.027 -0.9272  0.1388  0.6152
 5163TIP3    H237049   2.895   5.489   7.133  0.0620 -0.8109 -0.3852
 5164TIP3   OH237050   0.355   5.511   0.306 -0.2528  0.1909  0.2857
 5164TIP3    H137051   0.332   5.578   0.370  0.9739  0.7308  0.1859
 5164TIP3    H237052   0.445   5.531   0.281  0.0822 -1.3938  0.1219
 5165TIP3   OH237053   3.124   6.341   8.658 -0.4475  0.0854  0.2659
 5165TIP3    H137054   3.052   6.402   8.643  1.5859  3.1495  2.0046
 5165TIP3    H237055   3.203   6.393   8.649  1.5850 -2.7978 -0.1166
 5166TIP3   OH237056   1.985   5.985   1.509  0.9098 -0.3549  0.0294
 5166TIP3    H137057   1.988   5.960   1.602  1.2096  1.5290  0.5780
 5166TIP3    H237058   1.993   6.080   1.510  0.2590 -0.2411 -1.9203
 5167TIP3   OH237059   0.666   4.470   1.208 -0.2116  0.1971  0.0800
 5167TIP3    H137060   0.662   4.375   1.208 -1.0372  0.2140 -0.8002
 5167TIP3    H237061   0.732   4.492   1.274 -0.4894 -0.9597  0.7622
 5168TIP3   OH237062   6.656   0.594   6.468 -0.4140 -0.0436  0.3312
 5168TIP3    H137063   6.653   0.686   6.440  1.9390  0.0868  0.3696
 5168TIP3    H237064   6.583   0.586   6.530 -0.0843  2.0724  1.0796
 5169TIP3   OH237065   3.663   1.549   2.627  0.4119 -0.4431  0.0648
 5169TIP3    H137066   3.637   1.641   2.621  1.5124  0.0074  1.5743
 5169TIP3    H237067   3.641   1.524   2.717  0.4307 -1.5661 -0.2316
 5170TIP3   OH237068   1.433   1.639   8.466 -0.3278  0.0970 -0.1679
 5170TIP3    H137069   1.501   1.608   8.405  0.5354 -0.1123  0.8689
 5170TIP3    H237070   1.399   1.559   8.506  0.2667  0.3166  0.8091
 5171TIP3   OH237071   0.103   3.628   2.111 -0.2886  0.3428 -0.6106
 5171TIP3    H137072   0.137   3.644   2.023  1.2206 -0.4758 -0.1988
 5171TIP3    H237073   0.077   3.536   2.111  1.2823 -0.1210  0.2824
 5172TIP3   OH237074   2.233   4.276   1.032  0.3398  0.0388  0.4445
 5172TIP3    H137075   2.298   4.248   0.968  0.1231 -1.6700  0.9385
 5172TIP3    H237076   2.284   4.302   1.109  0.4846 -0.6153  0.5753
 5173TIP3   OH237077   0.939   0.662   2.525 -0.3846  0.1690 -0.2751
 5173TIP3    H137078   0.852   0.660   2.565  0.0267 -1.6562  0.6482
 5173TIP3    H237079   0.997   0.691   2.596  0.2618 -2.4796  0.3898
 5174TIP3   OH237080   3.741   4.071   8.444  0.4595  0.3130  0.2175
 5174TIP3    H137081   3.678   4.126   8.489  1.2128  0.0695  1.6336
 5174TIP3    H237082   3.701   3.984   8.442  0.7208  0.1621  1.1028
 5175TIP3   OH237083   4.350   3.447   7.218 -0.5418 -0.6346 -0.3754
 5175TIP3    H137084   4.396   3.524   7.251 -1.1174  0.0588 -1.1566
 5175TIP3    H237085   4.259   3.473   7.213 -0.8105 -1.5060 -0.2689
 5176TIP3   OH237086   4.197   6.362   0.895  0.5242  0.3755 -0.5952
 5176TIP3    H137087   4.250   6.433   0.929 -1.4574  1.1673  1.0555
 5176TIP3    H237088   4.116   6.404   0.865  0.4047 -0.8756 -2.1770
 5177TIP3   OH237089   6.647   4.370   8.723 -0.3992 -0.5800 -0.1619
 5177TIP3    H137090   6.662   4.350   8.630 -0.8186 -1.0841 -0.1260
 5177TIP3    H237091   6.673   4.462   8.732  0.3079 -0.7209 -0.6275
 5178TIP3   OH237092   4.546   3.748   8.650 -0.0748  0.3338  0.2934
 5178TIP3    H137093   4.485   3.749   8.576  0.9215 -0.9192 -0.5807
 5178TIP3    H237094   4.610   3.681   8.628  0.8192  0.6182  1.8557
 5179TIP3   OH237095   1.752   2.850   0.206 -0.5523  0.3987  0.1024
 5179TIP3    H137096   1.668   2.886   0.178  0.0086  1.5497 -0.1404
 5179TIP3    H237097   1.769   2.779   0.144 -0.8025  0.9015 -0.5543
 5180TIP3   OH237098   2.752   3.554   6.392  0.3013  0.3135  0.2645
 5180TIP3    H137099   2.782   3.580   6.479 -0.6115  0.1866  0.6200
 5180TIP3    H237100   2.695   3.625   6.363 -0.5194 -0.2978  0.3603
 5181TIP3   OH237101   1.778   5.163   0.035 -0.0484  0.2804 -0.0517
 5181TIP3    H137102   1.794   5.248  -0.005 -0.7476  0.4358 -0.0141
 5181TIP3    H237103   1.709   5.124  -0.019  0.1483 -0.1889  0.0330
 5182TIP3   OH237104   0.846   3.794   6.690  0.2966 -0.2687 -0.1060
 5182TIP3    H137105   0.847   3.727   6.757 -1.5258 -1.3310 -1.0564
 5182TIP3    H237106   0.929   3.841   6.702  1.3313 -2.2246  1.0247
 5183TIP3   OH237107   6.348   6.076   6.969 -0.1370  0.2165 -0.5986
 5183TIP3    H137108   6.270   6.064   6.915 -0.2053 -0.6423 -0.3176
 5183TIP3    H237109   6.408   6.126   6.914 -1.1535  1.5540 -0.5497
 5184TIP3   OH237110   1.074   0.073   1.329 -0.0702  0.7105  0.4579
 5184TIP3    H137111   1.103   0.010   1.395 -0.5779  0.6513  0.6307
 5184TIP3    H237112   1.031   0.142   1.379 -0.6077  0.5829  0.1791
 5185TIP3   OH237113   5.214   2.193   8.269 -0.0379 -0.6334 -0.1884
 5185TIP3    H137114   5.240   2.144   8.348  0.6665  2.2262  1.4866
 5185TIP3    H237115   5.119   2.202   8.277  0.1612  0.7749  1.1431
 5186TIP3   OH237116   3.245   2.669   0.421  0.6713 -0.5467  0.3151
 5186TIP3    H137117   3.276   2.760   0.422 -0.9760  0.0720 -1.2662
 5186TIP3    H237118   3.314   2.621   0.375  0.3621  0.4068 -1.2120
 5187TIP3   OH237119   3.718   3.078   7.525 -0.9813 -0.0372  0.3820
 5187TIP3    H137120   3.806   3.080   7.564 -0.9449  0.5931  0.2772
 5187TIP3    H237121   3.672   3.152   7.566 -1.6679 -0.7421  0.9082
 5188TIP3   OH237122   2.066   1.649   8.063 -0.7004 -0.2467 -0.1146
 5188TIP3    H137123   2.055   1.666   7.970 -4.4754  1.8046  0.5246
 5188TIP3    H237124   2.137   1.707   8.090 -0.9443  0.6644 -1.3502
 5189TIP3   OH237125   3.220   1.604   8.039 -0.6400  0.0276  0.1945
 5189TIP3    H137126   3.160   1.580   8.109 -1.6047  2.4277  0.2654
 5189TIP3    H237127   3.214   1.699   8.032  1.5849  0.1617 -1.2397
 5190TIP3   OH237128   4.273   3.926   8.152 -0.2812 -0.3941  0.4586
 5190TIP3    H137129   4.302   3.954   8.238  1.1702 -1.5096  0.3613
 5190TIP3    H237130   4.352   3.897   8.107 -1.4135 -3.2755  0.0727
 5191TIP3   OH237131   1.638   6.511   1.053 -0.4764 -0.1469  1.0173
 5191TIP3    H137132   1.656   6.605   1.049  0.1925 -0.2979  0.2442
 5191TIP3    H237133   1.573   6.496   0.985  0.3388 -0.4341  0.2864
 5192TIP3   OH237134   5.437   4.046   0.785  0.1329  0.0240  0.0864
 5192TIP3    H137135   5.530   4.052   0.804  0.5092  1.5797 -1.9657
 5192TIP3    H237136   5.395   4.096   0.856  1.0757  1.4215 -0.3043
 5193TIP3   OH237137   1.496   4.101   2.171 -0.4471  0.1379  0.3610
 5193TIP3    H137138   1.543   4.037   2.224  0.3232 -0.3372 -0.8451
 5193TIP3    H237139   1.404   4.076   2.180 -0.1819 -1.0128  0.0985
 5194TIP3   OH237140   4.272   6.677   0.489  0.2059  0.0617  0.0330
 5194TIP3    H137141   4.332   6.751   0.487 -0.5327  0.6686 -1.2174
 5194TIP3    H237142   4.185   6.717   0.493 -0.1736 -0.7638  0.2749
 5195TIP3   OH237143   6.234   0.312   6.889  0.0828 -0.1292 -0.0175
 5195TIP3    H137144   6.236   0.404   6.914 -0.3769 -0.0297 -0.3220
 5195TIP3    H237145   6.321   0.294   6.855 -0.3777  0.7355 -1.8136
 5196TIP3   OH237146   3.588   5.591   1.537  0.7929  0.2422  0.3656
 5196TIP3    H137147   3.537   5.510   1.540 -1.9337  1.8623  1.0731
 5196TIP3    H237148   3.679   5.563   1.551  0.3080 -2.8908 -1.8118
 5197TIP3   OH237149   4.087   1.572   1.454  0.2782 -0.1797  0.2837
 5197TIP3    H137150   4.070   1.665   1.437  0.8535 -0.0146  0.6103
 5197TIP3    H237151   4.138   1.571   1.534  3.7671 -0.5116 -1.7526
 5198TIP3   OH237152   0.775   5.964   7.030 -0.0006 -0.5393  0.0265
 5198TIP3    H137153   0.804   6.050   7.001  1.0794 -1.0090 -0.3380
 5198TIP3    H237154   0.711   5.937   6.964  0.8035 -0.6585 -0.7299
 5199TIP3   OH237155   3.095   3.949   8.449 -0.7747  0.6907 -0.0035
 5199TIP3    H137156   3.018   3.984   8.404 -0.4794  0.9687 -0.3077
 5199TIP3    H237157   3.117   4.015   8.515  0.2525  1.5045 -1.1004
 5200TIP3   OH237158   6.649   0.022   1.184  0.6024 -0.5031  0.8084
 5200TIP3    H137159   6.668  -0.020   1.100 -0.9915 -2.0900  1.1780
 5200TIP3    H237160   6.562   0.060   1.171  0.3141 -0.8188  1.7438
 5201TIP3   OH237161   2.009   1.677   6.661  0.1292 -0.0534  0.0020
 5201TIP3    H137162   1.927   1.662   6.614  0.1772 -0.3047 -0.0033
 5201TIP3    H237163   2.057   1.739   6.606  0.1632 -0.3070 -0.2573
 5202TIP3   OH237164   2.872   2.449   0.433  0.2034  0.1469 -0.5252
 5202TIP3    H137165   2.831   2.522   0.385  2.1915  0.1489 -2.3391
 5202TIP3    H237166   2.807   2.379   0.429 -0.0153  0.4059 -2.6115
 5203TIP3   OH237167   4.142   4.478   7.731 -0.1090  0.3416  0.0451
 5203TIP3    H137168   4.191   4.545   7.684 -1.6993  1.6796  0.1675
 5203TIP3    H237169   4.079   4.445   7.667  1.5683 -2.1757 -0.4616
 5204TIP3   OH237170   4.160   5.789   1.370 -0.3883  0.5142  0.0863
 5204TIP3    H137171   4.091   5.730   1.339 -0.1760  0.4894 -0.3373
 5204TIP3    H237172   4.198   5.744   1.446 -0.3590  0.1997 -0.1153
 5205TIP3   OH237173   6.208   4.125   1.303  0.2693  0.0295  0.3782
 5205TIP3    H137174   6.252   4.041   1.290 -0.4344 -0.1610 -0.9864
 5205TIP3    H237175   6.127   4.102   1.349 -0.5800 -0.2790 -1.1699
 5206TIP3   OH237176   3.694   1.780   7.839  0.0548  0.8459 -0.5354
 5206TIP3    H137177   3.764   1.749   7.782 -0.9550 -4.4015  0.6019
 5206TIP3    H237178   3.617   1.784   7.784 -0.3823 -1.6865 -0.1892
 5207TIP3   OH237179   3.759   2.087   8.244  0.4721  0.6235  0.3407
 5207TIP3    H137180   3.758   2.035   8.325 -1.6765 -0.5246 -0.3585
 5207TIP3    H237181   3.778   2.023   8.175  1.8460  1.5193 -0.1516
 5208TIP3   OH237182   1.679   2.193   0.137 -0.7310  0.0125 -0.1082
 5208TIP3    H137183   1.651   2.283   0.154  0.7218  0.8011 -1.6198
 5208TIP3    H237184   1.775   2.198   0.138 -0.6323 -1.4990 -0.3952
 5209TIP3   OH237185   6.813   1.202   7.633  0.2311  0.6466  0.6194
 5209TIP3    H137186   6.745   1.158   7.582 -1.1977  1.9682  1.2894
 5209TIP3    H237187   6.895   1.178   7.589 -0.5915 -1.4061  0.0888
 5210TIP3   OH237188   1.764   1.703   6.557 -0.3203 -0.7373  0.5901
 5210TIP3    H137189   1.669   1.712   6.552 -0.2924 -0.8865 -1.1609
 5210TIP3    H237190   1.796   1.792   6.565 -0.5814 -0.5234 -0.5003
 5211TIP3   OH237191   4.653   4.872   1.248 -0.5257  0.1478 -0.4020
 5211TIP3    H137192   4.625   4.899   1.160  0.2007  2.6318  0.0548
 5211TIP3    H237193   4.591   4.916   1.306 -1.5080 -2.1213  0.3843
 5212TIP3   OH237194   4.566   3.932   7.153 -0.9403 -0.0252 -0.2006
 5212TIP3    H137195   4.603   4.016   7.180 -1.0509 -0.3148  0.8833
 5212TIP3    H237196   4.508   3.907   7.225 -2.2289 -0.2260 -1.2612
 5213TIP3   OH237197   2.602   1.180   8.094  0.2119  0.2799 -0.2319
 5213TIP3    H137198   2.670   1.248   8.094  1.8426 -1.2518  1.3075
 5213TIP3    H237199   2.638   1.111   8.038  0.1746 -0.7467  0.9744
 5214TIP3   OH237200   5.850   2.879   0.245  0.3193 -0.4856  0.1982
 5214TIP3    H137201   5.777   2.816   0.244  0.2496 -0.4010 -1.1884
 5214TIP3    H237202   5.809   2.962   0.222  1.0228 -0.6505 -1.7646
 5215TIP3   OH237203   0.840   3.462   7.157 -0.1712 -0.1783  0.4092
 5215TIP3    H137204   0.929   3.433   7.136 -1.1609 -1.3481 -2.6851
 5215TIP3    H237205   0.822   3.532   7.095 -0.8902  1.1895  2.0924
 5216TIP3   OH237206   4.432   4.833   2.474  0.7000  0.3921  0.1222
 5216TIP3    H137207   4.452   4.781   2.551  0.2448 -0.5253 -0.3677
 5216TIP3    H237208   4.517   4.843   2.430  0.5664 -1.2473 -0.5710
 5217TIP3   OH237209   5.591   2.369   7.338 -0.2544 -0.0004 -1.0648
 5217TIP3    H137210   5.605   2.379   7.432 -3.7353 -0.6503 -0.3736
 5217TIP3    H237211   5.590   2.275   7.323  1.9652  0.0659 -2.1691
 5218TIP3   OH237212   6.434   0.060   0.043  0.2855  0.3564 -0.1057
 5218TIP3    H137213   6.452   0.143  -0.002 -0.4387  1.6693  1.8944
 5218TIP3    H237214   6.513   0.043   0.094  0.1661  0.1608  0.0135
 5219TIP3   OH237215   4.637   0.192   2.299  0.0522  1.0654 -0.0062
 5219TIP3    H137216   4.625   0.234   2.385  0.9022 -1.3301  1.3877
 5219TIP3    H237217   4.731   0.200   2.282  0.5637 -1.5535  1.1099
 5220TIP3   OH237218   6.758   6.216   8.343  0.0576  0.2391 -0.5575
 5220TIP3    H137219   6.820   6.189   8.276 -1.2242 -0.8777 -1.3387
 5220TIP3    H237220   6.806   6.280   8.396  2.7764 -2.4105  0.4658
 5221TIP3   OH237221   5.435   0.984   8.055  0.7438 -0.3899 -0.5941
 5221TIP3    H137222   5.491   0.971   8.132 -0.2230  0.7174  0.3397
 5221TIP3    H237223   5.434   0.899   8.012 -1.2456 -2.0428  2.3815
 5222TIP3   OH237224   2.389   1.035   7.308 -0.3751 -0.2452 -0.5384
 5222TIP3    H137225   2.469   0.998   7.343 -0.7482 -0.8101 -0.2667
 5222TIP3    H237226   2.376   1.116   7.358  0.7105  0.5411 -1.4815
 5223TIP3   OH237227   4.594   4.962   1.943  0.1037 -0.9097  0.0483
 5223TIP3    H137228   4.513   4.925   1.907 -0.3403  0.2198 -0.1611
 5223TIP3    H237229   4.614   5.036   1.886  0.7973 -0.6370  0.6280
 5224TIP3   OH237230   3.614   5.166   0.460  0.4774 -0.2598  0.5204
 5224TIP3    H137231   3.657   5.098   0.512 -0.0393 -0.5744  0.5505
 5224TIP3    H237232   3.533   5.125   0.431 -0.2935  0.6430  1.3150
 5225TIP3   OH237233   6.002   5.209   7.146  0.1471 -0.2849  0.3598
 5225TIP3    H137234   5.911   5.238   7.141 -0.0003 -0.9419 -1.1271
 5225TIP3    H237235   6.023   5.178   7.058  1.4301 -1.2808  0.9755
 5226TIP3   OH237236   6.808   4.014   8.075  0.3695 -0.2365 -0.2912
 5226TIP3    H137237   6.841   3.943   8.020 -0.9257 -1.8598  0.9284
 5226TIP3    H237238   6.815   4.092   8.020  0.1474 -1.5894 -2.3452
 5227TIP3   OH237239   6.386   3.154   7.240 -0.1462  0.6474 -0.5260
 5227TIP3    H137240   6.296   3.143   7.271 -0.2747  0.6263 -0.8988
 5227TIP3    H237241   6.380   3.226   7.177 -0.0826 -0.0203 -1.3033
 5228TIP3   OH237242   5.920   2.424   7.659 -0.1976  0.4576 -0.0292
 5228TIP3    H137243   5.922   2.341   7.707 -0.2847  0.9258  0.8003
 5228TIP3    H237244   5.834   2.424   7.616  0.5959 -0.8019 -1.7381
 5229TIP3   OH237245   4.547   1.218   1.914 -0.7968  0.3978 -0.4669
 5229TIP3    H137246   4.511   1.230   2.002 -0.7612 -2.1071 -0.0496
 5229TIP3    H237247   4.641   1.233   1.925 -0.4995 -1.7320  0.3981
 5230TIP3   OH237248   4.392   5.361   0.058  0.0086 -0.2163  0.7935
 5230TIP3    H137249   4.320   5.340  -0.003  2.1182  0.3174 -2.0890
 5230TIP3    H237250   4.437   5.278   0.071  0.2231 -0.1116  0.7146
 5231TIP3   OH237251   5.424   0.114   0.499 -0.4411 -0.5935 -0.1954
 5231TIP3    H137252   5.454   0.165   0.574  0.8338  1.3617 -1.9071
 5231TIP3    H237253   5.340   0.153   0.475  0.1322  0.1992 -0.9895
 5232TIP3   OH237254   3.315   6.663   7.550 -0.2764  0.0141 -0.0045
 5232TIP3    H137255   3.341   6.574   7.524 -0.1024 -0.5937  2.0208
 5232TIP3    H237256   3.374   6.721   7.502  0.0638 -0.9951 -0.8477
 5233TIP3   OH237257   0.927   3.476   0.158 -0.2983 -0.2387 -0.3203
 5233TIP3    H137258   0.934   3.384   0.183  2.2941 -0.4704 -1.6218
 5233TIP3    H237259   0.975   3.523   0.227 -2.8377  0.4001  1.1487
 5234TIP3   OH237260   3.210   0.522   0.783 -0.0006  0.0777 -0.2473
 5234TIP3    H137261   3.251   0.466   0.717  0.4822 -0.9437  0.8757
 5234TIP3    H237262   3.123   0.484   0.796  0.1573 -0.1523  0.1815
 5235TIP3   OH237263   6.556   2.393   0.132 -0.3008  0.4823  0.2190
 5235TIP3    H137264   6.583   2.408   0.223 -0.5019 -1.9215  0.7410
 5235TIP3    H237265   6.472   2.348   0.139 -0.5388  0.6686 -1.1886
 5236TIP3   OH237266   4.906   1.063   0.674 -0.6357 -0.5212 -0.0698
 5236TIP3    H137267   4.939   1.047   0.585  0.4958 -3.0383  0.7102
 5236TIP3    H237268   4.828   1.007   0.681 -1.6677  0.8743  0.0594
 5237TIP3   OH237269   2.255   4.670   1.772 -0.8218  0.0183  0.0580
 5237TIP3    H137270   2.313   4.620   1.715 -1.0866  0.3399 -0.5142
 5237TIP3    H237271   2.178   4.688   1.717 -0.1591  2.2338 -0.2273
 5238TIP3   OH237272   3.900   0.617   8.358  0.5949 -0.3729  0.6032
 5238TIP3    H137273   3.916   0.523   8.347  2.3968 -0.2515  1.7115
 5238TIP3    H237274   3.940   0.658   8.281 -0.1500 -0.4909  0.1436
 5239TIP3   OH237275   6.357   5.332   8.368 -0.2437 -0.1868  0.0689
 5239TIP3    H137276   6.381   5.239   8.359  0.9898  0.1166  0.1174
 5239TIP3    H237277   6.278   5.330   8.423  0.1450 -1.1750  0.6327
 5240TIP3   OH237278   3.336   4.247   7.826 -0.5832 -0.0797 -0.0384
 5240TIP3    H137279   3.369   4.178   7.883 -0.0441  0.7737  0.7162
 5240TIP3    H237280   3.343   4.327   7.878 -0.0501  0.7361 -1.3133
 5241TIP3   OH237281   3.794   6.117   8.093 -0.7221  0.0629  0.4744
 5241TIP3    H137282   3.736   6.072   8.032  1.0901 -0.5680 -0.8505
 5241TIP3    H237283   3.834   6.187   8.042  0.0247  0.2069  1.2331
 5242TIP3   OH237284   5.293   4.082   8.695  1.0916  0.2935 -0.7372
 5242TIP3    H137285   5.376   4.059   8.654  2.6270  1.2118  1.6461
 5242TIP3    H237286   5.288   4.026   8.772 -1.7060 -1.3861 -1.9827
 5243TIP3   OH237287   4.708   0.276   8.120 -0.6009  1.0918  0.3242
 5243TIP3    H137288   4.787   0.255   8.170 -0.2355  0.8785 -0.3240
 5243TIP3    H237289   4.660   0.193   8.116  0.4507  0.5111 -1.5482
 5244TIP3   OH237290   6.204   0.173   0.134  0.3934 -0.0353 -0.2869
 5244TIP3    H137291   6.278   0.115   0.118  0.5629 -0.0923  0.6254
 5244TIP3    H237292   6.154   0.129   0.202  0.4742  0.8390  0.3536
 5245TIP3   OH237293   4.077   0.201   1.335 -0.4001  0.2284 -0.4871
 5245TIP3    H137294   4.027   0.240   1.408 -0.7073 -0.2718 -0.4270
 5245TIP3    H237295   4.168   0.214   1.359 -0.4288 -2.0704  1.2016
 5246TIP3   OH237296   0.792   4.220   0.041 -0.4609  0.6614  0.3233
 5246TIP3    H137297   0.784   4.127   0.020  2.1079  0.1967  1.0787
 5246TIP3    H237298   0.776   4.265  -0.042  1.5938 -0.6747 -0.8683
 5247TIP3   OH237299   0.135   1.676   7.828  0.3333 -0.1173  0.0815
 5247TIP3    H137300   0.154   1.709   7.740 -0.2367 -0.4479 -0.1671
 5247TIP3    H237301   0.039   1.675   7.833  0.3647  0.1279  0.7939
 5248TIP3   OH237302   1.872   1.089   1.674  0.3372 -0.5405  0.4846
 5248TIP3    H137303   1.826   1.032   1.613  0.3935 -1.2441  1.0926
 5248TIP3    H237304   1.961   1.054   1.679  1.3511  1.4894 -1.5737
 5249TIP3   OH237305   4.005   2.060   6.501  0.2788 -0.3684  0.6353
 5249TIP3    H137306   3.915   2.079   6.474 -0.0202 -1.0494  1.1208
 5249TIP3    H237307   3.998   1.981   6.553  1.5937 -2.4321 -2.0740
 5250TIP3   OH237308   2.474   6.212   1.309 -0.3090  0.7010  0.1551
 5250TIP3    H137309   2.525   6.198   1.230 -0.6282  1.7220 -0.2478
 5250TIP3    H237310   2.493   6.136   1.364  0.5991  0.4190 -0.5322
 5251TIP3   OH237311   0.547   6.293   6.843 -1.2058  0.2543 -0.3931
 5251TIP3    H137312   0.527   6.202   6.822 -0.2754 -0.1685  0.4500
 5251TIP3    H237313   0.468   6.341   6.820 -0.9700 -0.4244 -2.9375
 5252TIP3   OH237314   6.346   5.579   7.125 -0.1671 -0.1148  0.0303
 5252TIP3    H137315   6.281   5.648   7.113 -0.2586 -0.0704  0.7333
 5252TIP3    H237316   6.307   5.520   7.190  1.6759  1.4796  2.7545
 5253TIP3   OH237317   3.509   0.605   1.565  0.4752  0.3032  0.3397
 5253TIP3    H137318   3.542   0.515   1.571 -0.2732  0.0022  0.0993
 5253TIP3    H237319   3.452   0.604   1.488 -0.9919  0.5033  1.3792
 5254TIP3   OH237320   2.743   4.379   0.170 -0.5493 -0.3362 -1.1174
 5254TIP3    H137321   2.824   4.353   0.128  1.4325  0.2746  1.9735
 5254TIP3    H237322   2.724   4.309   0.233  0.0310  1.4059  1.1445
 5255TIP3   OH237323   2.009   2.896   1.146  0.0368  0.3957 -0.0627
 5255TIP3    H137324   1.929   2.898   1.198 -1.2747  1.2522 -1.9914
 5255TIP3    H237325   2.070   2.953   1.192 -0.1832 -0.7714  1.7758
 5256TIP3   OH237326   6.665   4.248   0.686 -0.0004 -0.7776  0.5784
 5256TIP3    H137327   6.570   4.243   0.677 -0.0165 -1.0580  0.9004
 5256TIP3    H237328   6.691   4.317   0.624 -0.3874 -0.8466  0.3339
 5257TIP3   OH237329   2.170   0.612   0.327 -0.3310 -0.0466 -0.6538
 5257TIP3    H137330   2.120   0.540   0.364 -0.9731  0.5209 -0.3999
 5257TIP3    H237331   2.156   0.685   0.387 -0.8609  0.7024 -1.6443
 5258TIP3   OH237332   4.789   0.991   7.779 -0.7014 -0.3427 -0.1320
 5258TIP3    H137333   4.765   1.053   7.710  0.1302  0.2630  0.1079
 5258TIP3    H237334   4.714   0.932   7.786 -0.2722 -1.3018 -2.5290
 5259TIP3   OH237335   4.395   1.624   7.579 -0.2479 -0.1830 -0.0332
 5259TIP3    H137336   4.377   1.708   7.538 -0.0003 -0.9707 -1.8707
 5259TIP3    H237337   4.311   1.577   7.575 -0.4317  0.0122  1.1403
 5260TIP3   OH237338   1.077   5.496   8.601 -0.4789  0.0373  0.0046
 5260TIP3    H137339   1.059   5.416   8.652  1.3104 -0.1249  0.4331
 5260TIP3    H237340   1.150   5.472   8.544  1.5860  1.9465  1.6809
 5261TIP3   OH237341   2.560   3.623   6.919 -0.0996 -0.0272  0.0770
 5261TIP3    H137342   2.556   3.605   6.825  0.5459 -1.9826  0.3899
 5261TIP3    H237343   2.511   3.552   6.959  2.6702 -1.3706  1.3929
 5262TIP3   OH237344   5.383   6.195   0.684  0.5560  0.4083 -0.3635
 5262TIP3    H137345   5.389   6.208   0.589  0.1766  1.9510 -0.1997
 5262TIP3    H237346   5.324   6.263   0.714  0.4386 -0.2420  0.9664
 5263TIP3   OH237347   4.930   2.302   8.054 -0.6988 -0.4629 -0.0753
 5263TIP3    H137348   4.996   2.237   8.077  2.0490  1.2938 -2.2415
 5263TIP3    H237349   4.895   2.271   7.970  1.6622  1.2850 -1.8793
 5264TIP3   OH237350   3.573   2.375   7.070  0.0582  0.5914 -0.2872
 5264TIP3    H137351   3.560   2.428   7.149 -2.6670  0.7133 -0.7209
 5264TIP3    H237352   3.584   2.439   7.000 -2.1844  0.6434 -0.6515
 5265TIP3   OH237353   5.079   6.431   2.483  0.0052 -0.2108  0.0081
 5265TIP3    H137354   5.128   6.349   2.490  0.1812  0.0215  2.5332
 5265TIP3    H237355   4.988   6.403   2.478  0.0280 -0.5972  1.3236
 5266TIP3   OH237356   2.665   4.165   0.341 -0.6712 -0.0257  0.0183
 5266TIP3    H137357   2.716   4.217   0.403 -0.6448  0.9120 -0.7723
 5266TIP3    H237358   2.594   4.222   0.314 -0.4935 -0.2928 -1.0640
 5267TIP3   OH237359   6.743   1.337   8.027 -0.2192  0.1293  0.3613
 5267TIP3    H137360   6.804   1.276   8.069  1.0774  0.7948 -0.4582
 5267TIP3    H237361   6.794   1.374   7.954 -0.5791  2.9081  1.4024
 5268TIP3   OH237362   1.730   0.683   0.624 -0.3698 -0.5606 -0.2338
 5268TIP3    H137363   1.778   0.616   0.672 -1.3752 -1.3025 -0.2270
 5268TIP3    H237364   1.793   0.719   0.562  0.3861 -0.9986  0.2691
 5269TIP3   OH237365   6.318   3.293   8.037 -0.0730 -1.0381 -0.0260
 5269TIP3    H137366   6.350   3.226   8.097  1.6667  0.1739  0.4937
 5269TIP3    H237367   6.367   3.278   7.956 -0.2549 -0.8915 -0.1636
 5270TIP3   OH237368   0.526   0.719   0.699  0.1467  0.2613 -0.4622
 5270TIP3    H137369   0.584   0.655   0.740  0.4978 -1.2356 -3.0847
 5270TIP3    H237370   0.438   0.683   0.712  0.2943 -0.4542 -1.3993
 5271TIP3   OH237371   2.826   5.097   6.422 -0.1255  0.3282  0.4027
 5271TIP3    H137372   2.767   5.125   6.492 -1.3501  0.4070 -0.6161
 5271TIP3    H237373   2.887   5.170   6.411 -1.7793  1.6456 -0.5879
 5272TIP3   OH237374   0.139   3.515   8.290  0.2901 -0.4361 -0.2583
 5272TIP3    H137375   0.053   3.552   8.272  0.9094  0.4503 -1.5969
 5272TIP3    H237376   0.197   3.590   8.301  0.9896 -1.0098  0.1356
 5273TIP3   OH237377   4.284   3.540   2.553 -0.7678 -0.0204 -0.6116
 5273TIP3    H137378   4.304   3.503   2.639 -1.5810  0.0999 -0.3554
 5273TIP3    H237379   4.248   3.627   2.573  0.1556  0.4887 -1.1432
 5274TIP3   OH237380   4.849   5.271   7.094  0.1401 -0.3253  0.0844
 5274TIP3    H137381   4.770   5.240   7.050 -0.3722 -2.1274  2.0779
 5274TIP3    H237382   4.915   5.205   7.074  1.0279  0.8980 -1.1414
 5275TIP3   OH237383   6.695   3.795   1.336 -0.6674 -0.1657  0.0685
 5275TIP3    H137384   6.738   3.780   1.420  0.7537  5.1477  0.6157
 5275TIP3    H237385   6.766   3.816   1.276 -1.9574  0.8094 -1.1874
 5276TIP3   OH237386   6.125   6.112   6.796  0.5520 -0.3985 -0.4194
 5276TIP3    H137387   6.032   6.135   6.802 -0.7635 -4.1996 -2.7105
 5276TIP3    H237388   6.163   6.181   6.743 -1.4772  0.1703 -1.2425
 5277TIP3   OH237389   4.585   2.665   0.469  0.1114  0.1445  0.3410
 5277TIP3    H137390   4.662   2.708   0.431  0.9981 -0.1782  1.6846
 5277TIP3    H237391   4.614   2.639   0.557 -1.9381  1.1298  1.3512
 5278TIP3   OH237392   6.071   4.868   8.036  0.4230  0.8321  0.1897
 5278TIP3    H137393   5.996   4.926   8.049  0.8531  1.0905  1.7591
 5278TIP3    H237394   6.102   4.888   7.948 -2.6660 -0.8815 -1.4293
 5279TIP3   OH237395   2.447   0.471   6.151  0.1667 -0.1287  0.2035
 5279TIP3    H137396   2.453   0.494   6.058  4.0690 -0.9144  0.0832
 5279TIP3    H237397   2.460   0.376   6.152 -0.0583 -0.1621  1.5601
 5280TIP3   OH237398   5.607   2.103   7.658 -0.6305  0.1962  0.2668
 5280TIP3    H137399   5.593   2.035   7.724 -2.4308 -1.2994 -1.5207
 5280TIP3    H237400   5.588   2.059   7.575 -2.2883  2.9928 -0.9428
 5281TIP3   OH237401   4.327   3.638   0.336  0.2473 -0.8229  0.2297
 5281TIP3    H137402   4.372   3.652   0.253  0.5822 -1.7013  0.2523
 5281TIP3    H237403   4.254   3.700   0.335 -0.1302 -1.2588 -1.0103
 5282TIP3   OH237404   2.127   5.455   6.591  0.0006  0.7735  0.2228
 5282TIP3    H137405   2.139   5.420   6.502 -1.2075  0.2465  0.2449
 5282TIP3    H237406   2.036   5.436   6.612  0.4401  0.3089  1.8367
 5283TIP3   OH237407   5.167   5.085   0.264  0.5067  0.1785  0.8060
 5283TIP3    H137408   5.212   5.033   0.198  0.6668  0.8599  0.3697
 5283TIP3    H237409   5.204   5.056   0.347  0.8830 -0.1156  0.5353
 5284TIP3   OH237410   5.190   3.416   1.136  0.1113 -0.1904 -0.9230
 5284TIP3    H137411   5.259   3.352   1.153  0.3176  0.6226  1.8438
 5284TIP3    H237412   5.158   3.439   1.223 -2.3391  0.9126 -2.0356
 5285TIP3   OH237413   2.866   0.119   8.651 -0.0037  0.2374  0.3016
 5285TIP3    H137414   2.870   0.057   8.578  2.8447 -0.0978  0.6284
 5285TIP3    H237415   2.773   0.122   8.676 -0.5206 -2.3248 -1.0402
 5286TIP3   OH237416   1.720   1.237   0.792 -0.0336 -0.3521  0.1084
 5286TIP3    H137417   1.717   1.332   0.794 -0.7943 -0.3649  0.0368
 5286TIP3    H237418   1.799   1.216   0.743 -0.4957  0.2529 -0.9247
 5287TIP3   OH237419   4.870   4.814   1.799 -0.4949 -0.0489  0.2562
 5287TIP3    H137420   4.898   4.793   1.888  0.1183 -2.0483 -0.3602
 5287TIP3    H237421   4.950   4.813   1.748 -1.1053 -1.2418 -0.7185
 5288TIP3   OH237422   1.837   4.561   0.309  0.1125  0.0707  0.5361
 5288TIP3    H137423   1.747   4.555   0.343 -0.2881 -0.5828 -0.5701
 5288TIP3    H237424   1.882   4.486   0.348 -0.5460 -1.1171 -0.8661
 5289TIP3   OH237425   3.467   2.160   0.109 -0.0356 -0.2327 -0.1996
 5289TIP3    H137426   3.441   2.151   0.201 -1.4494 -0.0323 -0.5607
 5289TIP3    H237427   3.438   2.248   0.085 -0.5440 -0.6373 -1.1019
 5290TIP3   OH237428   3.325   3.541   0.213  0.3181  0.1299  0.0899
 5290TIP3    H137429   3.242   3.566   0.171  0.3498 -0.4321 -0.3273
 5290TIP3    H237430   3.378   3.505   0.142  0.7509  0.0757  0.4360
 5291TIP3   OH237431   3.587   5.156   8.295  0.5205 -0.1400  0.1253
 5291TIP3    H137432   3.638   5.172   8.215  1.7815 -0.1753  0.8968
 5291TIP3    H237433   3.515   5.100   8.266  0.7263  0.1777 -1.0620
 5292TIP3   OH237434   5.294   1.426   0.832  0.1928  0.5427  0.2511
 5292TIP3    H137435   5.336   1.430   0.918  0.5999  1.6779  0.0147
 5292TIP3    H237436   5.328   1.345   0.793  1.1897  0.8031  0.5596
 5293TIP3   OH237437   0.218   0.926   0.759  0.3964  0.7249 -0.0605
 5293TIP3    H137438   0.304   0.964   0.777 -0.6705  2.5537  1.5353
 5293TIP3    H237439   0.157   0.979   0.810 -2.0409  1.3077 -3.2340
 5294TIP3   OH237440   0.115   0.759   0.390  0.6371  0.0364  0.2337
 5294TIP3    H137441   0.172   0.709   0.448  1.8091 -0.1519 -0.9959
 5294TIP3    H237442   0.128   0.850   0.417 -0.5374 -0.1869  1.6614
 5295TIP3   OH237443   0.856   4.408   7.611  0.1772 -0.2204 -0.0196
 5295TIP3    H137444   0.842   4.394   7.517  0.2362 -0.9750  0.0810
 5295TIP3    H237445   0.839   4.501   7.624  0.0012 -0.1454 -0.7498
 5296TIP3   OH237446   5.446   4.391   0.532  0.0098  0.0529 -0.3768
 5296TIP3    H137447   5.477   4.310   0.490 -0.0825 -0.5811  0.7399
 5296TIP3    H237448   5.354   4.397   0.509  0.0677 -0.0500 -0.6348
 5297TIP3   OH237449   5.459   5.454   2.103  0.1711  0.1048 -0.2649
 5297TIP3    H137450   5.540   5.422   2.143  0.6565  0.5765 -0.8374
 5297TIP3    H237451   5.399   5.380   2.106  0.1770  0.1396  1.3433
 5298TIP3   OH237452   5.926   5.022   1.581 -0.3278  0.5117 -0.5684
 5298TIP3    H137453   5.890   5.088   1.640 -1.8106  0.0888 -0.9525
 5298TIP3    H237454   5.898   4.939   1.617  1.3811  0.0539 -0.1863
 5299TIP3   OH237455   6.340   4.751   0.648  0.1384  0.5476  0.0237
 5299TIP3    H137456   6.262   4.787   0.606 -0.1588 -0.0597  0.0508
 5299TIP3    H237457   6.319   4.750   0.741  0.0855  0.1759  0.0112
 5300TIP3   OH237458   3.038   3.598   7.279 -0.7575 -0.4006  0.1005
 5300TIP3    H137459   3.042   3.653   7.201  1.2721 -0.7764 -0.1393
 5300TIP3    H237460   2.985   3.522   7.253  0.3086 -0.7673 -1.1286
 5301TIP3   OH237461   2.856   6.409   7.109  0.0972 -0.1153  0.0294
 5301TIP3    H137462   2.930   6.463   7.082  0.8592 -0.9196  0.4415
 5301TIP3    H237463   2.869   6.395   7.203  0.4949 -1.8274 -0.2472
 5302TIP3   OH237464   4.389   2.007   7.852 -0.9910 -0.1152  0.1571
 5302TIP3    H137465   4.303   1.982   7.819 -1.4384 -0.5801  1.6107
 5302TIP3    H237466   4.428   1.926   7.884 -0.2460  0.1843  0.0381
 5303TIP3   OH237467   5.537   1.946   7.876  0.2251 -0.3835 -0.2155
 5303TIP3    H137468   5.613   1.921   7.929  0.8960  0.0971 -0.9355
 5303TIP3    H237469   5.481   1.869   7.877  1.1511 -1.0843 -0.4337
 5304TIP3   OH237470   6.718   5.256   0.273 -0.9583 -0.1760  0.2913
 5304TIP3    H137471   6.677   5.182   0.229 -2.7454  1.7786 -1.5833
 5304TIP3    H237472   6.811   5.244   0.258 -1.3407 -0.9069 -2.0149
 5305TIP3   OH237473   5.271   3.372   0.840 -0.3471 -0.2227  0.1200
 5305TIP3    H137474   5.267   3.441   0.906 -1.4567  0.5517 -0.7153
 5305TIP3    H237475   5.185   3.375   0.797 -0.5255 -2.2780  0.2054
 5306TIP3   OH237476   4.236   2.946   8.263 -0.5758  0.0269  0.3686
 5306TIP3    H137477   4.155   2.946   8.212 -0.9636 -0.3645  0.9668
 5306TIP3    H237478   4.232   3.026   8.315 -1.1390 -0.5385  1.2356
 5307TIP3   OH237479   0.104   0.791   7.930  0.3200  0.3952  0.4870
 5307TIP3    H137480   0.094   0.821   8.020  2.0204 -0.3569  0.9617
 5307TIP3    H237481   0.141   0.703   7.937  0.4362  0.2995 -0.9386
 5308TIP3   OH237482   0.960   3.607   8.008  0.0773 -0.1514  0.1414
 5308TIP3    H137483   0.911   3.687   8.026 -1.0858  0.6042 -4.9466
 5308TIP3    H237484   0.917   3.540   8.061 -0.1268  2.1393  3.0972
 5309TIP3   OH237485   4.650   4.686   6.787 -0.1675  0.3022  0.8465
 5309TIP3    H137486   4.672   4.593   6.780 -1.0434  0.0749  0.9619
 5309TIP3    H237487   4.732   4.732   6.768  0.2266 -0.4889  0.5944
 5310TIP3   OH237488   2.743   5.561   7.501 -1.1315  0.3267  0.4198
 5310TIP3    H137489   2.696   5.487   7.463  0.4415  0.2362 -1.4921
 5310TIP3    H237490   2.766   5.616   7.427  2.7676 -0.2457  0.9669
 5311TIP3   OH237491   2.534   5.719   7.794  0.9072 -0.1369 -0.3826
 5311TIP3    H137492   2.536   5.630   7.829  2.6591 -1.3294 -3.1675
 5311TIP3    H237493   2.451   5.725   7.747  0.5924 -0.1384  0.1723
 5312TIP3   OH237494   0.946   1.119   0.911  0.3455 -0.2587 -0.4705
 5312TIP3    H137495   1.007   1.047   0.896  0.4032 -0.0952 -1.0419
 5312TIP3    H237496   0.996   1.183   0.961  0.0552 -0.9461  0.7534
 5313TIP3   OH237497   0.930   0.134   0.408  0.7711  0.0925  0.4986
 5313TIP3    H137498   0.917   0.114   0.315 -1.1329  0.6699  0.5944
 5313TIP3    H237499   0.976   0.218   0.408  0.9342  0.0053  0.0738
 5314TIP3   OH237500   1.148   6.778   1.899 -0.2594  0.1661 -0.1215
 5314TIP3    H137501   1.230   6.827   1.893 -0.1107 -0.2520 -2.1556
 5314TIP3    H237502   1.138   6.759   1.993  1.6838  0.6838  0.2310
 5315TIP3   OH237503   3.850   0.817   1.844  0.3169  0.0230 -0.6263
 5315TIP3    H137504   3.875   0.731   1.810 -0.2669  0.3049 -1.8206
 5315TIP3    H237505   3.910   0.878   1.802  3.1629 -0.0394  2.9242
 5316TIP3   OH237506   3.612   2.630   6.931 -0.2419  0.0384 -0.0418
 5316TIP3    H137507   3.683   2.694   6.938  0.5896 -0.6236 -1.6212
 5316TIP3    H237508   3.543   2.675   6.882 -0.1797  0.1320 -0.0424
 5317TIP3   OH237509   2.775   6.738   0.273 -0.0460  0.1886 -0.4410
 5317TIP3    H137510   2.738   6.704   0.191  2.9437  2.4989 -2.9942
 5317TIP3    H237511   2.855   6.687   0.285  0.6808  1.3672 -0.2084
 5318TIP3   OH237512   3.110   4.907   8.096  0.2267 -0.4206 -0.3485
 5318TIP3    H137513   3.160   4.987   8.084 -1.1609  0.6522  0.6150
 5318TIP3    H237514   3.077   4.885   8.009 -0.6379  0.9436 -0.3930
 5319TIP3   OH237515   1.442   5.467   0.551 -0.0482  0.5289 -0.5161
 5319TIP3    H137516   1.376   5.518   0.505  0.4437  1.1505 -0.5525
 5319TIP3    H237517   1.477   5.528   0.617 -0.6411 -0.2936  0.5923
 5320TIP3   OH237518   3.998   3.118   8.516  0.0285  0.7098  0.1801
 5320TIP3    H137519   4.090   3.143   8.527  0.2972 -0.2955  0.2771
 5320TIP3    H237520   3.987   3.043   8.575 -0.6730  0.4006 -0.3370
 5321TIP3   OH237521   2.006   3.275   7.761 -0.3019  0.7208 -0.2963
 5321TIP3    H137522   2.057   3.283   7.681 -0.8033 -1.5622 -0.9375
 5321TIP3    H237523   2.069   3.244   7.827 -0.4783 -0.3855 -0.6310
 5322TIP3   OH237524   5.351   4.831   8.288  0.4857 -0.2171  0.2061
 5322TIP3    H137525   5.391   4.751   8.323  0.6060 -0.7348 -1.0370
 5322TIP3    H237526   5.266   4.836   8.331  0.3454 -1.1981  0.0641
 5323TIP3   OH237527   0.869   2.858   1.855  0.4705  0.5130 -0.5695
 5323TIP3    H137528   0.931   2.890   1.920  1.3738 -0.8726 -0.6995
 5323TIP3    H237529   0.922   2.805   1.796 -0.8296 -0.6679 -0.7230
 5324TIP3   OH237530   0.022   4.303   7.493 -0.3022  0.0830 -0.2613
 5324TIP3    H137531  -0.056   4.253   7.471  0.4792 -0.9635 -0.7407
 5324TIP3    H237532   0.031   4.294   7.588 -1.6249  1.5399  0.0373
 5325TIP3   OH237533   5.717   6.053   2.564  0.5390  0.2190  0.1512
 5325TIP3    H137534   5.706   6.132   2.510  1.0019 -1.8312 -3.2180
 5325TIP3    H237535   5.812   6.046   2.577  0.6097 -0.4852 -0.7203
 5326TIP3   OH237536   3.790   1.429   8.430  0.3049  0.1902 -0.4118
 5326TIP3    H137537   3.720   1.383   8.477  3.1568 -2.4475  1.6226
 5326TIP3    H237538   3.753   1.444   8.342 -2.3119 -2.3380  0.0866
 5327TIP3   OH237539   1.247   2.007   0.653  0.2193 -0.1470  0.0432
 5327TIP3    H137540   1.295   2.013   0.571  0.0821  2.0732  0.0625
 5327TIP3    H237541   1.301   2.058   0.715 -1.0806  0.6121  0.5829
 5328TIP3   OH237542   0.852   6.759   2.111  0.3966 -0.1197  0.5961
 5328TIP3    H137543   0.863   6.853   2.125  0.8589 -0.0961  0.1429
 5328TIP3    H237544   0.908   6.718   2.177  0.9146 -0.0549  0.2013
 5329TIP3   OH237545   4.874   3.412   1.269  0.1194  0.0972  0.3870
 5329TIP3    H137546   4.886   3.333   1.321 -0.5485 -0.5218 -0.3740
 5329TIP3    H237547   4.781   3.411   1.245  0.5214  0.0636 -1.2839
 5330TIP3   OH237548   0.482   6.407   7.296 -0.4341 -0.2515 -0.5958
 5330TIP3    H137549   0.507   6.361   7.216 -0.2240 -0.0550 -0.6423
 5330TIP3    H237550   0.459   6.495   7.268  0.0181 -0.0622 -0.3926
 5331TIP3   OH237551   6.724   2.233   6.346 -0.2036 -0.1767 -0.1224
 5331TIP3    H137552   6.774   2.152   6.349  0.9068  0.4934 -0.1260
 5331TIP3    H237553   6.748   2.280   6.427 -3.3478 -1.2588  1.6054
 5332TIP3   OH237554   5.749   5.394   1.106  0.3227  0.0754 -0.5527
 5332TIP3    H137555   5.805   5.364   1.034  0.2567  0.3927 -0.7403
 5332TIP3    H237556   5.779   5.483   1.124 -0.6504  0.5718 -1.2241
 5333TIP3   OH237557   5.222   2.150   7.246 -0.5784 -0.4365  0.3889
 5333TIP3    H137558   5.281   2.175   7.174 -0.9006 -0.3902  0.1368
 5333TIP3    H237559   5.141   2.124   7.202 -1.3361  1.0977  0.7999
 5334TIP3   OH237560   2.070   3.430   8.594 -0.7181 -0.3117 -0.1414
 5334TIP3    H137561   1.998   3.394   8.542  0.2917 -0.8513 -1.2169
 5334TIP3    H237562   2.066   3.383   8.677 -0.2319 -2.0103 -1.0447
 5335TIP3   OH237563   5.839   3.178   1.734  0.0286  0.5281 -0.6811
 5335TIP3    H137564   5.843   3.095   1.782  0.6114 -0.0138 -1.6264
 5335TIP3    H237565   5.765   3.167   1.674 -0.8353  1.2834  0.2234
 5336TIP3   OH237566   0.410   1.099   8.611  0.2446  0.6708  0.1486
 5336TIP3    H137567   0.400   1.194   8.598 -3.2629  0.7005  1.8044
 5336TIP3    H237568   0.327   1.062   8.584 -0.3398 -1.2917  3.9309
 5337TIP3   OH237569   6.644   5.064   0.068  0.3388  0.2731  0.2699
 5337TIP3    H137570   6.639   4.969   0.060  0.9704  0.3399 -1.3143
 5337TIP3    H237571   6.553   5.092   0.081 -0.0792 -0.4395 -0.9367
 5338TIP3   OH237572   3.061   2.663   0.205 -0.3623  0.4934 -0.4513
 5338TIP3    H137573   2.971   2.682   0.233 -1.7623 -2.3513 -2.5037
 5338TIP3    H237574   3.108   2.646   0.287 -1.5730  2.2334  0.6831
 5339TIP3   OH237575   3.312   3.794   8.579 -0.1114  0.4397 -0.4249
 5339TIP3    H137576   3.230   3.807   8.532 -0.5308  0.1684  0.2151
 5339TIP3    H237577   3.305   3.851   8.655  0.1390  0.1486 -0.1799
 5340TIP3   OH237578   4.175   0.104   7.681  0.6345  0.6518  0.0428
 5340TIP3    H137579   4.264   0.070   7.679  0.3070 -0.2551  0.1655
 5340TIP3    H237580   4.125   0.045   7.624 -0.2329  0.0421  1.3641
 5341TIP3   OH237581   4.892   1.198   6.396 -0.0017 -0.0418  0.3526
 5341TIP3    H137582   4.849   1.113   6.385 -1.8327  0.6667  1.5283
 5341TIP3    H237583   4.832   1.261   6.356  1.2256  0.7572 -0.3192
 5342TIP3   OH237584   0.371   5.969   7.907 -0.1419 -0.3041 -0.3142
 5342TIP3    H137585   0.317   5.905   7.859 -0.6063 -0.6739  0.6671
 5342TIP3    H237586   0.432   5.915   7.957 -0.4203  0.0231  0.3885
 5343TIP3   OH237587   6.703   5.493   7.862  0.3765 -0.4289 -0.3459
 5343TIP3    H137588   6.749   5.414   7.891  2.7138  1.0123  0.1476
 5343TIP3    H237589   6.626   5.497   7.918  1.7719 -0.8153  1.7600
 5344TIP3   OH237590   0.057   0.559   2.255  0.3933  0.1301 -0.0378
 5344TIP3    H137591   0.120   0.612   2.208 -0.3085  0.9722 -0.0528
 5344TIP3    H237592   0.100   0.475   2.267  0.9659  0.2319 -1.2844
 5345TIP3   OH237593   2.948   2.628   1.476 -0.1467 -0.5906  0.1026
 5345TIP3    H137594   2.911   2.552   1.521 -0.2983  0.1189  1.2408
 5345TIP3    H237595   2.884   2.651   1.409 -1.0880 -0.2662  1.0822
 5346TIP3   OH237596   5.097   4.767   1.195  0.0813  0.4836 -0.7890
 5346TIP3    H137597   5.063   4.749   1.107  1.4569 -1.8754 -0.9383
 5346TIP3    H237598   5.033   4.727   1.254  0.7343 -0.8017 -0.9115
 5347TIP3   OH237599   4.218   6.259   0.337  0.1010 -0.3024 -0.0020
 5347TIP3    H137600   4.240   6.316   0.411 -1.0989 -0.9835  0.9078
 5347TIP3    H237601   4.130   6.286   0.312  0.6666  0.2445 -1.5333
 5348TIP3   OH237602   4.560   2.315   7.072 -0.1777  0.1336  0.2045
 5348TIP3    H137603   4.494   2.249   7.050  0.1509 -0.0584 -0.2200
 5348TIP3    H237604   4.632   2.264   7.110 -0.1922  0.3225  0.4882
 5349TIP3   OH237605   2.540   5.822   8.120 -0.1485 -0.3553  0.3680
 5349TIP3    H137606   2.609   5.768   8.081 -1.0965  0.1384 -2.1892
 5349TIP3    H237607   2.473   5.760   8.148 -0.0358 -0.6703 -0.0526
 5350TIP3   OH237608   6.682   2.734   2.547  0.1356 -0.4656 -0.1951
 5350TIP3    H137609   6.648   2.691   2.626  0.9019  0.4230  0.6521
 5350TIP3    H237610   6.632   2.816   2.541  0.5814 -0.1866 -0.1939
 5351TIP3   OH237611   1.983   1.099   1.160 -0.1436 -0.5685 -0.1250
 5351TIP3    H137612   2.052   1.082   1.096  0.5545  0.4218  0.3312
 5351TIP3    H237613   2.024   1.157   1.224 -1.8768  1.5208 -0.7832
 5352TIP3   OH237614   6.600   5.215   7.986  0.1121 -0.4698 -0.1210
 5352TIP3    H137615   6.612   5.254   7.899  0.0819  1.3564  0.6502
 5352TIP3    H237616   6.507   5.195   7.991 -0.3295  1.4644  0.2502
 5353TIP3   OH237617   3.267   6.481   0.657  1.1427 -0.1641 -0.1283
 5353TIP3    H137618   3.317   6.403   0.679  2.4212  0.9067  0.9495
 5353TIP3    H237619   3.299   6.548   0.718  0.6030  1.3907 -1.4809
 5354TIP3   OH237620   1.376   6.718   6.814 -0.4473 -0.2077  0.5313
 5354TIP3    H137621   1.369   6.653   6.883 -2.1094  0.2942  0.8724
 5354TIP3    H237622   1.324   6.792   6.845 -2.1498 -0.3740 -1.6926
 5355TIP3   OH237623   1.235   6.128   7.717 -0.2272  0.1930 -0.0810
 5355TIP3    H137624   1.187   6.211   7.718 -0.4524  0.2715 -3.6866
 5355TIP3    H237625   1.327   6.153   7.722 -0.3256  0.5799 -0.2021
 5356TIP3   OH237626   3.874   4.687   8.554  0.5846  0.3944 -0.6588
 5356TIP3    H137627   3.898   4.598   8.578  0.5323 -0.1593 -2.5058
 5356TIP3    H237628   3.907   4.698   8.465 -0.5211  1.7791 -0.9420
 5357TIP3   OH237629   4.164   1.208   0.386  0.1726 -0.4723 -0.0060
 5357TIP3    H137630   4.150   1.194   0.292  0.6604  0.2223 -0.1872
 5357TIP3    H237631   4.222   1.284   0.391 -0.5638  0.0515  0.8872
 5358TIP3   OH237632   6.573   2.098   2.026  0.0346  0.2462 -0.6684
 5358TIP3    H137633   6.492   2.127   2.067  1.0135 -0.8542  2.3353
 5358TIP3    H237634   6.630   2.174   2.028 -0.0638  0.3131 -0.2909
 5359TIP3   OH237635   6.659   3.290   0.668  0.1116 -0.3827  0.2327
 5359TIP3    H137636   6.674   3.198   0.644  3.0099  0.0354  0.1422
 5359TIP3    H237637   6.738   3.316   0.715 -0.4889  2.1824 -0.0408
 5360TIP3   OH237638   0.555   1.673   1.009 -0.0488 -0.5353 -0.5274
 5360TIP3    H137639   0.632   1.709   1.053  0.7303 -0.2415 -2.0789
 5360TIP3    H237640   0.566   1.578   1.014  0.0281 -0.5063 -0.1011
 5361TIP3   OH237641   3.819   2.339   8.023 -0.5121  0.2158  0.1828
 5361TIP3    H137642   3.875   2.307   7.953 -1.6033 -0.1809 -0.5249
 5361TIP3    H237643   3.781   2.260   8.062  0.8418  0.3428  1.9233
 5362TIP3   OH237644   5.782   5.615   2.117  0.4281 -0.5908 -0.3866
 5362TIP3    H137645   5.765   5.604   2.024  0.2860 -1.2494 -0.2841
 5362TIP3    H237646   5.850   5.551   2.137  1.1971  0.2382 -0.2438
 5363TIP3   OH237647   5.606   6.355   0.795  0.1046 -0.2429 -0.1481
 5363TIP3    H137648   5.613   6.263   0.767  0.7204  0.1404 -1.3088
 5363TIP3    H237649   5.538   6.392   0.739 -2.4043 -0.6810  2.3355
 5364TIP3   OH237650   4.704   6.014   8.722 -0.5323 -0.0683 -0.3144
 5364TIP3    H137651   4.706   5.964   8.641 -0.3266 -1.4756  0.5259
 5364TIP3    H237652   4.713   6.105   8.694 -2.7498 -0.2896 -2.0332
 5365TIP3   OH237653   4.517   5.574   8.548 -0.2687  0.1473  0.0571
 5365TIP3    H137654   4.468   5.617   8.478  0.8142  0.7545 -0.3545
 5365TIP3    H237655   4.455   5.512   8.586 -1.8663  1.9792  0.6196
 5366TIP3   OH237656   6.148   3.612   6.964 -0.0600 -0.7997  0.1594
 5366TIP3    H137657   6.127   3.700   6.934  1.3932 -0.7440 -0.7909
 5366TIP3    H237658   6.144   3.559   6.884  0.5617 -1.2996  0.4574
 5367TIP3   OH237659   5.237   3.516   2.642  0.2316 -0.7285 -0.0485
 5367TIP3    H137660   5.192   3.598   2.621  0.9248 -0.0201  1.1511
 5367TIP3    H237661   5.221   3.460   2.566 -1.5108 -0.0242 -0.2500
 5368TIP3   OH237662   0.912   2.663   1.154  0.1577  0.2813  0.1061
 5368TIP3    H137663   0.903   2.757   1.168  0.9189  0.1785  1.3642
 5368TIP3    H237664   0.914   2.625   1.242 -1.9067 -1.1057 -0.3647
 5369TIP3   OH237665   4.345   6.299   7.366 -0.2122  0.0718  0.7670
 5369TIP3    H137666   4.401   6.260   7.433  0.9379  0.2461 -0.0517
 5369TIP3    H237667   4.401   6.304   7.288 -0.6860  2.2264  0.5022
 5370TIP3   OH237668   6.239   4.585   7.030 -0.2157  0.4941  0.5184
 5370TIP3    H137669   6.264   4.597   6.938 -3.6650  1.0365 -0.5106
 5370TIP3    H237670   6.227   4.673   7.064  0.5615  0.2817  1.3932
 5371TIP3   OH237671   6.243   5.377   0.096  0.0763  0.0157 -0.0413
 5371TIP3    H137672   6.314   5.442   0.093  2.0119 -1.9088  0.8737
 5371TIP3    H237673   6.197   5.387   0.013  0.1065  2.6828  0.1718
 5372TIP3   OH237674   0.357   0.680   7.344  0.1034  0.2408  0.4304
 5372TIP3    H137675   0.360   0.657   7.251 -0.3291  0.5804  0.3248
 5372TIP3    H237676   0.393   0.604   7.389  0.2602  0.0473 -0.0124
 5373TIP3   OH237677   2.350   6.743   0.046 -0.0239 -0.5415 -0.2997
 5373TIP3    H137678   2.272   6.764   0.097 -0.9542  0.1573 -1.9167
 5373TIP3    H237679   2.383   6.662   0.084 -0.1987  0.3360  1.8689
 5374TIP3   OH237680   3.347   6.026   2.596  0.2492 -0.2224  0.0139
 5374TIP3    H137681   3.395   5.966   2.539 -0.6231  1.2587 -2.4500
 5374TIP3    H237682   3.414   6.063   2.655  1.4686 -0.8150 -0.9594
 5375TIP3   OH237683   3.907   3.533   7.989 -0.0360 -0.1412  0.2944
 5375TIP3    H137684   3.853   3.510   7.913  1.5230  0.6576 -1.1176
 5375TIP3    H237685   3.870   3.615   8.021 -0.3020 -0.1494  0.0064
 5376TIP3   OH237686   2.254   4.292   8.619 -0.2792  0.1711  0.5458
 5376TIP3    H137687   2.311   4.299   8.695  0.4523 -2.2245  0.3220
 5376TIP3    H237688   2.303   4.332   8.547 -0.2768  0.9949  1.0039
 5377TIP3   OH237689   3.183   0.966   1.311 -0.6660 -0.0859 -0.0256
 5377TIP3    H137690   3.199   0.922   1.228  2.4912 -0.3248  0.6151
 5377TIP3    H237691   3.142   1.050   1.287 -0.7812 -0.6054 -1.7064
 5378TIP3   OH237692   0.582   2.424   8.518 -0.1072 -0.4179 -0.6839
 5378TIP3    H137693   0.607   2.461   8.602 -0.4148  0.0096 -0.7794
 5378TIP3    H237694   0.664   2.416   8.469 -0.1140  0.7670 -0.9129
 5379TIP3   OH237695   4.830   6.082   2.777  0.1444 -0.0076  0.5001
 5379TIP3    H137696   4.870   6.145   2.837 -0.7183 -0.1963  1.2954
 5379TIP3    H237697   4.892   6.075   2.704  1.1707  0.2900  1.3271
 5380TIP3   OH237698   3.139   5.434   2.391  0.1760  0.2262  0.1497
 5380TIP3    H137699   3.057   5.392   2.363  0.4448  0.3857 -0.9027
 5380TIP3    H237700   3.186   5.365   2.438  0.1128 -0.3227 -0.5765
 5381TIP3   OH237701   4.664   5.601   7.969 -0.2082  0.5519  0.1624
 5381TIP3    H137702   4.728   5.533   7.948 -0.8883 -0.9597  2.6130
 5381TIP3    H237703   4.599   5.595   7.899 -0.0382 -1.0795  0.0951
 5382TIP3   OH237704   2.862   3.989   1.876  0.0569  0.1335  0.4512
 5382TIP3    H137705   2.926   3.934   1.920  0.7673 -1.3751 -2.2202
 5382TIP3    H237706   2.902   4.076   1.873  1.7176 -0.6172 -0.5417
 5383TIP3   OH237707   1.679   3.859   6.589 -0.4534 -0.1019  0.3730
 5383TIP3    H137708   1.682   3.860   6.685  2.9092 -0.5637  0.3905
 5383TIP3    H237709   1.664   3.767   6.566 -0.1979 -0.1717  0.4788
 5384TIP3   OH237710   5.813   0.057   1.042  0.5016  0.5861 -0.1517
 5384TIP3    H137711   5.870  -0.005   1.088 -0.2519 -0.6734 -0.8632
 5384TIP3    H237712   5.740   0.072   1.102 -0.0726 -0.4159 -0.5888
 5385TIP3   OH237713   4.588   3.112   8.330 -0.0860  0.2572  0.3394
 5385TIP3    H137714   4.541   3.094   8.248 -1.6726  0.0629  1.2406
 5385TIP3    H237715   4.614   3.203   8.324  0.2704  0.0992 -0.5997
 5386TIP3   OH237716   4.774   1.453   1.771  0.6514 -0.5766  0.4679
 5386TIP3    H137717   4.688   1.432   1.734  1.5406 -0.4583 -1.8111
 5386TIP3    H237718   4.757   1.523   1.833 -0.8126 -0.0054 -0.5233
 5387TIP3   OH237719   3.551   1.710   8.090 -0.4055 -0.7871  0.0880
 5387TIP3    H137720   3.462   1.736   8.112 -0.6842 -1.8896  0.3144
 5387TIP3    H237721   3.565   1.747   8.003  0.4604  3.0160  1.6441
 5388TIP3   OH237722   2.089   1.438   1.665  0.0405  0.1060 -0.1546
 5388TIP3    H137723   2.042   1.395   1.593 -1.0957 -1.1488  1.2743
 5388TIP3    H237724   2.170   1.388   1.674  0.9515  1.2586 -1.5562
 5389TIP3   OH237725   4.119   0.918   7.737 -0.5482  0.8340 -0.3601
 5389TIP3    H137726   4.186   0.859   7.774 -1.2975  0.6683  0.7942
 5389TIP3    H237727   4.167   0.971   7.673  0.8930  1.3022  1.0277
 5390TIP3   OH237728   4.262   4.310   7.972  0.4116  0.1118 -0.3467
 5390TIP3    H137729   4.216   4.228   7.987  0.6541  0.4175  2.7215
 5390TIP3    H237730   4.220   4.348   7.895 -1.7027 -1.5058 -0.0663
 5391TIP3   OH237731   3.444   6.634   1.963 -0.0175 -0.5902 -0.2850
 5391TIP3    H137732   3.482   6.697   2.024 -0.9227  0.3709 -0.6976
 5391TIP3    H237733   3.436   6.682   1.881 -1.2057 -1.0709 -0.4712
 5392TIP3   OH237734   4.357   6.479   1.525  0.0564 -0.0207 -0.6263
 5392TIP3    H137735   4.377   6.569   1.552  0.7579 -0.0665 -0.9729
 5392TIP3    H237736   4.340   6.485   1.431  2.0969 -0.5274 -1.0846
 5393TIP3   OH237737   5.150   6.839   8.124  0.1639  0.2161  0.3138
 5393TIP3    H137738   5.109   6.918   8.090  1.2958  1.2224  1.2035
 5393TIP3    H237739   5.130   6.841   8.218  3.2616  1.4613  1.0521
 5394TIP3   OH237740   4.959   0.603   0.142 -0.6438 -0.0297  0.3216
 5394TIP3    H137741   4.929   0.652   0.066 -0.2723 -1.4623 -0.7741
 5394TIP3    H237742   4.907   0.639   0.215 -0.6536  1.6967 -0.4835
 5395TIP3   OH237743   6.827   3.013   1.849  0.3645  0.5855  0.4749
 5395TIP3    H137744   6.820   3.034   1.942 -2.6418  0.0054  0.4918
 5395TIP3    H237745   6.773   3.079   1.805 -1.7115 -1.5342 -0.3650
 5396TIP3   OH237746   0.026   1.018   8.585  0.0977  0.1735 -0.1322
 5396TIP3    H137747  -0.019   0.935   8.572 -1.6117  1.2806 -1.9609
 5396TIP3    H237748   0.104   1.011   8.530  0.9134 -0.8435  1.1105
 5397TIP3   OH237749   0.079   2.074   2.247 -0.1914 -0.6680 -0.1237
 5397TIP3    H137750  -0.011   2.042   2.242  0.2167 -1.9017  0.0569
 5397TIP3    H237751   0.082   2.147   2.186 -1.9701  1.0674  1.6971
 5398TIP3   OH237752   5.185   0.161   0.307  0.4923 -0.4471 -0.0199
 5398TIP3    H137753   5.201   0.136   0.216 -2.5799 -0.9150 -0.5357
 5398TIP3    H237754   5.182   0.256   0.306  1.4049 -0.4112 -0.1951
 5399TIP3   OH237755   0.173   4.847   8.702  0.4337 -0.7559 -0.3199
 5399TIP3    H137756   0.095   4.893   8.673  0.7516 -0.6078 -0.9441
 5399TIP3    H237757   0.140   4.773   8.752 -0.0924 -0.3002  0.0294
 5400TIP3   OH237758   0.116   1.182   8.182  0.1727  0.0493 -0.3407
 5400TIP3    H137759   0.149   1.162   8.095 -0.9924 -0.7475 -0.6178
 5400TIP3    H237760   0.179   1.245   8.218  1.3339 -0.5347 -1.2784
 5401TIP3   OH237761   5.360   3.023   2.000  0.1138  0.2273 -0.2553
 5401TIP3    H137762   5.398   3.001   2.085 -1.0114  1.3552  0.5812
 5401TIP3    H237763   5.340   3.117   2.007  0.6013  0.4962 -2.0060
 5402TIP3   OH237764   0.621   0.871   1.183 -0.4979 -0.1820 -0.2120
 5402TIP3    H137765   0.682   0.933   1.223  1.1019 -0.9758 -1.3042
 5402TIP3    H237766   0.542   0.922   1.165 -0.3287  0.7942  1.5590
 5403TIP3   OH237767   5.451   2.476   1.514 -0.1024 -0.1731 -0.0637
 5403TIP3    H137768   5.510   2.548   1.536 -1.2066  0.0838  2.3295
 5403TIP3    H237769   5.502   2.397   1.532 -0.3027  0.0462  1.5835
 5404TIP3   OH237770   5.104   4.507   2.336  0.2185 -0.2673 -0.0937
 5404TIP3    H137771   5.041   4.545   2.396 -0.2048 -1.1440  0.0280
 5404TIP3    H237772   5.091   4.413   2.343  0.8993 -0.4251 -0.7627
 5405TIP3   OH237773   0.044   3.442   7.326 -0.1083  0.2893 -0.4500
 5405TIP3    H137774   0.018   3.438   7.418 -1.6336 -0.3724 -0.8913
 5405TIP3    H237775  -0.038   3.447   7.278  0.6719  3.2092 -1.6950
 5406TIP3   OH237776   5.234   4.119   2.424  0.0523  0.0580  0.6714
 5406TIP3    H137777   5.176   4.073   2.485 -1.2076  1.4528  0.5902
 5406TIP3    H237778   5.322   4.105   2.459 -0.5742  0.1841  2.3932
 5407TIP3   OH237779   3.980   4.284   2.958 -0.9077 -0.3473 -0.4779
 5407TIP3    H137780   3.984   4.377   2.979 -1.6602 -0.7535  1.7370
 5407TIP3    H237781   4.071   4.258   2.944 -0.6030  0.5207 -0.1483
 5408TIP3   OH237782   0.230   3.115   0.508 -0.0653 -0.2413 -0.0719
 5408TIP3    H137783   0.188   3.171   0.443  0.5909  0.8051  0.3683
 5408TIP3    H237784   0.212   3.158   0.591 -0.2303 -1.1403  0.3666
 5409TIP3   OH237785   1.609   1.378   2.174 -0.7146  0.5805  0.2515
 5409TIP3    H137786   1.693   1.413   2.144 -0.4170  0.7969  1.3160
 5409TIP3    H237787   1.590   1.306   2.114 -0.1518  1.0106 -0.4676
 5410TIP3   OH237788   1.244   3.075   8.254 -0.6644  0.3322 -0.3069
 5410TIP3    H137789   1.180   3.007   8.274 -0.5868  0.6727  1.1992
 5410TIP3    H237790   1.247   3.129   8.333 -0.3627  1.8036 -1.2822
 5411TIP3   OH237791   1.500   0.255   8.687  0.1035  0.5742 -0.1945
 5411TIP3    H137792   1.531   0.298   8.766  0.0888 -0.6361  0.4899
 5411TIP3    H237793   1.574   0.202   8.657 -1.1401 -2.2997  1.4239
 5412TIP3   OH237794   2.553   5.043   7.992 -0.3998  0.4452 -0.3038
 5412TIP3    H137795   2.604   5.065   7.914 -1.3056  1.5334 -0.6274
 5412TIP3    H237796   2.612   5.062   8.065  0.2993 -0.1427 -0.7062
 5413TIP3   OH237797   2.118   5.389   8.665  0.1911 -0.7728  0.4574
 5413TIP3    H137798   2.036   5.432   8.689 -1.3805 -2.0056 -2.3009
 5413TIP3    H237799   2.123   5.313   8.723  0.4378  0.3417  1.9562
 5414TIP3   OH237800   5.355   5.163   8.271  0.2883  0.8421  0.0946
 5414TIP3    H137801   5.396   5.223   8.334  2.0772 -0.9776  0.7655
 5414TIP3    H237802   5.356   5.211   8.189  0.3722  2.2550  0.8816
 5415TIP3   OH237803   5.171   4.845   1.934 -0.0847  0.1691 -0.3992
 5415TIP3    H137804   5.123   4.839   2.017 -1.1296 -0.1519 -1.0077
 5415TIP3    H237805   5.255   4.803   1.951 -1.0305 -1.6555 -0.0306
 5416TIP3   OH237806   5.134   0.019   0.645  0.1212 -0.1752  0.2028
 5416TIP3    H137807   5.212   0.024   0.590  0.8156 -2.8268  0.7840
 5416TIP3    H237808   5.113   0.110   0.667  2.1587  0.6831 -1.1697
 5417TIP3   OH237809   0.863   6.822   8.235  0.5585  0.0498 -0.0659
 5417TIP3    H137810   0.866   6.857   8.146 -0.2801  0.3261  0.0085
 5417TIP3    H237811   0.950   6.783   8.249  0.3224 -1.0140 -1.4111
 5418TIP3   OH237812   4.019   6.013   7.885  0.7172 -0.1547 -0.2797
 5418TIP3    H137813   4.005   6.107   7.878  0.2859 -0.2495 -0.7953
 5418TIP3    H237814   3.982   5.989   7.970  1.3843  0.2289  0.1333
 5419TIP3   OH237815   6.049   4.209   1.783  0.2027  0.4698 -0.2103
 5419TIP3    H137816   6.098   4.142   1.735 -0.8518  0.0727 -0.7617
 5419TIP3    H237817   6.061   4.185   1.875  0.2975 -0.1468 -0.3778
 5420TIP3   OH237818   0.110   0.893   7.676 -0.2802 -0.0423  0.2330
 5420TIP3    H137819   0.189   0.942   7.698 -0.0741 -0.5492  0.6614
 5420TIP3    H237820   0.073   0.869   7.761  0.4368 -1.8945  0.0670
 5421TIP3   OH237821   3.160   6.114   8.449 -0.0240 -0.1693  0.1703
 5421TIP3    H137822   3.165   6.187   8.511  0.5364 -0.9660  1.0843
 5421TIP3    H237823   3.095   6.054   8.487 -1.4053  0.3802 -1.1891
 5422TIP3   OH237824   4.884   6.063   7.514  0.0369  0.4594  0.0166
 5422TIP3    H137825   4.895   6.155   7.537 -0.0636  0.5703 -0.3767
 5422TIP3    H237826   4.938   6.051   7.436  0.1066  0.1674  0.1095
 5423TIP3   OH237827   6.473   0.447   7.905  0.0198 -0.2604 -0.3645
 5423TIP3    H137828   6.458   0.539   7.884  1.5548 -0.0007 -0.4501
 5423TIP3    H237829   6.533   0.417   7.837  0.8820 -0.8541  0.6304
 5424TIP3   OH237830   0.814   2.227   7.584 -0.0046  0.1085 -0.2377
 5424TIP3    H137831   0.816   2.320   7.561  2.3443 -0.0328 -0.7801
 5424TIP3    H237832   0.874   2.219   7.657  1.2533 -1.2359 -1.3566
 5425TIP3   OH237833   3.657   4.548   0.446  0.9423  0.0311  0.3814
 5425TIP3    H137834   3.702   4.463   0.439 -0.1869 -0.5667  0.1504
 5425TIP3    H237835   3.622   4.549   0.535 -3.1166 -1.9319 -0.9458
 5426TIP3   OH237836   3.920   4.329   8.351 -0.1739 -0.5406 -0.1719
 5426TIP3    H137837   3.925   4.349   8.444 -1.0094 -2.7271  0.4179
 5426TIP3    H237838   3.843   4.376   8.319 -1.7132 -2.1282  0.9987
 5427TIP3   OH237839   0.016   6.325   6.937 -0.4503  0.1143 -0.3298
 5427TIP3    H137840  -0.014   6.266   6.868 -0.2140 -0.2910 -0.0849
 5427TIP3    H237841  -0.039   6.403   6.927 -0.3497  0.1002 -1.0359
 5428TIP3   OH237842   5.998   2.405   8.572  0.4395  0.1226 -0.8778
 5428TIP3    H137843   6.007   2.309   8.577 -1.8045 -0.0973  0.0381
 5428TIP3    H237844   5.925   2.425   8.630  0.1724  2.2977 -1.8813
 5429TIP3   OH237845   5.224   3.910   1.577  0.2277 -0.1032 -0.6950
 5429TIP3    H137846   5.207   3.906   1.483 -0.1003  0.8001 -0.6796
 5429TIP3    H237847   5.199   3.999   1.602  0.9190 -0.1295  0.1279
 5430TIP3   OH237848   0.825   4.045   1.765 -0.5320 -0.0482  0.7961
 5430TIP3    H137849   0.871   4.106   1.823 -1.8084  1.0656  0.6760
 5430TIP3    H237850   0.764   3.998   1.822 -0.5196 -0.2313  0.6597
 5431TIP3   OH237851   6.734   1.312   0.683  0.0737 -0.1176 -0.0285
 5431TIP3    H137852   6.817   1.296   0.728  0.8160  0.0290 -1.3172
 5431TIP3    H237853   6.742   1.265   0.600 -1.9646 -1.8663  0.6690
 5432TIP3   OH237854   4.890   6.291   1.870 -0.6718 -0.6525  0.2707
 5432TIP3    H137855   4.952   6.364   1.862  0.3280 -0.9645  3.8176
 5432TIP3    H237856   4.818   6.327   1.922 -1.3447 -1.5615 -0.0128
 5433TIP3   OH237857   0.093   3.553   0.308  0.5970  0.6632  0.6518
 5433TIP3    H137858  -0.001   3.550   0.296  0.7712  1.0775 -1.0493
 5433TIP3    H237859   0.114   3.472   0.356 -0.8573  1.7654  3.3281
 5434TIP3   OH237860   5.801   1.031   8.179 -0.2766 -0.1669 -0.3715
 5434TIP3    H137861   5.810   1.077   8.096 -1.4818 -3.4950 -2.5852
 5434TIP3    H237862   5.889   1.030   8.217  0.7505 -0.1492 -2.6032
 5435TIP3   OH237863   5.636   3.366   0.366  0.3375 -0.5797 -0.2983
 5435TIP3    H137864   5.654   3.300   0.299  0.3032 -1.4320  0.5193
 5435TIP3    H237865   5.594   3.438   0.318  0.1136 -1.2640 -1.1512
 5436TIP3   OH237866   5.948   4.802   8.423 -0.0332 -0.0183  0.0036
 5436TIP3    H137867   5.947   4.732   8.487 -0.9661 -0.3503 -0.3527
 5436TIP3    H237868   6.033   4.794   8.380 -0.1065 -0.8982  0.0064
 5437TIP3   OH237869   6.295   4.837   2.061 -0.3943  0.4248  0.0026
 5437TIP3    H137870   6.389   4.848   2.074  0.3610  0.1467 -3.9365
 5437TIP3    H237871   6.276   4.750   2.095  0.7391  0.4823  0.8454
 5438TIP3   OH237872   4.963   4.632   2.023  0.1487  0.6949 -0.1230
 5438TIP3    H137873   5.045   4.585   2.040  0.7681  1.7056 -0.2307
 5438TIP3    H237874   4.923   4.642   2.110  0.5611  0.9252  0.0481
 5439TIP3   OH237875   2.739   5.203   7.102  0.1014 -0.0712  0.1896
 5439TIP3    H137876   2.734   5.112   7.131 -0.9221  0.7232  2.7645
 5439TIP3    H237877   2.820   5.207   7.049 -0.2265 -2.5819 -0.6339
 5440TIP3   OH237878   1.828   3.377   1.328 -0.6641  0.1192 -0.6026
 5440TIP3    H137879   1.902   3.424   1.290  0.0355 -1.1378 -0.8437
 5440TIP3    H237880   1.864   3.293   1.356 -1.6273  0.1802  0.9280
 5441TIP3   OH237881   2.658   5.023   6.243  0.1465  0.2341 -0.7295
 5441TIP3    H137882   2.698   4.959   6.184 -1.4601 -1.5213 -0.0240
 5441TIP3    H237883   2.726   5.045   6.306  0.3064 -2.0589 -0.0344
 5442TIP3   OH237884   1.776   6.322   0.549  0.7114 -0.0779  0.7301
 5442TIP3    H137885   1.697   6.348   0.500 -0.3398 -0.3493  2.2094
 5442TIP3    H237886   1.843   6.313   0.482 -0.2781  1.0483 -0.4890
 5443TIP3   OH237887   5.630   6.249   6.933  0.5503  0.2329 -0.0144
 5443TIP3    H137888   5.540   6.231   6.906 -0.0538 -0.5375  2.2243
 5443TIP3    H237889   5.633   6.344   6.942 -0.4829  0.1994  1.0762
 5444TIP3   OH237890   6.304   3.799   1.595  0.3822  0.3466  0.5306
 5444TIP3    H137891   6.255   3.880   1.606  0.1336  0.1667  0.7365
 5444TIP3    H237892   6.269   3.740   1.662  0.2750 -0.0674  0.1140
 5445TIP3   OH237893   3.666   5.137   1.892 -0.2977  0.6021  0.0352
 5445TIP3    H137894   3.695   5.163   1.805  0.8903 -2.5470 -0.6368
 5445TIP3    H237895   3.743   5.148   1.948 -0.0738 -0.4424 -0.0517
 5446TIP3   OH237896   5.756   4.685   7.564  0.6313  0.5197 -0.3299
 5446TIP3    H137897   5.663   4.703   7.553  1.2386  3.2849 -1.9523
 5446TIP3    H237898   5.773   4.610   7.507 -0.7543 -0.7988  0.9166
 5447TIP3   OH237899   1.097   2.178   2.269 -0.2002  0.1114  0.0458
 5447TIP3    H137900   1.023   2.117   2.264 -1.7446  1.9513 -0.8798
 5447TIP3    H237901   1.155   2.152   2.198 -0.1191 -1.1185  0.5410
 5448TIP3   OH237902   6.371   0.275   2.444  0.2632 -0.2590  0.1133
 5448TIP3    H137903   6.396   0.332   2.517  2.6027 -1.9798  0.7876
 5448TIP3    H237904   6.285   0.242   2.468 -1.0329  2.6210 -0.1440
 5449TIP3   OH237905   2.759   2.085   0.187 -0.4850  0.2821  1.0576
 5449TIP3    H137906   2.797   2.121   0.267 -0.9514 -0.7479  1.7618
 5449TIP3    H237907   2.798   1.998   0.179 -0.2559  0.4654  0.0207
 5450TIP3   OH237908   3.635   1.467   7.353 -0.1489 -0.3512 -0.7049
 5450TIP3    H137909   3.723   1.467   7.317 -0.9019 -0.6277 -2.6619
 5450TIP3    H237910   3.582   1.515   7.290 -1.4069 -0.1053  0.4707
 5451TIP3   OH237911   1.374   0.415   0.514  0.0871 -0.6266 -0.1921
 5451TIP3    H137912   1.361   0.465   0.594 -0.7694 -0.5121 -0.4020
 5451TIP3    H237913   1.374   0.480   0.443  0.7650 -0.7347 -0.3048
 5452TIP3   OH237914   1.546   1.108   2.227  0.2938 -0.1952 -0.0305
 5452TIP3    H137915   1.638   1.085   2.239 -0.1354 -2.2765 -0.2565
 5452TIP3    H237916   1.514   1.127   2.315  0.8459  0.1679  0.0947
 5453TIP3   OH237917   5.680   2.130   1.911  0.3107 -0.5181  0.6081
 5453TIP3    H137918   5.713   2.104   1.997 -0.9715  0.9955  1.6215
 5453TIP3    H237919   5.609   2.069   1.893  0.1625 -0.4399  0.9220
 5454TIP3   OH237920   5.802   2.421   0.037 -0.3223  0.6803 -0.7875
 5454TIP3    H137921   5.808   2.338   0.085  1.8713  1.6189  0.7215
 5454TIP3    H237922   5.710   2.445   0.042 -0.6214 -0.6055  0.7058
 5455TIP3   OH237923   0.574   3.735   8.580  0.0771 -0.0436 -0.3397
 5455TIP3    H137924   0.617   3.691   8.653 -0.4745 -0.0317  0.0004
 5455TIP3    H237925   0.646   3.766   8.525  0.6032  1.7373  1.2395
 5456TIP3   OH237926   0.545   2.277   7.320 -0.3002  0.1761  0.5731
 5456TIP3    H137927   0.519   2.185   7.327  0.1068 -0.1544 -1.6060
 5456TIP3    H237928   0.634   2.279   7.355 -0.7601  0.0343  1.8322
 5457TIP3   OH237929   6.748   3.471   1.148 -0.1357 -0.6912 -0.4969
 5457TIP3    H137930   6.785   3.480   1.236 -1.0216  1.0842 -0.2787
 5457TIP3    H237931   6.822   3.487   1.090 -0.2258  1.7056 -0.0529
 5458TIP3   OH237932   2.302   4.483   6.311 -0.0555 -0.1996  0.3725
 5458TIP3    H137933   2.351   4.541   6.369 -0.0134  0.2692 -0.1203
 5458TIP3    H237934   2.370   4.430   6.268 -0.0991 -0.6722  0.8779
 5459TIP3   OH237935   4.127   2.820   7.156 -0.1832  0.8906 -0.4933
 5459TIP3    H137936   4.064   2.759   7.118 -0.1325 -0.6988  1.7962
 5459TIP3    H237937   4.207   2.808   7.106 -0.7133  0.4443 -1.2439
 5460TIP3   OH237938   1.929   4.785   7.808  0.0668 -0.2868  0.2924
 5460TIP3    H137939   1.964   4.805   7.894  0.3472  0.7447 -0.0556
 5460TIP3    H237940   1.939   4.690   7.800 -0.8846 -0.5469  1.7849
 5461TIP3   OH237941   2.656   4.034   2.233 -0.2166  0.0329 -0.0500
 5461TIP3    H137942   2.583   4.017   2.174  0.2727 -0.4439 -0.5254
 5461TIP3    H237943   2.695   4.115   2.201 -0.1941 -0.0119 -0.1346
 5462TIP3   OH237944   1.335   4.791   2.493 -0.1493 -0.5230  0.2506
 5462TIP3    H137945   1.391   4.730   2.540  1.5652 -1.8969 -3.1940
 5462TIP3    H237946   1.365   4.785   2.402 -1.2838  3.9612 -0.6617
 5463TIP3   OH237947   6.726   3.848   2.242 -0.2092 -0.0396 -0.2765
 5463TIP3    H137948   6.756   3.937   2.223  1.8664 -0.5039  0.5813
 5463TIP3    H237949   6.742   3.800   2.161  0.5727 -0.0788 -0.1034
 5464TIP3   OH237950   2.584   4.700   7.560  0.4818  0.1949  0.1077
 5464TIP3    H137951   2.653   4.638   7.538  0.5862 -0.2562  1.6032
 5464TIP3    H237952   2.631   4.776   7.595  0.4750  1.8984 -3.1906
 5465TIP3   OH237953   0.092   1.129   7.878 -0.4816  0.0038  0.2867
 5465TIP3    H137954   0.046   1.137   7.794 -2.1810 -1.7692  0.9841
 5465TIP3    H237955   0.168   1.187   7.869 -1.7896  1.5502 -1.6460
 5466TIP3   OH237956   4.980   1.858   1.062 -0.0857 -0.3603  0.1804
 5466TIP3    H137957   4.922   1.831   0.991 -0.3795 -1.1556  0.7047
 5466TIP3    H237958   4.924   1.856   1.140  0.4422 -0.3277  0.5649
 5467TIP3   OH237959   5.934   3.873   7.741 -0.2095  0.3632  0.3140
 5467TIP3    H137960   5.933   3.969   7.742  0.3867  0.3888 -0.5365
 5467TIP3    H237961   5.849   3.848   7.777 -0.0662  1.1964  1.2665
 5468TIP3   OH237962   2.229   2.943   7.192 -0.7011 -0.7084  0.2829
 5468TIP3    H137963   2.146   2.980   7.162  0.1232  0.9770 -0.0128
 5468TIP3    H237964   2.295   2.982   7.136  0.4228 -1.0949  1.2853
 5469TIP3   OH237965   5.612   6.843   8.153  0.0857  0.3042  0.0383
 5469TIP3    H137966   5.566   6.773   8.107 -0.2428  0.0765  0.7177
 5469TIP3    H237967   5.633   6.907   8.084 -0.0151 -0.2419 -0.5004
 5470TIP3   OH237968   0.045   2.271   0.554  0.6465  0.6120 -0.0717
 5470TIP3    H137969   0.117   2.219   0.518  1.8413  1.6161  0.7799
 5470TIP3    H237970   0.086   2.328   0.619 -0.9747  1.0086  0.6704
 5471TIP3   OH237971   2.296   2.629   8.641  0.2326  0.4807 -0.2736
 5471TIP3    H137972   2.304   2.535   8.659  0.9894  0.5137 -0.3945
 5471TIP3    H237973   2.231   2.635   8.572 -1.9598  0.2592  1.6506
 5472TIP3   OH237974   4.838   2.764   1.424 -0.5026 -0.1248 -0.6303
 5472TIP3    H137975   4.790   2.847   1.422 -1.2614 -0.5329  0.0389
 5472TIP3    H237976   4.795   2.714   1.493  0.8306 -0.5566 -0.1055
 5473TIP3   OH237977   5.196   5.727   1.332  0.0134 -0.0586  0.3311
 5473TIP3    H137978   5.137   5.801   1.318  0.4258  0.3575  0.7387
 5473TIP3    H237979   5.181   5.670   1.257  0.3396  0.8653 -0.4568
 5474TIP3   OH237980   0.891   3.197   6.858  0.6016  1.0635  0.6880
 5474TIP3    H137981   0.909   3.283   6.821 -1.6400  0.9290 -0.9086
 5474TIP3    H237982   0.935   3.136   6.800  0.6366  1.0393  0.7398
 5475TIP3   OH237983   1.924   4.724   7.433 -0.6080  0.0958  0.1405
 5475TIP3    H137984   1.920   4.810   7.474  0.3014  0.8742 -1.3360
 5475TIP3    H237985   1.996   4.679   7.476 -0.0915  0.6594 -0.1269
 5476TIP3   OH237986   5.791   2.382   1.981 -0.2287  0.1972  0.7689
 5476TIP3    H137987   5.799   2.291   1.954 -0.7287 -0.0372  1.3812
 5476TIP3    H237988   5.764   2.429   1.902 -1.3389 -0.4148  0.7592
 5477TIP3   OH237989   2.802   4.948   7.209 -0.0723  1.0298  0.4946
 5477TIP3    H137990   2.886   4.935   7.166 -0.1646  1.9909 -0.0062
 5477TIP3    H237991   2.820   4.938   7.302  0.5646  1.0852  0.3794
 5478TIP3   OH237992   2.696   1.070   0.388  0.0530  0.1322 -0.0877
 5478TIP3    H137993   2.629   1.051   0.323  0.4415 -0.9602 -0.1740
 5478TIP3    H237994   2.696   0.994   0.446  1.6585 -0.1804 -0.4594
 5479TIP3   OH237995   3.191   5.028   7.249 -0.3075  0.0248 -0.1220
 5479TIP3    H137996   3.171   5.003   7.159  1.4164  0.4517 -0.6648
 5479TIP3    H237997   3.286   5.016   7.257 -0.5238 -0.7329  1.8827
 5480TIP3   OH237998   2.752   5.971   8.723 -0.0319  0.3052 -0.6289
 5480TIP3    H137999   2.716   5.882   8.728  0.4069  0.0506 -1.5640
 5480TIP3    H238000   2.677   6.029   8.738 -0.3103 -0.2252  0.0561
 5481TIP3   OH238001   3.291   6.558   8.540  0.2005  0.2721 -0.5744
 5481TIP3    H138002   3.261   6.649   8.542 -0.3246  0.1011 -0.6858
 5481TIP3    H238003   3.277   6.530   8.450  3.4743  1.1105 -1.4914
 5482TIP3   OH238004   4.054   4.995   1.020 -0.0102  0.5032 -0.0976
 5482TIP3    H138005   3.962   5.007   1.000  0.2064 -0.5091 -1.9351
 5482TIP3    H238006   4.084   4.928   0.959  2.1852  1.5167 -0.2495
 5483TIP3   OH238007   5.246   1.986   6.984  0.0385  0.0363  0.0409
 5483TIP3    H138008   5.332   1.949   7.005  0.8710  1.2053 -1.1775
 5483TIP3    H238009   5.261   2.037   6.904 -2.3440 -1.9700 -1.8765
 5484TIP3   OH238010   2.276   3.448   8.386 -0.0350 -0.1748  0.2043
 5484TIP3    H138011   2.250   3.427   8.475  0.3739  2.3214  0.9981
 5484TIP3    H238012   2.288   3.543   8.386  1.0574 -0.2251 -2.2300
 5485TIP3   OH238013   4.779   2.499   1.108 -0.2616 -0.2473  0.4551
 5485TIP3    H138014   4.866   2.480   1.142  0.1488  0.9075  0.0763
 5485TIP3    H238015   4.723   2.501   1.187 -0.1751 -1.9759  0.6118
 5486TIP3   OH238016   5.502   1.626   0.730  0.5470  0.1099  0.6244
 5486TIP3    H138017   5.433   1.693   0.732  0.4552  0.0372  0.1492
 5486TIP3    H238018   5.472   1.559   0.791  0.4915  0.3609  0.8756
 5487TIP3   OH238019   4.217   1.024   7.094 -0.6977 -0.3013 -0.0626
 5487TIP3    H138020   4.252   1.018   7.005  0.9060  1.9241  0.3462
 5487TIP3    H238021   4.224   1.117   7.116 -0.4017 -0.9082  2.6713
 5488TIP3   OH238022   3.230   1.039   7.973 -0.5788  0.4476 -0.1441
 5488TIP3    H138023   3.291   0.981   8.020 -0.5509  0.0249 -0.6903
 5488TIP3    H238024   3.157   0.982   7.949 -0.6382  0.6835 -0.5261
 5489TIP3   OH238025   0.214   2.908   7.698  0.5348 -0.4905 -0.6220
 5489TIP3    H138026   0.174   2.940   7.778 -0.7976  0.7097 -1.7055
 5489TIP3    H238027   0.278   2.842   7.727  0.9131  0.7146  1.4594
 5490TIP3   OH238028   4.435   1.070   0.392  0.1585 -0.1658 -0.6868
 5490TIP3    H138029   4.340   1.080   0.405  0.3890  0.9053  0.3756
 5490TIP3    H238030   4.449   0.975   0.386 -1.1032 -0.3093 -2.0305
 5491TIP3   OH238031   5.003   0.523   0.863 -0.1781  0.0406 -0.1801
 5491TIP3    H138032   4.955   0.596   0.901 -2.4692 -1.1169 -0.6335
 5491TIP3    H238033   5.035   0.473   0.938 -1.6986 -0.3796  0.2276
 5492TIP3   OH238034   6.853   4.986   1.607 -0.0590  0.5362  0.2060
 5492TIP3    H138035   6.909   4.918   1.571 -0.4595  1.2040 -1.8069
 5492TIP3    H238036   6.908   5.034   1.669  0.3691 -1.2556  1.2768
 5493TIP3   OH238037   3.464   5.182   6.784 -0.3589  0.1546  0.1784
 5493TIP3    H138038   3.410   5.138   6.719  0.6530 -2.2604  0.8479
 5493TIP3    H238039   3.411   5.256   6.814 -1.9968 -0.3406 -1.3326
 5494TIP3   OH238040   3.434   5.123   7.817  0.2758 -0.6050 -0.2035
 5494TIP3    H138041   3.498   5.053   7.832 -1.0764 -1.7138  0.6091
 5494TIP3    H238042   3.363   5.081   7.769 -0.0716  0.4974 -0.6830
 5495TIP3   OH238043   3.304   4.981   8.532 -0.0668 -0.3536  0.4448
 5495TIP3    H138044   3.285   5.061   8.580  1.2605 -0.5968  1.4410
 5495TIP3    H238045   3.225   4.929   8.539 -0.4863  0.3267  0.9165
 5496TIP3   OH238046   3.617   6.328   0.505 -0.4952 -0.6212  0.1502
 5496TIP3    H138047   3.553   6.256   0.505 -0.7818 -0.4261  1.8803
 5496TIP3    H238048   3.567   6.403   0.473 -0.3335 -1.0691 -1.1903
 5497TIP3   OH238049   3.406   0.674   1.304  0.2511 -0.1825  0.4537
 5497TIP3    H138050   3.437   0.589   1.272  2.0460  0.6557 -0.1718
 5497TIP3    H238051   3.334   0.697   1.246  1.7418  0.0859 -1.3951
 5498TIP3   OH238052   1.715   2.741   7.773 -0.1751  0.2969  0.2693
 5498TIP3    H138053   1.729   2.676   7.842 -0.0999  0.8776  0.8215
 5498TIP3    H238054   1.662   2.697   7.708 -0.3909 -0.2162  0.7820
 5499TIP3   OH238055   5.045   0.334   2.559 -0.2630 -0.6484 -0.4405
 5499TIP3    H138056   5.043   0.256   2.614 -2.4049 -1.1867 -1.2001
 5499TIP3    H238057   5.138   0.359   2.556  0.1239 -1.5164  2.0590
 5500TIP3   OH238058   1.630   1.900   0.154  0.0578  0.2929 -0.5352
 5500TIP3    H138059   1.630   1.985   0.198  0.3270 -0.4076  0.8711
 5500TIP3    H238060   1.564   1.909   0.085 -0.7920  1.2506  0.3697
 5501TIP3   OH238061   2.073   1.806   2.387 -0.1389  0.8980  0.1667
 5501TIP3    H138062   2.114   1.879   2.340  0.8070  1.4231  1.7598
 5501TIP3    H238063   2.076   1.733   2.324 -0.2872  1.9665 -1.1283
 5502TIP3   OH238064   0.750   2.679   7.317 -0.3123 -0.1662 -0.1431
 5502TIP3    H138065   0.811   2.715   7.253 -0.2192  0.3573  0.2299
 5502TIP3    H238066   0.719   2.597   7.278  2.0492 -1.4504  0.4700
 5503TIP3   OH238067   5.478   5.764   0.067  0.1355  0.1206 -0.1148
 5503TIP3    H138068   5.446   5.773  -0.023 -0.8057  1.1405  0.3073
 5503TIP3    H238069   5.477   5.670   0.083  0.2022 -0.0671 -1.1267
 5504TIP3   OH238070   0.099   5.050   6.361 -0.0937  0.4292  0.4257
 5504TIP3    H138071   0.082   4.961   6.330  1.8240 -0.1978  1.0321
 5504TIP3    H238072   0.158   5.088   6.296  0.0909  0.8297  0.8208
 5505TIP3   OH238073   2.351   2.035   1.053  0.5495  0.2722  0.2803
 5505TIP3    H138074   2.307   2.023   1.138 -2.0363  0.5906 -0.9107
 5505TIP3    H238075   2.313   1.967   0.997  2.0471  0.2095 -0.7160
 5506TIP3   OH238076   1.164   0.842   7.233  0.0652 -0.8180 -0.3601
 5506TIP3    H138077   1.112   0.766   7.209 -0.1866 -1.1286  1.1157
 5506TIP3    H238078   1.186   0.829   7.325  0.0547  0.8616 -0.0807
 5507TIP3   OH238079   2.717   4.157   1.072  0.2142  0.4285 -0.2951
 5507TIP3    H138080   2.706   4.116   1.158 -0.1485 -0.1297 -0.6040
 5507TIP3    H238081   2.776   4.097   1.025  1.5229  1.4209  0.0232
 5508TIP3   OH238082   0.724   1.383   1.769  0.2697  0.9730 -0.4680
 5508TIP3    H138083   0.760   1.304   1.809 -1.4844  0.1754 -0.3940
 5508TIP3    H238084   0.794   1.414   1.710  0.8345 -0.8409 -0.8042
 5509TIP3   OH238085   0.287   5.295   1.199  0.4154  0.4525 -0.0273
 5509TIP3    H138086   0.280   5.371   1.257 -1.5391 -1.0156  1.8315
 5509TIP3    H238087   0.308   5.222   1.258 -2.4921 -1.2507 -0.8976
 5510TIP3   OH238088   2.383   0.397   8.351 -0.4543  0.0379  0.0498
 5510TIP3    H138089   2.394   0.429   8.261 -0.3647 -0.6421 -0.1864
 5510TIP3    H238090   2.332   0.316   8.342  0.0846 -0.3646  0.5572
 5511TIP3   OH238091   6.339   0.696   7.822  0.2497  0.2697  0.0377
 5511TIP3    H138092   6.290   0.777   7.830  0.1427  0.3060 -0.9503
 5511TIP3    H238093   6.306   0.655   7.743  3.1507  1.2424 -1.8443
 5512TIP3   OH238094   1.226   4.226   0.232  0.2760  0.6986  0.4045
 5512TIP3    H138095   1.253   4.316   0.253 -0.9790  1.2923 -0.4285
 5512TIP3    H238096   1.160   4.206   0.298 -0.1669  0.7583 -0.0231
 5513TIP3   OH238097   2.320   4.611   0.090  0.4150  0.3172 -0.5607
 5513TIP3    H138098   2.341   4.604  -0.003  0.1134  0.6821 -0.6603
 5513TIP3    H238099   2.231   4.579   0.097  0.8476 -0.8566 -0.2008
 5514TIP3   OH238100   6.129   0.797   8.545  0.5395  0.5574 -0.1062
 5514TIP3    H138101   6.106   0.862   8.612  0.3361 -0.2875  0.6680
 5514TIP3    H238102   6.119   0.713   8.589 -1.1734 -0.1244 -1.6359
 5515TIP3   OH238103   2.599   5.492   7.979  0.6348 -0.0197 -0.2909
 5515TIP3    H138104   2.595   5.406   8.022 -2.9455 -0.7083 -1.6346
 5515TIP3    H238105   2.594   5.471   7.885  2.6328  1.6396 -0.8427
 5516TIP3   OH238106   3.297   3.306   7.210  0.2597  0.2585 -0.1830
 5516TIP3    H138107   3.218   3.331   7.161  0.9024  1.2641 -0.7526
 5516TIP3    H238108   3.266   3.289   7.298 -0.8939 -1.3246 -0.8564
 5517TIP3   OH238109   3.598   6.830   1.419  0.4875  0.1355  0.3407
 5517TIP3    H138110   3.654   6.864   1.350  0.6149 -1.6746 -0.5058
 5517TIP3    H238111   3.532   6.777   1.374  0.9983 -1.6887  1.5824
 5518TIP3   OH238112   4.749   2.227   0.941  0.2839 -0.0548 -0.3453
 5518TIP3    H138113   4.731   2.230   1.035 -1.0503  0.8999 -0.6006
 5518TIP3    H238114   4.670   2.261   0.901  1.1138  0.2424 -1.7940
 5519TIP3   OH238115   4.213   5.606   0.158 -1.1074 -0.7946 -0.2622
 5519TIP3    H138116   4.226   5.593   0.064  3.0743 -1.5447  0.2546
 5519TIP3    H238117   4.188   5.520   0.191  1.1427 -1.5177 -0.2859
 5520TIP3   OH238118   4.080   5.655   8.295  0.3077 -0.4418  0.0496
 5520TIP3    H138119   4.162   5.617   8.327 -0.3992 -0.1673  2.3555
 5520TIP3    H238120   4.014   5.627   8.358 -0.7805  2.0710  0.1289
 5521TIP3   OH238121   4.949   1.227   1.245 -0.6236 -0.2865 -0.4134
 5521TIP3    H138122   4.871   1.191   1.288 -1.1265  1.9237  0.6824
 5521TIP3    H238123   5.022   1.183   1.287 -1.1992 -2.5232 -1.5669
 5522TIP3   OH238124   6.636   6.172   8.588 -0.6100 -0.1144  0.0016
 5522TIP3    H138125   6.625   6.081   8.616 -2.7240 -0.2348 -1.0051
 5522TIP3    H238126   6.687   6.165   8.507 -0.6178 -0.4069  0.0187
 5523TIP3   OH238127   5.801   0.811   8.441  0.0026 -0.0118 -0.1140
 5523TIP3    H138128   5.749   0.759   8.502 -1.4156 -0.8413 -1.9590
 5523TIP3    H238129   5.739   0.843   8.376  1.5181  0.4545 -1.4101
 5524TIP3   OH238130   0.856   5.868   7.917  0.5258 -0.1384  0.4833
 5524TIP3    H138131   0.946   5.888   7.892 -0.1023  1.9079 -0.3527
 5524TIP3    H238132   0.848   5.900   8.006  0.4697  0.2509  0.3408
 5525TIP3   OH238133   1.664   6.580   0.685 -0.4617  0.3121 -0.0392
 5525TIP3    H138134   1.689   6.489   0.702 -0.8446  0.3008  0.4779
 5525TIP3    H238135   1.569   6.582   0.695 -0.3607  0.9698  0.9744
 5526TIP3   OH238136   4.450   4.475   8.077  0.1882 -0.1662  0.2939
 5526TIP3    H138137   4.481   4.482   7.987  0.8557 -1.3579  0.4102
 5526TIP3    H238138   4.368   4.427   8.071 -0.3697  0.7704  0.2274
 5527TIP3   OH238139   1.676   2.551   0.055  0.0914 -0.0391  0.5666
 5527TIP3    H138140   1.618   2.485   0.019  0.7721 -0.2819 -0.1311
 5527TIP3    H238141   1.748   2.556  -0.008  0.8010  0.2771  1.3825
 5528TIP3   OH238142   5.358   0.203   1.126 -0.1848  0.3163  0.3817
 5528TIP3    H138143   5.290   0.189   1.061  0.3273  0.3493 -0.1721
 5528TIP3    H238144   5.341   0.291   1.161  0.4448  0.9444 -0.8353
 5529TIP3   OH238145   4.534   0.462   7.751  0.3767  0.3065 -0.1841
 5529TIP3    H138146   4.480   0.424   7.820 -0.5525  3.6387  1.1543
 5529TIP3    H238147   4.609   0.500   7.798  0.7485  0.9268 -1.2353
 5530TIP3   OH238148   5.419   0.889   1.438 -0.2225 -0.3273  0.0895
 5530TIP3    H138149   5.334   0.932   1.452 -0.3939  0.5217 -2.9316
 5530TIP3    H238150   5.483   0.961   1.441  0.0574 -0.5543 -0.3124
 5531TIP3   OH238151   2.249   3.912   8.651  0.3758  0.1643 -0.1309
 5531TIP3    H138152   2.203   3.829   8.663  1.7230 -0.3688  2.0238
 5531TIP3    H238153   2.181   3.979   8.659 -0.3255 -0.6560  1.1495
 5532TIP3   OH238154   2.813   5.950   7.720  0.2050 -0.3191  0.5315
 5532TIP3    H138155   2.833   5.863   7.686 -0.0126 -0.5139  0.8954
 5532TIP3    H238156   2.755   5.934   7.794 -1.0253  0.2039 -0.2835
 5533TIP3   OH238157   3.911   5.382   7.585 -0.5054 -0.2999 -0.3070
 5533TIP3    H138158   3.970   5.371   7.660  0.5667 -0.8746 -1.1961
 5533TIP3    H238159   3.839   5.321   7.602 -0.2881 -0.4066  0.2689
 5534TIP3   OH238160   2.636   0.298   7.002  0.6407  0.1593 -0.5346
 5534TIP3    H138161   2.631   0.392   7.022 -1.5757 -0.0398  0.1258
 5534TIP3    H238162   2.580   0.257   7.068 -0.2682 -1.3886 -2.1842
 5535TIP3   OH238163   2.955   4.702   2.342  0.1022 -0.0198  0.6486
 5535TIP3    H138164   2.903   4.670   2.268  0.9878  1.3201 -0.5931
 5535TIP3    H238165   2.943   4.635   2.410 -1.3442 -0.9027 -0.4208
 5536TIP3   OH238166   5.036   2.770   2.355 -0.0801 -0.0465  0.0991
 5536TIP3    H138167   5.066   2.772   2.264 -0.1501 -0.0550  0.0759
 5536TIP3    H238168   5.103   2.818   2.403 -0.0099 -0.0982  0.0526
 5537TIP3   OH238169   2.857   1.722   6.461  0.1531  0.1168  0.0038
 5537TIP3    H138170   2.874   1.805   6.417  1.6941  0.1279  0.5590
 5537TIP3    H238171   2.801   1.673   6.400  0.6056  0.9042 -1.0654
 5538TIP3   OH238172   0.517   1.075   1.362  0.4832 -0.3471  0.7615
 5538TIP3    H138173   0.496   1.113   1.276  0.1326  1.3701  1.5688
 5538TIP3    H238174   0.560   1.146   1.409  0.4668 -1.2028  2.1056
 5539TIP3   OH238175   0.496   4.956   7.768 -0.1396  0.3661  0.8088
 5539TIP3    H138176   0.564   4.939   7.834  1.2353  2.0076 -0.1178
 5539TIP3    H238177   0.493   5.051   7.760 -0.8522  0.2325 -0.9304
 5540TIP3   OH238178   3.432   5.667   1.022  0.8192 -0.7107  0.0261
 5540TIP3    H138179   3.383   5.750   1.018  0.9963 -0.6471 -1.5592
 5540TIP3    H238180   3.445   5.652   1.115  1.3013  1.3660  0.3600
 5541TIP3   OH238181   6.665   4.306   8.470 -0.0227 -0.7727 -0.1739
 5541TIP3    H138182   6.609   4.375   8.432 -2.2018 -2.4548 -0.2249
 5541TIP3    H238183   6.710   4.268   8.395 -0.8772 -1.1336 -0.5176
 5542TIP3   OH238184   1.458   3.774   1.454 -0.6720  0.0664  0.1261
 5542TIP3    H138185   1.403   3.780   1.375 -0.9236 -0.3192  0.2703
 5542TIP3    H238186   1.542   3.743   1.422 -0.1517  1.7638 -0.2659
 5543TIP3   OH238187   4.565   4.498   7.831 -0.3363 -0.0638 -1.1839
 5543TIP3    H138188   4.595   4.485   7.741 -0.8064  1.2779 -1.5512
 5543TIP3    H238189   4.535   4.588   7.834  0.0113  0.0324  0.4315
 5544TIP3   OH238190   5.672   6.577   0.999  0.4790 -0.3565  0.0014
 5544TIP3    H138191   5.594   6.531   1.030  1.1882 -0.5498  1.6557
 5544TIP3    H238192   5.639   6.661   0.967 -0.4308 -0.4645  0.5969
 5545TIP3   OH238193   2.119   4.228   0.247 -0.0960  0.3072  0.2787
 5545TIP3    H138194   2.069   4.276   0.314  0.3797  1.3005 -0.0501
 5545TIP3    H238195   2.084   4.139   0.249 -1.8818  0.9707  0.0475
 5546TIP3   OH238196   2.315   5.224   2.237  0.4906 -0.4098 -0.2568
 5546TIP3    H138197   2.279   5.276   2.166  2.1328  1.8560  0.4555
 5546TIP3    H238198   2.248   5.159   2.256 -0.8548  0.2331 -2.4642
 5547TIP3   OH238199   4.939   4.164   7.365 -0.1405  0.1653  0.4829
 5547TIP3    H138200   4.957   4.236   7.304  0.0166 -0.4033 -0.1552
 5547TIP3    H238201   5.003   4.177   7.436  1.8256 -0.9247 -0.9879
 5548TIP3   OH238202   5.200   4.220   7.023  0.5304 -0.2340 -0.5377
 5548TIP3    H138203   5.293   4.243   7.024 -0.0816  3.2565  3.3535
 5548TIP3    H238204   5.155   4.303   7.003 -1.7825 -1.3805 -0.4427
 5549TIP3   OH238205   1.574   3.419   0.767  0.1056  0.9273 -0.0512
 5549TIP3    H138206   1.615   3.358   0.829 -1.3539 -1.3466 -1.1756
 5549TIP3    H238207   1.481   3.415   0.788 -0.4550 -0.0231 -2.3988
 5550TIP3   OH238208   0.888   1.452   6.304  0.2526  0.0952 -0.5292
 5550TIP3    H138209   0.800   1.422   6.284 -0.5028  2.3574 -0.8788
 5550TIP3    H238210   0.878   1.507   6.382  1.2876  0.6715 -0.7812
 5551TIP3   OH238211   2.353   0.860   7.624  0.0498  0.3235 -0.0854
 5551TIP3    H138212   2.319   0.938   7.579  1.9623  1.0357 -0.3886
 5551TIP3    H238213   2.322   0.787   7.571  1.3000  1.0850 -1.9684
 5552TIP3   OH238214   4.569   3.607   0.473  0.3082 -0.6506  0.0787
 5552TIP3    H138215   4.479   3.638   0.464  0.1169 -1.1208  0.3549
 5552TIP3    H238216   4.567   3.517   0.442  0.4601 -1.0052  1.0734
 5553TIP3   OH238217   2.561   4.583   0.261  0.1760  0.2464 -0.1382
 5553TIP3    H138218   2.482   4.594   0.207  1.0484  0.3971 -1.4199
 5553TIP3    H238219   2.602   4.504   0.227  1.0461  0.6641 -0.0807
 5554TIP3   OH238220   2.153   4.941   1.980 -0.5286 -0.3054  0.1051
 5554TIP3    H138221   2.168   4.946   1.886 -1.6999 -2.6095 -0.2893
 5554TIP3    H238222   2.077   4.884   1.989  0.6146 -1.6045  2.4998
 5555TIP3   OH238223   3.555   2.331   0.987  0.4410  0.0513 -0.2757
 5555TIP3    H138224   3.633   2.278   0.971 -0.1553 -0.7863 -0.4595
 5555TIP3    H238225   3.482   2.271   0.972 -0.2347  0.0667  2.5278
 5556TIP3   OH238226   3.680   0.980   7.611  0.1299 -0.2477  0.9492
 5556TIP3    H138227   3.718   1.050   7.665 -1.0557  1.0492  0.1799
 5556TIP3    H238228   3.738   0.974   7.535  0.8437 -0.8837  1.5322
 5557TIP3   OH238229   4.959   0.413   7.172  0.0924  0.5570  0.5362
 5557TIP3    H138230   4.906   0.467   7.231 -0.3635 -0.5189  1.1433
 5557TIP3    H238231   4.914   0.419   7.087 -1.4907 -0.9469  1.2141
 5558TIP3   OH238232   0.958   3.184   0.227 -0.0378 -0.0016  0.5440
 5558TIP3    H138233   0.923   3.132   0.154  0.1066  0.9219 -0.2033
 5558TIP3    H238234   0.895   3.171   0.298  0.1178 -1.3743  0.4588
 5559TIP3   OH238235   0.881   3.449   8.590  0.3728  0.1147 -0.1310
 5559TIP3    H138236   0.923   3.405   8.664 -2.7506 -1.8531  0.6802
 5559TIP3    H238237   0.788   3.450   8.613 -0.7216 -0.4362 -3.9474
 5560TIP3   OH238238   0.982   2.838   0.044  1.1030  0.1486  0.6286
 5560TIP3    H138239   0.929   2.918   0.049  1.2936  0.3486 -0.3168
 5560TIP3    H238240   0.952   2.795  -0.036  2.1603  0.1174  0.2410
 5561TIP3   OH238241   5.137   3.844   8.222 -0.1466 -0.7402 -0.0310
 5561TIP3    H138242   5.076   3.857   8.149 -1.1501 -1.7867  0.5787
 5561TIP3    H238243   5.224   3.851   8.182 -0.5228  2.8716 -0.5938
 5562TIP3   OH238244   1.647   0.973   8.509  0.0790 -0.6010 -0.2719
 5562TIP3    H138245   1.584   1.019   8.453  0.2661  1.2822  0.9679
 5562TIP3    H238246   1.654   0.886   8.470 -2.1354 -0.3845 -1.3468
 5563TIP3   OH238247   4.517   1.722   1.736 -0.1767  0.2217  0.2980
 5563TIP3    H138248   4.433   1.764   1.756 -1.4449 -0.8842 -2.2181
 5563TIP3    H238249   4.517   1.641   1.788 -1.5179 -0.6203 -0.9485
 5564TIP3   OH238250   5.081   1.575   2.101  0.4507 -0.0259  0.3009
 5564TIP3    H138251   4.998   1.562   2.147  0.1283  0.9059  0.0057
 5564TIP3    H238252   5.115   1.486   2.088 -0.4889 -0.4206  0.4395
 5565TIP3   OH238253   1.322   4.501   0.899 -0.3773 -0.4024  0.4295
 5565TIP3    H138254   1.299   4.409   0.905  0.9116 -0.7275  0.6144
 5565TIP3    H238255   1.373   4.508   0.819 -1.5682  0.4085 -0.2847
 5566TIP3   OH238256   5.043   3.170   7.893  0.0058  0.3411  0.0343
 5566TIP3    H138257   4.950   3.164   7.873  0.1686 -1.1545 -0.4132
 5566TIP3    H238258   5.051   3.138   7.983 -0.0805  2.0102  0.6701
 5567TIP3   OH238259   6.257   1.267   0.252  0.5228 -0.0117 -0.0908
 5567TIP3    H138260   6.338   1.220   0.273 -0.4087 -1.3428  0.6677
 5567TIP3    H238261   6.188   1.214   0.291 -0.8312  0.4584 -1.7250
 5568TIP3   OH238262   2.574   4.633   8.298  0.0550 -0.0318 -0.3886
 5568TIP3    H138263   2.595   4.554   8.249 -0.8080 -1.0316  0.7863
 5568TIP3    H238264   2.522   4.686   8.237  0.1725 -0.6185 -1.0085
 5569TIP3   OH238265   5.972   6.720   8.405  0.3970 -0.2300 -0.5704
 5569TIP3    H138266   5.915   6.762   8.470  0.8943 -0.3602 -0.0377
 5569TIP3    H238267   5.912   6.685   8.339 -0.0589  0.8375 -0.7476
 5570TIP3   OH238268   3.650   0.576   7.836  0.3023  0.4753  0.0816
 5570TIP3    H138269   3.610   0.654   7.798 -2.2628  0.2648  2.1078
 5570TIP3    H238270   3.617   0.503   7.784  2.1467  0.6032 -1.3706
 5571TIP3   OH238271   1.563   6.820   7.481 -0.0499  0.2179  0.4339
 5571TIP3    H138272   1.501   6.759   7.441  1.7364 -1.4328  0.0623
 5571TIP3    H238273   1.553   6.901   7.431 -0.7512 -0.5229 -0.6661
 5572TIP3   OH238274   5.620   0.686   8.605  0.3221 -0.2266  0.0451
 5572TIP3    H138275   5.614   0.727   8.691 -0.6157 -0.2552  0.0031
 5572TIP3    H238276   5.640   0.594   8.623 -0.0773 -0.2761  0.2458
 5573TIP3   OH238277   6.512   3.400   1.043 -0.5047  0.0967 -0.0542
 5573TIP3    H138278   6.596   3.398   1.088 -1.8826 -1.1702  2.6796
 5573TIP3    H238279   6.484   3.492   1.048 -0.1608  0.1607  0.7821
 5574TIP3   OH238280   0.132   0.244   1.594  0.2169 -0.6247  0.5494
 5574TIP3    H138281   0.225   0.261   1.582  0.3097 -0.6219  1.2265
 5574TIP3    H238282   0.126   0.199   1.679 -0.3925 -0.6679  0.4942
 5575TIP3   OH238283   6.032   0.040   8.165 -0.7972  0.7480 -0.8218
 5575TIP3    H138284   6.126   0.055   8.172 -0.7636  0.2728  0.0122
 5575TIP3    H238285   6.012  -0.017   8.240 -1.6333  0.3049 -1.3656
 5576TIP3   OH238286   4.574   0.750   1.240  0.3081  0.0934 -0.6726
 5576TIP3    H138287   4.656   0.701   1.234  0.2058 -0.1725 -0.0457
 5576TIP3    H238288   4.575   0.786   1.329  0.1301  0.7929 -0.9446
 5577TIP3   OH238289   5.056   3.087   2.227  0.6120  0.4023  0.1227
 5577TIP3    H138290   5.123   3.046   2.173  0.6138  0.4090  0.1202
 5577TIP3    H238291   5.095   3.091   2.315  0.7987  0.8309  0.0252
 5578TIP3   OH238292   2.203   4.761   6.670 -0.1513  0.0727 -0.4249
 5578TIP3    H138293   2.269   4.764   6.600  1.7453  3.9187  1.1672
 5578TIP3    H238294   2.123   4.795   6.629 -0.1686 -1.2055 -1.5192
 5579TIP3   OH238295   0.226   1.387   1.829  0.0920  0.2194 -0.4721
 5579TIP3    H138296   0.318   1.388   1.852 -0.5726 -0.3878  2.6520
 5579TIP3    H238297   0.187   1.321   1.887 -2.6985  2.3235  0.2693
 5580TIP3   OH238298   2.167   5.849   8.397  0.4752 -0.6535  0.5558
 5580TIP3    H138299   2.126   5.775   8.440  0.0730 -0.2371  0.8983
 5580TIP3    H238300   2.245   5.868   8.450  0.5152 -0.7638  0.5356
 5581TIP3   OH238301   1.967   3.187   1.466  0.4717  0.0530  0.5774
 5581TIP3    H138302   2.001   3.099   1.481  2.5213  0.7949  0.6815
 5581TIP3    H238303   2.031   3.244   1.508 -0.9394  1.5973  0.7378
 5582TIP3   OH238304   5.987   6.643   7.969 -0.0355 -0.5359  0.0713
 5582TIP3    H138305   5.959   6.689   8.048 -0.1154  0.6567 -0.6221
 5582TIP3    H238306   5.930   6.677   7.900  0.8672 -0.6028 -0.7343
 5583TIP3   OH238307   1.537   3.101   8.293  0.1672  0.0195 -0.2791
 5583TIP3    H138308   1.549   3.088   8.387  0.7699  0.5932 -0.2714
 5583TIP3    H238309   1.472   3.035   8.268 -0.5578  0.3509  0.6713
 5584TIP3   OH238310   2.274   3.488   7.845 -0.9394  0.3185  0.1036
 5584TIP3    H138311   2.361   3.449   7.850 -0.6689  0.7647 -0.9247
 5584TIP3    H238312   2.218   3.428   7.894 -0.3167 -0.7592 -0.4673
 5585TIP3   OH238313   5.575   4.957   7.245 -0.6466  0.1506 -0.3512
 5585TIP3    H138314   5.631   4.979   7.320 -0.6340  2.3008 -0.9279
 5585TIP3    H238315   5.487   4.980   7.273 -0.7901 -0.0443 -0.6359
 5586TIP3   OH238316   6.694   5.501   1.403 -0.7766 -0.1438  0.2267
 5586TIP3    H138317   6.613   5.549   1.419 -0.0913  1.0000  0.4540
 5586TIP3    H238318   6.702   5.499   1.308 -1.1372 -0.3720  0.2015
 5587TIP3   OH238319   3.500   4.050   2.517  0.3085  0.4567  0.4747
 5587TIP3    H138320   3.455   4.033   2.600  0.1967  2.6083  0.9198
 5587TIP3    H238321   3.446   4.006   2.451 -0.2664 -0.2733  1.4135
 5588TIP3   OH238322   5.779   2.460   0.952 -0.1301  0.0716 -0.1548
 5588TIP3    H138323   5.844   2.527   0.932  0.2036 -0.5716 -1.3138
 5588TIP3    H238324   5.704   2.482   0.898 -0.6180  0.3909  0.6365
 5589TIP3   OH238325   3.601   6.601   2.716 -0.4499  0.0585  0.2067
 5589TIP3    H138326   3.624   6.685   2.678 -1.6894 -0.5377 -2.0435
 5589TIP3    H238327   3.681   6.548   2.706 -0.2469  0.4150 -0.0895
 5590TIP3   OH238328   3.739   0.160   7.007  0.4702  0.0821  0.2751
 5590TIP3    H138329   3.779   0.209   6.935  0.8368 -1.2469 -0.4659
 5590TIP3    H238330   3.653   0.135   6.975  1.4396 -2.4011 -0.6615
 5591TIP3   OH238331   1.823   3.098   0.355 -0.3705  0.6624  0.5502
 5591TIP3    H138332   1.846   3.041   0.429  0.1983 -1.5017 -1.2021
 5591TIP3    H238333   1.785   3.039   0.290  1.6277  1.9980 -1.9793
 5592TIP3   OH238334   5.727   1.884   8.111 -0.8202  0.3320  0.0874
 5592TIP3    H138335   5.649   1.850   8.155 -0.2259 -0.5980  0.4664
 5592TIP3    H238336   5.799   1.861   8.170 -0.4383  3.1623  0.8530
 5593TIP3   OH238337   4.812   0.072   8.280 -0.3440  0.1925 -0.4488
 5593TIP3    H138338   4.753   0.122   8.336 -0.4196  0.1734 -0.5115
 5593TIP3    H238339   4.886   0.051   8.336  0.2212  1.3538 -0.7359
 5594TIP3   OH238340   0.112   6.153   0.799 -0.1448 -0.5063  0.0513
 5594TIP3    H138341   0.181   6.090   0.817  0.9443  1.0079  1.4475
 5594TIP3    H238342   0.052   6.145   0.873  1.2143  1.6010  1.5017
 5595TIP3   OH238343   1.402   4.260   8.178  0.3355 -0.0462 -0.0218
 5595TIP3    H138344   1.433   4.171   8.160 -1.2401 -1.1190  2.0577
 5595TIP3    H238345   1.355   4.252   8.261 -4.2486  1.6494 -2.1259
 5596TIP3   OH238346   5.626   0.822   0.755  0.2284  0.1263  0.0129
 5596TIP3    H138347   5.715   0.835   0.723  0.8432 -0.2256  1.5002
 5596TIP3    H238348   5.601   0.906   0.793  0.2510 -0.0075  0.3301
 5597TIP3   OH238349   5.023   0.265   0.681  0.5634  0.3714  0.0815
 5597TIP3    H138350   4.928   0.256   0.671  0.5861 -0.8689  0.8803
 5597TIP3    H238351   5.047   0.331   0.615 -0.5567 -0.7774 -1.5540
 5598TIP3   OH238352   3.325   1.398   6.803 -0.3495 -0.3866  0.4669
 5598TIP3    H138353   3.263   1.460   6.766  0.9334  0.3934 -0.4668
 5598TIP3    H238354   3.338   1.333   6.734  1.2032  0.4582 -0.1006
 5599TIP3   OH238355   0.464   4.634   1.528 -0.0726 -0.0698  0.2223
 5599TIP3    H138356   0.387   4.649   1.473 -0.8978  1.0161  1.5827
 5599TIP3    H238357   0.427   4.607   1.613  1.0568  0.0201  0.7577
 5600TIP3   OH238358   6.671   6.106   1.418 -0.5447 -0.0638 -0.1249
 5600TIP3    H138359   6.666   6.146   1.505 -0.7913  0.8375 -0.5355
 5600TIP3    H238360   6.688   6.014   1.434 -0.7973  0.0577  0.8848
 5601TIP3   OH238361   6.408   1.945   1.564 -0.3482  0.5901  0.0920
 5601TIP3    H138362   6.449   1.884   1.626 -0.2872 -0.9930 -1.4344
 5601TIP3    H238363   6.373   2.015   1.619 -0.8267 -1.0369  1.9878
 5602TIP3   OH238364   0.332   0.191   7.441 -0.6126 -0.1230 -0.4196
 5602TIP3    H138365   0.345   0.096   7.447 -0.5333 -0.0287  1.5847
 5602TIP3    H238366   0.249   0.206   7.488 -0.4649  0.8319 -0.4557
 5603TIP3   OH238367   3.545   3.506   7.028 -0.8043 -0.1882 -0.1536
 5603TIP3    H138368   3.590   3.503   6.944  0.9670 -0.2103  0.7437
 5603TIP3    H238369   3.593   3.445   7.084  0.6632  2.6790  2.0244
 5604TIP3   OH238370   3.610   6.410   7.971  0.4710  0.2328 -0.5698
 5604TIP3    H138371   3.624   6.438   8.062  1.1748 -3.3283  0.6047
 5604TIP3    H238372   3.515   6.404   7.962  0.3911 -1.7360  0.8791
 5605TIP3   OH238373   2.949   2.996   0.370  0.2842 -0.0482  0.4914
 5605TIP3    H138374   2.952   3.092   0.371 -1.8841  0.2363 -3.1157
 5605TIP3    H238375   3.026   2.970   0.319 -0.8316  0.1065 -1.3772
 5606TIP3   OH238376   5.649   6.398   7.527 -0.3086  0.5466  0.4110
 5606TIP3    H138377   5.558   6.370   7.526 -0.0922 -0.1698 -0.4398
 5606TIP3    H238378   5.676   6.395   7.436  0.4943  1.0119  0.6232
 5607TIP3   OH238379   6.614   2.163   7.579  0.2822 -0.0488  0.0922
 5607TIP3    H138380   6.619   2.117   7.663  1.6185  1.1995  0.7372
 5607TIP3    H238381   6.609   2.255   7.602 -0.3285  0.2657 -1.2001
 5608TIP3   OH238382   5.249   3.653   0.673 -0.2421  0.1031 -0.5887
 5608TIP3    H138383   5.292   3.627   0.592  0.3163 -2.8877  0.5656
 5608TIP3    H238384   5.317   3.649   0.740 -1.5762 -1.8781  0.7661
 5609TIP3   OH238385   4.222   2.358   0.771  0.4858  0.3228 -0.0103
 5609TIP3    H138386   4.206   2.444   0.809 -2.2506  0.6292 -1.6012
 5609TIP3    H238387   4.176   2.297   0.829 -1.7391  0.5482 -1.4182
 5610TIP3   OH238388   3.485   4.321   2.610  0.0980 -0.4591  0.3074
 5610TIP3    H138389   3.450   4.389   2.552 -0.9625  0.1226  1.5552
 5610TIP3    H238390   3.506   4.248   2.552 -1.7600 -0.2387 -0.7141
 5611TIP3   OH238391   4.953   3.360   0.927  0.3964 -0.2436  0.5080
 5611TIP3    H138392   5.017   3.430   0.940 -0.5863  0.7638  0.1587
 5611TIP3    H238393   4.959   3.306   1.006  2.4809 -0.8844 -0.0362
 5612TIP3   OH238394   3.332   6.361   1.111 -0.3491 -0.3715 -0.1922
 5612TIP3    H138395   3.304   6.361   1.202  0.8267 -0.7593  0.1807
 5612TIP3    H238396   3.427   6.356   1.114 -0.3050 -0.8297 -1.4421
 5613TIP3   OH238397   4.800   1.944   8.043  0.0839 -0.0823 -0.1986
 5613TIP3    H138398   4.747   2.023   8.031  1.4651  0.9367  0.1673
 5613TIP3    H238399   4.888   1.970   8.017  0.9352 -0.9810  1.5936
 5614TIP3   OH238400   6.838   1.521   1.801 -0.3755 -0.6340  0.1929
 5614TIP3    H138401   6.917   1.468   1.792  0.1586 -0.1308  1.6308
 5614TIP3    H238402   6.822   1.554   1.713  1.4436 -0.1605 -0.0029
 5615TIP3   OH238403   3.039   0.573   7.859  0.4510  0.3900 -0.0282
 5615TIP3    H138404   3.004   0.558   7.947  0.2243 -0.9156 -0.3177
 5615TIP3    H238405   2.984   0.518   7.802  2.5877 -1.2825 -0.5802
 5616TIP3   OH238406   6.809   3.714   0.752 -0.0452  0.1854 -0.6802
 5616TIP3    H138407   6.862   3.755   0.820  0.8129 -0.9369 -0.6488
 5616TIP3    H238408   6.858   3.727   0.671 -0.3431  0.2243 -0.8574
 5617TIP3   OH238409   6.332   3.380   7.103 -1.0688 -0.2838 -0.1899
 5617TIP3    H138410   6.257   3.435   7.080  0.3630  2.6293  1.4543
 5617TIP3    H238411   6.378   3.364   7.021 -3.3109 -2.0031 -1.1944
 5618TIP3   OH238412   0.182   3.783   6.574  0.2180  0.5163  0.3531
 5618TIP3    H138413   0.271   3.793   6.541  0.5139  1.7515  1.4483
 5618TIP3    H238414   0.186   3.815   6.664 -0.9929 -0.8967  0.9519
 5619TIP3   OH238415   4.436   0.564   0.117  0.8029 -0.1152 -0.4122
 5619TIP3    H138416   4.361   0.529   0.070  0.4524  1.3468 -0.9824
 5619TIP3    H238417   4.502   0.580   0.050  0.5404  1.3579 -0.3508
 5620TIP3   OH238418   0.201   3.782   0.936  0.2876  0.6539  0.1061
 5620TIP3    H138419   0.295   3.770   0.948 -0.0777 -2.1678  0.9059
 5620TIP3    H238420   0.181   3.863   0.983  2.2770  1.1830  0.1163
 5621TIP3   OH238421   0.069   4.216   7.911 -0.6559  0.0122 -0.0003
 5621TIP3    H138422   0.135   4.207   7.980  1.0102  1.5863 -1.2646
 5621TIP3    H238423   0.086   4.142   7.852  0.6317  0.8994 -0.7849
 5622TIP3   OH238424   2.445   3.903   8.474 -0.0598  0.7298 -0.3699
 5622TIP3    H138425   2.409   3.861   8.396  1.3670 -0.8740 -0.2235
 5622TIP3    H238426   2.369   3.919   8.530 -0.8100 -0.3615 -1.0376
 5623TIP3   OH238427   4.523   6.720   7.207 -0.7827 -0.0786  0.9025
 5623TIP3    H138428   4.563   6.772   7.277  0.3326 -0.9775  0.9510
 5623TIP3    H238429   4.479   6.648   7.253  0.6689 -1.1566  0.6794
 5624TIP3   OH238430   3.782   3.760   0.297  0.0481  0.1457  0.2431
 5624TIP3    H138431   3.695   3.787   0.266 -0.8277 -1.5928  1.0565
 5624TIP3    H238432   3.809   3.691   0.236 -1.2036 -2.5222  2.4493
 5625TIP3   OH238433   3.766   2.017   7.989 -0.4806 -0.6047  0.9708
 5625TIP3    H138434   3.791   2.084   7.925 -1.7529  1.7647  2.7913
 5625TIP3    H238435   3.713   1.955   7.938 -1.2850  1.0739 -0.3648
 5626TIP3   OH238436   2.787   0.392   8.651 -0.5982  0.2735  0.7309
 5626TIP3    H138437   2.806   0.430   8.737  0.9066  0.4744  0.3421
 5626TIP3    H238438   2.816   0.301   8.658 -0.6547  0.2364  0.4983
 5627TIP3   OH238439   0.995   2.502   0.293  0.0330  0.1827 -0.3791
 5627TIP3    H138440   1.049   2.480   0.369 -0.2053 -0.8509 -0.5033
 5627TIP3    H238441   0.912   2.533   0.330 -0.2793 -0.8332 -0.2180
 5628TIP3   OH238442   0.589   4.875   0.816 -0.7283 -0.1306 -0.5862
 5628TIP3    H138443   0.673   4.829   0.823 -1.6733 -2.0891 -1.4124
 5628TIP3    H238444   0.525   4.815   0.855 -1.7433  1.4110  0.2192
 5629TIP3   OH238445   2.628   3.598   0.777  0.3396 -0.4234  0.3550
 5629TIP3    H138446   2.553   3.539   0.779 -0.9006  1.1182  1.3588
 5629TIP3    H238447   2.682   3.571   0.852  1.0045 -1.7269 -0.5445
 5630TIP3   OH238448   0.863   3.593   1.001  0.2350 -0.2502 -0.0229
 5630TIP3    H138449   0.823   3.519   0.956  1.2378 -1.8049  1.5309
 5630TIP3    H238450   0.866   3.663   0.935  0.7372 -2.0683 -2.0359
 5631TIP3   OH238451   0.224   0.082   8.423  0.1977  0.4257 -0.0975
 5631TIP3    H138452   0.194   0.070   8.513 -0.7573  1.0868 -0.3224
 5631TIP3    H238453   0.158   0.038   8.369  0.3931  0.6331 -0.5134
 5632TIP3   OH238454   2.951   2.355   7.225  0.1094 -0.2383  0.3156
 5632TIP3    H138455   2.869   2.305   7.222 -0.4783  0.7125 -0.1418
 5632TIP3    H238456   3.004   2.311   7.291 -0.7185 -0.9487  0.5267
 5633TIP3   OH238457   4.593   4.904   6.974 -0.2156 -0.6417  0.2484
 5633TIP3    H138458   4.590   4.836   6.907 -1.4071 -0.6644  0.3054
 5633TIP3    H238459   4.685   4.905   7.003 -0.0034 -1.6490 -0.3325
 5634TIP3   OH238460   1.012   2.867   8.012  0.2826  0.2796  0.1212
 5634TIP3    H138461   1.024   2.773   7.998  0.0944  0.2772 -0.0230
 5634TIP3    H238462   1.016   2.906   7.925  3.5523  0.8074  0.3710
 5635TIP3   OH238463   6.267   5.667   7.827  0.1075 -0.1101  0.2190
 5635TIP3    H138464   6.175   5.646   7.841 -0.3385  1.5049 -0.1037
 5635TIP3    H238465   6.286   5.634   7.739  0.0952 -1.2000  0.6097
 5636TIP3   OH238466   0.094   3.033   8.205  0.2100  0.5029  0.3643
 5636TIP3    H138467   0.186   3.058   8.215  0.4404 -0.4900  0.8419
 5636TIP3    H238468   0.075   2.978   8.281 -1.2603  1.9960  1.1403
 5637TIP3   OH238469   5.143   4.058   1.341 -0.0100  0.1946 -0.0395
 5637TIP3    H138470   5.161   4.148   1.368  0.9020  0.4790 -1.4551
 5637TIP3    H238471   5.067   4.065   1.283 -0.5600 -0.0948  0.6362
 5638TIP3   OH238472   6.641   1.577   6.951 -0.2902 -0.2008  0.2791
 5638TIP3    H138473   6.685   1.599   6.869 -3.0735  1.1536 -1.0047
 5638TIP3    H238474   6.660   1.485   6.965  0.5023 -0.4003 -1.7647
 5639TIP3   OH238475   1.431   0.514   1.137 -0.3763  1.0312  0.0760
 5639TIP3    H138476   1.464   0.593   1.180 -1.1875  1.2264  0.3555
 5639TIP3    H238477   1.360   0.545   1.081 -0.9646  0.4522  0.4882
 5640TIP3   OH238478   4.689   2.224   1.687 -0.5907 -0.1246 -0.0191
 5640TIP3    H138479   4.632   2.179   1.748  0.3582 -1.3394  0.0005
 5640TIP3    H238480   4.777   2.202   1.715 -0.1239 -0.0598 -1.3435
 5641TIP3   OH238481   0.033   6.561   7.860 -0.9281 -0.3823 -0.1746
 5641TIP3    H138482  -0.055   6.528   7.846 -0.7465 -1.6348  1.3341
 5641TIP3    H238483   0.074   6.559   7.774 -2.7672  1.5847 -1.1893
 5642TIP3   OH238484   6.726   0.169   7.505 -0.6539  0.2384  0.0401
 5642TIP3    H138485   6.631   0.174   7.494 -0.6936  1.1877  0.7108
 5642TIP3    H238486   6.751   0.089   7.459 -1.6257  0.5953 -1.1764
 5643TIP3   OH238487   0.893   3.691   2.077 -0.6931 -0.2052 -0.1944
 5643TIP3    H138488   0.844   3.771   2.096 -1.1006  0.2425 -2.8276
 5643TIP3    H238489   0.914   3.696   1.984  1.5405 -1.9595  0.1012
 5644TIP3   OH238490   2.457   5.785   0.465 -0.0130 -0.3740  0.1794
 5644TIP3    H138491   2.474   5.785   0.560  0.6553  0.7395  0.0800
 5644TIP3    H238492   2.513   5.715   0.431 -0.1322 -0.6705  0.5891
 5645TIP3   OH238493   1.401   1.714   7.103  0.2904  0.5019  0.7276
 5645TIP3    H138494   1.416   1.806   7.085 -0.9493  1.1522  2.7201
 5645TIP3    H238495   1.370   1.711   7.193  0.7123 -1.9186  0.8768
 5646TIP3   OH238496   2.593   0.931   7.730 -0.4558 -0.0857  0.5174
 5646TIP3    H138497   2.644   0.860   7.769  0.3612  0.4584  0.4607
 5646TIP3    H238498   2.508   0.891   7.711 -0.2001 -0.8951  1.0029
 5647TIP3   OH238499   6.053   4.792   7.227  0.1639  0.3351 -0.2012
 5647TIP3    H138500   6.146   4.775   7.216  0.2643  1.4738 -1.2740
 5647TIP3    H238501   6.028   4.842   7.150 -1.8291 -1.7735 -1.0579
 5648TIP3   OH238502   1.206   6.461   7.207  0.1094 -0.3366  0.1845
 5648TIP3    H138503   1.220   6.367   7.194 -1.1771 -0.6908  1.0503
 5648TIP3    H238504   1.153   6.488   7.132  1.3173 -0.0637 -0.5869
 5649TIP3   OH238505   3.186   3.108   8.174 -0.4146 -0.2871  0.5348
 5649TIP3    H138506   3.096   3.125   8.144 -0.0933  0.8274  0.1273
 5649TIP3    H238507   3.187   3.139   8.264 -0.5167 -0.5922  0.6424
 5650TIP3   OH238508   3.486   4.304   7.570 -0.1308 -0.0428 -0.6506
 5650TIP3    H138509   3.576   4.304   7.602 -0.3730 -0.1065  0.0564
 5650TIP3    H238510   3.437   4.255   7.636 -0.5166 -0.8749 -1.5300
 5651TIP3   OH238511   3.009   4.181   6.999 -0.2376 -0.1482  0.4940
 5651TIP3    H138512   2.925   4.225   6.993 -0.2945 -0.3296 -0.0659
 5651TIP3    H238513   3.059   4.214   6.924  0.7753  1.1838  1.7104
 5652TIP3   OH238514   0.044   5.033   7.525 -0.3925 -0.4683 -0.3684
 5652TIP3    H138515  -0.001   5.115   7.548 -1.0183 -1.1082  0.7967
 5652TIP3    H238516   0.136   5.049   7.547 -0.6067 -0.2614  0.4198
 5653TIP3   OH238517   3.036   5.734   8.220 -0.0485  0.6517 -0.2997
 5653TIP3    H138518   3.132   5.732   8.224 -0.0815  0.2971  0.6489
 5653TIP3    H238519   3.008   5.697   8.304 -1.0348 -1.0998 -1.3332
 5654TIP3   OH238520   4.194   2.443   1.657  0.5862  0.0141 -0.0582
 5654TIP3    H138521   4.255   2.478   1.722  0.3484  0.2628  0.0290
 5654TIP3    H238522   4.158   2.364   1.697  0.6251  0.0317  0.0106
 5655TIP3   OH238523   6.090   4.741   2.599  0.1958  0.5773 -0.5378
 5655TIP3    H138524   6.165   4.747   2.659  1.6006 -1.2116 -1.9946
 5655TIP3    H238525   6.100   4.816   2.541  1.7070 -0.3635 -1.5639
 5656TIP3   OH238526   0.199   0.441   7.755 -1.1671 -0.0245  1.0107
 5656TIP3    H138527   0.146   0.499   7.700 -1.1280  0.6035  1.6213
 5656TIP3    H238528   0.163   0.354   7.740 -0.7213  0.0354 -0.5176
 5657TIP3   OH238529   2.032   5.117   0.154  0.2060  0.0416  0.0977
 5657TIP3    H138530   2.048   5.023   0.160 -0.2456  0.0481  2.3549
 5657TIP3    H238531   1.949   5.125   0.109  0.0318 -0.6719  0.2837
 5658TIP3   OH238532   2.793   1.713   0.817 -0.2240 -0.0706  0.0689
 5658TIP3    H138533   2.833   1.775   0.878  1.9291 -0.1459 -1.1432
 5658TIP3    H238534   2.784   1.632   0.867 -4.2242  1.3219  2.0745
 5659TIP3   OH238535   1.188   1.805   6.842 -0.5040 -0.3448  0.2609
 5659TIP3    H138536   1.226   1.736   6.896  0.6928  1.8195  2.3970
 5659TIP3    H238537   1.263   1.850   6.803 -1.3145 -2.1277 -3.8938
 5660TIP3   OH238538   2.605   2.582   0.554  0.2367  0.1062 -0.1634
 5660TIP3    H138539   2.521   2.583   0.600 -0.5570  3.7458 -1.3618
 5660TIP3    H238540   2.585   2.550   0.467  0.1302  0.6494 -0.3433
 5661TIP3   OH238541   6.407   5.921   0.694 -0.3765 -0.4540 -0.6545
 5661TIP3    H138542   6.400   6.003   0.645 -1.2422 -0.2404 -0.1907
 5661TIP3    H238543   6.501   5.904   0.700 -0.1999  0.4152 -0.9007
 5662TIP3   OH238544   1.605   5.744   1.183 -0.5480  0.1253  0.3932
 5662TIP3    H138545   1.572   5.834   1.186 -2.7344 -0.6225  1.2077
 5662TIP3    H238546   1.615   5.725   1.090 -0.5261  1.0746  0.1996
 5663TIP3   OH238547   1.610   5.698   7.667  0.0175  0.0742  0.2936
 5663TIP3    H138548   1.557   5.643   7.608  0.9827 -1.2563  0.6301
 5663TIP3    H238549   1.696   5.700   7.626  0.6372 -0.6745  1.5156
 5664TIP3   OH238550   3.893   4.685   2.481 -0.3600  0.1142  0.3454
 5664TIP3    H138551   3.854   4.610   2.525 -0.9754  1.2090  1.7748
 5664TIP3    H238552   3.824   4.717   2.423 -0.2558 -0.1725  0.0658
 5665TIP3   OH238553   4.231   1.538   1.674  0.0860 -0.5187 -0.8169
 5665TIP3    H138554   4.275   1.454   1.682 -1.0454 -0.9681  1.6750
 5665TIP3    H238555   4.278   1.596   1.735 -1.8559 -0.6828  0.9715
 5666TIP3   OH238556   1.388   2.384   2.158  0.0402  0.2461 -0.2333
 5666TIP3    H138557   1.335   2.392   2.078 -1.5677  3.4522  0.9801
 5666TIP3    H238558   1.453   2.454   2.151 -0.6170  1.0916  1.5481
 5667TIP3   OH238559   5.682   0.139   7.341  0.8255 -0.5563 -0.2267
 5667TIP3    H138560   5.695   0.046   7.359  1.8974 -0.8019 -2.0719
 5667TIP3    H238561   5.670   0.179   7.428  1.3965 -2.2434  0.6613
 5668TIP3   OH238562   0.830   6.142   0.028  0.0622 -0.0368  0.0093
 5668TIP3    H138563   0.800   6.166  -0.060  0.3740 -1.8646 -0.6331
 5668TIP3    H238564   0.897   6.208   0.049  0.0757  0.3542 -1.1748
 5669TIP3   OH238565   4.423   3.112   0.809  0.0102  0.1038 -0.1475
 5669TIP3    H138566   4.420   3.106   0.714 -1.7545 -1.5320 -0.0355
 5669TIP3    H238567   4.502   3.065   0.834 -1.3368 -2.6381 -0.6856
 5670TIP3   OH238568   0.878   6.111   1.082  0.5358 -0.3421  0.1028
 5670TIP3    H138569   0.934   6.165   1.026  0.8092 -0.7443 -0.0120
 5670TIP3    H238570   0.874   6.160   1.164  0.1702  0.2249 -0.2456
 5671TIP3   OH238571   2.942   3.256   7.366 -0.2410 -0.1633 -0.3155
 5671TIP3    H138572   2.916   3.164   7.360  0.5428 -0.4948  1.0114
 5671TIP3    H238573   2.992   3.262   7.448 -0.3099  1.4513 -0.3553
 5672TIP3   OH238574   3.800   2.182   7.768 -0.4159  0.1109 -0.6686
 5672TIP3    H138575   3.872   2.205   7.708 -2.0305  4.4397 -1.2729
 5672TIP3    H238576   3.726   2.164   7.710 -0.7142 -0.9839  0.0246
 5673TIP3   OH238577   1.015   0.985   7.028 -0.3006 -0.4927  0.1746
 5673TIP3    H138578   1.061   0.940   7.099 -1.9532  0.8036  2.2262
 5673TIP3    H238579   1.065   1.066   7.015 -1.3058  0.4371  1.6932
 5674TIP3   OH238580   0.312   3.796   7.183 -0.4175 -0.1450 -0.3909
 5674TIP3    H138581   0.237   3.855   7.186 -0.1911  0.1547 -0.6080
 5674TIP3    H238582   0.387   3.850   7.208 -0.1920 -0.3097 -0.7039
 5675TIP3   OH238583   4.775   0.033   8.584  0.3434  1.0574  0.3511
 5675TIP3    H138584   4.764   0.089   8.662  0.9270  1.5117  0.1153
 5675TIP3    H238585   4.769  -0.056   8.618 -0.3049  1.2499  0.7818
 5676TIP3   OH238586   2.018   1.552   6.245  0.4533 -0.1306 -0.0839
 5676TIP3    H138587   2.093   1.500   6.215  1.0951  0.0950  1.0680
 5676TIP3    H238588   2.044   1.643   6.229 -0.8085 -0.1084 -2.4202
 5677TIP3   OH238589   0.377   2.921   0.989 -0.3874  0.1266  0.1884
 5677TIP3    H138590   0.449   2.953   0.935 -1.8801 -0.0478 -2.0350
 5677TIP3    H238591   0.312   2.991   0.988 -0.8573 -0.2787  0.9494
 5678TIP3   OH238592   5.913   2.924   0.746 -0.5677  0.5551  0.0911
 5678TIP3    H138593   5.993   2.944   0.699 -0.9923  1.4459 -0.2842
 5678TIP3    H238594   5.920   2.974   0.828 -0.3275 -0.1095  0.4837
 5679TIP3   OH238595   6.251   4.101   2.244  0.1610  0.3937 -1.2053
 5679TIP3    H138596   6.171   4.075   2.289  2.4657 -2.7104  1.4892
 5679TIP3    H238597   6.280   4.179   2.291 -0.6276  0.8459 -1.4438
 5680TIP3   OH238598   5.589   0.475   7.683 -0.0814  0.2299 -0.6804
 5680TIP3    H138599   5.548   0.544   7.631 -1.0978  0.1581 -0.0222
 5680TIP3    H238600   5.648   0.521   7.743  0.8544  0.3365 -1.6650
 5681TIP3   OH238601   6.172   3.405   1.285 -0.3956  0.1221 -0.2152
 5681TIP3    H138602   6.179   3.494   1.319 -1.1657 -1.0218  3.4175
 5681TIP3    H238603   6.263   3.375   1.279 -0.1927  0.0988  2.0197
 5682TIP3   OH238604   4.136   0.376   7.577 -0.2964 -0.0840  0.0928
 5682TIP3    H138605   4.119   0.301   7.634 -0.5106  0.1990  0.4077
 5682TIP3    H238606   4.231   0.377   7.566 -0.2647 -0.2153  0.3443
 5683TIP3   OH238607   0.400   0.500   2.213 -0.1661  0.3198 -0.0335
 5683TIP3    H138608   0.333   0.432   2.220 -0.7060  0.8189 -0.2765
 5683TIP3    H238609   0.361   0.566   2.156  0.7751  0.3319 -0.6980
 5684TIP3   OH238610   6.566   2.371   0.610  0.0333 -0.2336  0.6398
 5684TIP3    H138611   6.592   2.349   0.521 -0.8585  2.0607 -0.2772
 5684TIP3    H238612   6.648   2.376   0.659  0.6410 -0.3601 -0.3483
 5685TIP3   OH238613   1.769   1.687   8.083  0.2585 -0.0929  0.0014
 5685TIP3    H138614   1.738   1.614   8.030 -0.6478  1.6895 -2.0879
 5685TIP3    H238615   1.863   1.673   8.091 -0.1306 -2.5524  1.5256
 5686TIP3   OH238616   4.115   4.175   1.549 -0.5026  0.5643 -0.8560
 5686TIP3    H138617   4.195   4.226   1.538  0.0273 -0.7680 -4.2085
 5686TIP3    H238618   4.145   4.093   1.589  0.3405 -0.8329 -4.0640
 5687TIP3   OH238619   4.351   0.742   7.725  0.0457 -0.4743 -0.3552
 5687TIP3    H138620   4.434   0.759   7.769  0.0290  1.8464 -1.0552
 5687TIP3    H238621   4.375   0.719   7.635 -0.0307  0.0124 -0.5067
 5688TIP3   OH238622   4.597   0.372   2.511 -0.5728  0.6891 -0.4158
 5688TIP3    H138623   4.687   0.405   2.515 -1.0052  1.9187 -0.2857
 5688TIP3    H238624   4.550   0.437   2.458 -1.6200  0.6654  0.4463
 5689TIP3   OH238625   3.348   2.315   0.448 -0.6994 -0.0343 -0.0439
 5689TIP3    H138626   3.283   2.365   0.498 -0.6313  2.2034 -2.0151
 5689TIP3    H238627   3.298   2.245   0.406 -2.0521  1.9472 -1.9364
 5690TIP3   OH238628   6.124   3.814   0.919  0.1554 -0.7317  0.0937
 5690TIP3    H138629   6.040   3.835   0.880 -0.3616 -0.4396  1.3036
 5690TIP3    H238630   6.102   3.779   1.006  1.2965  0.7204  1.0289
 5691TIP3   OH238631   4.110   3.843   1.430 -0.4412  0.3280 -0.4239
 5691TIP3    H138632   4.059   3.792   1.493 -0.7945 -1.6342 -2.1797
 5691TIP3    H238633   4.200   3.836   1.461 -0.1770 -3.1464 -1.5981
 5692TIP3   OH238634   4.762   0.929   0.084  0.1794  0.3010  0.1957
 5692TIP3    H138635   4.674   0.967   0.092 -1.1036 -2.0122 -1.7539
 5692TIP3    H238636   4.786   0.943  -0.008  1.5723  0.2367  0.5239
 5693TIP3   OH238637   4.845   1.213   1.576 -0.3182  0.6832 -0.0974
 5693TIP3    H138638   4.801   1.262   1.646 -1.5965  0.5616 -0.7914
 5693TIP3    H238639   4.919   1.268   1.552 -0.6006  1.3353  0.4857
 5694TIP3   OH238640   5.826   4.758   6.705  0.1635 -0.2610 -0.0153
 5694TIP3    H138641   5.734   4.758   6.679 -0.6473 -0.5849  2.5203
 5694TIP3    H238642   5.854   4.848   6.695 -0.1262 -0.3252 -1.6676
 5695TIP3   OH238643   0.708   2.182   8.491 -0.3475  0.3230 -0.0001
 5695TIP3    H138644   0.705   2.181   8.587  0.7553  4.8185  0.3197
 5695TIP3    H238645   0.802   2.188   8.470 -0.6151  0.3013 -1.3034
 5696TIP3   OH238646   1.352   3.148   0.992  0.6781  0.0097 -0.0679
 5696TIP3    H138647   1.287   3.079   1.006 -0.6242  0.9680 -1.1404
 5696TIP3    H238648   1.349   3.200   1.073  0.6955 -0.4045  0.2032
 5697TIP3   OH238649   0.647   2.809   6.777  0.2264  0.0865 -0.0809
 5697TIP3    H138650   0.637   2.721   6.740  0.9615  0.7658 -2.0095
 5697TIP3    H238651   0.688   2.860   6.707  0.0100  1.9268  1.0698
 5698TIP3   OH238652   4.286   2.325   0.210 -0.1932  0.0552  0.4338
 5698TIP3    H138653   4.326   2.411   0.222 -1.1912  0.3761  1.8135
 5698TIP3    H238654   4.207   2.328   0.265  0.3042 -2.1044  1.3680
 5699TIP3   OH238655   3.792   1.044   8.386 -0.1995  0.0214 -0.1401
 5699TIP3    H138656   3.888   1.047   8.384 -0.1711 -0.0357  0.6402
 5699TIP3    H238657   3.764   1.102   8.316  0.4014  1.1573  0.5385
 5700TIP3   OH238658   1.833   1.632   0.930 -0.2981 -0.1183 -0.0954
 5700TIP3    H138659   1.873   1.600   1.011  2.0261 -0.7910 -1.4258
 5700TIP3    H238660   1.792   1.555   0.891 -0.5049 -0.0238 -0.0661
 5701TIP3   OH238661   6.853   5.507   0.530 -0.2257  0.2071  0.4393
 5701TIP3    H138662   6.800   5.469   0.599  0.4073  0.3714  1.0216
 5701TIP3    H238663   6.882   5.591   0.565  1.7104 -0.5619  0.7617
 5702TIP3   OH238664   0.902   6.513   0.504  0.0273 -0.4672  0.0211
 5702TIP3    H138665   0.934   6.457   0.575 -0.7036  1.4088  1.8993
 5702TIP3    H238666   0.807   6.511   0.512 -0.1418 -1.0792 -1.6382
 5703TIP3   OH238667   0.431   5.591   7.419 -0.0268 -0.1065 -0.1653
 5703TIP3    H138668   0.343   5.555   7.410  0.1126 -0.4581 -0.1405
 5703TIP3    H238669   0.417   5.684   7.434 -0.3863 -0.1168 -0.4135
 5704TIP3   OH238670   1.409   4.948   7.449 -0.0633 -0.1277  0.8251
 5704TIP3    H138671   1.489   4.960   7.399  0.4849 -1.5408  1.3131
 5704TIP3    H238672   1.400   4.853   7.458 -1.6576  0.0076  1.0064
 5705TIP3   OH238673   5.564   6.739   7.322  0.1302  0.0893 -0.1910
 5705TIP3    H138674   5.649   6.697   7.312 -0.3267 -0.7957 -0.4643
 5705TIP3    H238675   5.545   6.775   7.235 -0.0065 -0.1754 -0.2728
 5706TIP3   OH238676   1.525   0.626   6.807  0.3592 -0.0196  0.1785
 5706TIP3    H138677   1.504   0.636   6.714  1.2537 -0.1069 -0.0404
 5706TIP3    H238678   1.507   0.533   6.825  0.1520  0.0047  0.1086
 5707TIP3   OH238679   1.545   4.905   0.552  0.3791  0.0464 -0.0653
 5707TIP3    H138680   1.506   4.819   0.536  0.4973 -0.2003  0.9076
 5707TIP3    H238681   1.547   4.947   0.466  1.2265 -1.2926 -0.7335
 5708TIP3   OH238682   0.777   1.458   7.326 -0.5793  0.1908  0.6683
 5708TIP3    H138683   0.804   1.411   7.405  1.2291  0.6787  0.3842
 5708TIP3    H238684   0.848   1.520   7.310 -0.0545 -1.0408 -2.2978
 5709TIP3   OH238685   2.174   3.090   1.605  0.0860 -0.1650  0.1619
 5709TIP3    H138686   2.188   2.996   1.613 -0.0377 -0.1850  0.1552
 5709TIP3    H238687   2.253   3.130   1.641  1.9338 -0.2721 -3.3608
 5710TIP3   OH238688   6.594   5.822   8.316  0.2044 -1.1732 -0.0391
 5710TIP3    H138689   6.685   5.845   8.298 -0.1010 -0.2176 -0.4216
 5710TIP3    H238690   6.586   5.731   8.288  0.7870 -0.9548 -0.9478
 5711TIP3   OH238691   3.260   3.851   7.442 -0.1653 -0.1297 -0.0461
 5711TIP3    H138692   3.251   3.766   7.485  0.4044 -0.6988 -1.0201
 5711TIP3    H238693   3.195   3.849   7.372 -1.8992  1.2510  1.4230
 5712TIP3   OH238694   4.006   4.209   7.463  0.1583  0.2312 -0.0800
 5712TIP3    H138695   3.922   4.218   7.508 -0.9768  0.7708 -2.1578
 5712TIP3    H238696   4.030   4.117   7.474 -1.4217 -0.2765 -0.5881
 5713TIP3   OH238697   5.445   5.584   0.778  0.6230 -0.7827  0.0638
 5713TIP3    H138698   5.533   5.593   0.815  0.2477 -0.9250  1.0280
 5713TIP3    H238699   5.399   5.527   0.840 -0.2810 -0.3302 -0.1738
 5714TIP3   OH238700   5.393   0.283   7.393  0.5778  0.1000 -0.3257
 5714TIP3    H138701   5.417   0.309   7.304 -3.3555 -0.4810 -1.7800
 5714TIP3    H238702   5.461   0.222   7.420  2.4651  1.0918 -2.4581
 5715TIP3   OH238703   0.942   6.406   6.456 -0.3354  0.3603 -0.1225
 5715TIP3    H138704   0.850   6.401   6.430 -0.0369 -0.0340 -1.1263
 5715TIP3    H238705   0.990   6.364   6.385  0.6308  0.5949  0.3717
 5716TIP3   OH238706   0.489   6.676   8.050 -0.2941  0.2451 -0.4044
 5716TIP3    H138707   0.408   6.718   8.021  0.0862  1.0584 -0.3098
 5716TIP3    H238708   0.541   6.747   8.087 -0.5108 -0.6289  1.7632
 5717TIP3   OH238709   0.969   0.121   7.582 -0.2081 -0.0973  0.5014
 5717TIP3    H138710   1.044   0.067   7.609  0.1886 -1.4363 -2.8374
 5717TIP3    H238711   0.910   0.060   7.537  0.5706  2.1020 -4.0792
 5718TIP3   OH238712   1.426   2.011   7.004 -0.3947  0.3489  0.0773
 5718TIP3    H138713   1.433   2.066   6.926  0.2039 -0.2301 -0.2831
 5718TIP3    H238714   1.339   2.032   7.040 -0.8218  0.3712 -0.9292
 5719TIP3   OH238715   1.683   0.328   8.378 -0.3597 -0.2135 -0.1397
 5719TIP3    H138716   1.671   0.265   8.308 -0.6876 -0.3264  0.0182
 5719TIP3    H238717   1.712   0.276   8.453 -1.6317 -0.3292  0.2930
 5720TIP3   OH238718   2.252   6.190   0.200 -0.1323  0.1038 -0.0166
 5720TIP3    H138719   2.336   6.230   0.221 -0.9975  1.7637  0.4338
 5720TIP3    H238720   2.231   6.135   0.276  1.4378 -1.9851 -0.9768
 5721TIP3   OH238721   5.152   1.078   8.176 -0.5707 -0.1546 -0.1298
 5721TIP3    H138722   5.239   1.052   8.145 -1.1570 -1.4355 -0.7863
 5721TIP3    H238723   5.116   1.132   8.104 -0.9057 -0.9233 -0.5517
 5722TIP3   OH238724   2.879   2.096   7.646  0.7009  0.4645 -0.0125
 5722TIP3    H138725   2.973   2.089   7.659  1.0328  0.1515 -2.1303
 5722TIP3    H238726   2.868   2.099   7.551 -1.3597  1.6875  0.1939
 5723TIP3   OH238727   3.542   3.811   1.693 -0.3057 -0.4059  0.1261
 5723TIP3    H138728   3.526   3.877   1.760  2.2379 -1.6815  2.1423
 5723TIP3    H238729   3.468   3.821   1.632  0.0136  4.3618  0.1326
 5724TIP3   OH238730   3.340   6.006   7.322  0.3006 -0.2484 -0.3379
 5724TIP3    H138731   3.257   6.052   7.311  0.1963 -0.5720 -0.9797
 5724TIP3    H238732   3.337   5.936   7.256  1.4920  0.3244 -1.0332
 5725TIP3   OH238733   1.363   2.647   1.096  0.8414  0.0219 -0.0176
 5725TIP3    H138734   1.296   2.713   1.076 -0.4757 -1.5414 -1.0310
 5725TIP3    H238735   1.320   2.588   1.158  2.4659  0.7832  1.9455
 5726TIP3   OH238736   0.783   0.727   7.182  0.1318 -0.0326  0.0803
 5726TIP3    H138737   0.734   0.664   7.130 -0.6344 -0.7343  1.5682
 5726TIP3    H238738   0.874   0.697   7.176  0.1617  0.2926 -1.3485
 5727TIP3   OH238739   2.565   1.775   0.393 -0.1442 -0.2483 -0.3218
 5727TIP3    H138740   2.497   1.736   0.338 -0.4617  0.4026 -0.3993
 5727TIP3    H238741   2.572   1.715   0.467 -2.2740  0.7063  0.7490
 5728TIP3   OH238742   5.132   0.221   7.492  0.0325 -0.0192  0.3060
 5728TIP3    H138743   5.070   0.289   7.520 -0.4243 -0.3001 -0.0055
 5728TIP3    H238744   5.217   0.264   7.495 -0.0713  0.1358  1.5144
 5729TIP3   OH238745   3.747   5.433   8.272 -0.1858 -0.2617  0.2387
 5729TIP3    H138746   3.794   5.497   8.326 -0.2327 -0.4891  0.5484
 5729TIP3    H238747   3.662   5.423   8.315 -0.5738  0.2484 -0.3909
 5730TIP3   OH238748   3.345   4.574   1.720 -0.1349 -0.4675 -0.2386
 5730TIP3    H138749   3.336   4.487   1.681 -0.2747 -1.0210  0.9708
 5730TIP3    H238750   3.263   4.588   1.768  0.8373 -0.7465  1.6064
 5731TIP3   OH238751   1.901   5.938   1.939  0.3624  0.3892 -0.2952
 5731TIP3    H138752   1.836   5.901   1.879 -1.7712  2.3823  0.6148
 5731TIP3    H238753   1.953   5.997   1.884  0.1007  0.2683 -0.6772
 5732TIP3   OH238754   3.279   4.183   1.940 -0.1246  0.4359  0.0332
 5732TIP3    H138755   3.211   4.247   1.919  0.3187  1.0974  0.5451
 5732TIP3    H238756   3.273   4.170   2.034  1.4721  1.7554  0.3744
 5733TIP3   OH238757   0.593   0.322   8.550 -0.1306 -0.1355  0.6060
 5733TIP3    H138758   0.596   0.289   8.639  2.1453  1.0726  1.0506
 5733TIP3    H238759   0.624   0.249   8.496  0.5173 -0.2199  1.0727
 5734TIP3   OH238760   2.614   5.925   8.370 -0.4454  0.4179  0.0313
 5734TIP3    H138761   2.570   5.900   8.289  1.6755 -1.4648 -0.6510
 5734TIP3    H238762   2.692   5.974   8.340  0.6686 -0.7923  0.8371
 5735TIP3   OH238763   5.645   3.587   1.192 -0.2563  0.4826 -1.1272
 5735TIP3    H138764   5.674   3.497   1.204  2.6354  1.2905 -1.3158
 5735TIP3    H238765   5.651   3.601   1.097  0.3188  1.1753 -0.9923
 5736TIP3   OH238766   4.036   5.922   8.219 -0.0346 -0.9282 -0.4122
 5736TIP3    H138767   4.003   5.948   8.306 -0.6581 -0.6724 -0.7158
 5736TIP3    H238768   4.075   5.836   8.234 -0.4289 -1.0346  0.0686
 5737TIP3   OH238769   5.287   2.527   1.276  0.5824 -0.1387  0.0619
 5737TIP3    H138770   5.345   2.557   1.206 -1.1488  1.4278 -0.8143
 5737TIP3    H238771   5.340   2.469   1.329  1.8252 -1.8784 -2.8862
 5738TIP3   OH238772   5.945   0.350   8.531 -1.1548 -0.2191 -0.1052
 5738TIP3    H138773   5.935   0.406   8.454 -0.6764 -1.4486 -1.1025
 5738TIP3    H238774   5.989   0.272   8.498  0.6420 -0.0755  1.7662
 5739TIP3   OH238775   3.206   3.422   7.706 -0.1870  0.0877 -0.1059
 5739TIP3    H138776   3.204   3.358   7.777  1.7095  0.1960  0.0899
 5739TIP3    H238777   3.210   3.507   7.751  2.1001  0.1148 -0.2800
 5740TIP3   OH238778   0.360   4.202   1.105 -0.2121  0.6330  0.2419
 5740TIP3    H138779   0.416   4.253   1.045 -0.0426 -1.4263 -1.4594
 5740TIP3    H238780   0.422   4.162   1.166 -0.0577  0.2073 -0.1915
 5741TIP3   OH238781   4.858   1.075   8.555 -0.3399 -0.5570  0.0647
 5741TIP3    H138782   4.909   1.008   8.510 -0.2215 -1.8982  2.0644
 5741TIP3    H238783   4.923   1.139   8.584 -0.1738 -0.6798 -0.0353
 5742TIP3   OH238784   2.518   5.554   8.481  0.0476  0.4896 -0.2254
 5742TIP3    H138785   2.511   5.615   8.407  1.8807  2.0011  0.7324
 5742TIP3    H238786   2.434   5.561   8.526  0.2916  2.6216  0.0210
 5743TIP3   OH238787   5.736   6.287   8.313  0.5105 -0.1501  0.4487
 5743TIP3    H138788   5.802   6.311   8.247  0.7658 -0.1145  0.7129
 5743TIP3    H238789   5.703   6.371   8.345 -0.9056 -0.1576 -0.8950
 5744TIP3   OH238790   1.136   5.854   1.504  0.7360 -0.1763  0.1815
 5744TIP3    H138791   1.131   5.946   1.478  0.2372  0.1668  1.3897
 5744TIP3    H238792   1.158   5.807   1.424  0.2177  0.9120 -0.6294
 5745TIP3   OH238793   2.001   0.452   0.089  0.0994  1.2408 -0.0012
 5745TIP3    H138794   2.017   0.466  -0.005 -3.7768  0.6383 -0.9238
 5745TIP3    H238795   1.959   0.533   0.118  1.0190  1.3080  1.1715
 5746TIP3   OH238796   5.983   1.201   7.581  0.3755 -0.3084 -0.0499
 5746TIP3    H138797   6.067   1.162   7.607  1.4036  0.4588 -1.9849
 5746TIP3    H238798   5.992   1.294   7.604  1.1400  0.3000 -2.4393
 5747TIP3   OH238799   1.653   1.047   8.002 -0.0536  0.5074 -0.4869
 5747TIP3    H138800   1.705   0.967   8.004  2.2597  1.9304  1.8241
 5747TIP3    H238801   1.697   1.103   7.938 -0.3258  0.7973 -0.4240
 5748TIP3   OH238802   4.870   5.060   2.093  0.7172 -0.3544  0.4265
 5748TIP3    H138803   4.814   5.016   2.028  0.0425 -0.2285  0.9136
 5748TIP3    H238804   4.943   5.094   2.042  0.0576 -0.0180 -0.3145
 5749TIP3   OH238805   0.673   6.720   7.039 -0.0139 -0.4414  0.1715
 5749TIP3    H138806   0.586   6.688   7.064  0.7719 -4.0605 -1.1219
 5749TIP3    H238807   0.676   6.710   6.944  1.1022  1.7987 -0.0947
 5750TIP3   OH238808   0.497   3.537   1.216 -0.4026  0.0687 -0.0007
 5750TIP3    H138809   0.453   3.580   1.288 -0.9006 -1.1136  0.4326
 5750TIP3    H238810   0.543   3.463   1.257  0.2097  0.0236 -0.7430
 5751TIP3   OH238811   0.379   4.070   0.755 -0.1982  0.3737 -0.5455
 5751TIP3    H138812   0.331   4.147   0.725 -0.2580  0.1370 -1.0786
 5751TIP3    H238813   0.330   3.996   0.720 -0.8279  0.0395  0.9844
 5752TIP3   OH238814   1.374   2.802   1.526 -0.0058 -0.0959 -0.1703
 5752TIP3    H138815   1.347   2.865   1.459 -0.9886  0.2897  0.5687
 5752TIP3    H238816   1.394   2.856   1.603  0.3553 -0.5956  0.0938
 5753TIP3   OH238817   1.096   1.233   1.106 -0.3051  0.1942  0.4731
 5753TIP3    H138818   1.173   1.197   1.151  0.6339 -0.2231 -1.3555
 5753TIP3    H238819   1.115   1.326   1.097  0.6853 -0.1189 -1.1605
 5754TIP3   OH238820   2.341   3.625   6.417  0.4784  0.3320 -0.0627
 5754TIP3    H138821   2.272   3.616   6.482  0.2320  0.1516 -0.3436
 5754TIP3    H238822   2.335   3.545   6.364  1.5504 -0.1605  0.5216
 5755TIP3   OH238823   2.802   0.715   0.812 -0.2198 -0.4342 -0.1159
 5755TIP3    H138824   2.738   0.668   0.865  0.2400 -1.7517 -0.6915
 5755TIP3    H238825   2.850   0.647   0.766  0.0354  0.6399 -1.5083
 5756TIP3   OH238826   2.517   2.972   1.560  0.0212  0.3055 -0.0765
 5756TIP3    H138827   2.503   2.878   1.548  1.1410 -0.0192  0.9939
 5756TIP3    H238828   2.579   2.995   1.491  0.6585  0.0029  0.3855
 5757TIP3   OH238829   2.700   1.388   0.976 -0.2109  0.4202  0.2555
 5757TIP3    H138830   2.795   1.399   0.973 -0.1818  0.3030 -2.9888
 5757TIP3    H238831   2.668   1.469   1.016  1.2283  0.4703  1.3828
 5758TIP3   OH238832   4.088   3.663   2.242 -0.1848 -0.4615  0.2523
 5758TIP3    H138833   4.158   3.621   2.292  0.6683 -0.3810 -0.8452
 5758TIP3    H238834   4.096   3.627   2.154 -0.8443  0.3508 -0.1507
 5759TIP3   OH238835   1.593   2.196   1.187  0.2802 -0.2457  0.1054
 5759TIP3    H138836   1.550   2.278   1.160 -1.3622 -0.6821  1.2316
 5759TIP3    H238837   1.666   2.186   1.126  1.0803  2.5021  0.4917
 5760TIP3   OH238838   0.325   0.826   6.708 -0.6635 -0.2792 -0.1657
 5760TIP3    H138839   0.379   0.747   6.700 -0.5421 -0.3168  0.8514
 5760TIP3    H238840   0.376   0.895   6.665  0.7618 -0.0689  1.7163
 5761TIP3   OH238841   2.583   5.554   7.000 -0.2372 -0.0263 -0.4501
 5761TIP3    H138842   2.562   5.635   7.047 -1.2962 -1.1660  1.1165
 5761TIP3    H238843   2.533   5.486   7.044  1.6094 -1.7933 -0.8881
 5762TIP3   OH238844   0.413   5.755   1.558 -0.3740  0.8003  0.4277
 5762TIP3    H138845   0.484   5.815   1.536 -0.9762  1.3161 -0.1367
 5762TIP3    H238846   0.333   5.805   1.541 -0.8762  0.4095  1.5473
 5763TIP3   OH238847   3.337   3.499   8.499 -0.1413  0.5325  0.3035
 5763TIP3    H138848   3.285   3.445   8.558  0.5014  0.8138  1.1400
 5763TIP3    H238849   3.276   3.565   8.466 -1.2023 -1.2076 -1.4774
 5764TIP3   OH238850   1.175   1.655   7.868 -0.5255 -0.2496  0.2664
 5764TIP3    H138851   1.087   1.677   7.897 -0.4384  0.0517  0.3052
 5764TIP3    H238852   1.169   1.649   7.773 -0.6963 -0.7246  0.3037
 5765TIP3   OH238853   2.462   4.474   7.251 -0.1863 -0.0723 -0.4570
 5765TIP3    H138854   2.415   4.551   7.282  0.1750  0.9114 -2.2243
 5765TIP3    H238855   2.410   4.441   7.178 -0.1077 -1.2688  0.0000
 5766TIP3   OH238856   0.810   2.188   7.301 -0.3687  0.2139  0.2718
 5766TIP3    H138857   0.850   2.197   7.388 -0.9559  1.9310  0.3883
 5766TIP3    H238858   0.819   2.095   7.281  1.7941  0.1488  1.1956
 5767TIP3   OH238859   6.563   0.366   0.290  0.1955 -0.3766  0.0439
 5767TIP3    H138860   6.640   0.372   0.348 -0.2102  2.2815  0.4180
 5767TIP3    H238861   6.496   0.325   0.344  1.1957 -2.5239 -0.2124
 5768TIP3   OH238862   0.304   3.829   0.669 -0.5683  0.2345  0.0448
 5768TIP3    H138863   0.227   3.816   0.613 -1.5415  0.2790  1.3161
 5768TIP3    H238864   0.276   3.798   0.755  0.6276  0.8637  0.6888
 5769TIP3   OH238865   2.112   1.226   0.396  0.4474 -0.0183 -0.3136
 5769TIP3    H138866   2.084   1.277   0.320 -1.5616  0.7780  0.8918
 5769TIP3    H238867   2.208   1.234   0.397  0.3511  1.6505 -1.5810
 5770TIP3   OH238868   4.088   6.223   2.416 -0.1037  0.1484 -0.3035
 5770TIP3    H138869   4.114   6.299   2.468  0.0914  0.5651 -0.9937
 5770TIP3    H238870   3.995   6.239   2.395 -0.6438 -0.7838  1.2056
 5771TIP3   OH238871   3.754   2.726   1.612 -0.0423  0.2864 -0.3302
 5771TIP3    H138872   3.704   2.719   1.531 -0.8025 -1.8382  0.2619
 5771TIP3    H238873   3.696   2.772   1.672 -0.0805  0.4990 -0.5278
 5772TIP3   OH238874   0.317   5.309   8.264  0.2063  0.2115 -0.2258
 5772TIP3    H138875   0.263   5.345   8.334  0.7777 -0.8930  0.8148
 5772TIP3    H238876   0.297   5.215   8.264  1.2007 -0.0141 -0.6371
 5773TIP3   OH238877   2.218   1.903   0.188  0.0359  0.4822 -0.3154
 5773TIP3    H138878   2.266   1.826   0.218  0.4605  1.1242  0.7101
 5773TIP3    H238879   2.131   1.870   0.165 -0.0582 -0.1710  0.9173
 5774TIP3   OH238880   0.265   2.671   1.021 -0.3399 -0.2939  0.7306
 5774TIP3    H138881   0.289   2.763   1.010  0.9161 -0.3392  2.7154
 5774TIP3    H238882   0.319   2.624   0.958 -1.1083  0.3074 -0.4122
 5775TIP3   OH238883   5.638   6.539   8.390  0.1499 -0.1537 -0.1228
 5775TIP3    H138884   5.668   6.600   8.458  0.3410  1.9778 -2.0132
 5775TIP3    H238885   5.543   6.550   8.389  0.2372  0.6788 -0.9104
 5776TIP3   OH238886   5.132   5.962   7.699  0.4988  0.4455  1.0499
 5776TIP3    H138887   5.163   6.039   7.746 -1.1219  1.9939 -0.2368
 5776TIP3    H238888   5.096   5.998   7.617  0.2523 -1.7664  0.1222
 5777TIP3   OH238889   3.370   6.401   2.780 -0.1139  0.1039  0.6502
 5777TIP3    H138890   3.385   6.308   2.766 -0.8581 -0.2641  2.0458
 5777TIP3    H238891   3.452   6.443   2.756 -0.0686 -0.7902 -0.8863
 5778TIP3   OH238892   1.663   2.618   1.775  0.0307  0.1618  0.0940
 5778TIP3    H138893   1.737   2.664   1.816 -0.6285  0.2395  1.2335
 5778TIP3    H238894   1.704   2.563   1.708  1.2396 -0.5035  1.3172
 5779TIP3   OH238895   3.843   3.814   2.318  0.5817 -0.0420 -0.2197
 5779TIP3    H138896   3.768   3.755   2.310  1.1447 -0.6783 -1.0014
 5779TIP3    H238897   3.913   3.769   2.271  1.1689  1.0284 -0.3857
 5780TIP3   OH238898   3.701   2.034   7.284 -0.4940  0.5173  0.2478
 5780TIP3    H138899   3.719   1.987   7.203 -1.6617 -0.1294  0.3529
 5780TIP3    H238900   3.772   2.008   7.343  1.0734  1.9317 -0.9002
 5781TIP3   OH238901   2.144   2.832   7.627  0.5406 -0.0683  0.1505
 5781TIP3    H138902   2.062   2.876   7.606  0.8492  0.3094 -0.3086
 5781TIP3    H238903   2.177   2.877   7.704  0.8008  0.4352 -0.2527
 5782TIP3   OH238904   2.214   5.095   8.527 -0.6291  0.6893  0.7009
 5782TIP3    H138905   2.279   5.056   8.469 -1.1858 -0.2023  0.6602
 5782TIP3    H238906   2.255   5.094   8.614  0.9719  3.7392  0.1131
 5783TIP3   OH238907   2.560   4.266   7.427  0.4221  0.2908 -0.4047
 5783TIP3    H138908   2.647   4.226   7.424  0.3594  0.1702 -0.6659
 5783TIP3    H238909   2.568   4.344   7.373  0.8538  1.2710  0.9993
 5784TIP3   OH238910   1.160   3.200   8.018 -0.4294  0.4586 -0.2081
 5784TIP3    H138911   1.191   3.142   8.088 -0.2333  1.1847  0.3176
 5784TIP3    H238912   1.141   3.283   8.062 -1.3300  0.5982 -0.8456
 5785TIP3   OH238913   2.332   4.073   7.400 -0.5164 -0.5882 -0.2867
 5785TIP3    H138914   2.400   4.136   7.427 -0.6510 -0.4033 -0.3775
 5785TIP3    H238915   2.374   3.987   7.409 -0.3729 -0.4932 -0.0357
 5786TIP3   OH238916   4.019   4.023   1.202  0.6179 -0.4766 -0.2241
 5786TIP3    H138917   4.036   3.973   1.282 -0.1648 -1.8504 -0.8715
 5786TIP3    H238918   4.017   3.957   1.132  0.2785  0.5591 -1.2344
 5787TIP3   OH238919   2.023   4.837   8.656  0.5845  0.1787 -0.7942
 5787TIP3    H138920   2.049   4.927   8.636  1.0244 -0.3570 -2.8034
 5787TIP3    H238921   2.084   4.783   8.606 -0.9642 -1.2099 -1.2595
 5788TIP3   OH238922   2.598   0.938   7.450 -0.4505  0.2422 -0.3788
 5788TIP3    H138923   2.652   0.868   7.414 -0.1449 -0.8947  2.1253
 5788TIP3    H238924   2.609   0.932   7.545 -3.4623  1.2031  0.1528
 5789TIP3   OH238925   3.806   3.316   7.181  0.1281 -0.6220 -0.3264
 5789TIP3    H138926   3.824   3.391   7.124  0.0472  0.1008  0.5576
 5789TIP3    H238927   3.723   3.280   7.149 -0.4284  0.3851 -0.0607
 5790TIP3   OH238928   4.346   6.236   1.678 -0.7146  0.1537  0.4302
 5790TIP3    H138929   4.432   6.230   1.720  0.0912  1.3310 -0.9531
 5790TIP3    H238930   4.356   6.307   1.614 -2.0706 -1.1311 -1.2730
 5791TIP3   OH238931   4.812   0.377   0.074 -0.2066  0.0001 -0.3420
 5791TIP3    H138932   4.854   0.453   0.115 -0.2732  0.9633 -1.9414
 5791TIP3    H238933   4.832   0.304   0.132  3.1025  0.5200 -0.6365
 5792TIP3   OH238934   1.100   4.659   1.262  0.0979  0.1032 -0.1712
 5792TIP3    H138935   1.183   4.670   1.309  0.5187  2.5928 -1.3766
 5792TIP3    H238936   1.062   4.746   1.259 -1.4451 -0.5714 -1.7085
 5793TIP3   OH238937   4.559   2.454   2.470 -0.1701 -0.1449 -0.5414
 5793TIP3    H138938   4.610   2.507   2.531  0.9903 -1.4833 -0.3106
 5793TIP3    H238939   4.474   2.444   2.512  0.2535 -0.1236  0.3368
 5794TIP3   OH238940   6.736   3.496   2.288 -0.2813 -0.3238  0.0637
 5794TIP3    H138941   6.648   3.471   2.259 -0.0656 -0.4591 -0.4878
 5794TIP3    H238942   6.753   3.440   2.364 -0.7832 -0.0935  0.3495
 5795TIP3   OH238943   5.955   2.244   0.942 -0.0113  0.1648  0.1047
 5795TIP3    H138944   6.012   2.284   1.009  0.8914  0.2258 -0.6887
 5795TIP3    H238945   5.896   2.315   0.917 -0.7177 -0.0073  1.2123
 5796TIP3   OH238946   3.952   0.526   0.350  0.0644  0.2120  0.0076
 5796TIP3    H138947   4.020   0.578   0.392 -1.3739  1.7947  0.4899
 5796TIP3    H238948   3.913   0.585   0.285  0.1691 -1.1738 -1.3848
 5797TIP3   OH238949   4.897   6.024   1.942 -0.2714  0.2590 -0.4436
 5797TIP3    H138950   4.805   5.999   1.934 -0.0526 -0.9976  0.5203
 5797TIP3    H238951   4.901   6.114   1.910 -1.3815 -0.4622 -2.7817
 5798TIP3   OH238952   3.580   1.607   6.780 -0.4402 -0.6037 -0.3083
 5798TIP3    H138953   3.505   1.647   6.825  1.9868  0.1250  3.5133
 5798TIP3    H238954   3.635   1.680   6.754  1.2205 -1.1575  1.4138
 5799TIP3   OH238955   4.683   5.162   8.611  0.2661 -0.1351  0.2068
 5799TIP3    H138956   4.598   5.180   8.571  0.1963  0.8762  0.7590
 5799TIP3    H238957   4.662   5.124   8.696  0.3908 -1.0467 -0.1673
 5800TIP3   OH238958   2.903   0.450   7.226 -0.2844 -0.5328  0.1224
 5800TIP3    H138959   2.967   0.520   7.211 -1.0992  0.0051 -1.0088
 5800TIP3    H238960   2.823   0.495   7.250  0.0292 -1.2501  2.9128
 5801TIP3   OH238961   3.919   0.670   7.914 -0.2351 -0.1367 -0.3170
 5801TIP3    H138962   3.925   0.763   7.896 -0.1670 -0.1973 -0.6006
 5801TIP3    H238963   3.827   0.648   7.895 -0.0446 -0.3026 -1.0808
 5802TIP3   OH238964   2.190   1.751   0.597  0.4908 -0.2833  0.3470
 5802TIP3    H138965   2.175   1.680   0.534  1.7843  0.6471 -1.0884
 5802TIP3    H238966   2.180   1.831   0.545  0.8237  0.5417  1.5258
 5803TIP3   OH238967   4.697   3.036   7.221 -0.2562  0.5935  0.6896
 5803TIP3    H138968   4.659   3.091   7.153 -1.4905 -1.1669 -0.1123
 5803TIP3    H238969   4.785   3.070   7.233  0.4136  0.3233 -2.5828
 5804TIP3   OH238970   4.721   4.463   2.172 -0.3603 -0.1260 -0.1455
 5804TIP3    H138971   4.712   4.554   2.146 -0.1996 -0.2990 -0.8171
 5804TIP3    H238972   4.686   4.460   2.262  0.9556  0.8610  0.4190
 5805TIP3   OH238973   4.806   4.504   1.548 -0.1299  0.2055 -0.3258
 5805TIP3    H138974   4.881   4.552   1.512 -0.6148 -0.0047 -1.6643
 5805TIP3    H238975   4.740   4.507   1.479 -1.7970  1.3449  1.2201
 5806TIP3   OH238976   5.615   1.487   0.378  0.4142 -0.2193 -0.0043
 5806TIP3    H138977   5.571   1.572   0.374  0.4758 -0.1930 -0.1129
 5806TIP3    H238978   5.666   1.483   0.298 -0.8749 -1.0510 -0.8221
 5807TIP3   OH238979   6.497   1.862   2.588 -0.6967 -0.1291  1.2302
 5807TIP3    H138980   6.410   1.898   2.605 -0.5542  1.6508 -1.2465
 5807TIP3    H238981   6.556   1.937   2.596  0.1354 -0.5626 -0.3514
 5808TIP3   OH238982   3.013   2.372   8.249  0.5376 -0.2051 -0.0686
 5808TIP3    H138983   3.025   2.387   8.343  1.2977 -1.6935  0.1044
 5808TIP3    H238984   2.922   2.344   8.240  1.0660 -2.3534  0.6060
 5809TIP3   OH238985   6.133   2.068   0.165  0.6035  0.8858  0.2766
 5809TIP3    H138986   6.042   2.073   0.135  0.3441 -0.1508  0.8400
 5809TIP3    H238987   6.129   2.089   0.258  1.0924  1.8758  0.0806
 5810TIP3   OH238988   0.846   3.712   1.607 -0.2794  0.3349 -0.5574
 5810TIP3    H138989   0.817   3.777   1.543  1.4463  1.6097 -0.1342
 5810TIP3    H238990   0.776   3.710   1.672  0.0267  2.5634 -0.0697
 5811TIP3   OH238991   2.458   5.901   1.089 -0.3635  0.4594  0.3844
 5811TIP3    H138992   2.518   5.903   1.014 -0.5977  1.8486  0.2114
 5811TIP3    H238993   2.372   5.919   1.051 -0.9137 -1.3855  0.6501
 5812TIP3   OH238994   4.931   4.733   6.787 -0.8712 -0.1719  0.6069
 5812TIP3    H138995   4.989   4.676   6.737 -1.0929  0.3178 -0.2406
 5812TIP3    H238996   4.983   4.763   6.861 -0.5762 -1.0207  0.7436
 5813TIP3   OH238997   4.893   0.215   2.255  0.5169 -0.1656 -0.1228
 5813TIP3    H138998   4.972   0.257   2.290  1.3942 -1.0796 -0.9675
 5813TIP3    H238999   4.871   0.267   2.178  1.3906 -1.0025 -0.9572
 5814TIP3   OH239000   4.768   5.632   0.315  0.2571  0.1160 -0.1185
 5814TIP3    H139001   4.843   5.595   0.363 -0.2207  0.2261  0.7307
 5814TIP3    H239002   4.774   5.593   0.228 -0.6292 -2.6051  0.9297
 5815TIP3   OH239003   1.749   6.744   7.670  0.8843 -0.1555  0.2380
 5815TIP3    H139004   1.704   6.785   7.596 -0.6291 -0.1250  1.1350
 5815TIP3    H239005   1.797   6.672   7.631  0.6298  0.2494 -0.8703
 5816TIP3   OH239006   4.915   3.517   0.092  0.0432 -0.0388 -0.1808
 5816TIP3    H139007   4.958   3.564   0.163  2.9834  0.2574 -1.9322
 5816TIP3    H239008   4.898   3.430   0.127  2.4477 -0.2542  0.6467
 5817TIP3   OH239009   3.662   1.384   0.749  0.3878 -0.5193  0.1932
 5817TIP3    H139010   3.633   1.446   0.681 -0.2630 -1.2633 -0.2233
 5817TIP3    H239011   3.757   1.393   0.750  0.2569  1.3478  0.9788
 5818TIP3   OH239012   1.707   0.918   1.541  0.1420 -0.4231  0.0152
 5818TIP3    H139013   1.724   0.925   1.447  0.1856 -0.1152  0.0458
 5818TIP3    H239014   1.651   0.841   1.549 -0.7859  0.1800 -0.3937
 5819TIP3   OH239015   0.487   4.971   1.225 -1.0140  0.3674  0.0363
 5819TIP3    H139016   0.532   4.904   1.276  1.4541  0.2517 -2.1066
 5819TIP3    H239017   0.557   5.025   1.189 -2.8437  3.1421  0.3325
 5820TIP3   OH239018   6.760   5.728   0.177 -1.1740 -0.3677  0.1762
 5820TIP3    H139019   6.812   5.659   0.219 -1.9673 -1.4338 -0.5400
 5820TIP3    H239020   6.677   5.685   0.155 -1.7973  0.9032 -0.0400
 5821TIP3   OH239021   2.734   0.477   7.801 -0.0969  0.3706  0.0151
 5821TIP3    H139022   2.660   0.474   7.862 -0.7108  0.7370 -0.6990
 5821TIP3    H239023   2.741   0.387   7.768 -0.2790  0.3538  0.0211
 5822TIP3   OH239024   1.046   5.241   8.696  0.0571  0.0781  0.1421
 5822TIP3    H139025   1.041   5.166   8.754 -0.5919  0.5193  0.6672
 5822TIP3    H239026   0.981   5.224   8.628 -0.1670  0.2217  0.3224
 5823TIP3   OH239027   3.939   5.332   8.079 -0.5689  0.3197  0.0709
 5823TIP3    H139028   3.992   5.273   8.132  0.0399 -0.6479 -1.5260
 5823TIP3    H239029   3.866   5.356   8.136 -0.0266 -0.7763  1.2871
 5824TIP3   OH239030   1.268   0.517   7.257  0.2222 -0.4039  0.1873
 5824TIP3    H139031   1.332   0.563   7.201  0.4951 -0.3420  0.5424
 5824TIP3    H239032   1.317   0.498   7.337  0.2184 -1.6303 -0.0851
 5825TIP3   OH239033   2.931   6.326   1.885 -0.3547 -0.4158 -0.7378
 5825TIP3    H139034   2.915   6.259   1.818  1.9026 -3.3012  1.3591
 5825TIP3    H239035   2.845   6.366   1.899 -1.2818 -0.9677 -3.9294
 5826TIP3   OH239036   5.476   0.666   2.702  0.0933  0.3876  0.1803
 5826TIP3    H139037   5.518   0.675   2.617 -0.9857  1.1163 -0.2922
 5826TIP3    H239038   5.383   0.675   2.684 -0.0821  1.8888  1.5988
 5827TIP3   OH239039   3.825   5.425   1.886  0.0753 -0.1376 -0.2399
 5827TIP3    H139040   3.838   5.412   1.980 -1.4981 -0.8488 -0.0967
 5827TIP3    H239041   3.756   5.492   1.880  0.6864  0.4617 -0.9114
 5828TIP3   OH239042   5.251   1.627   8.580  0.0020 -0.1485 -0.4927
 5828TIP3    H139043   5.156   1.634   8.571 -0.2298  0.4125  1.7927
 5828TIP3    H239044   5.285   1.673   8.503 -1.6012  1.7152 -0.1773
 5829TIP3   OH239045   1.889   1.936   8.607  0.4139  0.7044  0.1100
 5829TIP3    H139046   1.805   1.973   8.580  0.3895  0.4938 -0.1107
 5829TIP3    H239047   1.903   1.968   8.696 -0.6508 -0.5113  0.7557
 5830TIP3   OH239048   3.552   5.438   0.515  0.6973 -0.0350 -0.4994
 5830TIP3    H139049   3.578   5.347   0.500 -0.5130 -0.6323  0.8231
 5830TIP3    H239050   3.462   5.432   0.546  0.7933  1.5722  0.1737
 5831TIP3   OH239051   6.104   3.030   0.389 -0.5951 -0.1580 -0.5975
 5831TIP3    H139052   6.140   3.021   0.301  1.3799 -0.9853  0.2286
 5831TIP3    H239053   6.116   3.122   0.411 -1.5063  0.1422 -1.3577
 5832TIP3   OH239054   2.974   3.128   8.430  0.6141 -0.3485 -0.0366
 5832TIP3    H139055   3.062   3.140   8.468  0.2051 -0.4140  0.9616
 5832TIP3    H239056   2.946   3.043   8.462  0.0630 -0.1922 -0.1026
 5833TIP3   OH239057   4.135   2.288   7.936 -0.2578  0.0722 -0.3951
 5833TIP3    H139058   4.122   2.340   8.015  0.9118  1.1937 -0.8976
 5833TIP3    H239059   4.131   2.197   7.966  1.4648  0.4690  1.2103
 5834TIP3   OH239060   6.291   2.067   8.583 -0.1417  0.3789 -0.1159
 5834TIP3    H139061   6.198   2.067   8.607  0.3898  0.1570  2.1533
 5834TIP3    H239062   6.327   2.143   8.628  1.1380 -0.6802  0.7137
 5835TIP3   OH239063   0.206   3.575   1.848  0.3623  0.0316  0.1137
 5835TIP3    H139064   0.300   3.573   1.833  0.4538  0.8764  0.5128
 5835TIP3    H239065   0.177   3.659   1.814 -0.3386 -0.4162 -0.4426
 5836TIP3   OH239066   5.223   6.636   2.385  0.1121 -1.0326  0.4361
 5836TIP3    H139067   5.162   6.567   2.409 -2.6412  1.0283 -0.1211
 5836TIP3    H239068   5.245   6.619   2.294  0.4538 -1.8136  0.6547
 5837TIP3   OH239069   3.562   2.254   7.620 -0.1893  0.3219  0.3417
 5837TIP3    H139070   3.620   2.274   7.547 -0.2374  2.5041  0.8191
 5837TIP3    H239071   3.474   2.262   7.584 -0.2077  0.5877  0.4441
 5838TIP3   OH239072   0.239   5.422   7.744  0.6124  0.8339 -0.0256
 5838TIP3    H139073   0.250   5.391   7.834 -0.5135  1.3087  0.2950
 5838TIP3    H239074   0.252   5.516   7.750  1.9676  0.7100 -0.6350
 5839TIP3   OH239075   1.821   0.228   7.397  0.1266  0.0675 -0.2432
 5839TIP3    H139076   1.729   0.236   7.420 -0.1598 -2.6814 -0.1298
 5839TIP3    H239077   1.824   0.248   7.303 -0.7781 -0.8479 -0.4809
 5840TIP3   OH239078   1.035   2.757   7.706  0.2708  0.0862  0.0026
 5840TIP3    H139079   1.114   2.786   7.750  0.1650 -1.5803  1.4313
 5840TIP3    H239080   1.061   2.742   7.616  1.2564  0.8106  0.1594
 5841TIP3   OH239081   5.727   2.550   8.434 -0.1941 -0.2963  0.5795
 5841TIP3    H139082   5.656   2.612   8.422  1.1069  1.7762  2.6967
 5841TIP3    H239083   5.691   2.482   8.491 -0.5847  0.5995  1.4275
 5842TIP3   OH239084   4.295   0.115   2.104 -0.0579  0.1274  0.0770
 5842TIP3    H139085   4.359   0.043   2.104  1.1997  1.1963  1.0957
 5842TIP3    H239086   4.341   0.189   2.065 -1.7034  0.1369 -1.9964
 5843TIP3   OH239087   4.414   3.530   2.803 -0.5829 -0.6681  0.4054
 5843TIP3    H139088   4.415   3.586   2.881  0.0781 -0.9678  0.6161
 5843TIP3    H239089   4.467   3.454   2.827 -2.1587 -1.8162  0.4108
 5844TIP3   OH239090   5.575   1.332   7.227 -0.2569  0.0169 -0.1414
 5844TIP3    H139091   5.618   1.377   7.154 -0.5514 -0.1984 -0.4534
 5844TIP3    H239092   5.634   1.343   7.301 -0.0379  0.3905 -0.3704
 5845TIP3   OH239093   4.266   0.106   6.526  0.3270 -0.0906 -1.0207
 5845TIP3    H139094   4.360   0.116   6.509  0.1421  1.1507 -1.3986
 5845TIP3    H239095   4.257   0.124   6.620  0.4792 -0.3515 -0.9543
 5846TIP3   OH239096   0.669   3.782   1.827  0.2892 -0.7498 -0.2269
 5846TIP3    H139097   0.613   3.837   1.772  1.2910 -0.1470 -0.6712
 5846TIP3    H239098   0.616   3.704   1.844 -0.1688 -0.8170 -1.7871
 5847TIP3   OH239099   2.335   4.143   8.155  0.2796 -0.2813 -0.3123
 5847TIP3    H139100   2.396   4.070   8.148  0.8852  0.1953 -0.0398
 5847TIP3    H239101   2.382   4.218   8.119 -0.8100 -0.2826 -1.8196
 5848TIP3   OH239102   6.635   2.363   6.917 -0.4787 -0.3964 -0.1602
 5848TIP3    H139103   6.539   2.368   6.916 -0.5043 -0.5137  0.9964
 5848TIP3    H239104   6.663   2.451   6.891 -0.8580 -0.9650 -2.7826
 5849TIP3   OH239105   1.821   5.376   1.506 -0.0088  0.1135  0.1077
 5849TIP3    H139106   1.755   5.309   1.488  0.8326 -0.1293 -2.4965
 5849TIP3    H239107   1.808   5.398   1.599 -2.4431 -1.2776  0.1893
 5850TIP3   OH239108   4.459   1.686   6.956 -0.5779 -0.0899 -0.3450
 5850TIP3    H139109   4.511   1.687   7.036  1.4181 -0.2908 -1.5779
 5850TIP3    H239110   4.390   1.750   6.972 -0.4265 -0.3511  1.6298
 5851TIP3   OH239111   6.364   6.232   1.599  0.0100 -0.1184  0.3766
 5851TIP3    H139112   6.352   6.207   1.690  0.7679  1.0335  0.8171
 5851TIP3    H239113   6.294   6.295   1.582  0.4445  0.3952  0.4640
 5852TIP3   OH239114   2.258   6.651   0.712  0.0239 -0.3708  0.3857
 5852TIP3    H139115   2.196   6.612   0.651 -0.2197  0.2667  0.2139
 5852TIP3    H239116   2.312   6.709   0.658 -0.8128  0.9400  0.9036
 5853TIP3   OH239117   0.168   5.229   1.589 -0.2569  0.9003  0.5440
 5853TIP3    H139118   0.203   5.181   1.514 -2.3574 -0.2108  0.2147
 5853TIP3    H239119   0.235   5.220   1.656 -0.1632 -1.7491  0.1794
 5854TIP3   OH239120   1.072   3.920   1.351  0.2292  0.0436  0.2101
 5854TIP3    H139121   1.054   3.849   1.290 -0.5184  0.6584 -0.3175
 5854TIP3    H239122   1.030   3.997   1.311  0.8087  0.7281  0.8777
 5855TIP3   OH239123   1.115   5.930   7.875  0.3775  0.3713  0.3517
 5855TIP3    H139124   1.167   6.003   7.841  1.5769  0.1775  1.6767
 5855TIP3    H239125   1.126   5.861   7.810 -1.4094  1.5641 -1.3207
 5856TIP3   OH239126   6.224   3.953   0.616  0.4536 -0.1225  0.2733
 5856TIP3    H139127   6.216   3.951   0.521 -0.1481 -0.8728  0.3302
 5856TIP3    H239128   6.151   4.007   0.645  1.4626  1.3106  0.2462
 5857TIP3   OH239129   3.173   2.332   2.735 -0.0205 -0.6952  0.4447
 5857TIP3    H139130   3.251   2.285   2.763  0.0461 -0.4427  0.6809
 5857TIP3    H239131   3.202   2.383   2.659  0.4413  0.5985  1.4538
 5858TIP3   OH239132   5.272   2.640   6.961 -0.0971 -0.1793 -0.0080
 5858TIP3    H139133   5.238   2.725   6.988 -0.1104  0.2347 -1.2478
 5858TIP3    H239134   5.294   2.595   7.043 -0.8602  0.6909  0.6907
 5859TIP3   OH239135   5.797   5.913   8.009 -0.1263 -0.7398  0.0627
 5859TIP3    H139136   5.881   5.870   8.024  0.5713  1.0830  1.8319
 5859TIP3    H239137   5.783   5.907   7.915  2.8666  0.4344 -0.5522
 5860TIP3   OH239138   4.366   6.063   8.611 -0.2192 -0.2544 -0.0801
 5860TIP3    H139139   4.316   6.032   8.535  1.1919 -1.9330 -0.3762
 5860TIP3    H239140   4.376   5.986   8.666 -1.4675  0.9909  2.0407
 5861TIP3   OH239141   1.937   3.777   7.304  0.1702  0.0980 -0.5404
 5861TIP3    H139142   1.993   3.700   7.311  0.0361  0.0247 -0.2733
 5861TIP3    H239143   1.998   3.850   7.291  0.2369 -0.3911 -4.1787
 5862TIP3   OH239144   1.524   1.461   2.406 -0.4088  0.0783  0.0322
 5862TIP3    H139145   1.559   1.446   2.318 -0.4592  2.2948 -0.4270
 5862TIP3    H239146   1.429   1.457   2.394 -0.4061 -0.3165  0.1348
 5863TIP3   OH239147   6.492   2.922   2.593 -0.3850  0.2558 -0.6906
 5863TIP3    H139148   6.459   2.979   2.663 -0.1486  0.9213 -1.1097
 5863TIP3    H239149   6.419   2.862   2.574 -0.2474 -0.3085  0.5065
 5864TIP3   OH239150   4.527   4.380   1.151 -0.2891 -0.1618 -0.1769
 5864TIP3    H139151   4.555   4.467   1.121 -0.5600  0.9929  2.6349
 5864TIP3    H239152   4.521   4.388   1.246 -1.6363 -2.8992  0.0659
 5865TIP3   OH239153   2.634   5.062   6.624  0.6579  0.4112  0.2842
 5865TIP3    H139154   2.685   5.142   6.639  0.8946  0.6883 -1.7239
 5865TIP3    H239155   2.696   4.991   6.638  1.3218  0.7120 -0.9978
 5866TIP3   OH239156   0.604   5.875   7.347  0.4819  0.0375  0.0577
 5866TIP3    H139157   0.666   5.942   7.320  2.2972 -1.5300  0.1319
 5866TIP3    H239158   0.653   5.793   7.342 -2.0074 -1.5017 -1.3102
 5867TIP3   OH239159   5.140   1.451   7.307  0.0817  0.0099 -0.4142
 5867TIP3    H139160   5.137   1.472   7.400  1.1086  2.1440 -0.8070
 5867TIP3    H239161   5.199   1.376   7.302 -0.4801 -0.5393  0.6818
 5868TIP3   OH239162   1.856   0.727   0.120 -0.1780  0.2412  0.4526
 5868TIP3    H139163   1.876   0.755   0.209  0.8494 -0.2023  0.3727
 5868TIP3    H239164   1.843   0.808   0.072  1.3831  0.5647  0.5327
 5869TIP3   OH239165   3.517   5.030   0.084  0.0369 -0.1891 -0.2767
 5869TIP3    H139166   3.521   5.121   0.115 -1.9577  1.0348 -3.1043
 5869TIP3    H239167   3.568   5.030   0.003  1.6740 -2.1818  0.6615
 5870TIP3   OH239168   2.343   2.534   6.829  0.5248  0.5037 -0.2584
 5870TIP3    H139169   2.375   2.470   6.765  0.2248  1.3112 -1.2463
 5870TIP3    H239170   2.370   2.619   6.793 -1.6122  1.1356 -0.5010
 5871TIP3   OH239171   4.103   4.718   0.137 -0.3739  0.1955 -0.1614
 5871TIP3    H139172   4.092   4.681   0.224 -0.5976  1.8507  0.5502
 5871TIP3    H239173   4.198   4.720   0.124 -0.2711  1.2150  0.6432
 5872TIP3   OH239174   3.284   4.086   6.668  0.3396 -0.0177  0.2639
 5872TIP3    H139175   3.333   4.127   6.597 -1.2102  0.7454 -0.4112
 5872TIP3    H239176   3.243   4.159   6.715  0.7238 -0.5613  1.5025
 5873TIP3   OH239177   2.179   2.504   0.922 -0.7237 -0.1547 -0.2398
 5873TIP3    H139178   2.110   2.476   0.983 -0.3890 -1.2359 -0.3385
 5873TIP3    H239179   2.148   2.588   0.887 -1.2624  0.1240  0.8693
 5874TIP3   OH239180   2.959   1.828   7.406  0.0098 -0.3682 -0.7514
 5874TIP3    H139181   3.050   1.846   7.431 -0.2457  1.4594 -0.9640
 5874TIP3    H239182   2.919   1.915   7.398 -1.7497 -1.1264 -0.7262
 5875TIP3   OH239183   3.444   1.585   1.155 -0.4986 -0.1311  0.2814
 5875TIP3    H139184   3.507   1.585   1.083  0.1793 -2.1723  0.7904
 5875TIP3    H239185   3.498   1.578   1.234 -1.3025 -0.0867  0.8485
 5876TIP3   OH239186   0.770   4.259   0.979  0.5679 -0.1558  0.5972
 5876TIP3    H139187   0.826   4.324   0.936 -1.2354  0.9901 -0.1516
 5876TIP3    H239188   0.784   4.179   0.929 -0.8470  0.9366 -1.7311
 5877TIP3   OH239189   0.421   1.547   0.072  0.2032 -0.0576 -0.1714
 5877TIP3    H139190   0.488   1.518   0.010 -0.4686  2.3316 -2.1857
 5877TIP3    H239191   0.405   1.638   0.048 -1.3268  0.4666  2.4957
 5878TIP3   OH239192   2.881   1.127   8.221 -1.2363  0.0063 -0.0762
 5878TIP3    H139193   2.924   1.211   8.203  0.1674 -0.9588 -1.5460
 5878TIP3    H239194   2.861   1.091   8.134  2.2552 -3.1458  0.1905
 5879TIP3   OH239195   3.952   3.637   1.562  0.0547  0.0518 -0.5740
 5879TIP3    H139196   3.893   3.647   1.636  1.5447  1.7535  0.4710
 5879TIP3    H239197   3.935   3.549   1.529 -2.3710  0.1499  0.2250
 5880TIP3   OH239198   5.443   6.248   1.435  0.1493 -0.0837  0.1207
 5880TIP3    H139199   5.381   6.194   1.484  0.1529  0.4069  0.6706
 5880TIP3    H239200   5.528   6.208   1.452  0.1920  0.2633  0.7854
 5881TIP3   OH239201   1.685   3.785   7.172 -0.6092  0.0991  0.3275
 5881TIP3    H139202   1.752   3.817   7.232 -0.8241  1.5902 -0.1754
 5881TIP3    H239203   1.602   3.800   7.219 -0.8795  2.4670 -0.7523
 5882TIP3   OH239204   1.988   6.331   0.710  0.0389 -0.0232  0.1569
 5882TIP3    H139205   1.984   6.426   0.699  0.9268 -0.0546 -0.4737
 5882TIP3    H239206   1.902   6.300   0.680  0.1568  0.4746 -0.7040
 5883TIP3   OH239207   3.716   2.236   8.727 -0.2148 -0.2375 -0.7397
 5883TIP3    H139208   3.646   2.215   8.788  1.0561 -0.5448  0.6921
 5883TIP3    H239209   3.677   2.298   8.665 -1.5378  0.1728  0.4481
 5884TIP3   OH239210   2.205   1.164   1.561  0.0249  0.2211  0.0966
 5884TIP3    H139211   2.300   1.156   1.566  0.0931  0.4303 -0.7818
 5884TIP3    H239212   2.172   1.082   1.596  0.5352  0.0106  0.0850
 5885TIP3   OH239213   3.241   2.226   1.117  0.1600  0.5172 -0.1609
 5885TIP3    H139214   3.253   2.138   1.153  0.7747  0.9855  0.8218
 5885TIP3    H239215   3.208   2.212   1.028  0.0473 -0.6960  0.0623
 5886TIP3   OH239216   4.767   4.689   8.153 -0.4831 -0.1104  0.1333
 5886TIP3    H139217   4.804   4.772   8.124  2.0174 -0.2260  2.4774
 5886TIP3    H239218   4.803   4.624   8.092  0.9379  0.1407  0.6478
 5887TIP3   OH239219   1.873   5.025   7.197  0.3137  0.0464  0.3559
 5887TIP3    H139220   1.859   5.082   7.272 -0.6982  0.4735 -0.1306
 5887TIP3    H239221   1.921   5.079   7.134 -0.9154  0.5108 -0.2296
 5888TIP3   OH239222   0.358   2.012   7.704  0.1986 -0.1327  0.3764
 5888TIP3    H139223   0.432   2.054   7.661 -1.2054  4.1211  1.6252
 5888TIP3    H239224   0.299   1.988   7.632  0.7951  0.7002 -0.4095
 5889TIP3   OH239225   2.188   5.707   0.421  0.0528  0.1850  0.2876
 5889TIP3    H139226   2.279   5.734   0.413  0.6875 -1.9493 -0.3474
 5889TIP3    H239227   2.192   5.618   0.455 -1.3811 -2.2173 -4.8035
 5890TIP3   OH239228   3.110   2.415   2.113 -0.6286 -0.7387  0.3718
 5890TIP3    H139229   3.098   2.486   2.051  2.0351  0.5870  1.2082
 5890TIP3    H239230   3.051   2.435   2.186  0.5713  1.0637  0.9036
 5891TIP3   OH239231   6.407   2.849   8.065 -0.1767 -0.7883 -0.2736
 5891TIP3    H139232   6.364   2.801   7.994 -1.9021  2.7998 -1.9018
 5891TIP3    H239233   6.380   2.940   8.053  3.4355  0.8444  2.1002
 5892TIP3   OH239234   6.529   3.903   7.897 -0.6864 -0.4721  0.0065
 5892TIP3    H139235   6.554   3.987   7.858 -2.1749 -0.1755 -0.3805
 5892TIP3    H239236   6.513   3.924   7.989  0.9890 -0.7951  0.4160
 5893TIP3   OH239237   0.039   0.181   0.392  0.1018 -0.3574 -0.1161
 5893TIP3    H139238   0.047   0.235   0.313  0.7195  0.8677  0.7696
 5893TIP3    H239239  -0.009   0.236   0.454 -0.3022 -1.2806  0.4074
 5894TIP3   OH239240   1.135   0.858   0.113 -0.1992 -0.1373 -0.3751
 5894TIP3    H139241   1.056   0.821   0.076 -0.2918 -0.9581  0.6044
 5894TIP3    H239242   1.107   0.900   0.194 -0.3446  3.3431 -2.0357
 5895TIP3   OH239243   3.552   0.096   1.664 -0.5541 -0.0062  0.3179
 5895TIP3    H139244   3.604   0.056   1.733  1.3518  0.6074 -0.7064
 5895TIP3    H239245   3.602   0.082   1.584 -0.0905  3.6988 -0.2110
 5896TIP3   OH239246   0.103   4.533   2.247 -0.2664  0.1711  0.3826
 5896TIP3    H139247   0.116   4.612   2.299  0.3324 -0.7395  1.6911
 5896TIP3    H239248   0.011   4.536   2.221  0.1682  2.1716 -1.1635
 5897TIP3   OH239249   4.488   3.331   8.604  0.2208 -0.5951  0.2948
 5897TIP3    H139250   4.424   3.364   8.666 -0.0110 -0.1709 -0.1651
 5897TIP3    H239251   4.539   3.266   8.653 -0.3403 -0.6865  0.7541
 5898TIP3   OH239252   3.857   2.385   0.227 -0.6865 -0.2673 -0.2944
 5898TIP3    H139253   3.785   2.357   0.285 -0.1122 -2.2909 -0.4610
 5898TIP3    H239254   3.823   2.370   0.139 -0.5081 -0.0350 -0.4012
 5899TIP3   OH239255   1.448   0.147   1.368  0.3299 -0.1587  0.5443
 5899TIP3    H139256   1.477   0.142   1.277  0.4996 -0.1843  0.5974
 5899TIP3    H239257   1.414   0.236   1.379  1.3467  0.2209  0.7531
 5900TIP3   OH239258   5.022   5.182   1.661 -0.4515 -0.5266 -0.3900
 5900TIP3    H139259   5.065   5.116   1.606  1.4057  0.2697  0.0406
 5900TIP3    H239260   5.001   5.253   1.600 -2.1674 -1.3258 -0.7938
 5901TIP3   OH239261   5.034   3.071   8.165 -0.0147  0.6883  0.0510
 5901TIP3    H139262   4.956   3.026   8.134 -0.8243  0.4543  2.2782
 5901TIP3    H239263   5.013   3.099   8.254  2.4470  0.5903  0.7504
 5902TIP3   OH239264   1.028   5.689   1.174 -0.1953  0.6889 -0.0378
 5902TIP3    H139265   1.110   5.738   1.170  1.4818 -1.7876  1.5083
 5902TIP3    H239266   1.003   5.678   1.083  3.4270 -1.8763 -0.9240
 5903TIP3   OH239267   6.284   3.828   1.173 -0.4807  0.3451 -0.8524
 5903TIP3    H139268   6.271   3.906   1.118 -1.5080 -0.1736 -1.3695
 5903TIP3    H239269   6.363   3.788   1.138 -1.1075  0.0318 -1.9701
 5904TIP3   OH239270   4.889   3.848   8.607  0.2420  0.4137 -0.0525
 5904TIP3    H139271   4.983   3.830   8.607  0.1054 -0.3761 -0.7840
 5904TIP3    H239272   4.874   3.898   8.687  1.3450  0.8969 -0.1290
 5905TIP3   OH239273   2.262   0.021   6.343  0.3394 -0.0817 -0.6091
 5905TIP3    H139274   2.219  -0.003   6.261 -1.0670 -0.9242  0.3329
 5905TIP3    H239275   2.351  -0.015   6.335 -0.4096 -1.9482 -0.9532
 5906TIP3   OH239276   0.292   0.847   0.022  0.0503  0.0528  0.0657
 5906TIP3    H139277   0.226   0.797  -0.026 -0.6542 -0.3318  1.3893
 5906TIP3    H239278   0.339   0.895  -0.046 -1.8023  0.5923 -0.9186
 5907TIP3   OH239279   0.831   2.523   2.829 -0.4605  0.2587 -0.6057
 5907TIP3    H139280   0.803   2.437   2.861  0.6066 -1.0244 -2.8285
 5907TIP3    H239281   0.749   2.568   2.808 -1.1141  0.5442  2.1787
 5908TIP3   OH239282   2.769   5.204   0.180  0.5228 -0.6080 -0.1667
 5908TIP3    H139283   2.803   5.206   0.270 -1.3111 -2.0931  0.6354
 5908TIP3    H239284   2.785   5.292   0.146  2.8345 -0.5226  0.9820
 5909TIP3   OH239285   4.137   4.431   0.648 -0.4461  0.1692 -0.3773
 5909TIP3    H139286   4.069   4.499   0.652 -1.6606 -1.0499  1.3362
 5909TIP3    H239287   4.214   4.471   0.688 -0.7034  0.9961 -0.6955
 5910TIP3   OH239288   3.541   1.450   1.519 -0.3924 -0.0880  0.2088
 5910TIP3    H139289   3.580   1.533   1.493 -0.3814 -0.5190 -1.2628
 5910TIP3    H239290   3.591   1.423   1.596  1.0375  0.2414 -0.5696
 5911TIP3   OH239291   6.171   4.478   1.753 -0.0571  0.2560 -0.1093
 5911TIP3    H139292   6.133   4.395   1.780  2.2091 -0.0718  2.5799
 5911TIP3    H239293   6.245   4.453   1.697 -0.2431  0.5828 -0.5125
 5912TIP3   OH239294   1.927   3.573   0.944 -0.2378 -0.4364 -0.0205
 5912TIP3    H139295   1.953   3.481   0.938 -0.3698 -0.4800  0.0715
 5912TIP3    H239296   1.922   3.602   0.853 -0.2259 -0.5280 -0.0506
 5913TIP3   OH239297   2.010   2.218   0.969 -0.1858  0.3993  0.1336
 5913TIP3    H139298   1.961   2.144   0.934  0.1576  0.0055  0.4842
 5913TIP3    H239299   2.040   2.266   0.891 -0.0839 -0.0396 -0.0961
 5914TIP3   OH239300   0.737   6.504   8.006  0.3430 -0.3557 -0.3910
 5914TIP3    H139301   0.704   6.416   7.984  0.3997 -0.8509  1.4095
 5914TIP3    H239302   0.658   6.558   8.012  0.3754  0.1300 -2.9028
 5915TIP3   OH239303   2.459   3.176   1.276  0.2594  0.2553 -0.3601
 5915TIP3    H139304   2.464   3.203   1.367  1.2675  0.3754 -0.4311
 5915TIP3    H239305   2.496   3.250   1.227  0.7212 -0.2276 -0.7634
 5916TIP3   OH239306   1.058   6.460   1.450  0.0001  0.0298 -0.4509
 5916TIP3    H139307   1.072   6.430   1.361 -2.3450 -0.0974 -0.8468
 5916TIP3    H239308   0.969   6.495   1.450  0.6638  1.9109  1.3625
 5917TIP3   OH239309   0.139   4.442   1.239 -0.1171  0.3044 -0.3745
 5917TIP3    H139310   0.114   4.424   1.148 -1.3061  0.9688 -0.1965
 5917TIP3    H239311   0.140   4.538   1.244  2.5203  0.3392 -0.3566
 5918TIP3   OH239312   6.320   3.571   7.952  0.1817 -0.1172 -0.1756
 5918TIP3    H139313   6.299   3.489   7.996 -1.0716 -0.9447 -2.1735
 5918TIP3    H239314   6.286   3.560   7.863 -1.7920  3.2451 -0.0354
 5919TIP3   OH239315   6.035   3.448   2.140  0.2607  0.0380  0.1563
 5919TIP3    H139316   6.098   3.399   2.193  0.3298 -1.3963 -1.1900
 5919TIP3    H239317   5.954   3.444   2.191  0.4655 -0.8390  0.4321
 5920TIP3   OH239318   3.168   0.301   8.010 -0.6612 -0.3612  0.3064
 5920TIP3    H139319   3.074   0.316   8.016 -0.6991  0.5540 -1.5589
 5920TIP3    H239320   3.203   0.332   8.093 -1.9940 -0.6979  1.0149
 5921TIP3   OH239321   1.975   3.929   8.479 -0.5646  0.0388 -0.1061
 5921TIP3    H139322   2.023   4.009   8.499  0.5862 -0.5840 -0.3120
 5921TIP3    H239323   1.887   3.944   8.514  0.0003  0.8864  0.9941
 5922TIP3   OH239324   3.069   1.355   8.315 -0.2124 -0.3001 -0.0495
 5922TIP3    H139325   3.000   1.372   8.379  0.6625  1.6335  0.4285
 5922TIP3    H239326   3.115   1.278   8.350 -0.5501 -0.0570  0.9681
 5923TIP3   OH239327   6.648   3.345   0.240  0.3760 -0.5619  0.6498
 5923TIP3    H139328   6.722   3.289   0.264  3.0433  1.9335 -1.0285
 5923TIP3    H239329   6.664   3.368   0.148 -2.5009  0.1625  0.2329
 5924TIP3   OH239330   3.591   2.072   1.532  0.2716  1.1037 -0.1639
 5924TIP3    H139331   3.665   2.011   1.534 -0.7787 -0.2280  1.8991
 5924TIP3    H239332   3.517   2.020   1.502 -0.6119  1.3234  1.4669
 5925TIP3   OH239333   3.368   1.360   0.960 -0.5091  0.1658  0.0184
 5925TIP3    H139334   3.426   1.362   1.035  1.1334 -1.1299 -1.1568
 5925TIP3    H239335   3.344   1.452   0.945  0.5542  0.6213  1.0343
 5926TIP3   OH239336   0.589   2.653   8.197 -0.3883 -0.7432 -0.2336
 5926TIP3    H139337   0.654   2.584   8.195  1.9428  1.3215 -2.2323
 5926TIP3    H239338   0.584   2.679   8.289  0.5959 -1.8260  0.1499
 5927TIP3   OH239339   6.595   3.287   8.505 -0.0980  0.3966  0.5960
 5927TIP3    H139340   6.680   3.285   8.461 -0.4699  3.2224 -0.4843
 5927TIP3    H239341   6.557   3.200   8.490  1.6594 -0.1728 -0.8277
 5928TIP3   OH239342   6.295   6.585   7.525 -0.6049  0.1072 -0.2321
 5928TIP3    H139343   6.373   6.610   7.575 -1.8175  0.5249  1.5256
 5928TIP3    H239344   6.227   6.573   7.591 -2.0219 -0.3475 -1.7187
 5929TIP3   OH239345   5.989   2.194   6.391  0.6067 -0.2652 -0.1664
 5929TIP3    H139346   6.072   2.146   6.396  1.4433  1.2043  0.8371
 5929TIP3    H239347   5.996   2.262   6.458 -1.1689  0.2880 -0.4802
 5930TIP3   OH239348   6.104   3.568   7.228 -0.2206  0.7273  0.0742
 5930TIP3    H139349   6.071   3.481   7.206 -1.2987  0.8272  1.1813
 5930TIP3    H239350   6.111   3.613   7.143  2.1676 -0.9953 -0.7417
 5931TIP3   OH239351   0.174   4.084   7.683  0.1559  0.0134 -0.5516
 5931TIP3    H139352   0.259   4.067   7.643 -0.2292 -1.2260 -0.8659
 5931TIP3    H239353   0.111   4.038   7.627 -0.7419  1.0059 -0.3905
 5932TIP3   OH239354   2.234   1.200   1.938  0.4301  0.2653  0.2593
 5932TIP3    H139355   2.250   1.137   2.009 -3.7401 -0.1773  1.0567
 5932TIP3    H239356   2.284   1.166   1.864  0.2051 -2.6952  1.3340
 5933TIP3   OH239357   5.941   2.590   7.441 -0.0619 -0.4649  0.2202
 5933TIP3    H139358   5.861   2.627   7.477 -0.6497 -0.4805 -1.0045
 5933TIP3    H239359   5.986   2.552   7.516 -1.0677 -0.2235  0.9685
 5934TIP3   OH239360   2.170   1.066   8.632 -0.2608  0.0709  0.0065
 5934TIP3    H139361   2.235   1.117   8.680 -0.0523 -1.3172  1.2858
 5934TIP3    H239362   2.096   1.126   8.621  0.1732  0.8244  0.9820
 5935TIP3   OH239363   6.762   2.432   0.803  0.1692 -0.9100  0.2012
 5935TIP3    H139364   6.854   2.416   0.783  0.0466 -1.4371  0.0356
 5935TIP3    H239365   6.763   2.510   0.858  0.8501 -1.7789  1.4659
 5936TIP3   OH239366   3.906   4.434   8.632  0.3873  0.4228  0.0766
 5936TIP3    H139367   3.947   4.389   8.706  2.7765 -0.5773 -1.6973
 5936TIP3    H239368   3.819   4.394   8.625  0.7938 -0.7507  1.2343
 5937TIP3   OH239369   4.672   3.687   1.321 -0.0087  0.2644 -0.0409
 5937TIP3    H139370   4.618   3.689   1.242 -2.3921 -1.6052  1.3912
 5937TIP3    H239371   4.645   3.765   1.370 -0.0363  0.3216 -0.1449
 5938TIP3   OH239372   1.132   2.601   2.067 -0.1860 -0.3287  0.5071
 5938TIP3    H139373   1.109   2.562   1.983  0.7111 -2.0866  1.0358
 5938TIP3    H239374   1.132   2.528   2.129  0.9415  0.6070  1.6794
 5939TIP3   OH239375   4.311   2.088   0.533 -0.4927 -0.0384  0.7402
 5939TIP3    H139376   4.331   2.133   0.615  0.4036  2.3089 -0.6680
 5939TIP3    H239377   4.396   2.066   0.495 -0.8868 -0.8711  0.2937
 5940TIP3   OH239378   5.739   3.577   7.557 -0.0759  0.2721  0.7954
 5940TIP3    H139379   5.731   3.498   7.504  0.7699  0.1014  0.8987
 5940TIP3    H239380   5.798   3.551   7.629  0.1093  0.9562  0.8984
 5941TIP3   OH239381   0.565   6.748   2.076  0.6094 -0.1750  0.0294
 5941TIP3    H139382   0.534   6.838   2.069 -0.2457 -0.3824  0.8911
 5941TIP3    H239383   0.652   6.756   2.115 -0.3519  0.2038  2.2547
 5942TIP3   OH239384   0.275   1.788   2.144 -0.6121 -0.3286 -0.1890
 5942TIP3    H139385   0.367   1.815   2.152 -0.9140  0.2130  2.1458
 5942TIP3    H239386   0.270   1.746   2.058  1.8183 -0.3850 -0.3781
 5943TIP3   OH239387   3.871   0.525   6.948 -0.0676 -0.0228  0.2414
 5943TIP3    H139388   3.963   0.504   6.965  0.2943  1.6800  0.5219
 5943TIP3    H239389   3.850   0.478   6.867  1.8471  1.6017 -1.2839
 5944TIP3   OH239390   3.425   0.859   8.712 -0.0634  0.2735 -0.1292
 5944TIP3    H139391   3.414   0.952   8.729 -0.4227  0.1594  0.3031
 5944TIP3    H239392   3.458   0.854   8.623 -0.2351  0.8025 -0.2252
 5945TIP3   OH239393   4.843   1.375   7.305  0.4362 -0.2151  0.1904
 5945TIP3    H139394   4.936   1.397   7.316  0.9131 -1.7009 -0.6182
 5945TIP3    H239395   4.838   1.335   7.218 -0.9069 -0.4580  0.3597
 5946TIP3   OH239396   3.330   1.494   1.910  0.0117 -0.6597 -0.1493
 5946TIP3    H139397   3.413   1.448   1.898  0.0293 -0.3811 -1.1865
 5946TIP3    H239398   3.354   1.587   1.915 -0.0745 -0.6885  1.4042
 5947TIP3   OH239399   0.294   3.733   7.612 -0.0696  0.1416  0.8259
 5947TIP3    H139400   0.317   3.816   7.570 -1.4316 -0.4031 -1.1566
 5947TIP3    H239401   0.340   3.667   7.561  0.6874 -0.3897  2.1436
 5948TIP3   OH239402   4.277   6.399   7.916 -0.1637 -0.1654 -0.6422
 5948TIP3    H139403   4.222   6.443   7.980  0.5315  1.1739 -0.9295
 5948TIP3    H239404   4.281   6.459   7.842  0.3615 -0.9651 -1.2892
 5949TIP3   OH239405   5.362   3.514   1.602 -0.1239  0.0914  0.0036
 5949TIP3    H139406   5.345   3.588   1.543  0.5390  1.2835  1.2700
 5949TIP3    H239407   5.452   3.488   1.582 -0.0262  0.2539  0.2357
 5950TIP3   OH239408   3.667   4.320   8.659 -0.1475  0.4165  0.4333
 5950TIP3    H139409   3.607   4.372   8.712 -0.8415 -0.1029  0.1749
 5950TIP3    H239410   3.615   4.244   8.631  0.7801 -0.3168  0.6444
 5951TIP3   OH239411   0.728   3.918   1.477  0.9174  0.0432 -0.5773
 5951TIP3    H139412   0.777   4.000   1.466  0.0129  0.5922 -0.6251
 5951TIP3    H239413   0.702   3.895   1.388  0.4304  0.1754 -0.4697
 5952TIP3   OH239414   3.670   5.107   0.836  0.3779 -0.0356  0.1980
 5952TIP3    H139415   3.716   5.093   0.753 -1.3152 -2.2818 -0.4665
 5952TIP3    H239416   3.668   5.202   0.847  1.9699  0.2457 -1.5508
 5953TIP3   OH239417   4.676   2.826   6.894 -0.6625  0.1444  0.3844
 5953TIP3    H139418   4.766   2.796   6.906 -1.0658 -1.7911 -1.0279
 5953TIP3    H239419   4.625   2.746   6.877 -2.5220  1.2544  0.3950
 5954TIP3   OH239420   0.769   1.078   0.171  0.6740 -0.4867  0.0701
 5954TIP3    H139421   0.746   1.054   0.081 -0.2766 -1.8420  0.6446
 5954TIP3    H239422   0.757   0.998   0.221 -0.2635  0.6088  1.6834
 5955TIP3   OH239423   3.707   3.937   1.022  0.7939  0.0524 -0.0494
 5955TIP3    H139424   3.733   3.911   0.933 -0.8859 -0.7068 -0.3662
 5955TIP3    H239425   3.758   4.016   1.040  1.5942 -0.1091 -1.4580
 5956TIP3   OH239426   4.943   1.026   2.274 -0.2508  0.0368 -0.1786
 5956TIP3    H139427   4.850   1.029   2.251 -0.1362  0.3774 -0.6155
 5956TIP3    H239428   4.954   1.092   2.342 -0.3101  0.0642 -0.1962
 5957TIP3   OH239429   2.886   6.278   7.381 -0.5761 -0.5997 -0.2108
 5957TIP3    H139430   2.847   6.352   7.428  0.6081 -0.9406  1.3883
 5957TIP3    H239431   2.842   6.201   7.418 -0.3485 -0.8165 -0.3882
 5958TIP3   OH239432   4.400   1.554   0.069 -0.3933 -0.0030 -0.1879
 5958TIP3    H139433   4.395   1.593  -0.018 -1.8139 -0.7413 -0.4650
 5958TIP3    H239434   4.377   1.625   0.129  0.1276  0.3794 -0.4312
 5959TIP3   OH239435   6.680   1.089   7.400 -0.1935  0.1411  0.6108
 5959TIP3    H139436   6.601   1.047   7.435 -0.4080 -1.0134 -1.1153
 5959TIP3    H239437   6.748   1.021   7.405  0.3647  0.7081  0.9034
 5960TIP3   OH239438   0.998   1.855   8.180  0.0454 -0.1585  0.0106
 5960TIP3    H139439   1.077   1.886   8.135 -0.3818  0.0965 -0.5760
 5960TIP3    H239440   0.969   1.780   8.128 -1.0053  0.7283 -0.7514
 5961TIP3   OH239441   5.915   5.635   0.235 -0.0172  0.5601 -0.3294
 5961TIP3    H139442   5.835   5.634   0.288 -0.6821 -0.6450 -1.2826
 5961TIP3    H239443   5.919   5.724   0.200  0.3314  1.3174  1.5253
 5962TIP3   OH239444   6.355   0.250   0.455  0.5898 -0.4058  0.7183
 5962TIP3    H139445   6.317   0.290   0.534  0.5414 -1.6964  1.3660
 5962TIP3    H239446   6.294   0.181   0.431  0.9592 -0.4672 -0.0639
 5963TIP3   OH239447   1.078   0.517   0.173  0.1997 -0.1116 -0.4192
 5963TIP3    H139448   1.111   0.578   0.240 -0.5916 -0.6527  0.4851
 5963TIP3    H239449   1.148   0.514   0.108  0.3554  1.5929 -0.3854
 5964TIP3   OH239450   1.163   2.085   7.089 -0.2704  0.3458 -0.7793
 5964TIP3    H139451   1.156   2.151   7.158 -1.6933  0.7354 -1.2675
 5964TIP3    H239452   1.101   2.113   7.022  0.8682 -0.1797 -2.1176
 5965TIP3   OH239453   1.433   5.173   8.019 -0.1334 -0.5039  0.1138
 5965TIP3    H139454   1.339   5.182   8.006 -0.2945 -1.6030  0.3957
 5965TIP3    H239455   1.457   5.249   8.072 -0.5984  0.5205 -1.1082
 5966TIP3   OH239456   0.906   0.876   7.958 -0.2482  0.1490 -0.2031
 5966TIP3    H139457   0.931   0.944   8.020 -0.8141  0.4792 -0.3327
 5966TIP3    H239458   0.819   0.902   7.928  0.0592  0.0607 -1.2147
 5967TIP3   OH239459   0.129   0.033   1.019 -0.1453 -0.4912  0.3234
 5967TIP3    H139460   0.128   0.004   1.110  0.4942 -0.0458  0.4792
 5967TIP3    H239461   0.039   0.059   1.001 -0.6717 -2.2233  0.2734
 5968TIP3   OH239462   6.704   2.633   0.004 -0.7531 -0.3554  0.0321
 5968TIP3    H139463   6.647   2.557   0.013  0.3402 -1.1595  0.3217
 5968TIP3    H239464   6.790   2.603   0.034 -0.5325  1.2909  1.2259
 5969TIP3   OH239465   0.526   0.966   0.528  0.4380  0.0878  0.1094
 5969TIP3    H139466   0.551   0.887   0.575  3.5396  2.1665  2.3203
 5969TIP3    H239467   0.432   0.976   0.546  0.1406 -2.5391  0.4315
 5970TIP3   OH239468   3.994   5.618   0.810  0.4793 -0.2361  0.1658
 5970TIP3    H139469   3.959   5.707   0.806 -0.0324 -0.2927  2.0501
 5970TIP3    H239470   4.070   5.625   0.868 -0.0426 -1.1297  1.0013
 5971TIP3   OH239471   0.709   1.283   1.141  0.1982 -0.3798 -0.0179
 5971TIP3    H139472   0.702   1.191   1.169  1.4545 -0.9230 -1.3831
 5971TIP3    H239473   0.802   1.296   1.125 -0.0638  0.9176 -0.5776
 5972TIP3   OH239474   3.040   4.329   1.620 -0.2711 -0.5370  0.1494
 5972TIP3    H139475   3.072   4.354   1.707 -1.2702  2.3626 -0.1947
 5972TIP3    H239476   2.945   4.334   1.627 -0.4235 -1.6817 -0.7798
 5973TIP3   OH239477   0.097   1.278   0.812  0.1320 -0.4199 -0.4075
 5973TIP3    H139478   0.090   1.340   0.884  0.3830  1.0611 -1.5903
 5973TIP3    H239479   0.093   1.192   0.853 -3.0377  0.2932  1.0525
 5974TIP3   OH239480   0.013   6.153   0.050 -0.7287  0.2211 -0.1584
 5974TIP3    H139481  -0.069   6.155   0.000 -1.3481  1.2910  0.8454
 5974TIP3    H239482  -0.014   6.139   0.141  0.3656 -1.5445 -0.0611
 5975TIP3   OH239483   2.708   6.056   7.124  0.1009 -0.3340  0.3359
 5975TIP3    H139484   2.699   6.102   7.208  0.8847 -2.9772  1.9998
 5975TIP3    H239485   2.799   6.024   7.125 -0.0755 -0.9424 -1.2507
 5976TIP3   OH239486   1.245   2.239   1.162 -0.2517 -0.2161 -0.3776
 5976TIP3    H139487   1.193   2.207   1.088 -0.2651  0.5684 -0.7232
 5976TIP3    H239488   1.312   2.295   1.121  0.2049 -0.3737  0.1487
 5977TIP3   OH239489   1.269   4.190   1.855 -0.2424  0.0120 -0.2803
 5977TIP3    H139490   1.230   4.268   1.894  0.3807  1.3267 -2.1216
 5977TIP3    H239491   1.305   4.221   1.772  2.1800 -1.7345  0.0256
 5978TIP3   OH239492   4.181   1.973   0.037 -0.2253 -0.1399 -0.0416
 5978TIP3    H139493   4.178   1.963   0.132  0.0933  0.7015  0.0672
 5978TIP3    H239494   4.089   1.982   0.010 -0.2954 -0.0564  0.2252
 5979TIP3   OH239495   3.321   3.688   7.771  0.7508  0.0699  0.5906
 5979TIP3    H139496   3.411   3.657   7.766  1.4433  1.6652  2.0238
 5979TIP3    H239497   3.322   3.755   7.839 -1.1605  1.3558 -0.5257
 5980TIP3   OH239498   1.541   4.290   7.546  0.3175 -0.1832 -0.6371
 5980TIP3    H139499   1.536   4.379   7.511 -1.2355  0.1200  0.2700
 5980TIP3    H239500   1.580   4.301   7.632 -0.4830 -0.2751 -0.2515
 5981TIP3   OH239501   0.948   2.084   8.362  0.0394  0.4882  0.3259
 5981TIP3    H139502   0.906   2.113   8.281 -1.1076 -1.6717  0.0704
 5981TIP3    H239503   0.996   2.005   8.337  0.9838  0.6782  1.4516
 5982TIP3   OH239504   3.296   2.688   2.000 -0.1343 -0.2221 -0.5403
 5982TIP3    H139505   3.355   2.663   1.929  0.0235  1.1061 -0.9031
 5982TIP3    H239506   3.338   2.764   2.041 -0.5649 -0.5456  0.5439
 5983TIP3   OH239507   3.565   5.389   8.476  0.8560  0.5386 -0.3357
 5983TIP3    H139508   3.510   5.395   8.554  2.8036  1.5514  1.0096
 5983TIP3    H239509   3.544   5.303   8.440 -1.4455  0.7911  0.2019
 5984TIP3   OH239510   1.206   0.403   1.654 -0.0839  0.1239  0.5702
 5984TIP3    H139511   1.233   0.447   1.573  2.5973 -0.7382  0.9186
 5984TIP3    H239512   1.135   0.344   1.627 -1.9422  2.6213 -0.3666
 5985TIP3   OH239513   1.026   0.842   1.577  0.0952 -0.4428  0.5585
 5985TIP3    H139514   1.100   0.784   1.557  0.4512  0.6971 -1.7489
 5985TIP3    H239515   0.959   0.819   1.514 -0.8727 -0.2480  1.4839
 5986TIP3   OH239516   0.098   0.777   8.235 -0.2914 -0.0432  0.1162
 5986TIP3    H139517   0.120   0.684   8.231 -0.8083 -0.2762  1.6634
 5986TIP3    H239518   0.002   0.779   8.242 -0.2241  0.5032  1.3019
 5987TIP3   OH239519   1.605   0.686   2.114 -0.1462  0.1537 -0.4418
 5987TIP3    H139520   1.692   0.695   2.153 -0.7346  0.5004  0.8408
 5987TIP3    H239521   1.546   0.731   2.174 -1.1867  0.1984 -1.4465
 5988TIP3   OH239522   4.235   6.004   1.737  0.0420 -0.1593 -0.4183
 5988TIP3    H139523   4.305   5.961   1.787  0.1570 -0.4172 -0.7957
 5988TIP3    H239524   4.276   6.083   1.703  0.7150 -1.2158 -2.1693
 5989TIP3   OH239525   4.151   4.988   7.922  0.0034  0.4369 -0.4231
 5989TIP3    H139526   4.228   5.031   7.961  0.0007  0.5690 -0.5634
 5989TIP3    H239527   4.158   4.897   7.951  1.0098  0.1026 -1.6142
 5990TIP3   OH239528   3.456   5.118   1.481 -0.2321  0.2037  0.2144
 5990TIP3    H139529   3.485   5.086   1.395  1.6254  0.3292  0.7399
 5990TIP3    H239530   3.376   5.069   1.499 -0.8381  0.3956 -1.7048
 5991TIP3   OH239531   0.523   0.819   6.422  0.2416  0.2485  0.3283
 5991TIP3    H139532   0.445   0.769   6.444  0.3640  0.2466  0.7675
 5991TIP3    H239533   0.518   0.898   6.476  2.4646 -1.4835  3.4202
 5992TIP3   OH239534   1.376   2.280   0.231 -0.2715 -0.5169 -0.5036
 5992TIP3    H139535   1.281   2.272   0.228 -0.1678 -1.6358 -1.8974
 5992TIP3    H239536   1.403   2.217   0.298 -0.5147  0.1648  0.2601
 5993TIP3   OH239537   3.672   5.655   1.995  1.0344  0.2581  0.5285
 5993TIP3    H139538   3.754   5.667   2.044  1.0297 -0.7211  0.7849
 5993TIP3    H239539   3.620   5.733   2.017  0.3659 -0.9021  3.4458
 5994TIP3   OH239540   6.528   3.817   7.636 -0.0538 -0.4025 -0.8179
 5994TIP3    H139541   6.486   3.731   7.632 -0.6019 -0.1159 -1.3796
 5994TIP3    H239542   6.523   3.841   7.728  0.7900 -1.2953 -0.5110
 5995TIP3   OH239543   5.621   4.723   0.072 -0.3964 -0.2306 -0.7884
 5995TIP3    H139544   5.656   4.741   0.160 -0.7559 -0.5702 -0.5770
 5995TIP3    H239545   5.551   4.660   0.086  0.0713 -0.9073 -1.4080
 5996TIP3   OH239546   4.195   0.032   6.877  0.0919  0.1213  0.6694
 5996TIP3    H139547   4.265  -0.014   6.924  1.0193 -2.8668 -3.0831
 5996TIP3    H239548   4.118  -0.023   6.891  0.0469 -0.0191 -0.1191
 5997TIP3   OH239549   5.371   0.073   8.029  0.0452 -0.0044 -0.0389
 5997TIP3    H139550   5.292   0.036   8.068  1.0246 -1.1297  0.9737
 5997TIP3    H239551   5.349   0.165   8.012 -1.6920 -0.4483 -0.4491
 5998TIP3   OH239552   1.571   2.457   1.417 -0.1814  0.6172 -0.4544
 5998TIP3    H139553   1.581   2.535   1.363  0.1470  1.2331  0.4860
 5998TIP3    H239554   1.514   2.484   1.489 -0.0309 -0.0008 -0.0935
 5999TIP3   OH239555   0.203   1.205   7.181  0.4075 -0.5125 -0.0718
 5999TIP3    H139556   0.167   1.159   7.106  1.0520  1.4429 -1.6776
 5999TIP3    H239557   0.298   1.201   7.169  0.5319 -0.4936  0.8372
 6000TIP3   OH239558   0.285   1.772   8.709 -0.1285 -0.3556 -0.0182
 6000TIP3    H139559   0.209   1.768   8.651 -0.1092 -1.6459  0.0260
 6000TIP3    H239560   0.249   1.800   8.793 -0.8030 -2.2650  0.3655
 6001TIP3   OH239561   5.289   0.465   0.029 -0.9110  0.5336 -0.1606
 6001TIP3    H139562   5.348   0.390   0.034 -0.2008  1.1302  0.7242
 6001TIP3    H239563   5.226   0.442  -0.039 -0.4184 -0.6571 -0.2284
 6002TIP3   OH239564   1.467   5.068   6.772 -0.4840  0.3032 -0.0950
 6002TIP3    H139565   1.383   5.102   6.804 -0.8282 -0.9409  0.3584
 6002TIP3    H239566   1.451   4.975   6.757  0.9271 -0.0277  0.3636
 6003TIP3   OH239567   2.615   5.582   0.360  0.2780  0.4360  0.2703
 6003TIP3    H139568   2.544   5.523   0.335 -0.4549  1.3634  0.1184
 6003TIP3    H239569   2.683   5.523   0.393 -0.3579 -0.5090 -0.0346
 6004TIP3   OH239570   2.784   1.786   8.375  0.7068  0.1185 -0.6902
 6004TIP3    H139571   2.771   1.774   8.281  0.1131 -1.0545 -0.4696
 6004TIP3    H239572   2.821   1.874   8.383 -0.5846  0.8048 -1.9016
 6005TIP3   OH239573   5.515   0.819   6.764 -0.5148 -0.1944 -0.1633
 6005TIP3    H139574   5.583   0.885   6.751 -0.6050 -0.2151 -0.7979
 6005TIP3    H239575   5.434   0.869   6.774 -0.6368 -0.1984 -0.9860
 6006TIP3   OH239576   6.405   2.160   2.649  0.4962  0.0848  0.0942
 6006TIP3    H139577   6.345   2.210   2.594  0.2090 -0.4480 -0.0806
 6006TIP3    H239578   6.487   2.209   2.645  0.2139  0.5516 -0.0584
 6007TIP3   OH239579   4.123   5.751   2.072 -0.3649 -0.2932 -0.0847
 6007TIP3    H139580   4.034   5.721   2.090 -0.1068 -0.7564  0.4340
 6007TIP3    H239581   4.169   5.674   2.040 -0.0402 -0.1558  0.0445
 6008TIP3   OH239582   0.012   3.295   7.622  0.1312  0.0520  0.7187
 6008TIP3    H139583  -0.076   3.267   7.649  0.4897 -1.4793  0.4103
 6008TIP3    H239584   0.007   3.390   7.618 -1.1129  0.0739  2.0826
 6009TIP3   OH239585   0.336   5.173   6.216 -0.1086 -0.4456  0.8571
 6009TIP3    H139586   0.310   5.265   6.227  2.1257  0.1939  1.2605
 6009TIP3    H239587   0.426   5.170   6.246  0.3977 -2.4670 -0.6506
 6010TIP3   OH239588   2.896   1.351   7.161  0.0088 -0.6402  0.2705
 6010TIP3    H139589   2.832   1.422   7.155 -0.8382 -1.2438  1.5930
 6010TIP3    H239590   2.849   1.281   7.206  1.5722 -1.1320  1.2238
 6011TIP3   OH239591   3.602   3.674   8.618  0.4018  0.2718 -0.1345
 6011TIP3    H139592   3.511   3.672   8.590  0.4292  0.2388 -0.2220
 6011TIP3    H239593   3.646   3.611   8.561  0.2027 -0.8233  0.8675
 6012TIP3   OH239594   1.072   6.670   8.236 -0.3521 -0.2484 -0.1900
 6012TIP3    H139595   1.165   6.652   8.230 -0.4746 -0.4180 -2.7225
 6012TIP3    H239596   1.035   6.591   8.275  0.4640 -0.4935  0.1045
 6013TIP3   OH239597   3.709   6.013   0.247 -0.2528  0.4019  0.3902
 6013TIP3    H139598   3.758   5.931   0.241  0.6631  0.7491  2.1341
 6013TIP3    H239599   3.777   6.080   0.261 -1.0980  1.1452  1.1049
 6014TIP3   OH239600   2.471   5.067   1.282  0.0281 -0.4332  0.3404
 6014TIP3    H139601   2.507   4.978   1.283  2.1402  0.3554 -0.3681
 6014TIP3    H239602   2.431   5.075   1.196 -0.5643 -0.8212  0.5698
 6015TIP3   OH239603   4.942   3.931   7.232 -0.7141 -0.3736  0.7027
 6015TIP3    H139604   4.931   4.017   7.271 -1.4134  0.5469 -1.3926
 6015TIP3    H239605   5.017   3.940   7.174 -0.0565 -1.5404  1.3302
 6016TIP3   OH239606   5.577   4.126   1.178  0.2804  0.4190  0.4410
 6016TIP3    H139607   5.532   4.127   1.262 -0.7235 -2.2866  0.0403
 6016TIP3    H239608   5.639   4.054   1.183  0.3779  0.3502 -1.0491
 6017TIP3   OH239609   1.573   4.280   1.041 -0.1805  0.3156 -0.4239
 6017TIP3    H139610   1.485   4.299   1.010  0.3413  2.2689 -0.8739
 6017TIP3    H239611   1.625   4.271   0.961 -0.1214 -1.8434 -0.1857
 6018TIP3   OH239612   4.441   6.827   8.109  0.3250 -0.3837 -0.0056
 6018TIP3    H139613   4.484   6.798   8.028 -0.4157  0.2382 -0.6391
 6018TIP3    H239614   4.357   6.863   8.080  0.4075  0.6269  0.9510
 6019TIP3   OH239615   4.934   3.247   7.205  0.4441  0.3855 -0.4759
 6019TIP3    H139616   4.980   3.291   7.133 -0.8186  0.0960 -1.5191
 6019TIP3    H239617   4.964   3.157   7.201  1.5346  0.7018  0.3713
 6020TIP3   OH239618   2.776   2.170   1.517  0.5890 -0.3306  0.5813
 6020TIP3    H139619   2.788   2.238   1.451  1.8649  0.1048  1.2385
 6020TIP3    H239620   2.697   2.196   1.565 -0.3807 -0.6842 -0.7760
 6021TIP3   OH239621   4.435   2.762   8.283 -0.4734  0.0108 -0.4424
 6021TIP3    H139622   4.428   2.696   8.213  0.2243  0.2637 -0.7623
 6021TIP3    H239623   4.362   2.821   8.267 -1.0049 -0.5867 -0.2570
 6022TIP3   OH239624   4.511   0.132   6.630  0.4067  0.4075 -0.2674
 6022TIP3    H139625   4.531   0.195   6.699  1.4411  1.4503 -1.4620
 6022TIP3    H239626   4.548   0.171   6.550 -0.9794 -0.6216 -1.4658
 6023TIP3   OH239627   5.597   1.089   6.414 -0.4518 -0.3597  0.1002
 6023TIP3    H139628   5.691   1.109   6.407 -0.5280 -0.6033 -3.0934
 6023TIP3    H239629   5.556   1.173   6.433  0.3660 -0.1891  1.2052
 6024TIP3   OH239630   6.679   2.782   1.256 -0.4898  0.0687 -0.4652
 6024TIP3    H139631   6.676   2.687   1.262 -0.0163  0.1056  0.4916
 6024TIP3    H239632   6.768   2.806   1.280 -0.2688  0.6961 -1.8098
 6025TIP3   OH239633   0.122   2.287   8.271  0.0304  0.0910 -0.0507
 6025TIP3    H139634   0.200   2.293   8.215 -0.2381  1.9705 -0.2962
 6025TIP3    H239635   0.062   2.230   8.223  0.4728  0.2848 -0.8512
 6026TIP3   OH239636   3.825   5.206   0.259 -0.6420  0.5018 -0.1416
 6026TIP3    H139637   3.745   5.214   0.207 -1.0527 -1.3950  0.1393
 6026TIP3    H239638   3.795   5.184   0.347  0.1637  0.0013  0.0223
 6027TIP3   OH239639   2.806   0.981   1.847  0.5177  0.1164  0.3168
 6027TIP3    H139640   2.806   0.974   1.751 -3.1181 -1.7570  0.2875
 6027TIP3    H239641   2.849   0.901   1.876 -0.9262 -0.7561  0.1577
 6028TIP3   OH239642   0.543   2.400   0.852 -0.0534  0.5108 -0.0510
 6028TIP3    H139643   0.595   2.432   0.926 -1.0888  0.1522  0.8511
 6028TIP3    H239644   0.487   2.332   0.890  1.7577 -2.1722 -1.7774
 6029TIP3   OH239645   0.527   4.313   0.681  0.2806  0.4715  0.0651
 6029TIP3    H139646   0.571   4.238   0.641 -0.4917 -0.6618  1.2759
 6029TIP3    H239647   0.568   4.389   0.640  1.2438 -0.5972 -1.0287
 6030TIP3   OH239648   3.501   5.729   8.092 -0.4865  0.5702  0.0039
 6030TIP3    H139649   3.491   5.726   8.187 -1.7138 -1.7493 -0.1432
 6030TIP3    H239650   3.594   5.750   8.078  0.5580 -2.2947  1.8128
 6031TIP3   OH239651   1.494   0.327   6.966  0.0413  0.2035  0.7314
 6031TIP3    H139652   1.409   0.321   7.011 -0.2675  1.4365  0.3810
 6031TIP3    H239653   1.535   0.242   6.979 -1.8059 -0.8828 -0.1878
 6032TIP3   OH239654   3.798   4.974   0.604  0.2709 -0.5571  0.2197
 6032TIP3    H139655   3.762   4.886   0.595 -0.7191 -0.0010 -1.9079
 6032TIP3    H239656   3.866   4.980   0.537 -2.1905  1.3991 -2.3578
 6033TIP3   OH239657   0.520   6.620   8.341  0.5058  0.0482 -0.3199
 6033TIP3    H139658   0.494   6.699   8.388  0.3878  0.8361 -1.6842
 6033TIP3    H239659   0.612   6.609   8.363  0.5625  0.6445 -0.2446
 6034TIP3   OH239660   6.208   3.274   8.638  0.2100  0.3120  0.3813
 6034TIP3    H139661   6.123   3.303   8.605  0.8457  1.5726 -0.1983
 6034TIP3    H239662   6.193   3.184   8.667 -1.4106  0.6440  0.6511
 6035TIP3   OH239663   4.670   2.483   7.850 -0.0090 -0.0423  0.2598
 6035TIP3    H139664   4.601   2.459   7.911  0.3029  0.8246  0.9846
 6035TIP3    H239665   4.712   2.559   7.890  0.7335  0.0474 -0.6434
 6036TIP3   OH239666   3.129   5.526   7.150  0.1899 -0.0733 -0.1050
 6036TIP3    H139667   3.182   5.451   7.177  1.2961  0.2459 -1.2901
 6036TIP3    H239668   3.073   5.491   7.080  0.2631  0.0444 -0.2237
 6037TIP3   OH239669   4.540   1.832   2.041  0.1811 -0.1198  0.2384
 6037TIP3    H139670   4.448   1.828   2.016 -0.1234 -0.1513  1.2960
 6037TIP3    H239671   4.539   1.833   2.137  1.3357 -1.3614  0.2944
 6038TIP3   OH239672   5.593   1.097   1.536 -0.4722 -0.2529 -0.0755
 6038TIP3    H139673   5.672   1.128   1.492  0.9959 -2.6383  0.7178
 6038TIP3    H239674   5.583   1.157   1.611  1.3702 -0.6320  0.5461
 6039TIP3   OH239675   5.065   0.074   7.739 -0.1468 -0.6038 -0.1044
 6039TIP3    H139676   5.148   0.026   7.739 -0.1131 -0.5867  1.4683
 6039TIP3    H239677   5.058   0.110   7.650  0.3777 -2.5369 -0.9631
 6040TIP3   OH239678   2.228   5.432   6.337 -0.4334 -0.0524 -0.1438
 6040TIP3    H139679   2.305   5.490   6.330  0.1858 -0.9411 -0.9095
 6040TIP3    H239680   2.154   5.488   6.315 -0.0161  0.8177  0.5827
 6041TIP3   OH239681   1.595   2.397   0.702 -0.3579  0.1495 -0.1978
 6041TIP3    H139682   1.596   2.473   0.762 -1.9005  0.1368 -0.1084
 6041TIP3    H239683   1.532   2.422   0.634 -0.1836 -0.6864 -0.6690
 6042TIP3   OH239684   5.785   4.965   1.835 -0.2277  0.7838  0.2604
 6042TIP3    H139685   5.840   4.944   1.910  0.5881  2.6521  0.2510
 6042TIP3    H239686   5.696   4.966   1.871 -0.2452 -1.6017  0.4236
 6043TIP3   OH239687   0.746   6.105   7.274 -0.3915  0.4043 -0.3033
 6043TIP3    H139688   0.790   6.056   7.204  1.7580  1.8065  0.0153
 6043TIP3    H239689   0.720   6.187   7.233  0.9680  1.2741  0.5490
 6044TIP3   OH239690   1.688   1.517   7.895  0.5189  0.1851 -0.4751
 6044TIP3    H139691   1.747   1.498   7.822 -0.5413 -0.1475 -1.2719
 6044TIP3    H239692   1.617   1.454   7.886 -0.6171  1.3873 -0.3209
 6045TIP3   OH239693   5.815   5.066   7.397 -0.3618 -0.4806  0.4768
 6045TIP3    H139694   5.886   5.008   7.425  0.0124 -0.0180  0.5060
 6045TIP3    H239695   5.858   5.129   7.339 -1.1133 -1.3859 -1.1112
 6046TIP3   OH239696   1.202   2.209   1.685 -0.4166 -0.1799  0.2803
 6046TIP3    H139697   1.283   2.161   1.698 -0.3375  0.1530  1.0999
 6046TIP3    H239698   1.144   2.148   1.639  0.9125  0.2228 -2.0711
 6047TIP3   OH239699   0.181   1.821   8.092  0.2324 -0.2561 -0.5169
 6047TIP3    H139700   0.234   1.899   8.073  1.7279 -0.8616  0.9802
 6047TIP3    H239701   0.164   1.782   8.006 -0.3646  1.5673 -1.2748
 6048TIP3   OH239702   4.176   3.421   8.016 -0.0657  0.0634 -0.0822
 6048TIP3    H139703   4.099   3.476   8.035  0.2623  0.1280  1.1150
 6048TIP3    H239704   4.243   3.483   7.988 -0.2776  0.0622 -0.6076
 6049TIP3   OH239705   6.084   3.012   7.671 -0.2451 -0.3873 -0.6212
 6049TIP3    H139706   6.125   2.937   7.714  0.5324  0.7491  0.7218
 6049TIP3    H239707   6.116   3.088   7.720 -1.2529  0.8061 -1.7339
 6050TIP3   OH239708   1.448   0.161   7.971  0.3441  0.0289 -0.1490
 6050TIP3    H139709   1.445   0.232   7.907  0.6489 -0.2938 -0.5310
 6050TIP3    H239710   1.526   0.111   7.947  2.8436  2.1232  2.8610
 6051TIP3   OH239711   3.651   0.172   0.281 -0.1171  0.4571  0.3537
 6051TIP3    H139712   3.572   0.119   0.271  1.4274 -1.7239 -1.2531
 6051TIP3    H239713   3.635   0.250   0.228 -0.8592 -0.3722 -0.6758
 6052TIP3   OH239714   0.346   2.742   1.419 -0.1671  0.6582  0.1994
 6052TIP3    H139715   0.392   2.793   1.485 -1.2123  0.3397  1.2180
 6052TIP3    H239716   0.354   2.651   1.448  0.6148  0.3463 -0.9247
 6053TIP3   OH239717   6.452   1.099   0.300 -0.0325 -0.6982 -0.2257
 6053TIP3    H139718   6.431   1.011   0.329 -0.9076 -0.2299  0.6594
 6053TIP3    H239719   6.547   1.106   0.310 -0.2891 -0.2825  3.6747
 6054TIP3   OH239720   2.340   5.028   8.283  0.2658  0.0197 -0.3101
 6054TIP3    H139721   2.429   4.995   8.274 -0.6474 -2.3438 -1.5643
 6054TIP3    H239722   2.338   5.108   8.231  1.2365 -0.8128 -1.6891
 6055TIP3   OH239723   4.055   6.752   1.459  0.1953  0.1803 -0.0892
 6055TIP3    H139724   4.130   6.701   1.427 -0.0783 -0.6719  0.5772
 6055TIP3    H239725   4.005   6.775   1.381  0.1077 -0.9358 -0.3741
 6056TIP3   OH239726   0.172   5.876   8.491 -0.4393 -0.5038 -0.0270
 6056TIP3    H139727   0.249   5.820   8.494  0.4479  0.6772 -0.2254
 6056TIP3    H239728   0.105   5.828   8.540  0.4858 -1.4287  0.3577
 6057TIP3   OH239729   5.730   6.250   2.380  0.3415 -0.4681 -0.3031
 6057TIP3    H139730   5.681   6.331   2.393 -0.6374 -0.3632 -3.6099
 6057TIP3    H239731   5.821   6.278   2.367 -0.1267  0.2972 -2.3062
 6058TIP3   OH239732   0.741   0.886   7.632  0.2598 -0.1996  0.0716
 6058TIP3    H139733   0.734   0.889   7.728 -0.1551 -1.7157  0.1144
 6058TIP3    H239734   0.651   0.876   7.602  0.4502 -0.3672 -0.4476
 6059TIP3   OH239735   1.807   5.154   1.754 -0.1945  0.9382 -0.1523
 6059TIP3    H139736   1.776   5.160   1.844 -1.8475  0.1031 -0.6317
 6059TIP3    H239737   1.733   5.184   1.701  0.1748 -0.1153 -1.3000
 6060TIP3   OH239738   1.873   5.080   7.769 -0.6955  0.4775  0.4237
 6060TIP3    H139739   1.892   5.115   7.856 -0.3195  0.1669  0.4706
 6060TIP3    H239740   1.865   4.985   7.782  1.2329  0.1948 -0.1695
 6061TIP3   OH239741   6.437   4.392   7.701  0.4938 -0.7469 -0.7287
 6061TIP3    H139742   6.505   4.457   7.684 -1.7592  1.5332 -1.6681
 6061TIP3    H239743   6.391   4.424   7.778  0.9678 -2.7302  0.4411
 6062TIP3   OH239744   1.479   4.769   7.839  0.2515 -0.9538  0.1124
 6062TIP3    H139745   1.473   4.862   7.818  1.3236 -1.1100 -0.9638
 6062TIP3    H239746   1.398   4.750   7.886  0.6273  0.8172  1.5732
 6063TIP3   OH239747   2.370   6.745   7.597 -0.5924 -0.5101 -0.5514
 6063TIP3    H139748   2.425   6.804   7.546 -0.8940  0.0913 -0.1870
 6063TIP3    H239749   2.308   6.802   7.642 -0.9191 -1.1072 -0.2272
 6064TIP3   OH239750   6.013   0.863   1.646 -0.4108  0.0787 -0.1937
 6064TIP3    H139751   6.022   0.944   1.597  2.5319 -0.6277 -1.0093
 6064TIP3    H239752   6.022   0.889   1.738 -0.4017  0.7826 -0.3917
 6065TIP3   OH239753   3.913   5.010   6.940 -0.2972 -0.3985 -0.3367
 6065TIP3    H139754   3.826   5.031   6.905 -1.0200  0.4975  1.8313
 6065TIP3    H239755   3.945   4.940   6.884 -2.3017 -0.5686 -1.3648
 6066TIP3   OH239756   0.006   5.263   6.686 -0.4607  0.2935 -0.0057
 6066TIP3    H139757  -0.017   5.171   6.672  2.6320 -0.8487  1.5755
 6066TIP3    H239758   0.075   5.280   6.621 -0.0043  1.0542  0.6674
 6067TIP3   OH239759   2.652   0.259   0.592 -0.0714  0.1480  0.3432
 6067TIP3    H139760   2.679   0.327   0.654 -0.1328 -0.4822  1.0726
 6067TIP3    H239761   2.575   0.296   0.548 -0.0988  0.5550  0.7263
 6068TIP3   OH239762   2.806   6.220   1.372  0.0503 -0.0683 -0.1519
 6068TIP3    H139763   2.731   6.241   1.428  0.8802 -0.2416  1.0543
 6068TIP3    H239764   2.767   6.181   1.294 -1.1506  0.4222  0.1745
 6069TIP3   OH239765   4.257   4.400   0.362  0.4816 -0.4256 -0.0000
 6069TIP3    H139766   4.207   4.428   0.438 -1.3106  0.6756 -1.4917
 6069TIP3    H239767   4.233   4.309   0.348 -1.0052  0.0249 -0.5538
 6070TIP3   OH239768   1.259   1.382   8.166 -0.2685  0.0710 -0.1222
 6070TIP3    H139769   1.268   1.415   8.255 -0.1779  1.7769 -0.7208
 6070TIP3    H239770   1.331   1.320   8.156 -0.2839 -0.1381  0.9832
 6071TIP3   OH239771   2.274   3.126   0.533  0.3582  0.3637 -0.5225
 6071TIP3    H139772   2.309   3.065   0.468 -0.8697  0.4686 -1.3179
 6071TIP3    H239773   2.204   3.172   0.487  1.5451  2.7435 -0.0923
 6072TIP3   OH239774   3.635   3.424   1.104  0.2166  0.2711 -0.6550
 6072TIP3    H139775   3.685   3.505   1.112  0.3562  0.1645 -0.4295
 6072TIP3    H239776   3.580   3.437   1.027 -1.3252  1.4323  0.5690
 6073TIP3   OH239777   5.499   0.051   8.437  0.4525  0.2735 -0.2923
 6073TIP3    H139778   5.595   0.051   8.445  0.5039  0.8784 -0.8102
 6073TIP3    H239779   5.483   0.047   8.342 -0.0637 -1.8418 -0.1712
 6074TIP3   OH239780   1.299   6.208   7.230 -0.3986 -0.0223  0.2361
 6074TIP3    H139781   1.386   6.180   7.259 -0.0873  1.3682  0.7079
 6074TIP3    H239782   1.240   6.175   7.297 -0.1288 -0.1794  0.4001
 6075TIP3   OH239783   6.317   6.524   8.333  0.6928  0.2447 -0.0498
 6075TIP3    H139784   6.351   6.507   8.245 -0.5350 -0.9062 -0.3368
 6075TIP3    H239785   6.222   6.524   8.323  0.5063 -0.5758  1.3810
 6076TIP3   OH239786   6.689   0.997   7.973  0.2822 -0.3310  0.2345
 6076TIP3    H139787   6.780   1.026   7.978  0.9265 -2.3191  0.6895
 6076TIP3    H239788   6.685   0.944   7.894  0.0676 -2.0176  1.3418
 6077TIP3   OH239789   1.962   1.372   0.967 -0.2239 -0.2456  0.4068
 6077TIP3    H139790   1.984   1.279   0.964 -0.3150 -0.2668 -2.5036
 6077TIP3    H239791   2.019   1.413   0.902 -0.8836  1.5921  0.9024
 6078TIP3   OH239792   2.649   6.640   8.519 -0.1263 -0.2502 -0.1324
 6078TIP3    H139793   2.640   6.575   8.450  1.6596  0.6834 -1.3311
 6078TIP3    H239794   2.737   6.627   8.553 -0.0148  1.0175  0.1268
 6079TIP3   OH239795   5.474   3.502   2.257 -0.6425 -0.0586  0.6070
 6079TIP3    H139796   5.524   3.574   2.296 -0.1456  0.4258 -0.8679
 6079TIP3    H239797   5.521   3.423   2.285  0.8811  0.3817 -0.5970
 6080TIP3   OH239798   3.036   3.449   1.100 -0.7767  0.0671 -0.2244
 6080TIP3    H139799   3.045   3.406   1.185  0.3032 -0.2732 -0.4883
 6080TIP3    H239800   3.021   3.541   1.120 -0.8733 -0.0685  0.3372
 6081TIP3   OH239801   3.095   6.000   7.683 -0.0171 -0.0674  1.0913
 6081TIP3    H139802   3.136   5.943   7.749  0.0290 -0.4078  0.7727
 6081TIP3    H239803   3.004   5.970   7.679  0.4440 -1.4383 -0.4559
 6082TIP3   OH239804   0.403   0.062   1.709  0.4154 -0.0857  0.0750
 6082TIP3    H139805   0.353   0.027   1.784 -0.0952 -0.9779 -0.6566
 6082TIP3    H239806   0.443  -0.015   1.669  1.4598  0.4962 -0.0242
 6083TIP3   OH239807   6.503   1.281   7.869  0.0603  0.1901  0.2223
 6083TIP3    H139808   6.515   1.203   7.815  1.7557  1.6401 -1.7052
 6083TIP3    H239809   6.580   1.282   7.927 -0.0941  0.2735  0.4250
 6084TIP3   OH239810   2.053   4.818   2.439 -0.1536  0.5157 -0.0237
 6084TIP3    H139811   2.081   4.872   2.365  0.0324 -1.4009 -1.4322
 6084TIP3    H239812   2.018   4.738   2.399 -2.7359  0.5763  1.8560
 6085TIP3   OH239813   1.639   3.571   7.009 -0.0863  0.0591  0.5049
 6085TIP3    H139814   1.690   3.646   7.040  0.3392 -0.6317  1.5282
 6085TIP3    H239815   1.548   3.595   7.024  0.0793  0.0776  1.5348
 6086TIP3   OH239816   6.215   4.025   8.611  0.2278  0.2438 -0.1623
 6086TIP3    H139817   6.183   4.009   8.522  0.7973 -1.1203 -0.1429
 6086TIP3    H239818   6.245   4.116   8.610 -0.1408  0.3665 -1.2443
 6087TIP3   OH239819   4.503   0.993   8.721 -0.3342 -0.5707  0.2396
 6087TIP3    H139820   4.442   1.049   8.768  0.1616 -0.2733  0.5407
 6087TIP3    H239821   4.525   1.043   8.642 -1.0791 -1.0198 -0.2663
 6088TIP3   OH239822   0.351   6.767   6.705 -0.2086  0.1824  0.4353
 6088TIP3    H139823   0.256   6.776   6.709 -0.2392  0.6667 -0.7972
 6088TIP3    H239824   0.379   6.834   6.642  0.8783 -0.3706  0.2981
 6089TIP3   OH239825   1.707   3.160   0.720 -0.7425 -0.1211 -0.2622
 6089TIP3    H139826   1.776   3.108   0.680 -0.8337  0.5915 -1.3886
 6089TIP3    H239827   1.626   3.125   0.683 -0.8367  0.4668 -0.6226
 6090TIP3   OH239828   4.996   2.597   0.859 -0.3089 -0.7159  0.2647
 6090TIP3    H139829   5.007   2.503   0.874  2.2209 -0.4552  0.4262
 6090TIP3    H239830   5.081   2.635   0.880 -0.6219  1.3633 -1.8039
 6091TIP3   OH239831   4.132   1.841   1.120 -0.2001  0.0895 -0.0262
 6091TIP3    H139832   4.152   1.901   1.048 -1.8900 -0.0151 -0.6383
 6091TIP3    H239833   4.207   1.848   1.179  0.2213  1.8458 -0.7055
 6092TIP3   OH239834   6.688   0.695   7.534  0.5979 -0.2798  0.5675
 6092TIP3    H139835   6.754   0.625   7.534  1.3089  0.3839  1.3629
 6092TIP3    H239836   6.608   0.652   7.502  1.1245 -1.3590  0.6625
 6093TIP3   OH239837   5.016   0.870   1.287  0.8763  0.4964  0.3910
 6093TIP3    H139838   5.070   0.923   1.347  1.5170 -0.1879  0.4353
 6093TIP3    H239839   5.001   0.928   1.212  2.8237  0.2865 -0.2322
 6094TIP3   OH239840   2.103   0.941   1.643  0.0847 -0.8287  0.0764
 6094TIP3    H139841   2.077   0.878   1.576  0.0354 -2.0527  1.1928
 6094TIP3    H239842   2.165   0.892   1.698  2.1727  0.9613 -0.5634
 6095TIP3   OH239843   4.237   5.497   0.535 -0.1017  0.4904 -0.0296
 6095TIP3    H139844   4.204   5.412   0.566 -0.6343  1.1028  1.1556
 6095TIP3    H239845   4.314   5.475   0.482  2.2218 -0.5826  3.4471
 6096TIP3   OH239846   6.398   1.993   0.141  0.4379  0.4480 -0.4405
 6096TIP3    H139847   6.313   1.982   0.098  0.9697 -1.8014 -1.0662
 6096TIP3    H239848   6.446   2.053   0.084  0.3875 -0.8539 -1.9268
 6097TIP3   OH239849   5.428   1.018   0.507  0.0431 -0.2063  0.0850
 6097TIP3    H139850   5.479   0.939   0.492 -0.5997 -0.2747 -2.0912
 6097TIP3    H239851   5.359   1.016   0.440 -2.0158  0.5629  2.0425
 6098TIP3   OH239852   2.442   2.856   0.633  0.9911 -0.2022 -0.6258
 6098TIP3    H139853   2.365   2.903   0.664 -0.7284 -2.2358 -1.5648
 6098TIP3    H239854   2.479   2.817   0.711  1.5113  1.3101 -0.0736
 6099TIP3   OH239855   2.975   4.687   0.293  0.3111 -0.2335  0.0202
 6099TIP3    H139856   3.069   4.670   0.293  0.3150 -0.2161 -0.2523
 6099TIP3    H239857   2.943   4.641   0.370  0.6021  0.0998  0.3451
 6100TIP3   OH239858   4.168   3.828   8.586  0.2657 -0.2982  0.1156
 6100TIP3    H139859   4.085   3.781   8.575  0.1349  0.3643 -2.0752
 6100TIP3    H239860   4.144   3.920   8.587  0.8814 -0.1359  0.5516
 6101TIP3   OH239861   6.514   1.281   1.912  0.8556  0.1877  0.2635
 6101TIP3    H139862   6.528   1.310   1.822  0.0844  0.5398  0.2463
 6101TIP3    H239863   6.453   1.208   1.905 -0.2873  1.0840  0.5823
 6102TIP3   OH239864   4.492   6.191   8.364 -0.1245 -0.1695  0.4987
 6102TIP3    H139865   4.439   6.259   8.321 -0.2990 -0.9131 -0.4877
 6102TIP3    H239866   4.509   6.227   8.452 -1.3479  0.5618  0.4721
 6103TIP3   OH239867   2.195   3.494   0.994 -0.8190 -0.2162 -0.1143
 6103TIP3    H139868   2.138   3.438   1.045 -0.4752 -1.3158 -0.9029
 6103TIP3    H239869   2.217   3.566   1.053 -1.1639 -0.9723  0.9636
 6104TIP3   OH239870   0.719   2.561   1.411 -0.0694  0.1656  0.2540
 6104TIP3    H139871   0.764   2.641   1.440 -1.7873  0.5589  2.0311
 6104TIP3    H239872   0.688   2.583   1.323 -0.3585  1.4118  0.6411
 6105TIP3   OH239873   2.481   0.230   1.628  0.3306  0.2662  0.4272
 6105TIP3    H139874   2.474   0.325   1.640  0.7506  0.2197  1.0794
 6105TIP3    H239875   2.479   0.194   1.717 -1.9142 -0.4981  0.1338
 6106TIP3   OH239876   0.616   1.958   0.889  0.2219 -0.3230 -0.3312
 6106TIP3    H139877   0.675   2.018   0.845  0.3784  0.2465  0.6341
 6106TIP3    H239878   0.532   1.971   0.846 -0.1046  1.6822  0.8138
 6107TIP3   OH239879   1.326   3.018   1.345 -0.7182 -0.3745  0.0052
 6107TIP3    H139880   1.248   3.023   1.289 -0.2740 -2.7936 -0.9507
 6107TIP3    H239881   1.400   3.029   1.285 -0.2380  1.1829  0.8065
 6108TIP3   OH239882   1.279   0.959   0.450  0.4845 -0.3887  0.0051
 6108TIP3    H139883   1.220   1.016   0.401  1.6583 -0.3717 -1.4812
 6108TIP3    H239884   1.269   0.986   0.541 -0.9003  0.4090 -0.3607
 6109TIP3   OH239885   1.906   1.512   1.204  0.7121  0.3376 -0.3365
 6109TIP3    H139886   1.998   1.528   1.224  0.6372 -1.6033  1.8331
 6109TIP3    H239887   1.905   1.426   1.161 -0.0901  0.4309 -0.5220
 6110TIP3   OH239888   3.501   6.347   8.350 -0.3862  0.4950  0.2552
 6110TIP3    H139889   3.506   6.266   8.299 -1.3230  0.3837  0.3108
 6110TIP3    H239890   3.408   6.370   8.349 -0.6230 -0.0622  2.7780
 6111TIP3   OH239891   3.617   6.180   6.927  0.2541  0.1520 -0.4149
 6111TIP3    H139892   3.625   6.250   6.992 -3.3901  0.2339  0.1279
 6111TIP3    H239893   3.683   6.116   6.954  0.4840  1.2641  1.9231
 6112TIP3   OH239894   4.741   0.097   7.284 -0.1851  0.0462  0.0482
 6112TIP3    H139895   4.811   0.056   7.232 -0.4641  0.1372 -0.4092
 6112TIP3    H239896   4.714   0.172   7.230  0.1812  0.7149  0.7756
 6113TIP3   OH239897   6.088   2.707   7.241 -0.5363 -0.0143 -0.6460
 6113TIP3    H139898   6.023   2.672   7.302 -0.9986  1.0847 -0.4781
 6113TIP3    H239899   6.172   2.693   7.284 -0.6024 -1.7551 -1.0096
 6114TIP3   OH239900   6.491   1.350   1.067 -0.7370  0.7556 -0.8483
 6114TIP3    H139901   6.523   1.381   1.152  0.7989 -0.8896 -0.7669
 6114TIP3    H239902   6.396   1.344   1.078 -0.8530  3.0257 -0.1284
 6115TIP3   OH239903   3.236   1.928   0.585  0.0920 -0.0464  0.6925
 6115TIP3    H139904   3.170   1.863   0.608 -0.9188 -0.0654 -1.9711
 6115TIP3    H239905   3.233   1.991   0.658 -2.1041 -0.6108  1.1763
 6116TIP3   OH239906   4.260   2.669   1.066  0.4649 -0.0420 -0.3265
 6116TIP3    H139907   4.202   2.594   1.060 -0.2794  0.4036  0.9135
 6116TIP3    H239908   4.316   2.650   1.141  0.8294  0.2693 -0.5171
 6117TIP3   OH239909   3.511   6.627   1.132 -0.3039  0.3017  0.8968
 6117TIP3    H139910   3.423   6.601   1.160 -0.4266  0.2232  0.4477
 6117TIP3    H239911   3.508   6.722   1.127 -0.6637  0.2526 -0.0661
 6118TIP3   OH239912   6.668   3.983   8.321 -0.1538  0.0007 -0.6292
 6118TIP3    H139913   6.573   3.989   8.332 -0.0646  0.4520 -0.1069
 6118TIP3    H239914   6.684   4.019   8.233 -0.4302  0.2153 -0.5929
 6119TIP3   OH239915   4.046   4.020   1.925 -0.1229  0.0905  0.0289
 6119TIP3    H139916   4.026   4.111   1.946 -0.6450 -0.2988  1.2782
 6119TIP3    H239917   4.072   3.981   2.008 -0.0390 -0.9429 -0.4685
 6120TIP3   OH239918   4.855   5.820   7.152  0.7239 -0.8266 -0.3876
 6120TIP3    H139919   4.875   5.783   7.066  0.0815 -0.7807 -0.5610
 6120TIP3    H239920   4.798   5.895   7.134  1.4831 -0.1432  0.0041
 6121TIP3   OH239921   4.877   1.390   1.023 -0.0580 -0.3926  0.2526
 6121TIP3    H139922   4.837   1.450   1.087 -1.0558 -0.2855 -0.4506
 6121TIP3    H239923   4.916   1.321   1.077  1.9346  1.3075  1.1443
 6122TIP3   OH239924   1.436   0.710   7.043 -0.1945  0.2334  0.3488
 6122TIP3    H139925   1.513   0.683   7.092  0.6809  1.0948 -0.5016
 6122TIP3    H239926   1.471   0.741   6.959 -1.4446  0.8446  0.0347
 6123TIP3   OH239927   0.237   3.433   7.762  0.0882 -0.5556  0.0309
 6123TIP3    H139928   0.267   3.522   7.780  0.5057 -1.2416  3.2293
 6123TIP3    H239929   0.142   3.440   7.757 -0.2015 -0.3019  3.6847
 6124TIP3   OH239930   0.620   6.652   6.774 -0.2083 -0.4784  0.1192
 6124TIP3    H139931   0.668   6.660   6.692 -0.4773 -2.8964 -0.3475
 6124TIP3    H239932   0.535   6.693   6.756  0.2858  0.4058 -0.2730
 6125TIP3   OH239933   0.836   0.540   8.479 -0.2467  0.2640  0.2749
 6125TIP3    H139934   0.767   0.606   8.476 -0.9273 -0.4604 -1.4953
 6125TIP3    H239935   0.790   0.456   8.471  0.7634 -0.3021  0.1175
 6126TIP3   OH239936   2.427   2.089   6.495 -0.2204  0.2543  0.0932
 6126TIP3    H139937   2.335   2.103   6.516 -0.8876 -1.4368 -1.4415
 6126TIP3    H239938   2.427   2.019   6.430  2.2494 -0.9584  1.2387
 6127TIP3   OH239939   6.116   2.842   2.118  0.3109  0.0352  0.4119
 6127TIP3    H139940   6.104   2.747   2.129 -1.4242  0.2286  0.3889
 6127TIP3    H239941   6.159   2.870   2.199 -0.7027 -0.5223  1.1650
 6128TIP3   OH239942   5.633   3.787   1.513  0.3495  0.6608 -0.4619
 6128TIP3    H139943   5.620   3.692   1.515 -1.7491  0.9059 -0.0742
 6128TIP3    H239944   5.573   3.820   1.580  1.4410  2.2443 -0.2204
 6129TIP3   OH239945   4.335   3.889   1.974  0.3595 -0.2821  0.4954
 6129TIP3    H139946   4.420   3.928   1.994 -0.3427  0.8231  1.3788
 6129TIP3    H239947   4.277   3.918   2.044 -0.7857 -0.9293 -0.1481
 6130TIP3   OH239948   4.609   2.113   0.487  0.4637 -0.6652 -0.1838
 6130TIP3    H139949   4.563   2.192   0.515  0.3318 -0.7612 -0.1279
 6130TIP3    H239950   4.645   2.135   0.401  0.8729 -0.3660  0.0552
 6131TIP3   OH239951   1.966   2.233   1.485  0.3133  0.3718 -0.1596
 6131TIP3    H139952   1.968   2.147   1.527  0.8963  0.6233  0.3499
 6131TIP3    H239953   1.951   2.215   1.393 -0.8235 -0.2075  0.1233
 6132TIP3   OH239954   6.553   1.649   8.710  0.4960 -0.4931  0.0944
 6132TIP3    H139955   6.474   1.599   8.730 -0.4994  1.7212  2.2674
 6132TIP3    H239956   6.601   1.654   8.792  1.3098  0.8134 -0.4163
 6133TIP3   OH239957   2.996   3.170   7.642 -0.6224  0.2144  0.7705
 6133TIP3    H139958   3.045   3.102   7.595  0.1882  1.7731 -0.7479
 6133TIP3    H239959   3.047   3.186   7.722  0.5883  0.7646 -0.0796
 6134TIP3   OH239960   1.452   2.941   1.739 -0.0840  0.2872  0.2985
 6134TIP3    H139961   1.477   3.025   1.700  2.6366 -0.2652  0.6486
 6134TIP3    H239962   1.494   2.942   1.826 -1.4514 -0.7565  1.0054
 6135TIP3   OH239963   5.927   6.429   6.684 -0.3139  0.1134  0.0793
 6135TIP3    H139964   5.906   6.348   6.731 -2.1208 -1.0135 -2.4377
 6135TIP3    H239965   5.975   6.400   6.607 -1.7511  1.2964 -1.3193
 6136TIP3   OH239966   6.593   0.873   6.426 -0.5363  0.3905 -0.1600
 6136TIP3    H139967   6.607   0.912   6.339  3.1224  0.0072  0.1080
 6136TIP3    H239968   6.676   0.886   6.472 -1.6813 -1.1917  2.6059
 6137TIP3   OH239969   2.393   3.787   0.911 -0.0701 -0.6611 -0.5331
 6137TIP3    H139970   2.465   3.847   0.934 -0.1167 -1.6077  2.4079
 6137TIP3    H239971   2.436   3.703   0.897 -0.3302 -0.6060 -1.7787
 6138TIP3   OH239972   3.064   2.430   1.217 -0.6163 -0.1506  0.6924
 6138TIP3    H139973   3.124   2.365   1.182 -1.5386  0.4996 -2.4407
 6138TIP3    H239974   3.008   2.454   1.142 -2.9396  1.2983  2.7166
 6139TIP3   OH239975   5.096   5.497   8.696 -0.1259 -0.0707 -0.5117
 6139TIP3    H139976   5.117   5.556   8.623  0.3233 -0.0951 -0.4050
 6139TIP3    H239977   5.032   5.436   8.660  0.6743 -0.5744 -1.1193
 6140TIP3   OH239978   1.370   3.254   7.027  0.3505 -0.2187 -0.4628
 6140TIP3    H139979   1.283   3.288   7.005 -0.0462 -0.0134  1.2723
 6140TIP3    H239980   1.429   3.295   6.963 -0.5398  1.3202 -0.3390
 6141TIP3   OH239981   5.918   6.472   1.084  0.0775 -0.1154 -0.2253
 6141TIP3    H139982   5.951   6.415   1.014 -0.3235 -0.2703 -0.2926
 6141TIP3    H239983   5.863   6.536   1.038 -0.8960 -0.7450  0.0343
 6142TIP3   OH239984   3.684   2.779   1.055 -0.2575  0.3471 -0.6834
 6142TIP3    H139985   3.664   2.852   0.997  0.2646 -0.0834 -1.4200
 6142TIP3    H239986   3.640   2.704   1.015  1.0014 -0.1711 -1.1319
 6143TIP3   OH239987   5.486   6.790   1.388 -0.1038  0.0386  0.2265
 6143TIP3    H139988   5.524   6.842   1.318 -1.0694  0.0034 -0.3476
 6143TIP3    H239989   5.468   6.705   1.348  3.0844 -1.4376  1.6015
 6144TIP3   OH239990   6.456   1.000   6.190  0.6290 -0.4382 -0.7760
 6144TIP3    H139991   6.372   1.006   6.145  0.4868 -1.4134 -0.6685
 6144TIP3    H239992   6.441   1.043   6.275  0.1359 -0.8894 -0.6277
 6145TIP3   OH239993   4.822   3.207   7.553 -0.2457  0.0401 -0.4878
 6145TIP3    H139994   4.741   3.252   7.531  0.0068  0.5838 -0.3025
 6145TIP3    H239995   4.888   3.276   7.558  0.2982 -0.4402 -0.9740
 6146TIP3   OH239996   1.803   5.291   7.980 -0.3366 -0.5918 -0.4794
 6146TIP3    H139997   1.858   5.360   8.016 -1.2660  0.4473 -0.9856
 6146TIP3    H239998   1.760   5.331   7.904 -2.3149 -1.1278  0.2963
 6147TIP3   OH239999   6.317   2.397   1.076  0.3656 -0.3451 -0.2460
 6147TIP3    H140000   6.327   2.303   1.060 -1.4719 -0.3933 -1.2956
 6147TIP3    H240001   6.229   2.406   1.113 -0.2576  1.1418 -1.9634
 6148TIP3   OH240002   5.918   3.447   1.109  0.1551  0.6024 -0.3663
 6148TIP3    H140003   5.869   3.369   1.084 -0.9165  0.9982  0.4119
 6148TIP3    H240004   5.999   3.413   1.149 -0.3064 -0.1152 -0.0189
 6149TIP3   OH240005   1.645   0.149   0.371 -0.0903 -0.0121  0.0087
 6149TIP3    H140006   1.658   0.061   0.338 -0.5588  0.1110 -0.5222
 6149TIP3    H240007   1.581   0.139   0.443  1.1973 -0.3246  1.1458
 6150TIP3   OH240008   0.597   5.735   1.012  0.3241 -0.1520  0.1623
 6150TIP3    H140009   0.596   5.731   0.917  1.6084 -1.7961  0.1622
 6150TIP3    H240010   0.516   5.780   1.036 -0.6244 -0.8208 -1.6504
 6151TIP3   OH240011   1.745   2.009   1.648 -0.1135 -0.2218 -0.1114
 6151TIP3    H140012   1.790   2.079   1.695 -0.5369 -1.4610  2.3306
 6151TIP3    H240013   1.700   2.053   1.576 -0.6590  2.0656  1.5109
 6152TIP3   OH240014   0.868   3.427   0.495 -0.9652 -0.0566  0.3905
 6152TIP3    H140015   0.873   3.523   0.485 -2.5384  0.0301  0.1789
 6152TIP3    H240016   0.959   3.400   0.505 -0.5180  1.5211  1.0181
 6153TIP3   OH240017   6.530   0.238   8.099  0.1471  0.1012 -0.3873
 6153TIP3    H140018   6.607   0.249   8.155  0.4516  2.1038 -1.1359
 6153TIP3    H240019   6.541   0.301   8.029 -1.7522 -0.1948 -1.0205
 6154TIP3   OH240020   3.898   2.442   1.241 -0.0913  0.1997  0.0680
 6154TIP3    H140021   3.849   2.485   1.171 -1.0825 -0.0428  0.5797
 6154TIP3    H240022   3.891   2.502   1.315 -1.0030 -0.5524  0.6187
 6155TIP3   OH240023   1.462   0.457   8.449 -0.0503  0.3821 -0.1329
 6155TIP3    H140024   1.404   0.381   8.442  0.3654 -0.5128  3.7257
 6155TIP3    H240025   1.550   0.423   8.432 -0.1118  0.5268 -0.7337
 6156TIP3   OH240026   1.443   6.221   0.751  0.2399  0.4350  0.3984
 6156TIP3    H140027   1.395   6.207   0.669 -0.2522 -0.4367  0.8268
 6156TIP3    H240028   1.524   6.171   0.741 -0.7718 -1.4789  1.2636
 6157TIP3   OH240029   4.305   5.995   0.406  0.2312 -0.5119  0.3168
 6157TIP3    H140030   4.304   5.977   0.500 -2.2325 -2.0012  0.0738
 6157TIP3    H240031   4.252   6.075   0.396  0.3998 -0.4168  0.1704
 6158TIP3   OH240032   4.140   5.243   1.154  0.6682  0.5091 -0.1794
 6158TIP3    H140033   4.067   5.243   1.094  1.6676  0.1765 -1.4330
 6158TIP3    H240034   4.172   5.152   1.154  1.4440  0.7729 -0.1271
 6159TIP3   OH240035   6.830   0.036   2.017  0.0225 -0.0249  0.1190
 6159TIP3    H140036   6.909   0.073   2.057 -0.1631  0.1310  0.3434
 6159TIP3    H240037   6.791  -0.017   2.086 -0.1752  0.0574  0.0707
 6160TIP3   OH240038   0.023   4.629   7.081 -0.1530  0.2570 -0.7221
 6160TIP3    H140039   0.008   4.601   6.991  0.9227  1.0931 -1.1898
 6160TIP3    H240040   0.118   4.623   7.093 -0.2779  0.1898  0.3526
 6161TIP3   OH240041   0.132   5.929   8.202 -0.2464 -0.2766 -0.2064
 6161TIP3    H140042   0.117   5.835   8.198  1.0103 -0.5660  1.0198
 6161TIP3    H240043   0.152   5.946   8.294  0.4233  1.0442 -0.5687
 6162TIP3   OH240044   0.797   3.913   0.033 -0.3606 -0.1670 -0.1025
 6162TIP3    H140045   0.756   3.832   0.062  0.5649  0.2394  2.6487
 6162TIP3    H240046   0.864   3.885  -0.029 -0.1179 -1.5149  0.7336
 6163TIP3   OH240047   4.599   6.174   2.201 -0.0859 -0.2634 -0.2276
 6163TIP3    H140048   4.610   6.107   2.132 -0.0467  0.2428 -0.7189
 6163TIP3    H240049   4.684   6.178   2.244  0.2283  0.2152 -0.8837
 6164TIP3   OH240050   5.061   1.428   0.127  0.4200 -0.1927 -0.0693
 6164TIP3    H140051   4.993   1.429   0.193  0.6539  0.8714  0.1753
 6164TIP3    H240052   5.069   1.519   0.098  1.4460 -0.3610 -0.3857
 6165TIP3   OH240053   1.930   0.947   0.799 -0.1283 -0.4094  0.1348
 6165TIP3    H140054   1.962   1.020   0.852 -0.6841  0.5625 -0.8043
 6165TIP3    H240055   1.928   0.983   0.710  0.5535 -1.9056 -0.5044
 6166TIP3   OH240056   4.111   6.139   8.508  0.5601  0.3832 -0.9761
 6166TIP3    H140057   4.042   6.167   8.448  0.8242  1.4997 -0.7903
 6166TIP3    H240058   4.068   6.134   8.593  1.3485  4.5714 -0.1374
 6167TIP3   OH240059   6.117   1.826   7.929  0.8352  0.0880 -0.1470
 6167TIP3    H140060   6.131   1.888   8.001  0.2748 -0.4791  0.4579
 6167TIP3    H240061   6.195   1.770   7.930  0.6492 -0.1695  0.2784
 6168TIP3   OH240062   2.022   6.839   7.431 -0.3550  0.0563 -0.7960
 6168TIP3    H140063   2.096   6.890   7.466 -0.1531 -1.1204  0.6196
 6168TIP3    H240064   1.962   6.904   7.395 -1.1657  1.6054  2.8972
 6169TIP3   OH240065   0.505   0.100   6.514  0.0171  1.0087 -0.2719
 6169TIP3    H140066   0.595   0.102   6.547  0.1229  0.8800 -0.5453
 6169TIP3    H240067   0.514   0.069   6.424 -0.5578 -1.9909  0.5824
 6170TIP3   OH240068   4.390   6.312   1.280 -0.2596 -0.2031 -0.3819
 6170TIP3    H140069   4.421   6.227   1.251 -0.7372 -0.2463 -0.7900
 6170TIP3    H240070   4.296   6.300   1.293 -0.5255  0.5228 -1.4768
 6171TIP3   OH240071   0.802   5.896   0.497  0.1899 -0.8887  0.3914
 6171TIP3    H140072   0.839   5.926   0.414 -1.6448 -1.2652 -0.6372
 6171TIP3    H240073   0.870   5.842   0.536  0.4747 -2.2398 -1.7939
 6172TIP3   OH240074   1.874   4.964   1.106 -0.1345  0.3625 -0.1514
 6172TIP3    H140075   1.781   4.977   1.092 -0.1635 -1.2849 -1.7473
 6172TIP3    H240076   1.913   4.972   1.019  1.2399  0.9945  0.4825
 6173TIP3   OH240077   6.623   4.637   0.053  0.2386  0.1436  0.0506
 6173TIP3    H140078   6.537   4.659   0.090 -0.2551 -1.0955 -0.2872
 6173TIP3    H240079   6.686   4.681   0.110 -0.5754  0.1752  0.9585
 6174TIP3   OH240080   1.688   1.608   8.322  0.2670  0.0861 -0.0518
 6174TIP3    H140081   1.717   1.652   8.242  1.7723 -0.1135  0.3442
 6174TIP3    H240082   1.763   1.614   8.381 -1.0602  0.8450  1.6191
 6175TIP3   OH240083   0.323   0.501   1.371  0.2242 -0.3287  0.2140
 6175TIP3    H140084   0.340   0.421   1.422  0.2064  0.0784  0.8656
 6175TIP3    H240085   0.392   0.502   1.305  0.2655 -0.8475  0.2433
 6176TIP3   OH240086   4.085   2.219   1.314  0.6254 -0.2319  0.0881
 6176TIP3    H140087   4.030   2.297   1.305  1.3293  0.4152  1.0680
 6176TIP3    H240088   4.030   2.155   1.359  0.0052 -0.3607 -0.8176
 6177TIP3   OH240089   3.900   6.003   2.227 -0.4773 -0.3437  0.8136
 6177TIP3    H140090   3.909   6.030   2.136 -0.2784 -0.6365  0.7455
 6177TIP3    H240091   3.843   6.069   2.266  0.8180  0.7431  0.9032
 6178TIP3   OH240092   5.850   3.005   7.520 -0.0486  0.0444  0.0594
 6178TIP3    H140093   5.799   2.934   7.560 -0.0027  0.2546  0.4982
 6178TIP3    H240094   5.930   3.008   7.572  0.3249 -0.1426 -0.4942
 6179TIP3   OH240095   0.942   1.641   1.907 -0.3765  0.2123  0.3940
 6179TIP3    H140096   0.862   1.638   1.854 -0.5696 -0.3609  0.7151
 6179TIP3    H240097   1.012   1.624   1.844 -0.4512  1.1296  0.0306
 6180TIP3   OH240098   5.494   4.914   1.494 -0.4128 -0.1872 -0.8195
 6180TIP3    H140099   5.495   4.992   1.549 -1.8744 -0.5363 -0.2444
 6180TIP3    H240100   5.543   4.938   1.416  2.0565  0.2190  0.7400
 6181TIP3   OH240101   1.382   5.053   1.650  0.0788  0.3743  1.2115
 6181TIP3    H140102   1.316   5.065   1.718 -1.5686 -2.6208  0.3640
 6181TIP3    H240103   1.456   5.013   1.695 -0.2710  0.1364  1.5906
 6182TIP3   OH240104   3.310   5.681   1.940 -0.4674 -0.9364 -0.4414
 6182TIP3    H140105   3.370   5.755   1.948 -0.3999 -1.0117 -0.2577
 6182TIP3    H240106   3.313   5.659   1.846 -0.8053 -0.4473 -0.5684
 6183TIP3   OH240107   1.680   1.792   6.875  0.0104  0.4140 -0.0867
 6183TIP3    H140108   1.686   1.795   6.780  0.8439 -2.2803 -0.1959
 6183TIP3    H240109   1.715   1.876   6.904  1.5144  0.5435 -2.1010
 6184TIP3   OH240110   4.504   4.365   6.652 -0.3866 -0.0496  0.1613
 6184TIP3    H140111   4.454   4.438   6.614 -1.2451 -0.9695 -0.5410
 6184TIP3    H240112   4.442   4.323   6.712  0.1480 -0.1271  0.6670
 6185TIP3   OH240113   0.428   4.559   0.528 -0.2306  0.1796 -0.0551
 6185TIP3    H140114   0.460   4.565   0.618  0.7612 -0.0718 -0.3769
 6185TIP3    H240115   0.333   4.567   0.535 -0.4276 -2.4660  1.2723
 6186TIP3   OH240116   1.481   0.561   0.710 -0.3711 -0.7060 -0.1740
 6186TIP3    H140117   1.569   0.582   0.678 -0.6055 -0.0730 -0.4197
 6186TIP3    H240118   1.466   0.623   0.781 -1.3493  0.4679 -1.3560
 6187TIP3   OH240119   1.911   2.102   8.128 -0.5706 -0.3683 -0.1684
 6187TIP3    H140120   1.937   2.193   8.114 -1.0600 -0.2841 -0.5528
 6187TIP3    H240121   1.884   2.071   8.042 -0.8424 -0.7395  0.0459
 6188TIP3   OH240122   6.460   0.931   7.450 -0.1361  0.5584 -0.3464
 6188TIP3    H140123   6.389   0.937   7.514  0.5917  2.1420  0.3582
 6188TIP3    H240124   6.466   0.838   7.430 -0.3206 -0.0015  1.9564
 6189TIP3   OH240125   4.865   0.271   7.867  0.0532  0.1451  0.1959
 6189TIP3    H140126   4.797   0.246   7.929 -0.7312 -0.0674 -0.7280
 6189TIP3    H240127   4.917   0.191   7.855  0.0810  0.1304  0.4106
 6190TIP3   OH240128   3.296   3.956   6.969 -0.1335  0.3795 -0.0123
 6190TIP3    H140129   3.286   3.926   6.878 -2.6198 -0.6063  0.4840
 6190TIP3    H240130   3.378   3.917   6.999 -0.0027 -0.5015 -1.4224
 6191TIP3   OH240131   0.213   5.413   6.299  0.0535  0.7460 -0.4798
 6191TIP3    H140132   0.193   5.393   6.391 -0.6297  0.3699 -0.7026
 6191TIP3    H240133   0.155   5.487   6.278 -0.8282 -0.0672 -1.0020
 6192TIP3   OH240134   1.950   4.843   0.214  0.3128 -0.3355 -0.1068
 6192TIP3    H140135   1.916   4.760   0.248 -1.2026  0.4569  0.4570
 6192TIP3    H240136   2.018   4.818   0.152 -0.4062 -2.0065 -0.2820
 6193TIP3   OH240137   5.327   0.052   7.751 -0.1636 -0.4682  0.5598
 6193TIP3    H140138   5.370   0.019   7.672 -0.9212  0.1249 -0.1199
 6193TIP3    H240139   5.393   0.043   7.820  0.9973  0.2927 -0.4157
 6194TIP3   OH240140   1.864   0.434   7.191  0.3027  0.2889 -0.2826
 6194TIP3    H140141   1.938   0.493   7.182  1.4349 -0.9830  0.2885
 6194TIP3    H240142   1.849   0.401   7.102  2.1722 -1.4182 -0.0390
 6195TIP3   OH240143   3.081   1.182   7.764  0.3236 -0.2388 -0.2052
 6195TIP3    H140144   3.022   1.241   7.811  1.2360 -0.0874  0.7946
 6195TIP3    H240145   3.136   1.143   7.832 -0.1875 -2.1973 -0.8417
 6196TIP3   OH240146   0.436   1.718   1.354  0.1056  0.3598  0.4557
 6196TIP3    H140147   0.445   1.643   1.295 -0.7736  1.1014 -0.6547
 6196TIP3    H240148   0.367   1.772   1.316  0.1636  1.3523  1.6595
 6197TIP3   OH240149   2.047   3.241   0.396 -0.1052  0.0235  0.1866
 6197TIP3    H140150   1.983   3.174   0.374 -0.5588  0.8084 -1.0286
 6197TIP3    H240151   1.997   3.307   0.444  0.2292 -0.2535  0.9321
 6198TIP3   OH240152   3.554   1.279   8.514 -0.1228  0.3851  0.2188
 6198TIP3    H140153   3.465   1.307   8.497 -1.3556 -3.2086 -0.0911
 6198TIP3    H240154   3.576   1.223   8.439  1.3959 -0.8446  1.5175
 6199TIP3   OH240155   0.001   2.072   8.157 -0.7221  0.0598 -0.0589
 6199TIP3    H140156  -0.091   2.046   8.150 -0.6134  0.0274 -1.9159
 6199TIP3    H240157   0.048   1.992   8.177 -1.0797  0.0572  0.7923
 6200TIP3   OH240158   5.155   4.146   2.162 -0.2175 -0.2387 -0.0888
 6200TIP3    H140159   5.187   4.156   2.252  1.6401 -1.1124 -0.6154
 6200TIP3    H240160   5.072   4.099   2.172  1.1131 -2.5328  1.0930
 6201TIP3   OH240161   3.358   6.697   0.811 -0.2860  0.1204 -0.1886
 6201TIP3    H140162   3.323   6.771   0.761  0.9830  0.2353 -0.9561
 6201TIP3    H240163   3.438   6.731   0.851  0.6664 -0.9821 -1.0698
 6202TIP3   OH240164   5.524   2.005   8.684  0.3374  0.5897 -0.0322
 6202TIP3    H140165   5.564   2.053   8.611  0.1111 -0.1765 -0.6718
 6202TIP3    H240166   5.471   2.070   8.730 -1.0910  0.6775 -1.7004
 6203TIP3   OH240167   2.116   5.615   1.259 -0.9921 -0.0922  0.2199
 6203TIP3    H140168   2.191   5.628   1.201 -0.3314  1.6087  1.3799
 6203TIP3    H240169   2.132   5.530   1.300 -0.3761 -0.3347 -0.5014
 6204TIP3   OH240170   1.705   2.299   2.652 -0.1795  0.0429  0.3937
 6204TIP3    H140171   1.677   2.217   2.694 -0.1285 -0.6925 -0.9580
 6204TIP3    H240172   1.646   2.365   2.687 -0.9676 -0.7745  0.6535
 6205TIP3   OH240173   0.347   0.368   0.047  0.3758 -0.6073 -0.1375
 6205TIP3    H140174   0.314   0.333  -0.035 -0.6581  0.6689 -0.2807
 6205TIP3    H240175   0.440   0.344   0.047  0.1972 -1.3853 -1.2508
 6206TIP3   OH240176   3.369   2.964   0.502 -0.2325  0.6585  0.4619
 6206TIP3    H140177   3.430   3.008   0.562 -0.3467  1.4015  0.0461
 6206TIP3    H240178   3.357   3.026   0.430 -1.7602  0.6909  0.7098
 6207TIP3   OH240179   4.284   3.348   1.124  0.3554 -0.4302  0.1326
 6207TIP3    H140180   4.238   3.312   1.200  0.4908 -1.0694 -0.0851
 6207TIP3    H240181   4.214   3.384   1.068  0.3941  2.7494  1.8834
 6208TIP3   OH240182   1.999   2.558   8.688  0.1745 -0.2245 -0.0825
 6208TIP3    H140183   1.939   2.550   8.614  0.9557 -2.0871 -0.5848
 6208TIP3    H240184   2.013   2.467   8.716  1.7374  0.2782  0.8411
 6209TIP3   OH240185   0.170   1.455   7.370 -0.2421 -0.2663 -0.1778
 6209TIP3    H140186   0.080   1.433   7.345 -0.1328  0.4791 -1.3292
 6209TIP3    H240187   0.224   1.407   7.308  0.2680 -2.0948  1.5847
 6210TIP3   OH240188   1.122   2.454   2.371 -0.2517  0.4031 -0.6973
 6210TIP3    H140189   1.100   2.365   2.344 -0.7634 -0.3150  1.8575
 6210TIP3    H240190   1.217   2.452   2.384 -0.5152 -0.4684  1.4721
 6211TIP3   OH240191   3.454   3.939   7.612 -0.0377  0.2956  0.0140
 6211TIP3    H140192   3.399   3.909   7.540 -1.1493  0.4650  0.7763
 6211TIP3    H240193   3.518   3.997   7.570 -2.1455  2.3520 -0.5592
 6212TIP3   OH240194   3.280   5.009   0.552  0.1063 -0.4638 -0.5206
 6212TIP3    H140195   3.194   5.047   0.571  0.2980 -0.0110 -0.5551
 6212TIP3    H240196   3.332   5.027   0.631  0.6952  0.8046 -1.1600
 6213TIP3   OH240197   1.004   1.019   0.593  0.3605  0.1613  0.1954
 6213TIP3    H140198   0.955   0.960   0.651  1.9804  1.2695  2.8563
 6213TIP3    H240199   0.942   1.089   0.572  0.4437  1.1118  2.8219
 6214TIP3   OH240200   1.866   2.851   7.317  0.1911  0.2694  0.3050
 6214TIP3    H140201   1.788   2.797   7.304  0.5190 -0.5548  1.5668
 6214TIP3    H240202   1.836   2.941   7.304 -0.9341 -0.0492  0.6153
 6215TIP3   OH240203   6.311   6.448   6.996  0.2958  0.2790 -0.2968
 6215TIP3    H140204   6.277   6.379   6.938  1.6511 -0.7190  0.0382
 6215TIP3    H240205   6.262   6.436   7.078  0.4067 -0.1925 -0.2929
 6216TIP3   OH240206   4.744   2.620   1.827  0.4296 -0.0032  0.0462
 6216TIP3    H140207   4.836   2.644   1.836  0.4638  0.5782 -1.4924
 6216TIP3    H240208   4.739   2.577   1.742 -0.6681 -0.2971  0.2499
 6217TIP3   OH240209   6.662   0.031   0.164  0.1877 -0.0963 -0.6566
 6217TIP3    H140210   6.718   0.061   0.236  0.1211  2.7272 -1.6844
 6217TIP3    H240211   6.724   0.000   0.098  0.4456  0.9248 -0.9030
 6218TIP3   OH240212   6.046   6.701   1.092 -0.1296  0.3707 -0.3160
 6218TIP3    H140213   6.035   6.614   1.131 -0.3784  0.3657 -0.3968
 6218TIP3    H240214   6.085   6.754   1.162 -2.7459  1.0062  0.7870
 6219TIP3   OH240215   1.534   5.342   2.534  0.6159  0.0187  0.2554
 6219TIP3    H140216   1.543   5.256   2.574  3.2861  1.0311  2.1842
 6219TIP3    H240217   1.616   5.387   2.556  0.0458  2.4736 -2.1287
 6220TIP3   OH240218   1.733   0.147   8.590  0.5326 -0.0168  0.8219
 6220TIP3    H140219   1.794   0.170   8.660  1.0611 -0.3653  0.4798
 6220TIP3    H240220   1.781   0.084   8.536  0.5266  0.9973 -0.4322
 6221TIP3   OH240221   6.592   2.705   2.293  0.0789  0.0521  0.2289
 6221TIP3    H140222   6.620   2.795   2.278  0.1594 -0.0007  0.0511
 6221TIP3    H240223   6.612   2.688   2.385 -0.6338  0.4618  0.4732
 6222TIP3   OH240224   4.409   5.831   0.071 -0.4133  0.1942  0.3914
 6222TIP3    H140225   4.495   5.852   0.035 -0.7467  0.2695 -0.3844
 6222TIP3    H240226   4.354   5.817  -0.006 -1.4036  1.4058  0.8426
 6223TIP3   OH240227   1.828   3.085   8.236  0.1855 -0.3510  0.2429
 6223TIP3    H140228   1.738   3.102   8.264 -0.1545 -0.8716 -0.5086
 6223TIP3    H240229   1.819   3.027   8.161  1.1915 -1.1285  0.7059
 6224TIP3   OH240230   2.807   4.462   7.779 -0.0314 -0.3548  0.1095
 6224TIP3    H140231   2.796   4.370   7.801 -3.5547  0.1097  1.0158
 6224TIP3    H240232   2.762   4.472   7.694  0.0806  0.5671  0.1467
 6225TIP3   OH240233   4.590   1.909   0.940 -0.1068  0.7257  0.3034
 6225TIP3    H140234   4.664   1.850   0.923 -0.6014  0.0488  0.4285
 6225TIP3    H240235   4.571   1.897   1.033 -0.2980  0.9824  0.2983
 6226TIP3   OH240236   6.274   0.940   8.120  0.1662 -0.0021  0.1015
 6226TIP3    H140237   6.312   0.955   8.206  2.4961  1.0178 -1.0121
 6226TIP3    H240238   6.261   0.845   8.116  0.5816 -0.1323  1.3454
 6227TIP3   OH240239   2.808   4.190   7.725  0.4874  0.3412 -0.1677
 6227TIP3    H140240   2.902   4.175   7.726  0.5530  0.5926 -1.1975
 6227TIP3    H240241   2.781   4.183   7.817  1.4607  0.0164  0.1035
 6228TIP3   OH240242   5.382   1.623   1.449 -0.1986  0.1821  0.3886
 6228TIP3    H140243   5.395   1.659   1.537 -1.1573  0.5438  0.3964
 6228TIP3    H240244   5.342   1.694   1.399  1.1781  0.2882 -0.6191
 6229TIP3   OH240245   0.910   6.350   7.551 -0.2385 -1.0581 -0.7451
 6229TIP3    H140246   0.817   6.371   7.555 -0.5149 -2.3481  2.1757
 6229TIP3    H240247   0.915   6.255   7.562  1.4188 -0.8832  0.4990
 6230TIP3   OH240248   4.076   6.430   6.789 -0.1506 -0.0887  0.7150
 6230TIP3    H140249   4.003   6.388   6.742  0.4547  0.0137 -0.3601
 6230TIP3    H240250   4.132   6.357   6.816 -0.3335 -0.1248  1.0038
 6231TIP3   OH240251   5.440   2.703   6.766  0.1604  0.0875 -0.2171
 6231TIP3    H140252   5.368   2.704   6.830  0.5948 -1.4141  0.3253
 6231TIP3    H240253   5.429   2.785   6.718 -2.4813 -0.4736 -0.7692
 6232TIP3   OH240254   3.064   4.856   8.573  0.0531 -0.2487 -0.1811
 6232TIP3    H140255   3.027   4.885   8.656  0.5936  0.1518 -0.0714
 6232TIP3    H240256   3.055   4.761   8.573  0.1843 -0.2609  0.3996
 6233TIP3   OH240257   2.193   1.504   7.526  0.1287 -0.7462  0.0361
 6233TIP3    H140258   2.213   1.568   7.595  0.7845 -0.4923 -0.3861
 6233TIP3    H240259   2.114   1.539   7.483  1.3633  0.6342 -1.2076
 6234TIP3   OH240260   2.695   3.082   2.157  0.4780  0.3647  0.1386
 6234TIP3    H140261   2.730   3.162   2.119 -0.3622  0.1528 -1.1409
 6234TIP3    H240262   2.632   3.113   2.223  0.8759  0.7435  0.3463
 6235TIP3   OH240263   2.951   0.912   8.397  0.2080  0.1693  0.4547
 6235TIP3    H140264   2.960   0.992   8.345 -1.5661 -0.5739 -1.1229
 6235TIP3    H240265   2.980   0.937   8.485 -0.2685  2.5409 -0.0006
 6236TIP3   OH240266   0.131   6.465   1.703 -0.1942 -0.3046  0.5217
 6236TIP3    H140267   0.191   6.416   1.760  0.3095 -0.7402 -0.3623
 6236TIP3    H240268   0.112   6.545   1.752  3.3946  1.2542 -0.3151
 6237TIP3   OH240269   1.130   1.525   1.071  0.5644  0.0066 -0.1005
 6237TIP3    H140270   1.166   1.613   1.072 -1.8343  1.0671 -0.2658
 6237TIP3    H240271   1.110   1.508   0.978  0.0621 -0.2855  0.0560
 6238TIP3   OH240272   1.739   0.061   2.237  0.0958 -0.4193 -0.1685
 6238TIP3    H140273   1.733   0.125   2.308 -1.1244 -1.4374  0.6879
 6238TIP3    H240274   1.679   0.094   2.170 -0.9706 -0.9539  0.5152
 6239TIP3   OH240275   2.287   6.640   7.869 -0.1379 -0.1848 -0.3173
 6239TIP3    H140276   2.250   6.553   7.855  0.9811 -0.5392 -1.3023
 6239TIP3    H240277   2.356   6.647   7.803  1.7588  0.3095  1.6396
 6240TIP3   OH240278   4.438   2.107   0.083  0.3566 -0.2582  0.1459
 6240TIP3    H140279   4.491   2.184   0.065  0.1063 -0.2622 -0.6818
 6240TIP3    H240280   4.354   2.141   0.114 -0.9808  0.0305 -3.3175
 6241TIP3   OH240281   0.234   4.372   0.654 -0.2869 -0.2303 -0.0937
 6241TIP3    H140282   0.225   4.362   0.559  1.5040 -0.3395 -0.2975
 6241TIP3    H240283   0.324   4.344   0.672 -1.2546 -2.4472  1.9615
 6242TIP3   OH240284   1.618   2.775   8.454  0.2018 -0.4800 -0.3313
 6242TIP3    H140285   1.681   2.846   8.470  1.3753 -1.6632  0.5466
 6242TIP3    H240286   1.582   2.794   8.367  1.7411  0.2824 -0.8500
 6243TIP3   OH240287   1.966   5.395   1.841 -0.7121  0.3344 -0.2646
 6243TIP3    H140288   1.955   5.360   1.929 -0.9862  0.4524 -0.2518
 6243TIP3    H240289   2.028   5.335   1.799 -0.2362  0.5312  0.1497
 6244TIP3   OH240290   4.573   1.333   1.606  0.2767  0.3960 -0.0707
 6244TIP3    H140291   4.587   1.325   1.511 -0.6108 -1.2802 -0.0915
 6244TIP3    H240292   4.478   1.340   1.616  0.1875 -1.5991  0.7929
 6245TIP3   OH240293   1.500   3.381   8.621 -0.6725 -0.1567 -0.4230
 6245TIP3    H140294   1.578   3.349   8.666 -0.4878 -0.1990 -0.7770
 6245TIP3    H240295   1.438   3.400   8.692 -0.2406  0.1516 -0.1244
 6246TIP3   OH240296   3.573   0.537   0.333  0.1671  0.2161 -0.1566
 6246TIP3    H140297   3.574   0.631   0.313  0.8391  0.0152 -1.0755
 6246TIP3    H240298   3.619   0.496   0.261 -1.6173 -1.0177 -0.6468
 6247TIP3   OH240299   6.803   2.540   0.360  0.0111 -0.1873  0.3741
 6247TIP3    H140300   6.874   2.508   0.305  0.6758  1.1741  0.3824
 6247TIP3    H240301   6.764   2.462   0.398  1.8525 -0.9696  0.7888
 6248TIP3   OH240302   3.495   5.700   0.161  0.5882 -0.2198  0.3425
 6248TIP3    H140303   3.418   5.684   0.105  0.8017 -1.5517  0.3863
 6248TIP3    H240304   3.532   5.782   0.129 -1.1020  0.6831  0.6070
 6249TIP3   OH240305   2.650   3.866   2.511  0.2767 -0.0758 -0.0925
 6249TIP3    H140306   2.647   3.932   2.580 -1.0961 -1.9030  1.7479
 6249TIP3    H240307   2.634   3.914   2.430  2.2898  2.2107  0.7633
 6250TIP3   OH240308   6.184   6.036   1.266  0.0103 -0.1463  0.0944
 6250TIP3    H140309   6.256   6.001   1.318  0.1125  0.5093  0.4045
 6250TIP3    H240310   6.217   6.120   1.234 -0.0402 -0.5506 -1.0576
 6251TIP3   OH240311   6.707   1.866   8.647  0.2406 -0.5376 -0.1232
 6251TIP3    H140312   6.653   1.787   8.655 -0.9985  0.2839  0.0324
 6251TIP3    H240313   6.725   1.872   8.553  0.0457 -0.8155 -0.1822
 6252TIP3   OH240314   0.093   0.491   1.256  0.0113  0.1895  0.8877
 6252TIP3    H140315   0.063   0.401   1.262  0.3468  0.1556  2.3781
 6252TIP3    H240316   0.180   0.491   1.297  0.4318  1.0090  0.0444
 6253TIP3   OH240317   3.134   3.332   0.237 -0.2052 -0.0065  0.0317
 6253TIP3    H140318   3.096   3.307   0.322  0.0841 -1.9630 -0.3490
 6253TIP3    H240319   3.100   3.419   0.220  1.0481  1.1887  2.9485
 6254TIP3   OH240320   5.900   5.311   7.545 -0.5289  0.2047  0.7868
 6254TIP3    H140321   5.875   5.401   7.527  0.6066  0.4046  0.0739
 6254TIP3    H240322   5.819   5.267   7.570 -1.2832  1.1541  0.0537
 6255TIP3   OH240323   0.285   5.426   1.892  0.1766 -0.1380 -0.3275
 6255TIP3    H140324   0.209   5.420   1.950  0.5255  0.2456  0.1825
 6255TIP3    H240325   0.311   5.335   1.877  1.8407 -0.2862  2.5140
 6256TIP3   OH240326   0.043   4.564   8.378 -0.0156  0.0069 -0.3853
 6256TIP3    H140327   0.053   4.620   8.301  0.0823 -2.1374 -2.0058
 6256TIP3    H240328  -0.021   4.610   8.433  1.4775  2.6181 -0.6957
 6257TIP3   OH240329   1.313   1.405   1.337 -0.3435  0.8702  0.2567
 6257TIP3    H140330   1.340   1.478   1.392  0.0251  0.8549  0.1051
 6257TIP3    H240331   1.336   1.433   1.248  2.9804 -0.7299  0.4491
 6258TIP3   OH240332   2.672   1.290   6.503  0.4280  0.5902 -0.4480
 6258TIP3    H140333   2.746   1.237   6.531 -0.5453 -1.3064 -1.2848
 6258TIP3    H240334   2.652   1.346   6.578  1.1158 -0.6593  0.6947
 6259TIP3   OH240335   5.643   2.979   8.426  0.0309 -0.0537  0.3182
 6259TIP3    H140336   5.708   3.001   8.360  0.4414  2.0695  1.3201
 6259TIP3    H240337   5.691   2.980   8.509 -0.4726 -2.6060  0.7304
 6260TIP3   OH240338   4.868   1.530   7.798  0.5721  0.4472 -0.6291
 6260TIP3    H140339   4.899   1.605   7.746  2.2955  1.8493  2.1967
 6260TIP3    H240340   4.802   1.568   7.856  0.3675 -0.5785 -0.1698
 6261TIP3   OH240341   0.820   2.403   0.563  0.6046 -0.0636  0.4767
 6261TIP3    H140342   0.773   2.465   0.507 -0.3428 -0.4804  0.7819
 6261TIP3    H240343   0.847   2.333   0.503 -1.1233 -0.9156  0.6364
 6262TIP3   OH240344   1.581   2.769   7.240 -0.3454  0.6093 -0.0227
 6262TIP3    H140345   1.526   2.846   7.222 -0.7292  0.1066 -1.0699
 6262TIP3    H240346   1.530   2.695   7.208 -1.0302 -0.4111  3.1101
 6263TIP3   OH240347   1.716   3.060   7.194 -0.3074  0.1748  0.1428
 6263TIP3    H140348   1.626   3.092   7.208 -0.3296  0.0789  0.2180
 6263TIP3    H240349   1.751   3.118   7.126 -0.8683 -0.6181 -0.8527
 6264TIP3   OH240350   2.447   6.463   0.792  0.1155 -0.1546  0.4166
 6264TIP3    H140351   2.378   6.523   0.766  1.5289  0.3800 -2.4407
 6264TIP3    H240352   2.401   6.392   0.837 -2.1349  0.7413 -0.3419
 6265TIP3   OH240353   5.936   0.471   0.229 -0.1913 -0.7604 -0.3693
 6265TIP3    H140354   5.911   0.559   0.201  1.2487 -0.2751 -0.1751
 6265TIP3    H240355   5.968   0.483   0.318 -0.0308 -1.4987 -0.3268
 6266TIP3   OH240356   1.282   3.231   0.744  0.6159  0.1780  0.0213
 6266TIP3    H140357   1.296   3.194   0.831  2.0871  0.1194 -0.2086
 6266TIP3    H240358   1.339   3.179   0.687 -1.2853 -0.6338 -1.2214
 6267TIP3   OH240359   2.339   6.697   1.492 -0.6013 -0.5169  0.0745
 6267TIP3    H140360   2.362   6.682   1.584  1.6799 -0.7465 -0.4784
 6267TIP3    H240361   2.365   6.788   1.475 -2.1711 -0.0630 -0.0519
 6268TIP3   OH240362   4.965   6.238   1.254 -0.1121  0.4588 -0.5174
 6268TIP3    H140363   4.917   6.318   1.276  0.3003  0.3388  0.9419
 6268TIP3    H240364   4.959   6.232   1.159 -2.6298  0.6679 -0.4443
 6269TIP3   OH240365   4.962   4.086   7.828  0.4992 -0.2803 -0.3283
 6269TIP3    H140366   4.938   4.139   7.904  0.8299  0.5146 -0.7658
 6269TIP3    H240367   4.883   4.083   7.774  0.2879 -0.7799 -0.0009
 6270TIP3   OH240368   0.140   4.555   0.101  0.4889  0.2439 -0.5692
 6270TIP3    H140369   0.201   4.482   0.089  1.2440  0.9019 -0.8766
 6270TIP3    H240370   0.100   4.540   0.186  0.3354 -0.7373 -0.8007
 6271TIP3   OH240371   2.002   0.762   1.444  0.5775 -0.1401  0.3721
 6271TIP3    H140372   1.924   0.781   1.393  0.6598 -0.0064  0.2954
 6271TIP3    H240373   2.014   0.667   1.435  0.8929 -0.0413 -0.2928
 6272TIP3   OH240374   6.189   6.537   7.784 -0.3425  0.1933  0.2428
 6272TIP3    H140375   6.211   6.622   7.821 -0.9208  0.2571  0.4467
 6272TIP3    H240376   6.192   6.477   7.858  0.7393 -0.0997 -0.0178
 6273TIP3   OH240377   0.742   2.126   0.710  0.0125 -0.6054  0.3367
 6273TIP3    H140378   0.802   2.198   0.729  1.5073 -2.2816  2.4283
 6273TIP3    H240379   0.784   2.079   0.638 -2.2212  1.8417 -2.8712
 6274TIP3   OH240380   2.796   3.941   7.878 -0.1477 -0.0634 -0.1442
 6274TIP3    H140381   2.787   3.890   7.797  0.4711 -0.9975  0.3622
 6274TIP3    H240382   2.761   3.884   7.946 -0.3472  0.5853  0.3037
 6275TIP3   OH240383   4.172   6.201   2.127 -0.1758  0.3226  0.3554
 6275TIP3    H140384   4.142   6.194   2.218 -0.5730  0.7639  0.2601
 6275TIP3    H240385   4.094   6.222   2.077  0.4363  2.5793  0.2392
 6276TIP3   OH240386   2.111   4.158   2.673  0.0431 -0.0655  0.5561
 6276TIP3    H140387   2.105   4.095   2.601 -1.8071 -0.0856  0.6876
 6276TIP3    H240388   2.044   4.223   2.655  0.8349  1.0041  1.2867
 6277TIP3   OH240389   6.615   3.480   7.094 -0.5494  0.3631  0.1129
 6277TIP3    H140390   6.547   3.433   7.045  0.0719 -0.5254  0.0849
 6277TIP3    H240391   6.626   3.562   7.047  0.7955 -0.8865 -1.9300
 6278TIP3   OH240392   5.852   3.347   7.363 -0.4905 -0.3010  0.7048
 6278TIP3    H140393   5.781   3.284   7.380 -0.4139 -0.7674 -0.5926
 6278TIP3    H240394   5.884   3.323   7.276  0.8118  0.3417  0.9893
 6279TIP3   OH240395   2.585   1.391   1.365  0.0038  0.0299  0.0066
 6279TIP3    H140396   2.644   1.379   1.441  0.3419  0.0181 -0.2548
 6279TIP3    H240397   2.585   1.486   1.350 -1.7013  0.2860  1.3064
 6280TIP3   OH240398   4.846   3.492   7.860  0.3073 -0.5889  0.5139
 6280TIP3    H140399   4.838   3.587   7.865  1.3750 -0.4779  0.2990
 6280TIP3    H240400   4.822   3.461   7.948  0.6030 -0.0755  0.7796
 6281TIP3   OH240401   6.785   2.480   1.601 -0.5244 -0.4032 -0.0984
 6281TIP3    H140402   6.876   2.506   1.587 -0.5094 -0.1607  0.3934
 6281TIP3    H240403   6.783   2.387   1.579 -0.0524 -0.5169  0.3069
 6282TIP3   OH240404   2.049   1.693   1.726 -0.1450  0.0601  0.0075
 6282TIP3    H140405   2.136   1.730   1.739 -0.1986  0.4371 -0.7071
 6282TIP3    H240406   2.066   1.604   1.694 -0.0087  0.5959 -1.4666
 6283TIP3   OH240407   3.884   6.372   0.459 -0.1347 -0.0630  0.6948
 6283TIP3    H140408   3.903   6.452   0.409 -0.4128  0.7056  1.7600
 6283TIP3    H240409   3.788   6.370   0.465 -0.1000  0.1374  1.5781
 6284TIP3   OH240410   6.557   6.163   7.341  0.2410  0.2907  0.8144
 6284TIP3    H140411   6.594   6.251   7.334 -0.6815  0.5863 -1.0112
 6284TIP3    H240412   6.581   6.121   7.259 -0.0133 -0.8974  1.3316
 6285TIP3   OH240413   0.364   5.839   1.114 -0.4649 -0.4458  0.7807
 6285TIP3    H140414   0.344   5.924   1.154 -3.0796 -0.1862 -0.8518
 6285TIP3    H240415   0.293   5.782   1.143 -0.9956 -0.9356 -1.3511
 6286TIP3   OH240416   3.831   2.505   0.944 -0.1435  0.1360  0.2061
 6286TIP3    H140417   3.879   2.463   0.873  1.8780  1.7320  0.5549
 6286TIP3    H240418   3.765   2.559   0.900  0.0907 -0.0513 -0.3807
 6287TIP3   OH240419   2.705   0.740   8.403 -0.4837  0.2247  0.3103
 6287TIP3    H140420   2.673   0.732   8.493 -0.4439  0.3185  0.3329
 6287TIP3    H240421   2.787   0.789   8.412  0.4032 -1.2311  0.4063
 6288TIP3   OH240422   4.204   5.494   0.986 -0.3719 -0.2950 -0.1225
 6288TIP3    H140423   4.290   5.502   0.945 -0.1937  1.3656  0.5227
 6288TIP3    H240424   4.175   5.406   0.962  0.7472 -0.2584 -1.7965
 6289TIP3   OH240425   6.722   3.784   1.958  0.3019 -0.0721  0.5701
 6289TIP3    H140426   6.800   3.784   1.903  1.5402  1.1320  2.2232
 6289TIP3    H240427   6.659   3.838   1.910  1.0973  0.3933  0.0299
 6290TIP3   OH240428   1.034   3.469   0.797 -0.7901  0.3298 -0.2434
 6290TIP3    H140429   1.099   3.468   0.728  0.2956 -1.7443  0.7387
 6290TIP3    H240430   1.002   3.560   0.798  1.6577  1.2846 -1.1206
 6291TIP3   OH240431   3.935   4.616   2.141 -0.5752  0.4796 -0.1839
 6291TIP3    H140432   3.869   4.565   2.094  0.0302 -0.2486 -0.2707
 6291TIP3    H240433   4.003   4.552   2.163  0.2744  1.2864 -0.4236
 6292TIP3   OH240434   5.427   5.507   0.184 -0.0901 -0.1966 -0.0238
 6292TIP3    H140435   5.392   5.427   0.145 -1.8333 -0.1330  1.2874
 6292TIP3    H240436   5.439   5.486   0.277  1.8218  0.3430 -0.0922
 6293TIP3   OH240437   0.027   6.073   0.540 -0.3290  0.8026 -0.4407
 6293TIP3    H140438   0.080   6.093   0.617 -1.6310  0.8947  0.4540
 6293TIP3    H240439   0.073   6.000   0.497  0.9478  1.4131 -0.1543
 6294TIP3   OH240440   5.420   0.257   0.730 -0.7451  0.1905  0.4648
 6294TIP3    H140441   5.366   0.331   0.757  0.1771  0.7959  0.7106
 6294TIP3    H240442   5.510   0.288   0.739 -0.3463 -0.7647 -0.0004
 6295TIP3   OH240443   5.032   2.947   8.631 -0.2047 -0.3487  0.5991
 6295TIP3    H140444   5.057   2.887   8.561 -0.9282 -0.3720  0.3567
 6295TIP3    H240445   4.970   2.897   8.685 -1.7819  0.5633 -0.3036
 6296TIP3   OH240446   5.539   5.161   0.115  0.0630  0.0791  0.2002
 6296TIP3    H140447   5.588   5.242   0.119  0.4668  0.0184 -2.4080
 6296TIP3    H240448   5.447   5.188   0.122  0.2106  0.7328 -0.2965
 6297TIP3   OH240449   3.825   0.526   0.623  0.1082 -0.3631 -0.4998
 6297TIP3    H140450   3.890   0.572   0.675 -1.4051  1.3846 -0.0121
 6297TIP3    H240451   3.863   0.521   0.535 -0.0290  2.9299 -0.8821
 6298TIP3   OH240452   5.263   3.422   6.638  0.1774  0.2142 -0.4064
 6298TIP3    H140453   5.298   3.426   6.727  0.1961  0.5575 -0.4284
 6298TIP3    H240454   5.227   3.509   6.622  0.2723  0.1869 -0.7772
 6299TIP3   OH240455   2.971   0.855   0.326 -0.0007 -0.3946 -0.0482
 6299TIP3    H140456   2.931   0.841   0.241 -0.7076  0.4273  0.1348
 6299TIP3    H240457   2.899   0.844   0.389  0.4391 -0.6605  0.4184
 6300TIP3   OH240458   4.541   3.064   6.653 -0.2798 -0.1703  0.3896
 6300TIP3    H140459   4.566   3.149   6.616  0.7774 -0.0128  1.3777
 6300TIP3    H240460   4.550   3.077   6.748 -0.0849 -1.3817  0.5461
 6301TIP3   OH240461   5.814   0.455   8.097  0.2169 -0.1152  0.6217
 6301TIP3    H140462   5.885   0.405   8.137 -0.6001 -1.7066  0.1517
 6301TIP3    H240463   5.760   0.484   8.170  0.0968 -0.8666  0.8331
 6302TIP3   OH240464   6.303   2.127   1.035 -0.6807  0.0923  0.4243
 6302TIP3    H140465   6.239   2.058   1.054 -0.3681  0.1285  1.6765
 6302TIP3    H240466   6.363   2.087   0.972 -1.8434  0.0145 -0.6802
 6303TIP3   OH240467   0.633   4.801   1.417 -0.2061  0.4563  0.0673
 6303TIP3    H140468   0.567   4.741   1.452  0.4176 -0.6208 -0.5367
 6303TIP3    H240469   0.711   4.746   1.406 -0.4868  0.5552 -3.4408
 6304TIP3   OH240470   6.598   4.720   7.957  0.7070 -0.6675 -0.5016
 6304TIP3    H140471   6.658   4.705   8.029  1.4922 -1.4485 -1.2873
 6304TIP3    H240472   6.652   4.758   7.888 -0.1488  0.6464 -0.4895
 6305TIP3   OH240473   2.098   4.651   0.582  0.2497  0.2982  0.0661
 6305TIP3    H140474   2.071   4.682   0.669 -1.4341  1.4562 -0.8241
 6305TIP3    H240475   2.091   4.728   0.526  2.3948 -0.1465 -0.9275
 6306TIP3   OH240476   2.962   0.472   8.101 -0.0132  0.0709  0.3806
 6306TIP3    H140477   2.876   0.432   8.115  0.0069 -0.3131 -0.5123
 6306TIP3    H240478   2.957   0.556   8.145 -0.4246 -0.4727  1.3940
 6307TIP3   OH240479   0.598   3.866   6.971  0.1912 -0.8192  0.9422
 6307TIP3    H140480   0.595   3.915   7.053 -0.5805 -1.6580  1.4339
 6307TIP3    H240481   0.648   3.922   6.911  1.0731 -0.3560  2.0799
 6308TIP3   OH240482   1.008   5.977   8.358  0.2207  0.5648 -0.4358
 6308TIP3    H140483   1.051   5.949   8.439 -1.1986  0.5630  0.3459
 6308TIP3    H240484   1.076   5.966   8.291  0.4995 -2.5411  0.1704
 6309TIP3   OH240485   4.811   5.633   7.354  0.5862  0.0120 -0.2179
 6309TIP3    H140486   4.895   5.676   7.339  0.3778  0.5379  0.0843
 6309TIP3    H240487   4.753   5.669   7.287  0.5300 -0.1427 -0.2526
 6310TIP3   OH240488   3.418   2.545   7.290  0.2682  0.0186  0.0054
 6310TIP3    H140489   3.356   2.569   7.360  1.8322 -1.8071  2.1784
 6310TIP3    H240490   3.364   2.509   7.220 -1.2326 -0.3050  1.2797
 6311TIP3   OH240491   0.879   1.701   7.501  0.4101  0.3902 -0.4016
 6311TIP3    H140492   0.903   1.709   7.408 -0.4578 -0.3599 -0.7033
 6311TIP3    H240493   0.786   1.680   7.500  0.2822  0.8486  0.6649
 6312TIP3   OH240494   1.542   0.215   7.326 -0.1622 -0.3904 -0.4141
 6312TIP3    H140495   1.447   0.206   7.337 -0.0973  0.3218  0.9248
 6312TIP3    H240496   1.562   0.161   7.249 -1.3518 -2.3226  0.5370
 6313TIP3   OH240497   4.503   6.688   7.881  0.4509  0.3410  0.1794
 6313TIP3    H140498   4.571   6.631   7.846 -0.0293  0.0972 -0.3673
 6313TIP3    H240499   4.443   6.702   7.808  1.0681  2.3615 -0.0008
 6314TIP3   OH240500   2.976   5.911   0.171  0.3334 -0.2456 -0.2964
 6314TIP3    H140501   2.913   5.944   0.106 -0.3123 -0.1075  0.3911
 6314TIP3    H240502   3.046   5.976   0.170  0.8243 -0.7544 -1.5672
 6315TIP3   OH240503   5.710   4.723   7.186 -0.3016  0.2191 -0.1286
 6315TIP3    H140504   5.677   4.811   7.200  0.3467  0.5355 -0.5411
 6315TIP3    H240505   5.670   4.695   7.103 -1.7523 -0.4958  0.7720
 6316TIP3   OH240506   3.128   3.552   7.992  0.0607  1.0297  0.0974
 6316TIP3    H140507   3.128   3.621   7.926 -0.7627  0.1504 -0.8583
 6316TIP3    H240508   3.045   3.564   8.039  0.2148  1.0809  0.3576
 6317TIP3   OH240509   1.281   6.454   6.621  0.5815 -0.5237  0.5029
 6317TIP3    H140510   1.274   6.401   6.542 -0.5148 -0.6365  0.6549
 6317TIP3    H240511   1.292   6.544   6.589 -0.0168 -0.5506  0.2176
 6318TIP3   OH240512   4.342   3.817   7.305 -0.4520 -0.1552  0.1601
 6318TIP3    H140513   4.345   3.908   7.334 -2.1096 -0.6828  2.2975
 6318TIP3    H240514   4.398   3.770   7.367 -0.6783 -0.7588 -0.0816
 6319TIP3   OH240515   2.572   0.425   0.179  0.3300 -0.7356  0.1891
 6319TIP3    H140516   2.617   0.344   0.156  1.7198  0.5113 -1.8783
 6319TIP3    H240517   2.483   0.414   0.145 -0.1677 -2.1329  1.7963
 6320TIP3   OH240518   0.315   5.240   0.740  0.2036 -0.0962  0.6582
 6320TIP3    H140519   0.361   5.221   0.822 -0.4998  1.4685  1.4685
 6320TIP3    H240520   0.345   5.172   0.679 -0.2383 -2.1178  2.5613
 6321TIP3   OH240521   3.709   4.635   0.080 -0.2481 -0.3276 -0.1076
 6321TIP3    H140522   3.721   4.560   0.138  1.1398 -1.1617 -1.3948
 6321TIP3    H240523   3.767   4.618   0.006 -1.1819  1.1980 -1.2609
 6322TIP3   OH240524   5.961   0.978   0.283 -0.4662  0.4756  0.2602
 6322TIP3    H140525   6.029   0.979   0.351  1.0606 -1.5174 -1.1119
 6322TIP3    H240526   5.923   1.066   0.287  0.6095  0.9340  2.6089
 6323TIP3   OH240527   6.385   2.154   1.757  0.5838  0.0392 -0.3724
 6323TIP3    H140528   6.306   2.192   1.793  0.0588 -0.6599 -0.7654
 6323TIP3    H240529   6.438   2.130   1.834  0.0883 -0.1723 -0.0970
 6324TIP3   OH240530   6.390   4.175   0.630  0.1246 -0.1021  0.6257
 6324TIP3    H140531   6.352   4.259   0.602 -0.8146 -0.8313 -0.3910
 6324TIP3    H240532   6.318   4.130   0.674  0.1616 -1.0022 -0.2180
 6325TIP3   OH240533   6.340   6.208   7.965  0.4790 -1.2097  0.6955
 6325TIP3    H140534   6.311   6.137   7.909  1.4872 -0.9092 -0.2390
 6325TIP3    H240535   6.416   6.173   8.012  1.3321 -0.5901 -0.1925
 6326TIP3   OH240536   5.519   2.105   0.950  0.4894 -0.3756 -0.0372
 6326TIP3    H140537   5.612   2.089   0.967  0.2674 -0.9584  0.6755
 6326TIP3    H240538   5.483   2.129   1.035 -0.1793 -1.0084 -0.1302
 6327TIP3   OH240539   0.370   2.368   8.163  0.1680  0.0473  0.1733
 6327TIP3    H140540   0.373   2.402   8.074 -0.7417 -0.9273 -0.2612
 6327TIP3    H240541   0.461   2.352   8.186  0.4253  0.4826 -0.5196
 6328TIP3   OH240542   1.118   2.079   7.447  0.6574  0.5716  0.1103
 6328TIP3    H140543   1.086   2.002   7.399  0.0608  0.3238  0.8851
 6328TIP3    H240544   1.116   2.150   7.384 -1.2827  0.5292  0.0710
 6329TIP3   OH240545   3.450   3.439   0.875 -0.2296 -0.1125 -0.3800
 6329TIP3    H140546   3.429   3.406   0.788  0.5627 -0.8434 -0.3016
 6329TIP3    H240547   3.400   3.383   0.935 -1.1016  0.6509 -0.3636
 6330TIP3   OH240548   0.636   3.012   8.243 -0.4967 -0.2389  0.1817
 6330TIP3    H140549   0.683   2.944   8.291  0.6308  0.8466  0.6769
 6330TIP3    H240550   0.705   3.059   8.196 -1.3557  0.0263 -0.8530
 6331TIP3   OH240551   0.337   1.812   0.438  0.2678  0.2793 -0.2881
 6331TIP3    H140552   0.427   1.783   0.448 -0.7067 -2.3578  3.2583
 6331TIP3    H240553   0.332   1.895   0.485  0.3957 -1.0811  2.3433
 6332TIP3   OH240554   6.058   3.244   1.468  0.4425 -0.0871  0.1999
 6332TIP3    H140555   5.970   3.282   1.474  1.2706  1.8641  1.2522
 6332TIP3    H240556   6.105   3.303   1.409  1.5627  0.1068  1.2380
 6333TIP3   OH240557   4.440   5.733   1.325  0.1409 -0.1039 -0.7261
 6333TIP3    H140558   4.439   5.764   1.416  1.4583  0.0866 -0.7569
 6333TIP3    H240559   4.361   5.770   1.286 -0.7774 -0.7202  0.5085
 6334TIP3   OH240560   4.611   2.635   0.887 -0.0066  0.1844 -0.5003
 6334TIP3    H140561   4.641   2.619   0.976 -1.6791  2.7867  0.6836
 6334TIP3    H240562   4.678   2.692   0.849  2.5459 -3.6355 -2.3552
 6335TIP3   OH240563   3.429   6.428   0.016  0.5104  0.0189 -0.3541
 6335TIP3    H140564   3.469   6.341   0.004 -0.4746 -0.6011  0.6705
 6335TIP3    H240565   3.423   6.464  -0.072  0.5866 -1.1176 -0.8451
 6336TIP3   OH240566   5.227   0.711   7.901  1.1999  0.5698 -0.4591
 6336TIP3    H140567   5.166   0.785   7.904  0.2277 -0.1423 -1.5534
 6336TIP3    H240568   5.286   0.725   7.976 -0.7724  0.8877  1.1244
 6337TIP3   OH240569   1.593   2.448   8.242 -0.1913 -0.6533  0.4663
 6337TIP3    H140570   1.533   2.444   8.317  0.2012  0.2434  0.8370
 6337TIP3    H240571   1.604   2.357   8.216 -0.9124 -0.9156  1.0397
 6338TIP3   OH240572   5.080   5.936   1.033  0.1084  0.1048 -0.2394
 6338TIP3    H140573   5.175   5.945   1.023  0.2513 -0.1633  0.7977
 6338TIP3    H240574   5.064   5.954   1.125 -0.7560 -0.6491 -0.2319
 6339TIP3   OH240575   3.344   1.376   0.443  0.2371  0.1497 -0.5007
 6339TIP3    H140576   3.319   1.422   0.524 -0.9342  0.7002 -1.1523
 6339TIP3    H240577   3.261   1.360   0.398  0.7346 -1.5259 -0.8841
 6340TIP3   OH240578   0.188   1.802   1.254  0.0675 -0.7950  0.1211
 6340TIP3    H140579   0.205   1.838   1.168  1.5845 -0.3948  0.5591
 6340TIP3    H240580   0.123   1.733   1.239  0.0986 -0.5461 -1.2793
 6341TIP3   OH240581   1.130   1.845   0.438 -0.4878  0.4948 -0.0660
 6341TIP3    H140582   1.063   1.835   0.370 -1.3051  0.7564  0.6865
 6341TIP3    H240583   1.181   1.920   0.408  0.8289 -0.9699 -1.7265
 6342TIP3   OH240584   2.565   2.718   7.192 -0.3855  0.4664  0.1606
 6342TIP3    H140585   2.596   2.628   7.205  2.2145  0.9470 -1.7574
 6342TIP3    H240586   2.474   2.717   7.221  0.2303 -2.1790  2.3880
 6343TIP3   OH240587   6.085   4.708   0.520 -1.1538 -0.2788  0.3701
 6343TIP3    H140588   6.050   4.643   0.581  1.4888 -0.8205  1.4379
 6343TIP3    H240589   6.048   4.683   0.435 -0.1916 -3.2630  0.7354
 6344TIP3   OH240590   0.706   1.017   7.229 -0.0937 -0.2566 -0.4225
 6344TIP3    H140591   0.734   0.936   7.186 -0.7183 -0.8723  0.2709
 6344TIP3    H240592   0.611   1.020   7.214 -0.3025 -0.4085  0.7184
 6345TIP3   OH240593   2.989   6.010   7.171 -0.4548  0.0552  0.4430
 6345TIP3    H140594   3.023   6.097   7.150 -0.6266  0.3066  1.1915
 6345TIP3    H240595   3.065   5.952   7.161 -0.7792 -0.0476 -2.0348
 6346TIP3   OH240596   2.842   3.335   0.045  0.0125 -0.0461  0.5797
 6346TIP3    H140597   2.890   3.377  -0.027  1.6240  0.0714  1.6717
 6346TIP3    H240598   2.860   3.241   0.034 -2.1050 -0.3447 -0.8024
 6347TIP3   OH240599   1.601   5.248   7.388  0.1139 -0.0823  0.4091
 6347TIP3    H140600   1.535   5.199   7.338  0.4723  0.3657 -0.5417
 6347TIP3    H240601   1.676   5.253   7.329 -0.4139  2.8949 -0.1866
 6348TIP3   OH240602   1.306   3.614   7.674  0.6393 -0.4053  0.1310
 6348TIP3    H140603   1.234   3.555   7.695  1.0007 -1.2561 -0.9301
 6348TIP3    H240604   1.281   3.653   7.590  0.0044  1.6340  1.2020
 6349TIP3   OH240605   4.366   4.280   1.614  0.4787  0.4740 -0.7929
 6349TIP3    H140606   4.338   4.341   1.683 -2.4563 -0.8759 -0.6591
 6349TIP3    H240607   4.450   4.246   1.645  0.2560  1.4739  1.0578
 6350TIP3   OH240608   3.717   0.983   8.062  0.1221  0.2699  0.4899
 6350TIP3    H140609   3.667   1.007   7.984 -1.3008 -0.4066  1.1393
 6350TIP3    H240610   3.807   0.976   8.032 -0.1953  1.2548 -0.8076
 6351TIP3   OH240611   1.313   3.228   2.582  0.4861 -0.4251 -0.1710
 6351TIP3    H140612   1.265   3.147   2.592  2.2823 -2.0175 -2.9448
 6351TIP3    H240613   1.248   3.291   2.551 -0.2981 -1.8457 -1.5425
 6352TIP3   OH240614   6.025   6.335   8.574 -0.2623  0.5401  0.4560
 6352TIP3    H140615   5.940   6.299   8.600 -0.3974  1.0954  0.7905
 6352TIP3    H240616   6.009   6.380   8.492  0.3371 -1.9557 -1.1580
 6353TIP3   OH240617   6.342   3.760   8.202  0.0640 -0.2461 -0.0903
 6353TIP3    H140618   6.325   3.719   8.117 -0.4499 -0.0865 -0.0689
 6353TIP3    H240619   6.280   3.717   8.261  0.2859 -0.2179  0.1630
 6354TIP3   OH240620   5.083   6.588   7.511 -0.2516 -0.2150  0.2496
 6354TIP3    H140621   5.130   6.646   7.450  1.3586 -0.8932  0.7845
 6354TIP3    H240622   4.993   6.621   7.510  0.1032  0.8501 -1.1940
 6355TIP3   OH240623   6.099   0.497   6.312  0.4384 -0.7173  0.1467
 6355TIP3    H140624   6.166   0.495   6.243  1.1749 -0.1774  0.8327
 6355TIP3    H240625   6.088   0.406   6.338  0.4042 -0.8862 -0.4381
 6356TIP3   OH240626   3.080   3.264   6.770  0.1073 -0.0213 -0.1225
 6356TIP3    H140627   3.050   3.336   6.714  1.1251 -1.4292 -2.6444
 6356TIP3    H240628   3.169   3.289   6.795  0.8051 -0.7299 -1.7501
 6357TIP3   OH240629   6.191   6.682   1.460 -0.1508 -0.3585  0.6023
 6357TIP3    H140630   6.164   6.604   1.411 -1.7149  0.4819  0.0495
 6357TIP3    H240631   6.171   6.755   1.401  1.2650  0.4713  1.1175
 6358TIP3   OH240632   1.700   0.545   0.907 -0.0751 -0.0742 -0.1593
 6358TIP3    H140633   1.702   0.638   0.928 -0.6099 -0.2082  0.5293
 6358TIP3    H240634   1.607   0.523   0.909  0.1522 -1.2922  2.8208
 6359TIP3   OH240635   4.957   6.100   0.735  0.1582 -0.1435  0.0550
 6359TIP3    H140636   5.011   6.021   0.724 -1.4722 -1.6287  1.9747
 6359TIP3    H240637   4.867   6.067   0.736 -1.0027  2.2963 -3.6384
 6360TIP3   OH240638   5.361   2.236   1.136  0.2934  0.1653  0.8147
 6360TIP3    H140639   5.279   2.211   1.095  0.4644 -1.2745  1.2655
 6360TIP3    H240640   5.339   2.250   1.228 -0.1116  3.4897  0.3206
 6361TIP3   OH240641   3.111   1.790   0.958  0.1168  0.0388  0.4175
 6361TIP3    H140642   3.048   1.844   1.004 -2.2084 -1.0665 -1.2808
 6361TIP3    H240643   3.145   1.730   1.025 -0.4397  0.7909  1.3976
 6362TIP3   OH240644   6.048   3.271   6.858 -0.1957  0.3037  0.2285
 6362TIP3    H140645   6.080   3.339   6.798 -1.1074  1.1676  0.6940
 6362TIP3    H240646   6.086   3.190   6.824 -1.6666  0.5614 -2.2808
 6363TIP3   OH240647   0.948   1.896   6.750 -0.0368  0.5915 -0.2100
 6363TIP3    H140648   1.033   1.896   6.794 -1.0907  1.0428  1.9502
 6363TIP3    H240649   0.942   1.983   6.709 -0.2241  1.2958  1.2675
 6364TIP3   OH240650   2.335   6.111   0.768  0.7754  0.2045  0.0711
 6364TIP3    H140651   2.312   6.023   0.799  1.7714  0.1860  0.8145
 6364TIP3    H240652   2.311   6.169   0.840 -0.4515  0.6392 -0.6555
 6365TIP3   OH240653   0.261   2.347   7.903  0.5071  0.0230 -0.2812
 6365TIP3    H140654   0.349   2.308   7.904  1.2973  1.7289 -0.9187
 6365TIP3    H240655   0.225   2.322   7.818 -1.0309 -3.5110  1.2091
 6366TIP3   OH240656   4.056   0.575   1.301 -0.0829  0.4474 -0.2538
 6366TIP3    H140657   4.048   0.602   1.210  0.9563 -0.2689 -0.5677
 6366TIP3    H240658   4.057   0.480   1.298 -3.0934  0.2550  0.7814
 6367TIP3   OH240659   3.998   0.351   6.502  1.0350  0.1187 -0.6934
 6367TIP3    H140660   4.058   0.366   6.429  1.5484  0.2483 -0.2562
 6367TIP3    H240661   4.056   0.331   6.576  0.5110 -0.3693 -0.4085
 6368TIP3   OH240662   6.324   5.001   7.793 -0.1000 -0.0551  0.5536
 6368TIP3    H140663   6.384   4.949   7.740  1.3473  1.0873  1.0042
 6368TIP3    H240664   6.239   4.960   7.780  0.9933 -2.6650  1.0747
 6369TIP3   OH240665   4.238   1.515   7.862 -0.2463  0.7038  0.1452
 6369TIP3    H140666   4.179   1.495   7.935  1.0949  2.3000  1.7596
 6369TIP3    H240667   4.230   1.610   7.850  1.3836  0.8312 -0.1397
 6370TIP3   OH240668   6.698   2.290   0.393  0.3915 -0.3038 -0.0788
 6370TIP3    H140669   6.766   2.265   0.455 -0.2087 -0.1137  0.6725
 6370TIP3    H240670   6.727   2.254   0.309  2.0147  0.8262 -0.0390
 6371TIP3   OH240671   3.056   5.801   0.787  0.4498  0.0477  0.2345
 6371TIP3    H140672   3.137   5.752   0.801  0.2905 -0.2280  0.1942
 6371TIP3    H240673   2.994   5.736   0.754  0.4261  0.4097 -0.4479
 6372TIP3   OH240674   4.549   2.619   2.175 -0.4190 -0.5877 -0.0142
 6372TIP3    H140675   4.453   2.620   2.176 -0.4259 -0.6975  1.7399
 6372TIP3    H240676   4.574   2.635   2.266  1.2084 -2.1624 -0.1379
 6373TIP3   OH240677   3.020   5.477   0.788 -0.5557  0.1036 -0.1477
 6373TIP3    H140678   2.984   5.389   0.798 -0.7534  0.2053  0.0402
 6373TIP3    H240679   3.033   5.508   0.878  1.1633 -0.4082 -0.1921
 6374TIP3   OH240680   4.960   1.287   2.436 -0.3895 -0.1994  0.2627
 6374TIP3    H140681   4.951   1.350   2.365 -1.0536  0.2519  0.7401
 6374TIP3    H240682   4.982   1.340   2.512  0.1106 -0.6605  0.4478
 6375TIP3   OH240683   6.600   5.515   0.866 -0.1688  0.3482 -0.1336
 6375TIP3    H140684   6.587   5.420   0.855 -0.2662  0.0841  1.8344
 6375TIP3    H240685   6.615   5.548   0.778  0.7005 -1.6290 -0.7770
 6376TIP3   OH240686   5.011   0.475   1.377 -0.1140 -0.0083 -0.2301
 6376TIP3    H140687   5.099   0.512   1.367  0.2098 -0.4597  0.7717
 6376TIP3    H240688   4.980   0.509   1.461  0.1609 -1.8874  0.6792
 6377TIP3   OH240689   5.250   6.186   7.803 -0.1810  0.5100  0.4534
 6377TIP3    H140690   5.226   6.190   7.896 -1.7418  0.3836  0.0939
 6377TIP3    H240691   5.210   6.265   7.766 -0.1349  0.2070 -0.2348
 6378TIP3   OH240692   5.294   2.822   2.243  0.7806 -0.0860  0.2641
 6378TIP3    H140693   5.373   2.872   2.262  0.6237  0.6534 -0.9205
 6378TIP3    H240694   5.324   2.732   2.233  1.3553  0.0709  0.5516
 6379TIP3   OH240695   4.425   6.333   7.097  0.2894  0.7437 -0.6556
 6379TIP3    H140696   4.479   6.309   7.021 -1.2093  0.3605 -1.6324
 6379TIP3    H240697   4.371   6.406   7.066 -0.6150  0.3354 -0.0874
 6380TIP3   OH240698   2.618   4.127   2.587  0.1662  0.2895 -0.1068
 6380TIP3    H140699   2.655   4.215   2.596  0.7155  0.2718 -1.8475
 6380TIP3    H240700   2.553   4.121   2.657  1.0103  1.6075  0.8393
 6381TIP3   OH240701   0.128   0.945   1.533  0.0008 -0.3789  0.0582
 6381TIP3    H140702   0.162   0.981   1.450 -1.9521 -0.6051 -0.9118
 6381TIP3    H240703   0.171   0.860   1.542  1.5438  0.3868  0.2116
 6382TIP3   OH240704   2.761   1.676   1.566 -0.2912 -0.3851 -0.0414
 6382TIP3    H140705   2.753   1.589   1.604  1.0902 -0.2846  0.5509
 6382TIP3    H240706   2.766   1.660   1.471  0.0698 -0.9725  0.0671
 6383TIP3   OH240707   3.529   2.705   8.642 -0.2288  0.3207  0.2228
 6383TIP3    H140708   3.473   2.781   8.624  1.3819  1.5288  0.0681
 6383TIP3    H240709   3.607   2.720   8.588 -0.9131 -2.8011 -1.9329
 6384TIP3   OH240710   5.643   5.801   7.450 -0.0079 -0.5677  0.0043
 6384TIP3    H140711   5.686   5.884   7.469 -1.0033 -0.1853  0.6526
 6384TIP3    H240712   5.550   5.823   7.444 -0.0489 -1.1528 -2.5790
 6385TIP3   OH240713   4.848   5.974   8.386  0.5679  0.4268  0.0457
 6385TIP3    H140714   4.896   5.929   8.316  2.3759 -0.9828  2.0562
 6385TIP3    H240715   4.757   5.946   8.373  0.7874  0.4494 -1.8752
 6386TIP3   OH240716   0.521   3.566   7.871 -0.3268 -0.2431 -0.0422
 6386TIP3    H140717   0.608   3.605   7.874  0.5990 -2.1266 -0.8898
 6386TIP3    H240718   0.483   3.584   7.957  0.4177  1.6094 -0.0769
 6387TIP3   OH240719   0.949   6.770   7.084 -0.7106 -0.4701  0.6176
 6387TIP3    H140720   0.981   6.746   6.997  1.0432  1.9618  0.5089
 6387TIP3    H240721   0.857   6.742   7.084 -1.3868  1.2685 -2.8192
 6388TIP3   OH240722   0.121   3.550   2.464  0.1239  0.4330 -0.3218
 6388TIP3    H140723   0.212   3.555   2.435  0.3209 -2.2294 -0.3996
 6388TIP3    H240724   0.103   3.456   2.471 -2.0324  0.8941  1.5702
 6389TIP3   OH240725   0.297   4.261   7.217 -0.1671 -0.5168  0.1977
 6389TIP3    H140726   0.224   4.307   7.258 -1.6903 -1.8181 -0.9202
 6389TIP3    H240727   0.375   4.298   7.258 -1.4657  0.4548  1.9313
 6390TIP3   OH240728   1.202   1.560   0.458 -0.3709  0.0631 -0.0452
 6390TIP3    H140729   1.161   1.646   0.444  1.0023  0.4281 -2.4314
 6390TIP3    H240730   1.291   1.581   0.487  0.2950 -0.4571 -1.5805
 6391TIP3   OH240731   4.723   6.053   7.219  0.0486  0.5092 -0.8900
 6391TIP3    H140732   4.692   5.980   7.272  1.0416 -0.5091 -1.6688
 6391TIP3    H240733   4.653   6.069   7.156  0.4215 -0.7537 -1.6517
 6392TIP3   OH240734   1.162   4.038   7.831  0.0344 -0.7429 -0.1927
 6392TIP3    H140735   1.233   4.080   7.782  0.5136 -2.5362 -1.1356
 6392TIP3    H240736   1.083   4.084   7.803  0.5869 -0.1273 -0.7807
 6393TIP3   OH240737   5.156   6.212   1.465 -0.3049 -0.6974 -0.4190
 6393TIP3    H140738   5.150   6.239   1.374 -1.6967 -0.3868 -0.2638
 6393TIP3    H240739   5.069   6.175   1.485  0.0292 -0.9145  0.7259
 6394TIP3   OH240740   5.394   5.346   7.397  0.0796  0.1118  0.3715
 6394TIP3    H140741   5.315   5.294   7.378  0.2915 -0.2554  0.4835
 6394TIP3    H240742   5.364   5.437   7.395 -0.1737  0.0188 -0.4269
 6395TIP3   OH240743   3.649   1.531   0.992  0.0016  0.3695 -0.2865
 6395TIP3    H140744   3.639   1.508   0.900  0.4152  1.9247 -0.7424
 6395TIP3    H240745   3.739   1.564   0.999  0.5723 -1.2553  1.0435
 6396TIP3   OH240746   6.112   6.265   1.084 -0.0305 -0.0252  0.0701
 6396TIP3    H140747   6.036   6.213   1.060 -2.0340  1.5485  2.5309
 6396TIP3    H240748   6.186   6.220   1.044 -1.9773 -2.9627 -0.4705
 6397TIP3   OH240749   5.094   1.989   0.340 -0.4626 -0.1181  0.5858
 6397TIP3    H140750   5.028   1.949   0.283  0.2426 -1.2323  0.5201
 6397TIP3    H240751   5.050   1.999   0.424 -1.6798  1.9829 -0.2037
 6398TIP3   OH240752   3.158   2.851   7.541 -1.0471 -0.4244  0.2937
 6398TIP3    H140753   3.083   2.832   7.597 -1.2661  0.6000  0.3554
 6398TIP3    H240754   3.224   2.887   7.601 -1.1762  0.3958 -0.0504
 6399TIP3   OH240755   0.244   6.063   1.188 -0.5801  0.3777 -0.1289
 6399TIP3    H140756   0.216   6.069   1.279 -1.1210 -2.3333 -0.0380
 6399TIP3    H240757   0.163   6.049   1.139 -0.2016  0.9139 -0.9340
 6400TIP3   OH240758   1.029   1.053   0.286 -0.5928  0.0861 -0.6837
 6400TIP3    H140759   1.017   1.067   0.380 -0.0673  0.6708 -0.6968
 6400TIP3    H240760   0.941   1.062   0.249 -0.6362  0.9921 -0.3852
 6401TIP3   OH240761   3.622   6.808   2.110  0.1210  0.2287 -0.1219
 6401TIP3    H140762   3.636   6.903   2.103 -1.0161  0.6084  1.7490
 6401TIP3    H240763   3.593   6.796   2.201 -2.1398 -1.5728 -0.9778
 6402TIP3   OH240764   2.760   1.134   7.331 -0.4219 -0.1743  0.1399
 6402TIP3    H140765   2.754   1.124   7.237 -0.8365  0.1552  0.1263
 6402TIP3    H240766   2.679   1.096   7.365 -1.3444  1.7196  0.1840
 6403TIP3   OH240767   5.526   4.514   1.870 -0.6852  0.6635  0.6117
 6403TIP3    H140768   5.606   4.494   1.821 -1.7172 -0.6700 -0.5918
 6403TIP3    H240769   5.499   4.430   1.907 -1.7130  1.0327  0.7338
 6404TIP3   OH240770   3.060   2.388   7.559 -0.1054 -0.5596  0.1222
 6404TIP3    H140771   2.981   2.382   7.506 -0.1544 -1.2873  0.2654
 6404TIP3    H240772   3.028   2.410   7.647  0.0653  1.9867 -0.3766
 6405TIP3   OH240773   4.268   2.629   2.109  0.3533  0.2847 -0.0490
 6405TIP3    H140774   4.220   2.672   2.038  1.2471 -2.3214 -2.4184
 6405TIP3    H240775   4.207   2.563   2.142  1.2114 -1.1343 -1.1567
 6406TIP3   OH240776   0.435   0.136   1.062  0.2776 -0.2130  0.2524
 6406TIP3    H140777   0.477   0.206   1.012  0.4832 -0.0960  0.5869
 6406TIP3    H240778   0.468   0.056   1.023 -1.0008 -0.1539 -1.0329
 6407TIP3   OH240779   4.844   6.391   8.411  0.5078  0.0017  0.1998
 6407TIP3    H140780   4.767   6.438   8.444 -0.4894 -1.2819 -0.2356
 6407TIP3    H240781   4.868   6.331   8.482  1.3748  0.6659  0.4911
 6408TIP3   OH240782   1.410   0.924   2.007  0.2450  0.2004 -0.2029
 6408TIP3    H140783   1.368   0.866   2.070 -0.0537 -0.1106 -0.6859
 6408TIP3    H240784   1.477   0.970   2.058  1.2965 -1.4149 -0.0468
 6409TIP3   OH240785   0.248   4.434   8.550 -0.2732 -0.0498 -0.0052
 6409TIP3    H140786   0.238   4.339   8.551  0.0632 -0.0866  0.0660
 6409TIP3    H240787   0.182   4.465   8.487  0.2030 -0.3980 -0.6873
 6410TIP3   OH240788   0.581   1.361   0.706  0.6422  0.3687  0.3472
 6410TIP3    H140789   0.622   1.439   0.670 -0.4779  0.5696 -0.5450
 6410TIP3    H240790   0.548   1.314   0.630  0.8960 -0.7504  0.9061
 6411TIP3   OH240791   6.010   3.095   0.967  0.0986  0.1302 -0.3075
 6411TIP3    H140792   5.926   3.115   1.010 -0.2204 -0.3899 -0.6702
 6411TIP3    H240793   6.040   3.179   0.934 -0.5164  0.2521 -0.5771
 6412TIP3   OH240794   2.203   2.044   0.495 -0.5757  0.0967 -0.0746
 6412TIP3    H140795   2.251   2.061   0.576 -0.0875 -0.1562 -0.3050
 6412TIP3    H240796   2.242   2.105   0.431 -2.8494  2.3545  0.5299
 6413TIP3   OH240797   1.955   3.895   7.580  0.4343  0.2121  0.0227
 6413TIP3    H140798   1.891   3.952   7.623 -0.1065 -0.6611  0.4012
 6413TIP3    H240799   2.040   3.933   7.603  0.0896  0.8406  0.2938
 6414TIP3   OH240800   2.167   6.100   6.638  0.3290  0.1141 -0.3652
 6414TIP3    H140801   2.098   6.165   6.647  0.3776  0.1433 -0.2064
 6414TIP3    H240802   2.221   6.111   6.716  0.0333 -0.4806 -0.0666
 6415TIP3   OH240803   1.659   6.556   8.591  0.0459  0.3969  0.2834
 6415TIP3    H140804   1.716   6.563   8.515  0.9114 -1.0068  0.7619
 6415TIP3    H240805   1.698   6.486   8.644 -1.9507 -0.4264  0.7772
 6416TIP3   OH240806   3.099   0.137   0.084 -0.1279  0.0176  0.4198
 6416TIP3    H140807   3.116   0.228   0.062 -1.4314  0.0484 -0.5548
 6416TIP3    H240808   3.027   0.111   0.027  0.3156 -1.6757  0.5730
 6417TIP3   OH240809   3.571   0.017   8.095  0.4948 -0.0779 -0.4421
 6417TIP3    H140810   3.652  -0.012   8.136  0.5084  0.7198  0.1234
 6417TIP3    H240811   3.571   0.112   8.106 -0.2798 -0.0165 -0.8748
 6418TIP3   OH240812   5.993   6.162   7.941  0.3032 -0.3326  0.5653
 6418TIP3    H140813   6.060   6.166   8.010  1.0248 -0.9622 -0.0692
 6418TIP3    H240814   5.970   6.069   7.936 -1.5206  0.0318  1.5889
 6419TIP3   OH240815   0.262   4.237   6.763 -0.4425 -0.1882  0.0580
 6419TIP3    H140816   0.280   4.204   6.851 -0.4323 -2.5680 -0.7636
 6419TIP3    H240817   0.325   4.308   6.751 -1.4802  1.3021  2.4893
 6420TIP3   OH240818   3.379   3.770   6.738  0.0396 -0.0689 -0.0500
 6420TIP3    H140819   3.350   3.710   6.807  1.2509 -0.2374  0.3461
 6420TIP3    H240820   3.473   3.753   6.731  0.0945  0.6283 -1.0875
 6421TIP3   OH240821   5.343   1.618   0.130  0.0682 -0.2663 -0.0176
 6421TIP3    H140822   5.282   1.580   0.193 -1.7907  0.0725 -1.5066
 6421TIP3    H240823   5.301   1.604   0.045  2.4179 -0.6090 -1.1995
 6422TIP3   OH240824   0.554   3.960   7.243 -0.1121  0.0236 -0.3697
 6422TIP3    H140825   0.539   4.008   7.324 -0.8739  0.5446 -0.8116
 6422TIP3    H240826   0.624   3.898   7.264 -2.0571 -1.7061  1.4442
 6423TIP3   OH240827   4.903   3.955   0.576 -0.3724  0.5442 -0.5370
 6423TIP3    H140828   4.917   4.042   0.613  1.7980 -0.1743  0.5092
 6423TIP3    H240829   4.969   3.948   0.507 -2.4438  0.7547 -2.6733
 6424TIP3   OH240830   4.529   3.475   6.762  0.2801 -0.1035  0.5906
 6424TIP3    H140831   4.462   3.516   6.817  1.5879  1.0745  1.3811
 6424TIP3    H240832   4.609   3.483   6.813  1.2078 -0.6015 -0.7490
 6425TIP3   OH240833   4.493   4.295   0.215  0.8400  0.2849  0.3322
 6425TIP3    H140834   4.464   4.206   0.193  0.1847  0.7155 -0.6184
 6425TIP3    H240835   4.577   4.304   0.170 -0.3557  1.0568 -1.8781
 6426TIP3   OH240836   5.787   2.535   7.227 -0.0253 -0.1086  0.4301
 6426TIP3    H140837   5.711   2.506   7.279  1.0149  0.9580  2.6888
 6426TIP3    H240838   5.861   2.525   7.287  1.6958 -1.2600 -1.7682
 6427TIP3   OH240839   4.140   4.888   8.458  0.0385  0.1470  0.2216
 6427TIP3    H140840   4.160   4.968   8.506  0.0548  1.3405 -1.7065
 6427TIP3    H240841   4.200   4.887   8.384  1.2876 -2.6133  1.1329
 6428TIP3   OH240842   5.249   1.505   8.024  0.1772  0.4275 -0.1936
 6428TIP3    H140843   5.335   1.528   7.991  0.9613 -0.5388  1.0747
 6428TIP3    H240844   5.260   1.499   8.119 -1.6883  1.8933  0.1742
 6429TIP3   OH240845   4.842   1.467   2.194  0.0650 -0.1568  0.3366
 6429TIP3    H140846   4.779   1.396   2.207  0.3037 -0.8842 -2.0365
 6429TIP3    H240847   4.802   1.523   2.128  0.3547  1.3947  1.4101
 6430TIP3   OH240848   6.209   1.402   0.797  0.2509  0.1451 -0.5957
 6430TIP3    H140849   6.183   1.352   0.875  0.2186  1.9043  0.5723
 6430TIP3    H240850   6.294   1.364   0.771 -1.1152 -2.4692 -1.5908
 6431TIP3   OH240851   0.615   3.254   2.151  0.3205 -0.2708  0.1913
 6431TIP3    H140852   0.596   3.163   2.171  1.8570 -0.1914  2.3045
 6431TIP3    H240853   0.529   3.294   2.136 -0.3890 -1.9639 -0.4324
 6432TIP3   OH240854   3.168   4.566   1.259 -0.1709 -0.3936  0.1694
 6432TIP3    H140855   3.260   4.567   1.234 -0.2129 -1.5533 -0.1025
 6432TIP3    H240856   3.122   4.534   1.180 -0.6663 -0.9549  0.6735
 6433TIP3   OH240857   5.603   5.542   6.648 -0.0444 -0.0607 -0.2971
 6433TIP3    H140858   5.550   5.588   6.582 -0.0060  0.2893 -0.0843
 6433TIP3    H240859   5.692   5.575   6.634 -0.2813  1.1291  0.9031
 6434TIP3   OH240860   1.205   6.149   8.698  0.1709 -0.5987  0.2847
 6434TIP3    H140861   1.273   6.187   8.642 -0.0266 -1.4265 -0.5327
 6434TIP3    H240862   1.179   6.068   8.653 -1.1527 -0.4399  0.7192
 6435TIP3   OH240863   0.636   0.871   8.273 -0.6805 -0.1306 -0.4782
 6435TIP3    H140864   0.546   0.897   8.254 -1.1404  0.0760  1.7139
 6435TIP3    H240865   0.683   0.953   8.285 -0.4057 -0.2465 -0.7466
 6436TIP3   OH240866   6.155   3.945   8.051  0.2163  0.1132 -0.0313
 6436TIP3    H140867   6.212   3.999   7.997 -0.7044 -0.5976 -1.7955
 6436TIP3    H240868   6.114   3.884   7.990  0.6805 -2.1531  1.7489
 6437TIP3   OH240869   6.147   0.023   1.274 -0.0255  1.0346  0.3845
 6437TIP3    H140870   6.088   0.098   1.277  0.3122  1.3043  0.3226
 6437TIP3    H240871   6.225   0.055   1.229  0.3711  0.8284  0.9066
 6438TIP3   OH240872   4.874   0.740   0.974  0.2630  0.0428  0.0068
 6438TIP3    H140873   4.921   0.823   0.985  1.5910 -0.7741  0.7208
 6438TIP3    H240874   4.842   0.719   1.062  2.2156 -1.4872  0.4147
 6439TIP3   OH240875   0.908   0.757   1.339 -0.2580  0.5914  0.2012
 6439TIP3    H140876   0.991   0.714   1.320 -0.5912  0.4602 -1.0189
 6439TIP3    H240877   0.898   0.821   1.269 -0.8083  1.1626  0.7882
 6440TIP3   OH240878   0.309   6.399   6.792  0.1444 -0.3940  0.0275
 6440TIP3    H140879   0.323   6.447   6.711 -2.3607 -1.0407 -0.8653
 6440TIP3    H240880   0.246   6.452   6.841 -0.0483 -1.0769  0.5480
 6441TIP3   OH240881   4.168   2.666   0.802  0.4225  0.1862  0.8092
 6441TIP3    H140882   4.106   2.739   0.811  0.3397 -0.1212  3.6024
 6441TIP3    H240883   4.214   2.664   0.886  1.0522 -2.4298  0.4693
 6442TIP3   OH240884   4.707   4.459   0.338  0.0587  0.2999 -0.2335
 6442TIP3    H140885   4.761   4.506   0.402 -0.2677  0.8997 -0.3903
 6442TIP3    H240886   4.751   4.474   0.254  0.0676  0.1459 -0.2564
 6443TIP3   OH240887   5.301   3.611   7.678  0.4545  0.4268 -0.6595
 6443TIP3    H140888   5.353   3.635   7.755  0.8571  0.7213 -1.0196
 6443TIP3    H240889   5.363   3.615   7.605  0.7022 -2.2537 -0.6833
 6444TIP3   OH240890   5.140   5.084   0.954 -0.1873 -0.1206 -0.3704
 6444TIP3    H140891   5.100   5.170   0.941  1.8320  0.9881  0.2762
 6444TIP3    H240892   5.132   5.041   0.869 -1.0913  0.7587 -0.7539
 6445TIP3   OH240893   0.932   6.777   0.600  0.1439  0.5217 -0.2355
 6445TIP3    H140894   0.949   6.840   0.531  1.7810  0.5509  0.1403
 6445TIP3    H240895   0.930   6.692   0.556 -1.3283  0.7565 -0.6413
 6446TIP3   OH240896   5.164   4.133   0.470 -0.4443  0.1498 -0.0779
 6446TIP3    H140897   5.146   4.150   0.377  0.7639 -0.5904 -0.4730
 6446TIP3    H240898   5.165   4.038   0.477  0.8852  0.1701  0.3738
 6447TIP3   OH240899   2.887   3.694   0.825  0.5284  0.3902  0.3066
 6447TIP3    H140900   2.926   3.634   0.761 -0.4992 -0.0435  0.0586
 6447TIP3    H240901   2.795   3.700   0.799  0.2948  0.9215  1.2116
 6448TIP3   OH240902   6.236   4.571   6.461  0.0293 -0.2694  0.0009
 6448TIP3    H140903   6.318   4.617   6.480 -0.4218  0.9822 -0.9279
 6448TIP3    H240904   6.176   4.640   6.433 -1.7103 -0.9969  1.6962
 6449TIP3   OH240905   5.950   3.296   8.583  0.3760 -0.0899  0.0115
 6449TIP3    H140906   5.892   3.349   8.636 -1.6615 -2.7821  0.7005
 6449TIP3    H240907   5.927   3.317   8.493 -1.5381 -0.8673  0.2730
 6450TIP3   OH240908   2.535   2.172   1.255 -0.3462  0.2107  0.5906
 6450TIP3    H140909   2.583   2.089   1.245 -2.0738 -0.8292  0.5776
 6450TIP3    H240910   2.452   2.157   1.212  0.4415  3.0850 -2.2472
 6451TIP3   OH240911   3.792   5.422   1.194 -0.1453  0.3330  0.2255
 6451TIP3    H140912   3.782   5.339   1.148 -0.9113 -0.2584  1.4170
 6451TIP3    H240913   3.814   5.485   1.125  2.8279 -1.2502 -0.4482
 6452TIP3   OH240914   5.682   2.010   1.650 -0.1669  0.0003  0.6130
 6452TIP3    H140915   5.760   1.958   1.631 -1.4619 -2.4169  1.5881
 6452TIP3    H240916   5.688   2.030   1.743  0.8962  2.8013  0.0711
 6453TIP3   OH240917   4.001   3.993   7.747  0.3612  0.0094  0.0497
 6453TIP3    H140918   3.989   3.920   7.686 -0.3020 -0.8219  1.1277
 6453TIP3    H240919   3.923   4.047   7.735  0.0247 -0.3798  0.4427
 6454TIP3   OH240920   5.428   4.255   8.112 -0.0121  0.8197  0.4253
 6454TIP3    H140921   5.380   4.336   8.129  1.9822  1.8936  1.2806
 6454TIP3    H240922   5.513   4.268   8.155  1.1553 -0.8835 -1.2155
 6455TIP3   OH240923   1.182   1.754   0.024  0.2186  0.1645  0.0233
 6455TIP3    H140924   1.238   1.690   0.067  0.3581 -0.5594 -1.1808
 6455TIP3    H240925   1.109   1.768   0.084  2.4108  2.3204  2.3832
 6456TIP3   OH240926   3.706   6.391   7.696  0.3264 -0.2609  0.1247
 6456TIP3    H140927   3.698   6.481   7.664  0.5470  0.2774  1.5343
 6456TIP3    H240928   3.677   6.395   7.787  3.3359 -0.9375  1.2237
 6457TIP3   OH240929   2.141   1.135   0.944 -0.0847 -0.5215  0.2175
 6457TIP3    H140930   2.204   1.067   0.922 -0.0723 -0.1566 -0.8876
 6457TIP3    H240931   2.189   1.217   0.936 -0.2019 -0.3419  1.1891
 6458TIP3   OH240932   4.743   4.188   7.704  0.2583 -0.2338 -0.5728
 6458TIP3    H140933   4.757   4.276   7.669 -1.4716 -0.4735 -2.0357
 6458TIP3    H240934   4.707   4.139   7.630  1.4489 -2.2636  0.1204
 6459TIP3   OH240935   5.485   0.464   1.648 -0.5013  0.4086  0.1194
 6459TIP3    H140936   5.512   0.392   1.705 -0.6230  1.0161  0.9702
 6459TIP3    H240937   5.391   0.473   1.664 -0.7566 -0.1120 -1.0001
 6460TIP3   OH240938   5.070   3.203   8.700  0.2541 -0.3474  0.5774
 6460TIP3    H140939   5.019   3.233   8.776  0.8984 -2.0676  1.7555
 6460TIP3    H240940   5.066   3.107   8.705  0.1446 -0.5183 -1.7110
 6461TIP3   OH240941   3.367   2.833   2.886 -0.0604  0.3765  0.4809
 6461TIP3    H140942   3.447   2.798   2.845 -0.4783 -2.1956  1.6498
 6461TIP3    H240943   3.296   2.789   2.840 -0.8397  2.2620 -0.1920
 6462TIP3   OH240944   1.231   2.020   7.707  0.1814 -0.6871  0.6505
 6462TIP3    H140945   1.217   2.072   7.628 -0.2947 -0.7914  0.6640
 6462TIP3    H240946   1.218   1.929   7.678  0.9311 -0.7944  0.6419
 6463TIP3   OH240947   3.103   1.761   7.116 -0.0635  0.1412  0.1066
 6463TIP3    H140948   3.167   1.766   7.186 -2.3583 -1.3698  2.5246
 6463TIP3    H240949   3.082   1.852   7.096  1.6816  0.6196  0.3166
 6464TIP3   OH240950   1.215   0.651   0.396  0.0551  0.3842 -0.9835
 6464TIP3    H140951   1.288   0.645   0.335  1.0188  0.9914  0.0674
 6464TIP3    H240952   1.218   0.741   0.429  0.7829 -0.4026  1.3380
 6465TIP3   OH240953   4.735   4.208   8.720  0.4486  0.2448  0.7303
 6465TIP3    H140954   4.802   4.150   8.684  1.2458  0.5424  1.6839
 6465TIP3    H240955   4.662   4.150   8.743  1.1872 -0.3908  1.5568
 6466TIP3   OH240956   6.302   2.969   8.643  0.1156  0.0202 -0.0034
 6466TIP3    H140957   6.389   2.993   8.610  0.3493 -0.5596  0.1749
 6466TIP3    H240958   6.247   2.962   8.566  0.0221  1.1849 -0.0579
 6467TIP3   OH240959   2.581   2.559   1.215  1.0490  0.5273 -0.0998
 6467TIP3    H140960   2.511   2.618   1.243  0.9181  0.6913 -0.7634
 6467TIP3    H240961   2.633   2.610   1.154  1.9573  0.5146  0.6318
 6468TIP3   OH240962   5.579   1.356   0.635  0.3169 -0.5014  0.1297
 6468TIP3    H140963   5.591   1.402   0.552 -1.7586 -1.3926 -0.7159
 6468TIP3    H240964   5.668   1.338   0.665  1.1764  2.1131 -0.5489
 6469TIP3   OH240965   5.586   2.049   7.240  0.0877  0.2163  0.8767
 6469TIP3    H140966   5.657   2.028   7.300  0.3597 -0.4152  0.3444
 6469TIP3    H240967   5.528   1.973   7.244  0.0639  0.2057  0.4156
 6470TIP3   OH240968   3.800   1.939   8.452 -0.0397 -0.3086  0.3357
 6470TIP3    H140969   3.826   1.932   8.544 -0.4720 -1.8656  0.3734
 6470TIP3    H240970   3.801   1.849   8.420  2.9614  0.3997 -2.0434
 6471TIP3   OH240971   3.461   0.493   7.552 -0.0571 -0.5214  0.0339
 6471TIP3    H140972   3.427   0.513   7.639 -2.2870 -0.9255 -0.6788
 6471TIP3    H240973   3.510   0.572   7.527 -1.2387  0.5012  0.8008
 6472TIP3   OH240974   0.805   0.244   6.815 -0.3611  0.6475  1.1228
 6472TIP3    H140975   0.730   0.304   6.804 -2.1260 -1.8139 -2.0740
 6472TIP3    H240976   0.783   0.192   6.892 -2.0971 -0.1040  0.1741
 6473TIP3   OH240977   2.345   4.325   1.334  0.4173  0.1806  0.4829
 6473TIP3    H140978   2.347   4.347   1.427 -0.8047 -2.2931  1.1828
 6473TIP3    H240979   2.391   4.241   1.328 -2.4818 -1.4993 -0.4670
 6474TIP3   OH240980   2.368   0.355   1.033  0.4578  0.2636 -0.3163
 6474TIP3    H140981   2.313   0.279   1.053  0.8646  0.0715  0.0924
 6474TIP3    H240982   2.386   0.395   1.118  2.8772 -1.0242 -0.1496
 6475TIP3   OH240983   0.357   4.901   0.649 -0.2689 -0.5819  0.0747
 6475TIP3    H140984   0.383   4.981   0.605  0.2190 -1.3839 -1.1173
 6475TIP3    H240985   0.433   4.876   0.702 -0.6637  0.0839  0.9978
 6476TIP3   OH240986   3.295   1.600   7.548 -0.6732 -0.2521 -0.0695
 6476TIP3    H140987   3.346   1.586   7.628 -0.0743 -0.8072 -0.5312
 6476TIP3    H240988   3.232   1.528   7.546 -0.2813 -0.5904 -0.4004
 6477TIP3   OH240989   0.752   2.301   1.969 -0.0510 -0.1024 -0.3390
 6477TIP3    H140990   0.681   2.364   1.979 -0.4315 -0.4452 -0.8135
 6477TIP3    H240991   0.774   2.276   2.058 -0.5118  0.0286 -0.1822
 6478TIP3   OH240992   3.773   1.137   0.619  0.4770  0.1628 -0.1509
 6478TIP3    H140993   3.710   1.202   0.587 -0.8925 -1.0505 -0.0052
 6478TIP3    H240994   3.789   1.080   0.544 -0.6011 -1.0499  0.5146
 6479TIP3   OH240995   3.496   3.202   2.242  0.1340  0.5854  0.3736
 6479TIP3    H140996   3.516   3.261   2.315 -0.4890  2.2752 -0.7426
 6479TIP3    H240997   3.402   3.185   2.250  0.3970 -0.7290  0.9748
 6480TIP3   OH240998   2.041   5.841   7.078 -0.2155  0.2315 -0.2014
 6480TIP3    H140999   2.107   5.790   7.030  1.0443  2.4708 -0.9966
 6480TIP3    H241000   1.992   5.886   7.010  0.3847  2.0181  0.5004
 6481TIP3   OH241001   4.422   6.069   1.183 -0.0528 -0.0558 -0.0729
 6481TIP3    H141002   4.378   6.122   1.116  0.1398  1.7582  1.1659
 6481TIP3    H241003   4.358   6.001   1.205 -0.0961 -0.7301 -2.0972
 6482TIP3   OH241004   5.130   2.972   1.077  0.4651 -0.0984  0.4351
 6482TIP3    H141005   5.206   3.021   1.046  1.0186  0.1764  2.1271
 6482TIP3    H241006   5.144   2.883   1.045  1.4781 -0.0328  0.6600
 6483TIP3   OH241007   3.768   3.807   8.022  0.6547  0.2563  0.5196
 6483TIP3    H141008   3.761   3.870   7.950  0.8924 -0.0919  0.1827
 6483TIP3    H241009   3.761   3.860   8.101 -0.2038  0.5828  0.2472
 6484TIP3   OH241010   1.090   1.801   1.536 -0.1333  0.5203  0.7921
 6484TIP3    H141011   1.062   1.711   1.550 -0.4721  0.5876  0.5670
 6484TIP3    H241012   1.185   1.796   1.528 -0.2713 -0.0615 -0.8917
 6485TIP3   OH241013   1.769   5.555   1.757  0.5442  0.6600 -0.2532
 6485TIP3    H141014   1.835   5.489   1.780 -0.4502 -0.1642  0.3595
 6485TIP3    H241015   1.686   5.512   1.775 -0.1326  2.3561  0.9090
 6486TIP3   OH241016   2.729   6.278   7.994  0.1430 -0.0092 -0.2753
 6486TIP3    H141017   2.782   6.295   7.917 -1.6395 -1.3934 -1.8924
 6486TIP3    H241018   2.767   6.199   8.033 -0.9028 -1.2642 -1.6871
 6487TIP3   OH241019   2.585   6.288   6.348 -0.1958  0.2990  0.8109
 6487TIP3    H141020   2.642   6.237   6.405 -0.7127  0.7500  1.7677
 6487TIP3    H241021   2.497   6.254   6.365 -0.1252 -1.3931 -1.7232
 6488TIP3   OH241022   3.675   6.572   8.234  0.0987  0.2509 -0.0475
 6488TIP3    H141023   3.694   6.659   8.269 -0.9099  0.5385 -0.1843
 6488TIP3    H241024   3.626   6.528   8.304  0.3590 -0.1164 -0.0905
 6489TIP3   OH241025   4.650   4.872   2.721  0.0110  0.2042 -0.3407
 6489TIP3    H141026   4.652   4.805   2.653  1.8122  2.0003 -2.1872
 6489TIP3    H241027   4.736   4.868   2.762 -1.1043 -0.9723  2.0784
 6490TIP3   OH241028   4.405   1.212   8.203 -0.1967  0.3110  0.2830
 6490TIP3    H141029   4.455   1.265   8.141  0.8474 -0.6895  0.2463
 6490TIP3    H241030   4.361   1.276   8.259  1.3093  1.2387  0.4691
 6491TIP3   OH241031   3.880   2.582   1.829  0.2979 -0.0015 -0.3882
 6491TIP3    H141032   3.938   2.654   1.850 -0.6074  0.8030 -0.5595
 6491TIP3    H241033   3.833   2.610   1.751 -1.7837  0.2864  0.8876
 6492TIP3   OH241034   4.647   6.259   8.000 -0.1315  0.2567  0.2269
 6492TIP3    H141035   4.596   6.336   8.024 -0.0196  0.3274  0.2405
 6492TIP3    H241036   4.725   6.264   8.056  1.0908  1.4738 -1.4616
 6493TIP3   OH241037   2.890   4.010   0.510 -0.3837  0.1585  0.0131
 6493TIP3    H141038   2.974   4.054   0.519  0.3904 -0.9816 -1.2266
 6493TIP3    H241039   2.894   3.937   0.571 -0.0815 -0.4303 -0.6947
 6494TIP3   OH241040   1.494   1.578   1.186 -0.4595  0.0578 -0.2695
 6494TIP3    H141041   1.525   1.612   1.269  0.6823 -0.2332 -0.5575
 6494TIP3    H241042   1.450   1.652   1.144  2.2475  1.3273 -1.0321
 6495TIP3   OH241043   1.216   5.875   8.519 -0.1863  0.2209  0.3659
 6495TIP3    H141044   1.205   5.833   8.604 -0.3603 -0.8467 -0.1627
 6495TIP3    H241045   1.291   5.832   8.480  0.4349  1.3048  0.3138
 6496TIP3   OH241046   2.729   0.752   1.318  0.0598  0.3534 -0.1180
 6496TIP3    H141047   2.808   0.698   1.319  0.4179  0.8772  0.1250
 6496TIP3    H241048   2.657   0.689   1.311  0.5425 -0.0759 -1.7613
 6497TIP3   OH241049   2.049   0.465   1.472  0.5425 -0.0259 -0.4160
 6497TIP3    H141050   2.110   0.477   1.545  0.9602  1.6322 -0.9914
 6497TIP3    H241051   2.097   0.412   1.409  0.3923 -0.9690  0.2306
 6498TIP3   OH241052   2.332   4.801   0.838 -0.7462  0.8681 -0.8119
 6498TIP3    H141053   2.394   4.752   0.891 -3.1695 -0.4807  0.9533
 6498TIP3    H241054   2.384   4.873   0.801  2.4866 -1.7543 -1.8646
 6499TIP3   OH241055   5.822   2.148   0.138  0.2249 -0.3349 -0.2353
 6499TIP3    H141056   5.828   2.142   0.234  0.1849 -2.6397 -0.3262
 6499TIP3    H241057   5.743   2.098   0.116 -0.5427  1.3073 -1.4237
 6500TIP3   OH241058   2.811   3.740   0.268 -0.2318  0.5788 -0.3572
 6500TIP3    H141059   2.789   3.649   0.289  0.0302  0.7362  0.6519
 6500TIP3    H241060   2.843   3.737   0.178 -0.9209 -0.2139 -0.5839
 6501TIP3   OH241061   1.953   4.467   8.165 -0.3347 -0.1959 -0.0663
 6501TIP3    H141062   1.872   4.516   8.150  0.4281  1.0049 -0.4322
 6501TIP3    H241063   1.924   4.379   8.188 -1.7263 -0.1113 -1.3183
 6502TIP3   OH241064   1.760   5.306   6.996  0.1051  0.0495 -0.3228
 6502TIP3    H141065   1.691   5.265   7.047  1.6678 -0.2867  1.6268
 6502TIP3    H241066   1.745   5.274   6.907 -2.7661  0.7357 -0.1981
 6503TIP3   OH241067   1.133   5.315   7.997  0.2065 -0.3182  0.1351
 6503TIP3    H141068   1.129   5.298   8.091 -0.5503 -1.0778 -0.0273
 6503TIP3    H241069   1.043   5.309   7.967  0.4607 -0.2788 -0.6739
 6504TIP3   OH241070   2.016   0.654   1.146  0.6553  0.1012 -0.5283
 6504TIP3    H141071   1.973   0.683   1.066  0.2147 -0.7459 -0.6072
 6504TIP3    H241072   1.947   0.659   1.213  0.9531  0.5613 -0.2525
 6505TIP3   OH241073   5.347   2.239   0.784  0.2063 -0.2951  0.5312
 6505TIP3    H141074   5.277   2.175   0.770  1.0256 -0.9686 -0.7002
 6505TIP3    H241075   5.411   2.193   0.839  0.2911 -0.1536  0.5508
 6506TIP3   OH241076   3.181   5.895   1.575  0.0167 -0.2601  0.2896
 6506TIP3    H141077   3.275   5.902   1.560  0.0720 -0.4895  0.5243
 6506TIP3    H241078   3.142   5.896   1.487  0.1668  0.8158  0.2176
 6507TIP3   OH241079   3.561   0.947   8.483 -0.2040  0.0896  0.0937
 6507TIP3    H141080   3.556   0.877   8.418  0.2544  0.7336 -0.6546
 6507TIP3    H241081   3.647   0.986   8.470 -1.3766  2.4445 -1.2759
 6508TIP3   OH241082   3.575   4.995   1.249  0.4913 -0.0549 -1.1644
 6508TIP3    H141083   3.528   4.935   1.191 -1.3729 -0.5255  0.7043
 6508TIP3    H241084   3.634   4.939   1.299 -0.2422 -0.1639 -0.3953
 6509TIP3   OH241085   2.353   0.129   6.656  0.0784  0.4120  0.0612
 6509TIP3    H141086   2.351   0.216   6.698  0.5433  0.7430 -0.5999
 6509TIP3    H241087   2.445   0.103   6.658  0.2316  0.7545 -1.3930
 6510TIP3   OH241088   6.505   1.663   1.129 -0.0816 -0.4352 -0.5874
 6510TIP3    H141089   6.529   1.582   1.175  0.0626  0.2664  0.6281
 6510TIP3    H241090   6.466   1.633   1.047 -0.7453 -1.7613  0.1680
 6511TIP3   OH241091   4.456   1.166   8.500  0.2943 -0.0853 -0.1068
 6511TIP3    H141092   4.527   1.209   8.451  0.5690  1.0650  1.2350
 6511TIP3    H241093   4.381   1.224   8.488 -0.6339 -1.5863 -1.9815
 6512TIP3   OH241094   1.387   0.900   8.697  0.0558 -0.0357 -0.3439
 6512TIP3    H141095   1.476   0.899   8.732 -0.2798  2.0705  0.7614
 6512TIP3    H241096   1.334   0.862   8.767  0.0594 -1.3372 -1.0226
 6513TIP3   OH241097   2.600   4.012   8.148 -0.0304  0.7005  0.2785
 6513TIP3    H141098   2.664   4.024   8.218 -0.8417 -0.2117  1.2111
 6513TIP3    H241099   2.627   3.932   8.104 -1.6992 -0.9795  2.0876
 6514TIP3   OH241100   4.703   1.235   8.379  0.0130  0.3279  0.1142
 6514TIP3    H141101   4.770   1.300   8.356 -0.8469  0.9477 -0.7291
 6514TIP3    H241102   4.749   1.171   8.433  1.2328  0.8537 -0.2666
 6515TIP3   OH241103   6.564   3.937   8.631 -0.0675 -0.5483  0.0706
 6515TIP3    H141104   6.551   3.971   8.719  1.0223 -0.2008  0.1081
 6515TIP3    H241105   6.627   3.997   8.591 -1.9856  0.4573 -1.6243
 6516TIP3   OH241106   5.965   3.441   1.878  0.0167 -0.3328 -0.1915
 6516TIP3    H141107   5.928   3.357   1.849  2.9799 -1.2191 -1.9261
 6516TIP3    H241108   5.980   3.430   1.972 -0.4301 -1.4373 -0.2332
 6517TIP3   OH241109   3.205   5.683   7.582  0.4157 -0.1452 -0.0787
 6517TIP3    H141110   3.287   5.718   7.615 -0.7670  1.9060  0.9059
 6517TIP3    H241111   3.141   5.704   7.650 -1.2403 -0.0530 -1.6001
 6518TIP3   OH241112   5.251   5.999   6.971  0.6963 -0.1855 -0.0843
 6518TIP3    H141113   5.224   6.058   6.901 -0.1654 -0.3070  0.1425
 6518TIP3    H241114   5.203   5.918   6.954  0.2792 -0.1320  0.7933
 6519TIP3   OH241115   3.747   0.233   1.969 -0.6994  0.3988  0.5048
 6519TIP3    H141116   3.779   0.291   1.900 -1.4407 -1.5736 -1.6614
 6519TIP3    H241117   3.769   0.277   2.051 -0.2353  3.1223 -0.9827
 6520TIP3   OH241118   2.188   3.092   8.662  0.2863  1.0418  0.3283
 6520TIP3    H141119   2.260   3.109   8.601  1.3577 -2.3681  0.4721
 6520TIP3    H241120   2.224   3.113   8.748  0.1880  1.7730  0.2039
 6521TIP3   OH241121   1.562   2.609   2.108 -0.0315  0.1051  1.0144
 6521TIP3    H141122   1.608   2.688   2.137  0.3627 -0.1153  0.9939
 6521TIP3    H241123   1.501   2.640   2.041  2.7471 -0.0869 -1.8110
 6522TIP3   OH241124   5.652   4.717   0.375 -0.5434  0.0627  0.0306
 6522TIP3    H141125   5.595   4.726   0.451  1.2653 -0.7187  1.5367
 6522TIP3    H241126   5.683   4.627   0.378 -0.7761 -0.1305 -1.9238
 6523TIP3   OH241127   6.605   2.930   8.245  0.0684  0.3288 -0.0151
 6523TIP3    H141128   6.694   2.918   8.210  0.0062 -2.7816  0.6017
 6523TIP3    H241129   6.550   2.875   8.190 -0.8376 -0.7160  1.8328
 6524TIP3   OH241130   4.726   4.745   7.624 -0.0318  0.0191  0.0818
 6524TIP3    H141131   4.669   4.679   7.584 -1.0556 -0.8764  2.7608
 6524TIP3    H241132   4.672   4.824   7.629 -0.4920 -0.3385  1.0762
 6525TIP3   OH241133   1.415   4.079   0.036 -0.5571 -0.1760 -0.2976
 6525TIP3    H141134   1.462   4.053   0.115 -0.2767 -0.7512 -0.6487
 6525TIP3    H241135   1.365   4.156   0.062  1.2173  0.9741 -0.1285
 6526TIP3   OH241136   3.976   0.978   7.978  0.5624 -0.0311  0.5815
 6526TIP3    H141137   4.037   0.948   7.912  1.3686 -0.6922  1.5918
 6526TIP3    H241138   4.017   1.058   8.014 -1.0420  1.7641 -1.3412
 6527TIP3   OH241139   3.785   0.577   1.342 -0.0912  0.2895 -0.4365
 6527TIP3    H141140   3.880   0.588   1.349 -0.2130  1.7346 -0.7182
 6527TIP3    H241141   3.758   0.643   1.279 -1.2783 -0.1923 -0.4592
 6528TIP3   OH241142   5.391   6.499   1.816  0.1293  0.1834 -0.3478
 6528TIP3    H141143   5.334   6.565   1.857  0.8674 -0.6989  2.3333
 6528TIP3    H241144   5.338   6.461   1.747 -1.0046  2.2468 -0.6995
 6529TIP3   OH241145   0.456   3.668   8.153  0.0370  0.6304 -0.3209
 6529TIP3    H141146   0.477   3.605   8.223  1.5592 -1.0838 -2.1742
 6529TIP3    H241147   0.374   3.708   8.180  0.6857  0.2452  2.5551
 6530TIP3   OH241148   1.500   3.015   7.977  0.6701  0.2715  0.1609
 6530TIP3    H141149   1.586   3.024   7.937  0.9763 -0.3272  0.6716
 6530TIP3    H241150   1.505   3.064   8.058 -0.3494  2.5489 -1.0760
 6531TIP3   OH241151   5.004   5.478   1.251  0.2359 -0.1546  0.1058
 6531TIP3    H141152   5.043   5.531   1.182 -1.3194  0.9503  0.0206
 6531TIP3    H241153   5.064   5.404   1.262  1.8662  1.0172 -0.5806
 6532TIP3   OH241154   2.345   5.633   1.103  0.2166 -0.4625  0.2105
 6532TIP3    H141155   2.343   5.673   1.017 -2.5936  0.5515  0.6548
 6532TIP3    H241156   2.430   5.660   1.140 -0.5683  3.3437 -0.3735
 6533TIP3   OH241157   6.287   1.498   0.155  0.4736 -0.4044  0.0824
 6533TIP3    H141158   6.268   1.414   0.198 -2.1156  0.4208  0.7135
 6533TIP3    H241159   6.326   1.552   0.223  0.3026 -0.4518  0.2177
 6534TIP3   OH241160   0.831   4.816   7.062 -0.1625 -0.2605 -0.5075
 6534TIP3    H141161   0.791   4.894   7.021 -1.3128 -0.4085  0.2851
 6534TIP3    H241162   0.857   4.845   7.149 -1.0397 -0.8699 -0.0267
 6535TIP3   OH241163   1.190   2.407   7.548  0.5576  0.0877 -0.2169
 6535TIP3    H141164   1.166   2.472   7.483  1.0024  0.9713  0.4704
 6535TIP3    H241165   1.202   2.326   7.499  0.0826  0.5456 -1.1015
 6536TIP3   OH241166   4.384   1.864   8.629 -0.5708 -0.0646  0.0345
 6536TIP3    H141167   4.444   1.865   8.703  0.9258 -0.3584 -1.1224
 6536TIP3    H241168   4.301   1.895   8.665  0.1949  0.1316  1.7386
 6537TIP3   OH241169   5.458   1.475   1.053  0.0219  0.2709  0.3406
 6537TIP3    H141170   5.468   1.566   1.082 -0.5338  1.0357 -1.7319
 6537TIP3    H241171   5.425   1.429   1.130  1.2864  1.5818  1.7380
 6538TIP3   OH241172   5.971   4.192   0.691 -0.0992 -0.9679  0.0711
 6538TIP3    H141173   6.035   4.231   0.751 -0.1905 -1.1606  0.2957
 6538TIP3    H241174   5.901   4.160   0.748 -0.5361 -0.4967 -0.2005
 6539TIP3   OH241175   3.024   1.717   1.405  0.2930  0.2955  0.2350
 6539TIP3    H141176   3.060   1.635   1.370  0.3856  0.3062  0.3037
 6539TIP3    H241177   3.061   1.723   1.493  2.8324  1.9441 -0.8150
 6540TIP3   OH241178   0.094   5.380   8.415  0.2594 -0.4520  0.5851
 6540TIP3    H141179   0.022   5.348   8.360  0.6711 -1.1247  0.4191
 6540TIP3    H241180   0.105   5.471   8.390  1.1140 -1.0015 -1.2259
 6541TIP3   OH241181   2.421   4.341   2.027  0.2736  0.1971 -0.1738
 6541TIP3    H141182   2.397   4.434   2.028  1.0014  0.3901  0.0232
 6541TIP3    H241183   2.517   4.341   2.026  0.2922 -0.5554  0.5342
 6542TIP3   OH241184   3.008   6.250   0.776  0.2105 -0.2640 -0.1713
 6542TIP3    H141185   3.093   6.206   0.776  0.5322  0.3412  0.5351
 6542TIP3    H241186   3.001   6.289   0.863 -2.4260 -3.3795  1.2446
 6543TIP3   OH241187   4.458   3.884   1.672 -0.1748 -0.1715 -0.1237
 6543TIP3    H141188   4.369   3.855   1.653  0.2440 -1.8527  0.2931
 6543TIP3    H241189   4.455   3.912   1.763 -1.2116  3.9000 -1.2381
 6544TIP3   OH241190   1.454   0.600   0.299 -0.0544 -0.6716 -0.3247
 6544TIP3    H141191   1.498   0.541   0.238  1.1918  0.4636 -0.5731
 6544TIP3    H241192   1.519   0.667   0.318 -1.7082  1.1213 -0.7335
 6545TIP3   OH241193   3.832   0.967   6.854  0.2761  0.3518 -0.1927
 6545TIP3    H141194   3.917   0.992   6.818  0.3916 -0.1797 -0.2845
 6545TIP3    H241195   3.789   0.920   6.783  0.3858 -0.4397  0.2576
 6546TIP3   OH241196   3.088   1.558   1.787  0.2094  0.1100 -0.3409
 6546TIP3    H141197   3.173   1.546   1.830  0.7651 -0.4080 -1.5429
 6546TIP3    H241198   3.066   1.650   1.803  0.8428  0.1637  0.2593
 6547TIP3   OH241199   4.169   1.284   6.787 -0.4539 -0.2770 -0.0976
 6547TIP3    H141200   4.240   1.342   6.813 -0.2181 -0.6564  0.1290
 6547TIP3    H241201   4.090   1.337   6.793 -0.3791 -0.2790  1.1703
 6548TIP3   OH241202   2.713   4.170   8.600 -0.2873  0.0738  0.1237
 6548TIP3    H141203   2.702   4.255   8.559  1.7267  0.3439  0.0486
 6548TIP3    H241204   2.633   4.156   8.650 -1.1690  1.4334 -0.8609
 6549TIP3   OH241205   3.960   1.148   7.719  0.7175  0.0779 -0.1814
 6549TIP3    H141206   4.000   1.233   7.700  1.1290 -0.2778 -0.9409
 6549TIP3    H241207   4.029   1.084   7.700  1.8576 -0.2952  4.1648
 6550TIP3   OH241208   5.820   4.589   8.314 -0.3363 -0.3064  0.3378
 6550TIP3    H141209   5.875   4.576   8.237 -0.7083  1.0862 -0.2009
 6550TIP3    H241210   5.823   4.684   8.329 -1.8455 -0.3211  0.8479
 6551TIP3   OH241211   4.141   0.939   2.837  0.2157  0.3035 -0.2577
 6551TIP3    H141212   4.215   0.988   2.873  0.9115  0.0545 -1.2902
 6551TIP3    H241213   4.065   0.973   2.884  1.1129 -0.4100  1.8009
 6552TIP3   OH241214   1.282   4.430   7.776 -0.2847 -0.4685 -0.4077
 6552TIP3    H141215   1.369   4.392   7.791  0.6825  1.5679 -0.6082
 6552TIP3    H241216   1.248   4.447   7.863  0.6664  1.1683 -0.3275
 6553TIP3   OH241217   6.703   0.021   8.244  0.2237  0.0809  0.2615
 6553TIP3    H141218   6.755  -0.033   8.184 -0.4848 -0.0387 -0.2534
 6553TIP3    H241219   6.621  -0.027   8.255  0.5061 -0.1141  1.6795
 6554TIP3   OH241220   0.329   6.570   0.302 -0.0768  0.1166 -0.3043
 6554TIP3    H141221   0.400   6.602   0.248 -1.0059 -0.2666 -1.7994
 6554TIP3    H241222   0.309   6.643   0.361  0.8834  0.5825 -0.5363
 6555TIP3   OH241223   5.034   4.672   7.355 -0.0157  0.9409  0.3828
 6555TIP3    H141224   5.101   4.700   7.418 -0.4477  2.7873  0.0756
 6555TIP3    H241225   5.006   4.753   7.312  0.0009 -0.2035 -1.9529
 6556TIP3   OH241226   2.733   6.567   1.386  0.0462 -0.9675  0.5275
 6556TIP3    H141227   2.733   6.485   1.435 -1.8139 -2.1247 -1.2183
 6556TIP3    H241228   2.715   6.540   1.295  2.0045  1.1735 -0.5866
 6557TIP3   OH241229   4.936   3.842   1.382  0.5898  0.1242 -0.6176
 6557TIP3    H141230   4.861   3.872   1.431  1.0878  1.1773 -0.4788
 6557TIP3    H241231   4.957   3.914   1.323 -0.0948 -1.1557 -2.5298
 6558TIP3   OH241232   2.546   5.343   8.238 -0.0646 -0.0962  0.6641
 6558TIP3    H141233   2.572   5.251   8.239 -0.0995 -0.0981  1.1905
 6558TIP3    H241234   2.558   5.374   8.328 -0.1465  0.3896  0.5148
 6559TIP3   OH241235   5.565   3.575   0.518  0.0037  0.3030 -0.1633
 6559TIP3    H141236   5.602   3.497   0.476  1.2833  0.9051 -0.1999
 6559TIP3    H241237   5.484   3.592   0.470  0.1147 -0.5480 -0.6674
 6560TIP3   OH241238   6.579   4.026   0.178 -0.1772 -0.3002  0.3315
 6560TIP3    H141239   6.649   3.961   0.182 -0.2135 -0.3136  3.3467
 6560TIP3    H241240   6.561   4.048   0.270 -1.8246  2.2119 -0.4723
 6561TIP3   OH241241   2.911   3.505   0.569 -0.1043 -0.5222  0.6928
 6561TIP3    H141242   2.872   3.530   0.485 -0.1766  0.3852  0.9849
 6561TIP3    H241243   2.856   3.433   0.600  1.5559 -2.8322 -1.3169
 6562TIP3   OH241244   6.240   0.565   6.983 -0.1288 -0.4834 -0.2323
 6562TIP3    H141245   6.266   0.614   6.906  0.4526  0.9376  0.8204
 6562TIP3    H241246   6.169   0.617   7.021 -1.7189 -2.1310 -0.7822
 6563TIP3   OH241247   3.709   4.671   1.664  0.0765 -0.4802  0.3682
 6563TIP3    H141248   3.714   4.597   1.724 -1.1270  0.4111  1.6104
 6563TIP3    H241249   3.651   4.734   1.707  0.9724  1.1500 -0.7014
 6564TIP3   OH241250   5.896   2.397   1.632  0.3357  0.0065  0.6383
 6564TIP3    H141251   5.977   2.349   1.648  1.2870  0.1678 -2.8533
 6564TIP3    H241252   5.917   2.488   1.655  0.6611 -0.1920  1.1331
 6565TIP3   OH241253   2.172   5.492   7.651 -0.2262  0.0849 -0.0780
 6565TIP3    H141254   2.244   5.437   7.621  0.8436 -1.0163  3.9341
 6565TIP3    H241255   2.094   5.438   7.637 -0.1000  0.4040 -2.4149
 6566TIP3   OH241256   6.322   6.446   2.244  0.4304  0.0640 -0.1111
 6566TIP3    H141257   6.386   6.429   2.175  1.0414  2.0275 -0.0790
 6566TIP3    H241258   6.340   6.535   2.273 -0.5324 -0.3169  1.8437
 6567TIP3   OH241259   2.528   0.412   1.376  0.0074  0.3048 -0.1027
 6567TIP3    H141260   2.609   0.416   1.426 -0.8905 -0.6937  1.4931
 6567TIP3    H241261   2.465   0.371   1.434 -1.9404  1.9081 -0.9364
 6568TIP3   OH241262   0.029   1.461   8.576  0.0462 -0.8802  0.5643
 6568TIP3    H141263   0.009   1.510   8.496 -0.1139 -0.8458  0.6238
 6568TIP3    H241264   0.114   1.421   8.559 -0.6260 -2.0567 -0.1908
 6569TIP3   OH241265   1.420   6.687   8.245 -0.5090 -0.2488  0.9924
 6569TIP3    H141266   1.409   6.770   8.200 -3.2588 -1.7588 -1.5049
 6569TIP3    H241267   1.514   6.670   8.242 -0.0959  1.9279 -0.0156
 6570TIP3   OH241268   3.037   1.259   6.747  0.1664  0.3709  0.3187
 6570TIP3    H141269   3.067   1.217   6.667  0.8891  0.7074  0.4073
 6570TIP3    H241270   2.973   1.325   6.717 -1.6907 -1.3553  0.2450
 6571TIP3   OH241271   2.924   4.333   8.261 -0.8090  0.4488 -0.1490
 6571TIP3    H141272   2.868   4.365   8.331  1.2748  1.8029  1.0198
 6571TIP3    H241273   2.982   4.406   8.241  1.5686 -1.2907 -0.1551
 6572TIP3   OH241274   3.235   6.630   0.392 -0.1976  0.3704 -0.3396
 6572TIP3    H141275   3.146   6.623   0.357 -0.2048 -2.3486  0.0750
 6572TIP3    H241276   3.226   6.612   0.485  0.7588  0.4637 -0.2211
 6573TIP3   OH241277   6.024   4.907   2.025 -1.1020 -0.0077  0.5600
 6573TIP3    H141278   6.108   4.864   2.042 -0.4639  1.1550  0.4615
 6573TIP3    H241279   5.992   4.931   2.111 -0.1992  1.5867  0.4905
 6574TIP3   OH241280   2.517   0.997   0.221 -0.2491  0.5565  0.6628
 6574TIP3    H141281   2.468   1.045   0.154  0.5271 -1.0288 -1.1097
 6574TIP3    H241282   2.456   0.931   0.253  0.1528 -0.2883 -0.2877
 6575TIP3   OH241283   0.763   3.162   7.618  0.3557  0.9547  0.7968
 6575TIP3    H141284   0.760   3.111   7.699  1.7272  1.2719  1.0721
 6575TIP3    H241285   0.789   3.099   7.550  0.0707  0.8720  0.7644
 6576TIP3   OH241286   5.266   2.539   2.352  0.2490 -0.3340 -0.0881
 6576TIP3    H141287   5.211   2.574   2.282 -0.4227 -0.3457  0.4238
 6576TIP3    H241288   5.279   2.447   2.328  0.7701 -0.1162 -0.6580
 6577TIP3   OH241289   5.019   5.339   7.934 -0.3123  0.0431  0.6154
 6577TIP3    H141290   4.930   5.325   7.967 -1.5730 -0.5991 -2.6743
 6577TIP3    H241291   5.018   5.429   7.901 -0.0694 -0.2915 -0.3171
 6578TIP3   OH241292   1.604   0.602   0.059  0.7155 -0.0590  0.3219
 6578TIP3    H141293   1.685   0.652   0.057 -0.1875  1.5060  0.6523
 6578TIP3    H241294   1.627   0.520   0.103  2.0406  0.4751  0.6667
 6579TIP3   OH241295   4.485   4.738   1.611  0.5751 -0.2406  0.1931
 6579TIP3    H141296   4.441   4.739   1.526  0.0106 -1.1950  0.4529
 6579TIP3    H241297   4.574   4.768   1.592  0.3272 -0.0070 -0.6557
 6580TIP3   OH241298   5.126   1.974   7.702 -0.0894  0.2203  0.4483
 6580TIP3    H141299   5.162   1.887   7.716 -0.7928  0.0704  1.4033
 6580TIP3    H241300   5.187   2.016   7.642 -0.5287 -1.4280 -1.2164
 6581TIP3   OH241301   5.955   0.474   1.391 -0.1445  0.0266  0.0829
 6581TIP3    H141302   5.924   0.531   1.461 -1.2982  0.7951 -1.0060
 6581TIP3    H241303   5.989   0.397   1.436 -0.0439  0.8676  1.5138
 6582TIP3   OH241304   1.345   6.676   7.333  0.1078 -0.0661  0.0712
 6582TIP3    H141305   1.407   6.721   7.276  0.8668 -1.4243 -0.2088
 6582TIP3    H241306   1.296   6.618   7.275  0.7083 -1.2690  0.7228
 6583TIP3   OH241307   4.460   5.649   7.778 -0.1182  0.3341  0.1638
 6583TIP3    H141308   4.489   5.640   7.687 -1.4833 -1.6699 -0.1419
 6583TIP3    H241309   4.365   5.641   7.774 -0.0881 -1.9248  1.9188
 6584TIP3   OH241310   2.754   0.783   7.308  0.2219  0.0197 -0.1302
 6584TIP3    H141311   2.808   0.782   7.387 -0.4193 -1.0074  0.3151
 6584TIP3    H241312   2.814   0.810   7.238  0.8365  0.7918  0.6759
 6585TIP3   OH241313   0.451   1.404   7.643 -0.1223 -0.2555 -0.3935
 6585TIP3    H141314   0.357   1.422   7.651 -0.3466 -0.1696 -2.5244
 6585TIP3    H241315   0.465   1.395   7.548  2.1299  0.2857 -0.1584
 6586TIP3   OH241316   3.264   1.785   7.327 -0.1300 -0.3767 -0.3375
 6586TIP3    H141317   3.242   1.856   7.387 -0.5237  0.0619 -0.9972
 6586TIP3    H241318   3.282   1.710   7.384 -2.8910 -0.6625  0.2853
 6587TIP3   OH241319   4.040   0.583   1.025 -0.4709 -0.1067 -0.1995
 6587TIP3    H141320   4.060   0.666   0.982 -0.9713 -0.3676 -0.9462
 6587TIP3    H241321   4.116   0.528   1.009 -0.2158  0.1420  0.1429
 6588TIP3   OH241322   3.413   5.074   0.789 -0.2218 -0.5550 -0.1053
 6588TIP3    H141323   3.505   5.055   0.809  0.5439  0.6471 -2.1764
 6588TIP3    H241324   3.408   5.170   0.791 -1.0930 -0.5590 -1.3240
 6589TIP3   OH241325   4.454   4.564   8.342 -0.3243 -0.4674  0.5564
 6589TIP3    H141326   4.453   4.544   8.249  1.9567  1.3844  0.0524
 6589TIP3    H241327   4.361   4.573   8.365 -1.0096 -2.4014 -1.1238
 6590TIP3   OH241328   5.012   2.296   0.820  0.0568 -0.3595  0.8199
 6590TIP3    H141329   5.026   2.245   0.741  1.8730 -0.5739  1.2419
 6590TIP3    H241330   4.918   2.287   0.838 -0.3412 -0.5142 -1.1295
 6591TIP3   OH241331   2.738   1.280   7.792 -0.2621 -0.5262 -0.1516
 6591TIP3    H141332   2.789   1.345   7.743  0.6664 -0.1678  1.2300
 6591TIP3    H241333   2.728   1.319   7.879 -2.2326 -0.9545 -0.1448
 6592TIP3   OH241334   2.072   4.087   1.312 -0.4535  0.0868  0.0339
 6592TIP3    H141335   2.165   4.103   1.297  0.4018 -3.6907  0.3024
 6592TIP3    H241336   2.027   4.160   1.268  2.5701  2.0980  0.0194
 6593TIP3   OH241337   0.319   6.158   8.555  0.3532  0.1750 -0.2475
 6593TIP3    H141338   0.288   6.126   8.470 -0.9782  0.3746  0.1306
 6593TIP3    H241339   0.348   6.247   8.537  0.4264  0.0894 -0.5673
 6594TIP3   OH241340   4.381   5.388   1.205  0.0655 -0.1981 -0.1754
 6594TIP3    H141341   4.310   5.325   1.199  0.2240 -0.4844  0.8274
 6594TIP3    H241342   4.358   5.457   1.142 -0.3444 -1.0076 -0.9264
 6595TIP3   OH241343   4.910   3.662   0.349 -0.3920 -0.4479  0.2359
 6595TIP3    H141344   4.833   3.718   0.361  0.3193  0.4017  1.0646
 6595TIP3    H241345   4.890   3.582   0.398 -0.0965  0.4566  1.9435
 6596TIP3   OH241346   6.268   2.439   8.528  0.3204  0.1344 -0.1468
 6596TIP3    H141347   6.307   2.510   8.578  0.5624  1.0927 -1.6383
 6596TIP3    H241348   6.176   2.440   8.553  0.8886 -1.2484  2.3523
 6597TIP3   OH241349   2.009   5.076   6.954  0.1318  0.2871  0.0601
 6597TIP3    H141350   2.066   5.035   6.890 -2.0360 -1.8900 -0.6019
 6597TIP3    H241351   1.984   5.160   6.915  0.9882  0.1983 -0.6853
 6598TIP3   OH241352   1.288   3.934   7.367  0.0508  0.1213  0.6020
 6598TIP3    H141353   1.232   3.990   7.313  0.4239  0.3557  0.4539
 6598TIP3    H241354   1.358   3.992   7.397  0.3575 -0.2302  0.5691
 6599TIP3   OH241355   3.592   2.100   1.895 -0.0482  0.0340 -0.0253
 6599TIP3    H141356   3.652   2.175   1.904  0.5223 -0.5526  1.3023
 6599TIP3    H241357   3.527   2.113   1.964 -0.0861 -0.5614  0.0564
 6600TIP3   OH241358   3.516   0.391   0.913  0.3946 -0.1739 -0.0452
 6600TIP3    H141359   3.577   0.463   0.896  1.8825 -1.3350  0.1640
 6600TIP3    H241360   3.443   0.407   0.854  0.5569  1.6395  0.1905
 6601TIP3   OH241361   4.685   0.949   0.720 -0.2710 -0.0441  0.4709
 6601TIP3    H141362   4.606   1.002   0.737 -0.0379  2.3339 -4.1319
 6601TIP3    H241363   4.656   0.882   0.658  0.7673 -1.1293  1.1271
 6602TIP3   OH241364   0.326   4.179   2.417 -0.3360 -0.7381  0.2186
 6602TIP3    H141365   0.400   4.118   2.405  1.6198  1.4053  0.6629
 6602TIP3    H241366   0.309   4.212   2.329  0.8411  0.4796  0.4236
 6603TIP3   OH241367   6.451   1.806   7.705  0.0099 -0.5461 -0.4480
 6603TIP3    H141368   6.392   1.758   7.763 -1.3253  1.2120 -0.2448
 6603TIP3    H241369   6.491   1.739   7.650  0.3965 -2.1561  1.6557
 6604TIP3   OH241370   4.341   0.641   8.256  0.9769  0.2865  0.5237
 6604TIP3    H141371   4.346   0.671   8.165 -1.8890  1.6704  0.7296
 6604TIP3    H241372   4.340   0.722   8.308  0.1106 -0.3891  1.5998
 6605TIP3   OH241373   4.529   5.944   7.025  0.1068  0.0211 -0.1461
 6605TIP3    H141374   4.577   6.016   6.984  1.2205 -1.2682 -1.1995
 6605TIP3    H241375   4.441   5.951   6.988  0.9609 -0.8353 -2.5525
 6606TIP3   OH241376   6.529   3.691   1.103  0.3902 -0.3428  0.0305
 6606TIP3    H141377   6.616   3.711   1.070  0.0758  0.0197 -0.5910
 6606TIP3    H241378   6.537   3.702   1.198  0.5767  1.4829 -0.1624
 6607TIP3   OH241379   4.700   4.434   8.310  0.0031 -0.2346 -0.1472
 6607TIP3    H141380   4.738   4.518   8.285  1.1910 -0.5904  0.4322
 6607TIP3    H241381   4.609   4.455   8.333  0.3059  0.8910  0.0656
 6608TIP3   OH241382   1.851   5.788   0.749  0.1100  0.1455  0.9384
 6608TIP3    H141383   1.782   5.823   0.693 -0.3788  0.2226  1.5810
 6608TIP3    H241384   1.905   5.864   0.770  0.7437 -0.0147 -0.0387
 6609TIP3   OH241385   0.009   3.103   6.613 -0.4335  0.3194  0.8967
 6609TIP3    H141386  -0.070   3.146   6.646  0.4395  1.6405  1.3803
 6609TIP3    H241387   0.054   3.171   6.564  0.8296 -0.1395  1.3781
 6610TIP3   OH241388   1.447   6.434   6.861 -0.2524  0.0949 -0.0046
 6610TIP3    H141389   1.415   6.348   6.890 -2.9029  1.1076  0.3914
 6610TIP3    H241390   1.401   6.449   6.779  1.5354  0.4489 -0.9900
 6611TIP3   OH241391   1.360   1.646   1.455 -0.0838  0.3768 -0.2654
 6611TIP3    H141392   1.425   1.639   1.524  0.3180 -1.1600 -0.7658
 6611TIP3    H241393   1.346   1.740   1.445  0.1850  0.6382  1.5628
 6612TIP3   OH241394   4.549   3.327   0.449  0.4892 -0.0850 -0.1519
 6612TIP3    H141395   4.584   3.239   0.436  2.3819  0.5334  0.3605
 6612TIP3    H241396   4.462   3.313   0.486  0.2899 -1.7240 -1.1426
 6613TIP3   OH241397   1.365   6.273   1.005 -0.2207 -0.0028  0.0755
 6613TIP3    H141398   1.429   6.234   1.064 -1.6723  1.0013  2.4575
 6613TIP3    H241399   1.407   6.270   0.919  1.4339 -2.8410  0.8349
 6614TIP3   OH241400   6.538   4.814   7.022  0.1743 -0.4975  0.1876
 6614TIP3    H141401   6.500   4.789   6.938  0.5443  0.7498 -0.3665
 6614TIP3    H241402   6.572   4.902   7.008 -1.2521  0.4310  2.1161
 6615TIP3   OH241403   2.981   0.687   1.036 -0.1604 -0.7908  0.1896
 6615TIP3    H141404   2.908   0.702   0.977  1.0785 -0.8063 -1.4190
 6615TIP3    H241405   2.945   0.632   1.105 -1.7327 -0.5266 -0.3719
 6616TIP3   OH241406   1.429   2.273   6.474 -0.1591 -0.1086  0.2583
 6616TIP3    H141407   1.381   2.238   6.550  0.4136 -0.8660  0.2829
 6616TIP3    H241408   1.445   2.364   6.496 -1.2806  0.0683  0.4033
 6617TIP3   OH241409   4.910   1.545   8.177 -0.3585 -0.0250 -0.7818
 6617TIP3    H141410   4.834   1.526   8.124  2.5208 -2.2460 -4.6262
 6617TIP3    H241411   4.932   1.462   8.218 -0.7037  0.9370  1.5412
 6618TIP3   OH241412   1.730   4.604   7.279  0.1785  0.1848 -0.7663
 6618TIP3    H141413   1.724   4.670   7.209 -1.7650  2.4950  1.3625
 6618TIP3    H241414   1.811   4.625   7.325  1.1579 -0.9692 -1.8886
 6619TIP3   OH241415   1.335   2.317   8.156 -0.3271 -0.1063  0.2137
 6619TIP3    H141416   1.423   2.281   8.144  0.6333  2.5087 -1.7330
 6619TIP3    H241417   1.282   2.272   8.089 -0.0423 -0.4569  0.2188
 6620TIP3   OH241418   2.992   1.145   1.225  0.0510 -0.1331  0.2672
 6620TIP3    H141419   2.939   1.065   1.219 -0.9658  0.4895  0.5319
 6620TIP3    H241420   3.021   1.162   1.136 -0.5376 -0.2840  0.0403
 6621TIP3   OH241421   4.624   0.620   7.034  0.1958 -0.3553 -0.3966
 6621TIP3    H141422   4.668   0.562   6.971  0.9356  0.1049 -0.3021
 6621TIP3    H241423   4.662   0.597   7.118  1.3241  1.0313 -0.4960
 6622TIP3   OH241424   1.480   6.287   7.715  0.4049 -0.4454  0.2616
 6622TIP3    H141425   1.424   6.321   7.645 -0.7050 -2.2240  0.2256
 6622TIP3    H241426   1.474   6.352   7.785  1.3802  1.2800 -1.1592
 6623TIP3   OH241427   6.081   3.225   7.860 -0.4196 -0.5195  0.2879
 6623TIP3    H141428   6.006   3.233   7.919  0.5948 -1.8950  1.8511
 6623TIP3    H241429   6.157   3.239   7.915  0.5292  0.8273 -1.2630
 6624TIP3   OH241430   6.618   0.883   7.722 -0.2763 -0.2884  0.1452
 6624TIP3    H141431   6.645   0.830   7.648 -1.5862 -1.8573  0.7170
 6624TIP3    H241432   6.522   0.878   7.722 -0.4271  1.6430  0.5676
 6625TIP3   OH241433   5.017   3.589   1.965 -0.0344 -0.7525  0.2421
 6625TIP3    H141434   5.038   3.663   1.908  0.6876 -0.2680  1.1054
 6625TIP3    H241435   5.092   3.584   2.026 -0.4479 -1.6949  0.6900
 6626TIP3   OH241436   5.457   1.223   7.570 -0.3628 -0.4391  0.4424
 6626TIP3    H141437   5.542   1.201   7.609  0.7044  3.7468  1.0177
 6626TIP3    H241438   5.393   1.182   7.629  1.2860  0.4844  3.0903
 6627TIP3   OH241439   4.698   5.239   0.680 -0.4746  0.2016  0.1934
 6627TIP3    H141440   4.683   5.318   0.733  0.0430  0.4895 -0.0839
 6627TIP3    H241441   4.634   5.176   0.713 -1.3713  0.9610 -0.0539
 6628TIP3   OH241442   0.921   3.900   7.532 -0.4698 -0.8954 -0.1119
 6628TIP3    H141443   0.900   3.900   7.625  1.2839 -1.4414  0.3293
 6628TIP3    H241444   0.938   3.992   7.512 -0.7852 -0.7856  0.1138
 6629TIP3   OH241445   6.150   6.206   8.198 -0.0709  0.0676  0.3585
 6629TIP3    H141446   6.231   6.228   8.153 -0.2300  0.0452  0.0601
 6629TIP3    H241447   6.163   6.116   8.228 -0.2314 -0.1647 -0.2512
 6630TIP3   OH241448   3.014   2.315   7.935 -0.0121 -0.5611  0.1079
 6630TIP3    H141449   3.094   2.335   7.886 -0.6195  0.1753 -0.6277
 6630TIP3    H241450   3.043   2.299   8.025  1.2767 -3.1145 -0.6751
 6631TIP3   OH241451   3.360   0.776   8.344 -0.0960 -0.4736 -0.2150
 6631TIP3    H141452   3.391   0.813   8.261  0.0190  4.3460  1.7138
 6631TIP3    H241453   3.427   0.712   8.368  2.0912  1.0387 -1.8630
 6632TIP3   OH241454   0.443   4.620   0.272  0.4484 -0.2202 -1.0481
 6632TIP3    H141455   0.429   4.631   0.366  0.8356  2.6778 -1.2457
 6632TIP3    H241456   0.355   4.618   0.234  0.3074 -0.5807 -0.7023
 6633TIP3   OH241457   1.633   2.483   6.938 -0.6225 -0.4089 -0.3044
 6633TIP3    H141458   1.543   2.516   6.943 -1.0207 -1.6059  3.9425
 6633TIP3    H241459   1.630   2.398   6.981  2.4092 -0.9175 -0.8986
 6634TIP3   OH241460   1.776   4.778   1.444  0.4375 -0.2714 -0.1518
 6634TIP3    H141461   1.858   4.824   1.428 -0.7783  1.8169 -0.8139
 6634TIP3    H241462   1.711   4.848   1.455 -1.1310 -1.8305  1.1608
 6635TIP3   OH241463   0.465   3.542   1.828  0.1191  0.0358 -0.0450
 6635TIP3    H141464   0.538   3.527   1.889  0.8907  0.6702 -0.7965
 6635TIP3    H241465   0.500   3.518   1.743 -0.8791 -0.5994 -0.2936
 6636TIP3   OH241466   2.607   4.954   2.714 -0.7793  0.2009 -0.3305
 6636TIP3    H141467   2.603   5.013   2.790  3.8037 -1.0717  1.2553
 6636TIP3    H241468   2.630   5.010   2.641  0.6431  0.8361  0.5547
 6637TIP3   OH241469   1.562   4.048   0.273 -0.0438 -0.1577 -0.2716
 6637TIP3    H141470   1.618   4.097   0.333 -1.6025 -0.5822  1.6395
 6637TIP3    H241471   1.508   3.994   0.330 -1.8142 -0.3835 -2.0701
 6638TIP3   OH241472   5.175   3.104   2.490  0.2451 -0.3381 -0.5633
 6638TIP3    H141473   5.267   3.099   2.517 -0.1634  0.9028  1.2120
 6638TIP3    H241474   5.158   3.198   2.482 -0.6569 -0.5807 -1.7612
 6639TIP3   OH241475   3.241   5.678   7.963 -0.0352  0.0431  0.3494
 6639TIP3    H141476   3.326   5.695   8.003  0.4272  1.8012 -1.2541
 6639TIP3    H241477   3.260   5.618   7.891 -0.5990 -1.6729  1.5692
 6640TIP3   OH241478   0.494   5.941   2.172 -0.0538 -0.2310  0.0109
 6640TIP3    H141479   0.509   5.861   2.221 -0.7139  0.3497  1.1949
 6640TIP3    H241480   0.581   5.982   2.166  0.1737 -0.7183 -0.0564
 6641TIP3   OH241481   6.476   2.778   7.130  0.4235 -0.4310  0.5936
 6641TIP3    H141482   6.407   2.716   7.152  0.8242 -1.8696 -1.8451
 6641TIP3    H241483   6.557   2.735   7.157  0.5165  0.5751  2.0216
 6642TIP3   OH241484   4.625   4.863   0.217  0.5927 -0.1043 -0.0970
 6642TIP3    H141485   4.702   4.854   0.160  0.4500  0.3338 -0.3705
 6642TIP3    H241486   4.661   4.869   0.305  0.9181  0.6523 -0.2676
 6643TIP3   OH241487   0.997   5.171   0.803  0.1203  0.2417  0.0194
 6643TIP3    H141488   1.002   5.085   0.844 -0.3495  0.7881  1.2984
 6643TIP3    H241489   0.941   5.222   0.862  0.8180  1.5672 -0.4271
 6644TIP3   OH241490   5.468   2.970   7.628  0.1284 -0.2612 -0.7103
 6644TIP3    H141491   5.412   3.003   7.698  1.0096 -0.9137  0.3525
 6644TIP3    H241492   5.418   2.898   7.590  0.5459 -1.4140  0.8074
 6645TIP3   OH241493   2.072   5.608   7.364  0.4121 -0.1927  0.2545
 6645TIP3    H141494   1.984   5.640   7.387  0.6407 -0.2565  1.2655
 6645TIP3    H241495   2.118   5.605   7.448  1.2158 -0.6666 -0.2032
 6646TIP3   OH241496   5.551   0.735   0.215  0.0309 -0.0599 -0.8429
 6646TIP3    H141497   5.479   0.718   0.154 -1.1502  1.7165 -0.0226
 6646TIP3    H241498   5.508   0.753   0.299  1.4980 -0.0373 -0.0599
 6647TIP3   OH241499   1.213   5.215   1.136 -0.2237  0.0339 -0.2505
 6647TIP3    H141500   1.208   5.163   1.056 -1.3725 -0.4553  0.1120
 6647TIP3    H241501   1.222   5.151   1.206  0.0526  0.4175  0.0680
 6648TIP3   OH241502   5.442   0.687   8.383  0.3401 -0.3477 -0.3521
 6648TIP3    H141503   5.500   0.750   8.341 -1.2826  1.6669  0.2810
 6648TIP3    H241504   5.470   0.686   8.475  0.1804 -0.3424 -0.3036
 6649TIP3   OH241505   4.352   0.687   7.431  0.1046 -0.7055 -0.5033
 6649TIP3    H141506   4.266   0.703   7.391 -0.5080 -0.6785  0.7695
 6649TIP3    H241507   4.359   0.591   7.434 -0.0283 -0.7099 -0.3127
 6650TIP3   OH241508   1.113   3.877   6.807 -0.2164 -0.1326  0.0349
 6650TIP3    H141509   1.073   3.963   6.793  1.3196  1.1075  2.6393
 6650TIP3    H241510   1.203   3.886   6.773  1.1112  0.5444  3.4080
 6651TIP3   OH241511   6.742   0.602   8.144 -0.1761  0.1635 -0.2720
 6651TIP3    H141512   6.651   0.602   8.173  0.3499 -0.3309  1.4831
 6651TIP3    H241513   6.736   0.605   8.048 -2.0147  0.7280 -0.1909
 6652TIP3   OH241514   3.554   3.977   2.148  0.2687 -0.1452 -0.3402
 6652TIP3    H141515   3.484   3.932   2.196 -0.5753  1.9432  0.4955
 6652TIP3    H241516   3.580   4.049   2.205 -0.4233  2.1726 -2.7347
 6653TIP3   OH241517   3.434   1.256   7.857  0.1160 -0.1834  0.3081
 6653TIP3    H141518   3.528   1.241   7.858  0.2894  0.8009  1.7390
 6653TIP3    H241519   3.396   1.172   7.880  0.5899 -0.7405 -0.8536
 6654TIP3   OH241520   3.040   0.685   8.257 -0.0222 -0.7452 -0.7009
 6654TIP3    H141521   3.131   0.714   8.269 -0.1242 -0.4248 -0.6767
 6654TIP3    H241522   2.992   0.731   8.326 -0.7324  1.5999 -2.6389
 6655TIP3   OH241523   6.415   6.786   8.323  0.4987 -0.0652  0.0209
 6655TIP3    H141524   6.451   6.765   8.409  0.5607 -0.0896 -0.0117
 6655TIP3    H241525   6.360   6.711   8.301 -1.4489  0.9677  1.0978
 6656TIP3   OH241526   0.536   0.455   2.454  0.1413 -0.2194 -0.3272
 6656TIP3    H141527   0.497   0.459   2.366  0.5678  1.4329 -0.4725
 6656TIP3    H241528   0.483   0.513   2.507 -0.4587 -1.6411  0.7023
 6657TIP3   OH241529   5.600   3.359   8.621  0.2851  0.4874 -0.1307
 6657TIP3    H141530   5.573   3.307   8.545  1.3992  0.9010 -0.8354
 6657TIP3    H241531   5.584   3.301   8.696  0.0152 -0.2692 -0.7497
 6658TIP3   OH241532   2.097   2.758   0.905  0.0958 -0.5511 -0.3452
 6658TIP3    H141533   2.161   2.821   0.873 -2.0708  1.1475 -1.5276
 6658TIP3    H241534   2.048   2.805   0.972 -3.0482 -0.0078 -2.7848
 6659TIP3   OH241535   4.679   5.173   7.855  0.6067 -0.4441  0.8232
 6659TIP3    H141536   4.597   5.175   7.904 -0.5802 -0.3929 -1.0462
 6659TIP3    H241537   4.676   5.091   7.806  0.2833  0.8193 -1.4059
 6660TIP3   OH241538   5.043   1.359   7.906 -0.2134  0.8862  0.9412
 6660TIP3    H141539   5.094   1.410   7.969 -1.1107  0.4109  2.0848
 6660TIP3    H241540   4.988   1.424   7.862  2.7982  1.8020 -1.9448
 6661TIP3   OH241541   5.008   2.704   1.732  0.4994  0.6023 -0.4343
 6661TIP3    H141542   5.009   2.669   1.643  0.5946  0.9115 -0.5571
 6661TIP3    H241543   4.962   2.788   1.725  1.0060  0.8979 -0.3022
 6662TIP3   OH241544   1.039   2.735   2.392  0.2624  0.2234 -0.5431
 6662TIP3    H141545   1.104   2.751   2.461  1.4637 -0.6990 -1.4287
 6662TIP3    H241546   1.047   2.642   2.372 -1.4669  0.0573 -0.5739
 6663TIP3   OH241547   1.953   6.059   1.016  0.5749 -0.0119 -0.1456
 6663TIP3    H141548   1.859   6.042   1.005  0.3798  0.6485  0.4027
 6663TIP3    H241549   1.957   6.150   1.047  1.3991 -0.0332 -0.1710
 6664TIP3   OH241550   1.785   1.487   6.389  0.0830  0.2192  0.0697
 6664TIP3    H141551   1.758   1.556   6.450 -1.8379  0.0784 -0.5473
 6664TIP3    H241552   1.856   1.527   6.338  0.5401  0.9307  1.2268
 6665TIP3   OH241553   4.713   5.910   6.756  0.3395  0.1876 -0.1999
 6665TIP3    H141554   4.737   5.996   6.788 -0.2495 -0.0349  0.8944
 6665TIP3    H241555   4.709   5.920   6.661 -0.1259  1.4687 -0.0630
 6666TIP3   OH241556   0.440   1.555   6.506 -0.4277 -0.4030  0.1377
 6666TIP3    H141557   0.377   1.521   6.443 -0.3963  0.5939 -0.4550
 6666TIP3    H241558   0.463   1.641   6.472  0.0133 -0.0800  1.2253
 6667TIP3   OH241559   2.219   1.857   0.870 -0.0571 -0.3765  0.4874
 6667TIP3    H141560   2.228   1.851   0.775  0.3686  2.0978  0.2966
 6667TIP3    H241561   2.226   1.766   0.900  1.8581 -1.0628 -1.6596
 6668TIP3   OH241562   1.988   0.918   8.496  0.0965  0.4542 -0.5082
 6668TIP3    H141563   2.056   0.984   8.503  0.0030  0.5333 -0.3325
 6668TIP3    H241564   1.920   0.947   8.557 -0.0299  0.3005 -0.5752
 6669TIP3   OH241565   3.892   3.966   1.713 -0.1430 -0.0252 -0.6532
 6669TIP3    H141566   3.977   3.971   1.757 -0.3774 -0.9934 -0.0872
 6669TIP3    H241567   3.831   4.009   1.772  0.0986  1.5818 -1.5053
 6670TIP3   OH241568   1.520   5.430   7.813  0.4738  0.0010  0.2562
 6670TIP3    H141569   1.568   5.507   7.782  0.4326  0.2918  0.9099
 6670TIP3    H241570   1.485   5.390   7.733  2.2098 -0.4992 -0.3198
 6671TIP3   OH241571   5.191   2.480   8.409  0.3823  0.4051  0.1020
 6671TIP3    H141572   5.188   2.394   8.450  0.0287  0.7334  0.7848
 6671TIP3    H241573   5.276   2.484   8.365  1.5509  0.6888  2.2369
 6672TIP3   OH241574   3.293   2.421   7.056  0.5411  0.3820  0.0351
 6672TIP3    H141575   3.375   2.405   7.009  0.5411  2.1024 -0.6079
 6672TIP3    H241576   3.233   2.353   7.025  1.9397 -1.4827  1.1943
 6673TIP3   OH241577   0.614   1.292   8.265  0.2803 -0.0858 -0.4194
 6673TIP3    H141578   0.685   1.250   8.217  0.7713 -0.3793  0.5422
 6673TIP3    H241579   0.638   1.385   8.267  0.8593 -0.2447  0.2645
 6674TIP3   OH241580   6.363   2.522   7.081  0.0735 -0.0429  0.1016
 6674TIP3    H141581   6.361   2.435   7.040 -1.1189  0.2710 -0.5176
 6674TIP3    H241582   6.418   2.575   7.022  0.6523 -0.3108  0.3855
 6675TIP3   OH241583   5.266   5.346   0.646 -0.7266 -0.0747  0.1448
 6675TIP3    H141584   5.172   5.336   0.660 -0.4679 -1.7636  0.8416
 6675TIP3    H241585   5.301   5.364   0.733 -0.1997 -1.2879  0.1898
 6676TIP3   OH241586   5.899   4.725   1.181  0.2493  0.8919 -0.0186
 6676TIP3    H141587   5.872   4.815   1.168  3.1996  2.0881  1.1154
 6676TIP3    H241588   5.921   4.720   1.274 -0.5406 -1.2414  0.1010
 6677TIP3   OH241589   3.594   5.951   6.523 -0.2600 -0.2755  0.9733
 6677TIP3    H141590   3.622   5.862   6.501 -2.3919 -0.7489 -0.0848
 6677TIP3    H241591   3.524   5.939   6.588 -0.6307  0.6157  0.7597
 6678TIP3   OH241592   1.516   5.507   1.335  0.0251 -0.1609 -0.3826
 6678TIP3    H141593   1.516   5.438   1.269  0.0304  0.0218 -0.5748
 6678TIP3    H241594   1.548   5.585   1.289 -0.6002  0.1319 -0.3450
 6679TIP3   OH241595   6.478   1.280   0.777  0.8979 -0.7327 -0.5513
 6679TIP3    H141596   6.566   1.309   0.753  0.6067 -0.6740 -1.6013
 6679TIP3    H241597   6.482   1.265   0.872  1.7232  0.3596 -0.3939
 6680TIP3   OH241598   2.361   2.016   7.062 -0.2251 -0.4527  0.3234
 6680TIP3    H141599   2.344   2.050   6.974 -0.8017 -0.1497  0.5499
 6680TIP3    H241600   2.449   2.047   7.082  0.2912 -1.2947 -0.5018
 6681TIP3   OH241601   2.247   0.971   6.289  0.1261  0.7535  0.5676
 6681TIP3    H141602   2.255   0.882   6.255 -0.9780  1.3026 -1.3434
 6681TIP3    H241603   2.269   0.964   6.381 -0.7454 -1.6525  0.6649
 6682TIP3   OH241604   2.242   0.874   8.322  0.1870 -0.2628  0.3950
 6682TIP3    H141605   2.155   0.895   8.289  0.2517 -1.2500 -0.4458
 6682TIP3    H241606   2.228   0.805   8.386  0.1159  1.3137  2.1885
 6683TIP3   OH241607   0.780   0.219   1.098 -0.2381  0.2569  0.1913
 6683TIP3    H141608   0.718   0.224   1.171 -1.4083  1.9064 -0.8608
 6683TIP3    H241609   0.865   0.237   1.138 -0.4726 -1.4004  1.5527
 6684TIP3   OH241610   4.988   4.269   8.291 -0.1889  0.8656 -0.6624
 6684TIP3    H141611   5.066   4.214   8.279 -0.7174  0.1953 -1.1409
 6684TIP3    H241612   4.945   4.233   8.368  0.7069  2.1516  0.4875
 6685TIP3   OH241613   2.209   4.976   1.420  0.2212  0.6952 -0.0788
 6685TIP3    H141614   2.283   5.027   1.390  0.8208  0.4928  1.0252
 6685TIP3    H241615   2.164   5.032   1.483 -0.5051  0.7754 -0.6577
 6686TIP3   OH241616   2.373   3.884   6.492  0.2608  0.0339  0.0137
 6686TIP3    H141617   2.374   3.795   6.456  0.4346  0.3675 -0.8216
 6686TIP3    H241618   2.309   3.931   6.439  1.6597  0.9556 -0.9324
 6687TIP3   OH241619   4.895   1.429   0.756  0.5757 -0.1302  0.2516
 6687TIP3    H141620   4.896   1.425   0.852 -0.5284 -0.5369  0.2588
 6687TIP3    H241621   4.977   1.387   0.730  0.6062 -0.5613  1.0042
 6688TIP3   OH241622   2.428   4.622   8.546 -0.1462 -0.3794 -0.2465
 6688TIP3    H141623   2.516   4.627   8.584  0.2863 -0.5843 -1.1959
 6688TIP3    H241624   2.442   4.624   8.452 -1.2465  0.8655 -0.4130
 6689TIP3   OH241625   4.758   2.824   2.403 -0.1668 -0.1303  0.1852
 6689TIP3    H141626   4.751   2.918   2.384 -0.4513 -0.2778 -0.4789
 6689TIP3    H241627   4.851   2.810   2.420 -0.0112  0.1539 -0.4007
 6690TIP3   OH241628   5.211   2.793   7.544 -0.5867 -0.1580  0.5881
 6690TIP3    H141629   5.164   2.876   7.538  1.9520  1.2710 -1.9681
 6690TIP3    H241630   5.203   2.768   7.636 -1.1825  3.1101  1.5543
 6691TIP3   OH241631   6.520   2.637   8.213 -0.1640  0.2247  0.5465
 6691TIP3    H141632   6.466   2.703   8.171  0.3515 -1.1129 -2.5108
 6691TIP3    H241633   6.608   2.675   8.215 -0.1841  0.2788  0.3909
 6692TIP3   OH241634   1.108   4.964   0.066  0.3791  0.1299 -0.2699
 6692TIP3    H141635   1.110   4.946  -0.028 -2.8103  0.0984 -0.4480
 6692TIP3    H241636   1.029   4.920   0.097 -0.4118  2.7262  1.8144
 6693TIP3   OH241637   4.789   3.141   2.110  0.2384 -0.4748  0.4690
 6693TIP3    H141638   4.804   3.081   2.037 -1.5824  0.0041 -0.3369
 6693TIP3    H241639   4.875   3.147   2.153  1.2785 -1.0332 -1.4086
 6694TIP3   OH241640   4.580   3.972   0.663 -1.3845  0.3712 -0.3392
 6694TIP3    H141641   4.631   3.985   0.742  0.6448 -2.5877 -0.9904
 6694TIP3    H241642   4.499   3.929   0.693 -1.0449  0.1128  0.2156
 6695TIP3   OH241643   4.657   2.999   0.874 -0.4033  0.0438 -0.4319
 6695TIP3    H141644   4.679   2.923   0.820  1.0961 -0.6278  1.0450
 6695TIP3    H241645   4.733   3.057   0.867 -0.1326 -0.0944  0.9786
 6696TIP3   OH241646   1.094   1.314   6.425 -0.0089 -0.2404 -0.3457
 6696TIP3    H141647   1.098   1.235   6.371  1.1936 -0.3970 -0.0716
 6696TIP3    H241648   1.041   1.375   6.375  0.7977 -0.5004 -1.5690
 6697TIP3   OH241649   0.355   1.022   7.702  0.3593 -0.3023 -0.7782
 6697TIP3    H141650   0.362   1.093   7.639  1.4059  0.5260  0.2093
 6697TIP3    H241651   0.424   1.041   7.766  1.1700 -2.6109 -0.8729
 6698TIP3   OH241652   5.556   4.947   8.135  0.3210 -0.0224 -0.7454
 6698TIP3    H141653   5.467   4.954   8.168  0.2480 -0.6189 -0.7961
 6698TIP3    H241654   5.610   4.935   8.214  0.5063  1.4794 -0.6159
 6699TIP3   OH241655   1.352   4.691   7.573  0.5741 -0.0975  0.3142
 6699TIP3    H141656   1.411   4.616   7.573  1.4802  0.5789 -0.8385
 6699TIP3    H241657   1.374   4.740   7.653  1.4152  0.0231  0.0104
 6700TIP3   OH241658   1.687   3.791   7.491 -0.4347  0.0956  0.3807
 6700TIP3    H141659   1.651   3.822   7.574  0.1396 -2.4267  1.6575
 6700TIP3    H241660   1.615   3.742   7.451  0.0331 -0.7227  0.5369
 6701TIP3   OH241661   2.708   3.774   8.044  0.3282  0.4877  0.0782
 6701TIP3    H141662   2.666   3.731   8.118  0.0265 -0.1799 -0.4669
 6701TIP3    H241663   2.729   3.703   7.983 -0.1904  1.0979 -0.8503
 6702TIP3   OH241664   2.222   0.427   6.657  0.3315 -0.7607  0.3885
 6702TIP3    H141665   2.256   0.516   6.661  2.0382 -1.4019  1.1746
 6702TIP3    H241666   2.137   0.435   6.613  2.4160  0.6909 -3.9344
 6703TIP3   OH241667   2.808   5.460   0.049 -0.4628 -0.9133 -0.5357
 6703TIP3    H141668   2.833   5.439  -0.041 -0.2669 -0.4720 -0.5905
 6703TIP3    H241669   2.775   5.550   0.044  0.2159 -0.6261 -0.0480
 6704TIP3   OH241670   3.719   2.094   6.474  0.2477 -0.3285 -0.4004
 6704TIP3    H141671   3.628   2.067   6.488  0.5108 -0.9132  0.2625
 6704TIP3    H241672   3.717   2.189   6.477 -0.1406 -0.3598  1.0278
 6705TIP3   OH241673   5.828   0.278   1.779  0.0505 -0.1908  0.4261
 6705TIP3    H141674   5.889   0.211   1.749 -0.5001 -0.1810 -0.8060
 6705TIP3    H241675   5.884   0.353   1.801  0.4752  0.7078 -3.0085
 6706TIP3   OH241676   0.591   1.896   0.540 -1.0818  0.3468  0.0064
 6706TIP3    H141677   0.644   1.945   0.478 -0.5102 -0.5789 -0.2604
 6706TIP3    H241678   0.539   1.962   0.586 -1.5423  1.0491 -1.4807
 6707TIP3   OH241679   0.653   3.862   8.166  0.5285  0.2309  0.3572
 6707TIP3    H141680   0.671   3.824   8.252 -0.1467  1.2830  0.9972
 6707TIP3    H241681   0.575   3.816   8.135  0.9272 -0.3337  0.1816
 6708TIP3   OH241682   6.586   4.814   1.751  0.1535  0.3437 -0.9589
 6708TIP3    H141683   6.595   4.901   1.790 -1.2802  0.2820 -0.4032
 6708TIP3    H241684   6.658   4.763   1.789 -0.9490  0.3890  1.4437
 6709TIP3   OH241685   5.655   3.192   0.602  0.0256 -0.2886  0.0370
 6709TIP3    H141686   5.746   3.219   0.598  0.7655 -2.0298  2.6437
 6709TIP3    H241687   5.614   3.254   0.662 -0.9888  1.3740 -2.1980
 6710TIP3   OH241688   2.411   0.866   6.880  0.4454  0.5671  0.0497
 6710TIP3    H141689   2.433   0.955   6.851  2.8541 -0.1510 -0.5257
 6710TIP3    H241690   2.492   0.832   6.917 -0.5971 -1.2048  0.8136
 6711TIP3   OH241691   5.533   5.101   2.670 -0.2936  0.3914  0.0929
 6711TIP3    H141692   5.603   5.165   2.686 -1.3484  2.0020 -1.2972
 6711TIP3    H241693   5.544   5.036   2.738  2.1512  0.9321  0.3225
 6712TIP3   OH241694   3.107   1.976   7.841 -0.3334 -0.3750  0.0867
 6712TIP3    H141695   3.045   1.996   7.911  0.0742 -1.0791  0.6696
 6712TIP3    H241696   3.192   2.002   7.876 -0.1754 -0.3443 -0.3159
 6713TIP3   OH241697   1.306   2.974   6.471 -0.4408 -0.0062  0.8459
 6713TIP3    H141698   1.335   2.903   6.527  1.5110 -1.2256 -1.5017
 6713TIP3    H241699   1.241   2.934   6.413  0.5249  0.1210 -0.3636
 6714TIP3   OH241700   4.818   5.022   8.390  0.2134  0.4698  0.0815
 6714TIP3    H141701   4.810   5.090   8.457 -0.4171 -0.2090  0.7111
 6714TIP3    H241702   4.757   4.954   8.418  0.3539 -0.0676 -0.8940
 6715TIP3   OH241703   0.944   5.766   7.106  0.3711  0.1934  0.0019
 6715TIP3    H141704   1.025   5.795   7.064  1.1496  1.6311  2.3685
 6715TIP3    H241705   0.887   5.843   7.105 -0.2054 -0.2256  0.1478
 6716TIP3   OH241706   3.702   2.882   7.022  0.2443 -0.3565  0.2295
 6716TIP3    H141707   3.786   2.847   6.994  0.1078  0.3463 -1.1613
 6716TIP3    H241708   3.718   2.917   7.110  1.1694 -1.0013  0.3312
 6717TIP3   OH241709   6.184   3.170   1.710 -0.4905  0.1915 -0.1265
 6717TIP3    H141710   6.135   3.145   1.787  0.1670  0.2494  0.3188
 6717TIP3    H241711   6.118   3.184   1.642 -1.0836  0.3094  0.4713
 6718TIP3   OH241712   2.124   5.957   0.666 -0.3452  0.2294  0.2627
 6718TIP3    H141713   2.096   6.043   0.696  0.8913  0.7844 -0.1081
 6718TIP3    H241714   2.051   5.926   0.612 -1.0368  0.7947  0.8486
 6719TIP3   OH241715   6.624   1.409   8.355 -0.1518  0.1611  0.4858
 6719TIP3    H141716   6.681   1.352   8.303 -0.5005 -0.0784  0.3647
 6719TIP3    H241717   6.642   1.384   8.446 -1.5390 -1.3570  0.3853
 6720TIP3   OH241718   4.535   0.957   1.077  0.3425  0.5560  0.2362
 6720TIP3    H141719   4.540   0.877   1.129  1.8027  0.4197 -0.0499
 6720TIP3    H241720   4.493   1.021   1.134  3.3893  0.9218  2.3121
 6721TIP3   OH241721   0.744   2.156   0.031  0.3262  0.0836 -0.1983
 6721TIP3    H141722   0.801   2.231   0.049  0.4342  0.3334 -1.4752
 6721TIP3    H241723   0.716   2.126   0.117  0.6294  1.3233  0.3579
 6722TIP3   OH241724   2.089   5.241   7.154  0.2810 -0.6116  0.3517
 6722TIP3    H141725   2.145   5.317   7.135  0.0735 -0.8178 -1.2505
 6722TIP3    H241726   2.084   5.194   7.070 -0.5139 -1.7829  1.0329
 6723TIP3   OH241727   4.906   1.615   1.222 -0.4868 -0.6295 -0.1361
 6723TIP3    H141728   4.977   1.635   1.162 -2.4075  1.9485 -1.7583
 6723TIP3    H241729   4.909   1.685   1.287 -2.4131  0.4898 -1.1584
 6724TIP3   OH241730   5.672   2.147   8.517 -0.3509  0.5567 -0.3120
 6724TIP3    H141731   5.765   2.127   8.507 -0.5069  0.1206 -0.9027
 6724TIP3    H241732   5.632   2.120   8.434 -0.9753  0.9149 -0.1342
 6725TIP3   OH241733   5.085   3.621   8.599  0.4565  0.3848 -0.8308
 6725TIP3    H141734   5.096   3.530   8.625  0.4172  0.6877  0.3075
 6725TIP3    H241735   5.151   3.668   8.649  0.2240  1.0272 -1.1186
 6726TIP3   OH241736   5.470   0.400   8.152  0.5320 -0.3849 -0.0633
 6726TIP3    H141737   5.497   0.393   8.061  0.3681  2.7379 -0.4720
 6726TIP3    H241738   5.542   0.361   8.202  0.7553 -1.8685 -1.4757
 6727TIP3   OH241739   6.684   5.463   7.440  0.2098 -0.0620  0.0583
 6727TIP3    H141740   6.673   5.531   7.507  0.5760 -0.5454  0.6188
 6727TIP3    H241741   6.723   5.389   7.487 -0.8599 -0.9350 -0.3796
 6728TIP3   OH241742   2.669   0.980   1.467  0.6387 -0.4334  0.4839
 6728TIP3    H141743   2.685   0.893   1.430  0.7675 -0.3973  0.4532
 6728TIP3    H241744   2.757   1.015   1.484  0.7180  0.8577 -2.1530
 6729TIP3   OH241745   4.106   3.339   1.363  0.6541 -0.0119  0.1117
 6729TIP3    H141746   4.014   3.362   1.372  0.6074  0.5386 -1.4253
 6729TIP3    H241747   4.113   3.251   1.400 -0.7071 -0.4787 -0.6838
 6730TIP3   OH241748   2.569   4.825   2.067 -0.1809 -0.3293 -0.3353
 6730TIP3    H141749   2.564   4.919   2.087 -1.3188 -0.3316 -0.5813
 6730TIP3    H241750   2.512   4.783   2.132 -1.2863 -0.6468 -1.4848
 6731TIP3   OH241751   4.730   2.951   7.464  0.7726 -0.1857  0.1225
 6731TIP3    H141752   4.711   3.043   7.483  2.6694  0.2347  0.1681
 6731TIP3    H241753   4.691   2.935   7.378 -4.7817 -1.0999  2.3280
 6732TIP3   OH241754   4.575   6.722   7.499  0.6340  0.2846  0.0092
 6732TIP3    H141755   4.540   6.793   7.552  0.1449 -1.2691  1.9077
 6732TIP3    H241756   4.528   6.644   7.529  1.0179 -0.8402 -2.1007
 6733TIP3   OH241757   5.555   6.612   7.772  0.5477 -0.3703 -0.2079
 6733TIP3    H141758   5.543   6.531   7.723  2.4090 -0.1931 -1.0398
 6733TIP3    H241759   5.646   6.636   7.757  0.2249  1.5257  0.5673
 6734TIP3   OH241760   1.656   5.671   0.911 -0.8910 -0.0828 -0.0173
 6734TIP3    H141761   1.718   5.724   0.861  1.2289  1.0861  3.5015
 6734TIP3    H241762   1.660   5.584   0.871  2.2390  0.2401 -0.6053
 6735TIP3   OH241763   3.884   3.983   0.792 -0.1781 -0.0967 -0.5409
 6735TIP3    H141764   3.880   3.924   0.716 -1.4700  1.1004 -1.4607
 6735TIP3    H241765   3.837   4.062   0.763 -0.6550  0.4151  1.4825
 6736TIP3   OH241766   5.046   5.282   8.324 -0.2496 -0.1276  0.1587
 6736TIP3    H141767   4.950   5.282   8.319 -0.3047  1.5807  0.7511
 6736TIP3    H241768   5.075   5.275   8.234 -0.9370 -0.1563 -0.0677
 6737TIP3   OH241769   6.717   6.485   6.673  0.1607 -0.1774 -0.4306
 6737TIP3    H141770   6.758   6.399   6.656 -0.4356 -0.6760  0.5504
 6737TIP3    H241771   6.634   6.482   6.627 -1.4594 -1.5317  2.3024
 6738TIP3   OH241772   0.645   5.328   8.154 -0.1541 -0.1394  0.2166
 6738TIP3    H141773   0.647   5.328   8.250 -0.2602  2.1007  0.2614
 6738TIP3    H241774   0.719   5.383   8.128  0.5771 -1.6316 -1.0652
 6739TIP3   OH241775   6.123   3.031   7.180 -0.4810 -0.7717 -0.3393
 6739TIP3    H141776   6.184   3.027   7.106 -0.8959 -1.1297 -0.6660
 6739TIP3    H241777   6.082   2.944   7.182 -1.3200 -0.3844 -0.4136
 6740TIP3   OH241778   5.669   2.518   0.498  0.0981  0.1636  0.0727
 6740TIP3    H141779   5.765   2.510   0.503 -0.0336 -0.6042  1.6157
 6740TIP3    H241780   5.655   2.589   0.435  1.7152  1.0211  0.6187
 6741TIP3   OH241781   4.008   5.402   0.249 -0.5433 -0.0851  0.2021
 6741TIP3    H141782   3.978   5.475   0.303  0.4716  1.1079 -0.7873
 6741TIP3    H241783   3.943   5.333   0.264 -0.6715  0.4213  2.3981
 6742TIP3   OH241784   6.264   2.928   1.569  0.0492 -0.5296 -0.7967
 6742TIP3    H141785   6.208   2.989   1.617  0.1321 -1.3253  0.3634
 6742TIP3    H241786   6.334   2.982   1.533 -0.1977  0.1429 -0.2827
 6743TIP3   OH241787   0.237   2.118   0.163 -0.2144  0.3705  0.2255
 6743TIP3    H141788   0.321   2.094   0.125 -0.2775 -1.1309  0.9564
 6743TIP3    H241789   0.173   2.069   0.112 -0.6784  1.6356 -0.4363
 6744TIP3   OH241790   2.904   3.632   1.425 -0.3359 -0.3154  0.3218
 6744TIP3    H141791   2.841   3.564   1.448 -0.6321 -0.1231  0.0909
 6744TIP3    H241792   2.876   3.709   1.476 -0.8299  0.0314 -0.4586
 6745TIP3   OH241793   4.350   4.610   2.182 -0.5513  0.3152  0.1399
 6745TIP3    H141794   4.388   4.548   2.243 -1.6086 -1.7491 -1.1795
 6745TIP3    H241795   4.425   4.655   2.143  0.3224 -0.9284  0.3439
 6746TIP3   OH241796   5.250   0.258   7.152 -0.1013 -0.8158  0.2177
 6746TIP3    H141797   5.177   0.259   7.090  0.4773  0.1711 -0.4805
 6746TIP3    H241798   5.208   0.268   7.238 -0.7669  0.4124 -0.2171
 6747TIP3   OH241799   3.545   6.064   8.210  0.9584 -0.1664  0.1938
 6747TIP3    H141800   3.497   6.056   8.128  1.4018 -1.1799  0.0133
 6747TIP3    H241801   3.623   6.115   8.187  0.4273  0.7077  0.2931
 6748TIP3   OH241802   4.435   0.122   1.133 -0.2569 -0.1587  0.2074
 6748TIP3    H141803   4.421   0.150   1.224  0.1999  0.9832 -0.0627
 6748TIP3    H241804   4.457   0.202   1.086  1.2334 -0.9856 -0.5778
 6749TIP3   OH241805   1.378   6.332   8.554 -0.1269 -0.0537 -0.2203
 6749TIP3    H141806   1.414   6.338   8.466 -1.4756  2.3776 -0.6958
 6749TIP3    H241807   1.441   6.378   8.609 -0.8111  1.2767 -0.5032
 6750TIP3   OH241808   6.181   1.879   0.686  0.3094  0.3222  0.0260
 6750TIP3    H141809   6.274   1.866   0.664  0.4937 -0.8111  1.3131
 6750TIP3    H241810   6.172   1.974   0.696  1.8704  0.3365  1.9137
 6751TIP3   OH241811   5.772   6.515   1.317  0.1478  0.3135  0.1431
 6751TIP3    H141812   5.687   6.477   1.293  0.1620  0.8441 -0.8149
 6751TIP3    H241813   5.820   6.519   1.234  0.3577  1.8898  0.3183
 6752TIP3   OH241814   4.373   0.936   8.364 -0.2729 -0.0455  0.2252
 6752TIP3    H141815   4.398   0.957   8.274  1.5128 -0.7881  0.5029
 6752TIP3    H241816   4.404   1.011   8.415  0.2805 -0.4008  0.4203
 6753TIP3   OH241817   1.282   4.645   0.108  0.3992 -0.1868 -0.2891
 6753TIP3    H141818   1.361   4.690   0.077 -0.2517  0.5899 -0.8778
 6753TIP3    H241819   1.311   4.557   0.131  1.3587 -0.0277 -0.8643
 6754TIP3   OH241820   4.065   2.934   2.135 -0.0948  0.5422  0.4799
 6754TIP3    H141821   4.126   2.947   2.207 -1.1890 -1.1415  1.7754
 6754TIP3    H241822   3.979   2.927   2.177 -1.0279  1.4566 -1.1760
 6755TIP3   OH241823   1.229   1.909   1.764  0.5042 -0.0209  0.2553
 6755TIP3    H141824   1.270   1.945   1.685  0.8052 -0.1650  0.3458
 6755TIP3    H241825   1.295   1.919   1.832 -0.3086  1.5289  0.8675
 6756TIP3   OH241826   5.971   0.083   7.091 -0.6364 -0.0209 -0.0072
 6756TIP3    H141827   6.018  -0.000   7.100 -0.7972 -0.2364 -1.0927
 6756TIP3    H241828   5.924   0.076   7.008 -0.2758  1.3490 -0.3484
 6757TIP3   OH241829   6.815   4.007   0.497  0.6038 -0.3408 -0.6749
 6757TIP3    H141830   6.719   4.005   0.503  0.6931 -1.7759  1.2802
 6757TIP3    H241831   6.833   4.072   0.429 -1.6936  2.6321  1.2481
 6758TIP3   OH241832   4.499   4.774   7.307 -0.8465  0.1335  0.1945
 6758TIP3    H141833   4.453   4.704   7.260 -0.5775  0.4991 -0.6287
 6758TIP3    H241834   4.550   4.728   7.374 -0.6579 -0.4734 -0.3483
 6759TIP3   OH241835   1.244   5.034   0.686  0.1272 -0.6452 -0.1422
 6759TIP3    H141836   1.321   5.072   0.644  0.7481 -0.5872  1.0005
 6759TIP3    H241837   1.199   5.109   0.726 -0.2399 -0.7439 -0.3691
 6760TIP3   OH241838   3.878   4.252   7.996 -0.0065 -0.1337  0.0104
 6760TIP3    H141839   3.840   4.226   7.912  0.1851 -1.9777  0.4608
 6760TIP3    H241840   3.961   4.205   7.999  0.3132  0.4780  0.9363
 6761TIP3   OH241841   0.920   2.442   1.003  0.4682 -0.0222  0.0213
 6761TIP3    H141842   0.918   2.462   0.910 -1.1298 -0.1238  0.0085
 6761TIP3    H241843   0.927   2.528   1.046  2.7356 -0.0474 -0.1755
 6762TIP3   OH241844   6.150   2.641   1.596 -0.2437 -0.1542  0.3782
 6762TIP3    H141845   6.142   2.670   1.687  1.3106  0.0223  0.4780
 6762TIP3    H241846   6.181   2.551   1.602  1.0750  0.2627  0.0288
 6763TIP3   OH241847   6.013   2.984   1.432  0.0616 -0.5153 -0.1092
 6763TIP3    H141848   6.030   3.078   1.441  0.0463 -0.6827  2.1353
 6763TIP3    H241849   6.100   2.944   1.431  0.0496 -0.5458  0.0123
 6764TIP3   OH241850   5.973   0.815   0.795 -0.1622 -0.3879  0.4166
 6764TIP3    H141851   5.942   0.776   0.877  3.1465 -0.1768  1.9166
 6764TIP3    H241852   5.977   0.909   0.813  1.7431 -0.4451  0.5398
 6765TIP3   OH241853   6.786   6.504   7.402  0.5077 -0.2051  0.7589
 6765TIP3    H141854   6.822   6.469   7.320 -0.8883  2.8364 -1.3422
 6765TIP3    H241855   6.699   6.465   7.409  0.5471 -0.3096  0.6656
 6766TIP3   OH241856   3.989   6.734   0.916 -0.1765  0.0281  0.3576
 6766TIP3    H141857   3.990   6.660   0.977  0.7505 -0.1952  0.0821
 6766TIP3    H241858   3.912   6.719   0.862  1.1845 -1.9733 -1.1734
 6767TIP3   OH241859   6.298   6.505   0.682  0.0253  0.7458 -0.5489
 6767TIP3    H141860   6.267   6.421   0.647  0.9644 -0.0031  0.3230
 6767TIP3    H241861   6.218   6.550   0.710 -0.3859 -1.0646  1.4986
 6768TIP3   OH241862   2.762   2.810   0.562  0.1564  0.2923 -0.3710
 6768TIP3    H141863   2.851   2.775   0.568  0.1740  0.4105  0.1301
 6768TIP3    H241864   2.706   2.734   0.576  0.1534  0.0506 -1.5523
 6769TIP3   OH241865   6.660   0.508   1.082  0.1564 -0.4595  0.2355
 6769TIP3    H141866   6.717   0.432   1.095 -0.3178 -0.7478  0.6251
 6769TIP3    H241867   6.572   0.475   1.099 -0.1746 -0.1094 -0.7415
 6770TIP3   OH241868   4.684   4.084   7.443 -0.5055  0.4013  0.0201
 6770TIP3    H141869   4.768   4.115   7.408  0.5861 -3.3817 -1.1879
 6770TIP3    H241870   4.620   4.145   7.407  1.3375  1.0594 -2.4726
 6771TIP3   OH241871   0.153   4.370   0.329  0.2605 -0.6634  0.2937
 6771TIP3    H141872   0.077   4.313   0.327  0.6655 -1.2708  1.6012
 6771TIP3    H241873   0.213   4.333   0.264  0.8082 -2.1690  1.6069
 6772TIP3   OH241874   2.804   2.364   1.311  0.5415  0.3691  0.4722
 6772TIP3    H141875   2.748   2.339   1.237 -0.1731  0.8197  0.8460
 6772TIP3    H241876   2.890   2.380   1.272  0.1232  0.8009 -0.3019
 6773TIP3   OH241877   5.884   0.215   0.294  0.2368 -0.3836  0.3282
 6773TIP3    H141878   5.805   0.267   0.308 -1.5311 -2.0647 -2.4149
 6773TIP3    H241879   5.947   0.277   0.255 -0.9592  0.2661 -0.6440
 6774TIP3   OH241880   0.525   3.914   1.649  0.1723 -0.3760 -0.1000
 6774TIP3    H141881   0.439   3.945   1.621  0.2695 -0.3116 -0.3325
 6774TIP3    H241882   0.578   3.915   1.569  0.1762 -1.1372 -0.1131
 6775TIP3   OH241883   4.615   2.905   0.136  0.1570 -0.2995 -0.4258
 6775TIP3    H141884   4.653   2.857   0.062  0.3250  1.9647 -1.9052
 6775TIP3    H241885   4.540   2.852   0.163  0.4134 -1.4689 -1.8668
 6776TIP3   OH241886   0.926   1.199   8.437 -0.0304 -0.0905 -0.3964
 6776TIP3    H141887   0.991   1.149   8.486  0.7617  0.5137 -0.7983
 6776TIP3    H241888   0.951   1.290   8.451  0.7503  0.0894 -2.5790
 6777TIP3   OH241889   5.754   3.175   2.058  0.6452  0.0272  0.1603
 6777TIP3    H141890   5.706   3.212   2.133  0.6873 -1.3329  0.8869
 6777TIP3    H241891   5.739   3.081   2.064  3.2748 -0.4519  0.3091
 6778TIP3   OH241892   0.610   2.920   1.942  0.3732  0.8235  0.4673
 6778TIP3    H141893   0.704   2.922   1.925  0.3909 -0.3182  0.3405
 6778TIP3    H241894   0.602   2.941   2.035  1.0463 -2.0762  1.2886
 6779TIP3   OH241895   1.095   6.068   2.223  0.2213 -0.3682  0.2159
 6779TIP3    H141896   1.033   6.140   2.233  0.1780 -0.4989  0.9802
 6779TIP3    H241897   1.155   6.097   2.155  0.0978  0.3172  0.3925
 6780TIP3   OH241898   4.217   0.108   8.006  0.1507  0.0433 -0.6760
 6780TIP3    H141899   4.200   0.068   7.921 -1.9723 -0.8019  0.0930
 6780TIP3    H241900   4.131   0.124   8.044  1.0221  0.5985  1.2370
 6781TIP3   OH241901   3.994   0.327   1.562 -0.3191 -0.1920  0.1925
 6781TIP3    H141902   3.966   0.280   1.641 -0.7528 -1.2240 -0.5662
 6781TIP3    H241903   3.927   0.395   1.551 -0.1987  0.0304  0.7677
 6782TIP3   OH241904   3.551   0.828   7.796  0.3460  0.5092  0.2418
 6782TIP3    H141905   3.456   0.832   7.788  0.3208 -1.0987 -0.6323
 6782TIP3    H241906   3.583   0.875   7.719  0.2985  1.6496  0.8896
 6783TIP3   OH241907   5.229   1.340   8.495 -0.1032  0.2281  0.0195
 6783TIP3    H141908   5.308   1.294   8.522 -0.5107 -0.2048  0.4868
 6783TIP3    H241909   5.242   1.430   8.526 -0.0429  0.0178  0.6182
 6784TIP3   OH241910   1.313   0.184   7.447  0.3425 -0.4388  0.0891
 6784TIP3    H141911   1.272   0.105   7.482  0.6673  0.0022  1.5163
 6784TIP3    H241912   1.260   0.256   7.482 -1.3746 -0.0204 -3.0297
 6785TIP3   OH241913   1.305   5.724   1.296  0.1993 -0.1927  0.0228
 6785TIP3    H141914   1.349   5.647   1.258 -1.9724 -0.4948 -2.1591
 6785TIP3    H241915   1.371   5.793   1.294  0.7701 -0.6827 -2.8463
 6786TIP3   OH241916   1.829   2.106   0.776  0.1151  0.0398 -0.2161
 6786TIP3    H141917   1.891   2.034   0.766  0.4782  0.2132  0.7096
 6786TIP3    H241918   1.799   2.124   0.687  0.6485 -0.6985 -0.5576
 6787TIP3   OH241919   2.002   3.368   0.130  0.1717  0.1027 -0.4356
 6787TIP3    H141920   2.079   3.350   0.184 -0.5465  0.2661  0.6706
 6787TIP3    H241921   1.956   3.438   0.176 -0.3080  0.4511 -1.4284
 6788TIP3   OH241922   5.850   0.714   0.183  0.3560 -0.0514 -0.4194
 6788TIP3    H141923   5.755   0.725   0.194  0.4012 -0.4423  0.4638
 6788TIP3    H241924   5.887   0.770   0.252  0.7680  0.0618 -0.7336
 6789TIP3   OH241925   1.699   2.887   0.880 -0.2251  0.1707 -0.0048
 6789TIP3    H141926   1.772   2.852   0.932  0.0114  0.4939 -0.1158
 6789TIP3    H241927   1.624   2.886   0.939 -0.0226  0.2671  0.2532
 6790TIP3   OH241928   5.782   1.570   7.995  0.6144 -0.0945 -0.5041
 6790TIP3    H141929   5.824   1.496   8.038 -1.1968 -0.8280  0.1272
 6790TIP3    H241930   5.838   1.645   8.015  1.4003 -0.9421  0.6143
 6791TIP3   OH241931   0.532   5.701   2.288  0.0021 -0.0590  0.7355
 6791TIP3    H141932   0.455   5.645   2.279  0.0222  0.0149  0.0244
 6791TIP3    H241933   0.603   5.640   2.310 -0.1457 -0.2018  0.8198
 6792TIP3   OH241934   1.773   3.305   7.026 -0.9009 -0.5796 -0.5001
 6792TIP3    H141935   1.710   3.377   7.027  0.5611  1.0060  3.8202
 6792TIP3    H241936   1.858   3.348   7.012 -0.0740 -1.4390  1.5073
 6793TIP3   OH241937   4.603   3.424   1.297 -0.3777 -0.2237  0.1014
 6793TIP3    H141938   4.637   3.509   1.323 -1.0043  0.1605 -0.3098
 6793TIP3    H241939   4.520   3.415   1.345 -0.6608 -0.2847 -0.3876
 6794TIP3   OH241940   4.506   1.112   7.546  0.3156 -0.1021 -0.4125
 6794TIP3    H141941   4.577   1.064   7.504  0.3722  1.0036 -1.6648
 6794TIP3    H241942   4.427   1.084   7.500  0.1976  0.0938 -0.3325
 6795TIP3   OH241943   0.703   4.403   1.556  0.5114 -0.1328  0.5467
 6795TIP3    H141944   0.688   4.412   1.650 -0.7248  0.3928  0.3161
 6795TIP3    H241945   0.681   4.489   1.520  0.9065 -0.3550 -0.2421
 6796TIP3   OH241946   3.437   0.309   2.026 -0.4208  0.2032  0.3795
 6796TIP3    H141947   3.424   0.292   1.933  1.2291  0.2631  0.1112
 6796TIP3    H241948   3.387   0.240   2.070 -0.0226 -0.7371 -0.5849
 6797TIP3   OH241949   4.985   6.651   0.732 -0.1496  0.1948 -0.2257
 6797TIP3    H141950   4.957   6.563   0.708 -0.7556  0.8094 -1.9883
 6797TIP3    H241951   5.057   6.671   0.671  0.7972  0.5020  0.9420
 6798TIP3   OH241952   0.710   3.807   0.815 -0.2558 -0.1618 -0.5321
 6798TIP3    H141953   0.801   3.793   0.789 -0.4616  1.0948 -2.1463
 6798TIP3    H241954   0.712   3.885   0.870 -0.4919  0.9175 -1.9767
 6799TIP3   OH241955   0.364   0.040   0.165  0.2485  0.5189  0.1081
 6799TIP3    H141956   0.375   0.077   0.253 -1.2005 -1.2706  1.1109
 6799TIP3    H241957   0.434  -0.025   0.158 -1.2374 -1.3086  1.1286
 6800TIP3   OH241958   2.478   6.800   8.414  0.2162 -0.1766  0.2567
 6800TIP3    H141959   2.547   6.745   8.451  0.9510 -0.5559 -1.5371
 6800TIP3    H241960   2.451   6.857   8.485  0.8341 -1.5269  1.6145
 6801TIP3   OH241961   4.206   5.538   8.592 -0.6666 -0.7198 -0.5784
 6801TIP3    H141962   4.132   5.493   8.632 -0.3558 -2.0096 -1.3850
 6801TIP3    H241963   4.225   5.487   8.513  0.4323  0.1823 -0.9214
 6802TIP3   OH241964   3.527   5.324   0.178 -0.7453 -0.6152 -0.0905
 6802TIP3    H141965   3.586   5.399   0.187 -1.1401 -0.2559 -0.4339
 6802TIP3    H241966   3.476   5.323   0.259 -0.4135 -0.8022  0.1186
 6803TIP3   OH241967   4.009   4.528   7.980  0.3956 -0.5796 -0.2075
 6803TIP3    H141968   3.938   4.466   7.999  0.0404  0.0999  0.7467
 6803TIP3    H241969   4.044   4.499   7.896 -2.0942  0.0380 -1.5351
 6804TIP3   OH241970   5.073   1.765   8.031  0.4359  0.1687  0.1184
 6804TIP3    H141971   5.007   1.722   8.085  0.8083 -0.3930  0.1383
 6804TIP3    H241972   5.091   1.703   7.961  1.6177 -0.0971  0.6342
 6805TIP3   OH241973   3.227   3.802   1.244  0.5501  0.6965  0.8203
 6805TIP3    H141974   3.222   3.896   1.230 -0.9418  0.3062 -2.1280
 6805TIP3    H241975   3.311   3.777   1.205  0.2446  0.6354  0.1937
 6806TIP3   OH241976   5.867   3.601   1.672  0.3415  0.3213  0.0314
 6806TIP3    H141977   5.898   3.548   1.745 -2.0196  0.0182  0.9152
 6806TIP3    H241978   5.936   3.667   1.659  1.6939 -0.7907  1.2423
 6807TIP3   OH241979   2.273   3.946   0.215  0.2433 -0.7698 -0.2043
 6807TIP3    H141980   2.226   3.971   0.135  2.1964  0.6141 -1.0206
 6807TIP3    H241981   2.230   3.996   0.284  0.9989  1.2248 -1.0764
 6808TIP3   OH241982   1.910   0.537   8.343  0.1874 -0.1637 -0.0362
 6808TIP3    H141983   1.852   0.463   8.363 -0.6151  0.8085  1.4607
 6808TIP3    H241984   1.934   0.571   8.429  3.4689 -0.8275 -0.5497
 6809TIP3   OH241985   5.494   5.755   6.818  0.1067  0.0271 -0.2374
 6809TIP3    H141986   5.462   5.724   6.903 -0.5985 -0.6754 -0.7424
 6809TIP3    H241987   5.488   5.679   6.761  0.6679  0.4666 -0.9042
 6810TIP3   OH241988   5.761   2.033   1.030  0.3879 -0.3099 -0.5835
 6810TIP3    H141989   5.724   2.070   1.111  0.0570 -0.5314 -0.6350
 6810TIP3    H241990   5.836   2.090   1.011  1.8251 -1.5551  1.0806
 6811TIP3   OH241991   4.058   0.981   8.445  0.8729  0.1586 -0.5544
 6811TIP3    H141992   4.139   0.975   8.496  1.3652  1.0208 -1.2149
 6811TIP3    H241993   4.072   0.919   8.373  0.7453 -0.0328 -0.4167
 6812TIP3   OH241994   0.487   2.384   1.868  0.2487  0.5009 -0.1015
 6812TIP3    H141995   0.514   2.295   1.890  1.5154  1.0384  0.6571
 6812TIP3    H241996   0.419   2.373   1.801  1.9041 -0.9863 -1.6672
 6813TIP3   OH241997   2.311   0.145   8.657 -0.9252  0.3394  0.1917
 6813TIP3    H141998   2.320   0.069   8.715 -1.4983 -0.9265 -1.2975
 6813TIP3    H241999   2.400   0.179   8.649 -0.5006 -0.7296  0.1740
 6814TIP3   OH242000   4.699   2.430   0.715  0.9542  0.2946  0.3017
 6814TIP3    H142001   4.787   2.452   0.686  1.7138 -1.7796  0.8339
 6814TIP3    H242002   4.688   2.475   0.798  1.3022  0.9794 -0.0205
 6815TIP3   OH242003   5.530   4.631   8.381  0.0261 -0.1164  0.1843
 6815TIP3    H142004   5.502   4.540   8.383  2.0147 -0.8355 -1.2481
 6815TIP3    H242005   5.612   4.633   8.430  1.4270  0.2887 -2.0513
 6816TIP3   OH242006   0.205   6.283   8.288 -0.5961 -0.1297 -0.4223
 6816TIP3    H142007   0.176   6.335   8.213 -1.3009  0.2477  0.0923
 6816TIP3    H242008   0.194   6.342   8.363  2.8238  0.5670 -0.3013
 6817TIP3   OH242009   0.303   6.701   0.869  0.0544  0.0757  0.3707
 6817TIP3    H142010   0.256   6.769   0.918 -1.9369 -1.9846  1.4735
 6817TIP3    H242011   0.390   6.698   0.909  1.4214  3.9575 -1.6930
 6818TIP3   OH242012   2.907   0.367   1.645  0.6356 -0.0452  0.4514
 6818TIP3    H142013   2.843   0.392   1.712 -0.0541 -0.3847 -0.0688
 6818TIP3    H242014   2.979   0.327   1.694  0.3868  0.2044  1.0310
 6819TIP3   OH242015   3.670   5.975   7.860  0.1646 -0.4146  0.8339
 6819TIP3    H142016   3.595   5.920   7.886  0.6631 -0.7622  1.6010
 6819TIP3    H242017   3.743   5.913   7.852  1.1186  0.2663  3.2649
 6820TIP3   OH242018   6.848   2.681   0.949 -0.2570  0.1901  0.1936
 6820TIP3    H142019   6.927   2.705   0.998  0.1993 -0.9318  0.0504
 6820TIP3    H242020   6.775   2.714   1.003  0.2919  2.7333 -0.4762
 6821TIP3   OH242021   5.619   1.168   0.901 -0.0752  0.6183 -0.1423
 6821TIP3    H142022   5.584   1.145   0.987 -0.1019  0.4573 -0.1943
 6821TIP3    H242023   5.541   1.172   0.844  0.1107 -1.4372 -0.6415
 6822TIP3   OH242024   3.584   3.515   2.883 -0.5561 -0.4017 -0.2650
 6822TIP3    H142025   3.560   3.435   2.930 -1.0569 -0.0156  0.1565
 6822TIP3    H242026   3.628   3.485   2.804  0.4082 -1.0646  0.5072
 6823TIP3   OH242027   3.025   6.364   1.290  0.9389  0.1908  0.4913
 6823TIP3    H142028   2.956   6.313   1.332 -2.8031  1.8752 -2.8984
 6823TIP3    H242029   3.025   6.447   1.336 -0.6814  0.8090 -0.5460
 6824TIP3   OH242030   1.198   4.434   8.034  0.0430  0.1761  0.3206
 6824TIP3    H142031   1.279   4.384   8.051 -0.1352  0.2000  1.3177
 6824TIP3    H242032   1.132   4.392   8.090 -0.9392 -0.5689 -1.3273
 6825TIP3   OH242033   3.521   2.237   2.441  0.1053 -0.5574 -0.0843
 6825TIP3    H142034   3.590   2.183   2.402  0.5409 -0.7361  0.9144
 6825TIP3    H242035   3.513   2.205   2.531 -0.5342  0.1803  0.1334
 6826TIP3   OH242036   4.404   6.306   0.150 -0.2891 -0.2601 -0.6728
 6826TIP3    H142037   4.322   6.299   0.197 -1.2950  0.9401 -2.1588
 6826TIP3    H242038   4.471   6.290   0.216 -1.6672 -0.2297  0.7834
 6827TIP3   OH242039   0.391   5.560   8.082 -0.1026  0.1017  0.8840
 6827TIP3    H142040   0.305   5.578   8.045  0.9370  0.2962 -1.6886
 6827TIP3    H242041   0.389   5.468   8.107 -0.5400 -0.3719 -0.7953
 6828TIP3   OH242042   6.850   4.652   0.745 -0.2405 -0.1884 -0.5681
 6828TIP3    H142043   6.779   4.716   0.746  0.0311  0.1101 -0.0808
 6828TIP3    H242044   6.813   4.576   0.700 -1.3540 -0.6078  0.9746
 6829TIP3   OH242045   5.191   0.704   1.604 -0.3247  0.1374 -0.7791
 6829TIP3    H142046   5.238   0.762   1.543 -1.5161  1.1713 -0.7371
 6829TIP3    H242047   5.127   0.760   1.647  0.6660 -0.4909  1.6979
 6830TIP3   OH242048   3.626   2.309   8.455  0.0640  0.0025 -0.2514
 6830TIP3    H142049   3.679   2.389   8.451  0.9752 -0.5748  0.0770
 6830TIP3    H242050   3.680   2.243   8.412  0.5568 -1.1012  1.9185
 6831TIP3   OH242051   0.931   2.807   0.327 -0.3181 -0.0629  0.3616
 6831TIP3    H142052   0.951   2.782   0.237  0.2983 -3.0064  1.1960
 6831TIP3    H242053   0.851   2.759   0.348 -0.2853  0.3285  1.4768
 6832TIP3   OH242054   0.618   2.767   0.633  0.1487 -0.1259 -0.1286
 6832TIP3    H142055   0.561   2.831   0.590  0.1093  0.0640  0.2014
 6832TIP3    H242056   0.649   2.710   0.562  0.3066  0.3512 -0.4479
 6833TIP3   OH242057   0.163   4.549   1.972  0.3167 -0.4144  0.4491
 6833TIP3    H142058   0.148   4.551   2.066 -0.2175 -1.9107  0.4266
 6833TIP3    H242059   0.235   4.611   1.957 -0.6005  0.9810  1.6193
 6834TIP3   OH242060   0.612   2.958   1.532  0.2189 -0.4431  0.4395
 6834TIP3    H142061   0.665   3.034   1.557  0.3287 -0.7350  1.1170
 6834TIP3    H242062   0.676   2.888   1.520  0.3215 -0.0128 -1.9953
 6835TIP3   OH242063   3.274   6.429   7.419 -0.7847 -0.3754  0.3713
 6835TIP3    H142064   3.346   6.425   7.355  0.1736 -0.6603  1.4450
 6835TIP3    H242065   3.241   6.340   7.424 -1.5467 -0.1640 -0.4505
 6836TIP3   OH242066   5.353   4.777   8.000 -0.1680 -0.4839  0.1687
 6836TIP3    H142067   5.433   4.829   7.990 -2.0532  2.5206 -0.3155
 6836TIP3    H242068   5.331   4.784   8.093 -1.3619  1.1577 -0.2042
 6837TIP3   OH242069   1.566   6.310   1.206  0.1996  0.2768  0.2099
 6837TIP3    H142070   1.602   6.383   1.156 -0.5025  1.3664  1.2578
 6837TIP3    H242071   1.551   6.345   1.294 -0.6065 -0.9868  0.6071
 6838TIP3   OH242072   2.192   5.930   1.050  0.1051 -0.3267  0.0553
 6838TIP3    H142073   2.170   5.883   0.970  1.4808  0.1311 -0.6146
 6838TIP3    H242074   2.121   5.994   1.060 -1.7379 -2.3772  0.9300
 6839TIP3   OH242075   0.841   1.784   7.011 -0.5329 -0.4873 -0.4000
 6839TIP3    H142076   0.879   1.842   6.944 -1.9009 -0.3069 -1.0575
 6839TIP3    H242077   0.862   1.696   6.980 -0.3424 -0.3841 -0.5691
 6840TIP3   OH242078   5.396   4.547   0.108 -0.0589  0.5718 -0.6476
 6840TIP3    H142079   5.397   4.485   0.181 -0.9915  0.0468 -1.0546
 6840TIP3    H242080   5.319   4.601   0.124 -1.3504 -0.6971 -2.1248
 6841TIP3   OH242081   3.343   0.566   7.791  0.1402  0.5695  0.1134
 6841TIP3    H142082   3.288   0.526   7.858 -0.8195 -0.2967 -1.1303
 6841TIP3    H242083   3.305   0.652   7.777  0.4164  0.7990  0.7610
 6842TIP3   OH242084   0.852   5.461   8.348  0.1191 -0.1056  0.7631
 6842TIP3    H142085   0.828   5.415   8.428  0.3266  0.7501  1.3388
 6842TIP3    H242086   0.905   5.535   8.379  0.9585 -0.2717 -0.2332
 6843TIP3   OH242087   0.572   5.827   0.723  0.4503  0.2802 -0.0979
 6843TIP3    H142088   0.622   5.783   0.654  1.2730  0.4953  0.3511
 6843TIP3    H242089   0.617   5.910   0.736 -0.5861  0.8952 -0.3308
 6844TIP3   OH242090   5.346   2.364   8.106  0.0294 -0.5057  0.0709
 6844TIP3    H142091   5.365   2.439   8.162  0.7198 -1.5592  1.2852
 6844TIP3    H242092   5.314   2.296   8.166  2.5979 -2.3253 -0.4522
 6845TIP3   OH242093   0.463   5.472   1.643  0.4060  0.4704  0.3764
 6845TIP3    H142094   0.502   5.503   1.561  0.6158  0.7010  0.5619
 6845TIP3    H242095   0.504   5.386   1.658  0.6496  0.5964  0.4361
 6846TIP3   OH242096   0.693   0.438   0.722  0.2229  0.3803  0.0129
 6846TIP3    H142097   0.650   0.404   0.644  1.6244 -0.4161 -0.4563
 6846TIP3    H242098   0.775   0.476   0.690  1.0616 -0.4099  1.1234
 6847TIP3   OH242099   1.657   3.247   7.555  0.2497 -0.0317  0.2016
 6847TIP3    H142100   1.575   3.295   7.555  0.8138  0.9616  0.3120
 6847TIP3    H242101   1.667   3.216   7.464  1.7830  3.4777 -0.9766
 6848TIP3   OH242102   3.353   0.050   7.178 -0.9210  1.1364 -0.0806
 6848TIP3    H142103   3.397   0.078   7.099  1.1794  0.6545  0.8526
 6848TIP3    H242104   3.335  -0.043   7.164 -1.4135  1.2734 -0.3615
 6849TIP3   OH242105   0.093   6.295   7.619  0.7618 -0.5043  0.6107
 6849TIP3    H142106   0.050   6.363   7.568  2.7307 -0.5138 -1.2167
 6849TIP3    H242107   0.088   6.216   7.564  1.6007 -0.9093  1.0868
 6850TIP3   OH242108   2.103   2.651   8.443  0.1153 -0.2459 -0.0914
 6850TIP3    H142109   2.038   2.717   8.417 -0.3481 -0.5685  0.2300
 6850TIP3    H242110   2.115   2.598   8.365 -0.3775 -0.4827 -0.0102
 6851TIP3   OH242111   6.686   0.347   7.740  0.1756  0.0903  0.4832
 6851TIP3    H142112   6.623   0.369   7.672 -1.4540 -2.1218  1.1571
 6851TIP3    H242113   6.725   0.264   7.712  1.6322  0.6004  0.8726
 6852TIP3   OH242114   2.837   1.876   6.683 -0.0172  0.5399  0.7559
 6852TIP3    H142115   2.818   1.864   6.590  0.7053 -1.6078  0.8294
 6852TIP3    H242116   2.805   1.795   6.724 -1.3182  1.9018  2.5579
 6853TIP3   OH242117   0.682   6.368   0.789  0.3822  0.4554 -0.7806
 6853TIP3    H142118   0.655   6.457   0.767 -0.0016  0.1419 -1.6191
 6853TIP3    H242119   0.623   6.312   0.738  1.5944 -0.2689 -1.4130
 6854TIP3   OH242120   1.338   3.737   1.224  0.2813 -0.4189  0.4615
 6854TIP3    H142121   1.245   3.721   1.206 -0.0312  1.9154 -0.3012
 6854TIP3    H242122   1.384   3.674   1.168 -0.8324 -0.1495 -0.8197
 6855TIP3   OH242123   2.485   3.819   0.305 -0.6702 -0.2405  0.0442
 6855TIP3    H142124   2.397   3.847   0.278 -0.1148  0.7611 -0.8680
 6855TIP3    H242125   2.474   3.732   0.342 -2.1166  0.0910  0.4266
 6856TIP3   OH242126   3.871   0.161   0.747 -0.2883 -0.4827 -0.0915
 6856TIP3    H142127   3.942   0.106   0.715  0.9010  0.7241  0.3529
 6856TIP3    H242128   3.795   0.134   0.696  1.1454  0.2167 -2.8002
 6857TIP3   OH242129   0.008   0.286   0.136  0.0749 -0.0205  0.3130
 6857TIP3    H142130   0.030   0.367   0.090 -0.3028  0.3438  0.7658
 6857TIP3    H242131  -0.075   0.258   0.096  0.1434 -0.1224  0.2406
 6858TIP3   OH242132   6.841   5.011   6.608 -0.5009 -0.2521 -0.1270
 6858TIP3    H142133   6.883   5.017   6.522  0.7905 -0.3950  0.4732
 6858TIP3    H242134   6.826   4.917   6.620  2.4242 -0.6660  1.1860
 6859TIP3   OH242135   4.607   3.414   2.033 -0.1991 -0.1635  0.3972
 6859TIP3    H142136   4.665   3.370   2.096  0.0429 -1.3504 -0.6187
 6859TIP3    H242137   4.661   3.483   1.995 -0.7374  1.4533  2.3823
 6860TIP3   OH242138   2.626   2.551   6.544 -0.1202 -0.7443  0.0439
 6860TIP3    H142139   2.691   2.533   6.477 -0.3399  0.9655 -0.6977
 6860TIP3    H242140   2.677   2.566   6.624  0.4404  0.5737 -0.5293
 6861TIP3   OH242141   4.380   1.638   8.496 -0.0859 -0.2965 -0.2755
 6861TIP3    H142142   4.311   1.622   8.431 -0.0397 -0.4729 -0.2794
 6861TIP3    H242143   4.383   1.734   8.503 -1.2775 -0.3028  0.7241
 6862TIP3   OH242144   6.581   6.272   1.157 -0.4076  0.7108  0.4779
 6862TIP3    H142145   6.653   6.334   1.145  0.1122  0.2015  0.8858
 6862TIP3    H242146   6.625   6.189   1.179 -1.1131  0.3635  0.5917
 6863TIP3   OH242147   5.456   5.427   0.482  0.0074  0.1406  0.4130
 6863TIP3    H142148   5.369   5.407   0.515  1.1164 -3.6825  1.5404
 6863TIP3    H242149   5.514   5.416   0.557  1.9999 -3.4353 -1.3580
 6864TIP3   OH242150   0.861   4.703   7.632  0.0660 -0.2372 -0.4575
 6864TIP3    H142151   0.942   4.733   7.591 -1.0106  1.8290 -1.1831
 6864TIP3    H242152   0.798   4.774   7.618 -1.0368 -0.3596  2.8349
 6865TIP3   OH242153   0.264   0.010   1.938  0.3110  0.2207  0.3379
 6865TIP3    H142154   0.252   0.035   2.030 -0.2363 -0.8585  0.5717
 6865TIP3    H242155   0.233  -0.080   1.933 -0.2427  0.4609 -1.0378
 6866TIP3   OH242156   4.087   0.844   0.024  0.1143  0.3132  0.6421
 6866TIP3    H142157   4.038   0.916   0.063 -1.8939 -0.8800  0.4927
 6866TIP3    H242158   4.173   0.847   0.066  0.0404  2.6459  0.7435
 6867TIP3   OH242159   5.562   3.845   0.335 -0.0856  0.5782  0.9644
 6867TIP3    H142160   5.592   3.930   0.302 -0.2394  0.3989  0.3502
 6867TIP3    H242161   5.535   3.863   0.425 -2.5260  1.7587  0.1001
 6868TIP3   OH242162   4.915   6.475   8.104 -0.3450  0.5532  0.1679
 6868TIP3    H142163   4.835   6.510   8.144  0.8806  2.0298  1.4241
 6868TIP3    H242164   4.937   6.399   8.158 -0.4612  0.6111  0.2990
 6869TIP3   OH242165   5.320   2.068   8.488  0.1813  0.1284 -0.2296
 6869TIP3    H142166   5.247   2.011   8.514  0.1028 -0.4726 -1.6705
 6869TIP3    H242167   5.398   2.027   8.525  0.1530 -1.0844 -1.4668
 6870TIP3   OH242168   6.400   5.961   1.404 -0.2864 -0.3959 -0.1598
 6870TIP3    H142169   6.433   5.886   1.453  0.6585 -0.6471 -1.1282
 6870TIP3    H242170   6.401   6.033   1.467  0.1724 -0.8763  0.3990
 6871TIP3   OH242171   0.498   3.291   8.014  0.2791 -0.2801 -0.1268
 6871TIP3    H142172   0.481   3.207   7.973  5.1628 -1.2383 -0.7687
 6871TIP3    H242173   0.488   3.355   7.943  2.2934 -1.1457 -1.2695
 6872TIP3   OH242174   5.241   2.755   8.576  0.1131  0.2355  0.2260
 6872TIP3    H142175   5.244   2.676   8.523 -2.1506 -0.0425  0.4035
 6872TIP3    H242176   5.226   2.723   8.665 -0.6930  0.8411  0.3190
 6873TIP3   OH242177   3.083   4.612   8.184 -0.1815 -0.2266 -0.3331
 6873TIP3    H142178   3.173   4.601   8.213 -0.6830 -0.3463  1.3363
 6873TIP3    H242179   3.089   4.633   8.091  1.6157  1.1790  0.0623
 6874TIP3   OH242180   3.238   4.653   0.223  0.2022 -0.5566 -0.1444
 6874TIP3    H142181   3.267   4.664   0.313  0.9771 -0.3828 -0.4035
 6874TIP3    H242182   3.308   4.691   0.170 -1.0585  1.0532 -0.7639
 6875TIP3   OH242183   6.401   2.797   6.510 -0.8844 -0.0127  0.0979
 6875TIP3    H142184   6.391   2.702   6.513 -2.9697  0.0813 -1.6372
 6875TIP3    H242185   6.312   2.831   6.518 -0.6501  1.6186 -2.8531
 6876TIP3   OH242186   4.004   6.824   1.708  0.1336  0.3379 -0.0614
 6876TIP3    H142187   4.001   6.797   1.616  0.0587 -1.3517  0.3931
 6876TIP3    H242188   3.918   6.800   1.743  1.1576 -1.9925  1.1519
 6877TIP3   OH242189   5.168   4.794   0.454 -0.5549 -0.4692 -0.0930
 6877TIP3    H142190   5.087   4.766   0.498  0.2587 -0.3710  1.5635
 6877TIP3    H242191   5.145   4.798   0.361 -2.0688 -1.7928  0.1756
 6878TIP3   OH242192   1.661   6.455   7.029  0.0093  0.0486 -0.1338
 6878TIP3    H142193   1.730   6.432   6.967  0.3228 -0.2396  0.3192
 6878TIP3    H242194   1.587   6.480   6.973 -0.0448 -1.1627 -0.6408
 6879TIP3   OH242195   4.126   1.064   2.545  0.1514  0.5134 -0.1440
 6879TIP3    H142196   4.037   1.101   2.540 -1.3004 -2.7249 -0.9758
 6879TIP3    H242197   4.124   1.008   2.623  0.4446 -1.7788 -1.6968
 6880TIP3   OH242198   3.949   4.437   7.333  0.4733 -0.4167  0.2905
 6880TIP3    H142199   4.004   4.363   7.360  1.3158 -0.4011 -1.2571
 6880TIP3    H242200   3.902   4.405   7.256 -2.6313 -0.7991  2.1833
 6881TIP3   OH242201   1.191   2.507   1.296  0.2390  0.3471 -0.3028
 6881TIP3    H142202   1.200   2.414   1.274  0.6762  0.4817 -0.7097
 6881TIP3    H242203   1.164   2.508   1.388  1.3582 -0.1481  0.0429
 6882TIP3   OH242204   2.728   5.725   7.281 -0.0848 -0.4442 -0.0353
 6882TIP3    H142205   2.663   5.758   7.219 -0.6245 -1.5519 -0.0958
 6882TIP3    H242206   2.809   5.772   7.260 -0.7206  0.5282 -0.3436
 6883TIP3   OH242207   2.618   5.060   2.455 -0.2284 -0.6592 -0.3484
 6883TIP3    H142208   2.662   5.131   2.502 -1.6400 -0.6818  1.0757
 6883TIP3    H242209   2.571   5.103   2.384  0.4831 -0.4066 -0.6729
 6884TIP3   OH242210   5.826   2.028   7.427 -0.3170  0.3818 -0.5171
 6884TIP3    H142211   5.902   1.974   7.406  0.4450  1.2468 -0.0600
 6884TIP3    H242212   5.861   2.117   7.434 -1.8088  1.2725 -3.0573
 6885TIP3   OH242213   3.092   0.546   1.447  0.3334 -0.1215 -0.2133
 6885TIP3    H142214   3.152   0.618   1.466  2.0195 -1.2879 -0.9367
 6885TIP3    H242215   3.142   0.467   1.466 -1.4070 -1.1355  0.3526
 6886TIP3   OH242216   1.203   1.155   0.097  0.1918 -0.3023 -0.6861
 6886TIP3    H142217   1.127   1.097   0.096  0.0535 -0.1220 -1.1581
 6886TIP3    H242218   1.216   1.176   0.189  0.0952 -0.8876 -0.5341
 6887TIP3   OH242219   0.956   1.097   1.635  0.0900 -0.8092 -0.5557
 6887TIP3    H142220   0.991   1.009   1.637 -1.2310 -1.3641  0.3771
 6887TIP3    H242221   1.023   1.150   1.592  0.5658 -2.3996 -1.8408
 6888TIP3   OH242222   5.133   5.902   0.755  0.2621  0.2374 -0.4803
 6888TIP3    H142223   5.101   5.898   0.845 -0.0821  0.2709 -0.6002
 6888TIP3    H242224   5.228   5.913   0.764  0.0361  2.2631 -0.1016
 6889TIP3   OH242225   3.836   0.344   7.567  0.0523  0.2796  0.1578
 6889TIP3    H142226   3.841   0.289   7.488 -1.1309 -0.9780  0.9122
 6889TIP3    H242227   3.921   0.332   7.610  0.0698 -0.3910 -0.0563
 6890TIP3   OH242228   4.336   1.736   0.289  0.3021 -0.0455  0.5615
 6890TIP3    H142229   4.257   1.788   0.277  0.8454  0.3952 -1.5441
 6890TIP3    H242230   4.396   1.793   0.337  0.5212  0.9302 -0.8144
 6891TIP3   OH242231   1.060   2.895   2.048  0.3627 -0.3803 -0.4477
 6891TIP3    H142232   1.013   2.926   2.126  1.4419 -1.2288  0.5950
 6891TIP3    H242233   1.077   2.803   2.066  2.2051 -0.1660 -0.8407
 6892TIP3   OH242234   1.626   5.059   1.133 -0.0469  0.2860 -0.0777
 6892TIP3    H142235   1.570   5.043   1.209  0.2342  0.8503  0.2534
 6892TIP3    H242236   1.569   5.105   1.071  0.6991  3.4237  1.3392
 6893TIP3   OH242237   4.747   3.751   7.275 -0.1452  0.1746 -0.1572
 6893TIP3    H142238   4.667   3.782   7.231 -0.1023 -0.3344 -0.6118
 6893TIP3    H242239   4.813   3.816   7.253  0.5079 -1.2808 -2.9564
 6894TIP3   OH242240   2.330   2.627   1.405  0.1052 -0.4455 -0.2915
 6894TIP3    H142241   2.294   2.539   1.390 -0.3304 -0.2677 -0.3193
 6894TIP3    H242242   2.307   2.675   1.325  0.0230 -0.2058 -0.1227
 6895TIP3   OH242243   4.587   0.046   1.389 -0.0926  0.0665  0.3027
 6895TIP3    H142244   4.644   0.033   1.464  0.3335 -3.5427 -0.4737
 6895TIP3    H242245   4.499   0.031   1.423  0.0994 -1.5570  0.1522
 6896TIP3   OH242246   0.208   2.697   7.002 -0.1039  1.0703 -0.1930
 6896TIP3    H142247   0.198   2.708   7.097 -1.1836 -0.0504 -0.1479
 6896TIP3    H242248   0.278   2.757   6.978  3.1748 -1.5249  1.9741
 6897TIP3   OH242249   5.248   2.720   1.488  0.5226 -0.4305 -0.7554
 6897TIP3    H142250   5.199   2.766   1.420  0.1168 -0.0201 -0.1974
 6897TIP3    H242251   5.238   2.628   1.467  1.2509 -0.2836 -1.8264
 6898TIP3   OH242252   3.693   4.502   2.020  0.1320  0.0717  0.0471
 6898TIP3    H142253   3.647   4.510   2.103  0.4617 -0.6257  0.3102
 6898TIP3    H242254   3.646   4.434   1.972 -0.9355  1.4488 -0.9678
 6899TIP3   OH242255   6.371   1.979   7.500  0.0284 -0.5752 -0.7835
 6899TIP3    H142256   6.415   1.927   7.568 -0.4652 -1.1381 -0.8923
 6899TIP3    H242257   6.368   2.067   7.537  1.7241 -0.3879 -0.9916
 6900TIP3   OH242258   1.962   5.881   7.640 -0.1665  0.0745 -0.3341
 6900TIP3    H142259   1.944   5.921   7.725 -1.2049 -0.1188 -0.4514
 6900TIP3    H242260   1.978   5.954   7.581 -0.0913  0.2312 -0.1200
 6901TIP3   OH242261   1.831   4.807   7.020  0.8378 -0.3638  0.3451
 6901TIP3    H142262   1.869   4.863   7.087  0.6922 -0.1747  0.2720
 6901TIP3    H242263   1.798   4.868   6.954  2.0129 -0.5713 -0.4639
 6902TIP3   OH242264   6.189   1.076   6.934 -0.0219  0.2370 -0.1449
 6902TIP3    H142265   6.220   1.074   6.844  1.2437 -0.3336  0.2893
 6902TIP3    H242266   6.261   1.114   6.984 -0.3791 -0.2351  0.7471
 6903TIP3   OH242267   4.449   3.095   1.382 -0.3573  0.2260  0.0712
 6903TIP3    H142268   4.406   3.078   1.298 -1.8866 -0.3909  0.9527
 6903TIP3    H242269   4.431   3.187   1.401 -0.6320  0.1691  0.0797
 6904TIP3   OH242270   5.770   2.125   0.630 -0.2965  0.0058  0.0621
 6904TIP3    H142271   5.778   2.212   0.669  2.0036  0.1070 -0.4821
 6904TIP3    H242272   5.826   2.129   0.552  0.3870 -2.1565  0.3994
 6905TIP3   OH242273   0.487   1.409   1.907  0.1058 -0.3750 -0.1715
 6905TIP3    H142274   0.553   1.368   1.851  1.2871  0.3846  0.6398
 6905TIP3    H242275   0.518   1.393   1.996  0.3047  1.7564  0.1826
 6906TIP3   OH242276   2.906   1.755   7.808 -0.2894 -0.0870  0.3725
 6906TIP3    H142277   2.984   1.803   7.834  0.2135  0.1841 -1.4623
 6906TIP3    H242278   2.842   1.824   7.788  0.4922 -0.0476 -2.4503
 6907TIP3   OH242279   2.179   3.459   2.159  0.0728 -0.5254  0.6553
 6907TIP3    H142280   2.261   3.473   2.111 -0.0728 -0.8776  0.3000
 6907TIP3    H242281   2.178   3.365   2.178  0.3501 -0.3173  1.7595
 6908TIP3   OH242282   1.326   4.761   8.204  0.1972 -0.4943  0.1806
 6908TIP3    H142283   1.283   4.749   8.119  1.7566 -1.2330 -0.5421
 6908TIP3    H242284   1.254   4.779   8.264 -0.8637  1.1192 -1.4511
 6909TIP3   OH242285   2.014   4.152   0.923 -0.3640 -0.0749  0.0501
 6909TIP3    H142286   1.986   4.065   0.950  2.9951 -1.5799 -0.7404
 6909TIP3    H242287   2.088   4.172   0.981  1.5113  0.3709 -2.3380
 6910TIP3   OH242288   6.577   2.104   8.680  0.0398 -0.1847 -0.6601
 6910TIP3    H142289   6.591   2.014   8.653  1.7828  0.1851 -1.1190
 6910TIP3    H242290   6.634   2.156   8.624 -1.9240  1.3763 -1.3410
 6911TIP3   OH242291   5.767   4.446   0.342 -0.2052 -0.0388 -0.3184
 6911TIP3    H142292   5.695   4.386   0.324  0.8451 -0.9957 -1.5158
 6911TIP3    H242293   5.837   4.390   0.374  0.4719  0.6678 -0.5368
 6912TIP3   OH242294   5.988   1.370   7.999 -0.4257  0.0231 -0.1067
 6912TIP3    H142295   6.031   1.300   8.047 -0.2001  0.3015  0.1014
 6912TIP3    H242296   6.048   1.445   8.007  1.1511 -0.7120 -3.3411
 6913TIP3   OH242297   4.347   4.954   0.097  0.3288 -0.0382 -0.3436
 6913TIP3    H142298   4.418   4.999   0.052  1.1663  0.2210  1.1826
 6913TIP3    H242299   4.367   4.861   0.086  0.2645  0.0105 -0.8945
 6914TIP3   OH242300   3.995   5.291   1.512 -0.0066 -0.1472 -0.2870
 6914TIP3    H142301   3.984   5.243   1.430 -1.1678 -0.6918  0.1668
 6914TIP3    H242302   4.061   5.241   1.560 -1.0490 -1.2039  0.0911
 6915TIP3   OH242303   4.088   3.530   7.239  0.2288  0.2717  0.0376
 6915TIP3    H142304   4.086   3.593   7.310  0.1569 -1.2375  1.4388
 6915TIP3    H242305   4.002   3.536   7.198  1.2422  3.3123 -1.9973
 6916TIP3   OH242306   6.561   3.486   1.982 -0.1130  0.3253  0.4850
 6916TIP3    H142307   6.656   3.497   1.987 -0.2436  1.1270  1.3704
 6916TIP3    H242308   6.533   3.479   2.073 -0.7426 -1.5239  0.1863
 6917TIP3   OH242309   6.071   0.547   0.441  0.6066  0.0800  0.0472
 6917TIP3    H142310   6.146   0.596   0.410  0.4593  1.0861  1.2262
 6917TIP3    H242311   6.107   0.484   0.504  0.5388  0.1125  0.1189
 6918TIP3   OH242312   4.480   4.486   0.592 -0.2189  0.1242 -0.0725
 6918TIP3    H142313   4.462   4.528   0.676  1.2552  1.0678 -0.1696
 6918TIP3    H242314   4.428   4.407   0.592 -0.6285  0.3628  1.5235
 6919TIP3   OH242315   3.110   5.677   0.015  0.7317 -0.2030 -0.6622
 6919TIP3    H142316   3.093   5.760   0.059 -1.2717 -0.6350 -0.5416
 6919TIP3    H242317   3.070   5.686  -0.071 -0.8471 -1.5203 -0.1293
 6920TIP3   OH242318   2.992   0.446   8.407  0.3227  0.0034 -0.7516
 6920TIP3    H142319   3.021   0.516   8.349  0.5052 -0.1831 -0.8905
 6920TIP3    H242320   2.899   0.437   8.390  0.2828  0.2643 -0.6765
 6921TIP3   OH242321   2.055   6.239   1.462 -0.3710  0.2057 -0.7050
 6921TIP3    H142322   2.099   6.254   1.378 -0.5652  1.2079 -0.6305
 6921TIP3    H242323   2.125   6.248   1.527 -0.0296 -1.4401 -0.7839
 6922TIP3   OH242324   4.485   1.580   1.424 -0.0018  0.4715  0.0759
 6922TIP3    H142325   4.506   1.656   1.478 -0.9119 -0.3529  1.6283
 6922TIP3    H242326   4.559   1.521   1.437  1.1197  1.3583 -1.7823
 6923TIP3   OH242327   6.346   1.260   7.340 -0.0922  0.3018  0.2595
 6923TIP3    H142328   6.425   1.272   7.393  0.6620 -0.9907 -0.5341
 6923TIP3    H242329   6.347   1.334   7.279 -0.1883  0.9821  1.0508
 6924TIP3   OH242330   3.607   6.739   8.474  0.0878  0.5021  0.0452
 6924TIP3    H142331   3.514   6.716   8.481 -0.1674  0.5166 -2.2632
 6924TIP3    H242332   3.638   6.742   8.564 -2.2590  0.9622  0.9191
 6925TIP3   OH242333   2.842   2.065   8.423  0.2801 -0.1965  0.2504
 6925TIP3    H142334   2.783   2.135   8.394 -0.0815 -0.8036 -0.4971
 6925TIP3    H242335   2.859   2.085   8.515  1.2042  1.6087 -0.2655
 6926TIP3   OH242336   5.745   6.009   0.113 -0.0789  0.0168  0.4207
 6926TIP3    H142337   5.827   5.961   0.096  0.1851  0.9831 -1.1537
 6926TIP3    H242338   5.732   6.000   0.207  1.4864 -0.7322  0.5992
 6927TIP3   OH242339   5.500   5.136   1.929  0.2377 -0.0884 -0.2702
 6927TIP3    H142340   5.432   5.157   1.993 -1.1940 -1.6128 -1.2190
 6927TIP3    H242341   5.469   5.174   1.847  0.4907 -0.8647 -0.7372
 6928TIP3   OH242342   0.017   0.570   7.111 -0.0171 -0.2988 -0.3188
 6928TIP3    H142343   0.099   0.535   7.076  0.7346  1.2161 -0.1487
 6928TIP3    H242344   0.009   0.531   7.198  0.5241 -0.4452 -0.3333
 6929TIP3   OH242345   4.146   3.153   0.821  0.3133 -0.2369  0.2709
 6929TIP3    H142346   4.134   3.099   0.900  1.1615 -0.1434  0.4728
 6929TIP3    H242347   4.241   3.163   0.813  0.1826  2.5009  1.1224
 6930TIP3   OH242348   4.070   0.533   7.351  0.6602 -0.4678 -0.8880
 6930TIP3    H142349   4.009   0.605   7.371 -0.4911 -0.6304 -3.4129
 6930TIP3    H242350   4.072   0.481   7.431 -1.2211  0.4794 -0.1584
 6931TIP3   OH242351   5.216   5.104   1.455  0.3268  0.6068 -0.1875
 6931TIP3    H142352   5.260   5.080   1.373 -0.0549 -1.0359  0.0668
 6931TIP3    H242353   5.270   5.067   1.524 -0.3791  0.3247  0.2216
 6932TIP3   OH242354   4.547   0.873   6.980  0.0065  0.0088 -0.0543
 6932TIP3    H142355   4.586   0.788   6.999  1.2875  0.9515  1.8768
 6932TIP3    H242356   4.511   0.864   6.892  0.1688 -2.4831  0.0673
 6933TIP3   OH242357   2.731   2.600   2.162 -0.6301 -0.1639 -0.2030
 6933TIP3    H142358   2.706   2.537   2.094  0.4972 -0.8194 -0.0591
 6933TIP3    H242359   2.766   2.545   2.232 -0.2140  0.5998  0.1970
 6934TIP3   OH242360   0.677   4.045   0.631  0.5789  0.0628  0.1139
 6934TIP3    H142361   0.610   4.035   0.698  1.2064  2.1620  1.1615
 6934TIP3    H242362   0.760   4.047   0.680  1.2353 -0.3656 -0.9347
 6935TIP3   OH242363   4.868   3.725   8.289  0.0140 -0.7386  0.2149
 6935TIP3    H142364   4.930   3.794   8.265 -0.0413 -1.0580 -0.9153
 6935TIP3    H242365   4.825   3.757   8.368 -0.2400  0.6775 -0.4635
 6936TIP3   OH242366   2.187   3.258   7.981  0.0860  0.9785 -0.2591
 6936TIP3    H142367   2.247   3.188   8.009 -0.6647 -0.4683 -2.0746
 6936TIP3    H242368   2.148   3.289   8.063 -0.2947 -1.4287  0.5752
 6937TIP3   OH242369   3.641   4.218   2.263  0.4839  0.0235 -0.3163
 6937TIP3    H142370   3.702   4.292   2.266  1.2566 -0.4514 -2.5493
 6937TIP3    H242371   3.561   4.252   2.305  1.6152  1.2781  0.9355
 6938TIP3   OH242372   2.349   4.805   2.249  0.0241 -0.1703  0.1629
 6938TIP3    H142373   2.377   4.807   2.340  1.1266  2.5035 -0.1214
 6938TIP3    H242374   2.296   4.884   2.238 -1.2095 -1.1272 -1.2232
 6939TIP3   OH242375   2.403   5.859   8.532 -0.6119  0.3984 -0.6626
 6939TIP3    H142376   2.424   5.874   8.625  1.7697  0.2750 -1.1109
 6939TIP3    H242377   2.476   5.898   8.485 -0.9138 -1.0412 -2.4298
 6940TIP3   OH242378   3.311   1.349   8.584 -0.7100 -0.1423 -0.0164
 6940TIP3    H142379   3.247   1.346   8.655 -1.4564  1.2548 -0.5867
 6940TIP3    H242380   3.300   1.436   8.546  1.5454  0.1441 -0.1443
 6941TIP3   OH242381   6.394   5.349   2.010  0.1201  0.6503 -0.3682
 6941TIP3    H142382   6.442   5.361   1.928  0.3641 -0.5288 -0.4126
 6941TIP3    H242383   6.312   5.397   1.997  0.4554  1.0567 -1.0327
 6942TIP3   OH242384   6.150   0.709   2.033  0.5612 -0.1937 -0.2347
 6942TIP3    H142385   6.170   0.701   2.126  0.5735  3.0444  0.1349
 6942TIP3    H242386   6.235   0.713   1.990  0.5508 -0.5948 -0.3050
 6943TIP3   OH242387   5.330   6.764   8.599  0.1932  0.0427 -0.2817
 6943TIP3    H142388   5.336   6.674   8.566  1.9866 -0.1800  0.5098
 6943TIP3    H242389   5.382   6.816   8.538  0.2156  0.3170 -0.0355
 6944TIP3   OH242390   2.889   3.542   8.136  0.0869  0.2276 -0.4507
 6944TIP3    H142391   2.797   3.568   8.133 -0.1396 -0.6114 -2.0820
 6944TIP3    H242392   2.891   3.468   8.196 -0.8847 -1.5908 -2.5162
 6945TIP3   OH242393   6.788   2.152   1.299  0.0424 -0.2339 -0.1657
 6945TIP3    H142394   6.773   2.143   1.205 -1.6434 -0.7007  0.1101
 6945TIP3    H242395   6.854   2.086   1.320 -1.0110 -1.5146 -0.7283
 6946TIP3   OH242396   1.195   6.127   1.457 -0.0492 -0.4873  0.1752
 6946TIP3    H142397   1.111   6.151   1.497 -0.3845 -1.3777  0.0235
 6946TIP3    H242398   1.252   6.201   1.477 -0.0340 -1.0924  2.7936
 6947TIP3   OH242399   1.493   0.959   0.249 -0.3752 -0.4343 -0.1967
 6947TIP3    H142400   1.465   1.040   0.206  0.0301 -0.6709 -0.9241
 6947TIP3    H242401   1.426   0.942   0.315 -1.4300 -0.4776 -1.2604
 6948TIP3   OH242402   1.234   0.682   1.515  0.8093  0.1736 -0.1880
 6948TIP3    H142403   1.202   0.633   1.439  0.9641 -0.5556  0.2084
 6948TIP3    H242404   1.327   0.696   1.497  1.1136 -1.0322  0.4020
 6949TIP3   OH242405   6.181   0.605   7.602  0.2024  0.6571 -0.3034
 6949TIP3    H142406   6.123   0.668   7.644 -1.3804 -0.7437 -0.2790
 6949TIP3    H242407   6.158   0.608   7.509  0.5636  0.5712 -0.3995
 6950TIP3   OH242408   4.896   0.682   8.036  0.4559 -0.3796  0.4213
 6950TIP3    H142409   4.959   0.677   8.107  0.2852  2.2185  0.8566
 6950TIP3    H242410   4.942   0.726   7.965 -0.2542 -0.3079 -0.0094
 6951TIP3   OH242411   3.825   5.393   0.746 -0.3318 -0.0747 -0.1111
 6951TIP3    H142412   3.759   5.416   0.811  0.2107  0.8191  0.1439
 6951TIP3    H242413   3.891   5.462   0.753  0.9724 -1.2724  0.1242
 6952TIP3   OH242414   5.272   2.896   0.471 -0.0922 -0.3409  0.2986
 6952TIP3    H142415   5.352   2.937   0.440 -0.3076 -0.4972 -0.4687
 6952TIP3    H242416   5.299   2.808   0.498 -0.1786 -0.7472 -0.9027
 6953TIP3   OH242417   6.717   1.710   6.677  0.9299 -0.0998  0.0103
 6953TIP3    H142418   6.784   1.777   6.691 -1.4214  2.6709 -0.9305
 6953TIP3    H242419   6.682   1.729   6.590 -1.7004 -0.7396  0.8397
 6954TIP3   OH242420   2.666   5.368   7.334  0.2794  0.5253  0.2388
 6954TIP3    H142421   2.590   5.400   7.285 -0.4990 -0.6740  0.6258
 6954TIP3    H242422   2.710   5.308   7.274 -0.5468 -0.7654  0.8733
 6955TIP3   OH242423   4.346   0.788   0.729 -0.4355  0.0680  0.1015
 6955TIP3    H142424   4.323   0.726   0.799 -0.3530 -1.9855 -1.6196
 6955TIP3    H242425   4.417   0.746   0.682  0.2864  1.9493 -0.5736
 6956TIP3   OH242426   1.106   3.022   6.729  0.2351 -0.2114  0.4016
 6956TIP3    H142427   1.134   2.957   6.794  0.1926 -0.0912  0.5423
 6956TIP3    H242428   1.181   3.079   6.718  0.2866 -0.3093  0.2467
 6957TIP3   OH242429   5.057   1.925   7.347  0.1738  0.0514  0.1298
 6957TIP3    H142430   5.122   1.978   7.394 -0.9699  1.4349  0.2183
 6957TIP3    H242431   5.011   1.989   7.292 -0.8500 -0.9748 -0.2172
 6958TIP3   OH242432   4.453   2.940   8.516 -0.0990 -0.0116 -0.3692
 6958TIP3    H142433   4.478   2.858   8.475 -0.0353  0.3711 -1.1097
 6958TIP3    H242434   4.473   3.007   8.450  0.1443  0.6290  0.3413
 6959TIP3   OH242435   5.210   6.749   0.891  0.3704 -0.6381 -0.0417
 6959TIP3    H142436   5.264   6.826   0.870 -2.1834  2.1682  2.5972
 6959TIP3    H242437   5.144   6.747   0.822  0.9816 -1.0650 -0.6227
 6960TIP3   OH242438   4.716   4.883   1.592  0.2390  0.1274 -0.5016
 6960TIP3    H142439   4.772   4.861   1.666 -0.0348 -0.3165 -0.4208
 6960TIP3    H242440   4.729   4.977   1.579  1.4375 -0.0628 -0.8426
 6961TIP3   OH242441   0.223   2.358   7.641  0.2138  0.2157 -0.2379
 6961TIP3    H142442   0.267   2.399   7.566 -0.9718  0.4111 -0.8462
 6961TIP3    H242443   0.204   2.269   7.612 -0.5655  0.4020 -0.3098
 6962TIP3   OH242444   5.740   0.447   2.156 -0.7749  0.4114 -0.0277
 6962TIP3    H142445   5.741   0.358   2.121 -0.0392  0.0886  0.7775
 6962TIP3    H242446   5.651   0.478   2.139 -0.5469  0.1850 -1.9144
 6963TIP3   OH242447   4.919   6.197   0.990 -0.4887 -0.4723  0.1075
 6963TIP3    H142448   4.862   6.271   0.968  0.5768  0.3652  0.0937
 6963TIP3    H242449   4.949   6.164   0.906 -1.1044 -1.0550  0.1057
 6964TIP3   OH242450   6.123   2.371   7.166 -0.1570 -0.3075  0.2142
 6964TIP3    H142451   6.104   2.419   7.086  1.1780 -0.4097 -0.1854
 6964TIP3    H242452   6.163   2.436   7.224 -0.6258 -0.3594  0.6025
 6965TIP3   OH242453   0.602   5.678   7.715 -1.1353  0.2005  0.3946
 6965TIP3    H142454   0.607   5.727   7.797 -2.0626 -0.2162  0.7066
 6965TIP3    H242455   0.575   5.743   7.650 -0.4824  0.5134  0.4276
 6966TIP3   OH242456   4.256   2.328   7.386 -0.6814 -1.1316  0.2282
 6966TIP3    H142457   4.251   2.288   7.473 -0.3204 -0.0981  0.7358
 6966TIP3    H242458   4.222   2.261   7.327 -0.5103 -2.0146  1.1104
 6967TIP3   OH242459   2.791   2.682   6.334  0.2496  0.1099  0.2533
 6967TIP3    H142460   2.805   2.720   6.247 -0.5996 -0.9553 -0.3848
 6967TIP3    H242461   2.876   2.643   6.356  0.1706 -0.6073 -0.6259
 6968TIP3   OH242462   5.342   4.996   7.379 -0.0794 -0.9397  0.2257
 6968TIP3    H142463   5.297   5.060   7.435 -0.4940 -0.3340 -0.7675
 6968TIP3    H242464   5.321   4.911   7.418  1.1575 -0.4530  2.0587
 6969TIP3   OH242465   5.514   2.532   2.451  0.3198  0.3224 -0.2370
 6969TIP3    H142466   5.512   2.438   2.438  1.8773  0.3389 -0.8344
 6969TIP3    H242467   5.425   2.561   2.432 -0.2220 -1.0396  0.1309
 6970TIP3   OH242468   2.721   0.745   8.125  0.5278  0.1395 -0.5284
 6970TIP3    H142469   2.630   0.769   8.142  0.8725  0.8444  0.3724
 6970TIP3    H242470   2.767   0.764   8.207  1.9795  2.2174 -1.7367
 6971TIP3   OH242471   4.475   2.330   0.960 -0.2434  0.8127 -0.0603
 6971TIP3    H142472   4.479   2.357   1.052 -0.5321 -0.2943  0.2853
 6971TIP3    H242473   4.487   2.412   0.911  1.3910  1.2215  0.9495
 6972TIP3   OH242474   5.530   1.555   8.507  0.2439 -0.0089 -0.2831
 6972TIP3    H142475   5.548   1.473   8.553 -1.1942  0.1937  0.7199
 6972TIP3    H242476   5.521   1.620   8.577 -1.9000  0.3239 -0.8003
 6973TIP3   OH242477   2.998   4.302   0.117 -0.4470 -0.1960 -0.1411
 6973TIP3    H142478   3.062   4.305   0.046  0.3468  2.0790  0.5599
 6973TIP3    H242479   3.032   4.236   0.177 -0.4104 -1.1761 -1.2157
 6974TIP3   OH242480   2.515   0.633   1.194  0.2714 -0.3617 -0.5798
 6974TIP3    H142481   2.506   0.543   1.226  1.0334 -0.4417 -0.5816
 6974TIP3    H242482   2.437   0.677   1.227  0.2954 -0.8196  0.1245
 6975TIP3   OH242483   0.732   4.988   8.363  0.6032 -0.2357 -0.5009
 6975TIP3    H142484   0.642   4.997   8.333  1.0838 -0.9616 -2.3052
 6975TIP3    H242485   0.728   4.929   8.438 -0.4076 -0.3399 -0.6328
 6976TIP3   OH242486   5.448   1.811   8.127 -0.0886 -0.4625 -0.0274
 6976TIP3    H142487   5.404   1.804   8.212 -0.6490 -0.1743 -0.2863
 6976TIP3    H242488   5.416   1.894   8.091 -0.4066 -0.9277 -0.8284
 6977TIP3   OH242489   0.376   1.789   6.953  0.1394 -0.0715 -0.0492
 6977TIP3    H142490   0.371   1.872   7.000 -1.1813  0.8125 -1.6723
 6977TIP3    H242491   0.459   1.793   6.906  0.1881  0.2096  0.0600
 6978TIP3   OH242492   2.984   5.922   1.363  0.5495 -0.4430  0.3009
 6978TIP3    H142493   2.932   5.984   1.313  2.0474 -0.7051 -1.7349
 6978TIP3    H242494   2.938   5.839   1.354 -0.5056 -0.0295  1.5284
 6979TIP3   OH242495   2.637   4.523   1.904  0.0560  0.4009  0.3434
 6979TIP3    H142496   2.672   4.565   1.825  2.3202  1.9796  2.0634
 6979TIP3    H242497   2.574   4.587   1.938 -2.1130 -0.9570 -0.9232
 6980TIP3   OH242498   4.145   5.936   0.151  0.1076  0.2214 -0.4345
 6980TIP3    H142499   4.134   6.024   0.188 -1.0571  0.4700 -1.3017
 6980TIP3    H242500   4.084   5.934   0.077  0.1930 -1.2865 -0.4853
 6981TIP3   OH242501   6.157   2.497   0.727  0.3066 -0.0904 -0.8667
 6981TIP3    H142502   6.190   2.416   0.766 -0.5854  0.2697  0.7085
 6981TIP3    H242503   6.229   2.527   0.671  1.1669 -1.2648 -0.4398
 6982TIP3   OH242504   2.599   2.980   8.401 -0.2329 -0.5722 -0.0566
 6982TIP3    H142505   2.541   2.944   8.468  0.5222  0.5964  1.2723
 6982TIP3    H242506   2.562   3.066   8.380 -0.6485 -1.0588 -1.4120
 6983TIP3   OH242507   0.236   2.838   1.830  0.1350 -0.3595 -0.3157
 6983TIP3    H142508   0.147   2.873   1.823  0.2958  0.3959  0.9832
 6983TIP3    H242509   0.246   2.820   1.924  1.0321 -1.3266 -0.5804
 6984TIP3   OH242510   5.290   4.477   8.164 -0.3719 -0.5237  0.1794
 6984TIP3    H142511   5.340   4.557   8.147  0.6728 -1.2189 -0.1282
 6984TIP3    H242512   5.200   4.500   8.142 -0.0981  0.5727  0.1187
 6985TIP3   OH242513   0.966   3.619   1.818  0.1255 -0.0258 -0.2241
 6985TIP3    H142514   0.928   3.627   1.731  3.5171 -0.2397 -1.8951
 6985TIP3    H242515   0.963   3.526   1.838  1.8526 -0.3918 -1.4627
 6986TIP3   OH242516   0.839   6.638   1.071 -0.1197  0.2599  0.8352
 6986TIP3    H142517   0.830   6.568   1.006  1.4475  0.2905  0.5323
 6986TIP3    H242518   0.823   6.596   1.155  0.7097 -0.4680  0.6450
 6987TIP3   OH242519   4.190   4.545   8.463  0.3052 -0.0507 -0.1002
 6987TIP3    H142520   4.145   4.473   8.507 -0.2493  0.8534  0.8768
 6987TIP3    H242521   4.127   4.577   8.398  0.2337  0.0500  0.0169
 6988TIP3   OH242522   5.958   1.919   0.402  0.0451  0.0175 -0.2582
 6988TIP3    H142523   5.935   1.873   0.482 -0.4531  0.2443 -0.2696
 6988TIP3    H242524   6.048   1.893   0.384  0.4124  0.5523  0.7845
 6989TIP3   OH242525   4.698   6.023   0.805 -0.0763  0.0809  0.0954
 6989TIP3    H142526   4.665   6.053   0.889  1.0436  0.5993  0.3600
 6989TIP3    H242527   4.642   5.948   0.783 -1.8804  1.3356  0.1682
 6990TIP3   OH242528   2.429   3.062   8.103 -0.0990 -0.3991 -0.0639
 6990TIP3    H142529   2.477   3.013   8.036 -0.9244 -0.3510 -0.7109
 6990TIP3    H242530   2.482   3.140   8.119 -0.6085  0.3303 -1.7602
 6991TIP3   OH242531   6.226   6.262   0.586  0.1356 -0.3243 -0.4454
 6991TIP3    H142532   6.142   6.239   0.628  0.8643 -2.9863 -0.2909
 6991TIP3    H242533   6.215   6.235   0.495  0.5105  0.1901 -0.6436
 6992TIP3   OH242534   1.276   0.599   8.613 -0.4400 -0.8794  0.0625
 6992TIP3    H142535   1.333   0.525   8.589  0.1645 -0.6691  0.8448
 6992TIP3    H242536   1.334   0.661   8.656 -1.2319 -0.5869  0.7190
 6993TIP3   OH242537   3.134   6.655   1.011 -0.1817 -0.0015  0.2472
 6993TIP3    H142538   3.141   6.720   1.081  0.9957  1.3394 -1.0568
 6993TIP3    H242539   3.209   6.673   0.954 -0.6010 -1.6415 -0.8955
 6994TIP3   OH242540   3.719   3.534   6.806  0.2281 -0.1074  0.1123
 6994TIP3    H142541   3.807   3.555   6.775 -0.0791 -0.7963 -1.3342
 6994TIP3    H242542   3.675   3.618   6.814  0.5222  0.1377 -0.7668
 6995TIP3   OH242543   4.645   1.312   1.168 -0.2492  0.5446  0.0221
 6995TIP3    H142544   4.564   1.262   1.177  0.3016 -0.3346  0.1815
 6995TIP3    H242545   4.699   1.259   1.109  0.6883  0.5062  0.8953
 6996TIP3   OH242546   1.504   2.203   1.799 -0.2500  0.4991 -0.0062
 6996TIP3    H142547   1.442   2.274   1.819 -0.3615  0.6058 -0.7062
 6996TIP3    H242548   1.473   2.129   1.850 -1.2993  0.3863 -0.7826
 6997TIP3   OH242549   3.645   5.972   8.479 -0.0575  0.6776  0.7552
 6997TIP3    H142550   3.610   5.981   8.390  1.7187  2.3179  0.1530
 6997TIP3    H242551   3.662   5.878   8.488 -0.1549  0.4866 -0.7107
 6998TIP3   OH242552   4.981   4.788   0.939 -0.5030  0.1875 -0.0105
 6998TIP3    H142553   5.038   4.798   0.863 -0.8749 -0.1848 -0.3408
 6998TIP3    H242554   4.925   4.866   0.937 -0.4582  0.2182 -0.0717
 6999TIP3   OH242555   3.631   3.646   2.305 -0.0966 -0.3209  0.2106
 6999TIP3    H142556   3.537   3.644   2.283 -0.0145  0.2763 -0.1957
 6999TIP3    H242557   3.651   3.555   2.327 -0.4417 -0.7456 -1.1296
 7000TIP3   OH242558   0.413   0.352   6.960 -0.0847  0.0022 -0.3287
 7000TIP3    H142559   0.481   0.367   6.894 -0.3085 -2.0186 -1.0769
 7000TIP3    H242560   0.371   0.270   6.934 -2.8374  1.1529  0.1112
 7001TIP3   OH242561   4.805   5.283   2.767  0.1453 -0.0069 -0.0955
 7001TIP3    H142562   4.874   5.217   2.761  0.4945  0.0378  2.4343
 7001TIP3    H242563   4.818   5.339   2.690 -0.0550 -2.6873 -2.2585
 7002TIP3   OH242564   0.773   2.290   1.232 -0.2250  0.1360 -0.7005
 7002TIP3    H142565   0.690   2.317   1.194  0.4088  0.0491 -2.2260
 7002TIP3    H242566   0.838   2.349   1.194  0.6220 -0.8250 -0.8025
 7003TIP3   OH242567   3.637   3.077   0.353  0.2223 -0.4902 -0.1113
 7003TIP3    H142568   3.589   3.014   0.299  1.7075  0.4602 -2.7505
 7003TIP3    H242569   3.579   3.153   0.359 -1.1395 -1.5884  2.2088
 7004TIP3   OH242570   5.089   0.458   2.167  0.4343  0.0651  0.7205
 7004TIP3    H142571   5.179   0.475   2.198  0.5724  0.0578  0.3223
 7004TIP3    H242572   5.069   0.532   2.111  0.7164 -0.6333 -0.3270
 7005TIP3   OH242573   2.064   0.527   7.697  0.4874  0.3300 -0.3712
 7005TIP3    H142574   2.063   0.494   7.608 -2.0184  0.3628 -0.4379
 7005TIP3    H242575   2.088   0.452   7.751 -0.8024 -0.4566 -0.8684
 7006TIP3   OH242576   3.156   4.387   7.556 -0.1797  0.6352  0.2929
 7006TIP3    H142577   3.097   4.343   7.617  1.2564  1.2852  2.2698
 7006TIP3    H242578   3.116   4.375   7.470 -2.1188 -0.6310  1.3082
 7007TIP3   OH242579   6.383   6.819   7.182  0.4406 -0.3080  0.5150
 7007TIP3    H142580   6.347   6.907   7.169  0.2005 -0.3725  0.7173
 7007TIP3    H242581   6.373   6.803   7.276  1.7243 -0.0232  0.7187
 7008TIP3   OH242582   2.007   6.162   6.304 -0.2448 -0.3442 -0.4600
 7008TIP3    H142583   2.007   6.080   6.354  0.1671 -0.4802 -0.6789
 7008TIP3    H242584   1.978   6.137   6.216 -2.6161  0.1585  0.1038
 7009TIP3   OH242585   0.370   3.382   1.017 -0.1479  0.2238 -0.3889
 7009TIP3    H142586   0.429   3.376   0.942 -0.2215 -0.1654 -0.4155
 7009TIP3    H242587   0.414   3.442   1.078  1.0693 -1.3407  0.3248
 7010TIP3   OH242588   6.818   6.338   7.190 -0.2605  0.2525 -0.2691
 7010TIP3    H142589   6.863   6.320   7.108 -0.9451  3.0040 -1.3727
 7010TIP3    H242590   6.725   6.324   7.170 -0.3503 -0.1273  0.3791
 7011TIP3   OH242591   1.366   2.007   0.331  0.4067 -0.1301 -0.0073
 7011TIP3    H142592   1.455   2.003   0.366  0.0534  0.1737  0.9599
 7011TIP3    H242593   1.369   1.956   0.251  1.6477  0.5530 -0.4121
 7012TIP3   OH242594   0.864   5.373   7.911  0.2826 -0.7817 -0.6720
 7012TIP3    H142595   0.892   5.459   7.943 -0.0800 -0.6332 -0.7465
 7012TIP3    H242596   0.788   5.392   7.856 -0.5161 -1.2662  0.2568
 7013TIP3   OH242597   3.003   5.537   0.392 -0.4553  0.0935 -0.1004
 7013TIP3    H142598   2.988   5.516   0.300 -2.6735 -0.7807  0.3966
 7013TIP3    H242599   3.065   5.610   0.391 -0.8252  0.4229 -2.2944
 7014TIP3   OH242600   1.416   1.124   8.123 -0.0879  0.3258  0.0542
 7014TIP3    H142601   1.432   1.045   8.175 -0.5269 -0.9537 -1.6488
 7014TIP3    H242602   1.476   1.116   8.049  0.0664  1.7676 -0.0034
 7015TIP3   OH242603   3.977   0.420   0.004  0.2446  0.3339  0.0690
 7015TIP3    H142604   3.959   0.504  -0.040 -1.8916 -0.2762 -0.3664
 7015TIP3    H242605   3.949   0.434   0.094 -2.4556 -0.5206 -0.5337
 7016TIP3   OH242606   1.665   6.536   7.438  0.4935  0.9341 -0.4210
 7016TIP3    H142607   1.613   6.476   7.384  2.3550  0.0844 -1.3520
 7016TIP3    H242608   1.607   6.611   7.452 -0.3151  0.9499 -3.1478
 7017TIP3   OH242609   0.691   4.893   7.549  0.1387  0.3879 -0.3430
 7017TIP3    H142610   0.668   4.971   7.598 -0.5977 -0.0667  0.0581
 7017TIP3    H242611   0.631   4.893   7.473  0.1488  0.2309 -0.3531
 7018TIP3   OH242612   5.492   0.455   7.165 -0.3307  0.2156  0.2658
 7018TIP3    H142613   5.411   0.403   7.169 -0.4045  0.2688 -0.3379
 7018TIP3    H242614   5.534   0.427   7.084  0.1753  0.3145  0.4906
 7019TIP3   OH242615   1.207   6.291   8.018  0.1338  0.4648  0.5571
 7019TIP3    H142616   1.210   6.334   7.933  1.2682  1.1862  0.9394
 7019TIP3    H242617   1.145   6.218   8.006  1.9234 -0.8566 -1.5288
 7020TIP3   OH242618   1.038   6.342   2.235  0.0434 -0.3460 -0.1859
 7020TIP3    H142619   1.098   6.363   2.164  0.0994  2.2537  0.5333
 7020TIP3    H242620   1.044   6.417   2.294 -1.2090 -1.6823  1.7516
 7021TIP3   OH242621   1.989   6.346   1.096  0.1555  0.1923 -0.3849
 7021TIP3    H142622   2.070   6.349   1.148  0.0180 -2.1939  0.0598
 7021TIP3    H242623   1.923   6.385   1.154  0.4485 -0.3849  0.3530
 7022TIP3   OH242624   5.570   0.934   8.283 -0.3973  0.3245 -0.0235
 7022TIP3    H142625   5.541   1.009   8.335  1.9435  0.3800  1.3476
 7022TIP3    H242626   5.657   0.959   8.251 -0.6672 -0.7949 -1.7674
 7023TIP3   OH242627   2.036   4.576   0.054  0.1540  0.1067  0.6978
 7023TIP3    H142628   1.984   4.497   0.041  1.4965 -0.7968  0.5466
 7023TIP3    H242629   1.988   4.645   0.009  0.0997 -1.0984 -1.2292
 7024TIP3   OH242630   5.912   1.872   0.744 -0.4150  0.3900 -0.0002
 7024TIP3    H142631   6.007   1.882   0.753 -0.2645  0.2774 -1.3195
 7024TIP3    H242632   5.878   1.962   0.746 -0.2840  0.4346  0.3830
 7025TIP3   OH242633   0.466   3.738   6.783 -0.2661 -0.5439 -0.1703
 7025TIP3    H142634   0.374   3.761   6.770  0.0198  1.2674  0.5777
 7025TIP3    H242635   0.506   3.820   6.815  2.0052 -0.7163 -2.3293
 7026TIP3   OH242636   2.363   4.304   7.648 -0.4521  0.0021 -0.2665
 7026TIP3    H142637   2.401   4.258   7.722  0.4476  1.9354  0.5311
 7026TIP3    H242638   2.426   4.291   7.577 -1.1269 -1.5212 -0.6329
 7027TIP3   OH242639   3.982   2.447   7.325 -0.0635 -0.2279 -0.1674
 7027TIP3    H142640   4.066   2.490   7.339 -0.2061 -0.2274  0.7536
 7027TIP3    H242641   3.925   2.516   7.292  0.4637 -0.3788 -1.4360
 7028TIP3   OH242642   5.835   6.740   1.457 -0.2306  0.4679 -0.6124
 7028TIP3    H142643   5.836   6.666   1.397  0.2772 -0.2015  0.2103
 7028TIP3    H242644   5.743   6.749   1.481 -0.0628 -1.1190  0.7533
 7029TIP3   OH242645   0.932   3.520   2.305 -0.6352  0.2346  0.0465
 7029TIP3    H142646   0.921   3.584   2.235  1.1292  0.2600 -0.2517
 7029TIP3    H242647   0.843   3.508   2.341 -0.9203  3.5892  0.7988
 7030TIP3   OH242648   2.650   3.584   8.256  0.7500  0.3625 -0.0803
 7030TIP3    H142649   2.655   3.489   8.266  0.6211  0.2401 -1.0828
 7030TIP3    H242650   2.632   3.617   8.345  2.1652 -0.4292  0.5295
 7031TIP3   OH242651   4.169   0.723   6.745 -0.2559  0.1492  0.0799
 7031TIP3    H142652   4.158   0.772   6.826  0.4350  1.4474 -0.5801
 7031TIP3    H242653   4.080   0.706   6.715 -0.6440  3.3789 -1.0179
 7032TIP3   OH242654   2.700   6.287   0.064  0.1694 -0.1418 -0.0582
 7032TIP3    H142655   2.771   6.274   0.126  0.3269 -0.5435 -0.3173
 7032TIP3    H242656   2.620   6.280   0.117  0.3167  1.6404  0.4816
 7033TIP3   OH242657   6.805   4.727   1.894  0.0529  0.3161  0.5849
 7033TIP3    H142658   6.894   4.738   1.928 -0.4883  0.8331  1.9222
 7033TIP3    H242659   6.755   4.695   1.968 -1.1210  1.1710  0.1992
 7034TIP3   OH242660   5.225   5.657   0.553 -0.2085 -0.5770  0.2333
 7034TIP3    H142661   5.294   5.590   0.553  0.6654  0.2897 -0.5892
 7034TIP3    H242662   5.272   5.740   0.546 -1.3259  0.0686  0.1159
 7035TIP3   OH242663   2.697   2.830   6.574 -0.2502 -0.2523 -0.2887
 7035TIP3    H142664   2.748   2.896   6.527  0.9218 -0.3883  0.7127
 7035TIP3    H242665   2.711   2.749   6.526 -1.6436  0.1823 -1.4880
 7036TIP3   OH242666   0.286   1.343   1.559  0.7362  0.3088  0.4825
 7036TIP3    H142667   0.262   1.349   1.651 -1.1567 -2.5741  0.2931
 7036TIP3    H242668   0.377   1.312   1.561  0.5260 -0.2947  1.3951
 7037TIP3   OH242669   5.337   6.591   2.903 -0.7684 -0.0970  0.6441
 7037TIP3    H142670   5.368   6.681   2.910 -0.7440 -0.1263  0.9216
 7037TIP3    H242671   5.255   6.598   2.853 -0.2630 -0.0371 -0.1916
 7038TIP3   OH242672   0.633   6.472   8.637 -0.3057  0.8966 -0.3017
 7038TIP3    H142673   0.613   6.519   8.718 -2.3787  2.3937 -1.5785
 7038TIP3    H242674   0.728   6.478   8.628 -0.2129  2.1030  1.2049
 7039TIP3   OH242675   6.318   1.004   1.556  0.1250  0.2252 -0.1164
 7039TIP3    H142676   6.286   1.042   1.638  0.6273  0.2089  0.0909
 7039TIP3    H242677   6.317   0.910   1.572 -2.4361  0.0111 -1.1061
 7040TIP3   OH242678   2.182   5.172   7.962 -0.3715 -0.8709  0.0944
 7040TIP3    H142679   2.143   5.096   8.005 -4.1197  1.4245  1.1666
 7040TIP3    H242680   2.229   5.217   8.032  0.7933 -1.4479 -0.2753
 7041TIP3   OH242681   3.155   3.853   7.187  0.0358  0.0604  0.1433
 7041TIP3    H142682   3.201   3.907   7.123 -0.7736  0.2895 -0.2602
 7041TIP3    H242683   3.067   3.843   7.151 -0.8310  1.2398  1.8124
 7042TIP3   OH242684   2.202   6.104   8.283  0.0700 -0.1866  0.1314
 7042TIP3    H142685   2.259   6.145   8.348  0.1409 -0.7360  0.4206
 7042TIP3    H242686   2.219   6.011   8.292  1.9383 -0.2026 -2.3484
 7043TIP3   OH242687   2.522   3.725   7.193  0.3628 -0.0749  0.3253
 7043TIP3    H142688   2.599   3.670   7.209  0.8444  0.6971  0.7461
 7043TIP3    H242689   2.517   3.733   7.098  0.5834 -0.4305  0.2832
 7044TIP3   OH242690   4.726   2.801   7.699  0.1176  0.4580 -0.2812
 7044TIP3    H142691   4.725   2.709   7.675  0.4536  0.3176  0.2257
 7044TIP3    H242692   4.723   2.848   7.616  0.8839 -0.0141 -0.5878
 7045TIP3   OH242693   0.283   5.710   7.749  0.1449 -0.1211  0.3595
 7045TIP3    H142694   0.329   5.719   7.666 -0.6008 -2.4213 -0.3714
 7045TIP3    H242695   0.195   5.743   7.732  0.7138  1.9072  1.0510
 7046TIP3   OH242696   3.853   3.998   0.085  0.1654 -0.4495 -0.2738
 7046TIP3    H142697   3.819   4.048   0.160  1.5524  0.1354  0.0059
 7046TIP3    H242698   3.893   3.921   0.123 -0.7141 -1.0719 -0.5867
 7047TIP3   OH242699   2.912   4.316   1.290  0.3634  0.1374  0.9297
 7047TIP3    H142700   2.934   4.246   1.351 -2.8086 -0.8358  1.1783
 7047TIP3    H242701   2.884   4.388   1.345  0.3837  0.3605  0.6509
 7048TIP3   OH242702   1.879   1.825   2.016 -0.4845 -0.4238  0.4454
 7048TIP3    H142703   1.856   1.765   1.944 -1.2218  0.9058 -0.4801
 7048TIP3    H242704   1.961   1.866   1.988  0.7410 -1.9160  1.6912
 7049TIP3   OH242705   5.719   0.129   0.006  0.5876  0.4858 -0.1577
 7049TIP3    H142706   5.737   0.219  -0.019 -0.6919  0.7064 -0.3424
 7049TIP3    H242707   5.681   0.136   0.094 -0.4980  0.2323 -0.5938
 7050TIP3   OH242708   2.995   5.938   8.585 -0.1392  0.0659 -0.0122
 7050TIP3    H142709   2.984   5.859   8.532 -0.2183  1.2111 -1.7515
 7050TIP3    H242710   2.906   5.960   8.613 -0.4411  0.7920 -1.4443
 7051TIP3   OH242711   1.166   3.592   6.851 -0.0462  0.3133  0.1937
 7051TIP3    H142712   1.200   3.585   6.762 -0.2233 -0.0446  0.1500
 7051TIP3    H242713   1.115   3.673   6.851 -0.7640 -0.1174 -0.2895
 7052TIP3   OH242714   0.517   6.647   1.554 -0.3391  0.5032 -0.3360
 7052TIP3    H142715   0.424   6.667   1.560 -0.9310 -2.1408  0.2620
 7052TIP3    H242716   0.544   6.632   1.645  0.8991  1.9253 -0.4138
 7053TIP3   OH242717   3.339   0.343   0.616 -0.0962 -0.1721  0.4522
 7053TIP3    H142718   3.432   0.321   0.611  0.4138  1.3989  1.8511
 7053TIP3    H242719   3.314   0.363   0.526  0.6772 -1.4867 -0.0781
 7054TIP3   OH242720   1.770   0.962   0.343 -0.4263  0.2231 -0.3788
 7054TIP3    H142721   1.706   0.998   0.282 -1.4209 -1.5183 -0.4362
 7054TIP3    H242722   1.854   0.975   0.301 -1.0217 -0.2060 -1.7554
 7055TIP3   OH242723   5.445   3.193   1.158  0.2371 -0.0021 -0.4382
 7055TIP3    H142724   5.415   3.138   1.231 -1.9749  2.8139  0.9430
 7055TIP3    H242725   5.525   3.234   1.191  1.0737 -1.2051 -0.9134
 7056TIP3   OH242726   2.649   1.498   7.354  0.4987 -0.0381 -0.2656
 7056TIP3    H142727   2.583   1.534   7.413  0.2628 -1.3152  0.2966
 7056TIP3    H242728   2.702   1.440   7.410  0.9106 -0.4857 -1.0975
 7057TIP3   OH242729   5.390   6.636   8.019 -0.2641  0.0281  0.0645
 7057TIP3    H142730   5.348   6.722   8.012  0.2817  0.3816  0.8223
 7057TIP3    H242731   5.412   6.612   7.929 -1.0160  0.3757 -0.2179
 7058TIP3   OH242732   6.363   4.728   8.615  0.0577 -0.4211  0.0555
 7058TIP3    H142733   6.319   4.714   8.699  0.8605  2.1192  1.0137
 7058TIP3    H242734   6.454   4.702   8.631  0.0079 -0.8326 -0.3275
 7059TIP3   OH242735   6.197   6.217   2.304  0.3392 -0.2671  0.1948
 7059TIP3    H142736   6.124   6.270   2.332  0.2084 -1.7243  2.9427
 7059TIP3    H242737   6.270   6.278   2.295 -0.3488  0.6981  1.0235
 7060TIP3   OH242738   4.129   4.872   0.770  0.8598 -0.2265  0.4719
 7060TIP3    H142739   4.173   4.906   0.692  1.6581 -1.2026  0.4673
 7060TIP3    H242740   4.186   4.801   0.800  1.3700  1.0682  2.8094
 7061TIP3   OH242741   5.611   6.745   0.726  0.2639 -0.4032  0.0475
 7061TIP3    H142742   5.584   6.790   0.646  1.1837 -1.1392 -0.7026
 7061TIP3    H242743   5.562   6.789   0.795 -0.3110  0.4695 -0.8717
 7062TIP3   OH242744   3.599   0.389   1.368 -0.5027  0.0839  0.3126
 7062TIP3    H142745   3.675   0.447   1.375  1.0886 -2.0254  2.2608
 7062TIP3    H242746   3.636   0.301   1.373 -3.0140 -1.0578  0.1041
 7063TIP3   OH242747   4.904   3.411   2.205 -0.0807 -0.0523 -0.5492
 7063TIP3    H142748   4.905   3.373   2.117 -0.0853  0.2116 -0.6622
 7063TIP3    H242749   4.963   3.486   2.199  0.1173 -0.1854 -0.2601
 7064TIP3   OH242750   2.675   0.546   0.979 -0.6839 -0.5371 -0.5484
 7064TIP3    H142751   2.708   0.462   1.011 -1.0566 -0.4960 -0.0407
 7064TIP3    H242752   2.617   0.577   1.049  0.3046  0.6784 -0.2507
 7065TIP3   OH242753   4.076   4.958   7.638  0.1456  0.0568 -0.3797
 7065TIP3    H142754   3.986   4.944   7.669  0.7433 -2.8159  0.4233
 7065TIP3    H242755   4.126   4.980   7.717  0.7221 -1.9701 -0.1201
 7066TIP3   OH242756   5.155   1.043   0.782  0.4387  0.0040  0.4006
 7066TIP3    H142757   5.190   1.122   0.741 -0.5174 -0.6673 -1.8689
 7066TIP3    H242758   5.060   1.053   0.777  0.2993 -1.0105  0.6833
 7067TIP3   OH242759   2.276   5.744   7.680  0.2954 -0.2148  0.1368
 7067TIP3    H142760   2.212   5.803   7.721  0.0412 -0.9278  0.7937
 7067TIP3    H242761   2.227   5.664   7.664  0.9103 -0.6063  0.2061
 7068TIP3   OH242762   1.941   2.363   7.996 -0.1300 -0.0504  0.4835
 7068TIP3    H142763   1.942   2.312   7.915 -1.3554 -0.0237  0.4304
 7068TIP3    H242764   1.889   2.441   7.975  0.1507  0.3135  1.0933
 7069TIP3   OH242765   6.031   5.883   1.092 -0.4114  0.0663  0.1197
 7069TIP3    H142766   6.075   5.930   1.163 -2.2053  1.1970  0.5414
 7069TIP3    H242767   6.101   5.860   1.031  0.6470  2.8881  0.1269
 7070TIP3   OH242768   2.990   3.706   1.158  0.1811 -0.4670  0.4439
 7070TIP3    H142769   2.926   3.687   1.226  1.4620 -1.7253  1.3396
 7070TIP3    H242770   3.064   3.747   1.204  0.0517  1.0336 -0.5746
 7071TIP3   OH242771   1.803   6.272   0.019 -0.5459 -0.6227  0.0024
 7071TIP3    H142772   1.854   6.192   0.025 -1.5893 -1.3410 -0.4295
 7071TIP3    H242773   1.849   6.334   0.075  0.7501 -1.2572 -0.3212
 7072LIG      O42774   4.642   5.485   2.208 -0.8694 -0.4293 -0.0766
 7072LIG     C142775   4.716   5.389   2.140 -0.0322 -0.6542  0.2885
 7072LIG     C242776   4.635   5.332   2.016 -0.1348  0.2064  0.4853
 7072LIG     C342777   4.843   5.446   2.079  0.9730 -0.2696  0.2843
 7072LIG     H142778   4.732   5.309   2.215  0.4158 -0.4829  0.3791
 7072LIG     H242779   4.642   5.401   1.929  2.1558 -0.1105  0.3445
 7072LIG     H342780   4.531   5.311   2.047  0.5786 -2.0303  1.6066
 7072LIG     H442781   4.685   5.237   1.985 -1.9212 -1.6922  3.0603
 7072LIG     H542782   4.878   5.387   1.992  1.3059 -3.6498  2.5146
 7072LIG     H642783   4.925   5.456   2.154  2.8184  1.3593 -1.8320
 7072LIG     H742784   4.819   5.548   2.043 -1.0510 -0.5961  0.5845
 7072LIG     H842785   4.702   5.512   2.278 -0.5761  0.3207 -0.6080
   6.85391   6.85391   8.72828
