Title
42788
    1SAPS     N    1   6.036   1.476   6.907  0.4479 -0.4559  0.1447
    1SAPS   HN1    2   6.027   1.576   6.880  1.2593 -0.1567  0.9176
    1SAPS   HN2    3   6.108   1.462   6.981  2.0494  1.2599 -0.9882
    1SAPS   HN3    4   6.086   1.434   6.826  0.5585  2.7174 -1.6122
    1SAPS   C12    5   5.904   1.417   6.942  0.1684 -0.3704 -0.1982
    1SAPS  H12A    6   5.931   1.313   6.959  2.1171  0.2418  0.7421
    1SAPS   C13    7   5.837   1.479   7.065 -0.2873  0.9409 -0.2321
    1SAPS  O13A    8   5.896   1.571   7.128  0.1392 -0.3564  0.4371
    1SAPS  O13B    9   5.746   1.414   7.119  0.2246  0.6289  0.0142
    1SAPS   C11   10   5.808   1.445   6.822 -0.2703 -0.9483  0.1983
    1SAPS  H11A   11   5.791   1.553   6.804  1.0735 -0.8257 -0.5072
    1SAPS  H11B   12   5.704   1.421   6.853 -0.7651  0.9244  0.0824
    1SAPS     P   13   5.822   1.223   6.684  0.1932 -0.5358 -0.0617
    1SAPS   O13   14   5.930   1.141   6.737  0.4074 -0.4059 -0.2019
    1SAPS   O14   15   5.682   1.204   6.738  0.1419 -0.4976 -0.8333
    1SAPS   O12   16   5.852   1.380   6.701 -0.1590 -0.3156 -0.5916
    1SAPS   O11   17   5.802   1.222   6.525 -0.7648  0.1756  0.1128
    1SAPS    C1   18   5.906   1.241   6.434 -0.3896 -0.8975  0.5034
    1SAPS    HA   19   5.900   1.339   6.381  0.6986 -2.2349 -2.3210
    1SAPS    HB   20   6.004   1.237   6.486  0.2085  0.1155 -0.5087
    1SAPS    C2   21   5.891   1.132   6.318 -0.5536  0.5720  0.2098
    1SAPS    HS   22   5.971   1.143   6.242 -1.1558  1.7094 -0.2812
    1SAPS   O21   23   5.762   1.136   6.255 -0.1777 -0.2174 -0.1351
    1SAPS   C21   24   5.747   1.225   6.165 -0.2195 -0.7768 -0.1060
    1SAPS   O22   25   5.828   1.300   6.115  0.1748 -0.1606  0.5506
    1SAPS   C22   26   5.602   1.237   6.145 -0.2860 -0.4846  0.1288
    1SAPS   H2R   27   5.560   1.139   6.113  1.9136 -1.6390  0.5887
    1SAPS   H2S   28   5.548   1.276   6.235 -1.4136 -0.4417 -0.5442
    1SAPS    C3   29   5.905   0.984   6.367  0.4524  0.0611 -0.6067
    1SAPS    HX   30   5.817   0.976   6.435  1.8172  0.7256  1.3480
    1SAPS    HY   31   5.993   0.974   6.435  0.1745  0.0240 -0.2531
    1SAPS   O31   32   5.904   0.893   6.256  0.0212  0.5716 -0.5465
    1SAPS   C31   33   6.007   0.890   6.174  0.1088 -0.5259 -0.3529
    1SAPS   O32   34   6.109   0.950   6.195  0.0587 -0.3791  0.4352
    1SAPS   C32   35   5.979   0.811   6.050 -0.1488 -0.6624 -0.1317
    1SAPS   H2X   36   5.882   0.844   6.008  0.0765  1.0842  0.6715
    1SAPS   H2Y   37   5.975   0.704   6.082  0.3161 -0.7637 -0.3935
    1SAPS   C23   38   5.576   1.339   6.024  0.6632 -0.4139  0.1003
    1SAPS   H3R   39   5.624   1.311   5.928  1.2447 -0.6306  0.4489
    1SAPS   H3S   40   5.621   1.437   6.050 -1.1933  0.2887  0.8290
    1SAPS   C24   41   5.430   1.373   5.992  0.5427  0.8269 -0.9786
    1SAPS   H4R   42   5.424   1.442   5.905 -3.3726 -0.0411 -1.5706
    1SAPS   H4S   43   5.393   1.434   6.078  0.5957 -0.4560 -0.0097
    1SAPS   C25   44   5.350   1.249   5.985  0.3013 -0.6264 -0.6448
    1SAPS   H5R   45   5.351   1.195   6.080  1.1699 -0.8676 -0.7784
    1SAPS   C26   46   5.280   1.205   5.883 -1.0629 -0.4080  0.3182
    1SAPS   H6R   47   5.206   1.126   5.899 -0.8776 -0.9323 -1.2499
    1SAPS   C27   48   5.279   1.262   5.749 -0.4858 -0.0024 -0.0007
    1SAPS   H7R   49   5.285   1.373   5.744 -0.7396  0.1404  2.0221
    1SAPS   H7S   50   5.176   1.238   5.715 -1.4087  0.5440  2.2404
    1SAPS   C28   51   5.379   1.199   5.661  0.1981  0.3207 -0.7203
    1SAPS   H8R   52   5.458   1.146   5.717 -0.0863 -0.2899 -0.8830
    1SAPS   C29   53   5.378   1.200   5.521 -0.2163 -0.9371  0.3612
    1SAPS   H9R   54   5.456   1.149   5.463 -0.2435  1.0774 -1.5535
    1SAPS  C210   55   5.276   1.276   5.442 -0.2554 -0.0515 -0.0885
    1SAPS  H10R   56   5.213   1.333   5.514 -0.8040 -0.2245 -0.4207
    1SAPS  H10S   57   5.207   1.212   5.383 -0.6519  0.6192 -0.3609
    1SAPS  C211   58   5.327   1.370   5.341 -0.8604  0.0627 -0.1198
    1SAPS  H11R   59   5.428   1.412   5.359 -0.1546 -1.3068 -0.7230
    1SAPS  C212   60   5.266   1.406   5.226  0.4834  0.1540  0.5525
    1SAPS  H12R   61   5.320   1.485   5.172  2.2954 -2.2589 -1.4283
    1SAPS  C213   62   5.132   1.365   5.178 -0.5725  0.3475 -0.6303
    1SAPS  H13R   63   5.075   1.324   5.264 -1.8261 -0.6253 -1.8691
    1SAPS  H13S   64   5.144   1.271   5.120 -0.8539 -0.4401  0.5594
    1SAPS  C214   65   5.066   1.483   5.105  0.3403  0.6936  0.3834
    1SAPS  H14R   66   5.012   1.550   5.173  0.0959  0.9514 -0.0646
    1SAPS  C215   67   5.070   1.512   4.972 -0.9562  0.0678 -0.4753
    1SAPS  H15R   68   5.013   1.598   4.934 -0.9439  0.0822 -0.4609
    1SAPS  C216   69   5.147   1.438   4.863  0.2783  0.3330 -0.2036
    1SAPS  H16R   70   5.081   1.393   4.786  1.5206 -0.7601 -0.6551
    1SAPS  H16S   71   5.208   1.355   4.904 -2.3613 -1.7471 -0.2802
    1SAPS  C217   72   5.242   1.529   4.790 -0.3914 -0.3170 -0.1574
    1SAPS  H17R   73   5.313   1.550   4.872 -1.0412  2.4263 -0.2092
    1SAPS  H17S   74   5.196   1.622   4.751 -0.2738 -0.8609 -1.6615
    1SAPS  C218   75   5.335   1.465   4.687 -0.5593 -0.3973  0.4870
    1SAPS  H18R   76   5.284   1.458   4.589  3.1251  1.9535 -1.8767
    1SAPS  H18S   77   5.375   1.369   4.726  1.6812  0.5543  0.7122
    1SAPS  C219   78   5.459   1.554   4.652 -0.1603  0.0779 -0.0787
    1SAPS  H19R   79   5.518   1.563   4.745 -1.4059 -0.0007  0.7361
    1SAPS  H19S   80   5.421   1.645   4.600  2.0577  0.0047 -2.0286
    1SAPS  C220   81   5.563   1.490   4.559 -0.1240 -0.0983  0.5487
    1SAPS  H20R   82   5.646   1.563   4.554 -1.2675  1.1890 -0.7145
    1SAPS  H20S   83   5.543   1.470   4.451  0.2554 -2.6560  0.8742
    1SAPS  H20T   84   5.589   1.393   4.607 -0.0897  0.8724  2.5493
    1SAPS   C33   85   6.079   0.834   5.926  0.3153 -0.5700  0.4965
    1SAPS   H3X   86   6.168   0.769   5.941 -0.5665 -2.3921 -1.5268
    1SAPS   H3Y   87   6.103   0.942   5.929 -0.0076 -0.3191 -2.6438
    1SAPS   C34   88   6.013   0.795   5.796  0.7904  0.5341 -0.1313
    1SAPS   H4X   89   5.913   0.842   5.798  1.2423  1.4951  0.8353
    1SAPS   H4Y   90   6.001   0.685   5.790  0.1368  0.5720  0.4437
    1SAPS   C35   91   6.092   0.846   5.671  0.4454  1.1022  0.1215
    1SAPS   H5X   92   6.191   0.798   5.687 -0.7296 -0.6689  2.9389
    1SAPS   H5Y   93   6.098   0.957   5.675  1.7698  1.0630 -0.3497
    1SAPS   C36   94   6.018   0.810   5.542 -0.6031 -0.1952  0.2184
    1SAPS   H6X   95   5.918   0.858   5.533 -0.1158  1.1528  1.5157
    1SAPS   H6Y   96   6.006   0.700   5.541 -0.9102 -0.1953  1.7005
    1SAPS   C37   97   6.098   0.850   5.415  1.0435  0.4275  0.5707
    1SAPS   H7X   98   6.203   0.816   5.424  0.7471 -0.3873  1.0868
    1SAPS   H7Y   99   6.090   0.961   5.410 -0.8119  0.2970 -3.0275
    1SAPS   C38  100   6.045   0.803   5.280  1.2264  0.3340  0.5364
    1SAPS   H8X  101   5.950   0.849   5.246  1.4239  0.6458  0.3952
    1SAPS   H8Y  102   6.018   0.696   5.278  0.3888  0.5247 -1.7597
    1SAPS   C39  103   6.142   0.825   5.162 -0.0023 -0.5495  0.7481
    1SAPS   H9X  104   6.239   0.774   5.181  0.8647  1.1743  1.1224
    1SAPS   H9Y  105   6.152   0.935   5.159 -0.0589 -0.5543  0.2981
    1SAPS  C310  106   6.078   0.781   5.026 -0.2007 -0.5357  0.1078
    1SAPS  H10X  107   5.973   0.816   5.026 -0.2647 -0.7169 -0.4660
    1SAPS  H10Y  108   6.079   0.672   5.005 -0.3133 -0.5909  0.3815
    1SAPS  C311  109   6.154   0.837   4.910  0.1971  0.2541 -0.5217
    1SAPS  H11X  110   6.258   0.801   4.920  0.2171  0.7411  1.4128
    1SAPS  H11Y  111   6.153   0.948   4.909  0.6914  0.3784  2.6824
    1SAPS  C312  112   6.103   0.787   4.770 -0.0868  0.0267 -0.5942
    1SAPS  H12X  113   5.999   0.815   4.744 -0.6751 -0.7062  0.9341
    1SAPS  H12Y  114   6.116   0.677   4.763 -0.6269 -0.0813  0.0091
    1SAPS  C313  115   6.186   0.856   4.665  0.0381 -0.4607 -0.2174
    1SAPS  H13X  116   6.294   0.848   4.689 -0.3797  1.2222  2.7544
    1SAPS  H13Y  117   6.156   0.962   4.647 -0.6726 -0.7203 -0.5808
    1SAPS  C314  118   6.162   0.798   4.526 -0.2365 -0.3200  0.9282
    1SAPS  H14X  119   6.054   0.798   4.499  0.4752 -1.7955 -2.3552
    1SAPS  H14Y  120   6.198   0.694   4.537  1.6356  0.3015  0.9543
    1SAPS  C315  121   6.255   0.867   4.434  0.4680 -0.4180  0.0496
    1SAPS  H15X  122   6.349   0.901   4.483 -0.1155 -0.0671  0.9594
    1SAPS  H15Y  123   6.210   0.961   4.395  0.4381 -0.1764  0.6539
    1SAPS  C316  124   6.300   0.768   4.324 -0.9114  0.1984 -0.6897
    1SAPS  H16X  125   6.351   0.682   4.372 -0.6245  0.5800 -0.3012
    1SAPS  H16Y  126   6.384   0.814   4.268 -1.2128 -0.7371 -1.9488
    1SAPS  C317  127   6.193   0.727   4.230  0.2429 -0.3058 -0.3817
    1SAPS  H17X  128   6.126   0.650   4.273 -0.5425 -0.7570 -2.2928
    1SAPS  H17Y  129   6.253   0.688   4.144 -0.2098  2.5795 -2.1277
    1SAPS  C318  130   6.098   0.838   4.173 -0.5096  0.7229 -0.1330
    1SAPS  H18X  131   6.039   0.818   4.082  0.7388  0.5092 -0.9119
    1SAPS  H18Y  132   6.141   0.940   4.177  0.4007  0.3278  0.7498
    1SAPS  H18Z  133   6.016   0.852   4.248 -1.1884  2.1693 -1.1053
    2SAPS     N  134   5.807   3.210   7.149  0.7525  0.2396  0.1863
    2SAPS   HN1  135   5.784   3.172   7.243  0.0491 -2.1764 -0.8952
    2SAPS   HN2  136   5.716   3.204   7.099  1.3429 -0.9585 -0.8104
    2SAPS   HN3  137   5.868   3.140   7.103  0.7663 -0.1034  0.7133
    2SAPS   C12  138   5.854   3.348   7.149  0.2909 -0.4228 -0.0836
    2SAPS  H12A  139   5.798   3.395   7.229  0.6383 -1.7721  1.0056
    2SAPS   C13  140   6.001   3.364   7.185 -0.0365  0.6767  0.6229
    2SAPS  O13A  141   6.057   3.260   7.234 -0.0011  0.6207 -0.2176
    2SAPS  O13B  142   6.043   3.484   7.194 -0.6400  0.2480  0.4166
    2SAPS   C11  143   5.830   3.409   7.012  0.0595  0.1168 -0.3907
    2SAPS  H11A  144   5.901   3.357   6.944  0.3491  0.6331 -0.4857
    2SAPS  H11B  145   5.842   3.518   7.025  0.7764 -0.0071  0.0306
    2SAPS     P  146   5.608   3.454   6.864 -0.4541 -0.2184  0.5764
    2SAPS   O13  147   5.491   3.376   6.825 -0.1954  0.0078  0.2131
    2SAPS   O14  148   5.573   3.584   6.931 -0.2761  0.1805  0.2208
    2SAPS   O12  149   5.701   3.380   6.962 -0.7671 -0.0118  0.0361
    2SAPS   O11  150   5.703   3.489   6.744  0.0929 -0.1397  0.0174
    2SAPS    C1  151   5.773   3.391   6.668  0.1648 -0.5814  0.2877
    2SAPS    HA  152   5.852   3.342   6.729 -0.0048 -3.7535 -1.8528
    2SAPS    HB  153   5.705   3.315   6.625  0.3708  0.4206 -1.9751
    2SAPS    C2  154   5.853   3.452   6.542  0.1644 -0.3450  0.3953
    2SAPS    HS  155   5.926   3.523   6.587 -2.4574  2.2494  0.8804
    2SAPS   O21  156   5.761   3.517   6.448  0.9250 -0.3059 -0.2210
    2SAPS   C21  157   5.818   3.616   6.380 -0.4022  0.1230 -0.2373
    2SAPS   O22  158   5.932   3.652   6.380  0.0140 -0.1933  0.0412
    2SAPS   C22  159   5.710   3.676   6.291  0.1025 -0.7674  0.1015
    2SAPS   H2R  160   5.745   3.678   6.185 -1.6415 -1.4457 -0.5336
    2SAPS   H2S  161   5.617   3.615   6.301  1.0585 -1.8600  3.3736
    2SAPS    C3  162   5.930   3.338   6.468 -0.2288 -0.0654  0.4349
    2SAPS    HX  163   5.848   3.271   6.433  1.9986 -2.0241 -1.4252
    2SAPS    HY  164   5.993   3.273   6.532 -0.0647 -1.0844 -0.7224
    2SAPS   O31  165   6.013   3.378   6.354  0.3368  0.0591  0.4056
    2SAPS   C31  166   6.139   3.411   6.379  0.0771  0.1393 -0.2324
    2SAPS   O32  167   6.183   3.422   6.494 -0.3125 -0.3124 -0.0653
    2SAPS   C32  168   6.211   3.430   6.252  0.0439  0.7777  0.7723
    2SAPS   H2X  169   6.224   3.322   6.229  0.9434  0.8759  0.7781
    2SAPS   H2Y  170   6.313   3.466   6.278  1.7889 -2.9015 -0.3319
    2SAPS   C23  171   5.682   3.828   6.334 -0.1412  0.4510 -0.2068
    2SAPS   H3R  172   5.783   3.869   6.313 -0.4427  0.5327 -1.6366
    2SAPS   H3S  173   5.647   3.838   6.439 -0.0767 -0.2871 -0.1126
    2SAPS   C24  174   5.576   3.890   6.243  0.3129 -0.0207  0.0558
    2SAPS   H4R  175   5.612   3.901   6.138 -0.0607  0.5958 -0.0127
    2SAPS   H4S  176   5.536   3.984   6.287  1.1202  0.5047 -0.2995
    2SAPS   C25  177   5.454   3.808   6.250 -0.1638 -0.1216  0.7111
    2SAPS   H5R  178   5.423   3.771   6.349 -1.3242 -1.3228 -0.0611
    2SAPS   C26  179   5.382   3.753   6.152  1.1577  0.4101  0.3699
    2SAPS   H6R  180   5.283   3.713   6.180  0.5819  1.4355 -0.1317
    2SAPS   C27  181   5.403   3.777   6.003  0.4817  0.5358  0.3399
    2SAPS   H7R  182   5.387   3.884   5.979 -1.5926 -0.1799 -1.8491
    2SAPS   H7S  183   5.308   3.733   5.966  1.6503  0.1984 -2.5515
    2SAPS   C28  184   5.516   3.711   5.927  0.3655 -0.4559 -0.0134
    2SAPS   H8R  185   5.605   3.697   5.990 -0.8214 -0.4216  1.7396
    2SAPS   C29  186   5.518   3.695   5.796 -0.4220  0.3469  0.2587
    2SAPS   H9R  187   5.608   3.660   5.744 -1.3391  0.9344 -1.8170
    2SAPS  C210  188   5.401   3.721   5.700  0.3571 -0.4750  0.4153
    2SAPS  H10R  189   5.448   3.764   5.609 -0.4636 -1.8036 -0.6646
    2SAPS  H10S  190   5.335   3.800   5.742  1.3381  0.3223  0.4982
    2SAPS  C211  191   5.314   3.603   5.652  0.2191 -0.3488 -0.1573
    2SAPS  H11R  192   5.237   3.569   5.723  1.8306 -3.0880  0.4294
    2SAPS  C212  193   5.334   3.521   5.549 -0.0685  0.3030  0.4534
    2SAPS  H12R  194   5.254   3.446   5.535 -0.1642  0.7747 -1.9824
    2SAPS  C213  195   5.438   3.526   5.435  0.2641 -0.0506 -0.1316
    2SAPS  H13R  196   5.500   3.618   5.440  0.3246  0.0447 -1.9525
    2SAPS  H13S  197   5.385   3.535   5.337 -0.5913  0.5146  0.3750
    2SAPS  C214  198   5.527   3.399   5.426 -0.6539  0.9047  0.2361
    2SAPS  H14R  199   5.622   3.405   5.482 -0.6710 -1.0562  0.5405
    2SAPS  C215  200   5.496   3.290   5.356  0.2376  0.3807 -0.2014
    2SAPS  H15R  201   5.555   3.197   5.367 -0.9404 -0.2552  1.1148
    2SAPS  C216  202   5.372   3.263   5.278 -0.1572 -0.1577 -0.0063
    2SAPS  H16R  203   5.293   3.310   5.340  0.4144  2.4090 -1.0894
    2SAPS  H16S  204   5.351   3.155   5.261 -1.2071  0.2592 -1.6172
    2SAPS  C217  205   5.368   3.326   5.139 -0.0111 -0.1642  0.2947
    2SAPS  H17R  206   5.371   3.437   5.133 -0.9270 -0.1722 -4.5985
    2SAPS  H17S  207   5.264   3.297   5.112 -0.6171  0.7810  1.5512
    2SAPS  C218  208   5.470   3.272   5.032 -0.4411 -0.1078  0.3676
    2SAPS  H18R  209   5.468   3.161   5.025  0.8835 -0.2015  1.0713
    2SAPS  H18S  210   5.571   3.301   5.067  0.4816 -1.4856 -0.9568
    2SAPS  C219  211   5.451   3.319   4.888  0.0974  0.2562  0.0294
    2SAPS  H19R  212   5.473   3.428   4.890  1.8887 -0.0387  2.7947
    2SAPS  H19S  213   5.344   3.303   4.865 -0.4658  2.5980  0.6755
    2SAPS  C220  214   5.545   3.249   4.792  0.1591  0.6329 -0.1499
    2SAPS  H20R  215   5.518   3.142   4.786 -1.8551  1.1840 -1.8379
    2SAPS  H20S  216   5.648   3.249   4.835 -0.3046  1.5736  1.0013
    2SAPS  H20T  217   5.550   3.297   4.692  0.1451 -0.0186 -0.4654
    2SAPS   C33  218   6.151   3.537   6.160  0.5464 -0.1306 -0.2425
    2SAPS   H3X  219   6.184   3.638   6.189 -1.2398  0.6184 -0.6868
    2SAPS   H3Y  220   6.040   3.529   6.165  0.6690 -1.4093  2.8494
    2SAPS   C34  221   6.173   3.519   6.017 -0.0521  0.3177  1.1761
    2SAPS   H4X  222   6.140   3.416   5.995  0.6571  0.0606  1.2921
    2SAPS   H4Y  223   6.281   3.516   5.990 -0.4095  2.4380 -0.8590
    2SAPS   C35  224   6.076   3.602   5.931 -0.9078 -0.1483 -0.0128
    2SAPS   H5X  225   6.101   3.707   5.958 -2.6174  0.4251 -0.5831
    2SAPS   H5Y  226   5.974   3.581   5.967 -0.7552  2.0627  1.9958
    2SAPS   C36  227   6.085   3.582   5.773 -0.3012  0.2964 -0.6206
    2SAPS   H6X  228   6.128   3.481   5.757  1.9998  1.3070 -1.2121
    2SAPS   H6Y  229   6.150   3.663   5.733  2.9780 -2.2199 -0.8596
    2SAPS   C37  230   5.947   3.597   5.697  0.0833 -0.2554  0.0905
    2SAPS   H7X  231   5.905   3.693   5.734  2.2544  0.5489  0.5539
    2SAPS   H7Y  232   5.870   3.520   5.718 -1.7160  1.4731  0.1911
    2SAPS   C38  233   5.982   3.590   5.538  0.0466  0.1665 -0.1218
    2SAPS   H8X  234   6.027   3.488   5.543  0.4329  0.3864  1.6872
    2SAPS   H8Y  235   6.069   3.657   5.522  0.4483  0.2184  1.9408
    2SAPS   C39  236   5.859   3.612   5.463  0.2723 -0.1771  0.3203
    2SAPS   H9X  237   5.809   3.710   5.484 -2.1927 -1.4391  0.7043
    2SAPS   H9Y  238   5.792   3.527   5.488  0.1500  0.6039  2.9596
    2SAPS  C310  239   5.883   3.606   5.308  0.3569 -0.5561  0.1470
    2SAPS  H10X  240   5.956   3.525   5.285 -0.1485 -1.2517  0.9406
    2SAPS  H10Y  241   5.923   3.708   5.289  2.2502 -0.9581  1.5882
    2SAPS  C311  242   5.759   3.576   5.217  0.1444  0.3266 -0.0944
    2SAPS  H11X  243   5.677   3.639   5.259 -0.5209 -0.6892  0.1733
    2SAPS  H11Y  244   5.729   3.469   5.221 -3.1952  1.0730 -1.4159
    2SAPS  C312  245   5.791   3.622   5.075 -0.0663  0.0499 -0.1297
    2SAPS  H12X  246   5.875   3.567   5.028 -0.4718  1.4670 -2.7226
    2SAPS  H12Y  247   5.830   3.725   5.092  2.4390 -0.8803  0.2311
    2SAPS  C313  248   5.661   3.633   4.984 -0.0059 -0.0966 -0.0465
    2SAPS  H13X  249   5.581   3.673   5.049  0.1813  3.5958 -1.8473
    2SAPS  H13Y  250   5.629   3.533   4.947  0.9446 -0.5699  0.3710
    2SAPS  C314  251   5.693   3.736   4.881  0.1427 -0.1196 -0.0175
    2SAPS  H14X  252   5.775   3.700   4.815 -0.8636  0.6133 -1.7465
    2SAPS  H14Y  253   5.723   3.830   4.932  4.7424 -0.8864 -0.8537
    2SAPS  C315  254   5.573   3.768   4.786 -0.5689 -0.0833 -0.1852
    2SAPS  H15X  255   5.570   3.873   4.749  1.9231 -0.6301 -2.2617
    2SAPS  H15Y  256   5.477   3.752   4.839 -1.8438  1.0913 -2.0211
    2SAPS  C316  257   5.590   3.685   4.663 -0.5128  0.0023  0.6978
    2SAPS  H16X  258   5.629   3.584   4.689 -0.0205 -0.2794 -1.0154
    2SAPS  H16Y  259   5.667   3.732   4.598 -0.3919 -2.2895 -0.9538
    2SAPS  C317  260   5.463   3.662   4.575  0.1940 -0.9357 -0.1222
    2SAPS  H17X  261   5.438   3.763   4.537  0.1477  0.1976  2.6527
    2SAPS  H17Y  262   5.392   3.620   4.650 -1.9323 -0.9340 -2.0402
    2SAPS  C318  263   5.488   3.567   4.462 -1.2464  0.2440  0.3251
    2SAPS  H18X  264   5.393   3.567   4.404 -0.3788 -1.1222 -1.1838
    2SAPS  H18Y  265   5.495   3.465   4.507 -0.7563  0.5973  1.0846
    2SAPS  H18Z  266   5.583   3.584   4.407 -0.8470 -1.8120  0.2932
    3SAPS     N  267   4.426   2.801   6.634 -0.0114  0.1285  0.9118
    3SAPS   HN1  268   4.522   2.803   6.594 -0.3629  0.0801  0.0439
    3SAPS   HN2  269   4.355   2.792   6.559 -0.4943  0.8574  1.2678
    3SAPS   HN3  270   4.403   2.886   6.689 -1.2291  0.5616 -0.2329
    3SAPS   C12  271   4.400   2.689   6.731 -0.4812  0.1726  0.3701
    3SAPS  H12A  272   4.470   2.696   6.813  0.3185 -1.5779 -0.1175
    3SAPS   C13  273   4.257   2.673   6.785 -0.4747  0.3351  0.5741
    3SAPS  O13A  274   4.165   2.740   6.729 -0.0232  0.7418  0.2986
    3SAPS  O13B  275   4.237   2.588   6.882 -0.3903 -0.6814  0.7770
    3SAPS   C11  276   4.442   2.563   6.654  0.4724  0.1029  0.2769
    3SAPS  H11A  277   4.371   2.542   6.571  1.4061 -0.6778 -0.3439
    3SAPS  H11B  278   4.437   2.492   6.740  0.2860 -2.0485 -1.4012
    3SAPS     P  279   4.643   2.454   6.543  0.0754 -0.3331  0.2415
    3SAPS   O13  280   4.687   2.381   6.665  0.1692  0.0919 -0.7342
    3SAPS   O14  281   4.552   2.393   6.444  0.8277 -0.2364  0.3637
    3SAPS   O12  282   4.569   2.587   6.593  0.3774  0.6384  0.6320
    3SAPS   O11  283   4.771   2.494   6.461  0.0555  0.2910 -0.5380
    3SAPS    C1  284   4.773   2.626   6.401 -0.7206 -0.1572  0.0302
    3SAPS    HA  285   4.718   2.699   6.463  1.1166  0.2572  1.2566
    3SAPS    HB  286   4.877   2.665   6.407 -1.0525  0.7736 -0.1219
    3SAPS    C2  287   4.706   2.623   6.254 -0.6651 -0.2449 -0.5534
    3SAPS    HS  288   4.620   2.554   6.271 -2.0097  1.8098  1.5080
    3SAPS   O21  289   4.800   2.573   6.155 -0.5697 -0.3727 -1.1614
    3SAPS   C21  290   4.752   2.502   6.064  0.0337  0.2455 -0.0045
    3SAPS   O22  291   4.635   2.459   6.046  0.2713  0.1398  0.3953
    3SAPS   C22  292   4.862   2.463   5.963 -0.0678  0.1048  0.0355
    3SAPS   H2R  293   4.958   2.470   6.019 -0.5584 -0.6539  1.0041
    3SAPS   H2S  294   4.853   2.354   5.940  2.9077 -0.2264 -0.0388
    3SAPS    C3  295   4.656   2.767   6.213  0.5700 -0.2121  0.3602
    3SAPS    HX  296   4.738   2.841   6.220  0.2280  0.1467  0.6024
    3SAPS    HY  297   4.578   2.812   6.278 -0.8493 -1.2556 -0.5847
    3SAPS   O31  298   4.608   2.769   6.075 -0.5006 -0.5152 -0.2623
    3SAPS   C31  299   4.482   2.733   6.066  0.7383 -0.6626  0.5942
    3SAPS   O32  300   4.408   2.721   6.161 -0.0181 -0.9064 -0.2128
    3SAPS   C32  301   4.438   2.750   5.919 -0.1389  0.3457  0.1369
    3SAPS   H2X  302   4.412   2.644   5.897 -1.6481 -0.0852  3.3982
    3SAPS   H2Y  303   4.528   2.779   5.861 -0.1168  1.7536  0.8241
    3SAPS   C23  304   4.882   2.552   5.835 -0.4464 -0.1262 -0.3295
    3SAPS   H3R  305   4.971   2.515   5.779  0.3088  0.1071  0.6843
    3SAPS   H3S  306   4.886   2.656   5.874 -1.7680 -1.1558  2.9078
    3SAPS   C24  307   4.765   2.550   5.742 -0.7601  0.0846 -0.2196
    3SAPS   H4R  308   4.796   2.615   5.656 -2.6443 -0.6884 -1.5518
    3SAPS   H4S  309   4.674   2.595   5.787 -0.8911 -1.1719  0.8048
    3SAPS   C25  310   4.733   2.412   5.691  0.4068 -0.2018  0.2213
    3SAPS   H5R  311   4.702   2.353   5.779  0.5191 -0.5516  0.0301
    3SAPS   C26  312   4.735   2.363   5.564  0.5768  0.1453 -0.1805
    3SAPS   H6R  313   4.707   2.257   5.552  0.6103 -0.1388  1.9918
    3SAPS   C27  314   4.776   2.434   5.438  0.6475 -0.9477  0.6182
    3SAPS   H7R  315   4.835   2.363   5.376  0.9073 -0.4185  0.2580
    3SAPS   H7S  316   4.842   2.520   5.460 -0.2096 -0.4598  1.3504
    3SAPS   C28  317   4.663   2.481   5.360  0.5216 -0.4946  0.2419
    3SAPS   H8R  318   4.612   2.566   5.408  0.0382  2.2377 -4.4380
    3SAPS   C29  319   4.611   2.415   5.251 -0.1892  0.5739 -0.0408
    3SAPS   H9R  320   4.528   2.453   5.189 -0.1606 -0.6874 -0.8886
    3SAPS  C210  321   4.669   2.283   5.196  0.2519  0.0306 -0.2601
    3SAPS  H10R  322   4.586   2.230   5.145  0.4792  1.6882 -2.5036
    3SAPS  H10S  323   4.700   2.228   5.288 -0.9870  1.0201  0.7859
    3SAPS  C211  324   4.793   2.289   5.107 -0.7746 -0.7496 -0.3814
    3SAPS  H11R  325   4.883   2.342   5.142 -0.6681 -0.1800 -1.4746
    3SAPS  C212  326   4.803   2.244   4.978  0.4229  0.5647 -0.0303
    3SAPS  H12R  327   4.894   2.263   4.919 -0.2223  0.0187 -1.2409
    3SAPS  C213  328   4.696   2.172   4.911  0.4707 -0.4573 -0.3697
    3SAPS  H13R  329   4.635   2.119   4.988 -1.4919 -1.6420 -2.5843
    3SAPS  H13S  330   4.740   2.094   4.846 -0.0893 -1.4444  0.4079
    3SAPS  C214  331   4.618   2.279   4.848 -0.1614 -0.1212  0.4796
    3SAPS  H14R  332   4.549   2.331   4.917 -1.1971 -2.0196  0.9654
    3SAPS  C215  333   4.602   2.299   4.716 -0.7011  0.7367 -0.7308
    3SAPS  H15R  334   4.555   2.394   4.685  0.6134  2.6612  2.5885
    3SAPS  C216  335   4.649   2.216   4.604  0.1658  0.1286 -0.3440
    3SAPS  H16R  336   4.576   2.216   4.520  0.6923 -2.5182 -0.8857
    3SAPS  H16S  337   4.660   2.112   4.640  1.2496  0.1710 -0.5230
    3SAPS  C217  338   4.779   2.260   4.540 -0.1525  0.0700 -0.4341
    3SAPS  H17R  339   4.851   2.257   4.625  0.0758 -1.9148 -0.6667
    3SAPS  H17S  340   4.780   2.366   4.505 -2.1252 -0.0383 -0.9223
    3SAPS  C218  341   4.819   2.173   4.418 -0.1278  0.0696  0.0854
    3SAPS  H18R  342   4.737   2.176   4.343 -0.2198 -0.1623  0.1758
    3SAPS  H18S  343   4.825   2.066   4.448 -0.9864  0.3191  1.1725
    3SAPS  C219  344   4.955   2.217   4.364  0.3406  0.3802  0.0934
    3SAPS  H19R  345   4.951   2.304   4.295  3.9996 -0.4522 -1.4256
    3SAPS  H19S  346   5.024   2.240   4.448 -0.4647 -3.5258  2.0386
    3SAPS  C220  347   5.030   2.123   4.270 -0.2113  0.3665  0.3235
    3SAPS  H20R  348   5.123   2.170   4.232  0.8972 -1.2620  0.8762
    3SAPS  H20S  349   4.961   2.092   4.189 -3.6884  1.4038  2.6532
    3SAPS  H20T  350   5.059   2.026   4.316 -0.5054  0.5200  0.8470
    3SAPS   C33  351   4.334   2.854   5.897  0.0179  0.1641  0.0710
    3SAPS   H3X  352   4.367   2.961   5.902 -0.1729  0.1625  2.0418
    3SAPS   H3Y  353   4.243   2.847   5.959 -2.6381 -2.1007 -3.6944
    3SAPS   C34  354   4.273   2.831   5.760  0.3033 -0.1240 -0.8864
    3SAPS   H4X  355   4.192   2.907   5.761 -1.4927 -1.9417  1.6055
    3SAPS   H4Y  356   4.227   2.731   5.754  0.6671 -0.4060  0.6220
    3SAPS   C35  357   4.370   2.869   5.644  0.1630 -0.1147  0.0287
    3SAPS   H5X  358   4.412   2.971   5.658  4.1244 -1.4652 -0.7396
    3SAPS   H5Y  359   4.463   2.809   5.639  1.4333  1.8451 -4.5035
    3SAPS   C36  360   4.301   2.859   5.511 -0.4887 -0.8431  0.5707
    3SAPS   H6X  361   4.380   2.898   5.443 -0.2137 -0.9418  0.8321
    3SAPS   H6Y  362   4.216   2.930   5.500  1.2429  1.1048 -1.0525
    3SAPS   C37  363   4.265   2.713   5.465 -0.0792  0.0031  0.6354
    3SAPS   H7X  364   4.175   2.687   5.525 -0.9491  0.2624 -0.5218
    3SAPS   H7Y  365   4.352   2.656   5.505 -0.2882 -1.3047 -0.7159
    3SAPS   C38  366   4.247   2.693   5.319 -0.6736  0.2414 -0.9276
    3SAPS   H8X  367   4.337   2.721   5.260  0.4886  0.6216  0.9143
    3SAPS   H8Y  368   4.167   2.754   5.273  0.5127  1.0589 -1.9714
    3SAPS   C39  369   4.218   2.541   5.301 -0.9328 -0.2590 -0.3643
    3SAPS   H9X  370   4.139   2.500   5.368  0.2789  1.3254  2.1655
    3SAPS   H9Y  371   4.314   2.496   5.334 -0.2263  1.2238 -0.3332
    3SAPS  C310  372   4.189   2.507   5.155  0.6319  0.1968  0.6523
    3SAPS  H10X  373   4.252   2.572   5.090 -3.1343  1.4186 -2.1174
    3SAPS  H10Y  374   4.083   2.521   5.127  0.8541 -1.2083 -1.1252
    3SAPS  C311  375   4.215   2.364   5.109 -0.4769 -0.0156  0.7352
    3SAPS  H11X  376   4.135   2.304   5.156  1.6481 -2.3022  1.7077
    3SAPS  H11Y  377   4.315   2.332   5.146 -0.8020 -1.9596  0.0785
    3SAPS  C312  378   4.215   2.350   4.952  0.0461  0.2871 -0.5535
    3SAPS  H12X  379   4.311   2.397   4.922  1.5609 -2.1055  0.2172
    3SAPS  H12Y  380   4.127   2.401   4.907 -0.9384 -0.4534  0.4962
    3SAPS  C313  381   4.210   2.198   4.898  0.8012 -0.8140  0.0861
    3SAPS  H13X  382   4.118   2.144   4.927 -0.2938  0.6530 -0.5416
    3SAPS  H13Y  383   4.307   2.148   4.920  0.3851 -1.0131  1.5940
    3SAPS  C314  384   4.215   2.196   4.745  0.8512  0.0274  0.0630
    3SAPS  H14X  385   4.299   2.261   4.714 -0.6603  2.0429 -0.0423
    3SAPS  H14Y  386   4.116   2.241   4.720 -0.0511 -2.4265 -1.1427
    3SAPS  C315  387   4.233   2.060   4.678  0.1562 -1.1467  0.4554
    3SAPS  H15X  388   4.140   1.999   4.687 -1.4305  0.8913 -1.3074
    3SAPS  H15Y  389   4.327   2.014   4.718  1.8483  0.8608 -1.0274
    3SAPS  C316  390   4.273   2.066   4.532  0.5661  0.4909  1.1857
    3SAPS  H16X  391   4.376   2.037   4.504  0.0254 -0.9226  0.5855
    3SAPS  H16Y  392   4.267   2.169   4.490 -1.7220 -0.1396 -0.2310
    3SAPS  C317  393   4.168   1.998   4.440 -0.5186  0.0160 -0.5757
    3SAPS  H17X  394   4.180   2.028   4.334 -0.6658  0.5105 -0.4567
    3SAPS  H17Y  395   4.070   2.037   4.477 -0.5394 -0.1186 -0.4906
    3SAPS  C318  396   4.164   1.845   4.454  0.0211 -0.2167  0.2579
    3SAPS  H18X  397   4.143   1.824   4.562 -0.8985  0.5920  0.2473
    3SAPS  H18Y  398   4.264   1.798   4.441  0.6011  0.9409  0.4200
    3SAPS  H18Z  399   4.094   1.786   4.391 -0.8126  1.2879 -0.2481
    4SAPS     N  400   4.335   6.504   7.023 -0.7663  0.3723 -0.3281
    4SAPS   HN1  401   4.363   6.408   7.049  0.4322  0.5213 -0.9592
    4SAPS   HN2  402   4.313   6.487   6.922  1.2418  0.7395 -0.8780
    4SAPS   HN3  403   4.406   6.579   7.032  0.8240 -1.1646  0.4112
    4SAPS   C12  404   4.212   6.556   7.092 -0.7052  0.4180  0.0571
    4SAPS  H12A  405   4.134   6.491   7.054  1.5441 -1.8951 -0.8965
    4SAPS   C13  406   4.204   6.537   7.246 -0.8431  0.4168 -0.6636
    4SAPS  O13A  407   4.300   6.473   7.304  0.5323 -0.2652 -0.1378
    4SAPS  O13B  408   4.107   6.585   7.307 -0.1484 -0.4886  0.3518
    4SAPS   C11  409   4.192   6.705   7.040 -0.7675 -0.4767  0.5431
    4SAPS  H11A  410   4.250   6.770   7.109  0.6978  0.0371 -1.1219
    4SAPS  H11B  411   4.084   6.729   7.056 -1.1850 -1.9372  0.0625
    4SAPS     P  412   4.262   6.871   6.850  0.2126 -0.2073 -0.2524
    4SAPS   O13  413   4.141   6.957   6.854 -0.3481 -0.0782 -0.4763
    4SAPS   O14  414   4.380   6.916   6.926 -0.1712  0.1613 -0.3986
    4SAPS   O12  415   4.222   6.720   6.897 -0.5458 -0.4074  0.3688
    4SAPS   O11  416   4.319   6.840   6.707  0.6401  0.1881 -0.1299
    4SAPS    C1  417   4.252   6.731   6.640 -0.2581  0.0419  0.2222
    4SAPS    HA  418   4.315   6.640   6.630  0.8672  0.9995 -1.9666
    4SAPS    HB  419   4.151   6.708   6.680 -0.0178 -2.2772 -0.3976
    4SAPS    C2  420   4.235   6.781   6.498  0.4634 -0.7615  0.0952
    4SAPS    HS  421   4.163   6.709   6.452  1.6535 -2.4442  0.7457
    4SAPS   O21  422   4.360   6.775   6.434 -0.2631 -0.1100 -0.2166
    4SAPS   C21  423   4.386   6.655   6.383  0.1405  0.4026  0.0083
    4SAPS   O22  424   4.317   6.557   6.400  0.1882  0.6847  0.0719
    4SAPS   C22  425   4.520   6.663   6.302  0.3235 -0.3751  0.3528
    4SAPS   H2R  426   4.539   6.768   6.272 -0.9096 -0.2618 -0.0986
    4SAPS   H2S  427   4.594   6.622   6.374  0.6598  0.0382  0.2497
    4SAPS    C3  428   4.178   6.926   6.496  0.0860 -0.6136  0.5188
    4SAPS    HX  429   4.263   6.985   6.535 -0.8622  0.5863  0.8404
    4SAPS    HY  430   4.092   6.928   6.566 -0.5833 -0.9471 -0.2774
    4SAPS   O31  431   4.121   6.973   6.375 -0.3395 -0.4230 -0.5079
    4SAPS   C31  432   4.211   7.003   6.279 -0.8159 -0.1150 -0.5318
    4SAPS   O32  433   4.334   6.998   6.280  0.8422 -0.0118 -0.2467
    4SAPS   C32  434   4.126   7.061   6.167  0.2117 -0.7598  0.0260
    4SAPS   H2X  435   4.141   7.171   6.158 -2.4790 -0.3483 -0.3210
    4SAPS   H2Y  436   4.018   7.051   6.191  0.1671  0.8604  0.6636
    4SAPS   C23  437   4.513   6.586   6.170 -0.5747 -0.0206  0.0368
    4SAPS   H3R  438   4.455   6.493   6.189  1.7083 -1.2775  1.3051
    4SAPS   H3S  439   4.615   6.556   6.140 -0.5489  0.4631 -0.3594
    4SAPS   C24  440   4.439   6.664   6.067 -0.1663  0.3772 -0.4653
    4SAPS   H4R  441   4.331   6.676   6.091 -0.0202  1.0027 -0.0945
    4SAPS   H4S  442   4.433   6.600   5.976 -1.7292  0.3031 -0.3515
    4SAPS   C25  443   4.482   6.798   6.028 -0.6583  0.4306 -0.3795
    4SAPS   H5R  444   4.481   6.876   6.105 -0.3966  0.4504 -0.3933
    4SAPS   C26  445   4.542   6.843   5.913  0.6659 -0.5937  0.1244
    4SAPS   H6R  446   4.578   6.947   5.902 -0.6750  0.1664  2.3453
    4SAPS   C27  447   4.570   6.752   5.793 -0.1956  0.9941 -0.0930
    4SAPS   H7R  448   4.518   6.798   5.706  0.4835  0.9459 -0.5310
    4SAPS   H7S  449   4.529   6.649   5.802  0.5987  0.7851  1.4512
    4SAPS   C28  450   4.714   6.755   5.751 -0.0478 -0.0673  0.1953
    4SAPS   H8R  451   4.784   6.744   5.835 -2.0288 -1.3544  1.7683
    4SAPS   C29  452   4.757   6.784   5.627  0.5740 -0.3259  1.0214
    4SAPS   H9R  453   4.865   6.779   5.610  0.4148 -1.0214  0.1372
    4SAPS  C210  454   4.677   6.811   5.503 -0.3040 -0.7689 -0.4694
    4SAPS  H10R  455   4.587   6.868   5.534  2.1972  1.2730  4.1695
    4SAPS  H10S  456   4.637   6.718   5.458 -1.0488 -1.3860  1.3792
    4SAPS  C211  457   4.745   6.894   5.407  1.3026 -0.5057  0.3532
    4SAPS  H11R  458   4.780   6.993   5.442 -0.0570 -0.2107  0.9400
    4SAPS  C212  459   4.773   6.865   5.280  0.0712  0.2568  0.1457
    4SAPS  H12R  460   4.820   6.945   5.220  1.7301 -1.2831 -0.6809
    4SAPS  C213  461   4.740   6.735   5.206  0.4173 -0.9484 -0.6847
    4SAPS  H13R  462   4.792   6.656   5.265  1.2997  2.2387  3.1874
    4SAPS  H13S  463   4.794   6.742   5.108  2.3249 -1.0219  0.3069
    4SAPS  C214  464   4.591   6.726   5.185 -0.2405  1.3186 -0.3387
    4SAPS  H14R  465   4.519   6.768   5.258 -0.5841 -0.0009  0.1096
    4SAPS  C215  466   4.527   6.686   5.074 -0.9472  0.0011  0.6852
    4SAPS  H15R  467   4.420   6.667   5.090 -0.3917 -1.9475  2.4087
    4SAPS  C216  468   4.578   6.629   4.945  0.6302 -0.5793  0.7449
    4SAPS  H16R  469   4.666   6.565   4.963 -0.3637 -1.6483  2.0129
    4SAPS  H16S  470   4.612   6.714   4.882 -1.0578 -0.2263  0.2536
    4SAPS  C217  471   4.472   6.554   4.861 -0.1001  0.2318 -0.4625
    4SAPS  H17R  472   4.397   6.627   4.826 -0.4360 -1.4597 -3.6878
    4SAPS  H17S  473   4.415   6.485   4.927 -0.3394 -1.4230 -2.3126
    4SAPS  C218  474   4.526   6.466   4.745  0.3832 -0.9110 -0.3588
    4SAPS  H18R  475   4.439   6.415   4.699 -1.9335  5.2527 -3.9939
    4SAPS  H18S  476   4.605   6.399   4.785 -0.3508 -1.9796 -0.6566
    4SAPS  C219  477   4.587   6.534   4.629  0.2298 -0.5598 -0.2848
    4SAPS  H19R  478   4.627   6.457   4.559  2.0344  0.0588  0.0083
    4SAPS  H19S  479   4.685   6.580   4.656  0.0912 -0.1724 -0.4339
    4SAPS  C220  480   4.496   6.634   4.561 -0.9141 -0.2334  0.9319
    4SAPS  H20R  481   4.554   6.692   4.486 -2.2101  1.5229  1.2186
    4SAPS  H20S  482   4.444   6.706   4.628 -1.4161 -0.3949  0.7201
    4SAPS  H20T  483   4.419   6.575   4.507 -1.9953  1.6593  0.3396
    4SAPS   C33  484   4.188   7.006   6.036 -0.1710 -0.1179  0.3345
    4SAPS   H3X  485   4.170   6.897   6.035 -2.4531  0.2152 -0.6155
    4SAPS   H3Y  486   4.294   7.038   6.048 -0.5247  0.3634  2.7626
    4SAPS   C34  487   4.138   7.071   5.903 -0.1670 -0.4896 -0.8584
    4SAPS   H4X  488   4.154   7.181   5.910 -0.3685 -0.5154  0.1054
    4SAPS   H4Y  489   4.029   7.053   5.892  0.1641 -2.8724 -0.7094
    4SAPS   C35  490   4.199   6.993   5.786 -0.2179 -1.0357 -0.3657
    4SAPS   H5X  491   4.170   6.887   5.795 -0.2689 -1.1576 -1.7653
    4SAPS   H5Y  492   4.307   7.019   5.783 -0.9473  2.6401 -0.7082
    4SAPS   C36  493   4.152   7.053   5.649  0.5147 -0.7757 -0.2675
    4SAPS   H6X  494   4.203   7.148   5.621 -0.3400 -0.9376 -2.5558
    4SAPS   H6Y  495   4.042   7.063   5.636  0.6568  0.7581 -0.5384
    4SAPS   C37  496   4.194   6.947   5.541 -0.5341 -0.4541  0.0610
    4SAPS   H7X  497   4.126   6.863   5.566 -0.9952  0.4959  2.3024
    4SAPS   H7Y  498   4.300   6.916   5.555  0.3946  1.8650 -1.2416
    4SAPS   C38  499   4.177   6.990   5.392  0.5202  0.0972 -0.7636
    4SAPS   H8X  500   4.244   7.075   5.367 -2.1751  2.4346 -0.6096
    4SAPS   H8Y  501   4.069   7.015   5.380  0.3291 -0.0954  0.4319
    4SAPS   C39  502   4.200   6.875   5.292 -0.4539  0.0477  0.1716
    4SAPS   H9X  503   4.171   6.777   5.336  2.0054 -0.3120  1.1811
    4SAPS   H9Y  504   4.310   6.862   5.277 -0.3264 -0.1860  1.2276
    4SAPS  C310  505   4.125   6.907   5.166  0.5079  0.0743  0.0452
    4SAPS  H10X  506   4.149   7.009   5.129  0.4718  0.6183  1.4585
    4SAPS  H10Y  507   4.015   6.908   5.180  0.5252 -0.2350  0.2172
    4SAPS  C311  508   4.178   6.822   5.051  0.0383 -1.1266  0.0929
    4SAPS  H11X  509   4.288   6.816   5.059  0.0647  1.0256  3.6258
    4SAPS  H11Y  510   4.154   6.870   4.954 -0.4113 -1.9839 -0.2338
    4SAPS  C312  511   4.110   6.688   5.029  0.3810 -0.1704  0.0001
    4SAPS  H12X  512   4.023   6.666   5.095 -0.5939 -1.4243 -1.5916
    4SAPS  H12Y  513   4.178   6.603   5.051 -2.9773 -3.3735 -0.8009
    4SAPS  C313  514   4.062   6.658   4.881 -0.1917 -0.5081 -0.0797
    4SAPS  H13X  515   4.145   6.675   4.810 -0.6807  1.6726 -0.2261
    4SAPS  H13Y  516   3.984   6.737   4.870 -1.7839 -1.3870  3.3029
    4SAPS  C314  517   4.004   6.518   4.850 -0.3117  0.3540 -0.9047
    4SAPS  H14X  518   3.914   6.513   4.914  0.1590  0.7048 -0.1932
    4SAPS  H14Y  519   4.076   6.443   4.890 -0.0850  0.6125 -0.8253
    4SAPS  C315  520   3.975   6.492   4.709  0.2423 -0.5628 -0.3661
    4SAPS  H15X  521   3.937   6.582   4.655 -1.7489 -0.4717  1.0898
    4SAPS  H15Y  522   3.889   6.421   4.704 -1.4230  1.3132  0.1171
    4SAPS  C316  523   4.095   6.421   4.640 -0.2604  0.3583  0.3219
    4SAPS  H16X  524   4.123   6.330   4.696 -2.0197  0.0422  0.7405
    4SAPS  H16Y  525   4.181   6.490   4.645  0.8726 -1.0707  1.2063
    4SAPS  C317  526   4.063   6.368   4.502 -0.0109 -0.2412 -0.2834
    4SAPS  H17X  527   3.983   6.437   4.470  0.0867 -1.1174 -2.5977
    4SAPS  H17Y  528   4.017   6.266   4.501 -0.8623  0.1204 -2.3556
    4SAPS  C318  529   4.173   6.371   4.402  0.7750 -0.1601  0.6059
    4SAPS  H18X  530   4.232   6.465   4.395  1.2993 -0.4285  1.2615
    4SAPS  H18Y  531   4.139   6.359   4.297  2.1801 -1.7189  0.2787
    4SAPS  H18Z  532   4.240   6.287   4.432 -0.2781 -1.2479  0.0006
    5SAPS     N  533   0.678   2.772   6.991  0.4345  1.0478 -0.3373
    5SAPS   HN1  534   0.673   2.771   7.095 -0.2033  0.7528 -0.3715
    5SAPS   HN2  535   0.750   2.704   6.960 -1.0417 -1.6367  1.6581
    5SAPS   HN3  536   0.717   2.864   6.961  2.4348  0.0276 -1.0539
    5SAPS   C12  537   0.546   2.739   6.937  0.0518 -0.1234 -0.5644
    5SAPS  H12A  538   0.528   2.640   6.975 -2.6859 -0.2109 -1.8071
    5SAPS   C13  539   0.429   2.828   6.986  0.1817 -0.3598  0.2331
    5SAPS  O13A  540   0.456   2.927   7.059 -0.0767  0.1924  0.2144
    5SAPS  O13B  541   0.308   2.796   6.967  0.0551 -0.2131  0.0547
    5SAPS   C11  542   0.561   2.746   6.779 -0.2715 -0.2373  0.7745
    5SAPS  H11A  543   0.570   2.851   6.745 -0.2095 -0.0219  1.4486
    5SAPS  H11B  544   0.460   2.713   6.745 -1.0394  0.0094  2.6947
    5SAPS     P  545   0.643   2.509   6.693 -0.7607  0.6074 -0.2454
    5SAPS   O13  546   0.772   2.447   6.663 -0.3464  0.3229  0.4440
    5SAPS   O14  547   0.574   2.449   6.815 -0.1691  0.0084  1.1237
    5SAPS   O12  548   0.660   2.666   6.725  0.2041  0.0782  0.5333
    5SAPS   O11  549   0.548   2.509   6.565  0.2043 -0.4587  0.4838
    5SAPS    C1  550   0.568   2.610   6.465  1.2279 -0.2644 -0.5443
    5SAPS    HA  551   0.503   2.693   6.499 -2.1125 -2.0470 -2.1411
    5SAPS    HB  552   0.673   2.641   6.445  1.0217 -1.3302 -3.9342
    5SAPS    C2  553   0.504   2.564   6.333  0.5682 -0.5921 -0.0722
    5SAPS    HS  554   0.481   2.655   6.274  0.1503 -0.4298  0.3358
    5SAPS   O21  555   0.384   2.487   6.362 -0.1467  0.4102 -0.3575
    5SAPS   C21  556   0.278   2.561   6.374 -0.0422 -0.0536 -0.0713
    5SAPS   O22  557   0.271   2.683   6.386 -0.5900  0.2540 -0.4523
    5SAPS   C22  558   0.156   2.480   6.392  0.3696  0.1030  0.1797
    5SAPS   H2R  559   0.178   2.373   6.413 -0.7318  0.1140  1.6076
    5SAPS   H2S  560   0.116   2.505   6.493  0.4116 -0.4026  0.3249
    5SAPS    C3  561   0.603   2.480   6.248 -0.2127  0.0221 -0.3785
    5SAPS    HX  562   0.639   2.394   6.308 -0.6870 -0.5635 -0.9290
    5SAPS    HY  563   0.694   2.542   6.233 -2.0309  2.4876 -2.0637
    5SAPS   O31  564   0.549   2.439   6.120  0.7208 -0.3855 -0.3389
    5SAPS   C31  565   0.519   2.310   6.095 -0.2178 -0.3057 -0.3181
    5SAPS   O32  566   0.518   2.223   6.180  0.3448  0.2437  0.0900
    5SAPS   C32  567   0.498   2.301   5.942  0.1984  0.4606 -0.2519
    5SAPS   H2X  568   0.584   2.243   5.901  2.0537  1.8885  1.3715
    5SAPS   H2Y  569   0.514   2.401   5.897 -0.0687  0.9033  0.5997
    5SAPS   C23  570   0.064   2.511   6.278  0.2836  0.2591 -0.3580
    5SAPS   H3R  571   0.119   2.479   6.186  2.4904  1.4654  0.4759
    5SAPS   H3S  572   0.042   2.617   6.257 -0.9777 -0.3323 -2.3645
    5SAPS   C24  573  -0.079   2.444   6.292  0.3628 -0.2303 -0.0257
    5SAPS   H4R  574  -0.067   2.333   6.300  1.2880 -0.1764 -0.6205
    5SAPS   H4S  575  -0.127   2.454   6.192 -1.2244 -0.9122  0.6259
    5SAPS   C25  576  -0.173   2.495   6.393 -0.3876  0.0563 -0.3263
    5SAPS   H5R  577  -0.128   2.549   6.477 -0.0899 -0.1652 -0.3408
    5SAPS   C26  578  -0.307   2.508   6.370 -0.3719 -0.4892 -0.0115
    5SAPS   H6R  579  -0.372   2.549   6.448 -2.0089  0.8241 -1.9770
    5SAPS   C27  580  -0.389   2.479   6.246 -0.3401  0.7575 -0.7995
    5SAPS   H7R  581  -0.448   2.387   6.268 -0.4194  1.4142  1.9974
    5SAPS   H7S  582  -0.337   2.451   6.152 -1.2563  0.2801 -1.1895
    5SAPS   C28  583  -0.490   2.578   6.209  0.4623  0.5123 -0.5788
    5SAPS   H8R  584  -0.531   2.614   6.305 -0.0011 -0.1423 -0.5303
    5SAPS   C29  585  -0.537   2.620   6.094  0.3402 -0.1233  0.3928
    5SAPS   H9R  586  -0.609   2.701   6.106  0.2896 -0.3451  1.7273
    5SAPS  C210  587  -0.508   2.564   5.955  0.4995 -0.3325 -0.2074
    5SAPS  H10R  588  -0.420   2.608   5.904  0.0276 -1.3071 -1.9503
    5SAPS  H10S  589  -0.604   2.590   5.905  0.0243 -1.7405 -0.0946
    5SAPS  C211  590  -0.504   2.415   5.933  0.5417  0.2619  0.4708
    5SAPS  H11R  591  -0.553   2.365   6.017 -2.3117  2.5675  0.3176
    5SAPS  C212  592  -0.452   2.359   5.823  0.3846 -0.3863  0.7849
    5SAPS  H12R  593  -0.440   2.249   5.819  1.0197 -0.2842 -2.1079
    5SAPS  C213  594  -0.369   2.435   5.720 -0.3068 -0.2074 -0.4399
    5SAPS  H13R  595  -0.296   2.506   5.764  0.1016  0.2163 -1.7689
    5SAPS  H13S  596  -0.439   2.496   5.660 -1.8360  0.9963  2.3984
    5SAPS  C214  597  -0.288   2.337   5.626  1.0727 -0.0175 -0.4874
    5SAPS  H14R  598  -0.225   2.263   5.677 -3.4423 -1.4771  3.8303
    5SAPS  C215  599  -0.327   2.304   5.495 -0.1456  0.5061 -0.5143
    5SAPS  H15R  600  -0.271   2.224   5.446 -1.5912 -0.0380 -1.3439
    5SAPS  C216  601  -0.424   2.375   5.401 -0.2651  0.2375 -0.4545
    5SAPS  H16R  602  -0.359   2.426   5.327 -3.0491  0.8532 -2.6358
    5SAPS  H16S  603  -0.488   2.448   5.455  0.2129  0.2384  0.1177
    5SAPS  C217  604  -0.509   2.270   5.331 -0.0301  0.2781  0.1244
    5SAPS  H17R  605  -0.567   2.208   5.404  1.6596 -0.4891  0.8593
    5SAPS  H17S  606  -0.442   2.194   5.287 -0.8673 -0.2499 -0.2726
    5SAPS  C218  607  -0.607   2.328   5.234 -0.2913 -0.7096 -0.2537
    5SAPS  H18R  608  -0.546   2.349   5.144  1.0265  1.9255  1.1509
    5SAPS  H18S  609  -0.661   2.416   5.274 -2.5519 -3.1613  2.5677
    5SAPS  C219  610  -0.725   2.237   5.202  0.0804 -0.2327  0.0841
    5SAPS  H19R  611  -0.771   2.198   5.295 -1.3153  0.0314 -0.4810
    5SAPS  H19S  612  -0.679   2.145   5.160  1.1468 -0.6439  2.0521
    5SAPS  C220  613  -0.841   2.291   5.109  0.4175  0.4081  0.1427
    5SAPS  H20R  614  -0.794   2.328   5.015 -3.2501 -0.2304 -2.1277
    5SAPS  H20S  615  -0.904   2.368   5.160 -2.8436 -2.0527  0.1575
    5SAPS  H20T  616  -0.911   2.209   5.086 -0.8442  0.9250  1.8865
    5SAPS   C33  617   0.371   2.231   5.903 -0.3422 -0.4245  0.1376
    5SAPS   H3X  618   0.290   2.306   5.916 -0.0568 -0.4144  2.3378
    5SAPS   H3Y  619   0.360   2.140   5.966  1.5356 -1.2578 -0.6417
    5SAPS   C34  620   0.378   2.198   5.751 -0.6304  0.1294 -0.6519
    5SAPS   H4X  621   0.458   2.122   5.742  0.7257  0.8019  3.4036
    5SAPS   H4Y  622   0.415   2.285   5.693  1.8880  0.3903  1.1575
    5SAPS   C35  623   0.251   2.153   5.686 -0.2248 -0.2091  0.1963
    5SAPS   H5X  624   0.171   2.226   5.714  0.7005  0.8765  0.1054
    5SAPS   H5Y  625   0.215   2.054   5.721  0.2674 -0.2509  0.5978
    5SAPS   C36  626   0.282   2.140   5.544  0.2099  0.3421  0.0704
    5SAPS   H6X  627   0.351   2.056   5.523  0.4716  0.7932 -0.9490
    5SAPS   H6Y  628   0.317   2.235   5.497 -0.2948  0.7050  0.4084
    5SAPS   C37  629   0.147   2.126   5.466 -0.2728 -0.2214 -0.0893
    5SAPS   H7X  630   0.073   2.199   5.506  0.2442 -0.7068  1.8527
    5SAPS   H7Y  631   0.108   2.027   5.496 -0.5467 -0.5417 -1.4451
    5SAPS   C38  632   0.173   2.141   5.321  0.8456  0.5178 -0.1203
    5SAPS   H8X  633   0.247   2.063   5.291 -0.1193  0.0647 -1.4132
    5SAPS   H8Y  634   0.212   2.243   5.301 -2.3287  1.4364 -2.3837
    5SAPS   C39  635   0.042   2.131   5.242 -0.4064 -0.0372  0.8746
    5SAPS   H9X  636  -0.039   2.192   5.287  0.1353  1.9260 -0.6573
    5SAPS   H9Y  637   0.017   2.024   5.228  2.0818 -0.6470  0.6005
    5SAPS  C310  638   0.066   2.198   5.109 -0.0971  0.2925  0.5079
    5SAPS  H10X  639   0.161   2.165   5.063 -1.5867 -0.0408 -2.5640
    5SAPS  H10Y  640   0.063   2.309   5.121 -0.1669  0.2057  1.3625
    5SAPS  C311  641  -0.042   2.162   5.005  0.2527 -0.1663  0.1249
    5SAPS  H11X  642  -0.138   2.177   5.060  0.1304 -0.4642 -0.0092
    5SAPS  H11Y  643  -0.042   2.054   4.979 -1.5667  0.0305 -0.8377
    5SAPS  C312  644  -0.052   2.255   4.881 -1.1391 -0.0686  0.0310
    5SAPS  H12X  645  -0.017   2.201   4.791  1.3629  2.2006 -0.5040
    5SAPS  H12Y  646   0.012   2.345   4.894 -0.7834 -0.0227 -1.8795
    5SAPS  C313  647  -0.191   2.318   4.850  0.2087 -0.5170  0.8168
    5SAPS  H13X  648  -0.186   2.388   4.764 -0.7569  0.0654  1.2084
    5SAPS  H13Y  649  -0.235   2.368   4.940 -1.8412 -0.6600 -0.0389
    5SAPS  C314  650  -0.296   2.206   4.825  0.2608  0.0456 -0.0680
    5SAPS  H14X  651  -0.266   2.108   4.868  0.2820  0.9111  2.0232
    5SAPS  H14Y  652  -0.310   2.198   4.715  0.2471 -1.3318  0.0157
    5SAPS  C315  653  -0.424   2.237   4.903  0.1468  0.2430  0.0543
    5SAPS  H15X  654  -0.469   2.335   4.876 -0.3200 -0.4981 -2.0806
    5SAPS  H15Y  655  -0.408   2.244   5.013 -1.3672  2.4285  0.2109
    5SAPS  C316  656  -0.552   2.147   4.876 -0.1000 -0.4914 -1.0702
    5SAPS  H16X  657  -0.626   2.196   4.942  3.4173  1.7876  1.5463
    5SAPS  H16Y  658  -0.545   2.041   4.911 -1.2751 -0.4128 -0.5683
    5SAPS  C317  659  -0.613   2.143   4.732 -1.2296 -0.1795 -0.0165
    5SAPS  H17X  660  -0.523   2.107   4.677 -0.7100  0.1485  0.5997
    5SAPS  H17Y  661  -0.648   2.244   4.703 -2.0838 -0.5653 -0.3599
    5SAPS  C318  662  -0.733   2.058   4.726 -0.3048 -0.3641 -0.3997
    5SAPS  H18X  663  -0.704   1.951   4.738 -0.6950 -0.5165 -0.7732
    5SAPS  H18Y  664  -0.780   2.064   4.625  0.4009  1.3281 -0.6650
    5SAPS  H18Z  665  -0.812   2.083   4.800 -0.5701  0.5318 -0.9769
    6SAPS     N  666   2.958   2.677   6.574  0.4553  0.2169 -0.3007
    6SAPS   HN1  667   2.988   2.691   6.475  0.7492 -1.3638 -0.4691
    6SAPS   HN2  668   2.937   2.575   6.584  0.0177  0.1072 -2.0081
    6SAPS   HN3  669   2.868   2.725   6.596  0.5863  0.4467 -0.2704
    6SAPS   C12  670   3.067   2.718   6.666  0.2325  0.5131 -0.2077
    6SAPS  H12A  671   3.026   2.711   6.765  2.4725 -0.7038  0.6947
    6SAPS   C13  672   3.192   2.628   6.663 -0.2293 -0.3289  0.1506
    6SAPS  O13A  673   3.178   2.508   6.625 -0.2620 -0.7965 -0.4771
    6SAPS  O13B  674   3.284   2.660   6.748  0.1420  0.3400  0.0539
    6SAPS   C11  675   3.111   2.865   6.643 -0.1083  0.0532 -0.6187
    6SAPS  H11A  676   3.168   2.888   6.550 -1.0875 -2.6086 -1.9930
    6SAPS  H11B  677   3.200   2.879   6.708  0.7007  0.5616 -1.7831
    6SAPS     P  678   2.895   3.011   6.591  0.2765  0.6177 -0.7257
    6SAPS   O13  679   2.782   2.913   6.608  0.1515  0.1453  0.4363
    6SAPS   O14  680   2.871   3.152   6.635 -0.5486  0.1075  0.0117
    6SAPS   O12  681   3.012   2.961   6.679 -0.1669  0.4977 -0.0814
    6SAPS   O11  682   2.949   3.009   6.444  0.3600  0.0134  0.2363
    6SAPS    C1  683   2.858   3.055   6.337 -0.5338 -0.0410 -0.4410
    6SAPS    HA  684   2.768   2.990   6.330  1.4004 -3.3128  1.9390
    6SAPS    HB  685   2.821   3.159   6.351 -2.7236 -0.6419 -1.2941
    6SAPS    C2  686   2.926   3.071   6.198  0.8017 -0.0363  0.0052
    6SAPS    HS  687   2.847   3.115   6.133  1.4009  0.1616 -0.6057
    6SAPS   O21  688   2.951   2.934   6.164 -0.3699 -0.4623 -0.3715
    6SAPS   C21  689   2.949   2.920   6.029  0.4343 -0.7636 -0.0658
    6SAPS   O22  690   2.931   3.012   5.949  0.1369  0.4821  0.2372
    6SAPS   C22  691   2.998   2.777   5.997  0.3832 -0.1521  0.9672
    6SAPS   H2R  692   3.036   2.781   5.892 -2.0117  0.2646  0.0470
    6SAPS   H2S  693   3.085   2.754   6.062  2.8292 -0.0622 -1.9937
    6SAPS    C3  694   3.051   3.159   6.213 -0.0457  0.3558 -0.2367
    6SAPS    HX  695   3.113   3.109   6.290 -1.5676 -0.2401  0.6406
    6SAPS    HY  696   3.020   3.255   6.260 -2.5402  1.0529 -3.0033
    6SAPS   O31  697   3.118   3.194   6.083  0.4030 -0.1557  0.1920
    6SAPS   C31  698   3.221   3.120   6.048 -0.4180 -0.1176  1.0208
    6SAPS   O32  699   3.278   3.042   6.129  0.3165 -0.0529  0.3415
    6SAPS   C32  700   3.282   3.162   5.904  0.0237  0.0280 -1.2398
    6SAPS   H2X  701   3.391   3.165   5.924 -0.2039 -0.2483  0.1539
    6SAPS   H2Y  702   3.248   3.267   5.897  0.9059  0.4479  0.2088
    6SAPS   C23  703   2.880   2.672   6.009  0.0596 -0.0234  0.9830
    6SAPS   H3R  704   2.828   2.691   6.106  0.0428 -1.0859  1.1907
    6SAPS   H3S  705   2.921   2.569   6.001  1.5480  0.6049  0.1133
    6SAPS   C24  706   2.779   2.681   5.894  0.4363  0.0031 -0.1076
    6SAPS   H4R  707   2.718   2.774   5.904  0.6766  0.2306 -0.7117
    6SAPS   H4S  708   2.713   2.596   5.922  0.0027  0.0875 -0.8441
    6SAPS   C25  709   2.837   2.645   5.755  0.4183  0.2093  0.2796
    6SAPS   H5R  710   2.896   2.552   5.754 -1.2346 -0.9044 -1.8530
    6SAPS   C26  711   2.834   2.720   5.640  0.0400 -0.0079  0.1880
    6SAPS   H6R  712   2.880   2.675   5.550 -1.9828 -3.4157  0.6909
    6SAPS   C27  713   2.783   2.858   5.625 -0.2461  0.0395 -0.4728
    6SAPS   H7R  714   2.751   2.902   5.722 -1.3771 -1.8134  0.0480
    6SAPS   H7S  715   2.686   2.857   5.570 -0.0401 -1.7253 -0.8527
    6SAPS   C28  716   2.889   2.935   5.546  0.2023  0.1375 -0.3810
    6SAPS   H8R  717   2.989   2.944   5.590  0.7371 -1.6700 -1.1460
    6SAPS   C29  718   2.879   2.978   5.418 -0.1359 -0.2059  0.1661
    6SAPS   H9R  719   2.965   3.024   5.368  0.0670 -0.2133  0.5086
    6SAPS  C210  720   2.757   2.983   5.327  0.1638  0.3967 -0.1111
    6SAPS  H10R  721   2.776   3.074   5.265  0.7748 -1.2418 -2.4725
    6SAPS  H10S  722   2.662   3.002   5.381 -0.0986  1.9106 -1.0467
    6SAPS  C211  723   2.726   2.865   5.237  0.1165 -0.3717 -0.3169
    6SAPS  H11R  724   2.684   2.776   5.286  1.1578 -0.3078  0.7361
    6SAPS  C212  725   2.738   2.859   5.102 -0.1419 -0.0499  0.4785
    6SAPS  H12R  726   2.713   2.764   5.053 -0.7959 -0.9884  2.5076
    6SAPS  C213  727   2.797   2.966   5.011  0.1773  0.2054 -0.4775
    6SAPS  H13R  728   2.855   2.917   4.930 -1.5605 -0.5220 -1.3367
    6SAPS  H13S  729   2.856   3.040   5.069 -1.8741  1.2556  0.3800
    6SAPS  C214  730   2.686   3.039   4.940  0.1800  0.4312 -0.1505
    6SAPS  H14R  731   2.592   3.042   4.996 -0.0917 -1.2420 -0.4716
    6SAPS  C215  732   2.692   3.092   4.817  0.0151  0.4430  0.0700
    6SAPS  H15R  733   2.612   3.151   4.770 -0.0633 -0.0781 -0.4650
    6SAPS  C216  734   2.819   3.108   4.738  0.5303 -0.1525  0.3676
    6SAPS  H16R  735   2.908   3.057   4.780 -0.7155 -2.5117  0.3026
    6SAPS  H16S  736   2.846   3.216   4.742  0.6468 -0.0134 -2.1998
    6SAPS  C217  737   2.797   3.081   4.587 -0.6541 -0.0880 -0.3628
    6SAPS  H17R  738   2.706   3.134   4.550 -0.2320  0.0751 -1.1759
    6SAPS  H17S  739   2.778   2.971   4.585 -0.6363 -0.1021  0.0307
    6SAPS  C218  740   2.918   3.120   4.502  0.1480 -0.0494  0.2926
    6SAPS  H18R  741   3.009   3.059   4.523 -0.2928 -0.8573 -0.1228
    6SAPS  H18S  742   2.942   3.228   4.514 -0.3120  0.0149  0.6934
    6SAPS  C219  743   2.885   3.108   4.360 -0.4326  0.9491  0.1817
    6SAPS  H19R  744   2.812   3.186   4.329 -0.1666  0.5187 -1.6428
    6SAPS  H19S  745   2.846   3.006   4.336  0.5371  0.9580 -1.5834
    6SAPS  C220  746   3.007   3.121   4.260  0.2611 -0.0822  0.0797
    6SAPS  H20R  747   3.056   3.219   4.276  0.3112 -0.0622 -0.1857
    6SAPS  H20S  748   2.970   3.115   4.155 -1.1396  1.2184  0.4759
    6SAPS  H20T  749   3.082   3.042   4.282  2.4088  2.1322  1.2512
    6SAPS   C33  750   3.241   3.070   5.788  0.5167 -0.0629 -0.0321
    6SAPS   H3X  751   3.130   3.075   5.781  0.2498 -1.3286  2.2740
    6SAPS   H3Y  752   3.251   2.963   5.816 -0.3811 -0.1198  0.0932
    6SAPS   C34  753   3.311   3.101   5.654 -0.3685  0.0396 -0.6599
    6SAPS   H4X  754   3.421   3.092   5.668  0.0773  4.2260 -0.3126
    6SAPS   H4Y  755   3.303   3.208   5.627  2.5997  0.8379  1.1951
    6SAPS   C35  756   3.262   3.010   5.540  0.1450  0.1129  0.5873
    6SAPS   H5X  757   3.158   3.033   5.510 -0.5371 -1.4972  1.5863
    6SAPS   H5Y  758   3.267   2.903   5.566 -0.6585  0.6776  3.4037
    6SAPS   C36  759   3.338   3.047   5.408 -0.5187 -0.8983  0.8647
    6SAPS   H6X  760   3.445   3.030   5.430 -0.3894  0.6761  1.5988
    6SAPS   H6Y  761   3.313   3.153   5.387  1.5663 -0.7207 -1.0982
    6SAPS   C37  762   3.303   2.964   5.287 -0.8379 -0.9925 -0.1871
    6SAPS   H7X  763   3.192   2.964   5.293 -0.7543 -0.1649  4.6406
    6SAPS   H7Y  764   3.348   2.863   5.298 -1.0489 -0.8672  2.1800
    6SAPS   C38  765   3.351   3.043   5.164 -0.0164  0.7770 -0.1859
    6SAPS   H8X  766   3.461   3.036   5.155  0.0430  1.0396  0.3179
    6SAPS   H8Y  767   3.328   3.151   5.173 -0.7964  0.5134  1.5057
    6SAPS   C39  768   3.317   2.974   5.031 -0.2129  0.0664  0.3983
    6SAPS   H9X  769   3.208   2.956   5.041 -0.1669 -1.8161 -1.7588
    6SAPS   H9Y  770   3.367   2.875   5.032 -0.1745  0.0759 -0.1204
    6SAPS  C310  771   3.352   3.057   4.907 -0.0418 -1.5590 -0.3048
    6SAPS  H10X  772   3.463   3.060   4.906 -0.0036  0.6815  1.6455
    6SAPS  H10Y  773   3.338   3.167   4.909 -1.8004 -1.7388 -0.7695
    6SAPS  C311  774   3.285   3.001   4.777  0.5914  0.0489  0.0795
    6SAPS  H11X  775   3.174   3.013   4.774  0.1777 -3.0119 -1.6224
    6SAPS  H11Y  776   3.296   2.890   4.782 -1.4357 -0.1715  0.6226
    6SAPS  C312  777   3.351   3.070   4.661  0.1284  0.3916  0.1499
    6SAPS  H12X  778   3.461   3.061   4.660 -0.0101 -2.6101  1.6992
    6SAPS  H12Y  779   3.321   3.177   4.660 -2.9173 -0.3399  1.0592
    6SAPS  C313  780   3.320   2.989   4.533 -0.2136 -0.5248  0.1178
    6SAPS  H13X  781   3.209   2.984   4.528 -0.4552  0.7060  2.8498
    6SAPS  H13Y  782   3.355   2.883   4.539  0.1182 -0.3813  0.7597
    6SAPS  C314  783   3.370   3.042   4.400  0.3267  0.5092  0.3990
    6SAPS  H14X  784   3.468   3.092   4.407  0.7187 -0.3374  1.1176
    6SAPS  H14Y  785   3.294   3.120   4.374  1.2162  1.1968 -0.1899
    6SAPS  C315  786   3.368   2.938   4.290  0.6203 -0.5889  0.2112
    6SAPS  H15X  787   3.267   2.894   4.299 -0.9679  1.9961 -2.9031
    6SAPS  H15Y  788   3.457   2.875   4.315  1.1895  0.1407  0.0571
    6SAPS  C316  789   3.396   3.000   4.154  0.3398 -0.2627  0.1881
    6SAPS  H16X  790   3.313   3.068   4.122  0.3336  0.3422  1.4247
    6SAPS  H16Y  791   3.424   2.913   4.092  1.0614  0.3110 -0.3165
    6SAPS  C317  792   3.526   3.086   4.141  0.3603  0.5763  0.2590
    6SAPS  H17X  793   3.611   3.024   4.176 -0.7485 -1.1482  0.0555
    6SAPS  H17Y  794   3.509   3.169   4.212  2.1362  1.8033 -0.6806
    6SAPS  C318  795   3.552   3.132   4.001  0.1102 -0.2595  0.1356
    6SAPS  H18X  796   3.480   3.216   3.987  1.4610  0.8924 -0.1902
    6SAPS  H18Y  797   3.546   3.042   3.937  0.3463 -3.0047  3.6551
    6SAPS  H18Z  798   3.656   3.171   3.997 -0.0128  0.3238  1.6925
    7SAPS     N  799   6.203   5.236   6.669  0.1034  0.3390  0.3120
    7SAPS   HN1  800   6.178   5.249   6.769 -0.0890  0.2213  0.2792
    7SAPS   HN2  801   6.294   5.282   6.650 -0.5582  1.2420 -0.7889
    7SAPS   HN3  802   6.134   5.306   6.636  0.6521 -0.6948 -3.4762
    7SAPS   C12  803   6.217   5.100   6.599 -0.0876 -0.3034  0.4234
    7SAPS  H12A  804   6.220   5.129   6.495  0.9824  0.9707  0.7766
    7SAPS   C13  805   6.336   5.021   6.645  0.2047 -0.4548  0.4133
    7SAPS  O13A  806   6.426   5.064   6.723  0.7397  0.2674 -0.3134
    7SAPS  O13B  807   6.364   4.911   6.586  0.4080 -0.5341  0.3345
    7SAPS   C11  808   6.097   5.014   6.632  0.7866 -0.1687  0.4662
    7SAPS  H11A  809   6.085   5.017   6.742  2.5518 -1.7783  0.7493
    7SAPS  H11B  810   6.109   4.912   6.590  2.5949  1.7934 -4.4790
    7SAPS     P  811   5.840   5.020   6.585 -0.1474 -0.1717  0.0042
    7SAPS   O13  812   5.827   4.938   6.711 -0.3262  0.3787 -0.6953
    7SAPS   O14  813   5.743   5.134   6.573  0.0746  0.3599  0.1877
    7SAPS   O12  814   5.984   5.086   6.571 -0.3180 -0.3585  0.8643
    7SAPS   O11  815   5.834   4.920   6.464  1.0626 -0.1079  0.7100
    7SAPS    C1  816   5.753   4.941   6.347  0.4182  0.3027 -0.1211
    7SAPS    HA  817   5.646   4.954   6.373  0.0544 -0.8621 -0.9223
    7SAPS    HB  818   5.785   5.032   6.291  0.8203  0.6876  0.7086
    7SAPS    C2  819   5.765   4.823   6.248 -0.2213  0.5347  0.0929
    7SAPS    HS  820   5.732   4.743   6.317  2.0543 -0.5921 -0.0435
    7SAPS   O21  821   5.904   4.799   6.206  0.3765 -0.2307 -0.8702
    7SAPS   C21  822   5.929   4.675   6.184  0.3900  0.3410  0.4316
    7SAPS   O22  823   5.858   4.580   6.221  0.7000 -0.0439  0.0362
    7SAPS   C22  824   6.055   4.656   6.102  0.0077  0.4605  0.1432
    7SAPS   H2R  825   6.137   4.698   6.165  1.0242 -0.1713 -0.7181
    7SAPS   H2S  826   6.092   4.553   6.087  0.6006  0.6715  0.1197
    7SAPS    C3  827   5.673   4.854   6.128  0.5653  0.9933  0.1035
    7SAPS    HX  828   5.694   4.958   6.096 -2.2114  1.5884 -0.0730
    7SAPS    HY  829   5.564   4.857   6.151 -0.3546  0.7897 -3.6376
    7SAPS   O31  830   5.713   4.765   6.020  0.1693  0.1260  0.9832
    7SAPS   C31  831   5.608   4.683   5.981 -0.1285 -0.4222  0.5470
    7SAPS   O32  832   5.494   4.694   6.018 -0.5136  0.4975  0.1130
    7SAPS   C32  833   5.667   4.562   5.913  0.3126  0.3767  0.3302
    7SAPS   H2X  834   5.602   4.474   5.932 -0.5563  0.9853  0.2365
    7SAPS   H2Y  835   5.762   4.537   5.965 -0.0117 -1.7930 -0.0341
    7SAPS   C23  836   6.062   4.745   5.970  0.4180 -0.7649 -0.5160
    7SAPS   H3R  837   6.026   4.848   5.993 -0.4685 -0.8411 -1.4879
    7SAPS   H3S  838   5.985   4.693   5.908  2.4824 -1.8745 -2.3085
    7SAPS   C24  839   6.193   4.743   5.891  0.1819 -0.1862 -0.2399
    7SAPS   H4R  840   6.187   4.792   5.791  3.8223  2.1542  0.4827
    7SAPS   H4S  841   6.209   4.635   5.871  0.4472  0.0258 -1.2690
    7SAPS   C25  842   6.310   4.826   5.959 -0.4799  0.5064 -0.6053
    7SAPS   H5R  843   6.327   4.793   6.063 -0.8058  0.1520 -0.6596
    7SAPS   C26  844   6.399   4.917   5.902  0.5270 -0.8747 -0.7092
    7SAPS   H6R  845   6.471   4.975   5.962 -2.3476  0.2053  1.9272
    7SAPS   C27  846   6.411   4.953   5.756  0.3753  0.2902 -0.5210
    7SAPS   H7R  847   6.343   4.896   5.690 -0.0773  0.8685 -0.5625
    7SAPS   H7S  848   6.514   4.922   5.729  0.8407  0.2035  1.2011
    7SAPS   C28  849   6.401   5.101   5.721  0.2406  0.7699 -0.1736
    7SAPS   H8R  850   6.385   5.172   5.804  1.0547  2.6326 -1.5619
    7SAPS   C29  851   6.417   5.148   5.593 -0.4615 -0.3528  0.1256
    7SAPS   H9R  852   6.431   5.256   5.581 -1.7566  0.0456  1.7733
    7SAPS  C210  853   6.442   5.061   5.468  0.1408 -0.1782 -0.9185
    7SAPS  H10R  854   6.502   4.969   5.484 -1.0609 -1.0801 -1.5108
    7SAPS  H10S  855   6.491   5.127   5.393  2.2830 -1.4377 -0.7128
    7SAPS  C211  856   6.315   5.012   5.394 -0.0172  0.1354  1.3865
    7SAPS  H11R  857   6.221   5.012   5.452 -0.6865  1.0245  0.3475
    7SAPS  C212  858   6.303   4.978   5.265  0.3704 -0.2155  0.4060
    7SAPS  H12R  859   6.205   4.938   5.235  1.2912 -1.1401 -1.5457
    7SAPS  C213  860   6.415   4.979   5.169 -0.0614 -0.2151  0.3764
    7SAPS  H13R  861   6.484   4.896   5.197  1.4181  1.3713  1.6993
    7SAPS  H13S  862   6.477   5.070   5.187  0.2150 -0.6644  1.8379
    7SAPS  C214  863   6.379   4.958   5.021 -0.2919  0.6993  0.0911
    7SAPS  H14R  864   6.318   4.868   5.003  2.1827 -0.7641 -1.5965
    7SAPS  C215  865   6.406   5.048   4.920 -0.9894  0.7098 -0.7205
    7SAPS  H15R  866   6.373   5.015   4.821  0.8902 -1.9327 -0.5720
    7SAPS  C216  867   6.497   5.179   4.926  0.7543 -0.3576  0.1495
    7SAPS  H16R  868   6.487   5.226   5.026 -1.7487  1.4734 -0.8455
    7SAPS  H16S  869   6.441   5.252   4.864  3.8708  0.9896 -1.2775
    7SAPS  C217  870   6.637   5.166   4.878 -0.7446  0.1292 -0.0545
    7SAPS  H17R  871   6.634   5.097   4.792 -0.0744 -1.4401  1.1221
    7SAPS  H17S  872   6.705   5.125   4.956 -0.1500 -0.0819 -0.6733
    7SAPS  C218  873   6.706   5.299   4.835  0.3616 -0.0964  0.1843
    7SAPS  H18R  874   6.721   5.366   4.923  2.4423  0.5902 -0.6302
    7SAPS  H18S  875   6.640   5.342   4.756  0.4971  0.3986  0.3386
    7SAPS  C219  876   6.841   5.266   4.772  0.0764 -0.6390  0.1844
    7SAPS  H19R  877   6.824   5.189   4.694  0.3798 -0.0781 -0.4533
    7SAPS  H19S  878   6.917   5.236   4.847 -1.0610  0.0364  1.6577
    7SAPS  C220  879   6.903   5.389   4.699 -0.4222  0.1343  0.1366
    7SAPS  H20R  880   6.827   5.425   4.626  1.0689  2.9560 -0.1719
    7SAPS  H20S  881   7.005   5.366   4.660 -1.0305 -0.1228 -1.3874
    7SAPS  H20T  882   6.914   5.474   4.770 -1.4019 -0.9031  1.5736
    7SAPS   C33  883   5.690   4.577   5.759  0.5192 -0.0102 -0.2636
    7SAPS   H3X  884   5.729   4.483   5.714  1.4359  0.1976  0.0685
    7SAPS   H3Y  885   5.773   4.650   5.753 -0.2074  0.7301 -1.5676
    7SAPS   C34  886   5.557   4.617   5.690 -0.5383 -0.0644 -0.3804
    7SAPS   H4X  887   5.525   4.718   5.723 -1.5416 -0.0552 -1.3187
    7SAPS   H4Y  888   5.466   4.557   5.714  0.8693 -1.1885  2.6282
    7SAPS   C35  889   5.586   4.626   5.540  0.1536  0.3094  0.1305
    7SAPS   H5X  890   5.647   4.538   5.510  0.7866  0.1028  1.9323
    7SAPS   H5Y  891   5.652   4.712   5.516  0.7778 -0.6809 -1.9415
    7SAPS   C36  892   5.466   4.634   5.448  0.1365 -0.2763  1.1318
    7SAPS   H6X  893   5.452   4.728   5.390  0.4017 -1.6090 -1.2124
    7SAPS   H6Y  894   5.379   4.619   5.515  0.3818 -0.4508  1.4110
    7SAPS   C37  895   5.471   4.516   5.345  0.4228  0.3516 -0.2569
    7SAPS   H7X  896   5.455   4.420   5.397 -3.0530  0.9986  0.1556
    7SAPS   H7Y  897   5.573   4.518   5.303  0.8538  2.7315  0.7404
    7SAPS   C38  898   5.361   4.524   5.229  0.0037  0.9930  0.4356
    7SAPS   H8X  899   5.348   4.628   5.190 -0.5780  0.0390 -2.0943
    7SAPS   H8Y  900   5.261   4.496   5.270  0.5401 -1.8149 -0.0174
    7SAPS   C39  901   5.394   4.423   5.117 -0.5464 -0.9291 -0.5223
    7SAPS   H9X  902   5.343   4.334   5.163 -0.4323 -1.5357 -1.5442
    7SAPS   H9Y  903   5.504   4.414   5.111 -0.4456 -0.4306  0.3660
    7SAPS  C310  904   5.336   4.449   4.982 -0.1964  0.2040  0.0149
    7SAPS  H10X  905   5.360   4.553   4.951 -2.4156  0.4659 -0.9852
    7SAPS  H10Y  906   5.226   4.451   4.987 -0.2133  0.4969 -0.4334
    7SAPS  C311  907   5.381   4.347   4.874 -0.1061  0.0523 -0.0399
    7SAPS  H11X  908   5.492   4.337   4.874 -0.1837 -1.2808 -1.5531
    7SAPS  H11Y  909   5.346   4.361   4.769  1.3216  1.1808 -0.4091
    7SAPS  C312  910   5.338   4.202   4.918 -0.7610 -0.6565  0.6220
    7SAPS  H12X  911   5.228   4.205   4.928 -0.8036  2.0011  0.1739
    7SAPS  H12Y  912   5.393   4.170   5.009  0.8993 -1.2599 -0.5455
    7SAPS  C313  913   5.369   4.116   4.799  0.3878 -0.6033  0.0480
    7SAPS  H13X  914   5.399   4.014   4.830  1.9830 -0.7662 -1.7772
    7SAPS  H13Y  915   5.462   4.157   4.756  0.1496 -1.2818 -1.1887
    7SAPS  C314  916   5.251   4.109   4.700  0.4000  0.1944 -0.2895
    7SAPS  H14X  917   5.195   4.203   4.683 -0.4153  0.0139  1.2039
    7SAPS  H14Y  918   5.169   4.049   4.747  0.0798 -0.6077 -1.7801
    7SAPS  C315  919   5.286   4.030   4.572 -0.0961  0.2378 -0.1849
    7SAPS  H15X  920   5.289   3.919   4.582 -1.1671  0.1539 -0.6322
    7SAPS  H15Y  921   5.390   4.051   4.537  0.0470 -0.0576  0.0607
    7SAPS  C316  922   5.203   4.076   4.456  0.3338  0.0603  0.4406
    7SAPS  H16X  923   5.212   4.183   4.431  5.2464 -0.2841 -0.1924
    7SAPS  H16Y  924   5.099   4.054   4.489  0.6513 -3.8094 -0.5914
    7SAPS  C317  925   5.231   3.988   4.323  0.2686  0.4012 -0.5174
    7SAPS  H17X  926   5.147   4.003   4.252 -0.5591  1.4223  0.6185
    7SAPS  H17Y  927   5.234   3.888   4.371 -0.8876  0.6035  0.0151
    7SAPS  C318  928   5.363   3.998   4.255 -0.4859 -0.3481 -0.6657
    7SAPS  H18X  929   5.445   3.990   4.330  0.2396  0.7379 -1.3194
    7SAPS  H18Y  930   5.382   4.099   4.214  1.6571  0.3707  1.7760
    7SAPS  H18Z  931   5.384   3.912   4.189 -0.0722 -1.2259  0.5706
    8SAPS     N  932   5.546   5.939   6.700 -0.2758 -0.7402 -0.0509
    8SAPS   HN1  933   5.593   5.910   6.612  2.7027  1.2406  0.7326
    8SAPS   HN2  934   5.447   5.969   6.686 -0.2817 -0.6939  0.0845
    8SAPS   HN3  935   5.592   6.032   6.711 -0.1640 -0.7579 -0.3633
    8SAPS   C12  936   5.553   5.855   6.826 -0.1773 -0.1532 -0.3867
    8SAPS  H12A  937   5.654   5.824   6.847  0.2084 -0.4883 -2.5171
    8SAPS   C13  938   5.493   5.919   6.952 -0.3583 -0.3965  0.2241
    8SAPS  O13A  939   5.438   6.034   6.938  0.4152  0.4599  0.1239
    8SAPS  O13B  940   5.477   5.856   7.063  0.6033  0.4792  0.4767
    8SAPS   C11  941   5.460   5.729   6.812 -0.1504 -0.0388 -0.3129
    8SAPS  H11A  942   5.352   5.755   6.812 -0.6969 -2.0904  0.8691
    8SAPS  H11B  943   5.480   5.666   6.902  4.0229 -0.1908 -1.1664
    8SAPS     P  944   5.382   5.591   6.595  0.0881 -0.2347  0.1413
    8SAPS   O13  945   5.401   5.446   6.590  0.1928 -0.2168  0.1942
    8SAPS   O14  946   5.252   5.642   6.630  0.1788  0.0734 -0.0442
    8SAPS   O12  947   5.487   5.652   6.695 -0.6414  0.1272  0.3759
    8SAPS   O11  948   5.426   5.657   6.464 -0.2819 -0.1047 -0.0170
    8SAPS    C1  949   5.388   5.786   6.423 -0.2358  0.7238 -0.1042
    8SAPS    HA  950   5.389   5.859   6.508 -1.8464  1.6074 -0.7912
    8SAPS    HB  951   5.459   5.812   6.342 -0.0941  0.2398 -0.1366
    8SAPS    C2  952   5.241   5.786   6.359  0.1138  0.5512  0.2117
    8SAPS    HS  953   5.163   5.754   6.431 -1.2373 -0.0194 -1.4516
    8SAPS   O21  954   5.237   5.703   6.242 -0.9379  0.0165  0.3873
    8SAPS   C21  955   5.143   5.615   6.227  1.2962 -0.5624  0.2559
    8SAPS   O22  956   5.043   5.612   6.300 -0.6086  0.3957 -0.2905
    8SAPS   C22  957   5.179   5.526   6.102 -0.2034 -0.6587 -0.2629
    8SAPS   H2R  958   5.289   5.515   6.111 -0.0231 -0.2975 -1.7259
    8SAPS   H2S  959   5.132   5.429   6.128 -0.7551 -0.2483  0.2951
    8SAPS    C3  960   5.200   5.932   6.335  0.1966 -0.7357  0.0493
    8SAPS    HX  961   5.293   5.978   6.295 -0.4948 -0.8376 -1.7344
    8SAPS    HY  962   5.161   5.976   6.429 -0.2568  1.1450 -0.9609
    8SAPS   O31  963   5.105   5.945   6.227 -0.4705 -0.2755  0.2792
    8SAPS   C31  964   4.977   5.943   6.257 -0.0390  0.3236 -0.2072
    8SAPS   O32  965   4.935   5.917   6.370  0.6962 -0.1391  0.3160
    8SAPS   C32  966   4.890   5.951   6.129  0.1653 -0.6073  0.3815
    8SAPS   H2X  967   4.809   6.027   6.141  1.7913  1.1450  0.6731
    8SAPS   H2Y  968   4.836   5.854   6.140 -0.7691  0.0246  1.5481
    8SAPS   C23  969   5.115   5.582   5.981 -0.1098 -0.5749  0.5509
    8SAPS   H3R  970   5.152   5.686   5.968  0.6452 -0.8401  0.5405
    8SAPS   H3S  971   5.005   5.595   5.995 -0.3061  0.9662 -1.7853
    8SAPS   C24  972   5.132   5.491   5.853  0.3784 -0.3815 -0.0801
    8SAPS   H4R  973   5.088   5.393   5.884 -0.0353 -0.2507 -0.2518
    8SAPS   H4S  974   5.242   5.478   5.844  0.1662 -1.9386 -0.6760
    8SAPS   C25  975   5.073   5.559   5.736  0.4027  0.2291  0.2407
    8SAPS   H5R  976   5.008   5.643   5.764  0.7354  0.5908 -0.0576
    8SAPS   C26  977   5.101   5.537   5.605 -0.5485 -0.2057  0.3913
    8SAPS   H6R  978   5.050   5.595   5.527  0.7549  0.5901  0.1150
    8SAPS   C27  979   5.200   5.434   5.559 -0.4363  0.2617 -0.2224
    8SAPS   H7R  980   5.195   5.349   5.630 -3.3191  1.1753  0.7984
    8SAPS   H7S  981   5.302   5.477   5.571 -0.0911 -0.6026  0.0216
    8SAPS   C28  982   5.188   5.377   5.420 -0.9301 -0.3880 -0.5372
    8SAPS   H8R  983   5.088   5.336   5.401 -1.1944  0.4287 -0.9233
    8SAPS   C29  984   5.289   5.353   5.338 -0.0495  0.6938  1.3732
    8SAPS   H9R  985   5.266   5.294   5.248  0.4637 -0.7576  2.1640
    8SAPS  C210  986   5.436   5.380   5.365  0.3588 -0.3181 -0.0592
    8SAPS  H10R  987   5.447   5.369   5.476  0.8573 -0.0830 -0.0808
    8SAPS  H10S  988   5.465   5.483   5.337  1.7953 -0.2515  1.4390
    8SAPS  C211  989   5.533   5.278   5.308 -0.6880  0.5278  0.0799
    8SAPS  H11R  990   5.584   5.212   5.380 -1.2571 -0.2736 -0.2378
    8SAPS  C212  991   5.571   5.272   5.179  0.3904 -0.3058 -0.1806
    8SAPS  H12R  992   5.647   5.197   5.150  0.8990  0.0023  0.3440
    8SAPS  C213  993   5.524   5.370   5.073  0.3904  0.0122  0.1072
    8SAPS  H13R  994   5.431   5.426   5.098 -0.8256 -1.7606 -0.2194
    8SAPS  H13S  995   5.516   5.312   4.979  2.1050  0.4159 -0.3240
    8SAPS  C214  996   5.640   5.471   5.073  0.7224  0.1524  0.6369
    8SAPS  H14R  997   5.667   5.526   5.164 -1.0568  0.3743  1.0727
    8SAPS  C215  998   5.717   5.502   4.967  0.1029 -0.9232  0.5688
    8SAPS  H15R  999   5.809   5.558   4.986  0.5137 -1.4021  0.0132
    8SAPS  C216 1000   5.713   5.452   4.826 -0.5875  0.4367  0.5634
    8SAPS  H16R 1001   5.614   5.406   4.802 -1.1476  1.9300 -0.1739
    8SAPS  H16S 1002   5.798   5.382   4.820 -0.3153  0.3285  3.9069
    8SAPS  C217 1003   5.718   5.561   4.723  0.0709  1.0883  0.3116
    8SAPS  H17R 1004   5.804   5.631   4.727 -0.2165  1.4103  0.8392
    8SAPS  H17S 1005   5.631   5.620   4.756 -0.5292 -0.1203  0.9863
    8SAPS  C218 1006   5.684   5.513   4.584  0.4016 -0.6757  0.2128
    8SAPS  H18R 1007   5.648   5.593   4.515 -2.6930 -0.7971  1.4751
    8SAPS  H18S 1008   5.595   5.446   4.580 -0.5073  0.5197 -0.4859
    8SAPS  C219 1009   5.795   5.434   4.521  0.2485 -0.0638 -0.2263
    8SAPS  H19R 1010   5.815   5.340   4.576 -0.1432  0.3440  0.6238
    8SAPS  H19S 1011   5.889   5.493   4.512 -0.0999  0.3488 -1.3527
    8SAPS  C220 1012   5.762   5.395   4.375  0.0618  0.0381  0.9583
    8SAPS  H20R 1013   5.694   5.308   4.385 -0.5128  0.1224 -1.5565
    8SAPS  H20S 1014   5.856   5.367   4.321 -0.4688  0.8500 -0.4453
    8SAPS  H20T 1015   5.714   5.476   4.316 -0.5566 -1.1085 -0.1672
    8SAPS   C33 1016   4.969   5.949   5.988 -0.2078  0.0313  0.0121
    8SAPS   H3X 1017   5.051   5.874   5.992 -0.6820 -0.4506  1.1764
    8SAPS   H3Y 1018   5.021   6.048   5.988 -1.9914  1.0977  2.9752
    8SAPS   C34 1019   4.871   5.941   5.874  0.1609 -0.0894 -0.0731
    8SAPS   H4X 1020   4.803   6.027   5.892  1.9797  1.2707  0.6518
    8SAPS   H4Y 1021   4.826   5.840   5.877  0.6410 -0.2903  0.7548
    8SAPS   C35 1022   4.931   5.956   5.737  0.1575 -0.3878  0.5988
    8SAPS   H5X 1023   5.007   5.878   5.718 -2.3523 -3.0417  0.8598
    8SAPS   H5Y 1024   4.976   6.058   5.726 -1.1245  0.1712  0.4340
    8SAPS   C36 1025   4.824   5.949   5.623 -0.3129  0.6453  0.2401
    8SAPS   H6X 1026   4.756   6.035   5.642  0.8595  1.5901  0.3220
    8SAPS   H6Y 1027   4.766   5.857   5.646 -0.6360  0.8252  0.1470
    8SAPS   C37 1028   4.884   5.962   5.479  0.0474  0.5742  0.1711
    8SAPS   H7X 1029   4.962   6.040   5.492  1.4754 -1.0692  2.3203
    8SAPS   H7Y 1030   4.806   5.986   5.404 -1.8762  0.5802  2.0603
    8SAPS   C38 1031   4.950   5.830   5.442 -0.3928  0.1397 -0.0910
    8SAPS   H8X 1032   4.892   5.737   5.462 -0.8500  0.1421 -1.3203
    8SAPS   H8Y 1033   5.050   5.821   5.490  0.0126 -0.3953 -1.0006
    8SAPS   C39 1034   4.980   5.830   5.289 -0.0779 -0.2686 -0.4047
    8SAPS   H9X 1035   5.062   5.905   5.281  0.6346 -1.0877 -1.0789
    8SAPS   H9Y 1036   4.890   5.860   5.231 -0.3909  0.5865  0.4952
    8SAPS  C310 1037   5.032   5.696   5.242 -0.2821  0.2285 -1.2318
    8SAPS  H10X 1038   4.976   5.607   5.277  0.3321 -0.0589 -0.9688
    8SAPS  H10Y 1039   5.138   5.695   5.277 -0.6186  0.2490 -0.1756
    8SAPS  C311 1040   5.066   5.698   5.089  0.3160  0.6523 -0.2724
    8SAPS  H11X 1041   5.115   5.797   5.074 -0.9988  1.2656 -0.6667
    8SAPS  H11Y 1042   4.984   5.700   5.014  1.8724 -3.4177 -2.3327
    8SAPS  C312 1043   5.157   5.584   5.033  0.9683 -0.1100  0.2954
    8SAPS  H12X 1044   5.117   5.482   5.049 -0.7541  0.4796 -0.0249
    8SAPS  H12Y 1045   5.247   5.596   5.097 -0.1921  2.6228  1.5675
    8SAPS  C313 1046   5.185   5.602   4.886  0.2258 -0.0841 -0.2715
    8SAPS  H13X 1047   5.089   5.618   4.833  1.0046  3.1016 -0.9149
    8SAPS  H13Y 1048   5.241   5.520   4.837  0.1389 -0.9796  1.0817
    8SAPS  C314 1049   5.278   5.727   4.864 -0.3203 -0.2504  1.0830
    8SAPS  H14X 1050   5.373   5.726   4.920  0.4727 -1.3981 -0.2171
    8SAPS  H14Y 1051   5.218   5.818   4.887 -1.0355 -0.5097  0.3158
    8SAPS  C315 1052   5.315   5.744   4.719 -0.0221 -0.3879 -0.3303
    8SAPS  H15X 1053   5.226   5.773   4.659 -0.1927 -0.5333 -0.1472
    8SAPS  H15Y 1054   5.356   5.652   4.672  1.2091  0.3160 -0.6798
    8SAPS  C316 1055   5.426   5.855   4.701 -0.2394  0.1099 -0.0811
    8SAPS  H16X 1056   5.529   5.828   4.732 -0.5381 -0.5831  0.3205
    8SAPS  H16Y 1057   5.389   5.950   4.747 -0.7179  0.6691 -1.5608
    8SAPS  C317 1058   5.458   5.883   4.548 -0.3560  0.7205  0.1857
    8SAPS  H17X 1059   5.358   5.891   4.501  0.1087  0.3745 -0.8754
    8SAPS  H17Y 1060   5.508   5.795   4.502  1.1340  1.7348 -0.2091
    8SAPS  C318 1061   5.539   6.015   4.518 -0.4978 -0.0162 -0.5251
    8SAPS  H18X 1062   5.482   6.104   4.553  0.6884  1.3896 -2.0464
    8SAPS  H18Y 1063   5.552   6.023   4.408  0.1662  3.7672 -0.2901
    8SAPS  H18Z 1064   5.641   6.014   4.562 -1.4761 -0.3391  1.9018
    9SAPS     N 1065   1.305   4.736   7.163 -0.9293  0.4917  0.2946
    9SAPS   HN1 1066   1.257   4.777   7.246 -0.3878  0.9713  0.3787
    9SAPS   HN2 1067   1.278   4.778   7.072  2.4355 -1.0367 -1.6331
    9SAPS   HN3 1068   1.284   4.634   7.158  0.4192  0.1877  0.3428
    9SAPS   C12 1069   1.452   4.758   7.164  0.1019 -0.0927  0.9599
    9SAPS  H12A 1070   1.472   4.858   7.199  0.3762  0.2165 -0.0372
    9SAPS   C13 1071   1.518   4.648   7.254 -0.9921  0.2196 -0.3308
    9SAPS  O13A 1072   1.448   4.548   7.281  0.5800 -0.6304 -0.4802
    9SAPS  O13B 1073   1.637   4.661   7.291  0.1667 -0.1831  0.3742
    9SAPS   C11 1074   1.507   4.757   7.020  0.6559  0.5417  0.4670
    9SAPS  H11A 1075   1.530   4.653   6.989 -1.1208  0.5787 -1.1478
    9SAPS  H11B 1076   1.604   4.811   7.029 -0.9198  3.7928 -0.3594
    9SAPS     P 1077   1.479   4.961   6.855 -0.3146  0.2422 -0.2170
    9SAPS   O13 1078   1.376   5.062   6.834  0.2201 -0.2005  0.0894
    9SAPS   O14 1079   1.594   5.011   6.933  0.0399 -0.1718  0.1191
    9SAPS   O12 1080   1.425   4.819   6.918 -0.3151 -0.6520  0.2594
    9SAPS   O11 1081   1.536   4.916   6.714  0.0186  0.6853  0.0477
    9SAPS    C1 1082   1.645   4.827   6.695 -0.4719  0.1149  1.0169
    9SAPS    HA 1083   1.719   4.828   6.778 -1.8045 -0.3361  2.2670
    9SAPS    HB 1084   1.603   4.725   6.681 -1.0955  0.4013  0.7764
    9SAPS    C2 1085   1.730   4.864   6.566  0.2335  0.3336  0.3615
    9SAPS    HS 1086   1.759   4.969   6.587  0.9719 -0.2485  2.4266
    9SAPS   O21 1087   1.649   4.850   6.450  0.2831 -0.1197  0.5531
    9SAPS   C21 1088   1.655   4.945   6.360  0.2274 -0.3977  0.5463
    9SAPS   O22 1089   1.722   5.048   6.377 -0.1573  0.3269 -0.0353
    9SAPS   C22 1090   1.556   4.930   6.242 -0.0380 -0.0533  0.2820
    9SAPS   H2R 1091   1.519   4.826   6.255  1.0193 -0.8054 -2.0163
    9SAPS   H2S 1092   1.470   4.997   6.266 -0.5164 -0.5684  0.0194
    9SAPS    C3 1093   1.845   4.768   6.535  0.4565  0.2214  0.4927
    9SAPS    HX 1094   1.817   4.667   6.498  1.7322 -0.1044  0.3887
    9SAPS    HY 1095   1.905   4.753   6.627 -0.4513 -0.4368  1.0028
    9SAPS   O31 1096   1.920   4.807   6.423  0.3099  0.0853 -0.0689
    9SAPS   C31 1097   1.998   4.906   6.442  0.5956 -0.3023  0.0640
    9SAPS   O32 1098   2.014   4.963   6.550 -0.1963  0.0877  0.2554
    9SAPS   C32 1099   2.049   4.950   6.308 -0.3817 -0.0561  0.8147
    9SAPS   H2X 1100   1.969   5.005   6.256  0.8195  2.3103  1.3383
    9SAPS   H2Y 1101   2.083   4.858   6.256  1.2622  2.2091 -2.4625
    9SAPS   C23 1102   1.618   4.972   6.099 -0.1891  0.5027  1.2261
    9SAPS   H3R 1103   1.713   4.918   6.078 -1.0520 -0.2067 -1.2306
    9SAPS   H3S 1104   1.637   5.081   6.095  0.0314  0.4244 -0.7663
    9SAPS   C24 1105   1.539   4.931   5.976  0.9071 -0.1676 -0.0585
    9SAPS   H4R 1106   1.441   4.985   5.976  0.5513 -0.8036  0.4737
    9SAPS   H4S 1107   1.506   4.825   5.977  0.5423 -0.0991 -1.6610
    9SAPS   C25 1108   1.612   4.949   5.840  0.5941  0.1759 -0.7657
    9SAPS   H5R 1109   1.720   4.946   5.857  0.0381 -1.8696  3.8206
    9SAPS   C26 1110   1.553   4.954   5.718 -0.0842  0.0355  0.3882
    9SAPS   H6R 1111   1.619   4.957   5.629  1.1669  2.3150  1.3014
    9SAPS   C27 1112   1.408   4.951   5.687  1.0198 -0.3469  0.1750
    9SAPS   H7R 1113   1.338   4.929   5.770  0.9808 -3.3718 -0.5430
    9SAPS   H7S 1114   1.384   4.870   5.614  0.4238 -1.5143  1.6057
    9SAPS   C28 1115   1.377   5.081   5.630 -1.0512  0.2132 -0.1870
    9SAPS   H8R 1116   1.331   5.156   5.695 -2.3792 -1.1128  0.4832
    9SAPS   C29 1117   1.384   5.109   5.497  0.6675  0.6683 -0.0596
    9SAPS   H9R 1118   1.362   5.212   5.466  0.1906  1.0493  1.4547
    9SAPS  C210 1119   1.434   5.015   5.387  0.5251 -0.3975 -0.5810
    9SAPS  H10R 1120   1.355   4.941   5.364  0.0001  0.2616 -0.9482
    9SAPS  H10S 1121   1.516   4.958   5.436  0.8382  2.6413  2.9096
    9SAPS  C211 1122   1.474   5.081   5.259 -0.2032 -0.1073  0.6598
    9SAPS  H11R 1123   1.507   5.186   5.270 -3.0941  1.2231 -1.8011
    9SAPS  C212 1124   1.513   5.020   5.148  0.1665  0.0728  0.0070
    9SAPS  H12R 1125   1.543   5.075   5.058  1.6720 -0.7206 -0.0094
    9SAPS  C213 1126   1.520   4.873   5.118 -0.7144 -0.2263  0.3566
    9SAPS  H13R 1127   1.429   4.840   5.064  0.0548 -0.3119 -0.9452
    9SAPS  H13S 1128   1.517   4.815   5.213  0.8238 -2.1554 -0.6850
    9SAPS  C214 1129   1.640   4.836   5.038  0.2970 -0.7211  0.4165
    9SAPS  H14R 1130   1.608   4.803   4.938 -0.2478 -1.2394  0.7524
    9SAPS  C215 1131   1.759   4.807   5.086  0.6858 -0.1176 -0.3248
    9SAPS  H15R 1132   1.831   4.781   5.008  0.9765 -0.3624  0.0235
    9SAPS  C216 1133   1.812   4.849   5.222 -0.1760 -0.2435 -0.1079
    9SAPS  H16R 1134   1.741   4.913   5.278 -0.0944 -1.1916  1.1183
    9SAPS  H16S 1135   1.900   4.911   5.197 -0.6534  0.3438 -0.3466
    9SAPS  C217 1136   1.864   4.733   5.312  0.5034  0.4533  0.1620
    9SAPS  H17R 1137   1.779   4.669   5.347  0.3154  1.4033  1.5365
    9SAPS  H17S 1138   1.916   4.765   5.404 -0.6831 -0.7764  1.3146
    9SAPS  C218 1139   1.954   4.635   5.236 -0.0256  0.0134  0.9428
    9SAPS  H18R 1140   2.028   4.701   5.188  0.4326 -0.4560  1.0001
    9SAPS  H18S 1141   1.900   4.585   5.153  0.9726  0.3003  0.1128
    9SAPS  C219 1142   2.013   4.521   5.310 -0.0871 -0.3551 -0.0276
    9SAPS  H19R 1143   2.043   4.565   5.407 -3.9759 -0.2777  1.3538
    9SAPS  H19S 1144   2.089   4.455   5.264 -0.9290 -1.3339 -0.0653
    9SAPS  C220 1145   1.892   4.429   5.344 -0.3318 -0.3294  0.2363
    9SAPS  H20R 1146   1.930   4.339   5.397 -0.5840 -0.4640  0.1920
    9SAPS  H20S 1147   1.844   4.379   5.257  1.9041 -1.0903 -0.6336
    9SAPS  H20T 1148   1.819   4.476   5.413 -1.1363 -1.6650  0.3290
    9SAPS   C33 1149   2.168   5.054   6.313 -0.5020  0.3370 -0.5599
    9SAPS   H3X 1150   2.264   5.013   6.352 -0.3950  0.1431 -1.0170
    9SAPS   H3Y 1151   2.130   5.136   6.378 -2.4717 -1.1817  0.3107
    9SAPS   C34 1152   2.196   5.099   6.171  0.3972 -0.2525 -0.2505
    9SAPS   H4X 1153   2.216   5.208   6.166 -2.0240  0.2397 -0.4180
    9SAPS   H4Y 1154   2.109   5.070   6.109 -0.2534 -0.1899  0.5983
    9SAPS   C35 1155   2.317   5.019   6.116 -0.1861  0.4414 -0.0028
    9SAPS   H5X 1156   2.281   4.914   6.122 -2.8038  1.3277  1.0092
    9SAPS   H5Y 1157   2.409   5.044   6.173 -1.2582  0.4966  1.7783
    9SAPS   C36 1158   2.352   5.031   5.963  0.7545 -0.8273 -0.5203
    9SAPS   H6X 1159   2.265   4.996   5.904  0.6566 -0.7027 -0.4503
    9SAPS   H6Y 1160   2.437   4.971   5.923 -0.0730 -1.9368 -0.6580
    9SAPS   C37 1161   2.359   5.187   5.934 -0.2510 -0.7012  1.0610
    9SAPS   H7X 1162   2.411   5.238   6.018 -0.9485 -0.4373  1.3495
    9SAPS   H7Y 1163   2.258   5.233   5.939  1.2841  2.8486  2.4693
    9SAPS   C38 1164   2.409   5.233   5.801 -0.6211  0.5831 -0.2050
    9SAPS   H8X 1165   2.412   5.343   5.786 -0.0419  0.5813 -0.1217
    9SAPS   H8Y 1166   2.342   5.192   5.722 -2.1618  2.0854  0.2653
    9SAPS   C39 1167   2.552   5.173   5.770 -0.6499  0.7493  0.0876
    9SAPS   H9X 1168   2.561   5.064   5.786  2.1817  0.8474 -0.2928
    9SAPS   H9Y 1169   2.619   5.211   5.850 -0.9650  0.0591  0.6826
    9SAPS  C310 1170   2.618   5.215   5.640  0.8950 -0.2488  0.1175
    9SAPS  H10X 1171   2.579   5.317   5.619  0.0554 -0.7974 -1.1283
    9SAPS  H10Y 1172   2.574   5.146   5.564 -1.6638 -0.2496  1.4715
    9SAPS  C311 1173   2.769   5.212   5.648 -0.4397  0.3474 -0.3976
    9SAPS  H11X 1174   2.810   5.108   5.649 -1.3426 -0.0377  1.9075
    9SAPS  H11Y 1175   2.799   5.255   5.746 -0.9264 -1.1072  0.4193
    9SAPS  C312 1176   2.837   5.303   5.548 -0.4750  0.0984  0.1065
    9SAPS  H12X 1177   2.941   5.295   5.585 -1.0698 -0.0390  1.8064
    9SAPS  H12Y 1178   2.803   5.408   5.560  0.3058  0.4533 -0.6391
    9SAPS  C313 1179   2.816   5.267   5.399 -0.0597 -0.5303 -0.0519
    9SAPS  H13X 1180   2.705   5.266   5.386 -0.3260 -1.0615  1.8547
    9SAPS  H13Y 1181   2.847   5.161   5.386  0.9779 -0.1742 -0.5941
    9SAPS  C314 1182   2.881   5.354   5.297  0.3541  0.2075  0.2369
    9SAPS  H14X 1183   2.878   5.455   5.343  0.5325  0.0253  0.6592
    9SAPS  H14Y 1184   2.820   5.355   5.204 -0.4795 -1.1501  0.7515
    9SAPS  C315 1185   3.030   5.312   5.267  0.4013 -0.2499  0.7181
    9SAPS  H15X 1186   3.020   5.228   5.196  0.9226  1.5870 -1.6759
    9SAPS  H15Y 1187   3.083   5.291   5.362  0.3701 -0.1193  0.7653
    9SAPS  C316 1188   3.116   5.410   5.186 -0.3854  0.4264 -0.3032
    9SAPS  H16X 1189   3.218   5.368   5.180 -0.1635 -0.5922  5.2955
    9SAPS  H16Y 1190   3.134   5.505   5.241 -0.1677 -0.4821  1.2444
    9SAPS  C317 1191   3.054   5.444   5.045 -0.4123  0.8276  0.0376
    9SAPS  H17X 1192   2.988   5.533   5.047 -0.4805  0.8056 -1.0299
    9SAPS  H17Y 1193   2.995   5.358   5.007  0.1969  0.8132 -0.8997
    9SAPS  C318 1194   3.158   5.469   4.940 -0.5366 -0.0167  0.2287
    9SAPS  H18X 1195   3.113   5.484   4.839 -1.2711 -0.5957  0.4556
    9SAPS  H18Y 1196   3.227   5.383   4.953  0.1947  0.9310  3.6016
    9SAPS  H18Z 1197   3.217   5.557   4.973  0.0208 -0.9528  1.8146
   10SAPS     N 1198   3.500   4.181   6.621  0.2121  0.2612 -0.2690
   10SAPS   HN1 1199   3.452   4.268   6.590 -1.6913 -0.6304 -0.0149
   10SAPS   HN2 1200   3.549   4.145   6.537  1.8541 -0.6645  1.0265
   10SAPS   HN3 1201   3.427   4.110   6.644  0.3319 -0.3623 -1.7131
   10SAPS   C12 1202   3.579   4.196   6.743  0.3752 -0.3590  0.2589
   10SAPS  H12A 1203   3.667   4.256   6.726 -1.1115  2.4316  1.6803
   10SAPS   C13 1204   3.505   4.273   6.849  1.0782  0.0410  0.5664
   10SAPS  O13A 1205   3.383   4.309   6.842 -0.0982  0.2403 -0.7782
   10SAPS  O13B 1206   3.564   4.286   6.958 -0.1906  0.0750  0.1070
   10SAPS   C11 1207   3.606   4.057   6.813  0.1879  0.0006 -1.0393
   10SAPS  H11A 1208   3.504   4.023   6.839 -0.1107  1.7020  0.1487
   10SAPS  H11B 1209   3.664   4.084   6.905 -2.1120  2.8268 -0.2661
   10SAPS     P 1210   3.686   3.811   6.793 -0.7348  0.4912 -0.0050
   10SAPS   O13 1211   3.830   3.805   6.829  0.2644 -0.5830 -0.0341
   10SAPS   O14 1212   3.587   3.791   6.895 -0.0674 -0.5137 -0.3985
   10SAPS   O12 1213   3.674   3.960   6.739 -0.6547 -0.1831  0.5149
   10SAPS   O11 1214   3.662   3.706   6.681 -0.3508 -0.1081 -0.0216
   10SAPS    C1 1215   3.557   3.716   6.586  0.2740 -0.3971  0.1624
   10SAPS    HA 1216   3.511   3.615   6.574 -0.7111  0.0466  0.1181
   10SAPS    HB 1217   3.490   3.800   6.613  0.4759 -0.1679 -0.0510
   10SAPS    C2 1218   3.612   3.750   6.444  0.4647 -0.3834  0.8256
   10SAPS    HS 1219   3.696   3.823   6.444 -0.8893  1.2595 -0.7410
   10SAPS   O21 1220   3.501   3.791   6.362  0.1776  0.4546  0.2621
   10SAPS   C21 1221   3.475   3.918   6.373 -0.1808 -0.3032  0.4655
   10SAPS   O22 1222   3.538   3.999   6.445  0.7673  0.6706  0.3496
   10SAPS   C22 1223   3.358   3.958   6.279 -0.4882  0.8751  0.0567
   10SAPS   H2R 1224   3.382   3.958   6.170  0.6015  2.3239  0.2622
   10SAPS   H2S 1225   3.273   3.893   6.306  0.0985  0.5096  1.0664
   10SAPS    C3 1226   3.659   3.622   6.377 -0.5205  0.3496 -0.4065
   10SAPS    HX 1227   3.578   3.545   6.384  0.4540 -0.6682 -0.1322
   10SAPS    HY 1228   3.748   3.586   6.432 -1.1742  0.6929  0.9260
   10SAPS   O31 1229   3.686   3.651   6.239  0.7547 -0.0433 -0.6120
   10SAPS   C31 1230   3.803   3.687   6.205 -0.0217 -0.0402  0.8407
   10SAPS   O32 1231   3.895   3.702   6.280 -0.1826 -0.1687  0.0282
   10SAPS   C32 1232   3.823   3.705   6.051 -0.3853 -0.1946 -0.2210
   10SAPS   H2X 1233   3.732   3.763   6.022 -0.2074  0.5664  0.6970
   10SAPS   H2Y 1234   3.840   3.607   6.002 -0.0027  0.9568 -2.5565
   10SAPS   C23 1235   3.312   4.105   6.302 -0.1177  0.2788  0.1763
   10SAPS   H3R 1236   3.406   4.162   6.315  1.4365 -2.4325  1.9833
   10SAPS   H3S 1237   3.260   4.103   6.400 -0.1991  1.0242  0.1470
   10SAPS   C24 1238   3.223   4.163   6.190  0.0838  0.2789  0.9426
   10SAPS   H4R 1239   3.287   4.152   6.100  0.2363 -0.0911  1.0958
   10SAPS   H4S 1240   3.208   4.271   6.211 -1.4632  0.2302  0.2303
   10SAPS   C25 1241   3.084   4.095   6.184 -0.2701 -0.1059  0.0374
   10SAPS   H5R 1242   3.024   4.101   6.276  2.2866 -1.9378  1.9829
   10SAPS   C26 1243   3.033   4.016   6.088  1.1477 -0.3905 -0.0832
   10SAPS   H6R 1244   2.933   3.973   6.109 -0.6761  3.5398  0.1581
   10SAPS   C27 1245   3.104   3.981   5.961  0.5649 -0.3348  0.1791
   10SAPS   H7R 1246   3.118   3.871   5.965 -2.5930 -0.8338 -0.0721
   10SAPS   H7S 1247   3.205   4.028   5.961  0.1379  0.6152  0.3836
   10SAPS   C28 1248   3.039   4.021   5.826  0.3881 -0.0795 -0.0309
   10SAPS   H8R 1249   3.042   4.130   5.813  1.8528  0.3246  2.9467
   10SAPS   C29 1250   3.006   3.939   5.728  0.5515 -0.1417  0.1177
   10SAPS   H9R 1251   2.986   3.966   5.623  0.0701 -2.2295 -0.3814
   10SAPS  C210 1252   3.002   3.789   5.746 -0.1752 -0.4097 -0.3057
   10SAPS  H10R 1253   2.924   3.755   5.674 -1.6183 -0.9174  1.4189
   10SAPS  H10S 1254   2.965   3.780   5.850  1.4452  1.1587  0.4661
   10SAPS  C211 1255   3.134   3.718   5.734 -0.2455 -0.2959  0.4251
   10SAPS  H11R 1256   3.215   3.757   5.671  2.5117 -2.9203  2.1421
   10SAPS  C212 1257   3.155   3.590   5.766 -0.4315 -0.2662  0.3177
   10SAPS  H12R 1258   3.255   3.550   5.745 -0.1102 -0.8910  2.7168
   10SAPS  C213 1259   3.060   3.491   5.820  0.1154 -0.0592  0.2929
   10SAPS  H13R 1260   2.963   3.540   5.841 -1.1038 -1.6337 -1.3687
   10SAPS  H13S 1261   3.089   3.456   5.921  0.7645 -3.6036 -0.9997
   10SAPS  C214 1262   3.035   3.365   5.740  0.6293 -0.3405 -0.6274
   10SAPS  H14R 1263   3.056   3.279   5.806  0.1038  1.9715  2.8152
   10SAPS  C215 1264   3.010   3.349   5.606 -0.1198  0.3232  0.1419
   10SAPS  H15R 1265   3.001   3.250   5.560  1.8612 -0.1913  0.7812
   10SAPS  C216 1266   2.993   3.461   5.505  0.1883 -0.0290 -0.1085
   10SAPS  H16R 1267   3.076   3.535   5.504  0.7791 -0.7014 -1.2948
   10SAPS  H16S 1268   2.900   3.521   5.521  0.3630  0.8179 -2.0674
   10SAPS  C217 1269   2.984   3.417   5.355 -0.1817  0.3244 -0.6510
   10SAPS  H17R 1270   2.977   3.511   5.296 -2.7184  0.7068  0.1595
   10SAPS  H17S 1271   2.892   3.356   5.354  0.0138 -0.0237  0.6499
   10SAPS  C218 1272   3.107   3.340   5.302  0.2590  0.9583  0.2916
   10SAPS  H18R 1273   3.104   3.233   5.332  3.4240  1.0018  1.0888
   10SAPS  H18S 1274   3.200   3.383   5.346  0.6084  1.1547 -0.6183
   10SAPS  C219 1275   3.111   3.352   5.148  0.2781  0.0065  0.6094
   10SAPS  H19R 1276   3.214   3.320   5.124  0.1356  0.2059 -0.2891
   10SAPS  H19S 1277   3.102   3.454   5.104 -2.3144 -0.7509 -0.8638
   10SAPS  C220 1278   3.010   3.252   5.088 -0.4185 -0.3704 -0.1649
   10SAPS  H20R 1279   2.989   3.287   4.985 -0.1624  0.1973 -0.0264
   10SAPS  H20S 1280   2.913   3.271   5.140  0.6281  1.6175  1.1717
   10SAPS  H20T 1281   3.043   3.146   5.092  0.7945 -0.0527 -1.3321
   10SAPS   C33 1282   3.955   3.795   6.031 -0.6005  0.5020  0.6377
   10SAPS   H3X 1283   4.035   3.726   6.065 -1.8698 -0.4316  1.8230
   10SAPS   H3Y 1284   3.950   3.894   6.080  0.2268  1.1043 -0.4575
   10SAPS   C34 1285   3.966   3.825   5.882 -0.1334 -0.4160 -0.7313
   10SAPS   H4X 1286   4.049   3.897   5.862  1.5316 -0.9904  3.2306
   10SAPS   H4Y 1287   3.874   3.873   5.842  0.4784  0.5873 -0.9699
   10SAPS   C35 1288   4.012   3.702   5.804  0.7475 -0.4250 -0.0443
   10SAPS   H5X 1289   3.952   3.611   5.824 -3.0018  2.2201  1.8640
   10SAPS   H5Y 1290   4.118   3.678   5.828  0.7509 -1.4840 -1.0495
   10SAPS   C36 1291   3.977   3.724   5.652 -0.7449 -0.0206 -0.1091
   10SAPS   H6X 1292   4.052   3.798   5.619 -2.1661  1.6718  0.3261
   10SAPS   H6Y 1293   3.879   3.771   5.629  1.0047  3.8268 -0.3931
   10SAPS   C37 1294   3.999   3.598   5.562  0.6156 -0.4402  0.1438
   10SAPS   H7X 1295   3.910   3.537   5.589  0.3795  0.4041  1.4144
   10SAPS   H7Y 1296   4.093   3.542   5.578  0.1978 -1.1805  0.0672
   10SAPS   C38 1297   3.994   3.641   5.414 -0.4092 -0.5997 -0.1242
   10SAPS   H8X 1298   4.076   3.713   5.395 -2.6824  2.2444  0.0229
   10SAPS   H8Y 1299   3.913   3.707   5.375  2.3072  3.2335  0.1226
   10SAPS   C39 1300   4.003   3.517   5.317 -0.2402  0.2431  0.8532
   10SAPS   H9X 1301   3.910   3.456   5.312 -0.3312  0.4494 -0.3348
   10SAPS   H9Y 1302   4.080   3.444   5.351 -0.2197 -0.2592 -0.2212
   10SAPS  C310 1303   4.027   3.566   5.175 -0.1784  0.2181  0.6824
   10SAPS  H10X 1304   4.121   3.624   5.177  0.7238 -1.1730  2.8343
   10SAPS  H10Y 1305   3.941   3.630   5.145  0.1568  1.3985  2.0993
   10SAPS  C311 1306   4.059   3.453   5.070  0.0747  0.5396  0.1807
   10SAPS  H11X 1307   3.975   3.381   5.058  0.1473  0.4281  0.3318
   10SAPS  H11Y 1308   4.152   3.399   5.098 -0.8233 -2.3403 -1.9187
   10SAPS  C312 1309   4.069   3.520   4.930 -0.5378 -0.4721 -0.6124
   10SAPS  H12X 1310   4.151   3.589   4.902 -0.6504  0.3393  0.9498
   10SAPS  H12Y 1311   3.980   3.586   4.924 -0.4558 -0.3419 -0.4116
   10SAPS  C313 1312   4.059   3.424   4.807 -0.1467  0.1490  0.1605
   10SAPS  H13X 1313   3.972   3.356   4.794  1.9430 -2.5464 -0.7687
   10SAPS  H13Y 1314   4.146   3.356   4.817  0.8304  1.6291  2.6159
   10SAPS  C314 1315   4.063   3.509   4.679  0.2422 -0.0315 -0.4730
   10SAPS  H14X 1316   4.164   3.554   4.670  0.4557 -0.5168 -0.5265
   10SAPS  H14Y 1317   3.985   3.585   4.698  0.8476  0.1217  1.7617
   10SAPS  C315 1318   4.030   3.437   4.548  0.8055  0.0120  0.1575
   10SAPS  H15X 1319   3.921   3.445   4.525  0.6052 -0.9750  0.6775
   10SAPS  H15Y 1320   4.057   3.331   4.566 -0.3328 -0.8498 -2.6524
   10SAPS  C316 1321   4.105   3.486   4.433  0.1482  0.9059  0.7156
   10SAPS  H16X 1322   4.211   3.499   4.465  0.2312  1.7957  0.1305
   10SAPS  H16Y 1323   4.066   3.577   4.382 -3.3752 -0.6511  0.3536
   10SAPS  C317 1324   4.089   3.391   4.307 -0.2394 -0.2905 -0.2857
   10SAPS  H17X 1325   3.983   3.395   4.275  0.1088 -1.9279 -1.8133
   10SAPS  H17Y 1326   4.096   3.284   4.336 -2.1891 -0.3881 -0.0280
   10SAPS  C318 1327   4.175   3.423   4.180 -0.2046 -0.3712 -0.7395
   10SAPS  H18X 1328   4.174   3.534   4.179  1.6140 -0.2420  1.9972
   10SAPS  H18Y 1329   4.150   3.375   4.082  2.6215  1.5099 -2.5317
   10SAPS  H18Z 1330   4.281   3.395   4.192 -0.1664 -0.4334 -1.1909
   11SAPS     N 1331   6.083   2.444   1.944  0.1870  0.0575 -0.1476
   11SAPS   HN1 1332   5.998   2.469   2.000  0.6815 -0.2912  0.7899
   11SAPS   HN2 1333   6.158   2.457   2.015 -1.0024  1.7653  0.8666
   11SAPS   HN3 1334   6.102   2.495   1.856  2.4656 -2.3803 -1.1893
   11SAPS   C12 1335   6.072   2.300   1.895  0.0153  0.1667  0.1814
   11SAPS  H12A 1336   5.983   2.298   1.833 -0.1877  0.1432  0.4734
   11SAPS   C13 1337   6.196   2.254   1.805 -0.1615 -0.6215 -0.2100
   11SAPS  O13A 1338   6.308   2.314   1.815  0.2853  0.1331  0.3728
   11SAPS  O13B 1339   6.184   2.146   1.741  0.3805  0.1143  0.6414
   11SAPS   C11 1340   6.058   2.206   2.014  0.2062  0.4726 -1.0306
   11SAPS  H11A 1341   6.155   2.206   2.069 -0.6875 -2.3886  0.8043
   11SAPS  H11B 1342   6.043   2.101   1.979 -2.7566  0.4068  0.2024
   11SAPS     P 1343   5.938   2.247   2.252 -0.2290  0.1660 -0.2565
   11SAPS   O13 1344   5.941   2.390   2.289 -0.1174 -0.6252 -0.2128
   11SAPS   O14 1345   5.822   2.168   2.294  0.3895 -0.0024 -0.4376
   11SAPS   O12 1346   5.942   2.241   2.094  0.2491 -0.2410 -0.0249
   11SAPS   O11 1347   6.075   2.176   2.299 -0.3305  0.3264  0.0247
   11SAPS    C1 1348   6.101   2.042   2.287 -0.1327  0.3981 -0.1436
   11SAPS    HA 1349   6.052   1.988   2.202 -0.1735 -1.8347  1.2247
   11SAPS    HB 1350   6.207   2.021   2.264 -0.4381 -2.6938  0.7472
   11SAPS    C2 1351   6.065   1.972   2.421 -0.0940  0.2922 -0.6228
   11SAPS    HS 1352   5.966   2.008   2.456  0.3482  0.6600  0.2659
   11SAPS   O21 1353   6.167   2.000   2.516  0.3166  0.0511 -0.3259
   11SAPS   C21 1354   6.163   2.098   2.592 -0.1101  0.0424  0.4674
   11SAPS   O22 1355   6.071   2.177   2.620  0.0670 -0.3250  1.0164
   11SAPS   C22 1356   6.308   2.114   2.651 -0.1803 -0.0886 -0.0540
   11SAPS   H2R 1357   6.335   2.021   2.704  3.1125  0.7768 -0.0170
   11SAPS   H2S 1358   6.378   2.140   2.568  1.2903  0.5342  1.3225
   11SAPS    C3 1359   6.044   1.821   2.408 -0.2636  0.1313 -0.1810
   11SAPS    HX 1360   6.121   1.765   2.352 -1.6929 -2.3674  0.2129
   11SAPS    HY 1361   5.948   1.815   2.351 -0.7161  4.1670 -0.1318
   11SAPS   O31 1362   6.017   1.773   2.543  0.3296 -0.1623 -0.3997
   11SAPS   C31 1363   6.109   1.692   2.605  0.2189 -0.3244  0.9737
   11SAPS   O32 1364   6.207   1.646   2.555 -0.0396 -0.3018  0.5824
   11SAPS   C32 1365   6.066   1.666   2.753  0.1794 -0.5440 -0.0423
   11SAPS   H2X 1366   6.112   1.565   2.766  1.1828 -0.7026 -3.5944
   11SAPS   H2Y 1367   5.955   1.666   2.754  0.1339 -0.2166 -1.7084
   11SAPS   C23 1368   6.311   2.229   2.756 -0.0354 -0.4859 -0.0583
   11SAPS   H3R 1369   6.235   2.309   2.739 -1.0462 -1.0705  1.4585
   11SAPS   H3S 1370   6.413   2.273   2.755  0.6022 -1.7923  1.6283
   11SAPS   C24 1371   6.270   2.181   2.898 -0.2148  0.8818 -0.0852
   11SAPS   H4R 1372   6.167   2.140   2.884  0.2154 -0.0171 -0.7219
   11SAPS   H4S 1373   6.260   2.270   2.964  1.4941  1.0647 -0.0409
   11SAPS   C25 1374   6.374   2.086   2.962  0.0980  0.4340 -0.2689
   11SAPS   H5R 1375   6.433   2.021   2.895 -1.1480 -2.2248  1.1046
   11SAPS   C26 1376   6.402   2.062   3.089 -0.2395  0.2520 -0.2282
   11SAPS   H6R 1377   6.474   1.984   3.117 -0.4405  0.0827 -0.1732
   11SAPS   C27 1378   6.330   2.120   3.211 -0.8148 -0.7216  0.2613
   11SAPS   H7R 1379   6.280   2.217   3.189 -0.3615 -0.3815  0.7064
   11SAPS   H7S 1380   6.405   2.154   3.285 -0.2540  1.5393 -1.2229
   11SAPS   C28 1381   6.230   2.019   3.264 -0.2452 -0.8795  0.3047
   11SAPS   H8R 1382   6.143   2.012   3.196 -0.0275  2.4911 -0.5116
   11SAPS   C29 1383   6.230   1.942   3.373  0.4493  0.2474  0.1322
   11SAPS   H9R 1384   6.150   1.867   3.388  0.6208  0.4594  2.4698
   11SAPS  C210 1385   6.334   1.959   3.481 -0.0668 -0.3766  0.9420
   11SAPS  H10R 1386   6.305   2.043   3.548  1.4529  2.9206 -2.1925
   11SAPS  H10S 1387   6.429   2.005   3.447  0.1099 -1.6079 -0.3093
   11SAPS  C211 1388   6.348   1.832   3.563 -0.0124  0.0801 -0.0509
   11SAPS  H11R 1389   6.432   1.770   3.527 -0.6963  1.4489 -4.6442
   11SAPS  C212 1390   6.269   1.788   3.666  0.1528 -0.0483 -0.5139
   11SAPS  H12R 1391   6.303   1.696   3.716 -1.7158 -1.1933 -1.2560
   11SAPS  C213 1392   6.155   1.869   3.726  0.2971  0.3168  0.8082
   11SAPS  H13R 1393   6.068   1.845   3.661  0.5677  1.3125  0.0572
   11SAPS  H13S 1394   6.176   1.977   3.715 -0.2999  0.4703  1.1509
   11SAPS  C214 1395   6.123   1.834   3.867  0.2241  0.0121  0.8365
   11SAPS  H14R 1396   6.141   1.914   3.940 -2.8166  0.4370  1.2487
   11SAPS  C215 1397   6.055   1.719   3.896  0.0181 -0.4375 -0.5806
   11SAPS  H15R 1398   6.032   1.695   4.001  1.4593  1.4777  0.2391
   11SAPS  C216 1399   6.015   1.617   3.802  0.0888 -0.6578  0.1020
   11SAPS  H16R 1400   6.093   1.597   3.726  0.3998  1.8294 -0.3411
   11SAPS  H16S 1401   5.929   1.653   3.741  0.3221  1.7530  1.0677
   11SAPS  C217 1402   5.993   1.479   3.871 -0.6848 -0.3554  0.3308
   11SAPS  H17R 1403   5.961   1.407   3.793  0.4905  0.4411 -0.9361
   11SAPS  H17S 1404   5.909   1.494   3.942  0.5056  0.3184  1.6571
   11SAPS  C218 1405   6.118   1.429   3.952 -0.1141 -0.2440  0.6273
   11SAPS  H18R 1406   6.129   1.503   4.034 -1.7950  1.5089 -0.6419
   11SAPS  H18S 1407   6.202   1.443   3.882 -1.6442  0.1321 -1.2180
   11SAPS  C219 1408   6.115   1.282   3.992 -0.5270 -0.4611 -0.5429
   11SAPS  H19R 1409   6.098   1.205   3.914  2.0321 -1.2170 -0.4472
   11SAPS  H19S 1410   6.028   1.282   4.061  0.7271  1.1934  1.1364
   11SAPS  C220 1411   6.240   1.242   4.074  0.4495  0.3040 -0.5786
   11SAPS  H20R 1412   6.312   1.194   4.004 -0.4869 -0.2931 -1.1481
   11SAPS  H20S 1413   6.216   1.174   4.159  0.6777  2.9007  1.7336
   11SAPS  H20T 1414   6.265   1.339   4.123 -0.6003 -0.2178  1.0806
   11SAPS   C33 1415   6.132   1.768   2.856 -0.2932 -0.3363  0.0607
   11SAPS   H3X 1416   6.102   1.870   2.825  2.4916  0.1101 -1.5728
   11SAPS   H3Y 1417   6.243   1.771   2.857 -0.3010  0.6042 -0.6691
   11SAPS   C34 1418   6.078   1.735   2.996  0.1855 -0.0561 -0.0171
   11SAPS   H4X 1419   5.972   1.707   2.981 -0.1626  1.8553 -1.6506
   11SAPS   H4Y 1420   6.097   1.826   3.058  0.1879 -0.8096  1.1070
   11SAPS   C35 1421   6.155   1.616   3.063  0.3175  0.1192  0.0029
   11SAPS   H5X 1422   6.262   1.645   3.055  0.1405  0.3683 -1.8789
   11SAPS   H5Y 1423   6.148   1.524   3.001  0.5934  0.5001 -0.6062
   11SAPS   C36 1424   6.112   1.604   3.202 -0.0703  0.3559 -0.2129
   11SAPS   H6X 1425   6.015   1.550   3.192  0.3200 -0.6616  1.1448
   11SAPS   H6Y 1426   6.107   1.698   3.261  3.2485 -0.3579  1.4647
   11SAPS   C37 1427   6.209   1.517   3.280 -0.1923  0.1481 -0.0343
   11SAPS   H7X 1428   6.296   1.580   3.310  1.3336 -0.6959 -2.3617
   11SAPS   H7Y 1429   6.239   1.427   3.223 -1.3279  0.1238 -0.6090
   11SAPS   C38 1430   6.141   1.462   3.412  0.5916 -0.0466 -0.2235
   11SAPS   H8X 1431   6.097   1.544   3.472 -1.9126 -2.1540  1.0056
   11SAPS   H8Y 1432   6.210   1.407   3.479 -1.6427 -0.5748  1.7914
   11SAPS   C39 1433   6.039   1.352   3.377 -0.1701 -0.2249  0.3540
   11SAPS   H9X 1434   6.076   1.280   3.301 -0.0489 -1.1976  1.2973
   11SAPS   H9Y 1435   5.950   1.393   3.324  1.2434  1.7905 -0.5852
   11SAPS  C310 1436   5.990   1.275   3.502 -0.0253  0.4226  0.8039
   11SAPS  H10X 1437   5.908   1.218   3.453 -0.7383 -0.2609  2.7267
   11SAPS  H10Y 1438   5.938   1.342   3.574 -2.9542 -0.0872 -0.6975
   11SAPS  C311 1439   6.090   1.185   3.577 -0.1195 -0.1369 -0.0988
   11SAPS  H11X 1440   6.140   1.237   3.662  0.6991  0.1548 -0.7374
   11SAPS  H11Y 1441   6.173   1.148   3.513 -1.7363 -1.0267 -1.7643
   11SAPS  C312 1442   6.023   1.060   3.632  0.0396 -0.2056  0.0909
   11SAPS  H12X 1443   5.946   1.034   3.556 -1.8456  0.5662  1.6725
   11SAPS  H12Y 1444   5.967   1.093   3.722  0.8299  4.0121 -0.7492
   11SAPS  C313 1445   6.115   0.938   3.662 -0.4460 -0.1597 -0.2352
   11SAPS  H13X 1446   6.158   0.891   3.571 -1.6629 -0.5365 -0.6467
   11SAPS  H13Y 1447   6.058   0.860   3.718 -2.4343  1.7905  0.6295
   11SAPS  C314 1448   6.230   0.973   3.759 -0.0171 -0.4317  0.3885
   11SAPS  H14X 1449   6.175   1.010   3.848 -0.1954  2.8733 -0.9788
   11SAPS  H14Y 1450   6.288   1.061   3.723 -0.2345 -1.0233 -1.4795
   11SAPS  C315 1451   6.317   0.851   3.800  0.6004 -0.5759  0.3004
   11SAPS  H15X 1452   6.365   0.815   3.707 -0.5416 -1.9879  0.2148
   11SAPS  H15Y 1453   6.252   0.768   3.834  0.9764 -0.6798  0.7973
   11SAPS  C316 1454   6.420   0.879   3.910 -0.0410 -0.5535 -0.7810
   11SAPS  H16X 1455   6.361   0.910   3.999 -2.8884 -0.9298 -2.4197
   11SAPS  H16Y 1456   6.492   0.960   3.886 -0.7527  0.8469  1.5398
   11SAPS  C317 1457   6.483   0.750   3.956 -0.2356  0.2688 -1.0248
   11SAPS  H17X 1458   6.544   0.724   3.867  0.7827  0.1135 -0.3019
   11SAPS  H17Y 1459   6.410   0.668   3.973 -1.7075  1.5892 -0.7527
   11SAPS  C318 1460   6.579   0.773   4.077 -0.0734 -0.7734  0.1273
   11SAPS  H18X 1461   6.572   0.698   4.159  1.2008 -0.7944  0.2378
   11SAPS  H18Y 1462   6.561   0.877   4.113 -1.8325 -0.1218 -2.3664
   11SAPS  H18Z 1463   6.685   0.767   4.045  0.0489 -0.5979  0.4985
   12SAPS     N 1464   5.403   0.885   1.815  0.2469 -0.9271  0.2947
   12SAPS   HN1 1465   5.454   0.810   1.866  0.2453 -0.1335  1.5095
   12SAPS   HN2 1466   5.310   0.875   1.860 -0.3076 -0.1153 -0.6381
   12SAPS   HN3 1467   5.386   0.864   1.715 -1.5979  1.2483  0.0755
   12SAPS   C12 1468   5.455   1.029   1.827 -0.2126 -1.2248 -0.6137
   12SAPS  H12A 1469   5.524   1.045   1.745  1.6886  0.4040  1.1827
   12SAPS   C13 1470   5.349   1.136   1.813 -0.5987 -0.6989 -0.2329
   12SAPS  O13A 1471   5.226   1.113   1.802  0.2859  0.1386 -0.3110
   12SAPS  O13B 1472   5.391   1.253   1.830  0.3699  0.1703  0.1178
   12SAPS   C11 1473   5.518   1.036   1.966 -0.5626  0.4456 -0.2129
   12SAPS  H11A 1474   5.437   1.039   2.042 -0.4362  0.0644 -0.0597
   12SAPS  H11B 1475   5.562   1.138   1.966 -1.3242  0.8355 -2.8226
   12SAPS     P 1476   5.668   0.889   2.128 -0.0319  0.0293 -0.1762
   12SAPS   O13 1477   5.557   0.836   2.209  0.4827  0.4884 -0.0495
   12SAPS   O14 1478   5.785   0.798   2.109  0.1077 -0.2603  0.4254
   12SAPS   O12 1479   5.612   0.929   1.994  0.0755 -0.0835 -0.2190
   12SAPS   O11 1480   5.717   1.024   2.198 -0.1411 -0.1000  0.1179
   12SAPS    C1 1481   5.632   1.081   2.297 -0.2402  0.2397  0.1135
   12SAPS    HA 1482   5.530   1.098   2.255 -1.3068  0.2322  2.5344
   12SAPS    HB 1483   5.610   1.010   2.379 -0.5377 -1.9664 -1.7603
   12SAPS    C2 1484   5.697   1.216   2.351  0.6949 -0.2071  0.2560
   12SAPS    HS 1485   5.721   1.285   2.268  1.2399  0.7475  1.1839
   12SAPS   O21 1486   5.826   1.185   2.419  0.1119 -0.2537  0.6982
   12SAPS   C21 1487   5.917   1.268   2.423  0.1279  0.1917 -0.5663
   12SAPS   O22 1488   5.918   1.379   2.374 -0.7201  0.0318  0.0856
   12SAPS   C22 1489   6.032   1.205   2.507  0.2985 -0.0845  0.0566
   12SAPS   H2R 1490   6.000   1.212   2.613  0.2278 -0.0232  0.0309
   12SAPS   H2S 1491   6.053   1.099   2.483 -1.7748 -0.7701  1.0161
   12SAPS    C3 1492   5.604   1.291   2.454 -0.5520 -0.2544 -0.2373
   12SAPS    HX 1493   5.515   1.337   2.406  0.0478 -0.0602 -1.2014
   12SAPS    HY 1494   5.658   1.385   2.477 -0.6220  0.1337 -1.5738
   12SAPS   O31 1495   5.554   1.208   2.562 -0.4860 -0.2042 -0.0893
   12SAPS   C31 1496   5.630   1.204   2.664 -0.3072 -0.3269 -0.4854
   12SAPS   O32 1497   5.735   1.265   2.680 -0.1064  0.2565 -0.1054
   12SAPS   C32 1498   5.582   1.120   2.777  0.5310 -0.0251 -0.0206
   12SAPS   H2X 1499   5.626   1.172   2.865 -0.0700  0.2990  0.0949
   12SAPS   H2Y 1500   5.641   1.027   2.765 -0.4857 -0.6322 -0.4717
   12SAPS   C23 1501   6.161   1.290   2.494  0.3243 -0.6426 -0.6028
   12SAPS   H3R 1502   6.146   1.397   2.471  3.0722 -0.1390 -0.4000
   12SAPS   H3S 1503   6.221   1.255   2.407  1.1713 -0.3695 -0.1412
   12SAPS   C24 1504   6.247   1.285   2.624 -0.5835  0.1932 -0.3649
   12SAPS   H4R 1505   6.193   1.359   2.688 -1.6553  0.5462 -1.6226
   12SAPS   H4S 1506   6.347   1.324   2.598 -0.4688  0.3159  0.2346
   12SAPS   C25 1507   6.254   1.149   2.689 -0.5081  1.0368 -0.2297
   12SAPS   H5R 1508   6.276   1.065   2.620 -1.4841  0.1663  0.4899
   12SAPS   C26 1509   6.228   1.120   2.816 -0.5583 -0.2530  0.6493
   12SAPS   H6R 1510   6.248   1.022   2.862 -0.3433  0.9847  3.3729
   12SAPS   C27 1511   6.182   1.222   2.925 -0.0310  0.3532  0.0176
   12SAPS   H7R 1512   6.257   1.302   2.942  0.1553  0.7741 -2.4538
   12SAPS   H7S 1513   6.199   1.166   3.020  0.8653 -1.1599 -0.9946
   12SAPS   C28 1514   6.049   1.276   2.920 -0.5428  0.8002  0.6868
   12SAPS   H8R 1515   6.044   1.371   2.865  1.0605  0.8468  0.5681
   12SAPS   C29 1516   5.939   1.222   2.982 -0.3041 -0.1858  0.5448
   12SAPS   H9R 1517   5.844   1.275   2.962 -0.5687 -1.0831 -0.6922
   12SAPS  C210 1518   5.937   1.092   3.060 -0.9222 -0.1249 -0.2164
   12SAPS  H10R 1519   5.863   1.094   3.143 -0.2757 -2.5567  0.4950
   12SAPS  H10S 1520   6.042   1.071   3.090 -0.9643 -0.9206 -0.6111
   12SAPS  C211 1521   5.897   0.986   2.963  0.2389  0.1728  0.1329
   12SAPS  H11R 1522   5.919   1.009   2.857  0.6979 -0.8221 -0.0059
   12SAPS  C212 1523   5.860   0.862   2.997  0.8738  0.2962 -0.1252
   12SAPS  H12R 1524   5.845   0.782   2.923  0.2107 -1.3010  1.6497
   12SAPS  C213 1525   5.834   0.803   3.133 -1.1306  0.4204  0.0509
   12SAPS  H13R 1526   5.827   0.886   3.207 -1.6580  1.2982 -0.9513
   12SAPS  H13S 1527   5.926   0.742   3.147 -0.8241  1.1018  1.1110
   12SAPS  C214 1528   5.708   0.715   3.150  0.3620 -0.2521 -0.3917
   12SAPS  H14R 1529   5.645   0.703   3.061 -0.8263  0.2006  0.3584
   12SAPS  C215 1530   5.646   0.696   3.271  0.0592  0.3865 -0.0375
   12SAPS  H15R 1531   5.548   0.646   3.281  1.0745 -1.4792  1.1376
   12SAPS  C216 1532   5.711   0.735   3.400  0.5165 -0.0594  0.1761
   12SAPS  H16R 1533   5.700   0.844   3.413 -3.7263 -0.2917 -0.2478
   12SAPS  H16S 1534   5.821   0.716   3.400  0.5648 -0.3175  3.1622
   12SAPS  C217 1535   5.643   0.673   3.518  0.4430  0.0980 -0.2883
   12SAPS  H17R 1536   5.623   0.566   3.499  0.9754  0.3189 -2.3550
   12SAPS  H17S 1537   5.539   0.711   3.532  0.1580 -0.9849  0.6139
   12SAPS  C218 1538   5.720   0.680   3.650  0.2765  0.2308  0.2641
   12SAPS  H18R 1539   5.711   0.782   3.692  0.0303  0.2556  0.1552
   12SAPS  H18S 1540   5.827   0.662   3.624  0.0750 -0.8225  0.1319
   12SAPS  C219 1541   5.671   0.590   3.760  0.3008  0.1213 -0.2090
   12SAPS  H19R 1542   5.705   0.485   3.745 -1.6194 -0.5768 -0.0927
   12SAPS  H19S 1543   5.560   0.598   3.751  0.5347  3.9677 -1.4756
   12SAPS  C220 1544   5.712   0.638   3.902  0.5952  0.3761  0.4382
   12SAPS  H20R 1545   5.684   0.743   3.923  1.7682  1.0291 -1.1035
   12SAPS  H20S 1546   5.823   0.637   3.897  0.6693  3.5213 -0.2929
   12SAPS  H20T 1547   5.665   0.581   3.985  0.2161  1.4071  0.9450
   12SAPS   C33 1548   5.430   1.095   2.785  0.4721 -0.3874 -0.1919
   12SAPS   H3X 1549   5.398   1.045   2.691 -0.8311 -0.0364  0.0365
   12SAPS   H3Y 1550   5.385   1.195   2.801  2.0983  0.4605 -0.6652
   12SAPS   C34 1551   5.388   0.992   2.898 -0.2653  0.0894 -0.3115
   12SAPS   H4X 1552   5.417   0.891   2.863  1.5517  0.2250  0.7126
   12SAPS   H4Y 1553   5.277   0.979   2.896 -0.1634 -0.8654 -1.9249
   12SAPS   C35 1554   5.443   1.007   3.040  0.5187  0.3836  0.5536
   12SAPS   H5X 1555   5.554   1.009   3.034  0.5980  2.0324  1.6978
   12SAPS   H5Y 1556   5.435   0.911   3.095  3.3987 -1.2154 -1.5830
   12SAPS   C36 1557   5.385   1.127   3.112 -0.5214  0.4604  0.3728
   12SAPS   H6X 1558   5.275   1.109   3.120 -0.1455 -1.4488  1.8053
   12SAPS   H6Y 1559   5.398   1.218   3.049 -0.0644  0.3899  0.3640
   12SAPS   C37 1560   5.423   1.155   3.258 -0.7765  0.0957 -0.2014
   12SAPS   H7X 1561   5.372   1.252   3.279  0.1067  0.1326  2.0268
   12SAPS   H7Y 1562   5.533   1.162   3.271 -0.9412  0.3683  1.2515
   12SAPS   C38 1563   5.369   1.039   3.344  0.3671 -0.5273  0.8397
   12SAPS   H8X 1564   5.414   0.946   3.304  0.1258 -0.2206 -0.1679
   12SAPS   H8Y 1565   5.260   1.036   3.325  0.1652  1.2552  1.4765
   12SAPS   C39 1566   5.391   1.064   3.493 -0.0596 -0.3274 -0.5664
   12SAPS   H9X 1567   5.360   0.976   3.553  1.3046  0.1569  0.9182
   12SAPS   H9Y 1568   5.334   1.146   3.539 -0.7826 -1.3347  0.3829
   12SAPS  C310 1569   5.537   1.085   3.531 -0.4103 -0.3499  0.6600
   12SAPS  H10X 1570   5.576   1.177   3.483  0.8503 -0.7512  0.8935
   12SAPS  H10Y 1571   5.597   1.003   3.486 -1.0324 -1.5398  1.8949
   12SAPS  C311 1572   5.551   1.093   3.681 -0.0551 -0.4064  0.1664
   12SAPS  H11X 1573   5.523   0.993   3.721  1.4121 -1.5606 -1.5151
   12SAPS  H11Y 1574   5.474   1.163   3.720  0.7763  0.5718  0.0725
   12SAPS  C312 1575   5.691   1.136   3.717 -0.0686 -0.0900 -0.2266
   12SAPS  H12X 1576   5.713   1.226   3.655  0.6938  0.4724  0.8418
   12SAPS  H12Y 1577   5.762   1.059   3.679 -1.3344 -0.7989 -1.2117
   12SAPS  C313 1578   5.721   1.156   3.864  0.7164 -0.4120  0.4069
   12SAPS  H13X 1579   5.667   1.249   3.893 -1.8925 -0.8242 -2.5308
   12SAPS  H13Y 1580   5.828   1.180   3.878  1.2608  1.3243 -4.6751
   12SAPS  C314 1581   5.691   1.024   3.947 -0.0079  0.6362 -0.1873
   12SAPS  H14X 1582   5.774   0.957   3.919  3.1507  2.8739  2.9663
   12SAPS  H14Y 1583   5.590   0.985   3.921  0.5472 -1.6355  0.8185
   12SAPS  C315 1584   5.681   1.048   4.100 -0.6089  0.4553 -0.3477
   12SAPS  H15X 1585   5.599   1.119   4.121 -0.6458  0.3073  0.0129
   12SAPS  H15Y 1586   5.775   1.092   4.139  1.0123 -1.9600 -1.2166
   12SAPS  C316 1587   5.653   0.917   4.177 -0.5563 -0.7212  0.1623
   12SAPS  H16X 1588   5.716   0.833   4.142 -0.4374 -0.5349 -0.0672
   12SAPS  H16Y 1589   5.550   0.877   4.165  0.6944 -3.8600 -1.2631
   12SAPS  C317 1590   5.653   0.943   4.331  0.4480 -0.8816 -0.3890
   12SAPS  H17X 1591   5.560   1.003   4.346 -0.2950 -2.1195  0.0684
   12SAPS  H17Y 1592   5.734   1.010   4.368 -2.4351  1.9899  1.2104
   12SAPS  C318 1593   5.624   0.820   4.418 -0.4532  0.0751 -0.4734
   12SAPS  H18X 1594   5.694   0.737   4.396 -1.3270 -1.6177  2.6264
   12SAPS  H18Y 1595   5.523   0.779   4.394 -0.7805  0.7337 -0.2531
   12SAPS  H18Z 1596   5.622   0.848   4.526 -3.8584 -0.9827 -0.1488
   13SAPS     N 1597   6.864   1.299   1.990 -0.2648  0.0337 -0.1840
   13SAPS   HN1 1598   6.897   1.390   1.952  1.4091 -0.6379 -0.3935
   13SAPS   HN2 1599   6.767   1.313   2.027 -0.3654  0.1428 -0.4841
   13SAPS   HN3 1600   6.932   1.281   2.066 -0.4505 -0.4491 -0.1303
   13SAPS   C12 1601   6.855   1.192   1.885  0.2369 -0.2240  0.7774
   13SAPS  H12A 1602   6.752   1.159   1.877  0.3551 -0.4004 -0.0453
   13SAPS   C13 1603   6.894   1.229   1.742 -0.7152  0.0832 -0.0079
   13SAPS  O13A 1604   6.947   1.346   1.717  0.5211 -0.6101 -0.1559
   13SAPS  O13B 1605   6.845   1.156   1.650  0.2322 -0.4591 -0.8559
   13SAPS   C11 1606   6.941   1.066   1.919  0.3959  0.1626  0.2612
   13SAPS  H11A 1607   7.049   1.085   1.898  0.4482  1.0809  1.2823
   13SAPS  H11B 1608   6.914   0.990   1.842 -0.9008  2.3444 -1.5974
   13SAPS     P 1609   6.809   0.929   2.110 -0.4317 -0.3196  0.1697
   13SAPS   O13 1610   6.670   0.979   2.084  0.4073  0.4534  0.0563
   13SAPS   O14 1611   6.833   0.798   2.057 -0.0892 -0.4630  0.3845
   13SAPS   O12 1612   6.924   1.027   2.054  0.0209 -0.0511 -0.8241
   13SAPS   O11 1613   6.827   0.927   2.268  0.0985 -0.2738 -0.1109
   13SAPS    C1 1614   6.885   1.034   2.340  0.7590 -0.4207  0.1058
   13SAPS    HA 1615   6.995   1.023   2.338  1.0721  1.3442  2.8050
   13SAPS    HB 1616   6.866   1.133   2.293  0.5769 -0.2428  0.5525
   13SAPS    C2 1617   6.852   1.036   2.494  0.3300  0.1923  0.2808
   13SAPS    HS 1618   6.894   1.130   2.537  2.5826  0.1920 -1.6989
   13SAPS   O21 1619   6.907   0.910   2.561 -0.5004 -0.0579 -0.0990
   13SAPS   C21 1620   6.934   0.935   2.684 -0.0662 -0.1824 -0.5381
   13SAPS   O22 1621   6.926   1.039   2.746 -0.6370  0.0777 -0.6487
   13SAPS   C22 1622   6.970   0.797   2.746 -0.0999 -0.0685 -0.1209
   13SAPS   H2R 1623   6.883   0.728   2.746 -1.1454  1.2076 -0.6398
   13SAPS   H2S 1624   7.054   0.754   2.687  0.3425  0.6745 -0.0523
   13SAPS    C3 1625   6.697   1.028   2.523  0.3057 -0.3452 -0.1851
   13SAPS    HX 1626   6.658   0.924   2.519 -1.7083  0.1897  2.5590
   13SAPS    HY 1627   6.643   1.093   2.451 -0.0316  0.6750  0.9590
   13SAPS   O31 1628   6.662   1.060   2.665  0.1894  0.5311  0.7737
   13SAPS   C31 1629   6.652   1.192   2.688  0.4161 -0.3167  0.3189
   13SAPS   O32 1630   6.665   1.279   2.609 -0.2595 -0.0857  0.2256
   13SAPS   C32 1631   6.608   1.214   2.837 -0.4493 -0.4913  0.2804
   13SAPS   H2X 1632   6.584   1.119   2.891 -2.3146  0.4395  1.1858
   13SAPS   H2Y 1633   6.511   1.268   2.837  0.1820  0.6722  0.4645
   13SAPS   C23 1634   7.016   0.813   2.887  0.1986  0.9897  0.3927
   13SAPS   H3R 1635   6.934   0.850   2.953  0.0994 -2.1842  2.2572
   13SAPS   H3S 1636   7.103   0.882   2.887  1.3304 -0.3863 -0.5531
   13SAPS   C24 1637   7.059   0.676   2.947 -0.0400  0.3861  0.5721
   13SAPS   H4R 1638   7.128   0.703   3.030  0.3916  0.6645  0.1304
   13SAPS   H4S 1639   7.114   0.620   2.870 -0.3759  0.7533  0.0557
   13SAPS   C25 1640   6.939   0.602   2.998 -0.5607  0.2442 -0.6942
   13SAPS   H5R 1641   6.871   0.559   2.923  0.5424 -1.0549 -1.0043
   13SAPS   C26 1642   6.908   0.574   3.129  0.3305 -0.2264  0.7829
   13SAPS   H6R 1643   6.824   0.505   3.147  2.2299 -2.7539  0.6107
   13SAPS   C27 1644   6.991   0.603   3.252 -0.4562 -0.0022 -0.9032
   13SAPS   H7R 1645   7.086   0.656   3.228 -1.0704  2.3182  1.3935
   13SAPS   H7S 1646   7.021   0.512   3.308 -0.5012  1.4704  1.6443
   13SAPS   C28 1647   6.904   0.687   3.336  0.6211 -0.4105 -0.1336
   13SAPS   H8R 1648   6.824   0.625   3.379 -0.6696 -0.8303 -2.9540
   13SAPS   C29 1649   6.907   0.823   3.351  0.2167  0.4003  0.2762
   13SAPS   H9R 1650   6.828   0.869   3.413 -1.2620  1.0231 -1.9631
   13SAPS  C210 1651   6.993   0.929   3.296 -0.8631  0.4104 -0.2303
   13SAPS  H10R 1652   7.029   0.914   3.192 -1.7937  1.4712 -0.7253
   13SAPS  H10S 1653   7.085   0.915   3.355 -1.0645 -0.2062 -0.0455
   13SAPS  C211 1654   6.944   1.070   3.311  0.6190  0.0572  0.1860
   13SAPS  H11R 1655   6.887   1.116   3.229  0.7255 -1.2500 -0.6480
   13SAPS  C212 1656   6.958   1.142   3.427  0.1398 -0.4084 -0.0406
   13SAPS  H12R 1657   6.910   1.239   3.444 -1.1178 -0.9695 -0.2868
   13SAPS  C213 1658   7.036   1.097   3.558 -0.4010  0.0087  0.8534
   13SAPS  H13R 1659   7.114   1.173   3.582  0.2474 -0.5012  0.4056
   13SAPS  H13S 1660   7.072   0.993   3.548 -0.1186  0.2234 -0.6354
   13SAPS  C214 1661   6.943   1.088   3.671  0.1628  0.3130 -0.1518
   13SAPS  H14R 1662   6.862   1.016   3.653  0.9055 -0.7804  0.7355
   13SAPS  C215 1663   6.935   1.161   3.787  0.2259  0.2700 -0.2405
   13SAPS  H15R 1664   6.851   1.145   3.856  0.2366  0.4411 -0.1871
   13SAPS  C216 1665   7.014   1.272   3.831  0.2949  0.5739 -0.1696
   13SAPS  H16R 1666   6.957   1.366   3.820 -1.3915 -0.3855 -0.0013
   13SAPS  H16S 1667   7.100   1.280   3.761  0.4400 -2.2036 -0.4484
   13SAPS  C217 1668   7.077   1.264   3.969  0.2844  0.9324  1.1122
   13SAPS  H17R 1669   7.139   1.356   3.962 -1.0663  1.7296 -1.5285
   13SAPS  H17S 1670   7.131   1.167   3.979 -1.1148 -0.1480 -1.0147
   13SAPS  C218 1671   6.977   1.276   4.082  0.3182 -0.2971 -0.0492
   13SAPS  H18R 1672   6.885   1.323   4.040  0.0423 -0.6835  0.1078
   13SAPS  H18S 1673   7.025   1.342   4.157  0.0913 -0.3035  0.1063
   13SAPS  C219 1674   6.962   1.143   4.163  0.1665  0.3780  0.9998
   13SAPS  H19R 1675   7.056   1.132   4.223  0.4417  0.2085  0.5456
   13SAPS  H19S 1676   6.943   1.060   4.091  0.6601  1.1066  0.0108
   13SAPS  C220 1677   6.844   1.130   4.260 -0.1669  0.1993  0.1791
   13SAPS  H20R 1678   6.754   1.089   4.209 -0.2901 -0.2412  0.7365
   13SAPS  H20S 1679   6.822   1.227   4.309  2.4191 -0.5713  3.2279
   13SAPS  H20T 1680   6.873   1.055   4.337  0.0383  1.1013  1.0112
   13SAPS   C33 1681   6.723   1.297   2.898 -0.3955  0.2146 -0.2819
   13SAPS   H3X 1682   6.729   1.400   2.858 -1.2374  0.6058  0.5416
   13SAPS   H3Y 1683   6.823   1.250   2.891  0.1047  0.6185  2.7229
   13SAPS   C34 1684   6.705   1.325   3.047  0.1112 -0.3492 -0.8156
   13SAPS   H4X 1685   6.766   1.413   3.075 -0.7588 -0.0698  0.2857
   13SAPS   H4Y 1686   6.728   1.240   3.115  0.4771  0.0313 -0.4616
   13SAPS   C35 1687   6.563   1.366   3.082  0.7195  0.2443 -0.2238
   13SAPS   H5X 1688   6.484   1.289   3.073 -0.7149  1.4343  1.5232
   13SAPS   H5Y 1689   6.532   1.447   3.012  1.4400  0.5782 -0.1636
   13SAPS   C36 1690   6.551   1.408   3.231  0.3256  0.3373 -0.1056
   13SAPS   H6X 1691   6.453   1.461   3.240 -0.9940 -2.0812  0.5439
   13SAPS   H6Y 1692   6.634   1.481   3.242 -0.4373  1.5643 -1.9337
   13SAPS   C37 1693   6.566   1.297   3.331  0.6982  0.7618 -0.3176
   13SAPS   H7X 1694   6.665   1.246   3.330  0.2261 -0.4752  2.8970
   13SAPS   H7Y 1695   6.493   1.214   3.319 -0.6800  1.7478  0.8797
   13SAPS   C38 1696   6.527   1.350   3.471  0.1976 -0.4668 -1.1761
   13SAPS   H8X 1697   6.421   1.384   3.462 -0.0914 -1.4910 -1.7818
   13SAPS   H8Y 1698   6.585   1.441   3.498 -1.2219 -0.1132  0.9090
   13SAPS   C39 1699   6.541   1.247   3.584  0.7598  0.1297 -0.7067
   13SAPS   H9X 1700   6.641   1.198   3.587 -0.0151 -1.6472 -2.2321
   13SAPS   H9Y 1701   6.480   1.159   3.555 -0.3031  1.1645 -1.7179
   13SAPS  C310 1702   6.501   1.298   3.723 -0.3134  0.3308  0.5767
   13SAPS  H10X 1703   6.523   1.222   3.800 -0.4015  0.7069  0.9780
   13SAPS  H10Y 1704   6.393   1.319   3.740 -0.3814 -0.7306  1.4997
   13SAPS  C311 1705   6.571   1.425   3.769 -0.0558 -0.5602 -0.4130
   13SAPS  H11X 1706   6.555   1.507   3.696 -2.4341 -1.3353 -0.8538
   13SAPS  H11Y 1707   6.679   1.406   3.785 -0.1158 -1.0301 -0.5607
   13SAPS  C312 1708   6.523   1.474   3.906  0.3459  0.1833 -0.4198
   13SAPS  H12X 1709   6.562   1.396   3.975 -2.4819 -1.5198 -0.6025
   13SAPS  H12Y 1710   6.412   1.481   3.903  0.3983  0.8701 -1.0123
   13SAPS  C313 1711   6.564   1.618   3.949 -1.2684  0.1884  0.5098
   13SAPS  H13X 1712   6.582   1.679   3.858 -0.5112 -0.2617  0.3486
   13SAPS  H13Y 1713   6.666   1.617   3.994 -1.2420  0.3809  0.4536
   13SAPS  C314 1714   6.471   1.696   4.032  0.3804 -0.2746  0.7091
   13SAPS  H14X 1715   6.395   1.745   3.968 -0.5514  0.1061  2.0580
   13SAPS  H14Y 1716   6.517   1.784   4.081 -2.3125  0.3639  2.3051
   13SAPS  C315 1717   6.385   1.620   4.138 -0.1069  0.1653 -0.2752
   13SAPS  H15X 1718   6.459   1.571   4.205 -0.0917  0.1370 -0.3124
   13SAPS  H15Y 1719   6.323   1.548   4.081 -0.3876 -1.7047  2.2211
   13SAPS  C316 1720   6.294   1.707   4.227  0.3258  0.7950  0.2874
   13SAPS  H16X 1721   6.229   1.642   4.289  0.1347  2.3113  1.7311
   13SAPS  H16Y 1722   6.245   1.766   4.146 -0.5330  0.1237  0.3062
   13SAPS  C317 1723   6.353   1.814   4.311 -0.3644  0.3929 -0.4984
   13SAPS  H17X 1724   6.405   1.897   4.258  2.9317 -2.0486 -1.3715
   13SAPS  H17Y 1725   6.423   1.760   4.378  0.4270 -0.3897 -1.9219
   13SAPS  C318 1726   6.250   1.888   4.393 -0.3523 -0.1261  0.0360
   13SAPS  H18X 1727   6.185   1.819   4.452  0.3566 -0.4984  0.3927
   13SAPS  H18Y 1728   6.191   1.948   4.321 -0.2316 -0.2653 -0.1790
   13SAPS  H18Z 1729   6.293   1.968   4.458 -1.7920  0.2826  0.5523
   14SAPS     N 1730   1.391   3.187   1.809  0.3373  0.1419  0.2131
   14SAPS   HN1 1731   1.404   3.094   1.765 -0.1644  0.0504  0.2442
   14SAPS   HN2 1732   1.348   3.180   1.904 -0.4808  3.2311  0.1771
   14SAPS   HN3 1733   1.328   3.242   1.747 -1.4855 -1.3702  0.6206
   14SAPS   C12 1734   1.524   3.254   1.820 -0.0257  0.0503 -0.1999
   14SAPS  H12A 1735   1.569   3.251   1.722 -2.7782  1.2852 -1.6125
   14SAPS   C13 1736   1.518   3.403   1.852  0.6260 -0.0838 -0.1967
   14SAPS  O13A 1737   1.412   3.468   1.822  0.4724 -0.1811  0.4236
   14SAPS  O13B 1738   1.632   3.459   1.872 -0.3408 -0.0134  0.2923
   14SAPS   C11 1739   1.600   3.184   1.936 -0.2584  0.6986  0.4303
   14SAPS  H11A 1740   1.544   3.201   2.030  0.2479 -3.0093  1.5401
   14SAPS  H11B 1741   1.701   3.230   1.937  0.5809 -0.6586 -3.6602
   14SAPS     P 1742   1.651   2.942   2.022 -0.0187 -0.2365 -0.9119
   14SAPS   O13 1743   1.534   2.896   2.090 -0.0737 -0.5696 -1.3798
   14SAPS   O14 1744   1.739   2.833   1.962  0.7146  0.0015 -0.8030
   14SAPS   O12 1745   1.609   3.038   1.906  0.6839 -0.0174 -0.2702
   14SAPS   O11 1746   1.729   3.039   2.120  0.3653 -0.7558  0.3599
   14SAPS    C1 1747   1.840   2.993   2.193  0.9144  0.5371 -0.0657
   14SAPS    HA 1748   1.902   2.920   2.136 -0.8639 -0.1859 -1.1598
   14SAPS    HB 1749   1.907   3.078   2.218 -0.2368  0.8988  2.0173
   14SAPS    C2 1750   1.802   2.931   2.333 -1.3020 -0.8860  0.0529
   14SAPS    HS 1751   1.899   2.925   2.386  0.2623  1.9269 -2.2252
   14SAPS   O21 1752   1.732   2.807   2.324  0.3712 -0.2752  0.0084
   14SAPS   C21 1753   1.801   2.700   2.342 -0.7711 -0.1960  0.9459
   14SAPS   O22 1754   1.923   2.693   2.343 -0.0329 -1.1284  0.4863
   14SAPS   C22 1755   1.719   2.574   2.368 -0.7236 -0.1734  0.7008
   14SAPS   H2R 1756   1.609   2.584   2.351 -0.5175  0.4981 -0.3349
   14SAPS   H2S 1757   1.759   2.499   2.295 -2.2613  0.4161 -0.8402
   14SAPS    C3 1758   1.712   3.024   2.408  0.5509  0.0319 -0.0013
   14SAPS    HX 1759   1.635   3.053   2.333 -1.7384 -2.1047  1.3387
   14SAPS    HY 1760   1.766   3.116   2.440 -0.0482  0.9383 -1.5024
   14SAPS   O31 1761   1.640   2.965   2.519  0.0167 -0.6200 -0.1714
   14SAPS   C31 1762   1.712   2.944   2.629  0.0275 -0.3507  0.3867
   14SAPS   O32 1763   1.829   2.984   2.637  0.0935  0.3239  0.0819
   14SAPS   C32 1764   1.637   2.863   2.736  0.1348 -0.1622 -0.1194
   14SAPS   H2X 1765   1.581   2.787   2.677  0.4033 -1.3582  1.1020
   14SAPS   H2Y 1766   1.562   2.930   2.784  0.5637 -0.5919  1.2086
   14SAPS   C23 1767   1.751   2.510   2.503 -0.0525 -0.7541  0.0574
   14SAPS   H3R 1768   1.704   2.572   2.582  2.2147 -0.7221  1.4602
   14SAPS   H3S 1769   1.862   2.516   2.511  0.0566 -2.0215 -0.3688
   14SAPS   C24 1770   1.706   2.369   2.517  0.6971  1.6849  0.2560
   14SAPS   H4R 1771   1.750   2.331   2.612  0.6073  0.0757 -0.3073
   14SAPS   H4S 1772   1.750   2.320   2.428  2.3373  1.5194  1.1147
   14SAPS   C25 1773   1.562   2.342   2.523  0.1470 -0.8134 -0.4918
   14SAPS   H5R 1774   1.509   2.314   2.431  1.1058 -0.9227 -1.0173
   14SAPS   C26 1775   1.492   2.356   2.638 -0.4573  0.2963  0.3697
   14SAPS   H6R 1776   1.383   2.350   2.627 -0.4593 -1.5683  1.0543
   14SAPS   C27 1777   1.545   2.377   2.783  0.1808  0.3890 -0.8556
   14SAPS   H7R 1778   1.460   2.432   2.828 -0.6530 -0.1945 -1.6832
   14SAPS   H7S 1779   1.642   2.431   2.779  1.0191 -1.1175 -1.7157
   14SAPS   C28 1780   1.539   2.236   2.843  0.4673 -0.0387  0.5988
   14SAPS   H8R 1781   1.445   2.182   2.823  0.1424  0.6449  0.2648
   14SAPS   C29 1782   1.640   2.179   2.908 -0.7488 -0.3180  0.0475
   14SAPS   H9R 1783   1.620   2.076   2.940 -2.2593 -0.4752 -1.2377
   14SAPS  C210 1784   1.776   2.233   2.945 -0.4312 -0.0382  0.3592
   14SAPS  H10R 1785   1.797   2.235   3.054 -2.6606  1.5951  0.8042
   14SAPS  H10S 1786   1.782   2.340   2.915  0.7280 -0.0473  0.5106
   14SAPS  C211 1787   1.888   2.176   2.861  0.3961  0.0673 -0.8956
   14SAPS  H11R 1788   1.900   2.211   2.757  0.9501  0.8036 -0.5932
   14SAPS  C212 1789   1.991   2.099   2.896  0.4105 -0.1750  1.3932
   14SAPS  H12R 1790   2.067   2.082   2.818 -1.6489  0.9518 -1.0157
   14SAPS  C213 1791   2.026   2.066   3.034 -0.2433 -0.1615 -0.2997
   14SAPS  H13R 1792   1.951   2.109   3.103 -0.6728 -1.4923  0.0755
   14SAPS  H13S 1793   2.129   2.102   3.056 -0.7441  2.9757 -2.3227
   14SAPS  C214 1794   2.024   1.917   3.069 -0.6496 -0.2479  0.5387
   14SAPS  H14R 1795   2.052   1.848   2.988 -1.5052  0.6019 -0.5313
   14SAPS  C215 1796   2.010   1.877   3.198  0.1382  0.3987 -0.0773
   14SAPS  H15R 1797   1.980   1.773   3.218  1.0409  0.3363  0.9981
   14SAPS  C216 1798   1.979   1.971   3.308 -0.4454  0.6235 -0.2350
   14SAPS  H16R 1799   1.871   1.974   3.336 -0.5635  0.0561 -0.6268
   14SAPS  H16S 1800   2.008   2.076   3.286 -2.8389  1.3087 -0.3900
   14SAPS  C217 1801   2.059   1.943   3.442 -0.0219  0.1388  0.4834
   14SAPS  H17R 1802   2.030   1.848   3.492 -0.0955 -0.5243 -0.7907
   14SAPS  H17S 1803   2.024   2.020   3.514 -1.0653  0.9594 -0.8548
   14SAPS  C218 1804   2.202   1.941   3.405 -0.6045  0.7089 -0.0670
   14SAPS  H18R 1805   2.223   2.027   3.339  0.8970 -0.0807 -0.6744
   14SAPS  H18S 1806   2.230   1.844   3.358  1.5188  0.8790  0.7240
   14SAPS  C219 1807   2.307   1.970   3.520 -0.2768  0.0963  0.1319
   14SAPS  H19R 1808   2.273   2.053   3.585 -0.2967 -0.8873  1.4088
   14SAPS  H19S 1809   2.400   1.999   3.466  0.8620 -4.0039 -0.4410
   14SAPS  C220 1810   2.348   1.848   3.603 -0.1664  0.2301  0.1297
   14SAPS  H20R 1811   2.398   1.767   3.545  0.2034  0.3565  0.2685
   14SAPS  H20S 1812   2.262   1.796   3.649 -0.3919 -1.5168 -2.0541
   14SAPS  H20T 1813   2.418   1.890   3.678 -1.8842  1.9337  0.8768
   14SAPS   C33 1814   1.730   2.796   2.836  1.3913 -0.5717 -0.3817
   14SAPS   H3X 1815   1.780   2.877   2.893  0.0905 -0.6543  0.9368
   14SAPS   H3Y 1816   1.801   2.728   2.784 -0.0806 -2.0383 -0.5784
   14SAPS   C34 1817   1.656   2.712   2.945 -0.0771 -0.6792  0.1413
   14SAPS   H4X 1818   1.596   2.633   2.896 -2.4199  0.3780  1.1467
   14SAPS   H4Y 1819   1.583   2.788   2.981  0.1626 -0.5215  0.2979
   14SAPS   C35 1820   1.741   2.662   3.064 -0.7199 -0.6054 -0.6679
   14SAPS   H5X 1821   1.815   2.740   3.091 -0.5525 -0.7276 -0.7734
   14SAPS   H5Y 1822   1.800   2.570   3.045  4.4695  2.4146 -1.0896
   14SAPS   C36 1823   1.651   2.643   3.193 -0.1916 -0.5192 -0.2241
   14SAPS   H6X 1824   1.581   2.560   3.167  0.1045 -1.2728  1.2739
   14SAPS   H6Y 1825   1.582   2.730   3.202  2.0003  1.4494 -1.3859
   14SAPS   C37 1826   1.738   2.628   3.326  0.1356  0.1372  0.4803
   14SAPS   H7X 1827   1.809   2.713   3.337 -0.2342  0.6337 -0.7728
   14SAPS   H7Y 1828   1.779   2.525   3.334 -1.2908 -0.5185 -0.1831
   14SAPS   C38 1829   1.654   2.631   3.453  0.1832  0.1332  0.1746
   14SAPS   H8X 1830   1.576   2.552   3.447  0.9732 -0.6297 -0.4069
   14SAPS   H8Y 1831   1.608   2.732   3.450  0.8974  0.4814 -2.9908
   14SAPS   C39 1832   1.738   2.609   3.582  0.3938 -0.3041 -0.1035
   14SAPS   H9X 1833   1.822   2.680   3.575 -0.9471  1.4444  0.8472
   14SAPS   H9Y 1834   1.774   2.504   3.588 -2.5115 -1.4711 -0.8602
   14SAPS  C310 1835   1.647   2.640   3.702 -1.3039  0.3028 -0.3430
   14SAPS  H10X 1836   1.547   2.594   3.688 -0.9738 -0.1882 -1.1274
   14SAPS  H10Y 1837   1.637   2.751   3.704  1.0746  0.5712 -0.1632
   14SAPS  C311 1838   1.713   2.595   3.835  0.3980 -0.6140 -0.4298
   14SAPS  H11X 1839   1.815   2.640   3.836  0.4130 -0.3658 -3.3781
   14SAPS  H11Y 1840   1.730   2.485   3.847  0.3492 -0.6641 -0.8120
   14SAPS  C312 1841   1.636   2.654   3.952  0.6772  0.2092  0.3681
   14SAPS  H12X 1842   1.547   2.588   3.959  1.3833 -0.6527  1.3686
   14SAPS  H12Y 1843   1.609   2.761   3.934  1.5364  0.3146 -0.3507
   14SAPS  C313 1844   1.715   2.647   4.085  0.1344 -0.4183  0.3280
   14SAPS  H13X 1845   1.761   2.547   4.098 -2.7813 -1.5730  3.1405
   14SAPS  H13Y 1846   1.646   2.644   4.172  0.8216  0.7909  0.9326
   14SAPS  C314 1847   1.819   2.765   4.100  0.0309 -0.3218 -0.4212
   14SAPS  H14X 1848   1.771   2.863   4.079 -0.0536 -0.2544  0.0615
   14SAPS  H14Y 1849   1.901   2.737   4.031  2.4334 -1.0598  2.4821
   14SAPS  C315 1850   1.879   2.782   4.241 -0.5467  0.4487 -0.4339
   14SAPS  H15X 1851   1.981   2.824   4.240 -0.0723 -0.6595 -0.8676
   14SAPS  H15Y 1852   1.890   2.680   4.282 -1.5506 -0.1585 -1.5818
   14SAPS  C316 1853   1.793   2.847   4.351 -0.2048  0.1720  0.7885
   14SAPS  H16X 1854   1.846   2.827   4.447  2.0061 -0.1674 -0.4200
   14SAPS  H16Y 1855   1.692   2.803   4.339 -0.0620  0.2101 -0.7568
   14SAPS  C317 1856   1.797   2.993   4.332  1.0809 -0.0800 -0.4265
   14SAPS  H17X 1857   1.775   3.012   4.224 -0.9744 -0.9678 -0.2033
   14SAPS  H17Y 1858   1.902   3.024   4.351  0.6199  1.0431  0.3953
   14SAPS  C318 1859   1.693   3.075   4.421  0.0735  0.4809 -0.9946
   14SAPS  H18X 1860   1.592   3.028   4.432  1.3199 -2.2205 -0.1331
   14SAPS  H18Y 1861   1.695   3.181   4.387  0.3618  0.2315 -1.7856
   14SAPS  H18Z 1862   1.735   3.082   4.523  0.6840  0.5645 -1.2500
   15SAPS     N 1863   5.425   0.592   2.206  0.7398 -0.5164 -0.0044
   15SAPS   HN1 1864   5.483   0.678   2.209  1.2668 -0.8373 -0.7088
   15SAPS   HN2 1865   5.332   0.635   2.190  0.1901 -1.1372  1.3441
   15SAPS   HN3 1866   5.431   0.544   2.298 -0.3301 -0.6589  0.0050
   15SAPS   C12 1867   5.465   0.489   2.108 -0.0312  0.7704 -0.0237
   15SAPS  H12A 1868   5.412   0.395   2.108  3.4080 -1.3812 -1.8646
   15SAPS   C13 1869   5.466   0.539   1.959  0.1440 -0.2169 -0.8855
   15SAPS  O13A 1870   5.446   0.658   1.942 -0.5674 -0.7072  0.5825
   15SAPS  O13B 1871   5.508   0.460   1.870 -0.4418 -1.9102  0.0384
   15SAPS   C11 1872   5.607   0.440   2.141  0.8561  0.2980  0.4348
   15SAPS  H11A 1873   5.681   0.523   2.137  2.1779 -0.6061  3.4313
   15SAPS  H11B 1874   5.650   0.372   2.064  2.3030 -0.8178  2.1391
   15SAPS     P 1875   5.757   0.356   2.330 -0.1880  0.2803  0.3735
   15SAPS   O13 1876   5.738   0.292   2.462  0.4823 -0.1498 -0.1992
   15SAPS   O14 1877   5.846   0.293   2.231  0.1012 -0.2956  0.2053
   15SAPS   O12 1878   5.612   0.377   2.270  0.0851  0.4126 -0.1794
   15SAPS   O11 1879   5.803   0.506   2.345 -0.3751 -0.6944 -0.1180
   15SAPS    C1 1880   5.731   0.596   2.431  0.8780 -0.1687 -0.3076
   15SAPS    HA 1881   5.637   0.635   2.387  0.9812 -0.4861 -0.8215
   15SAPS    HB 1882   5.704   0.546   2.527  2.1291 -0.4065 -0.0500
   15SAPS    C2 1883   5.818   0.717   2.484  0.5618 -0.5165 -0.1179
   15SAPS    HS 1884   5.867   0.749   2.389  1.0228 -0.1958  0.2294
   15SAPS   O21 1885   5.917   0.655   2.569 -0.1867  0.6302  0.2477
   15SAPS   C21 1886   6.037   0.710   2.565  0.4366  0.7009  0.0531
   15SAPS   O22 1887   6.081   0.790   2.489  0.5165 -0.8256 -0.2742
   15SAPS   C22 1888   6.125   0.656   2.684  0.0467 -0.4220  0.7286
   15SAPS   H2R 1889   6.076   0.687   2.779 -0.4931  2.3474 -0.3670
   15SAPS   H2S 1890   6.124   0.545   2.675  0.8100 -0.4093  0.4190
   15SAPS    C3 1891   5.757   0.839   2.553 -0.0834 -0.5497  0.1774
   15SAPS    HX 1892   5.678   0.864   2.479  0.5316  0.1280 -0.2720
   15SAPS    HY 1893   5.839   0.913   2.565  0.3959 -1.0875  0.2510
   15SAPS   O31 1894   5.710   0.795   2.675 -0.5157 -0.4944  0.5869
   15SAPS   C31 1895   5.581   0.760   2.682  0.5002 -0.4611  0.3350
   15SAPS   O32 1896   5.495   0.776   2.597 -0.0697  0.7263  0.1505
   15SAPS   C32 1897   5.558   0.677   2.808  0.3275  0.4234 -0.2639
   15SAPS   H2X 1898   5.498   0.722   2.890  0.0392  1.8828 -1.2442
   15SAPS   H2Y 1899   5.656   0.667   2.859 -0.1503  2.6151  1.2666
   15SAPS   C23 1900   6.269   0.700   2.656  0.0690 -0.4097  0.0443
   15SAPS   H3R 1901   6.264   0.810   2.641  0.4710 -0.2676  0.9054
   15SAPS   H3S 1902   6.315   0.650   2.568  1.2225 -0.3054  0.5646
   15SAPS   C24 1903   6.360   0.668   2.780  0.0862  0.3015  0.8100
   15SAPS   H4R 1904   6.390   0.562   2.788 -2.3896 -0.7865 -2.2771
   15SAPS   H4S 1905   6.313   0.688   2.879 -0.4170 -1.8990  1.0507
   15SAPS   C25 1906   6.497   0.740   2.767  0.7432 -0.0918 -0.2929
   15SAPS   H5R 1907   6.531   0.760   2.665  0.6193 -0.4923 -0.4141
   15SAPS   C26 1908   6.578   0.786   2.862  0.7874  0.2478 -0.5714
   15SAPS   H6R 1909   6.679   0.824   2.839  1.6332 -1.8706 -0.5468
   15SAPS   C27 1910   6.545   0.777   3.008 -0.0376  0.3537  0.7170
   15SAPS   H7R 1911   6.605   0.691   3.045  0.7920  0.1208 -1.0607
   15SAPS   H7S 1912   6.440   0.755   3.037  1.0398 -2.4974  2.8753
   15SAPS   C28 1913   6.602   0.899   3.085 -0.1360 -0.0247 -0.3441
   15SAPS   H8R 1914   6.696   0.940   3.046 -0.0647  0.1863  0.0523
   15SAPS   C29 1915   6.564   0.943   3.205  0.2171 -0.1130  0.3955
   15SAPS   H9R 1916   6.620   1.026   3.250 -0.5557  0.1636  0.8854
   15SAPS  C210 1917   6.450   0.895   3.296  0.0553 -0.4315  0.3479
   15SAPS  H10R 1918   6.375   0.842   3.233  0.5548  0.3479 -0.9181
   15SAPS  H10S 1919   6.408   0.991   3.333  1.7581 -0.0425  1.3702
   15SAPS  C211 1920   6.501   0.824   3.422 -0.0235 -0.3185 -0.3016
   15SAPS  H11R 1921   6.539   0.894   3.498  1.9741 -0.0873 -1.4537
   15SAPS  C212 1922   6.501   0.693   3.460  0.3414 -0.0879 -0.3878
   15SAPS  H12R 1923   6.535   0.669   3.562  0.7621  1.4546 -0.1287
   15SAPS  C213 1924   6.447   0.577   3.377 -0.1033  0.1283 -0.5386
   15SAPS  H13R 1925   6.400   0.611   3.282  3.1592 -0.0630 -2.3567
   15SAPS  H13S 1926   6.375   0.514   3.433  1.6356 -1.5477 -0.0927
   15SAPS  C214 1927   6.559   0.477   3.339  0.7086  0.4330  0.5206
   15SAPS  H14R 1928   6.663   0.496   3.371  0.2622  0.1936  2.2071
   15SAPS  C215 1929   6.532   0.370   3.263 -0.5227 -0.2528  0.1323
   15SAPS  H15R 1930   6.617   0.303   3.241  0.1292  1.0698 -1.5859
   15SAPS  C216 1931   6.395   0.321   3.213 -0.3009 -0.7625  0.5154
   15SAPS  H16R 1932   6.308   0.358   3.271 -1.4308 -0.7240 -1.1348
   15SAPS  H16S 1933   6.386   0.210   3.221 -0.3102 -0.6562  2.4357
   15SAPS  C217 1934   6.354   0.332   3.063  0.2147 -0.1846 -0.0452
   15SAPS  H17R 1935   6.338   0.440   3.043 -4.2578 -0.6597  0.0158
   15SAPS  H17S 1936   6.250   0.293   3.061 -0.8172  2.0413  3.1537
   15SAPS  C218 1937   6.461   0.275   2.963  0.1375 -0.6244  0.3775
   15SAPS  H18R 1938   6.474   0.169   2.996  1.2396 -0.2860  1.0617
   15SAPS  H18S 1939   6.561   0.320   2.977 -0.1476 -0.6922  3.0795
   15SAPS  C219 1940   6.413   0.257   2.815 -0.6143  0.0489 -0.6636
   15SAPS  H19R 1941   6.378   0.357   2.779  1.6919  2.3122  2.7244
   15SAPS  H19S 1942   6.324   0.191   2.811 -1.3386  0.5459  3.0346
   15SAPS  C220 1943   6.523   0.195   2.724  0.0236  0.4562  0.1587
   15SAPS  H20R 1944   6.477   0.166   2.627  0.0741  1.1024 -0.0676
   15SAPS  H20S 1945   6.569   0.104   2.768 -1.0947 -0.1064  0.1901
   15SAPS  H20T 1946   6.604   0.269   2.704 -0.0946  0.3569 -0.7195
   15SAPS   C33 1947   5.513   0.533   2.773 -0.0369  0.1259 -0.1324
   15SAPS   H3X 1948   5.589   0.493   2.704 -0.3021 -0.9234  0.1577
   15SAPS   H3Y 1949   5.421   0.537   2.711  0.3408 -2.4766 -0.9532
   15SAPS   C34 1950   5.518   0.440   2.893  0.3039  0.1075  0.6315
   15SAPS   H4X 1951   5.622   0.451   2.931  1.0321  0.4256 -1.3394
   15SAPS   H4Y 1952   5.494   0.333   2.873  0.4367  0.0633  0.7065
   15SAPS   C35 1953   5.435   0.473   3.017  0.1427 -0.0928  0.1141
   15SAPS   H5X 1954   5.326   0.459   3.000 -0.3489  0.5126  2.5192
   15SAPS   H5Y 1955   5.453   0.574   3.060  1.7150 -0.2913 -0.0131
   15SAPS   C36 1956   5.484   0.383   3.127 -0.4929  0.0349 -0.6765
   15SAPS   H6X 1957   5.592   0.404   3.142 -0.2903 -1.3137 -0.0742
   15SAPS   H6Y 1958   5.481   0.278   3.090  2.7762 -0.0405 -1.0437
   15SAPS   C37 1959   5.412   0.386   3.255  0.2346  0.1006 -0.2761
   15SAPS   H7X 1960   5.304   0.364   3.243  0.3260 -0.8724  0.6253
   15SAPS   H7Y 1961   5.420   0.491   3.292 -1.1746  0.5768 -1.2426
   15SAPS   C38 1962   5.464   0.283   3.366 -0.4318  0.1646 -0.2652
   15SAPS   H8X 1963   5.573   0.303   3.375 -0.3601 -0.5304  0.4506
   15SAPS   H8Y 1964   5.453   0.175   3.345  0.6241 -0.3154  1.4867
   15SAPS   C39 1965   5.408   0.308   3.508  0.1754 -0.6826  0.1899
   15SAPS   H9X 1966   5.300   0.283   3.503 -0.3476  1.2618  0.9377
   15SAPS   H9Y 1967   5.412   0.419   3.518  0.5107 -0.7297  0.5888
   15SAPS  C310 1968   5.463   0.243   3.640 -0.1554  0.3379  0.2325
   15SAPS  H10X 1969   5.573   0.263   3.642 -0.1705  0.6325 -1.0291
   15SAPS  H10Y 1970   5.447   0.133   3.638 -1.1986  0.4512  1.1646
   15SAPS  C311 1971   5.403   0.312   3.762 -0.4275  0.3222  0.2641
   15SAPS  H11X 1972   5.303   0.268   3.779 -0.5867  0.0106 -1.3258
   15SAPS  H11Y 1973   5.392   0.422   3.749 -0.9789  0.3723  1.0838
   15SAPS  C312 1974   5.488   0.283   3.894  0.1003 -0.1299  0.1537
   15SAPS  H12X 1975   5.425   0.328   3.974 -0.4069  2.7185 -1.7146
   15SAPS  H12Y 1976   5.585   0.334   3.880  1.0521 -1.8540  0.2452
   15SAPS  C313 1977   5.520   0.141   3.925 -0.5062 -0.0515 -0.5481
   15SAPS  H13X 1978   5.574   0.100   3.838  0.4728 -1.6122  0.7380
   15SAPS  H13Y 1979   5.428   0.079   3.933 -0.4963 -0.0887 -0.7229
   15SAPS  C314 1980   5.600   0.112   4.050 -0.2176  0.1704 -0.6931
   15SAPS  H14X 1981   5.650   0.201   4.096 -1.1147 -0.6094  2.0208
   15SAPS  H14Y 1982   5.679   0.035   4.039  1.0678  1.0635  1.5054
   15SAPS  C315 1983   5.517   0.045   4.155  0.0319  0.9141  0.0200
   15SAPS  H15X 1984   5.586   0.010   4.235  0.1754 -1.0503 -0.8984
   15SAPS  H15Y 1985   5.459  -0.038   4.109  0.8594 -0.3550  1.1720
   15SAPS  C316 1986   5.422   0.134   4.231 -0.3482  0.1136  0.0631
   15SAPS  H16X 1987   5.348   0.168   4.155  0.0752  0.9988  0.0357
   15SAPS  H16Y 1988   5.477   0.220   4.275  1.7547 -0.3413 -1.5530
   15SAPS  C317 1989   5.349   0.047   4.329 -0.0684 -0.1347 -0.0309
   15SAPS  H17X 1990   5.416  -0.008   4.398  0.6983 -0.9228 -1.3458
   15SAPS  H17Y 1991   5.292  -0.028   4.269  0.3434 -2.6580  2.5332
   15SAPS  C318 1992   5.242   0.119   4.420  0.6207  0.2174 -0.2023
   15SAPS  H18X 1993   5.253   0.230   4.413  0.8698  0.1826 -0.4177
   15SAPS  H18Y 1994   5.239   0.086   4.526 -1.1080  1.2551  0.1048
   15SAPS  H18Z 1995   5.151   0.090   4.363  0.4124 -2.0637  1.1832
   16SAPS     N 1996   1.846   5.004   2.402 -0.1506 -1.1295  0.0413
   16SAPS   HN1 1997   1.871   5.091   2.454  2.8094 -1.6015 -0.4182
   16SAPS   HN2 1998   1.801   4.939   2.470 -0.7294  0.6459  1.4591
   16SAPS   HN3 1999   1.933   4.960   2.366  2.5714  1.1577  3.1381
   16SAPS   C12 2000   1.760   5.055   2.296  0.0068  0.2546 -0.3586
   16SAPS  H12A 2001   1.682   5.116   2.338  1.1823 -0.0984  2.5630
   16SAPS   C13 2002   1.822   5.133   2.180 -0.6615 -0.3826  0.7673
   16SAPS  O13A 2003   1.942   5.164   2.171 -0.3794  0.1603  0.0626
   16SAPS  O13B 2004   1.750   5.159   2.084 -0.2952  0.5063  0.7236
   16SAPS   C11 2005   1.685   4.937   2.244 -0.1873  0.6588 -0.0077
   16SAPS  H11A 2006   1.756   4.870   2.192 -0.4326 -1.6615  2.4057
   16SAPS  H11B 2007   1.610   4.963   2.166  0.5698 -0.7570 -1.2537
   16SAPS     P 2008   1.554   4.721   2.320  0.0219 -0.2108  0.3864
   16SAPS   O13 2009   1.424   4.719   2.396  0.4625 -0.3240 -0.6433
   16SAPS   O14 2010   1.545   4.687   2.177  0.2227  0.1717  0.0679
   16SAPS   O12 2011   1.615   4.866   2.348  0.4846 -0.8748 -0.1902
   16SAPS   O11 2012   1.643   4.617   2.391 -0.1046 -0.1937  0.0545
   16SAPS    C1 2013   1.679   4.636   2.529 -0.1308 -0.4836 -0.6268
   16SAPS    HA 2014   1.778   4.591   2.549 -0.6545 -1.4460 -0.0886
   16SAPS    HB 2015   1.696   4.742   2.555  1.2895  0.1668 -3.6990
   16SAPS    C2 2016   1.589   4.566   2.634 -0.1174 -0.4910 -0.5142
   16SAPS    HS 2017   1.486   4.608   2.625  0.6018  1.6609  0.6738
   16SAPS   O21 2018   1.638   4.582   2.769  0.0241 -0.0712  0.7304
   16SAPS   C21 2019   1.636   4.702   2.809  0.4262 -0.1050 -0.8359
   16SAPS   O22 2020   1.581   4.798   2.757  0.6568 -0.4167 -0.1916
   16SAPS   C22 2021   1.728   4.705   2.930 -0.4215  0.4902  0.3088
   16SAPS   H2R 2022   1.707   4.610   2.985  1.5469  0.0268  0.3385
   16SAPS   H2S 2023   1.834   4.723   2.902 -1.3648  2.7917 -2.2085
   16SAPS    C3 2024   1.565   4.416   2.603  0.3684  0.3643 -0.0237
   16SAPS    HX 2025   1.668   4.383   2.577  1.9237  4.1772  0.5377
   16SAPS    HY 2026   1.506   4.417   2.509 -2.3712 -2.1065  1.5237
   16SAPS   O31 2027   1.513   4.339   2.714  0.1365  0.0930 -0.2725
   16SAPS   C31 2028   1.375   4.325   2.721 -0.1120  0.8858  0.2915
   16SAPS   O32 2029   1.302   4.358   2.625 -0.2268  0.1655  0.7053
   16SAPS   C32 2030   1.328   4.257   2.852  1.1510 -0.2996  0.2458
   16SAPS   H2X 2031   1.358   4.151   2.854  0.2232 -0.5727  0.1888
   16SAPS   H2Y 2032   1.220   4.240   2.831  1.1105  2.0505 -1.9803
   16SAPS   C23 2033   1.705   4.816   3.039  0.2985 -0.4011 -0.0785
   16SAPS   H3R 2034   1.599   4.829   3.071  0.4748  3.6737 -0.5953
   16SAPS   H3S 2035   1.727   4.905   2.977 -2.2772 -0.5122 -1.2670
   16SAPS   C24 2036   1.803   4.801   3.162  0.3077  1.0229 -0.6456
   16SAPS   H4R 2037   1.830   4.904   3.194  1.1006  0.3641  0.9322
   16SAPS   H4S 2038   1.897   4.754   3.126  0.5362  0.8717  0.1348
   16SAPS   C25 2039   1.744   4.722   3.278 -0.2064 -1.1934 -0.3323
   16SAPS   H5R 2040   1.673   4.642   3.252 -1.6002 -0.2444  0.3824
   16SAPS   C26 2041   1.760   4.759   3.404 -0.2707  1.1703  0.4018
   16SAPS   H6R 2042   1.711   4.700   3.482  0.0845 -0.1161 -0.3215
   16SAPS   C27 2043   1.849   4.868   3.464  0.0038 -0.2213 -1.0232
   16SAPS   H7R 2044   1.799   4.933   3.538  3.1874  0.6345  0.5663
   16SAPS   H7S 2045   1.891   4.943   3.393  1.3013 -0.6191 -0.7051
   16SAPS   C28 2046   1.968   4.799   3.523 -0.0193 -0.3523 -0.3527
   16SAPS   H8R 2047   2.008   4.718   3.461  1.4668  1.5520 -2.0335
   16SAPS   C29 2048   2.014   4.821   3.652  0.0196  0.5587 -0.4254
   16SAPS   H9R 2049   2.104   4.764   3.682  0.8120  1.2764 -1.3717
   16SAPS  C210 2050   1.961   4.928   3.745 -0.7314  0.4627  0.3193
   16SAPS  H10R 2051   1.871   4.888   3.797 -0.2502  0.2274  0.9988
   16SAPS  H10S 2052   1.908   5.000   3.680 -1.0859  0.7769  0.9453
   16SAPS  C211 2053   2.053   4.987   3.844 -0.4650  0.2415 -0.3508
   16SAPS  H11R 2054   2.113   5.074   3.811  0.0692  0.7774  1.8262
   16SAPS  C212 2055   2.037   4.974   3.975 -0.7041 -0.2333  0.1595
   16SAPS  H12R 2056   2.117   5.019   4.035 -1.4252  0.6358  0.4986
   16SAPS  C213 2057   1.932   4.900   4.059 -0.8112 -1.0750  0.5576
   16SAPS  H13R 2058   1.875   4.830   3.996 -3.0253 -0.7500  2.0829
   16SAPS  H13S 2059   1.848   4.964   4.094  0.3617 -0.0831  1.6810
   16SAPS  C214 2060   2.004   4.838   4.183  0.2436  0.4881  0.7575
   16SAPS  H14R 2061   2.075   4.766   4.139 -0.9246  1.8675 -3.9512
   16SAPS  C215 2062   1.975   4.839   4.317 -0.4909 -0.1805  0.0440
   16SAPS  H15R 2063   2.036   4.792   4.395  1.2865  2.0226  0.1020
   16SAPS  C216 2064   1.854   4.911   4.371 -0.8363 -0.2424  0.4072
   16SAPS  H16R 2065   1.838   5.018   4.347 -0.5085  0.3426  2.5239
   16SAPS  H16S 2066   1.876   4.907   4.480 -3.7408  0.3292  1.1083
   16SAPS  C217 2067   1.721   4.839   4.346 -0.0353 -0.0075  0.8076
   16SAPS  H17R 2068   1.729   4.731   4.371 -1.8657 -1.1630 -2.8125
   16SAPS  H17S 2069   1.689   4.854   4.241  1.3373 -0.2477  0.3317
   16SAPS  C218 2070   1.609   4.897   4.430  0.6740  0.3946 -0.1827
   16SAPS  H18R 2071   1.510   4.888   4.382  0.8254 -0.6361 -0.3232
   16SAPS  H18S 2072   1.630   5.006   4.445 -0.5905  0.2872  3.1113
   16SAPS  C219 2073   1.587   4.847   4.578  0.1845  0.3506  0.4168
   16SAPS  H19R 2074   1.678   4.788   4.600 -0.3276 -0.4973  0.3354
   16SAPS  H19S 2075   1.496   4.783   4.577  0.3978  0.0015  1.9733
   16SAPS  C220 2076   1.565   4.962   4.676  0.1320  0.0516 -0.1365
   16SAPS  H20R 2077   1.464   5.005   4.659 -0.2550 -0.9634 -0.4481
   16SAPS  H20S 2078   1.641   5.040   4.654  1.1684 -1.0345 -0.4966
   16SAPS  H20T 2079   1.585   4.922   4.777  1.3562 -2.1209 -1.1791
   16SAPS   C33 2080   1.376   4.323   2.978 -0.5215  0.4677 -0.6724
   16SAPS   H3X 2081   1.482   4.356   2.974 -0.7114  0.9963 -1.5845
   16SAPS   H3Y 2082   1.361   4.249   3.060  1.5899 -0.9377 -1.4470
   16SAPS   C34 2083   1.307   4.455   3.011 -0.0804  1.3085 -0.4083
   16SAPS   H4X 2084   1.198   4.449   3.032 -0.0022  0.3244 -0.2305
   16SAPS   H4Y 2085   1.316   4.509   2.914 -0.7953  0.4551 -0.9655
   16SAPS   C35 2086   1.371   4.531   3.133 -0.1557  0.2027  0.6804
   16SAPS   H5X 2087   1.320   4.630   3.137  2.1605  1.4364  1.3446
   16SAPS   H5Y 2088   1.478   4.557   3.124  0.0490 -1.0619 -0.9271
   16SAPS   C36 2089   1.341   4.466   3.267  0.0721 -1.0428 -0.8257
   16SAPS   H6X 2090   1.408   4.379   3.276  2.2144  0.6665  0.8577
   16SAPS   H6Y 2091   1.235   4.433   3.274 -0.1656 -0.1225  0.2784
   16SAPS   C37 2092   1.372   4.557   3.391  0.1532 -0.1557 -0.4275
   16SAPS   H7X 2093   1.278   4.604   3.428  0.4022 -0.5215  0.7198
   16SAPS   H7Y 2094   1.438   4.641   3.360  0.9546  0.7673  3.2528
   16SAPS   C38 2095   1.432   4.494   3.511 -0.3175  0.0115  0.0601
   16SAPS   H8X 2096   1.532   4.456   3.483 -0.1502 -0.8400  1.7036
   16SAPS   H8Y 2097   1.376   4.402   3.541  0.0164 -0.0347  0.5474
   16SAPS   C39 2098   1.450   4.580   3.640  0.3185  0.4324 -0.2854
   16SAPS   H9X 2099   1.477   4.684   3.612  0.1341  1.3729  2.6862
   16SAPS   H9Y 2100   1.542   4.552   3.695 -0.4012 -0.8610  0.3234
   16SAPS  C310 2101   1.323   4.581   3.730  0.0471 -0.2090 -0.6850
   16SAPS  H10X 2102   1.279   4.480   3.743 -4.6184  1.7085  0.5370
   16SAPS  H10Y 2103   1.238   4.640   3.688 -0.6075  0.2645  1.2096
   16SAPS  C311 2104   1.342   4.643   3.873  0.0401 -0.9119  0.3289
   16SAPS  H11X 2105   1.252   4.611   3.931 -1.2944  2.4927  0.3996
   16SAPS  H11Y 2106   1.338   4.753   3.860 -0.7224 -1.1381 -1.6297
   16SAPS  C312 2107   1.456   4.596   3.958 -0.2107 -0.6787  0.3039
   16SAPS  H12X 2108   1.550   4.638   3.916 -0.3613 -0.4062  0.2406
   16SAPS  H12Y 2109   1.480   4.487   3.955  0.0866 -0.6018 -0.1409
   16SAPS  C313 2110   1.454   4.632   4.104  0.6121 -0.2155 -0.8554
   16SAPS  H13X 2111   1.405   4.732   4.110 -1.1622 -1.0726  4.5677
   16SAPS  H13Y 2112   1.554   4.659   4.142  0.3266 -0.3899  0.0360
   16SAPS  C314 2113   1.376   4.540   4.191 -0.3169 -0.4698  0.1796
   16SAPS  H14X 2114   1.392   4.433   4.164 -1.6674 -0.0821 -2.4568
   16SAPS  H14Y 2115   1.269   4.554   4.167 -0.4926 -1.8917  0.0581
   16SAPS  C315 2116   1.395   4.573   4.340  0.0442 -0.0971  0.0262
   16SAPS  H15X 2117   1.363   4.674   4.372 -0.7684 -1.2301  3.1585
   16SAPS  H15Y 2118   1.505   4.572   4.355 -0.0706  2.0702  1.4361
   16SAPS  C316 2119   1.322   4.484   4.440  0.1944  0.7376  0.3662
   16SAPS  H16X 2120   1.219   4.490   4.398  0.1866 -0.7363  0.1314
   16SAPS  H16Y 2121   1.332   4.536   4.538  0.8476  2.3918 -0.5477
   16SAPS  C317 2122   1.351   4.332   4.449  0.0618  1.4851  0.4592
   16SAPS  H17X 2123   1.331   4.280   4.353 -0.8725  0.9416  0.9448
   16SAPS  H17Y 2124   1.269   4.297   4.515  0.3240 -0.0319  0.0103
   16SAPS  C318 2125   1.492   4.288   4.496  0.4304 -0.5128  0.3671
   16SAPS  H18X 2126   1.522   4.334   4.593  2.6087 -1.2394  0.0934
   16SAPS  H18Y 2127   1.560   4.324   4.415  0.3179 -0.6192  0.2247
   16SAPS  H18Z 2128   1.514   4.183   4.523 -1.6591 -1.1558 -0.2196
   17SAPS     N 2129   3.899   3.454   2.250 -0.4882  0.0407 -0.3238
   17SAPS   HN1 2130   3.849   3.364   2.234 -0.9330  0.2456 -0.1224
   17SAPS   HN2 2131   3.852   3.494   2.334  1.0209  0.8437  0.1769
   17SAPS   HN3 2132   3.893   3.515   2.165  0.4720 -1.4041 -1.4791
   17SAPS   C12 2133   4.043   3.437   2.299  0.3176  0.9329 -0.3042
   17SAPS  H12A 2134   4.104   3.402   2.217  0.3918  2.7194 -1.0608
   17SAPS   C13 2135   4.103   3.568   2.336 -0.3569 -0.5771  0.3917
   17SAPS  O13A 2136   4.047   3.672   2.283 -0.5116 -0.3003 -1.0293
   17SAPS  O13B 2137   4.228   3.564   2.360 -0.0556  0.2462  0.2582
   17SAPS   C11 2138   4.040   3.332   2.420 -0.8806  0.4308  0.1759
   17SAPS  H11A 2139   3.978   3.370   2.504  1.0626  0.7810  1.5250
   17SAPS  H11B 2140   4.144   3.334   2.459 -0.1044 -0.1828 -1.7721
   17SAPS     P 2141   4.073   3.084   2.336  0.5426  0.1037 -0.0542
   17SAPS   O13 2142   4.001   3.023   2.223  0.7294 -0.1005 -0.7189
   17SAPS   O14 2143   4.213   3.133   2.308 -0.2907  0.1777  0.0784
   17SAPS   O12 2144   3.994   3.207   2.379  0.1618  0.2759  0.3054
   17SAPS   O11 2145   4.069   2.985   2.459 -0.1684 -1.2705 -0.2478
   17SAPS    C1 2146   3.984   2.992   2.573  0.3321  0.2883  0.6967
   17SAPS    HA 2147   3.894   3.056   2.559  2.1110  2.7380 -0.2369
   17SAPS    HB 2148   3.962   2.887   2.603  0.1750  0.0685 -0.1647
   17SAPS    C2 2149   4.041   3.079   2.688 -0.3922 -0.1218 -0.4482
   17SAPS    HS 2150   4.078   3.176   2.648 -0.7642 -0.5883 -1.9836
   17SAPS   O21 2151   4.147   2.995   2.740  0.6010  0.6406 -0.2616
   17SAPS   C21 2152   4.246   3.062   2.796 -0.7582 -0.0271  0.2433
   17SAPS   O22 2153   4.265   3.183   2.792 -0.1047  0.2324  0.0671
   17SAPS   C22 2154   4.333   2.972   2.885  0.3134 -0.3294 -0.9227
   17SAPS   H2R 2155   4.324   2.868   2.846  1.4243 -0.3277 -1.2331
   17SAPS   H2S 2156   4.439   3.001   2.867 -0.1494  0.8679 -1.9299
   17SAPS    C3 2157   3.932   3.101   2.800  0.8027 -0.0578  0.5526
   17SAPS    HX 2158   3.899   2.998   2.825  0.3092  0.6306  2.9220
   17SAPS    HY 2159   3.848   3.164   2.764 -0.3086 -0.7690  1.8345
   17SAPS   O31 2160   3.987   3.156   2.923  0.1766 -0.7446 -0.0646
   17SAPS   C31 2161   3.993   3.288   2.938  0.2712  0.2436 -0.1140
   17SAPS   O32 2162   3.947   3.370   2.860  0.2652  0.2594  0.0523
   17SAPS   C32 2163   4.085   3.313   3.060 -0.2392  0.0835 -0.1594
   17SAPS   H2X 2164   4.105   3.422   3.075  1.3901 -0.1907 -0.1644
   17SAPS   H2Y 2165   4.185   3.269   3.041  0.7053  1.0802  2.1159
   17SAPS   C23 2166   4.296   2.964   3.034  0.3709  0.5249  0.2805
   17SAPS   H3R 2167   4.186   2.967   3.046  0.4447  1.2208  0.8556
   17SAPS   H3S 2168   4.340   3.055   3.080 -1.0128  1.5653 -0.3978
   17SAPS   C24 2169   4.367   2.847   3.115  0.9157 -0.5340  0.4426
   17SAPS   H4R 2170   4.330   2.752   3.071  1.8883 -0.7026 -0.0268
   17SAPS   H4S 2171   4.322   2.850   3.217 -1.1489 -0.2424 -0.4167
   17SAPS   C25 2172   4.517   2.859   3.107 -0.1193  0.1127  0.3032
   17SAPS   H5R 2173   4.563   2.839   3.009  1.2927 -1.1830  1.1665
   17SAPS   C26 2174   4.594   2.887   3.214 -0.1678  0.0651  0.4502
   17SAPS   H6R 2175   4.703   2.883   3.195 -0.3616  0.3718 -0.7918
   17SAPS   C27 2176   4.555   2.926   3.347 -0.1565  0.0161 -0.7273
   17SAPS   H7R 2177   4.530   2.830   3.399 -2.0270 -0.1399 -1.8136
   17SAPS   H7S 2178   4.457   2.974   3.366  0.6987  0.6839  2.7835
   17SAPS   C28 2179   4.660   3.002   3.428  0.0162 -0.0849  0.2545
   17SAPS   H8R 2180   4.728   3.070   3.375 -1.6111  2.6673  1.5050
   17SAPS   C29 2181   4.668   2.997   3.563 -0.5366  0.3976  0.7074
   17SAPS   H9R 2182   4.738   3.070   3.607 -1.1214  1.4629 -0.0877
   17SAPS  C210 2183   4.583   2.911   3.651  0.5161  0.1479  0.0923
   17SAPS  H10R 2184   4.509   2.856   3.588  1.5058  0.6724 -1.6137
   17SAPS  H10S 2185   4.518   2.973   3.715  1.3106 -0.9783  2.0721
   17SAPS  C211 2186   4.657   2.806   3.732 -0.0393  0.2077  0.3780
   17SAPS  H11R 2187   4.703   2.725   3.673 -1.2650  0.3640 -0.8192
   17SAPS  C212 2188   4.678   2.821   3.870  0.9203  0.3907 -0.0953
   17SAPS  H12R 2189   4.718   2.738   3.929  1.1766  0.9940  0.6034
   17SAPS  C213 2190   4.622   2.932   3.959 -0.1533 -0.4338  0.6932
   17SAPS  H13R 2191   4.516   2.909   3.982 -0.2676  0.9109  1.6233
   17SAPS  H13S 2192   4.629   3.028   3.904  1.9276  0.0484  1.6956
   17SAPS  C214 2193   4.707   2.950   4.082 -0.6612  0.5825 -0.6105
   17SAPS  H14R 2194   4.813   2.925   4.068 -0.4462  2.1153 -2.0969
   17SAPS  C215 2195   4.667   2.977   4.207 -0.2603  0.4203  0.7161
   17SAPS  H15R 2196   4.754   2.993   4.273  1.3857  0.0668 -1.2598
   17SAPS  C216 2197   4.527   3.005   4.257 -0.5379 -0.3130 -0.5724
   17SAPS  H16R 2198   4.475   2.908   4.263 -0.4303 -0.2868  1.4125
   17SAPS  H16S 2199   4.460   3.044   4.178 -1.4607 -3.9062 -1.7078
   17SAPS  C217 2200   4.514   3.083   4.382  0.0321  0.3058 -1.0835
   17SAPS  H17R 2201   4.571   3.178   4.387 -1.3642  1.0992  1.6078
   17SAPS  H17S 2202   4.553   3.029   4.471  1.2429  1.4426 -0.9001
   17SAPS  C218 2203   4.361   3.118   4.411  0.4716  0.2447 -0.0775
   17SAPS  H18R 2204   4.302   3.023   4.412  0.4809  0.2251 -0.6471
   17SAPS  H18S 2205   4.318   3.189   4.337 -0.4417  1.1734  1.3093
   17SAPS  C219 2206   4.345   3.176   4.551  0.0709  0.8482  0.0454
   17SAPS  H19R 2207   4.381   3.095   4.617  0.4318 -1.1274 -2.4117
   17SAPS  H19S 2208   4.236   3.174   4.571 -0.5575 -0.6156 -2.9147
   17SAPS  C220 2209   4.392   3.319   4.568  0.0210 -0.2841 -0.0858
   17SAPS  H20R 2210   4.313   3.364   4.631 -1.4675  0.3403 -2.2652
   17SAPS  H20S 2211   4.391   3.366   4.467 -2.9824  0.3895  0.1645
   17SAPS  H20T 2212   4.496   3.328   4.604  0.8851  0.1451 -2.4914
   17SAPS   C33 2213   4.044   3.241   3.190 -0.2982  0.1438 -0.4398
   17SAPS   H3X 2214   4.000   3.142   3.168  0.2567  0.0666 -1.2483
   17SAPS   H3Y 2215   3.978   3.312   3.245  0.4724 -0.1953  0.9722
   17SAPS   C34 2216   4.169   3.227   3.277  0.1078 -0.7672  0.3302
   17SAPS   H4X 2217   4.215   3.327   3.290  2.1473 -1.4818 -0.9217
   17SAPS   H4Y 2218   4.248   3.164   3.231 -0.2984 -1.9972  1.2455
   17SAPS   C35 2219   4.136   3.168   3.419  0.3498  0.1497 -0.2147
   17SAPS   H5X 2220   4.227   3.163   3.483 -0.2737  0.7967  0.7518
   17SAPS   H5Y 2221   4.090   3.070   3.393 -1.5336  1.5342 -2.5886
   17SAPS   C36 2222   4.026   3.246   3.498 -0.1997  0.4235  0.4195
   17SAPS   H6X 2223   3.932   3.239   3.439  0.2446 -0.2476 -0.2193
   17SAPS   H6Y 2224   4.057   3.352   3.516  1.6650 -0.0490  0.1970
   17SAPS   C37 2225   4.004   3.171   3.633  0.3521 -0.1881 -0.0201
   17SAPS   H7X 2226   4.107   3.170   3.675  1.1456 -0.2692 -1.9068
   17SAPS   H7Y 2227   3.972   3.066   3.615 -1.4767  0.0087  1.7200
   17SAPS   C38 2228   3.912   3.239   3.740 -0.0532  0.5028  0.6922
   17SAPS   H8X 2229   3.809   3.196   3.745  0.6659 -1.1779  2.8421
   17SAPS   H8Y 2230   3.918   3.350   3.728  0.3398  0.3723 -0.3772
   17SAPS   C39 2231   3.975   3.220   3.881  0.3088  0.6445 -0.5339
   17SAPS   H9X 2232   3.915   3.253   3.968  0.1786  1.2159 -0.8372
   17SAPS   H9Y 2233   4.070   3.277   3.894  1.0409 -0.2287 -1.8009
   17SAPS  C310 2234   4.016   3.077   3.925  0.1939  0.3454 -1.0423
   17SAPS  H10X 2235   4.090   3.034   3.853 -1.5216  0.5908 -3.0349
   17SAPS  H10Y 2236   3.923   3.017   3.916  0.0020  0.0410  2.1263
   17SAPS  C311 2237   4.050   3.061   4.082 -0.4238 -0.3575 -0.1302
   17SAPS  H11X 2238   3.959   3.098   4.135 -0.9698 -1.1501 -0.4923
   17SAPS  H11Y 2239   4.142   3.115   4.112  1.0089 -1.4071 -2.3697
   17SAPS  C312 2240   4.079   2.917   4.117 -0.2820  0.4235  0.2380
   17SAPS  H12X 2241   3.989   2.853   4.108  0.1601 -0.5572  2.2521
   17SAPS  H12Y 2242   4.118   2.922   4.221  0.4168 -0.3329  0.0252
   17SAPS  C313 2243   4.196   2.839   4.044  0.2034 -0.3141 -0.1742
   17SAPS  H13X 2244   4.286   2.900   4.065  1.7808 -2.2284 -1.0135
   17SAPS  H13Y 2245   4.189   2.843   3.933  2.8626 -1.1861 -0.4395
   17SAPS  C314 2246   4.209   2.689   4.080  0.2389 -0.6113 -0.1220
   17SAPS  H14X 2247   4.207   2.677   4.190 -1.0619 -0.0725 -0.0737
   17SAPS  H14Y 2248   4.303   2.654   4.031  1.1140  1.0857  0.2521
   17SAPS  C315 2249   4.100   2.597   4.032 -0.2834  0.6124  0.2071
   17SAPS  H15X 2250   4.068   2.626   3.929 -0.0715  2.3396  0.6035
   17SAPS  H15Y 2251   4.015   2.611   4.102 -0.7853 -2.4104  0.3411
   17SAPS  C316 2252   4.118   2.448   4.042  0.0782  0.4173 -0.1505
   17SAPS  H16X 2253   4.204   2.418   4.106 -0.2166 -2.3132 -0.9110
   17SAPS  H16Y 2254   4.145   2.418   3.938  1.6192 -0.0406  0.3583
   17SAPS  C317 2255   3.992   2.366   4.083 -0.1013 -0.4678 -0.1041
   17SAPS  H17X 2256   3.914   2.420   4.026  3.2002  0.9769 -3.7162
   17SAPS  H17Y 2257   3.983   2.365   4.194 -1.0139 -1.6600 -0.1725
   17SAPS  C318 2258   4.004   2.225   4.018  0.5125  0.7174 -0.5389
   17SAPS  H18X 2259   4.088   2.168   4.064 -1.6111 -2.4881 -0.3090
   17SAPS  H18Y 2260   4.038   2.237   3.913 -2.9904  1.7269 -1.6669
   17SAPS  H18Z 2261   3.908   2.169   4.016  0.2279  1.1448 -3.6177
   18SAPS     N 2262   0.791   0.936   1.949 -0.1932 -0.7221 -0.0911
   18SAPS   HN1 2263   0.708   0.974   1.999  0.4503 -0.0724  0.5097
   18SAPS   HN2 2264   0.873   0.974   2.001  2.0985 -0.0063 -3.8744
   18SAPS   HN3 2265   0.801   0.983   1.857 -1.2106  0.0863  0.1937
   18SAPS   C12 2266   0.768   0.793   1.932 -0.0990  0.4038  0.3793
   18SAPS  H12A 2267   0.697   0.782   1.852 -0.5445 -1.3109  0.9694
   18SAPS   C13 2268   0.898   0.719   1.889 -0.1025  0.1958  0.3351
   18SAPS  O13A 2269   1.013   0.766   1.917 -0.6798 -0.0916  0.3985
   18SAPS  O13B 2270   0.883   0.594   1.867  0.2780 -0.5485 -0.6971
   18SAPS   C11 2271   0.706   0.727   2.059  0.4768  0.0048  0.6846
   18SAPS  H11A 2272   0.782   0.747   2.138  1.0286  0.4748  0.0398
   18SAPS  H11B 2273   0.695   0.618   2.039  2.4414 -0.7831  3.2929
   18SAPS     P 2274   0.473   0.705   2.169 -0.3316  0.0384 -0.0358
   18SAPS   O13 2275   0.342   0.773   2.167 -0.2928 -0.6681  0.5557
   18SAPS   O14 2276   0.479   0.564   2.135  0.2285  0.2374 -0.0852
   18SAPS   O12 2277   0.579   0.785   2.086 -0.3640 -0.5011  0.0961
   18SAPS   O11 2278   0.534   0.715   2.305 -0.1084  0.2066  0.1717
   18SAPS    C1 2279   0.570   0.834   2.370 -0.4762 -0.2368  0.0827
   18SAPS    HA 2280   0.658   0.888   2.329  0.2044  0.4515  2.3129
   18SAPS    HB 2281   0.486   0.907   2.361  0.8682  1.2752 -0.9227
   18SAPS    C2 2282   0.603   0.798   2.517 -0.0721 -0.1219  0.0854
   18SAPS    HS 2283   0.638   0.892   2.564  0.7816  2.0477 -4.3394
   18SAPS   O21 2284   0.700   0.699   2.525 -0.2002  0.2607 -0.5909
   18SAPS   C21 2285   0.821   0.751   2.504 -0.5385  0.0063 -0.0419
   18SAPS   O22 2286   0.841   0.868   2.478  0.1019 -0.1050 -0.4607
   18SAPS   C22 2287   0.928   0.649   2.523  0.1041  0.0822  0.4531
   18SAPS   H2R 2288   0.893   0.544   2.511  0.7564 -0.1128  0.2229
   18SAPS   H2S 2289   0.998   0.677   2.441 -1.3866  0.5846 -0.7105
   18SAPS    C3 2290   0.480   0.752   2.599  0.7174 -0.2438 -0.2071
   18SAPS    HX 2291   0.433   0.663   2.552 -1.3819  0.4230  0.5111
   18SAPS    HY 2292   0.422   0.847   2.598 -0.2125 -0.7146  1.9633
   18SAPS   O31 2293   0.517   0.733   2.736  0.8165  0.0204 -0.1088
   18SAPS   C31 2294   0.537   0.610   2.783 -1.1943  0.6703 -0.2820
   18SAPS   O32 2295   0.550   0.508   2.713 -0.5483  0.2570 -0.3411
   18SAPS   C32 2296   0.538   0.601   2.936  0.1945 -0.8167  0.6591
   18SAPS   H2X 2297   0.443   0.568   2.985 -1.9094  3.5083 -0.0488
   18SAPS   H2Y 2298   0.562   0.700   2.981 -0.3723 -0.3612 -0.0072
   18SAPS   C23 2299   0.996   0.638   2.665  0.2328 -0.5548 -0.8810
   18SAPS   H3R 2300   1.073   0.561   2.642 -0.8002 -1.5895 -0.9379
   18SAPS   H3S 2301   0.921   0.601   2.738 -1.4133  2.4210 -0.8752
   18SAPS   C24 2302   1.040   0.773   2.726 -0.1079 -0.4525  0.0413
   18SAPS   H4R 2303   0.943   0.823   2.751 -1.5318 -2.9656 -0.0965
   18SAPS   H4S 2304   1.079   0.832   2.641 -0.3969 -0.7857 -0.3308
   18SAPS   C25 2305   1.135   0.747   2.841 -0.1751 -0.4774  0.5474
   18SAPS   H5R 2306   1.239   0.716   2.820  0.0292  0.5445 -0.0051
   18SAPS   C26 2307   1.113   0.752   2.975  0.5008 -0.4854 -1.1681
   18SAPS   H6R 2308   1.202   0.746   3.039 -0.5820 -1.8410  0.2755
   18SAPS   C27 2309   0.979   0.782   3.048 -1.1617 -0.1186 -0.0987
   18SAPS   H7R 2310   0.920   0.691   3.072  0.5956 -1.3694 -0.2910
   18SAPS   H7S 2311   0.917   0.849   2.985 -1.9921 -0.2924  0.5217
   18SAPS   C28 2312   1.025   0.859   3.170  0.7578  0.3473  0.3617
   18SAPS   H8R 2313   1.048   0.965   3.153  3.0435 -0.2513 -0.6461
   18SAPS   C29 2314   1.047   0.814   3.293  0.8206 -0.0179  0.1201
   18SAPS   H9R 2315   1.076   0.888   3.368 -0.9350  0.3644  0.4587
   18SAPS  C210 2316   1.040   0.674   3.348 -0.0988  0.1788 -0.7588
   18SAPS  H10R 2317   1.040   0.610   3.256  0.1047 -1.3098  0.2343
   18SAPS  H10S 2318   0.930   0.671   3.362 -0.2404 -0.2320 -1.8019
   18SAPS  C211 2319   1.116   0.618   3.468  0.3654  0.6193 -0.1585
   18SAPS  H11R 2320   1.209   0.566   3.444 -1.5223 -2.2706 -1.7514
   18SAPS  C212 2321   1.078   0.618   3.596 -0.0448  0.0367  0.0533
   18SAPS  H12R 2322   1.155   0.594   3.671 -0.3064 -1.0383 -0.0095
   18SAPS  C213 2323   0.952   0.671   3.659  0.3454  0.4346 -0.1858
   18SAPS  H13R 2324   0.887   0.709   3.578 -0.9022  2.2127  1.5428
   18SAPS  H13S 2325   0.974   0.757   3.726  2.3906 -0.4637  0.4016
   18SAPS  C214 2326   0.880   0.559   3.733  0.1030 -0.1518 -0.0714
   18SAPS  H14R 2327   0.878   0.464   3.677 -0.3823  0.3111 -0.8586
   18SAPS  C215 2328   0.842   0.553   3.857 -0.9824  0.5823 -0.2131
   18SAPS  H15R 2329   0.794   0.459   3.888 -1.3998  1.1910  1.0199
   18SAPS  C216 2330   0.843   0.659   3.963  0.3627 -0.0514  0.1092
   18SAPS  H16R 2331   0.743   0.648   4.008 -0.1143 -0.2431 -0.9577
   18SAPS  H16S 2332   0.851   0.764   3.929 -0.1614 -0.1940 -0.4667
   18SAPS  C217 2333   0.942   0.642   4.081  0.2712 -0.2583 -0.7976
   18SAPS  H17R 2334   1.050   0.658   4.061  0.3222 -0.0596 -0.3648
   18SAPS  H17S 2335   0.924   0.538   4.116 -3.7858  0.8452  1.0871
   18SAPS  C218 2336   0.909   0.730   4.206  0.5554  0.6516  0.6684
   18SAPS  H18R 2337   0.807   0.689   4.227 -1.6167  2.7288 -4.3005
   18SAPS  H18S 2338   0.883   0.835   4.184 -0.4658 -0.0309 -1.6877
   18SAPS  C219 2339   0.999   0.712   4.325  0.5867  0.6529  0.5457
   18SAPS  H19R 2340   1.092   0.758   4.286  0.6053  1.3000  1.3138
   18SAPS  H19S 2341   1.023   0.605   4.343  2.4667  0.7280 -1.2136
   18SAPS  C220 2342   0.958   0.787   4.443 -0.3313 -0.2052  0.4349
   18SAPS  H20R 2343   1.034   0.785   4.524  1.0448 -0.0731 -0.8180
   18SAPS  H20S 2344   0.863   0.755   4.492 -0.5126  2.6660  2.1666
   18SAPS  H20T 2345   0.939   0.890   4.407 -0.3733 -0.9860 -1.9948
   18SAPS   C33 2346   0.652   0.505   2.985 -0.3742 -0.1376 -0.7057
   18SAPS   H3X 2347   0.741   0.562   2.951  0.1260  1.6712  3.1414
   18SAPS   H3Y 2348   0.650   0.407   2.933  1.3127 -0.1010 -0.8838
   18SAPS   C34 2349   0.647   0.500   3.139 -0.0845 -0.7915 -0.3087
   18SAPS   H4X 2350   0.593   0.584   3.187 -0.5675 -1.1283 -0.2521
   18SAPS   H4Y 2351   0.751   0.506   3.178 -0.3303 -2.0102  0.5553
   18SAPS   C35 2352   0.581   0.370   3.191 -0.6290 -0.6030  0.2626
   18SAPS   H5X 2353   0.627   0.286   3.134  1.1977  0.3452  0.2918
   18SAPS   H5Y 2354   0.471   0.377   3.171 -0.5787  1.1124  0.4197
   18SAPS   C36 2355   0.606   0.341   3.340  0.2751 -0.2486  0.0747
   18SAPS   H6X 2356   0.711   0.361   3.371 -0.3776 -0.9539  3.0699
   18SAPS   H6Y 2357   0.611   0.230   3.351 -1.7048 -0.4642 -0.8754
   18SAPS   C37 2358   0.503   0.410   3.429  0.1702 -0.0993 -0.5344
   18SAPS   H7X 2359   0.404   0.366   3.406 -0.3882  0.6262  0.4257
   18SAPS   H7Y 2360   0.526   0.516   3.405  1.5699 -0.1016  0.6869
   18SAPS   C38 2361   0.533   0.387   3.579 -0.2319 -0.0369 -0.3500
   18SAPS   H8X 2362   0.627   0.437   3.613 -1.0645 -0.2902  2.5670
   18SAPS   H8Y 2363   0.529   0.278   3.597 -3.1683 -0.0672 -0.6767
   18SAPS   C39 2364   0.417   0.448   3.662 -0.1845  0.2746  0.1132
   18SAPS   H9X 2365   0.333   0.374   3.656  0.1310 -0.1611  1.0008
   18SAPS   H9Y 2366   0.394   0.548   3.619  0.1974 -0.1506 -1.1362
   18SAPS  C310 2367   0.464   0.462   3.812  0.3861  0.2143 -0.5822
   18SAPS  H10X 2368   0.380   0.496   3.877 -1.1060 -1.0301 -1.7741
   18SAPS  H10Y 2369   0.547   0.536   3.814 -1.5397  2.5878 -1.6336
   18SAPS  C311 2370   0.522   0.334   3.877  0.3243 -0.1127  0.4482
   18SAPS  H11X 2371   0.616   0.321   3.819 -1.3792 -1.5814 -2.2064
   18SAPS  H11Y 2372   0.453   0.251   3.850  0.9654 -0.9505  1.3570
   18SAPS  C312 2373   0.543   0.334   4.031 -0.2355  0.0303 -0.4245
   18SAPS  H12X 2374   0.450   0.353   4.089  0.3958 -2.5502  1.6253
   18SAPS  H12Y 2375   0.611   0.418   4.059  0.1040 -0.1227 -0.7763
   18SAPS  C313 2376   0.597   0.198   4.069  0.6836  0.7252 -0.6123
   18SAPS  H13X 2377   0.707   0.205   4.056  0.9258  2.2820  1.7392
   18SAPS  H13Y 2378   0.554   0.122   4.000 -0.3861  1.2991 -0.5895
   18SAPS  C314 2379   0.571   0.149   4.209  0.4756  0.5903 -0.6122
   18SAPS  H14X 2380   0.461   0.151   4.230  0.5610  2.2418 -0.1385
   18SAPS  H14Y 2381   0.619   0.215   4.284  0.0452 -0.9163  1.0768
   18SAPS  C315 2382   0.633   0.021   4.256 -0.4179 -0.0827 -0.8524
   18SAPS  H15X 2383   0.643   0.009   4.366 -0.5658 -3.1946 -1.0950
   18SAPS  H15Y 2384   0.737   0.011   4.220  0.5270 -0.2535  1.7191
   18SAPS  C316 2385   0.552  -0.105   4.215  0.0055  0.0337  0.2545
   18SAPS  H16X 2386   0.497  -0.075   4.123 -1.1160  1.6047  1.3572
   18SAPS  H16Y 2387   0.476  -0.116   4.296 -0.2962 -0.3330 -0.0790
   18SAPS  C317 2388   0.631  -0.230   4.176  0.1256  0.1689 -0.4698
   18SAPS  H17X 2389   0.561  -0.316   4.164  1.1778 -1.0128  1.3366
   18SAPS  H17Y 2390   0.709  -0.240   4.255 -0.4823  1.1398  0.2649
   18SAPS  C318 2391   0.719  -0.238   4.048 -0.0393  0.9821 -0.3710
   18SAPS  H18X 2392   0.792  -0.155   4.035  1.5145  0.0303  1.6215
   18SAPS  H18Y 2393   0.669  -0.255   3.951  0.7965  0.5989 -0.7385
   18SAPS  H18Z 2394   0.780  -0.331   4.061  0.9974  1.7175  0.1999
   19SAPS     N 2395   6.628   5.534   2.449 -0.0174 -0.2451 -1.1076
   19SAPS   HN1 2396   6.672   5.532   2.543 -1.2522  0.4620 -0.4897
   19SAPS   HN2 2397   6.693   5.585   2.386  1.5522 -1.1504 -0.2830
   19SAPS   HN3 2398   6.542   5.593   2.452  0.5494  0.5683 -0.5734
   19SAPS   C12 2399   6.587   5.401   2.395 -0.4746 -0.3622  0.3438
   19SAPS  H12A 2400   6.550   5.340   2.477  0.9858 -0.2422  1.1247
   19SAPS   C13 2401   6.486   5.420   2.285 -0.0482  0.3190 -0.8537
   19SAPS  O13A 2402   6.487   5.527   2.220  0.3687  0.3663 -0.0864
   19SAPS  O13B 2403   6.423   5.318   2.254  0.9428 -0.5150  0.3536
   19SAPS   C11 2404   6.708   5.323   2.326 -0.0511  0.2397 -0.8394
   19SAPS  H11A 2405   6.755   5.387   2.249  3.6566  0.8338  1.6828
   19SAPS  H11B 2406   6.670   5.234   2.270  1.5052  0.6193 -2.5788
   19SAPS     P 2407   6.932   5.209   2.379 -0.1167  0.3182  0.0105
   19SAPS   O13 2408   6.906   5.088   2.298 -0.2218  0.0398  0.0313
   19SAPS   O14 2409   7.021   5.312   2.315 -0.0838  0.0331 -0.5429
   19SAPS   O12 2410   6.802   5.284   2.427 -0.0138  0.8071  0.0674
   19SAPS   O11 2411   6.996   5.172   2.523 -0.2000  0.4845  0.3746
   19SAPS    C1 2412   6.908   5.190   2.636  0.1768 -0.3350 -0.3674
   19SAPS    HA 2413   6.893   5.296   2.667  1.9824  0.2918 -1.5276
   19SAPS    HB 2414   6.811   5.141   2.612  0.6278 -0.7451 -1.3760
   19SAPS    C2 2415   6.961   5.109   2.755  0.1297  0.2385 -0.3375
   19SAPS    HS 2416   7.012   5.186   2.816 -0.9905  1.0761 -0.4188
   19SAPS   O21 2417   7.034   4.996   2.726  0.2673 -0.0890  0.5178
   19SAPS   C21 2418   7.131   4.957   2.812  0.3572  0.7219 -0.4188
   19SAPS   O22 2419   7.164   5.024   2.911  0.2494 -0.6517 -0.1211
   19SAPS   C22 2420   7.194   4.822   2.765  0.5892 -0.0468  0.2012
   19SAPS   H2R 2421   7.114   4.767   2.711  1.7639 -2.7870  1.0818
   19SAPS   H2S 2422   7.269   4.838   2.684  1.4724  1.7440  1.3013
   19SAPS    C3 2423   6.825   5.067   2.832 -0.1222  0.9721 -0.8189
   19SAPS    HX 2424   6.776   4.989   2.770  0.2724 -0.3081  0.4122
   19SAPS    HY 2425   6.763   5.159   2.838 -0.5386  0.6622 -0.1813
   19SAPS   O31 2426   6.857   5.012   2.963 -0.1825 -0.3219 -0.4672
   19SAPS   C31 2427   6.890   5.105   3.048 -0.0007 -0.4169 -0.2311
   19SAPS   O32 2428   6.882   5.228   3.030  0.2316 -0.0901  0.4350
   19SAPS   C32 2429   6.934   5.039   3.180 -0.5434  0.3211  0.4144
   19SAPS   H2X 2430   7.044   5.052   3.172 -0.8375  2.0220 -1.6072
   19SAPS   H2Y 2431   6.916   4.929   3.181 -2.0299  0.5395 -0.6593
   19SAPS   C23 2432   7.260   4.737   2.881 -0.2308  0.0758  0.1606
   19SAPS   H3R 2433   7.336   4.807   2.923  1.6409  0.4863 -3.4692
   19SAPS   H3S 2434   7.329   4.661   2.839 -3.6543 -2.4007 -1.3726
   19SAPS   C24 2435   7.167   4.675   2.979 -0.1774 -0.3610  0.1721
   19SAPS   H4R 2436   7.108   4.606   2.914 -1.7366  1.0086  0.0668
   19SAPS   H4S 2437   7.081   4.734   3.018 -0.3939  1.8241 -3.1308
   19SAPS   C25 2438   7.238   4.585   3.074 -0.6525 -0.1524 -0.3017
   19SAPS   H5R 2439   7.320   4.522   3.038  0.7209  0.1510  2.0693
   19SAPS   C26 2440   7.216   4.570   3.205 -0.1402  0.8836  0.2598
   19SAPS   H6R 2441   7.286   4.509   3.263 -1.6546 -0.0988  1.1433
   19SAPS   C27 2442   7.106   4.631   3.290  0.3554  0.1055  0.5402
   19SAPS   H7R 2443   7.061   4.558   3.361  0.7268  1.6385  2.4484
   19SAPS   H7S 2444   7.026   4.682   3.233 -1.2480 -0.1062  2.4847
   19SAPS   C28 2445   7.178   4.731   3.378 -0.2510  0.3753 -0.4555
   19SAPS   H8R 2446   7.218   4.819   3.326  0.2452 -0.9913 -2.4687
   19SAPS   C29 2447   7.183   4.741   3.514  0.2127  0.0076  0.1929
   19SAPS   H9R 2448   7.229   4.825   3.569  0.6263 -0.1272  0.0563
   19SAPS  C210 2449   7.111   4.658   3.620 -0.1974  0.0110  0.1864
   19SAPS  H10R 2450   7.141   4.551   3.622 -1.8001 -0.4727  0.5588
   19SAPS  H10S 2451   7.004   4.642   3.592 -0.1398 -3.6216  1.4974
   19SAPS  C211 2452   7.117   4.713   3.755 -0.0206 -0.9880 -0.0819
   19SAPS  H11R 2453   7.025   4.761   3.791  0.8865  1.4911 -0.8912
   19SAPS  C212 2454   7.219   4.704   3.838  0.5225  0.3126 -0.4689
   19SAPS  H12R 2455   7.215   4.755   3.935  2.0810  1.3347 -0.9056
   19SAPS  C213 2456   7.359   4.644   3.809 -0.1694  0.1113 -0.0711
   19SAPS  H13R 2457   7.374   4.602   3.707  0.1856 -0.6376  0.2827
   19SAPS  H13S 2458   7.372   4.552   3.870  1.1396 -1.6208 -2.7869
   19SAPS  C214 2459   7.462   4.751   3.824 -0.2696 -0.9024 -0.0299
   19SAPS  H14R 2460   7.457   4.833   3.752  0.0763 -2.2408 -1.6456
   19SAPS  C215 2461   7.542   4.769   3.929 -0.2225  0.0310  0.0839
   19SAPS  H15R 2462   7.619   4.847   3.913  1.7387 -1.7502  0.3812
   19SAPS  C216 2463   7.550   4.703   4.059  0.6930  0.0643 -0.4573
   19SAPS  H16R 2464   7.654   4.665   4.072 -0.0699 -1.1539  3.2115
   19SAPS  H16S 2465   7.486   4.612   4.062  0.5293  0.2054  0.6770
   19SAPS  C217 2466   7.497   4.789   4.180 -0.5100 -0.1184  0.2801
   19SAPS  H17R 2467   7.555   4.884   4.180 -0.4509 -0.1182  2.1566
   19SAPS  H17S 2468   7.503   4.733   4.276 -1.3419  1.5069  1.3191
   19SAPS  C218 2469   7.343   4.822   4.169  0.1367  0.0914  0.8592
   19SAPS  H18R 2470   7.317   4.866   4.071 -0.1911  1.3196  1.4727
   19SAPS  H18S 2471   7.316   4.909   4.232  0.4559  2.3469 -1.9491
   19SAPS  C219 2472   7.245   4.707   4.195 -0.2074 -0.1023 -0.2347
   19SAPS  H19R 2473   7.270   4.634   4.115 -1.4579  0.2423 -0.9573
   19SAPS  H19S 2474   7.139   4.740   4.190 -0.0434  0.8374  1.5205
   19SAPS  C220 2475   7.258   4.633   4.332  0.2085 -0.2392  0.8277
   19SAPS  H20R 2476   7.254   4.700   4.421 -0.9961 -0.5479  1.0351
   19SAPS  H20S 2477   7.361   4.591   4.332 -0.1313 -1.1611 -0.6010
   19SAPS  H20T 2478   7.178   4.558   4.351 -0.4685 -0.0677 -1.1064
   19SAPS   C33 2479   6.898   5.102   3.311  0.6470 -0.4237 -0.2620
   19SAPS   H3X 2480   6.793   5.070   3.328  0.4643 -0.0931 -0.7525
   19SAPS   H3Y 2481   6.904   5.213   3.313  0.7801 -0.4363  1.0210
   19SAPS   C34 2482   6.979   5.051   3.430 -0.1864  0.6720  0.4413
   19SAPS   H4X 2483   7.088   5.056   3.413 -0.2299 -0.3277 -0.2564
   19SAPS   H4Y 2484   6.943   4.948   3.453 -2.3088  1.0791 -0.7765
   19SAPS   C35 2485   6.957   5.144   3.557 -0.0807 -0.5919 -0.0117
   19SAPS   H5X 2486   6.847   5.161   3.560  0.3743  2.8470  1.5105
   19SAPS   H5Y 2487   7.002   5.244   3.546 -1.6067  0.1344  0.0617
   19SAPS   C36 2488   7.002   5.072   3.688  0.0721 -0.0171 -0.4269
   19SAPS   H6X 2489   7.113   5.074   3.683  0.1900 -0.7368  1.1895
   19SAPS   H6Y 2490   6.964   4.968   3.678  0.1500  0.1497 -3.4780
   19SAPS   C37 2491   6.965   5.136   3.826 -0.3777  0.2015 -0.5293
   19SAPS   H7X 2492   6.854   5.131   3.828 -0.3384 -3.2294 -0.7408
   19SAPS   H7Y 2493   6.994   5.243   3.831 -0.7171  0.4504 -2.8920
   19SAPS   C38 2494   7.006   5.058   3.948  0.1395 -0.3128  0.3014
   19SAPS   H8X 2495   7.117   5.054   3.950  0.2563 -0.1418 -2.3968
   19SAPS   H8Y 2496   6.956   4.959   3.945  1.4320 -0.9666 -0.7881
   19SAPS   C39 2497   6.963   5.133   4.082 -0.3972  0.1663  0.1605
   19SAPS   H9X 2498   6.854   5.157   4.078 -0.0843  1.5681 -0.9309
   19SAPS   H9Y 2499   7.017   5.230   4.086  0.1843 -0.0833 -1.2622
   19SAPS  C310 2500   6.991   5.048   4.205 -0.2775  0.5573  0.3361
   19SAPS  H10X 2501   7.101   5.032   4.212  0.0018  2.6131  1.5592
   19SAPS  H10Y 2502   6.950   4.947   4.185  0.5085  0.0115  1.3745
   19SAPS  C311 2503   6.936   5.113   4.329  0.4405 -0.3325  0.3613
   19SAPS  H11X 2504   6.828   5.122   4.308  0.6597 -1.5559 -1.6026
   19SAPS  H11Y 2505   6.982   5.211   4.352  0.8431 -0.2876 -0.6060
   19SAPS  C312 2506   6.957   5.019   4.449  0.5734 -0.0572  0.9926
   19SAPS  H12X 2507   6.964   4.911   4.421  2.4732  0.0533  0.8671
   19SAPS  H12Y 2508   6.870   5.037   4.515  2.7277  1.8608  3.5059
   19SAPS  C313 2509   7.074   5.068   4.535 -0.7533 -1.1223  0.3797
   19SAPS  H13X 2510   7.033   5.153   4.594 -1.9703 -0.7641 -0.9359
   19SAPS  H13Y 2511   7.157   5.095   4.467 -0.7644 -2.0946 -0.0350
   19SAPS  C314 2512   7.128   4.962   4.637 -0.1002 -0.5289  0.7556
   19SAPS  H14X 2513   7.190   5.009   4.717 -0.1645 -1.2417  1.2359
   19SAPS  H14Y 2514   7.196   4.898   4.577 -1.1428  0.0060 -1.0686
   19SAPS  C315 2515   7.009   4.896   4.706  0.5710  0.2625 -0.4907
   19SAPS  H15X 2516   6.945   4.834   4.639 -1.8892  2.5466 -0.4077
   19SAPS  H15Y 2517   6.940   4.971   4.750 -1.4575 -1.2434 -0.9647
   19SAPS  C316 2518   7.057   4.803   4.823 -0.0116 -0.4747  0.9362
   19SAPS  H16X 2519   6.966   4.753   4.863  1.5029 -1.9388  2.7645
   19SAPS  H16Y 2520   7.107   4.857   4.906 -1.0726 -0.9730  1.9247
   19SAPS  C317 2521   7.154   4.687   4.785  0.0432  0.1344  0.0520
   19SAPS  H17X 2522   7.241   4.718   4.723 -0.5053 -1.7256 -1.7552
   19SAPS  H17Y 2523   7.095   4.614   4.726  0.8279 -1.6143  1.3517
   19SAPS  C318 2524   7.219   4.611   4.905  0.5001 -0.6052  0.0641
   19SAPS  H18X 2525   7.279   4.523   4.870  0.8772 -0.1507 -0.4561
   19SAPS  H18Y 2526   7.141   4.579   4.977 -0.0680 -1.4162 -0.8795
   19SAPS  H18Z 2527   7.290   4.681   4.954 -0.0104  1.4390 -1.9540
   20SAPS     N 2528   0.883   4.923   1.731 -0.3278 -0.4433  0.3063
   20SAPS   HN1 2529   0.901   4.841   1.670 -0.1362 -0.7784  0.8077
   20SAPS   HN2 2530   0.962   4.941   1.797 -1.8898  3.2044  1.4553
   20SAPS   HN3 2531   0.802   4.902   1.792 -1.2169  0.1236 -0.6441
   20SAPS   C12 2532   0.864   5.041   1.645  0.0443 -0.2953 -0.4747
   20SAPS  H12A 2533   0.950   5.043   1.581  0.1898  0.5586 -0.2595
   20SAPS   C13 2534   0.736   5.051   1.562  0.8561  0.1668  0.1720
   20SAPS  O13A 2535   0.667   4.951   1.544  0.4947  0.2368 -0.2806
   20SAPS  O13B 2536   0.720   5.154   1.495 -1.2498  0.4001  0.3545
   20SAPS   C11 2537   0.866   5.181   1.722 -0.1095 -0.0418 -0.4815
   20SAPS  H11A 2538   0.861   5.270   1.656  0.3664  0.8626  0.6545
   20SAPS  H11B 2539   0.961   5.187   1.781  1.0431  1.5479 -2.3509
   20SAPS     P 2540   0.708   5.318   1.893  0.4324  0.2880  0.2040
   20SAPS   O13 2541   0.744   5.438   1.821  0.0675 -0.3820 -0.1484
   20SAPS   O14 2542   0.567   5.284   1.931 -0.0235  0.1178  0.5339
   20SAPS   O12 2543   0.753   5.193   1.811  0.4166 -0.2739 -0.4126
   20SAPS   O11 2544   0.804   5.301   2.015  0.2907 -0.5260  0.2181
   20SAPS    C1 2545   0.819   5.187   2.097  0.1646 -0.6173 -0.0628
   20SAPS    HA 2546   0.743   5.110   2.073 -1.7689  1.5271 -1.2851
   20SAPS    HB 2547   0.916   5.136   2.082 -0.9376 -2.5970 -0.8305
   20SAPS    C2 2548   0.790   5.227   2.249 -0.5210 -0.3910  0.6752
   20SAPS    HS 2549   0.717   5.311   2.237 -0.1907 -0.3962 -1.8959
   20SAPS   O21 2550   0.910   5.267   2.315 -0.3512 -0.0999 -0.2948
   20SAPS   C21 2551   0.934   5.401   2.323  1.0499 -0.1430 -0.8489
   20SAPS   O22 2552   0.852   5.486   2.302 -0.1934 -0.0786  0.4886
   20SAPS   C22 2553   1.072   5.437   2.385  0.0593  0.1952  0.3688
   20SAPS   H2R 2554   1.141   5.436   2.297 -0.7202 -1.5669 -0.2852
   20SAPS   H2S 2555   1.057   5.539   2.424 -1.7160  1.1545 -2.5359
   20SAPS    C3 2556   0.723   5.111   2.327  0.0499  0.3173  0.3928
   20SAPS    HX 2557   0.793   5.026   2.313  1.2121  1.5469 -1.7078
   20SAPS    HY 2558   0.631   5.102   2.266 -0.0369 -0.8188  0.6797
   20SAPS   O31 2559   0.700   5.149   2.464  0.1835 -0.0313  0.1056
   20SAPS   C31 2560   0.665   5.054   2.546 -0.1301  0.6331  0.5266
   20SAPS   O32 2561   0.658   4.934   2.526 -0.3605  0.0646 -0.0952
   20SAPS   C32 2562   0.638   5.113   2.678  0.2371 -0.5012 -0.3276
   20SAPS   H2X 2563   0.532   5.148   2.680  0.5017  0.4102  2.4019
   20SAPS   H2Y 2564   0.710   5.196   2.695  1.0507 -1.5980  2.0122
   20SAPS   C23 2565   1.115   5.330   2.492  0.2409 -1.0089 -0.4203
   20SAPS   H3R 2566   1.225   5.334   2.505  0.0367 -2.3956  2.6164
   20SAPS   H3S 2567   1.111   5.225   2.457  3.9192 -1.2423 -0.5863
   20SAPS   C24 2568   1.038   5.348   2.626  0.3353  0.1808 -0.8506
   20SAPS   H4R 2569   0.935   5.312   2.606 -0.0514  1.4460 -1.2082
   20SAPS   H4S 2570   1.031   5.457   2.645 -0.3600 -0.2745  1.8848
   20SAPS   C25 2571   1.106   5.296   2.755 -0.4518 -0.0365  0.6449
   20SAPS   H5R 2572   1.196   5.235   2.738 -1.8091 -2.5221  1.7379
   20SAPS   C26 2573   1.064   5.318   2.877 -0.1249  0.4155  0.3273
   20SAPS   H6R 2574   1.118   5.274   2.963 -1.1570  1.2928  1.4571
   20SAPS   C27 2575   0.944   5.397   2.923 -0.4254  0.1268 -0.4132
   20SAPS   H7R 2576   0.857   5.337   2.958 -1.1409  1.7079  0.6391
   20SAPS   H7S 2577   0.898   5.441   2.831 -0.5064  1.8614  0.4006
   20SAPS   C28 2578   0.970   5.517   3.013 -0.5195 -0.3980 -0.3471
   20SAPS   H8R 2579   0.952   5.612   2.960 -0.9193  0.1997  0.8442
   20SAPS   C29 2580   0.993   5.521   3.143 -0.7233  0.3770  0.1786
   20SAPS   H9R 2581   1.005   5.621   3.187 -1.5474  0.4209  0.3215
   20SAPS  C210 2582   1.009   5.400   3.232  0.0544  0.4144  0.4077
   20SAPS  H10R 2583   0.992   5.311   3.168  1.3070 -0.6064  1.4477
   20SAPS  H10S 2584   0.929   5.406   3.309  1.0978 -0.0532  1.5555
   20SAPS  C211 2585   1.147   5.393   3.281  0.2137 -0.5469 -0.2204
   20SAPS  H11R 2586   1.225   5.369   3.207  0.3523  1.2892 -0.7301
   20SAPS  C212 2587   1.193   5.416   3.407 -0.1394  0.0780  0.0252
   20SAPS  H12R 2588   1.297   5.393   3.434  0.3657  1.6114 -0.5344
   20SAPS  C213 2589   1.119   5.455   3.538  0.2195  0.4411  0.3925
   20SAPS  H13R 2590   1.140   5.381   3.617  2.6843  0.7263  0.0977
   20SAPS  H13S 2591   1.010   5.461   3.520  0.5633 -0.8373 -2.6298
   20SAPS  C214 2592   1.152   5.594   3.587 -0.2575  0.0995 -0.3826
   20SAPS  H14R 2593   1.241   5.629   3.533 -0.1636 -1.1770 -1.0833
   20SAPS  C215 2594   1.089   5.667   3.671  0.7174 -0.5264 -0.0518
   20SAPS  H15R 2595   1.132   5.763   3.701 -0.9716  0.8940 -1.9130
   20SAPS  C216 2596   0.968   5.630   3.753 -0.1376 -0.5096  1.0551
   20SAPS  H16R 2597   0.940   5.524   3.731  0.7266  0.0639 -3.7120
   20SAPS  H16S 2598   0.876   5.683   3.720  0.6404 -0.4982 -1.2344
   20SAPS  C217 2599   0.993   5.650   3.906  0.2782  0.8233 -0.0233
   20SAPS  H17R 2600   1.088   5.598   3.934  2.4644  3.2859 -2.3116
   20SAPS  H17S 2601   0.911   5.598   3.960  0.9085 -1.5426 -1.1848
   20SAPS  C218 2602   1.017   5.793   3.953  0.4672 -0.4319 -0.2428
   20SAPS  H18R 2603   0.928   5.858   3.941 -0.2992 -1.3332  0.4740
   20SAPS  H18S 2604   1.093   5.848   3.893  0.9115 -0.5943  0.1731
   20SAPS  C219 2605   1.063   5.793   4.095 -0.6092  0.3205 -0.3553
   20SAPS  H19R 2606   1.102   5.895   4.115 -2.2440  1.6289 -3.2427
   20SAPS  H19S 2607   1.155   5.730   4.101 -0.7944  0.1861  1.7833
   20SAPS  C220 2608   0.958   5.757   4.206 -0.6162  0.4383 -0.5280
   20SAPS  H20R 2609   0.942   5.647   4.202  0.4873  0.2349  0.2289
   20SAPS  H20S 2610   0.866   5.818   4.211 -1.3906 -0.6005 -1.6163
   20SAPS  H20T 2611   1.007   5.760   4.306  1.2195 -1.0324 -1.3173
   20SAPS   C33 2612   0.652   5.021   2.803 -0.0609  0.0692  0.6814
   20SAPS   H3X 2613   0.720   4.940   2.772 -1.8162 -1.0850 -0.2857
   20SAPS   H3Y 2614   0.560   4.962   2.825 -1.4957  1.8533 -0.2520
   20SAPS   C34 2615   0.689   5.099   2.926 -0.7461  0.2723  0.5123
   20SAPS   H4X 2616   0.642   5.199   2.919 -1.4633 -0.1705 -2.1887
   20SAPS   H4Y 2617   0.795   5.123   2.903 -1.2049  2.1245  0.2352
   20SAPS   C35 2618   0.671   5.039   3.067  0.2496 -0.1922 -0.4061
   20SAPS   H5X 2619   0.692   4.933   3.041 -0.1141 -0.2773 -0.3593
   20SAPS   H5Y 2620   0.567   5.050   3.104  0.0911  1.8334 -1.2920
   20SAPS   C36 2621   0.766   5.089   3.176  0.3769 -0.8870  0.2752
   20SAPS   H6X 2622   0.786   5.198   3.171 -1.1802 -0.5033  1.6318
   20SAPS   H6Y 2623   0.864   5.049   3.144  0.9992  0.9955 -0.3143
   20SAPS   C37 2624   0.734   5.042   3.315  0.5455  0.0464 -0.4823
   20SAPS   H7X 2625   0.694   4.939   3.317 -0.8157  0.5636 -0.2179
   20SAPS   H7Y 2626   0.657   5.113   3.352  1.5899  0.3548  1.2182
   20SAPS   C38 2627   0.840   5.063   3.419  0.9608 -0.3551  0.1454
   20SAPS   H8X 2628   0.878   5.165   3.400 -0.3158 -0.0257 -0.7573
   20SAPS   H8Y 2629   0.927   4.997   3.398  2.1973  1.3153 -0.1614
   20SAPS   C39 2630   0.790   5.047   3.562 -0.4496 -0.2052 -0.0850
   20SAPS   H9X 2631   0.760   4.941   3.576 -0.5364 -0.0969  0.5740
   20SAPS   H9Y 2632   0.702   5.112   3.578 -0.0871  0.6248 -1.3051
   20SAPS  C310 2633   0.885   5.086   3.676  0.1868  0.6362 -0.4900
   20SAPS  H10X 2634   0.835   5.065   3.773 -1.2590 -2.0350 -1.7006
   20SAPS  H10Y 2635   0.890   5.196   3.658 -3.2167  1.1070  0.7345
   20SAPS  C311 2636   1.017   5.018   3.672 -0.1944 -0.1852  0.0050
   20SAPS  H11X 2637   1.081   5.063   3.593 -0.0786  0.9824  0.7281
   20SAPS  H11Y 2638   0.999   4.915   3.636  1.0300  0.0353 -1.3258
   20SAPS  C312 2639   1.105   5.033   3.796  0.2252  0.4047  0.7607
   20SAPS  H12X 2640   1.117   5.142   3.810  0.5143  0.5438 -0.4451
   20SAPS  H12Y 2641   1.200   4.983   3.767 -0.0607  0.6123 -0.5899
   20SAPS  C313 2642   1.038   4.965   3.916  0.7022 -0.3526  0.4635
   20SAPS  H13X 2643   1.038   4.857   3.892  0.9698 -0.1437 -0.5294
   20SAPS  H13Y 2644   0.939   5.015   3.925  0.6456  0.2443 -2.4071
   20SAPS  C314 2645   1.110   5.000   4.042 -0.7784 -0.1801 -0.4638
   20SAPS  H14X 2646   1.126   5.110   4.049  2.8043 -0.6858  1.5919
   20SAPS  H14Y 2647   1.215   4.968   4.025 -0.4244  0.2032  0.8941
   20SAPS  C315 2648   1.045   4.944   4.174  0.1542 -0.0708 -1.0663
   20SAPS  H15X 2649   0.936   4.966   4.179 -0.2339 -1.7431 -1.5202
   20SAPS  H15Y 2650   1.086   5.011   4.253  1.2894 -2.1389  0.2200
   20SAPS  C316 2651   1.082   4.789   4.197 -0.4964 -0.9061 -0.4734
   20SAPS  H16X 2652   1.193   4.792   4.209 -0.5065  1.4396 -0.4103
   20SAPS  H16Y 2653   1.044   4.739   4.105 -3.8979 -1.4925  1.1068
   20SAPS  C317 2654   1.009   4.729   4.321 -0.2476 -0.1529  0.3349
   20SAPS  H17X 2655   1.018   4.619   4.311 -0.3399 -0.0943 -0.4137
   20SAPS  H17Y 2656   0.901   4.755   4.318  0.2684  2.2225 -1.5050
   20SAPS  C318 2657   1.064   4.773   4.460 -0.3622 -0.2953  0.6138
   20SAPS  H18X 2658   1.172   4.745   4.460 -0.2838 -0.0150  0.0894
   20SAPS  H18Y 2659   1.013   4.723   4.545 -0.9343 -0.9692 -0.1141
   20SAPS  H18Z 2660   1.066   4.884   4.468 -1.6192 -0.2526  0.4580
   21CHL1    C3 2661   2.722   2.229   5.765  0.6912 -0.6730  0.2713
   21CHL1    H3 2662   2.785   2.320   5.763 -1.5970  1.1096  2.3269
   21CHL1    O3 2663   2.680   2.201   5.900 -0.5182  0.3151 -0.0746
   21CHL1   H3' 2664   2.761   2.182   5.948 -0.6819  0.4070  0.2415
   21CHL1    C4 2665   2.595   2.275   5.685 -0.5732 -0.6256 -0.7440
   21CHL1   H4A 2666   2.516   2.199   5.707 -0.0933 -1.2037 -0.9860
   21CHL1   H4B 2667   2.559   2.370   5.728  3.2689  0.9581 -0.6869
   21CHL1    C5 2668   2.618   2.280   5.535  0.5749  0.3967  0.7259
   21CHL1    C6 2669   2.592   2.389   5.459 -0.1049  0.0866  0.1760
   21CHL1    H6 2670   2.561   2.483   5.508  1.7934  1.1300 -0.5256
   21CHL1    C7 2671   2.588   2.389   5.310 -0.1998 -0.5103  0.2143
   21CHL1   H7A 2672   2.502   2.448   5.270 -2.1098 -2.1693  1.6634
   21CHL1   H7B 2673   2.678   2.446   5.277 -0.0560 -1.1437 -0.5053
   21CHL1    C8 2674   2.607   2.254   5.243  0.1810  0.2674  0.2534
   21CHL1    H8 2675   2.509   2.202   5.241  0.8978 -1.1334  0.4742
   21CHL1   C14 2676   2.666   2.270   5.104  0.3329  0.1569 -0.0475
   21CHL1   H14 2677   2.769   2.301   5.131 -0.3752  2.4161  0.2288
   21CHL1   C15 2678   2.602   2.381   5.021  0.0907 -0.6828  0.4181
   21CHL1  H15A 2679   2.492   2.369   5.024 -0.0345  0.3287  0.2174
   21CHL1  H15B 2680   2.621   2.484   5.057 -1.7245 -0.0786 -0.2658
   21CHL1   C16 2681   2.675   2.361   4.886  0.7665  0.3393  0.1204
   21CHL1  H16A 2682   2.598   2.377   4.807  0.7355  0.3106  0.1446
   21CHL1  H16B 2683   2.760   2.432   4.878  0.3755  0.6399 -1.9725
   21CHL1   C17 2684   2.723   2.206   4.894 -0.4252 -0.1015  0.0041
   21CHL1   H17 2685   2.831   2.219   4.919 -0.3367  2.0411 -1.2211
   21CHL1   C13 2686   2.672   2.139   5.025 -0.2419 -0.0281 -0.2636
   21CHL1   C18 2687   2.524   2.090   4.996 -0.5639 -0.0488 -0.6181
   21CHL1  H18A 2688   2.536   1.993   4.943 -0.2560 -0.3577  0.0144
   21CHL1  H18B 2689   2.468   2.064   5.089 -0.5170 -1.2365 -0.9046
   21CHL1  H18C 2690   2.459   2.156   4.934  0.2445 -0.2833 -1.7457
   21CHL1   C12 2691   2.766   2.041   5.105 -0.3641  0.4251  0.0573
   21CHL1  H12A 2692   2.750   1.946   5.051 -0.4471  0.4199  0.0903
   21CHL1  H12B 2693   2.869   2.082   5.098 -0.4436  0.8169  0.9714
   21CHL1   C11 2694   2.723   2.033   5.245  0.1559  0.1109 -0.1895
   21CHL1  H11A 2695   2.624   1.985   5.230 -0.5964  1.9427 -1.4775
   21CHL1  H11B 2696   2.792   1.965   5.300  1.4921  2.8066  1.7402
   21CHL1    C9 2697   2.696   2.163   5.322  0.2748  0.1991  0.4882
   21CHL1    H9 2698   2.794   2.214   5.313  0.7219 -0.8332 -1.0202
   21CHL1   C10 2699   2.661   2.140   5.473  0.0433  0.1858  0.0311
   21CHL1   C19 2700   2.548   2.032   5.487 -0.1695 -0.2290  0.0638
   21CHL1  H19A 2701   2.583   1.934   5.448  0.5173 -0.4864  1.2697
   21CHL1  H19B 2702   2.502   2.017   5.587  1.5051  0.4180  0.9654
   21CHL1  H19C 2703   2.465   2.070   5.423  0.0282  3.0223  1.5492
   21CHL1    C1 2704   2.785   2.101   5.546  0.2638  0.3218 -0.4871
   21CHL1   H1A 2705   2.814   1.997   5.520  2.5598  0.4414  1.2691
   21CHL1   H1B 2706   2.874   2.161   5.520 -0.2598  1.0082 -0.7311
   21CHL1    C2 2707   2.784   2.109   5.703  0.5567  0.2027 -0.1464
   21CHL1   H2A 2708   2.881   2.077   5.747 -0.0043  1.3486  2.0626
   21CHL1   H2B 2709   2.729   2.020   5.741  1.3629  1.1158  3.6130
   21CHL1   C20 2710   2.729   2.130   4.756  0.2618 -0.0990 -0.0118
   21CHL1   H20 2711   2.626   2.104   4.723  0.0152 -2.3033  2.2176
   21CHL1   C21 2712   2.802   1.999   4.782 -0.0060 -0.5529 -0.9829
   21CHL1  H21A 2713   2.730   1.933   4.835 -0.7745 -0.9252 -2.4440
   21CHL1  H21B 2714   2.902   2.014   4.828  0.6826 -1.3426 -2.1766
   21CHL1  H21C 2715   2.806   1.952   4.681  1.3185 -1.7441 -0.4030
   21CHL1   C22 2716   2.803   2.221   4.651  0.1673 -0.6795 -0.3013
   21CHL1  H22A 2717   2.761   2.323   4.663 -2.2857 -1.9174  3.3573
   21CHL1  H22B 2718   2.906   2.229   4.692 -0.2438 -1.2649  0.8759
   21CHL1   C23 2719   2.776   2.173   4.506  0.3266  0.5196  0.5579
   21CHL1  H23A 2720   2.827   2.077   4.485 -2.2434 -0.8958  0.4575
   21CHL1  H23B 2721   2.668   2.148   4.516  0.3946  0.3067  0.7640
   21CHL1   C24 2722   2.789   2.295   4.411 -0.0498 -0.2984  0.9433
   21CHL1  H24A 2723   2.730   2.383   4.443 -0.7577 -0.1593 -0.6490
   21CHL1  H24B 2724   2.895   2.326   4.401 -0.7707  1.9492 -0.4372
   21CHL1   C25 2725   2.746   2.257   4.269  0.6995  0.3304  0.3545
   21CHL1   H25 2726   2.639   2.234   4.285  0.6497  0.9143  0.9028
   21CHL1   C26 2727   2.753   2.372   4.174 -0.3253 -0.2411  0.1241
   21CHL1  H26A 2728   2.705   2.348   4.077 -0.7587  0.4992  0.1535
   21CHL1  H26B 2729   2.716   2.465   4.222  0.0129 -0.5180  0.9348
   21CHL1  H26C 2730   2.859   2.399   4.151 -0.6664  1.5060  0.4814
   21CHL1   C27 2731   2.824   2.138   4.216 -0.1207  0.0708 -0.1765
   21CHL1  H27A 2732   2.931   2.170   4.213  0.4112 -1.6787 -1.6318
   21CHL1  H27B 2733   2.811   2.056   4.291  0.7055  1.2840  1.3638
   21CHL1  H27C 2734   2.802   2.111   4.111 -3.6061  0.3104  0.3942
   22CHL1    C3 2735   6.033   1.474   5.890 -0.4960  0.4823  1.0094
   22CHL1    H3 2736   6.108   1.546   5.853  0.7721 -0.6319  1.3584
   22CHL1    O3 2737   6.021   1.459   6.025 -0.1640  0.0097  0.2857
   22CHL1   H3' 2738   5.951   1.395   6.035  2.1165 -2.7348  0.1370
   22CHL1    C4 2739   5.899   1.519   5.830 -0.3688  0.7715 -0.6595
   22CHL1   H4A 2740   5.819   1.455   5.872 -0.4969 -0.6433 -2.8931
   22CHL1   H4B 2741   5.865   1.615   5.874 -2.1253  0.6415 -1.6289
   22CHL1    C5 2742   5.872   1.500   5.686 -0.1193  0.0176 -0.4169
   22CHL1    C6 2743   5.811   1.590   5.610 -0.5224 -0.4802  0.2181
   22CHL1    H6 2744   5.783   1.685   5.659  1.3679  1.0325 -1.4426
   22CHL1    C7 2745   5.770   1.574   5.462 -1.0217 -0.3708  0.0084
   22CHL1   H7A 2746   5.660   1.590   5.455 -1.3254 -0.9280  2.4924
   22CHL1   H7B 2747   5.814   1.637   5.382 -0.6006 -1.3867 -0.5714
   22CHL1    C8 2748   5.793   1.429   5.415  0.3233  0.3763 -0.3999
   22CHL1    H8 2749   5.698   1.382   5.449  0.5454  1.0116  1.1930
   22CHL1   C14 2750   5.789   1.423   5.262 -0.7006 -0.3063  0.4632
   22CHL1   H14 2751   5.890   1.462   5.236 -1.1478  0.2795 -0.3988
   22CHL1   C15 2752   5.695   1.513   5.183 -0.3415 -0.2648  0.1553
   22CHL1  H15A 2753   5.597   1.485   5.226 -0.1413  0.5580  1.1880
   22CHL1  H15B 2754   5.715   1.622   5.196 -1.1280 -0.3632  2.6605
   22CHL1   C16 2755   5.710   1.461   5.041 -0.5024 -1.1312 -0.4474
   22CHL1  H16A 2756   5.609   1.445   4.996 -0.3130 -0.6720 -1.0409
   22CHL1  H16B 2757   5.771   1.526   4.976 -1.2154  0.1315  0.1199
   22CHL1   C17 2758   5.784   1.318   5.057  0.2709 -0.8801 -0.1232
   22CHL1   H17 2759   5.888   1.349   5.034 -0.2559  0.7366 -0.4671
   22CHL1   C13 2760   5.791   1.284   5.209 -0.3417  0.1823  0.7062
   22CHL1   C18 2761   5.657   1.213   5.245 -0.8819 -0.5124 -0.2229
   22CHL1  H18A 2762   5.638   1.116   5.194 -0.9954 -1.3803  1.4159
   22CHL1  H18B 2763   5.657   1.200   5.355  1.8591  1.6562  0.1512
   22CHL1  H18C 2764   5.573   1.282   5.225 -1.8030 -0.9103  1.9891
   22CHL1   C12 2765   5.917   1.211   5.271 -0.2271 -0.2452 -0.2935
   22CHL1  H12A 2766   5.931   1.108   5.232  0.0315 -0.2301 -0.2383
   22CHL1  H12B 2767   5.998   1.278   5.237 -1.3201  1.3743  0.1762
   22CHL1   C11 2768   5.920   1.209   5.423 -0.6235 -0.8098 -0.0438
   22CHL1  H11A 2769   5.826   1.156   5.450 -0.9699  0.5012  1.5346
   22CHL1  H11B 2770   6.012   1.158   5.457 -1.3913 -1.0481  1.8348
   22CHL1    C9 2771   5.910   1.356   5.479 -0.3462  0.4063  0.7408
   22CHL1    H9 2772   5.997   1.414   5.442 -1.7826  1.1400 -1.7558
   22CHL1   C10 2773   5.913   1.359   5.638 -0.5675  0.2157 -0.0364
   22CHL1   C19 2774   5.811   1.253   5.689  0.2700 -0.4492 -0.1064
   22CHL1  H19A 2775   5.713   1.258   5.637  0.1066  1.1040  0.2727
   22CHL1  H19B 2776   5.855   1.154   5.664  2.7718 -0.0677  2.2707
   22CHL1  H19C 2777   5.792   1.251   5.799 -2.3395  0.3275 -0.4734
   22CHL1    C1 2778   6.059   1.322   5.686  0.3696 -0.1203 -0.3418
   22CHL1   H1A 2779   6.088   1.223   5.646 -1.1342 -1.4309  1.6413
   22CHL1   H1B 2780   6.124   1.405   5.650 -2.2079  2.1769 -0.0909
   22CHL1    C2 2781   6.074   1.333   5.836  0.3213  0.0693  0.1456
   22CHL1   H2A 2782   6.179   1.317   5.868  0.4902 -2.2175 -1.3307
   22CHL1   H2B 2783   6.015   1.253   5.886  0.8451 -0.1491  0.4139
   22CHL1   C20 2784   5.750   1.207   4.949  0.3205  0.2257  0.1359
   22CHL1   H20 2785   5.644   1.180   4.970  0.6849 -3.3978 -1.9282
   22CHL1   C21 2786   5.834   1.083   4.979  0.4396  0.8762  0.6796
   22CHL1  H21A 2787   5.941   1.115   4.972  0.4100  1.1748  1.5711
   22CHL1  H21B 2788   5.827   1.001   4.903  2.6341  2.8674 -1.9089
   22CHL1  H21C 2789   5.808   1.035   5.075  0.8361  0.5637  0.6340
   22CHL1   C22 2790   5.752   1.247   4.802  0.3900 -0.1356 -0.0566
   22CHL1  H22A 2791   5.718   1.163   4.737 -1.0231 -0.4041  0.9969
   22CHL1  H22B 2792   5.685   1.334   4.784  0.6974  0.0715 -0.2085
   22CHL1   C23 2793   5.891   1.288   4.745  0.2923  0.1022 -0.0167
   22CHL1  H23A 2794   5.932   1.368   4.810 -1.4115  1.1176 -0.1454
   22CHL1  H23B 2795   5.964   1.204   4.746 -0.0755 -0.2246 -0.5701
   22CHL1   C24 2796   5.883   1.333   4.598 -0.0854 -0.2250  1.1095
   22CHL1  H24A 2797   5.819   1.262   4.542  2.7141 -2.8617  0.9720
   22CHL1  H24B 2798   5.841   1.436   4.592  0.0961 -0.2453 -3.0186
   22CHL1   C25 2799   6.016   1.345   4.519  0.4302 -0.4977  0.2828
   22CHL1   H25 2800   6.060   1.244   4.529 -0.7125 -1.1208 -0.6487
   22CHL1   C26 2801   6.001   1.369   4.366 -0.4175 -0.0637  0.1254
   22CHL1  H26A 2802   5.975   1.472   4.337 -0.6824 -0.4086 -0.8972
   22CHL1  H26B 2803   6.102   1.353   4.323  1.4377  0.1452  3.9752
   22CHL1  H26C 2804   5.931   1.295   4.320 -2.0720  0.1569  2.1494
   22CHL1   C27 2805   6.101   1.463   4.577  0.0532 -0.1086 -0.0218
   22CHL1  H27A 2806   6.186   1.487   4.510 -0.2783 -0.9977 -0.7868
   22CHL1  H27B 2807   6.032   1.549   4.565 -0.0902 -0.3248 -0.7998
   22CHL1  H27C 2808   6.139   1.448   4.681  0.1402 -1.0034 -0.1682
   23CHL1    C3 2809   2.770   1.525   5.916 -0.0134  0.4573  0.0423
   23CHL1    H3 2810   2.660   1.529   5.899 -0.4563  4.6755  2.5319
   23CHL1    O3 2811   2.800   1.532   6.054  0.3406 -0.0395  0.2485
   23CHL1   H3' 2812   2.759   1.452   6.090 -1.1013  0.5776  0.0549
   23CHL1    C4 2813   2.846   1.402   5.849  0.5277 -0.1169 -0.2325
   23CHL1   H4A 2814   2.949   1.399   5.893  1.6237  0.5955 -2.5882
   23CHL1   H4B 2815   2.789   1.315   5.888 -0.4380 -0.1170 -1.5912
   23CHL1    C5 2816   2.846   1.404   5.699 -0.8505  0.1490  0.1943
   23CHL1    C6 2817   2.804   1.300   5.626  0.0823 -0.1213 -0.9122
   23CHL1    H6 2818   2.768   1.215   5.686 -0.5197  0.5951 -0.2350
   23CHL1    C7 2819   2.795   1.296   5.473  0.2220 -0.2069 -0.1234
   23CHL1   H7A 2820   2.823   1.197   5.431  0.5755  0.9646 -2.8461
   23CHL1   H7B 2821   2.687   1.307   5.452 -0.3911 -2.6421  1.2971
   23CHL1    C8 2822   2.867   1.417   5.409  0.4178 -0.4198 -0.2746
   23CHL1    H8 2823   2.971   1.379   5.417  0.2499 -1.2713 -1.8334
   23CHL1   C14 2824   2.829   1.437   5.264 -0.7543 -0.7028 -0.5436
   23CHL1   H14 2825   2.723   1.469   5.255 -0.5025  0.3276  0.0483
   23CHL1   C15 2826   2.833   1.306   5.182  0.1135 -0.7449 -0.4459
   23CHL1  H15A 2827   2.903   1.230   5.223  2.1685  1.8897  1.2082
   23CHL1  H15B 2828   2.728   1.269   5.181 -0.2562  0.2363  0.3068
   23CHL1   C16 2829   2.871   1.362   5.042  0.2212  0.5138  0.1021
   23CHL1  H16A 2830   2.974   1.324   5.026  0.8907  2.9333 -1.9963
   23CHL1  H16B 2831   2.805   1.306   4.972 -0.8530 -0.7672  2.0551
   23CHL1   C17 2832   2.866   1.516   5.055 -0.0341 -0.2306  0.5762
   23CHL1   H17 2833   2.760   1.549   5.053  0.4568  1.3888 -1.2596
   23CHL1   C13 2834   2.914   1.547   5.197  0.0600  1.2272  0.1003
   23CHL1   C18 2835   3.067   1.529   5.211 -0.1902  0.6235  0.2131
   23CHL1  H18A 2836   3.106   1.443   5.152 -0.8689  0.8830 -0.6394
   23CHL1  H18B 2837   3.120   1.616   5.166  0.8916  0.9741  2.0851
   23CHL1  H18C 2838   3.106   1.528   5.315  1.9459 -1.3385 -0.5103
   23CHL1   C12 2839   2.864   1.682   5.260  0.0735  0.3687 -0.1077
   23CHL1  H12A 2840   2.912   1.766   5.206 -0.4437  0.4665 -0.4255
   23CHL1  H12B 2841   2.753   1.684   5.246  0.0841 -0.4822 -0.3651
   23CHL1   C11 2842   2.896   1.675   5.412 -0.2517 -0.4371  0.3969
   23CHL1  H11A 2843   3.006   1.686   5.425 -0.6465  2.3609  2.2563
   23CHL1  H11B 2844   2.860   1.764   5.468  1.4523  1.4611 -1.3638
   23CHL1    C9 2845   2.845   1.544   5.489  0.0829  0.1580  0.5592
   23CHL1    H9 2846   2.735   1.560   5.485 -0.1289 -1.1982 -3.3708
   23CHL1   C10 2847   2.881   1.539   5.635  1.1291 -0.7198 -0.3093
   23CHL1   C19 2848   3.034   1.535   5.633 -0.7193 -0.2399  0.2100
   23CHL1  H19A 2849   3.079   1.462   5.563 -0.4199 -0.2194  0.3764
   23CHL1  H19B 2850   3.069   1.639   5.612 -0.8498 -0.3333 -0.4765
   23CHL1  H19C 2851   3.071   1.508   5.734  2.1177  2.3077  0.0212
   23CHL1    C1 2852   2.820   1.661   5.707  0.6759 -0.2434 -0.0222
   23CHL1   H1A 2853   2.868   1.751   5.662  2.1564 -1.8197 -1.7804
   23CHL1   H1B 2854   2.711   1.656   5.685  1.0268  0.0854 -2.0105
   23CHL1    C2 2855   2.821   1.653   5.860  0.3439  0.3110 -0.3969
   23CHL1   H2A 2856   2.767   1.737   5.908  0.1368  0.0883 -0.2340
   23CHL1   H2B 2857   2.928   1.677   5.880  0.0025  1.8935 -0.3150
   23CHL1   C20 2858   2.940   1.595   4.939 -0.4046  0.5471  0.5316
   23CHL1   H20 2859   3.002   1.678   4.979  0.3267  0.2199  0.1044
   23CHL1   C21 2860   2.831   1.668   4.852  0.0939  0.2583 -0.4847
   23CHL1  H21A 2861   2.878   1.760   4.811  2.2911 -0.6378 -0.0583
   23CHL1  H21B 2862   2.749   1.702   4.920 -1.9179 -0.3081 -2.4909
   23CHL1  H21C 2863   2.785   1.617   4.765  2.1541 -0.6956 -1.0666
   23CHL1   C22 2864   3.040   1.505   4.851  0.2615 -0.5101  0.5751
   23CHL1  H22A 2865   3.118   1.467   4.921 -0.3031  0.2293  1.6449
   23CHL1  H22B 2866   2.979   1.425   4.805 -1.9005  0.3144  1.8338
   23CHL1   C23 2867   3.109   1.588   4.751 -0.0354 -0.3119 -0.1391
   23CHL1  H23A 2868   3.050   1.644   4.675  1.5741  1.5256 -0.1419
   23CHL1  H23B 2869   3.165   1.676   4.791 -0.8206  0.4709 -0.7202
   23CHL1   C24 2870   3.205   1.481   4.686  0.1332 -0.1838 -0.3392
   23CHL1  H24A 2871   3.287   1.464   4.758 -0.0388  0.4972  0.0304
   23CHL1  H24B 2872   3.151   1.390   4.653 -0.5902  0.2196 -0.3029
   23CHL1   C25 2873   3.273   1.527   4.557  0.0236  0.3861  0.1358
   23CHL1   H25 2874   3.332   1.619   4.577  0.0322  0.4490 -0.1806
   23CHL1   C26 2875   3.376   1.423   4.515 -0.1955 -0.2994  0.4842
   23CHL1  H26A 2876   3.403   1.447   4.410 -2.4432 -0.9526 -0.3054
   23CHL1  H26B 2877   3.460   1.415   4.588  0.0450  1.3652  0.4173
   23CHL1  H26C 2878   3.330   1.322   4.516  0.8809 -0.8705 -1.5674
   23CHL1   C27 2879   3.173   1.546   4.444  0.8003 -0.3401 -0.1189
   23CHL1  H27A 2880   3.225   1.520   4.349  0.2668 -2.9930  0.2501
   23CHL1  H27B 2881   3.078   1.489   4.451  1.1119 -0.7928  0.4278
   23CHL1  H27C 2882   3.138   1.651   4.436 -0.0333 -0.1665  3.9638
   24CHL1    C3 2883   4.127   1.463   6.219  0.4577 -0.2210  0.2097
   24CHL1    H3 2884   4.020   1.440   6.207 -0.1517  2.2035  0.4033
   24CHL1    O3 2885   4.136   1.504   6.356  0.0499  0.0483  0.0335
   24CHL1   H3' 2886   4.205   1.569   6.364 -2.1390  2.4049  1.2553
   24CHL1    C4 2887   4.216   1.341   6.206  0.5887  0.7993  0.6502
   24CHL1   H4A 2888   4.324   1.368   6.211  1.1197 -0.6673 -1.4618
   24CHL1   H4B 2889   4.186   1.273   6.289  1.3714 -0.3617  0.0199
   24CHL1    C5 2890   4.190   1.289   6.068 -0.1730 -0.5067 -0.0592
   24CHL1    C6 2891   4.151   1.161   6.061  0.2471  0.0887  0.6430
   24CHL1    H6 2892   4.158   1.097   6.150  1.7061  0.4282  0.7995
   24CHL1    C7 2893   4.141   1.095   5.918 -0.0690  0.2955  0.5062
   24CHL1   H7A 2894   4.199   1.000   5.917 -0.3754  0.1046  0.4123
   24CHL1   H7B 2895   4.032   1.078   5.903 -0.5231  0.2688  3.2393
   24CHL1    C8 2896   4.198   1.174   5.797  0.6965 -1.0125  0.2341
   24CHL1    H8 2897   4.308   1.165   5.789  0.8608  1.5390 -2.0488
   24CHL1   C14 2898   4.138   1.131   5.663  0.8031  0.1149 -0.0079
   24CHL1   H14 2899   4.029   1.152   5.667  0.0513 -3.1164 -0.7482
   24CHL1   C15 2900   4.129   0.987   5.631  0.0783  0.1493  0.2324
   24CHL1  H15A 2901   4.228   0.942   5.653  0.2177 -0.5685 -1.7327
   24CHL1  H15B 2902   4.056   0.924   5.687 -1.6531  1.7647 -0.0973
   24CHL1   C16 2903   4.106   0.986   5.484  0.4931  0.3105  0.5428
   24CHL1  H16A 2904   4.179   0.919   5.433 -1.2974  0.3721 -2.3281
   24CHL1  H16B 2905   4.009   0.937   5.460  0.3851 -0.0406  1.6438
   24CHL1   C17 2906   4.112   1.130   5.430 -0.4707 -0.3284  0.2481
   24CHL1   H17 2907   4.015   1.183   5.438  0.5073  1.6196 -0.3518
   24CHL1   C13 2908   4.188   1.210   5.540  0.6101  0.1800  0.0866
   24CHL1   C18 2909   4.341   1.186   5.520 -0.6226  0.2290  0.6184
   24CHL1  H18A 2910   4.401   1.219   5.607  0.3773 -0.2036  0.1039
   24CHL1  H18B 2911   4.361   1.077   5.512 -1.3362  0.0138  1.5533
   24CHL1  H18C 2912   4.378   1.235   5.428 -1.9290  0.1016 -0.0034
   24CHL1   C12 2913   4.141   1.355   5.565  0.3094  0.4510 -0.8828
   24CHL1  H12A 2914   4.172   1.423   5.482  0.6481  3.1122  1.2728
   24CHL1  H12B 2915   4.031   1.362   5.578  0.3516  0.9368 -0.7723
   24CHL1   C11 2916   4.206   1.414   5.693  0.2173  0.2108 -0.4543
   24CHL1  H11A 2917   4.316   1.414   5.684  0.2568  0.6737 -0.0256
   24CHL1  H11B 2918   4.173   1.520   5.691 -0.5494 -0.0226 -0.5433
   24CHL1    C9 2919   4.169   1.326   5.815  0.5533  0.3627 -0.2192
   24CHL1    H9 2920   4.059   1.328   5.829  0.6548 -0.5550  0.8560
   24CHL1   C10 2921   4.214   1.387   5.947 -0.4715 -0.2195  0.0710
   24CHL1   C19 2922   4.367   1.412   5.941  0.2755 -0.1883  0.4083
   24CHL1  H19A 2923   4.401   1.463   6.034 -1.6827  0.5206  0.7759
   24CHL1  H19B 2924   4.420   1.315   5.928 -0.7134 -0.5501 -1.2288
   24CHL1  H19C 2925   4.397   1.490   5.867  0.2975  0.6943  1.3283
   24CHL1    C1 2926   4.142   1.519   5.972  0.5434  0.0083  0.8017
   24CHL1   H1A 2927   4.184   1.596   5.904 -1.8226 -0.9334 -1.9158
   24CHL1   H1B 2928   4.034   1.509   5.948  1.0650 -1.8163 -1.0975
   24CHL1    C2 2929   4.157   1.574   6.118  0.5122 -0.0313  0.1212
   24CHL1   H2A 2930   4.095   1.663   6.142 -0.5652 -0.1793 -1.8603
   24CHL1   H2B 2931   4.262   1.604   6.137  0.5649 -1.0948  1.7097
   24CHL1   C20 2932   4.150   1.132   5.281 -0.3027  0.1997 -0.0125
   24CHL1   H20 2933   4.249   1.088   5.254 -0.4375  1.5128 -3.1322
   24CHL1   C21 2934   4.174   1.281   5.238  0.5721 -1.1036 -0.0884
   24CHL1  H21A 2935   4.217   1.278   5.136 -1.4745  2.3321 -1.2089
   24CHL1  H21B 2936   4.243   1.338   5.304 -1.5265 -0.7636  1.9452
   24CHL1  H21C 2937   4.076   1.332   5.226  0.3633 -0.8088  2.3400
   24CHL1   C22 2938   4.042   1.068   5.198  0.1807  0.2164 -0.2562
   24CHL1  H22A 2939   4.033   0.962   5.230  4.3194 -0.5038 -0.9625
   24CHL1  H22B 2940   3.950   1.125   5.223 -2.3251 -3.7004  0.3203
   24CHL1   C23 2941   4.076   1.058   5.051  0.2035 -0.2228  0.2753
   24CHL1  H23A 2942   4.129   1.147   5.011  1.6661 -0.3373  1.8214
   24CHL1  H23B 2943   4.150   0.977   5.038  1.9176  1.1746  0.8571
   24CHL1   C24 2944   3.957   1.051   4.951 -0.3965  0.7203 -0.5648
   24CHL1  H24A 2945   3.905   0.957   4.982  0.8083  0.1567 -0.2020
   24CHL1  H24B 2946   3.892   1.139   4.967 -0.4010  0.6524 -0.1895
   24CHL1   C25 2947   3.996   1.062   4.809 -0.1869  0.4258  0.0644
   24CHL1   H25 2948   4.059   1.150   4.784 -0.0040  0.2058 -0.2610
   24CHL1   C26 2949   4.072   0.941   4.759 -1.0288 -0.3951 -0.4445
   24CHL1  H26A 2950   4.098   0.949   4.651  1.2526  2.0536  0.1673
   24CHL1  H26B 2951   4.159   0.920   4.825 -0.9776 -2.6294 -1.1363
   24CHL1  H26C 2952   4.006   0.852   4.765 -2.1258  0.2871 -1.8355
   24CHL1   C27 2953   3.873   1.073   4.716 -0.4232  0.0304 -0.4638
   24CHL1  H27A 2954   3.803   0.990   4.738 -0.5552  0.5889  1.3528
   24CHL1  H27B 2955   3.819   1.170   4.723 -0.6386 -0.1106 -0.1759
   24CHL1  H27C 2956   3.909   1.069   4.610  0.3443  0.2795 -0.2214
   25CHL1    C3 2957   5.212   2.744   6.303  0.3470  0.5114 -0.5624
   25CHL1    H3 2958   5.283   2.824   6.331  0.7003 -0.6658  2.1822
   25CHL1    O3 2959   5.122   2.721   6.412 -0.2403  0.1248 -0.1597
   25CHL1   H3' 2960   5.100   2.811   6.434 -0.8614  0.0969 -0.6451
   25CHL1    C4 2961   5.133   2.803   6.181 -0.3318  0.0794 -0.1614
   25CHL1   H4A 2962   5.054   2.731   6.151 -1.5221  1.4002 -0.3213
   25CHL1   H4B 2963   5.084   2.899   6.207 -1.5086 -1.0533  2.0981
   25CHL1    C5 2964   5.221   2.826   6.062 -0.1016 -0.2163 -0.3067
   25CHL1    C6 2965   5.232   2.946   5.992 -0.2003 -0.1070 -0.0616
   25CHL1    H6 2966   5.193   3.041   6.029  0.2506 -0.0605  0.3030
   25CHL1    C7 2967   5.300   2.951   5.859  0.0298 -0.3509  0.4111
   25CHL1   H7A 2968   5.220   2.999   5.798 -1.1214 -0.1737  1.9808
   25CHL1   H7B 2969   5.389   3.016   5.868 -0.3573  0.2795 -0.1742
   25CHL1    C8 2970   5.339   2.810   5.793  0.5459  0.1304  0.2907
   25CHL1    H8 2971   5.244   2.769   5.752 -0.5254  3.1646 -0.5462
   25CHL1   C14 2972   5.437   2.836   5.684 -0.9834 -0.0169  0.1240
   25CHL1   H14 2973   5.527   2.889   5.723  0.2774 -0.5344 -1.9331
   25CHL1   C15 2974   5.386   2.926   5.572  0.4368 -0.0824  0.0666
   25CHL1  H15A 2975   5.279   2.905   5.555  0.5879 -0.0000 -1.1050
   25CHL1  H15B 2976   5.381   3.031   5.608  0.8292 -0.4652  1.2909
   25CHL1   C16 2977   5.481   2.902   5.453  0.1128  0.8762  0.4696
   25CHL1  H16A 2978   5.429   2.883   5.357  1.5103  0.8672 -0.3161
   25CHL1  H16B 2979   5.544   2.993   5.446 -1.2442  1.7806 -0.3925
   25CHL1   C17 2980   5.565   2.775   5.491 -0.3160 -0.0243  0.0160
   25CHL1   H17 2981   5.656   2.823   5.533 -0.6783 -0.8410  1.8399
   25CHL1   C13 2982   5.485   2.710   5.616 -0.1500 -0.4012 -0.7903
   25CHL1   C18 2983   5.370   2.627   5.546  0.1232 -0.5823 -0.1506
   25CHL1  H18A 2984   5.301   2.585   5.623 -1.0215 -0.6357 -1.1612
   25CHL1  H18B 2985   5.309   2.689   5.476  3.7796  1.1213 -2.0826
   25CHL1  H18C 2986   5.415   2.539   5.497  0.7767 -1.0181  1.1715
   25CHL1   C12 2987   5.562   2.624   5.723 -0.1225  0.1055  0.5263
   25CHL1  H12A 2988   5.576   2.526   5.673 -1.2395 -0.0825  0.5376
   25CHL1  H12B 2989   5.664   2.662   5.741  0.8444 -0.9720 -2.1067
   25CHL1   C11 2990   5.476   2.594   5.843  0.6016 -0.3381 -0.4888
   25CHL1  H11A 2991   5.412   2.505   5.827  1.1587 -0.9781  0.6937
   25CHL1  H11B 2992   5.541   2.563   5.928  0.9338  3.5168  0.8577
   25CHL1    C9 2993   5.398   2.720   5.901 -0.0346  0.4032  0.3521
   25CHL1    H9 2994   5.474   2.779   5.957 -1.6752 -0.0681  3.3026
   25CHL1   C10 2995   5.307   2.694   6.018  0.0099 -0.3097  0.6360
   25CHL1   C19 2996   5.214   2.579   5.972 -0.0844 -0.3105 -0.2125
   25CHL1  H19A 2997   5.133   2.558   6.044  1.6386 -1.1396  1.5577
   25CHL1  H19B 2998   5.163   2.587   5.873 -3.5664 -0.8225  1.3996
   25CHL1  H19C 2999   5.262   2.480   5.970  0.0322 -0.2972  1.1162
   25CHL1    C1 3000   5.384   2.641   6.140 -0.5422  0.0646 -0.2403
   25CHL1   H1A 3001   5.428   2.541   6.120  0.9332  0.1779  2.0526
   25CHL1   H1B 3002   5.469   2.706   6.168  0.6491 -0.2848 -2.7716
   25CHL1    C2 3003   5.297   2.623   6.271  0.1509  0.2412 -0.4688
   25CHL1   H2A 3004   5.363   2.585   6.352 -0.9119 -0.4311  0.1185
   25CHL1   H2B 3005   5.236   2.532   6.250  0.6799 -0.2986  0.2622
   25CHL1   C20 3006   5.607   2.689   5.371  0.2220 -0.3624  0.6818
   25CHL1   H20 3007   5.518   2.633   5.333  1.1004 -1.8386  0.7330
   25CHL1   C21 3008   5.697   2.571   5.419 -0.8934 -0.4308 -0.0830
   25CHL1  H21A 3009   5.783   2.608   5.479 -2.2143  1.5577  0.6790
   25CHL1  H21B 3010   5.726   2.500   5.339  0.1764  1.1516 -1.1751
   25CHL1  H21C 3011   5.648   2.505   5.493 -1.5834  0.3334  0.1570
   25CHL1   C22 3012   5.685   2.764   5.264 -0.4767  0.2164 -0.3134
   25CHL1  H22A 3013   5.622   2.851   5.234  1.2892  2.7158  2.5744
   25CHL1  H22B 3014   5.783   2.807   5.294 -0.3777 -0.9892  1.2341
   25CHL1   C23 3015   5.728   2.690   5.137  0.1026 -0.1260  0.2491
   25CHL1  H23A 3016   5.791   2.604   5.170  1.3431  1.0236  0.9788
   25CHL1  H23B 3017   5.636   2.656   5.086  0.5306 -0.6023 -0.2239
   25CHL1   C24 3018   5.812   2.770   5.037  1.0599 -0.4796 -0.0198
   25CHL1  H24A 3019   5.730   2.812   4.975 -0.0704 -1.6348  0.6302
   25CHL1  H24B 3020   5.876   2.844   5.089  0.7752  0.0184 -0.3746
   25CHL1   C25 3021   5.893   2.690   4.939 -0.1174 -0.5735 -0.7327
   25CHL1   H25 3022   5.905   2.755   4.850  1.0729  2.1612  1.2856
   25CHL1   C26 3023   6.027   2.663   5.001 -0.2403  0.4417  0.9073
   25CHL1  H26A 3024   6.025   2.599   5.092 -1.6896 -3.1318 -1.4398
   25CHL1  H26B 3025   6.096   2.615   4.929  0.5705  4.4001 -1.2558
   25CHL1  H26C 3026   6.076   2.761   5.019  0.7434  0.6359 -2.2076
   25CHL1   C27 3027   5.828   2.551   4.916  0.5499  0.4417 -0.0168
   25CHL1  H27A 3028   5.727   2.554   4.869  1.2554  1.1435 -1.5375
   25CHL1  H27B 3029   5.894   2.489   4.852  0.3357 -0.3632  0.5233
   25CHL1  H27C 3030   5.834   2.489   5.008 -2.9076  0.6762  0.5080
   26CHL1    C3 3031   5.473   0.817   5.865  0.0199 -0.1029 -0.0755
   26CHL1    H3 3032   5.380   0.847   5.813 -0.9578 -0.6717  1.2818
   26CHL1    O3 3033   5.451   0.855   6.002 -0.0465  0.4864  0.3366
   26CHL1   H3' 3034   5.521   0.806   6.047 -0.2730  1.4280  1.7824
   26CHL1    C4 3035   5.477   0.664   5.852 -0.2086  0.6391  0.7310
   26CHL1   H4A 3036   5.560   0.609   5.902 -1.3772 -0.8563  1.0998
   26CHL1   H4B 3037   5.392   0.609   5.897  0.5188 -0.6315  0.6098
   26CHL1    C5 3038   5.475   0.627   5.701  0.0992 -0.5642 -0.2613
   26CHL1    C6 3039   5.383   0.549   5.640  0.2846 -0.2118 -0.3601
   26CHL1    H6 3040   5.308   0.505   5.708  0.6326  2.1045  1.6899
   26CHL1    C7 3041   5.386   0.524   5.489  0.6176  0.0947  1.2199
   26CHL1   H7A 3042   5.356   0.421   5.460  2.7419 -0.7019  1.7061
   26CHL1   H7B 3043   5.310   0.592   5.444 -0.0974 -1.2996  0.2667
   26CHL1    C8 3044   5.520   0.550   5.420  1.1126  1.2653  0.1611
   26CHL1    H8 3045   5.582   0.459   5.437 -1.5523 -0.1986  2.8918
   26CHL1   C14 3046   5.496   0.555   5.260  0.0512 -0.2631 -0.3337
   26CHL1   H14 3047   5.418   0.633   5.248  0.3304  0.3203  1.3845
   26CHL1   C15 3048   5.428   0.438   5.188  0.6459 -0.1288 -0.1560
   26CHL1  H15A 3049   5.464   0.341   5.229 -1.6948 -1.2161 -0.5408
   26CHL1  H15B 3050   5.319   0.437   5.207  0.9854 -1.8397  2.1757
   26CHL1   C16 3051   5.464   0.451   5.039  0.1031 -1.0088 -0.1589
   26CHL1  H16A 3052   5.516   0.359   5.005  2.7581 -0.0792  1.0673
   26CHL1  H16B 3053   5.381   0.479   4.971  0.4339 -0.5389 -0.3787
   26CHL1   C17 3054   5.575   0.571   5.047 -0.0676 -0.0747  0.6953
   26CHL1   H17 3055   5.504   0.652   5.019  0.0877 -0.0048  0.5049
   26CHL1   C13 3056   5.627   0.585   5.194 -0.7366 -0.2730 -0.0908
   26CHL1   C18 3057   5.734   0.473   5.213 -0.0217  0.6435 -0.1119
   26CHL1  H18A 3058   5.755   0.447   5.318 -0.0070 -1.3799 -0.5853
   26CHL1  H18B 3059   5.706   0.378   5.163  0.5488  1.2633 -1.6794
   26CHL1  H18C 3060   5.830   0.515   5.173  1.5811 -2.6492 -0.0364
   26CHL1   C12 3061   5.666   0.728   5.231  0.0204  0.7021  0.9216
   26CHL1  H12A 3062   5.761   0.753   5.180  0.6170 -3.5724 -0.5327
   26CHL1  H12B 3063   5.577   0.791   5.210 -1.0758 -0.1931  2.5950
   26CHL1   C11 3064   5.688   0.722   5.381 -0.3056  0.2654  0.3025
   26CHL1  H11A 3065   5.778   0.660   5.397  0.2616  1.1086  0.4425
   26CHL1  H11B 3066   5.709   0.827   5.412  0.8942  0.2068 -0.2754
   26CHL1    C9 3067   5.571   0.676   5.470  0.4388 -0.4333  0.4039
   26CHL1    H9 3068   5.489   0.749   5.451 -0.5431 -1.5605  0.1532
   26CHL1   C10 3069   5.592   0.691   5.621  0.8132  0.2541  0.2102
   26CHL1   C19 3070   5.726   0.621   5.657 -0.7456  0.3045 -0.5268
   26CHL1  H19A 3071   5.745   0.614   5.766 -1.9416  0.1881 -0.3143
   26CHL1  H19B 3072   5.727   0.519   5.613  1.2680  0.3250 -0.6022
   26CHL1  H19C 3073   5.809   0.677   5.609 -0.4450  0.9044  0.6608
   26CHL1    C1 3074   5.608   0.843   5.661 -0.5948 -0.3361 -0.3131
   26CHL1   H1A 3075   5.703   0.881   5.617 -1.2316  2.0158  0.2094
   26CHL1   H1B 3076   5.519   0.891   5.615 -1.1378 -0.5822  0.4593
   26CHL1    C2 3077   5.600   0.876   5.810  0.5361 -0.2761  0.3026
   26CHL1   H2A 3078   5.609   0.985   5.826 -0.9272  0.0131 -0.7151
   26CHL1   H2B 3079   5.688   0.827   5.858 -0.1670 -0.9872  0.9042
   26CHL1   C20 3080   5.677   0.554   4.926  0.3390 -0.4530  0.7630
   26CHL1   H20 3081   5.748   0.474   4.954  1.2318  0.4287  1.1046
   26CHL1   C21 3082   5.750   0.686   4.906  0.5664 -0.4874 -0.2481
   26CHL1  H21A 3083   5.689   0.778   4.894  0.0746 -0.6731  0.7348
   26CHL1  H21B 3084   5.817   0.686   4.817  0.9360 -0.3203  0.0261
   26CHL1  H21C 3085   5.806   0.694   5.002 -0.1815 -1.8925  0.3308
   26CHL1   C22 3086   5.615   0.521   4.787  0.6281 -0.0968  0.3139
   26CHL1  H22A 3087   5.550   0.432   4.795 -1.9175  1.3107 -2.5159
   26CHL1  H22B 3088   5.543   0.603   4.763  0.6243 -0.0773  0.3908
   26CHL1   C23 3089   5.707   0.482   4.668 -0.3898 -0.0983  0.2828
   26CHL1  H23A 3090   5.788   0.557   4.657  0.1566 -0.3397  2.3113
   26CHL1  H23B 3091   5.757   0.386   4.689  2.5009  1.4619  1.0463
   26CHL1   C24 3092   5.627   0.481   4.530  0.1402 -0.3844 -0.4542
   26CHL1  H24A 3093   5.546   0.408   4.552  0.9903 -1.2760 -0.2117
   26CHL1  H24B 3094   5.579   0.580   4.517 -2.2638 -1.4812 -0.4900
   26CHL1   C25 3095   5.701   0.440   4.403 -0.3910  0.3640  0.6936
   26CHL1   H25 3096   5.798   0.495   4.397 -0.1135 -0.2471 -0.7694
   26CHL1   C26 3097   5.739   0.288   4.404 -0.2558  0.0198  0.1773
   26CHL1  H26A 3098   5.827   0.268   4.340 -0.3294  2.2364 -0.7175
   26CHL1  H26B 3099   5.774   0.273   4.508 -1.6220 -1.3107  0.4805
   26CHL1  H26C 3100   5.663   0.216   4.367  2.4570 -3.8903  1.6614
   26CHL1   C27 3101   5.619   0.461   4.277 -0.3157 -0.1009 -0.5148
   26CHL1  H27A 3102   5.630   0.566   4.242  0.7546 -0.3000 -0.8170
   26CHL1  H27B 3103   5.643   0.389   4.196  0.0728 -1.7396  1.0203
   26CHL1  H27C 3104   5.509   0.459   4.292  0.0809 -0.0434  3.2535
   27CHL1    C3 3105   3.252   0.688   6.030 -0.7602  0.2840  0.2343
   27CHL1    H3 3106   3.157   0.742   6.012 -2.1883 -1.1047  2.8600
   27CHL1    O3 3107   3.280   0.708   6.167 -0.4292 -0.4286 -0.3071
   27CHL1   H3' 3108   3.374   0.720   6.180 -0.7630  0.1368  1.9599
   27CHL1    C4 3109   3.241   0.538   5.990  0.2213  1.1116  0.7952
   27CHL1   H4A 3110   3.340   0.496   6.017 -0.6106 -0.5170  1.4820
   27CHL1   H4B 3111   3.166   0.491   6.058  1.1627  0.8739  1.6936
   27CHL1    C5 3112   3.218   0.512   5.846 -0.5621  1.0919  0.0437
   27CHL1    C6 3113   3.105   0.451   5.798 -0.5098 -0.2360  0.0049
   27CHL1    H6 3114   3.028   0.421   5.870  0.1428  1.6816  1.6054
   27CHL1    C7 3115   3.069   0.443   5.653  0.5417 -0.1273 -0.2785
   27CHL1   H7A 3116   3.024   0.342   5.642 -1.2035  0.7242 -1.4582
   27CHL1   H7B 3117   3.002   0.525   5.619  1.9289  0.6167 -1.3196
   27CHL1    C8 3118   3.186   0.465   5.551 -0.6070 -0.1480  0.4561
   27CHL1    H8 3119   3.246   0.372   5.557  0.8246  0.6961 -0.1409
   27CHL1   C14 3120   3.113   0.499   5.415 -0.4751 -0.5330 -0.1552
   27CHL1   H14 3121   3.076   0.601   5.436  3.6186  0.3678  4.6495
   27CHL1   C15 3122   3.007   0.407   5.348 -0.8694 -0.4099  0.1698
   27CHL1  H15A 3123   3.036   0.301   5.363 -1.4504 -0.4603  1.0278
   27CHL1  H15B 3124   2.913   0.430   5.403 -1.2283 -2.0374  0.3179
   27CHL1   C16 3125   3.008   0.447   5.200 -0.0193 -0.5960 -0.7052
   27CHL1  H16A 3126   3.035   0.357   5.142 -0.2587 -0.5950 -0.8210
   27CHL1  H16B 3127   2.915   0.500   5.169  0.8897  1.1047 -0.6215
   27CHL1   C17 3128   3.118   0.556   5.190  0.1238 -0.6480  0.1298
   27CHL1   H17 3129   3.068   0.653   5.212 -1.2187 -1.5741  1.2970
   27CHL1   C13 3130   3.216   0.532   5.303 -0.5979 -0.1498 -0.7829
   27CHL1   C18 3131   3.309   0.411   5.263  0.1358  0.1976 -0.2148
   27CHL1  H18A 3132   3.365   0.372   5.351 -0.2523 -0.9607 -0.4690
   27CHL1  H18B 3133   3.247   0.332   5.216  0.6974  0.8361 -2.0914
   27CHL1  H18C 3134   3.386   0.436   5.187 -0.7742 -1.5154 -1.7797
   27CHL1   C12 3135   3.301   0.652   5.361 -0.8438  0.5381 -0.0109
   27CHL1  H12A 3136   3.383   0.676   5.290 -0.8324 -0.3578 -0.3043
   27CHL1  H12B 3137   3.234   0.740   5.372  0.0861  1.3302 -0.4646
   27CHL1   C11 3138   3.373   0.633   5.495  0.9908 -0.0158  0.1328
   27CHL1  H11A 3139   3.453   0.556   5.485  3.4518  2.4647 -0.5344
   27CHL1  H11B 3140   3.418   0.730   5.526 -0.1368  0.4066  0.4645
   27CHL1    C9 3141   3.272   0.589   5.601  0.0909 -0.1638  0.0042
   27CHL1    H9 3142   3.192   0.666   5.613 -1.8282 -1.7040 -1.9201
   27CHL1   C10 3143   3.327   0.579   5.747  0.5898  0.1966 -0.5260
   27CHL1   C19 3144   3.452   0.496   5.745  0.4088 -0.3351  0.4875
   27CHL1  H19A 3145   3.498   0.495   5.846 -1.0340 -1.0089  1.1675
   27CHL1  H19B 3146   3.439   0.392   5.707 -3.3358 -0.5666  1.9425
   27CHL1  H19C 3147   3.532   0.555   5.696  3.7199 -0.7537  4.8304
   27CHL1    C1 3148   3.357   0.728   5.792 -0.8093 -0.0630  0.6096
   27CHL1   H1A 3149   3.445   0.765   5.735  1.2599 -1.6724  2.5732
   27CHL1   H1B 3150   3.269   0.792   5.770 -0.2619 -0.0149 -1.7233
   27CHL1    C2 3151   3.375   0.740   5.945 -0.0692  0.8321  0.1274
   27CHL1   H2A 3152   3.398   0.841   5.986 -2.3325  1.1322  0.7682
   27CHL1   H2B 3153   3.472   0.691   5.968 -0.2083  1.2617  1.7185
   27CHL1   C20 3154   3.172   0.575   5.043  0.5777  0.2788  0.9897
   27CHL1   H20 3155   3.230   0.484   5.018 -1.3700 -0.8637  0.4060
   27CHL1   C21 3156   3.263   0.694   5.040 -0.0468 -0.4777 -0.0798
   27CHL1  H21A 3157   3.275   0.716   4.931  0.9823  0.3664  0.1897
   27CHL1  H21B 3158   3.359   0.670   5.088 -0.7454 -0.1947  1.5203
   27CHL1  H21C 3159   3.219   0.789   5.079 -0.4508  0.2829 -2.2270
   27CHL1   C22 3160   3.053   0.590   4.931 -0.1528  0.2187  0.7529
   27CHL1  H22A 3161   2.963   0.536   4.967  0.5328 -0.6396  1.2142
   27CHL1  H22B 3162   3.031   0.699   4.923 -2.8721 -0.2097  1.4833
   27CHL1   C23 3163   3.096   0.554   4.792 -0.2358 -0.2388  0.7305
   27CHL1  H23A 3164   3.009   0.565   4.723  1.1554 -0.0228 -1.0804
   27CHL1  H23B 3165   3.175   0.623   4.757  0.8449 -1.5259  0.5461
   27CHL1   C24 3166   3.147   0.400   4.773  0.0137 -0.4323  0.2478
   27CHL1  H24A 3167   3.232   0.381   4.842 -0.6807  0.6548  1.4401
   27CHL1  H24B 3168   3.060   0.337   4.800 -0.3566  0.2140  0.5734
   27CHL1   C25 3169   3.193   0.387   4.626  0.1874 -0.0915 -0.9211
   27CHL1   H25 3170   3.123   0.434   4.554  0.7093  0.4957 -1.0598
   27CHL1   C26 3171   3.329   0.443   4.593  0.5440 -0.4755 -0.3672
   27CHL1  H26A 3172   3.315   0.553   4.601 -0.9041 -0.5842 -1.1835
   27CHL1  H26B 3173   3.396   0.404   4.673 -0.0584 -1.3066 -0.2553
   27CHL1  H26C 3174   3.369   0.414   4.494  0.1809 -0.7566 -0.4343
   27CHL1   C27 3175   3.183   0.231   4.601 -0.0625 -0.4972 -0.1615
   27CHL1  H27A 3176   3.076   0.202   4.596  0.2590 -1.7301 -0.4135
   27CHL1  H27B 3177   3.249   0.192   4.682  2.4027 -0.0893 -1.8453
   27CHL1  H27C 3178   3.233   0.212   4.503  1.0319 -1.6827  0.5842
   28CHL1    C3 3179   0.105   0.286   5.537 -0.4022  0.2378 -0.0470
   28CHL1    H3 3180  -0.002   0.256   5.527 -0.0852 -1.8321  2.0316
   28CHL1    O3 3181   0.135   0.271   5.677 -0.2691 -0.5390 -0.0519
   28CHL1   H3' 3182   0.122   0.360   5.710 -0.9972 -0.7030  0.1073
   28CHL1    C4 3183   0.198   0.189   5.462  0.3474 -0.2968 -0.3393
   28CHL1   H4A 3184   0.302   0.213   5.494 -0.1801 -0.4352  1.6417
   28CHL1   H4B 3185   0.184   0.085   5.501  0.6813  0.6831  2.6911
   28CHL1    C5 3186   0.182   0.199   5.313 -0.2458  1.0305 -0.0705
   28CHL1    C6 3187   0.138   0.089   5.246 -0.1335 -0.3363  0.1587
   28CHL1    H6 3188   0.136  -0.007   5.299 -0.6435  0.2613  1.2508
   28CHL1    C7 3189   0.122   0.079   5.097 -0.8454  0.2360  0.1576
   28CHL1   H7A 3190   0.150  -0.020   5.054 -0.5309  1.6822 -3.2109
   28CHL1   H7B 3191   0.016   0.078   5.066 -0.5931  1.8851 -0.8425
   28CHL1    C8 3192   0.188   0.202   5.023 -0.8599 -0.1201  0.3308
   28CHL1    H8 3193   0.298   0.190   5.033 -0.8192  1.2493  2.0146
   28CHL1   C14 3194   0.139   0.212   4.882  0.0065  0.5746  0.2103
   28CHL1   H14 3195   0.031   0.237   4.886  0.1388  1.7257 -1.8302
   28CHL1   C15 3196   0.142   0.089   4.786 -0.0218 -0.6138  0.3248
   28CHL1  H15A 3197   0.233   0.027   4.796  0.1205 -0.4324  0.1579
   28CHL1  H15B 3198   0.061   0.015   4.809 -0.8916 -0.4614 -1.9439
   28CHL1   C16 3199   0.123   0.156   4.648  0.7595  0.4677  0.5744
   28CHL1  H16A 3200   0.214   0.135   4.589 -0.6568 -0.1305 -1.4961
   28CHL1  H16B 3201   0.039   0.121   4.585  2.5375 -0.6256 -1.3003
   28CHL1   C17 3202   0.133   0.309   4.677  1.1302 -0.2513  0.1806
   28CHL1   H17 3203   0.028   0.333   4.701  1.2016 -1.1265  1.5051
   28CHL1   C13 3204   0.204   0.325   4.808 -0.4151  0.5896 -0.2882
   28CHL1   C18 3205   0.362   0.306   4.792 -0.4956 -0.4715 -0.0835
   28CHL1  H18A 3206   0.404   0.299   4.895 -1.5168 -3.0639  0.2289
   28CHL1  H18B 3207   0.378   0.211   4.737 -1.8181  0.5083 -2.2581
   28CHL1  H18C 3208   0.407   0.386   4.729 -1.4914  0.2935  0.1559
   28CHL1   C12 3209   0.168   0.451   4.887 -0.0171 -0.3611  0.4371
   28CHL1  H12A 3210   0.191   0.545   4.832  0.9994 -0.1352  1.2315
   28CHL1  H12B 3211   0.057   0.462   4.890  0.1755  2.7494 -0.0881
   28CHL1   C11 3212   0.214   0.454   5.025  0.1422  0.3689 -0.1740
   28CHL1  H11A 3213   0.325   0.453   5.015  0.2181  1.7133  0.2911
   28CHL1  H11B 3214   0.191   0.549   5.078 -1.7433 -0.5626  0.7613
   28CHL1    C9 3215   0.166   0.333   5.105 -0.2514  0.0354  0.8571
   28CHL1    H9 3216   0.058   0.352   5.118 -0.3423 -0.8762  1.5088
   28CHL1   C10 3217   0.206   0.337   5.254  0.0127 -0.9479 -0.1958
   28CHL1   C19 3218   0.351   0.375   5.269  0.5900 -0.4401  0.2082
   28CHL1  H19A 3219   0.420   0.296   5.234  2.2071  0.3719  1.4454
   28CHL1  H19B 3220   0.375   0.469   5.214  3.2076 -1.8898 -1.3327
   28CHL1  H19C 3221   0.374   0.395   5.375 -0.3803 -4.0372  1.2096
   28CHL1    C1 3222   0.122   0.444   5.336  0.3703 -0.3273 -0.9158
   28CHL1   H1A 3223   0.152   0.548   5.309  0.1804 -0.4213 -1.5119
   28CHL1   H1B 3224   0.016   0.428   5.305  0.1926  0.9479 -1.0436
   28CHL1    C2 3225   0.131   0.430   5.487  0.1179 -0.4303 -0.1543
   28CHL1   H2A 3226   0.058   0.501   5.530 -1.7996 -1.9793 -0.7465
   28CHL1   H2B 3227   0.230   0.463   5.527  0.2632 -0.4944 -0.4542
   28CHL1   C20 3228   0.173   0.391   4.552  0.0772 -0.1107 -0.0007
   28CHL1   H20 3229   0.279   0.358   4.541  0.2109  0.5076 -0.5885
   28CHL1   C21 3230   0.154   0.541   4.567 -1.1165  0.5251 -0.3214
   28CHL1  H21A 3231   0.057   0.573   4.613 -0.6706  2.0374 -0.3617
   28CHL1  H21B 3232   0.151   0.589   4.467 -1.3807  1.7463  0.2498
   28CHL1  H21C 3233   0.229   0.595   4.628 -1.1853  0.4659 -0.1832
   28CHL1   C22 3234   0.105   0.354   4.422 -0.8339  0.0875  0.2511
   28CHL1  H22A 3235   0.154   0.413   4.341 -0.4623  0.2574  0.6016
   28CHL1  H22B 3236   0.125   0.250   4.391 -0.4999  1.1310 -3.6411
   28CHL1   C23 3237  -0.049   0.380   4.432  0.0327 -1.2881  0.3138
   28CHL1  H23A 3238  -0.102   0.324   4.513 -0.5075 -2.3846 -0.7551
   28CHL1  H23B 3239  -0.069   0.488   4.447  2.2156 -0.8060  0.0579
   28CHL1   C24 3240  -0.123   0.350   4.299 -0.1128  0.1667 -0.2826
   28CHL1  H24A 3241  -0.045   0.380   4.225  0.6854 -3.5077 -1.1074
   28CHL1  H24B 3242  -0.129   0.239   4.300  2.7340 -0.0816 -1.1880
   28CHL1   C25 3243  -0.265   0.412   4.299 -0.3981 -0.4974  0.1025
   28CHL1   H25 3244  -0.258   0.522   4.311 -0.4794 -0.3995 -0.7171
   28CHL1   C26 3245  -0.331   0.390   4.160 -0.2678  0.6659 -0.7086
   28CHL1  H26A 3246  -0.435   0.429   4.159 -0.6027 -0.0050  1.4184
   28CHL1  H26B 3247  -0.265   0.446   4.090 -0.0757  1.1114 -0.1762
   28CHL1  H26C 3248  -0.340   0.281   4.138  0.9329  0.6600 -1.2658
   28CHL1   C27 3249  -0.356   0.368   4.411 -0.0754 -0.6945 -0.2739
   28CHL1  H27A 3250  -0.306   0.386   4.508 -0.5205 -0.8300 -0.0158
   28CHL1  H27B 3251  -0.453   0.424   4.414  0.5458  0.4309 -0.5733
   28CHL1  H27C 3252  -0.380   0.260   4.405  1.8463 -1.2822  1.5337
   29CHL1    C3 3253   2.437   0.596   5.897 -1.6270 -0.3318  0.2611
   29CHL1    H3 3254   2.537   0.600   5.848 -0.9907 -0.8360  1.4618
   29CHL1    O3 3255   2.452   0.665   6.022 -0.2241  0.3240  0.5665
   29CHL1   H3' 3256   2.368   0.642   6.062 -1.1106 -1.2134 -1.9029
   29CHL1    C4 3257   2.319   0.661   5.828 -0.1583  0.5431  0.3479
   29CHL1   H4A 3258   2.224   0.652   5.885 -1.2176 -0.2244 -1.4768
   29CHL1   H4B 3259   2.344   0.767   5.806  1.8521 -0.2379 -1.5138
   29CHL1    C5 3260   2.293   0.595   5.696 -0.4678  0.1251 -0.1296
   29CHL1    C6 3261   2.288   0.664   5.583 -0.3073  0.3158  0.6104
   29CHL1    H6 3262   2.306   0.773   5.582  0.9708  0.1258 -0.8610
   29CHL1    C7 3263   2.259   0.612   5.441  0.1398 -0.2275 -0.3296
   29CHL1   H7A 3264   2.184   0.666   5.380 -0.5410 -3.3958 -2.5647
   29CHL1   H7B 3265   2.349   0.609   5.376  0.9325 -0.2778  0.7364
   29CHL1    C8 3266   2.202   0.469   5.457 -0.8776  0.0205  0.1908
   29CHL1    H8 3267   2.099   0.488   5.493  0.3019  3.2978  2.2877
   29CHL1   C14 3268   2.198   0.389   5.320 -0.7442  0.2861 -0.0533
   29CHL1   H14 3269   2.305   0.373   5.297 -0.8969  0.3384 -0.8023
   29CHL1   C15 3270   2.138   0.451   5.204 -0.2358 -0.2179  1.0185
   29CHL1  H15A 3271   2.056   0.519   5.236 -0.6810  0.9368 -2.1794
   29CHL1  H15B 3272   2.207   0.526   5.158  1.0432  0.0877  3.2929
   29CHL1   C16 3273   2.090   0.347   5.110  0.0167 -0.5232 -0.1994
   29CHL1  H16A 3274   1.982   0.349   5.085  0.3839 -0.0738 -1.8763
   29CHL1  H16B 3275   2.149   0.357   5.017  0.7725  1.9052  0.4707
   29CHL1   C17 3276   2.131   0.209   5.175 -0.1481  0.4446  0.0740
   29CHL1   H17 3277   2.237   0.197   5.146 -0.7189 -1.7610 -1.3676
   29CHL1   C13 3278   2.132   0.247   5.331 -0.0897  0.0627 -0.1156
   29CHL1   C18 3279   1.983   0.249   5.371 -0.1075 -0.1532  0.5642
   29CHL1  H18A 3280   1.939   0.147   5.378 -0.9722  0.0338 -1.4105
   29CHL1  H18B 3281   1.977   0.277   5.479 -0.4026 -2.1659  1.1192
   29CHL1  H18C 3282   1.922   0.308   5.300  0.0840 -1.1866 -0.5001
   29CHL1   C12 3283   2.221   0.157   5.424  0.2292 -0.0642 -0.0086
   29CHL1  H12A 3284   2.182   0.056   5.450  0.3948  0.1221  0.9999
   29CHL1  H12B 3285   2.318   0.144   5.371  0.3631 -0.3650  0.3108
   29CHL1   C11 3286   2.251   0.223   5.563 -0.4047 -0.1084 -0.4454
   29CHL1  H11A 3287   2.152   0.210   5.611 -0.3428 -2.0317 -0.7433
   29CHL1  H11B 3288   2.332   0.168   5.616 -1.7491 -1.1412  0.6370
   29CHL1    C9 3289   2.282   0.379   5.555  0.0762 -0.4017  0.6899
   29CHL1    H9 3290   2.388   0.385   5.523 -0.5942 -1.1933 -1.8941
   29CHL1   C10 3291   2.278   0.439   5.702 -0.3442  0.6856 -0.2523
   29CHL1   C19 3292   2.144   0.405   5.766  0.3164  0.6009  0.2426
   29CHL1  H19A 3293   2.126   0.463   5.859  1.2719  0.0105  0.8128
   29CHL1  H19B 3294   2.052   0.399   5.704 -0.9171 -3.3390  2.1073
   29CHL1  H19C 3295   2.150   0.300   5.802  1.2610  0.1169 -1.2367
   29CHL1    C1 3296   2.401   0.384   5.785  0.0483 -0.3074 -0.2442
   29CHL1   H1A 3297   2.398   0.274   5.800 -1.0494 -0.0208  2.1664
   29CHL1   H1B 3298   2.491   0.413   5.727  1.5587  0.2707  2.2565
   29CHL1    C2 3299   2.408   0.455   5.924 -0.4379  0.5683 -0.1786
   29CHL1   H2A 3300   2.497   0.401   5.961 -0.1772 -1.0815 -2.9168
   29CHL1   H2B 3301   2.313   0.433   5.977 -1.5534  2.8182 -1.1128
   29CHL1   C20 3302   2.042   0.104   5.122  0.1284  0.1157 -0.5159
   29CHL1   H20 3303   1.942   0.121   5.166  0.6720 -0.4129  0.9847
   29CHL1   C21 3304   2.084  -0.031   5.181  0.2464  0.4173 -0.4587
   29CHL1  H21A 3305   2.073  -0.029   5.292  1.7482  3.0735 -0.3003
   29CHL1  H21B 3306   2.190  -0.050   5.153 -0.0386 -0.5974 -0.9235
   29CHL1  H21C 3307   2.026  -0.120   5.146  0.0820 -0.3257  1.5626
   29CHL1   C22 3308   2.022   0.099   4.969 -0.2382 -0.5901 -0.3110
   29CHL1  H22A 3309   1.951   0.018   4.941  0.9225 -0.8341 -2.8059
   29CHL1  H22B 3310   1.977   0.196   4.938  2.9616  1.3142  0.6069
   29CHL1   C23 3311   2.146   0.065   4.895  0.0955 -0.0116 -0.3444
   29CHL1  H23A 3312   2.229   0.130   4.930 -0.6563 -0.9559  3.6999
   29CHL1  H23B 3313   2.174  -0.039   4.925 -0.3373  0.2380  1.0111
   29CHL1   C24 3314   2.117   0.090   4.752 -0.1381 -0.2417  0.6178
   29CHL1  H24A 3315   2.018   0.049   4.723  0.7721 -0.8990 -1.8572
   29CHL1  H24B 3316   2.107   0.200   4.740  1.0624 -0.2436 -0.8442
   29CHL1   C25 3317   2.211   0.027   4.652 -0.6716 -0.7446  0.6157
   29CHL1   H25 3318   2.237  -0.080   4.667 -1.3209 -0.9819  0.1237
   29CHL1   C26 3319   2.149   0.027   4.511 -0.6857  0.0735  0.0388
   29CHL1  H26A 3320   2.101   0.127   4.498  0.1889  0.4486 -0.4158
   29CHL1  H26B 3321   2.225   0.021   4.430 -0.2070  0.8881  0.4111
   29CHL1  H26C 3322   2.067  -0.047   4.503  0.0495 -0.6749 -0.7390
   29CHL1   C27 3323   2.341   0.105   4.636 -0.8087 -0.5176 -0.0303
   29CHL1  H27A 3324   2.394   0.057   4.551  0.3512  1.3653 -0.4246
   29CHL1  H27B 3325   2.314   0.209   4.608  0.1306 -0.7617 -2.0209
   29CHL1  H27C 3326   2.398   0.101   4.732 -1.5795  0.9361  0.5282
   30CHL1    C3 3327   3.611   1.637   6.026  0.2386 -0.2549  0.2971
   30CHL1    H3 3328   3.597   1.742   5.995 -2.5937 -0.3793  0.8457
   30CHL1    O3 3329   3.600   1.655   6.165 -0.3636 -0.1321 -0.3515
   30CHL1   H3' 3330   3.620   1.572   6.208  1.6651 -0.0005 -0.9422
   30CHL1    C4 3331   3.509   1.543   5.970  0.3967  0.4160  0.2318
   30CHL1   H4A 3332   3.534   1.442   6.010  0.3732  0.4299  0.2814
   30CHL1   H4B 3333   3.410   1.571   6.013 -1.0985 -0.0477 -2.6324
   30CHL1    C5 3334   3.520   1.532   5.823 -0.2371 -0.5161  0.2473
   30CHL1    C6 3335   3.414   1.557   5.742 -0.2390  0.4920  0.2295
   30CHL1    H6 3336   3.312   1.573   5.780  0.1020  0.6129  1.1165
   30CHL1    C7 3337   3.415   1.552   5.597  0.3550  0.4658 -0.4376
   30CHL1   H7A 3338   3.325   1.501   5.557  0.4752  0.3697 -0.5867
   30CHL1   H7B 3339   3.411   1.658   5.564 -2.8866  0.3193 -0.7868
   30CHL1    C8 3340   3.542   1.488   5.539 -0.2226 -0.4797  0.0455
   30CHL1    H8 3341   3.535   1.378   5.555 -0.2900 -0.3586  0.9229
   30CHL1   C14 3342   3.554   1.524   5.395 -0.8173  0.5169 -0.5817
   30CHL1   H14 3343   3.562   1.635   5.399 -2.0260  0.5873  2.5379
   30CHL1   C15 3344   3.424   1.495   5.314  0.0361 -0.0928  0.5421
   30CHL1  H15A 3345   3.383   1.392   5.317 -1.5575  0.4706 -0.6358
   30CHL1  H15B 3346   3.337   1.559   5.336  0.3912  0.8168 -0.6010
   30CHL1   C16 3347   3.481   1.506   5.168 -1.0270 -1.0331  0.1231
   30CHL1  H16A 3348   3.450   1.417   5.109 -0.6973 -0.9972 -0.1033
   30CHL1  H16B 3349   3.433   1.596   5.124 -0.0462 -0.3334  0.4650
   30CHL1   C17 3350   3.637   1.519   5.182  0.3514 -0.3368 -0.2700
   30CHL1   H17 3351   3.665   1.626   5.194 -0.8980  0.0984 -1.0345
   30CHL1   C13 3352   3.667   1.466   5.324 -0.3436 -0.1384  0.2964
   30CHL1   C18 3353   3.663   1.311   5.331  0.0775 -0.1853 -0.0472
   30CHL1  H18A 3354   3.675   1.282   5.438  0.3921 -0.7699 -0.2363
   30CHL1  H18B 3355   3.572   1.265   5.287 -0.9763 -0.1045  1.9284
   30CHL1  H18C 3356   3.746   1.266   5.272 -0.8691 -1.2351 -0.6119
   30CHL1   C12 3357   3.793   1.534   5.391 -0.3730  0.6451 -0.4115
   30CHL1  H12A 3358   3.886   1.510   5.335 -0.7658  0.2670 -0.9289
   30CHL1  H12B 3359   3.784   1.644   5.380  2.2244  0.8502 -1.2041
   30CHL1   C11 3360   3.797   1.500   5.541 -0.4366  0.2683 -0.2231
   30CHL1  H11A 3361   3.807   1.390   5.540 -1.5694  0.1386 -2.1931
   30CHL1  H11B 3362   3.890   1.544   5.585 -0.7037 -0.9067  1.6267
   30CHL1    C9 3363   3.667   1.536   5.616  0.5695  0.1628 -0.7403
   30CHL1    H9 3364   3.660   1.647   5.610  2.0948  0.2750 -0.9336
   30CHL1   C10 3365   3.662   1.506   5.768  0.5894 -0.3849 -0.5921
   30CHL1   C19 3366   3.689   1.345   5.778  0.6722 -0.8720 -0.7971
   30CHL1  H19A 3367   3.679   1.305   5.882 -1.5924 -1.0273 -1.0249
   30CHL1  H19B 3368   3.619   1.278   5.724 -1.7021 -1.2525  2.3996
   30CHL1  H19C 3369   3.792   1.307   5.764 -0.4019 -4.0008 -1.1236
   30CHL1    C1 3370   3.771   1.596   5.844 -0.4034 -0.6626 -0.1475
   30CHL1   H1A 3371   3.877   1.579   5.815  0.2947  2.1816  0.4736
   30CHL1   H1B 3372   3.750   1.700   5.810 -1.0276 -1.1795 -1.3953
   30CHL1    C2 3373   3.754   1.589   5.994 -0.0123  0.2616  0.6762
   30CHL1   H2A 3374   3.828   1.667   6.023  0.6474 -0.1822  0.2236
   30CHL1   H2B 3375   3.779   1.485   6.024  0.5386  0.5124  1.1161
   30CHL1   C20 3376   3.705   1.461   5.057  0.6807 -0.0719 -0.0528
   30CHL1   H20 3377   3.671   1.356   5.062  0.3079  0.0428 -0.1195
   30CHL1   C21 3378   3.854   1.465   5.069  0.4851  0.0201  0.5289
   30CHL1  H21A 3379   3.895   1.406   5.154  1.7361  0.5515  0.3149
   30CHL1  H21B 3380   3.883   1.571   5.087  2.4117 -0.4107  0.2297
   30CHL1  H21C 3381   3.895   1.432   4.971  1.5056  1.5914  0.3905
   30CHL1   C22 3382   3.659   1.513   4.919 -0.5806  0.0283 -0.5068
   30CHL1  H22A 3383   3.692   1.435   4.847 -1.1203 -0.9119  0.2353
   30CHL1  H22B 3384   3.549   1.505   4.909 -0.4771 -0.2054 -1.6157
   30CHL1   C23 3385   3.713   1.657   4.893 -0.6356  0.0701  0.2344
   30CHL1  H23A 3386   3.672   1.729   4.967 -0.0226  0.8752 -0.1915
   30CHL1  H23B 3387   3.824   1.654   4.892 -0.6523 -0.9964 -0.1593
   30CHL1   C24 3388   3.676   1.706   4.751  0.0904  0.4515  0.2730
   30CHL1  H24A 3389   3.565   1.698   4.748  0.2602 -2.6463 -1.6751
   30CHL1  H24B 3390   3.710   1.811   4.739  0.9105  0.0168 -1.6186
   30CHL1   C25 3391   3.729   1.637   4.628 -0.0823  0.3578  0.2885
   30CHL1   H25 3392   3.724   1.527   4.643 -0.5621  0.5944  2.0940
   30CHL1   C26 3393   3.633   1.665   4.503 -0.4503  0.4392 -0.5564
   30CHL1  H26A 3394   3.606   1.772   4.488 -2.0803 -0.2696 -3.3624
   30CHL1  H26B 3395   3.686   1.620   4.417  1.8437  3.5829 -0.9817
   30CHL1  H26C 3396   3.538   1.612   4.524  0.3940 -0.4295  1.2759
   30CHL1   C27 3397   3.875   1.681   4.596  0.0890 -0.3990  0.0445
   30CHL1  H27A 3398   3.912   1.640   4.500 -1.8708 -0.6164 -0.6760
   30CHL1  H27B 3399   3.896   1.790   4.598  1.6911 -0.6360 -1.4515
   30CHL1  H27C 3400   3.936   1.652   4.684 -0.3961 -0.9206  0.2158
   31CHL1    C3 3401   2.377   1.344   5.944  0.5186 -0.5076  0.3794
   31CHL1    H3 3402   2.485   1.360   5.926  0.2804  1.3944  0.3882
   31CHL1    O3 3403   2.361   1.314   6.084  0.1436 -0.2112  0.3010
   31CHL1   H3' 3404   2.267   1.331   6.094  0.4247  1.2065  0.8730
   31CHL1    C4 3405   2.302   1.471   5.906  0.2818 -0.4587 -0.2374
   31CHL1   H4A 3406   2.192   1.464   5.920  0.4420 -0.9193  0.9018
   31CHL1   H4B 3407   2.344   1.549   5.972  0.5710 -0.3178 -0.5863
   31CHL1    C5 3408   2.325   1.504   5.759 -0.1723  0.0750  1.0156
   31CHL1    C6 3409   2.383   1.618   5.722  0.6486 -0.5224  0.6986
   31CHL1    H6 3410   2.409   1.690   5.802  0.6279  2.0371 -1.4689
   31CHL1    C7 3411   2.404   1.665   5.584  0.1841 -0.1039  0.9515
   31CHL1   H7A 3412   2.372   1.768   5.558  0.8788 -0.1082  0.0085
   31CHL1   H7B 3413   2.513   1.664   5.561  0.0078  1.6110 -0.1939
   31CHL1    C8 3414   2.324   1.571   5.480 -0.4779 -0.4617  0.4829
   31CHL1    H8 3415   2.215   1.591   5.481 -0.8301 -1.8820 -1.9761
   31CHL1   C14 3416   2.389   1.590   5.341  0.5128 -0.6411 -0.1921
   31CHL1   H14 3417   2.496   1.570   5.363  1.6997  2.5499 -2.2744
   31CHL1   C15 3418   2.397   1.732   5.282  0.0754 -0.5409 -0.7783
   31CHL1  H15A 3419   2.296   1.776   5.289  0.8326  1.2264 -0.5260
   31CHL1  H15B 3420   2.466   1.798   5.338  1.1181  0.8550 -3.5507
   31CHL1   C16 3421   2.435   1.713   5.135 -0.7555  0.0864 -0.2010
   31CHL1  H16A 3422   2.349   1.760   5.082 -0.5765 -1.5724 -2.0513
   31CHL1  H16B 3423   2.530   1.765   5.113 -0.1885 -0.8223  0.0737
   31CHL1   C17 3424   2.439   1.568   5.108 -0.2784  0.5429  0.3376
   31CHL1   H17 3425   2.540   1.533   5.141 -0.1564  1.7630  1.3317
   31CHL1   C13 3426   2.347   1.507   5.219  0.1085  0.2508  0.0838
   31CHL1   C18 3427   2.201   1.533   5.182  0.5247  0.0971 -0.4742
   31CHL1  H18A 3428   2.139   1.463   5.122 -1.5903  1.4235  0.0715
   31CHL1  H18B 3429   2.146   1.560   5.275  0.6236  1.6404 -0.8294
   31CHL1  H18C 3430   2.192   1.631   5.130  1.0373  1.7991  2.4440
   31CHL1   C12 3431   2.376   1.361   5.267  0.8283  0.1827 -0.0901
   31CHL1  H12A 3432   2.355   1.284   5.190  0.5857 -0.5225  0.6682
   31CHL1  H12B 3433   2.486   1.363   5.282  0.9074 -0.4509 -0.5615
   31CHL1   C11 3434   2.313   1.320   5.402 -0.3240 -0.8131  0.0712
   31CHL1  H11A 3435   2.203   1.327   5.391 -0.0864  0.9705 -1.5285
   31CHL1  H11B 3436   2.345   1.218   5.434 -1.5229 -1.0685  0.5077
   31CHL1    C9 3437   2.345   1.424   5.516 -0.1212 -0.1401  0.5000
   31CHL1    H9 3438   2.455   1.419   5.530 -0.2592 -0.2299  1.6664
   31CHL1   C10 3439   2.285   1.392   5.655  0.0771 -0.0775  0.0079
   31CHL1   C19 3440   2.132   1.381   5.638 -0.4561 -0.0822 -0.2861
   31CHL1  H19A 3441   2.086   1.400   5.738  1.4479  0.8209  0.4793
   31CHL1  H19B 3442   2.083   1.456   5.573 -0.4824  1.3015  1.2520
   31CHL1  H19C 3443   2.102   1.284   5.596  1.0617 -0.7212  0.0340
   31CHL1    C1 3444   2.331   1.253   5.702 -0.1643  0.6073  0.8562
   31CHL1   H1A 3445   2.296   1.181   5.626  3.1712  1.8360 -2.1595
   31CHL1   H1B 3446   2.441   1.251   5.687 -0.3641  0.1162 -0.7020
   31CHL1    C2 3447   2.320   1.231   5.851 -0.0152  0.2037  0.4104
   31CHL1   H2A 3448   2.364   1.132   5.875  1.6870  0.6460 -0.7275
   31CHL1   H2B 3449   2.210   1.231   5.868  0.0446  0.6241  0.8465
   31CHL1   C20 3450   2.421   1.528   4.960  0.4856  1.0573 -0.2507
   31CHL1   H20 3451   2.313   1.504   4.944  0.2870  0.1266  2.0307
   31CHL1   C21 3452   2.506   1.411   4.923  0.0810  0.0352 -0.6304
   31CHL1  H21A 3453   2.468   1.368   4.828 -1.2533  0.3758 -0.2731
   31CHL1  H21B 3454   2.510   1.340   5.008 -0.1006  1.3531  0.5151
   31CHL1  H21C 3455   2.614   1.436   4.910  0.2633 -0.3309  0.1187
   31CHL1   C22 3456   2.463   1.641   4.864 -0.2024 -0.4312 -0.3283
   31CHL1  H22A 3457   2.402   1.733   4.873  0.8628  0.2467  0.1445
   31CHL1  H22B 3458   2.567   1.679   4.879 -0.5275 -0.1902  1.5568
   31CHL1   C23 3459   2.467   1.614   4.713 -0.1655  0.2022 -0.4977
   31CHL1  H23A 3460   2.551   1.544   4.693  0.1957  0.9138 -1.5622
   31CHL1  H23B 3461   2.375   1.556   4.690  1.0933 -1.3834 -1.7220
   31CHL1   C24 3462   2.486   1.736   4.621  0.1105  0.4085  0.5019
   31CHL1  H24A 3463   2.386   1.782   4.607  0.8361  2.2175  1.0050
   31CHL1  H24B 3464   2.549   1.809   4.675  0.2111  0.6014  0.1234
   31CHL1   C25 3465   2.548   1.717   4.481 -0.2958 -0.6726  0.0405
   31CHL1   H25 3466   2.641   1.660   4.503  1.0535  1.9706  1.6398
   31CHL1   C26 3467   2.451   1.655   4.383  0.2438 -0.7090 -0.0044
   31CHL1  H26A 3468   2.360   1.714   4.360  1.0064 -0.0354 -1.4383
   31CHL1  H26B 3469   2.492   1.641   4.281 -2.1431 -1.2236 -0.9517
   31CHL1  H26C 3470   2.412   1.556   4.414  0.9151 -1.0384 -0.1900
   31CHL1   C27 3471   2.607   1.852   4.438 -0.7208 -0.6272 -0.1281
   31CHL1  H27A 3472   2.660   1.907   4.519  0.0670 -1.1688 -0.2753
   31CHL1  H27B 3473   2.666   1.847   4.345 -1.0806  2.3865 -0.6274
   31CHL1  H27C 3474   2.523   1.919   4.410 -0.9673 -0.7647  0.2677
   32CHL1    C3 3475   6.616   0.426   6.111 -0.0792 -0.4422  1.2058
   32CHL1    H3 3476   6.727   0.425   6.113 -0.0123  1.0220  0.1530
   32CHL1    O3 3477   6.553   0.397   6.230 -1.0231  0.2039  0.3457
   32CHL1   H3' 3478   6.460   0.384   6.212 -0.8544  0.1530 -0.5621
   32CHL1    C4 3479   6.573   0.570   6.071 -0.2613  0.4321 -0.2391
   32CHL1   H4A 3480   6.462   0.572   6.076 -0.3897 -2.9035  1.2293
   32CHL1   H4B 3481   6.616   0.647   6.138 -0.8429 -0.5338  1.2997
   32CHL1    C5 3482   6.593   0.605   5.925 -0.2283 -0.1902 -0.2360
   32CHL1    C6 3483   6.657   0.721   5.889  0.3429  0.1457 -0.0609
   32CHL1    H6 3484   6.692   0.783   5.973 -0.7715 -2.0027  2.1251
   32CHL1    C7 3485   6.666   0.769   5.742 -0.4525 -0.2084 -0.2340
   32CHL1   H7A 3486   6.642   0.876   5.724 -0.5540 -0.3749 -1.1468
   32CHL1   H7B 3487   6.772   0.755   5.713 -1.1954  0.1695 -3.5808
   32CHL1    C8 3488   6.570   0.680   5.651 -0.4936 -0.5753 -0.2959
   32CHL1    H8 3489   6.470   0.728   5.663 -1.1144 -1.9823  0.3547
   32CHL1   C14 3490   6.637   0.704   5.509 -0.0150  0.2754 -0.1245
   32CHL1   H14 3491   6.733   0.649   5.517 -0.6151 -0.5879  1.8214
   32CHL1   C15 3492   6.676   0.849   5.471 -0.4655  0.5585 -0.1174
   32CHL1  H15A 3493   6.586   0.910   5.497 -3.7104 -3.2069 -1.4768
   32CHL1  H15B 3494   6.767   0.878   5.528  0.6086  1.5017 -2.2107
   32CHL1   C16 3495   6.686   0.843   5.315  0.2490  0.3101 -0.1839
   32CHL1  H16A 3496   6.639   0.931   5.267  0.7111  0.4078 -0.4594
   32CHL1  H16B 3497   6.795   0.846   5.295  0.6058  1.1902  1.6481
   32CHL1   C17 3498   6.634   0.701   5.273  0.0033 -0.2345 -0.1372
   32CHL1   H17 3499   6.723   0.635   5.265  1.5376  1.6950  0.2634
   32CHL1   C13 3500   6.558   0.643   5.395 -0.5587 -0.0672  0.0136
   32CHL1   C18 3501   6.417   0.698   5.397  0.6576  0.0376  0.6717
   32CHL1  H18A 3502   6.416   0.808   5.385 -1.1477  0.2058  1.9450
   32CHL1  H18B 3503   6.362   0.648   5.314 -1.3991  0.0063  1.9899
   32CHL1  H18C 3504   6.369   0.674   5.494  2.1058  0.8871  1.6277
   32CHL1   C12 3505   6.554   0.490   5.419  0.1118  0.0010  0.2034
   32CHL1  H12A 3506   6.484   0.440   5.349 -4.4600  2.6937  2.3618
   32CHL1  H12B 3507   6.650   0.436   5.401 -1.4340 -2.7755 -0.3217
   32CHL1   C11 3508   6.507   0.453   5.563 -0.2329 -0.1582 -0.3090
   32CHL1  H11A 3509   6.402   0.487   5.576  0.2185  1.0820  0.3336
   32CHL1  H11B 3510   6.520   0.346   5.587  0.8290  0.4180  1.9886
   32CHL1    C9 3511   6.592   0.533   5.674  0.7096  0.4718  0.0722
   32CHL1    H9 3512   6.699   0.502   5.676  0.9664  1.3370  0.3201
   32CHL1   C10 3513   6.545   0.495   5.824 -0.3987 -0.8233  0.7884
   32CHL1   C19 3514   6.397   0.482   5.826 -0.1423 -0.2307 -0.4260
   32CHL1  H19A 3515   6.353   0.577   5.790 -2.8918 -1.5676 -0.9230
   32CHL1  H19B 3516   6.359   0.401   5.760  1.1634 -0.1522 -1.2951
   32CHL1  H19C 3517   6.356   0.462   5.928 -0.8354 -0.7307 -0.7931
   32CHL1    C1 3518   6.607   0.359   5.867  0.2527  0.0513 -0.4793
   32CHL1   H1A 3519   6.585   0.275   5.798 -0.6268  0.6994 -1.0067
   32CHL1   H1B 3520   6.716   0.377   5.869  0.2363  0.3651 -1.5886
   32CHL1    C2 3521   6.575   0.316   6.010 -0.5197 -0.3132 -0.3109
   32CHL1   H2A 3522   6.633   0.229   6.047 -0.1219 -0.1934 -0.6462
   32CHL1   H2B 3523   6.465   0.302   6.015 -0.6744 -0.4418 -2.8037
   32CHL1   C20 3524   6.566   0.703   5.137  0.1023 -0.1532 -0.2055
   32CHL1   H20 3525   6.474   0.764   5.149  0.6242  0.3634  1.3338
   32CHL1   C21 3526   6.527   0.551   5.101  0.2635 -0.8487  0.0562
   32CHL1  H21A 3527   6.613   0.485   5.123 -0.2267 -1.0354  1.5509
   32CHL1  H21B 3528   6.498   0.547   4.994  1.4566 -1.5722 -0.2604
   32CHL1  H21C 3529   6.435   0.533   5.160  0.7496  0.8173  1.3941
   32CHL1   C22 3530   6.659   0.766   5.028  0.5531  0.3749 -0.2507
   32CHL1  H22A 3531   6.695   0.867   5.058  2.0478 -0.2060 -0.0226
   32CHL1  H22B 3532   6.742   0.693   5.018 -1.0378 -1.7308  0.9579
   32CHL1   C23 3533   6.599   0.759   4.888 -0.1216  0.2897 -0.3632
   32CHL1  H23A 3534   6.608   0.651   4.865  2.2820  0.6269 -1.3405
   32CHL1  H23B 3535   6.492   0.788   4.894 -0.1756 -0.0080  0.2372
   32CHL1   C24 3536   6.673   0.848   4.789  0.3920 -0.2797 -0.7489
   32CHL1  H24A 3537   6.675   0.955   4.819  2.4215 -0.1015 -1.3580
   32CHL1  H24B 3538   6.776   0.810   4.805 -0.6221 -2.9366 -0.0916
   32CHL1   C25 3539   6.618   0.857   4.647  0.3105  1.1253  0.3201
   32CHL1   H25 3540   6.514   0.895   4.652  0.7622  2.8114 -1.8788
   32CHL1   C26 3541   6.707   0.946   4.554  0.2890  0.4245 -0.1670
   32CHL1  H26A 3542   6.816   0.935   4.572  0.5546  1.1226 -1.2795
   32CHL1  H26B 3543   6.679   0.911   4.452 -1.1188  0.5635  0.1473
   32CHL1  H26C 3544   6.679   1.053   4.561  0.3549  0.4426 -0.1827
   32CHL1   C27 3545   6.632   0.716   4.585 -0.4228 -0.2496  0.4140
   32CHL1  H27A 3546   6.587   0.628   4.637 -1.8050  0.3322  0.2529
   32CHL1  H27B 3547   6.588   0.719   4.483 -0.9475 -1.3335  0.5919
   32CHL1  H27C 3548   6.739   0.694   4.569  0.1131  1.5072  1.3275
   33CHL1    C3 3549   4.101   5.457   5.593 -0.3443 -0.2733  0.4291
   33CHL1    H3 3550   4.167   5.547   5.592 -0.0066 -0.5204 -0.4949
   33CHL1    O3 3551   4.066   5.427   5.724  0.5120  0.0160 -0.7151
   33CHL1   H3' 3552   4.146   5.389   5.763  0.9180 -1.0848 -2.4860
   33CHL1    C4 3553   3.975   5.498   5.508  0.7901 -0.5308  0.2331
   33CHL1   H4A 3554   3.888   5.432   5.529 -0.1670 -0.3811 -2.7840
   33CHL1   H4B 3555   3.935   5.588   5.561 -1.0114 -0.4974 -1.1081
   33CHL1    C5 3556   4.000   5.525   5.360 -0.9517  0.2572 -0.1622
   33CHL1    C6 3557   3.970   5.633   5.298  0.0761  1.2557 -0.0035
   33CHL1    H6 3558   3.933   5.718   5.357 -0.8351  0.7539  0.1561
   33CHL1    C7 3559   3.987   5.656   5.154  0.1858  0.7918 -0.1796
   33CHL1   H7A 3560   3.900   5.706   5.106  0.0151  0.5886 -0.0857
   33CHL1   H7B 3561   4.073   5.722   5.130 -0.9553  1.7104 -1.9539
   33CHL1    C8 3562   4.000   5.528   5.077  0.9390  0.3998  0.8435
   33CHL1    H8 3563   3.898   5.483   5.076  1.3664 -0.6426 -1.0832
   33CHL1   C14 3564   4.052   5.555   4.937 -0.7508 -0.1014  0.1583
   33CHL1   H14 3565   4.149   5.609   4.944 -1.6153  1.9077 -1.8315
   33CHL1   C15 3566   3.976   5.656   4.852 -0.2228 -0.9085 -0.0323
   33CHL1  H15A 3567   3.865   5.652   4.863 -0.6244  1.1797 -2.3118
   33CHL1  H15B 3568   4.013   5.759   4.874  0.4605 -1.1901  0.1613
   33CHL1   C16 3569   4.017   5.631   4.706 -0.9160 -0.3639 -0.3821
   33CHL1  H16A 3570   3.923   5.618   4.649 -2.7069  1.2474  1.9951
   33CHL1  H16B 3571   4.065   5.712   4.648  1.1487 -0.1248  1.5089
   33CHL1   C17 3572   4.109   5.507   4.708  0.1039 -0.1205 -0.1181
   33CHL1   H17 3573   4.215   5.538   4.720  0.7850 -0.8799 -3.3596
   33CHL1   C13 3574   4.074   5.439   4.843  0.2293 -0.1865 -0.9811
   33CHL1   C18 3575   3.946   5.362   4.826  0.2094 -0.2452  0.1380
   33CHL1  H18A 3576   3.928   5.307   4.920  0.5081 -0.5478  0.0184
   33CHL1  H18B 3577   3.856   5.425   4.806  0.1834 -1.0469 -2.8859
   33CHL1  H18C 3578   3.946   5.287   4.744  0.7087 -1.0114  0.8296
   33CHL1   C12 3579   4.182   5.352   4.909  0.2228  0.1576 -0.0877
   33CHL1  H12A 3580   4.192   5.253   4.859 -0.6015  0.9081 -1.8552
   33CHL1  H12B 3581   4.277   5.406   4.893  0.7247 -0.3180  1.1550
   33CHL1   C11 3582   4.158   5.325   5.056 -0.6793  0.1401 -0.1528
   33CHL1  H11A 3583   4.081   5.245   5.058 -0.9177  0.3850  0.8072
   33CHL1  H11B 3584   4.241   5.275   5.112 -1.2186  0.7966  1.2728
   33CHL1    C9 3585   4.106   5.443   5.144 -0.3243  0.3823  0.5900
   33CHL1    H9 3586   4.194   5.512   5.144  0.3749 -0.3109 -2.9681
   33CHL1   C10 3587   4.061   5.395   5.288 -0.3095 -0.6207 -0.1112
   33CHL1   C19 3588   3.953   5.286   5.296  0.6607 -0.1441  1.0398
   33CHL1  H19A 3589   4.003   5.194   5.258 -0.5634 -0.1405 -0.6541
   33CHL1  H19B 3590   3.925   5.261   5.400  2.1258  0.0420  1.5102
   33CHL1  H19C 3591   3.868   5.320   5.234 -0.3283 -1.8501  1.4178
   33CHL1    C1 3592   4.187   5.357   5.370  0.4210  0.2131  0.2302
   33CHL1   H1A 3593   4.225   5.263   5.324 -1.7998 -0.5668 -0.1350
   33CHL1   H1B 3594   4.256   5.443   5.356  0.3300  0.5500  1.6507
   33CHL1    C2 3595   4.168   5.332   5.523  0.5459 -0.8422 -0.0154
   33CHL1   H2A 3596   4.268   5.308   5.565  1.1177  0.2672 -0.6870
   33CHL1   H2B 3597   4.094   5.250   5.536  1.4014 -1.5207  0.7192
   33CHL1   C20 3598   4.097   5.419   4.586  0.0006 -0.0282 -0.0411
   33CHL1   H20 3599   3.997   5.377   4.561  1.0585 -2.0294 -1.1303
   33CHL1   C21 3600   4.193   5.299   4.594  1.0287 -0.2128  0.2022
   33CHL1  H21A 3601   4.189   5.244   4.498 -1.1078  0.9933 -0.4438
   33CHL1  H21B 3602   4.154   5.228   4.671 -1.4476  1.2997  0.4091
   33CHL1  H21C 3603   4.296   5.334   4.617  0.1462  3.0237 -0.3019
   33CHL1   C22 3604   4.121   5.492   4.454 -0.0080 -0.9327  0.3617
   33CHL1  H22A 3605   4.084   5.424   4.374 -1.9697  0.5938 -0.0906
   33CHL1  H22B 3606   4.055   5.577   4.430 -0.4194 -1.1049  0.8641
   33CHL1   C23 3607   4.269   5.523   4.425  0.0757  0.1669 -0.0180
   33CHL1  H23A 3608   4.309   5.570   4.517  1.4559 -1.2456  0.1417
   33CHL1  H23B 3609   4.329   5.433   4.400 -1.0314 -0.2214 -1.3536
   33CHL1   C24 3610   4.293   5.615   4.300  0.1016  0.6099 -0.8702
   33CHL1  H24A 3611   4.237   5.557   4.224 -0.4880 -0.8318  0.5861
   33CHL1  H24B 3612   4.252   5.717   4.317  1.2271  0.9634 -0.0788
   33CHL1   C25 3613   4.444   5.618   4.256  0.6288  0.5893 -0.4059
   33CHL1   H25 3614   4.479   5.518   4.223  0.1903  0.5506 -0.7565
   33CHL1   C26 3615   4.461   5.721   4.143 -0.4787 -0.1191  0.2800
   33CHL1  H26A 3616   4.447   5.825   4.178  2.7414 -0.0778  1.7774
   33CHL1  H26B 3617   4.561   5.705   4.096 -0.4315  1.0627 -0.0516
   33CHL1  H26C 3618   4.386   5.700   4.063  0.0730 -0.9216 -0.0434
   33CHL1   C27 3619   4.534   5.663   4.373  0.0300  0.0881  0.2122
   33CHL1  H27A 3620   4.626   5.711   4.333  1.3617 -1.8028  0.8379
   33CHL1  H27B 3621   4.473   5.727   4.440  1.3429 -0.8439  2.4312
   33CHL1  H27C 3622   4.567   5.575   4.433  0.1737  0.7139  1.0730
   34CHL1    C3 3623   2.229   1.977   6.004  0.0137  0.4050 -0.4793
   34CHL1    H3 3624   2.336   1.981   5.977 -0.1266  0.9285 -0.9600
   34CHL1    O3 3625   2.209   1.942   6.139  0.0910  0.4890  0.7630
   34CHL1   H3' 3626   2.115   1.928   6.150 -0.2084 -0.5012 -2.2050
   34CHL1    C4 3627   2.164   2.114   5.981  0.3501 -0.3024  0.1678
   34CHL1   H4A 3628   2.058   2.108   6.012  0.5052  0.7538  0.9744
   34CHL1   H4B 3629   2.208   2.189   6.050  0.1636  1.1578 -1.2352
   34CHL1    C5 3630   2.173   2.158   5.836  0.2935  0.6189  0.7784
   34CHL1    C6 3631   2.231   2.275   5.802 -0.2835  0.1347  0.5483
   34CHL1    H6 3632   2.278   2.329   5.886 -0.1416 -0.7291  1.0293
   34CHL1    C7 3633   2.243   2.321   5.655  0.1828 -0.3410 -0.0970
   34CHL1   H7A 3634   2.206   2.426   5.651  1.0186 -0.0208  0.3261
   34CHL1   H7B 3635   2.345   2.342   5.617  0.3472  0.0739  0.5629
   34CHL1    C8 3636   2.162   2.228   5.563 -0.3322  0.4285  1.3215
   34CHL1    H8 3637   2.054   2.250   5.578 -0.7411  0.1076 -0.7613
   34CHL1   C14 3638   2.198   2.256   5.411  0.2978  0.8866 -0.3658
   34CHL1   H14 3639   2.305   2.232   5.393  0.1546 -0.0974  0.0510
   34CHL1   C15 3640   2.184   2.400   5.364 -0.5597 -0.4519 -0.0937
   34CHL1  H15A 3641   2.085   2.438   5.397 -0.1914  2.8008 -2.2894
   34CHL1  H15B 3642   2.263   2.459   5.414  1.6586 -1.0343 -2.6967
   34CHL1   C16 3643   2.187   2.391   5.211  0.6789  0.5654  0.2527
   34CHL1  H16A 3644   2.096   2.440   5.170 -1.3672 -3.7753 -1.0594
   34CHL1  H16B 3645   2.274   2.447   5.170  1.1870 -0.4762 -0.1366
   34CHL1   C17 3646   2.186   2.241   5.179  0.3922  0.3211 -0.3199
   34CHL1   H17 3647   2.292   2.210   5.165 -0.0760 -0.8399 -1.5264
   34CHL1   C13 3648   2.124   2.170   5.305 -0.1437  0.3859 -0.0622
   34CHL1   C18 3649   1.976   2.197   5.312 -0.5684 -0.3481  0.0196
   34CHL1  H18A 3650   1.927   2.165   5.407 -0.0829  0.6582  0.6284
   34CHL1  H18B 3651   1.957   2.304   5.288 -0.8366 -0.2567  0.6290
   34CHL1  H18C 3652   1.923   2.138   5.233 -1.5503 -0.1711  0.5269
   34CHL1   C12 3653   2.165   2.030   5.333  0.5515  0.8824 -0.2253
   34CHL1  H12A 3654   2.115   1.949   5.276 -0.9824 -1.5272  4.0548
   34CHL1  H12B 3655   2.274   2.015   5.321  0.7345  0.8611  1.2807
   34CHL1   C11 3656   2.126   1.985   5.478  0.3130 -0.6993 -0.5721
   34CHL1  H11A 3657   2.016   1.994   5.473  0.4618  1.2650 -0.9571
   34CHL1  H11B 3658   2.167   1.881   5.483 -0.9310 -1.2223 -0.8351
   34CHL1    C9 3659   2.175   2.076   5.594 -0.3664 -0.2339 -0.1861
   34CHL1    H9 3660   2.284   2.051   5.593 -0.4030 -0.3992 -0.1747
   34CHL1   C10 3661   2.123   2.045   5.734 -0.1063 -0.0843  0.1277
   34CHL1   C19 3662   1.972   2.045   5.742 -0.5242  0.2235 -0.1449
   34CHL1  H19A 3663   1.943   1.973   5.663  2.7880  0.2040 -1.4898
   34CHL1  H19B 3664   1.924   2.026   5.841  1.0043  0.5563  0.6822
   34CHL1  H19C 3665   1.934   2.147   5.718 -2.3981 -0.7963 -1.8314
   34CHL1    C1 3666   2.183   1.906   5.771  0.2885 -0.5026 -0.5277
   34CHL1   H1A 3667   2.140   1.828   5.704 -0.0726 -2.1923  1.5755
   34CHL1   H1B 3668   2.292   1.919   5.755 -0.0641  2.0251 -1.2947
   34CHL1    C2 3669   2.156   1.874   5.912 -0.1453 -0.5822 -0.3608
   34CHL1   H2A 3670   2.193   1.769   5.921  2.0747 -0.2494 -3.8591
   34CHL1   H2B 3671   2.049   1.876   5.942 -0.5671 -0.4417 -1.8264
   34CHL1   C20 3672   2.118   2.211   5.041  0.3195  0.1158  0.5761
   34CHL1   H20 3673   2.012   2.239   5.060 -0.0795 -0.7959 -0.2114
   34CHL1   C21 3674   2.129   2.058   5.012 -0.0519 -0.0425  0.4436
   34CHL1  H21A 3675   2.102   2.028   4.908 -1.1340 -3.7545  1.6365
   34CHL1  H21B 3676   2.050   2.005   5.070 -0.2623 -0.6917 -0.4138
   34CHL1  H21C 3677   2.230   2.022   5.038  0.4104  0.6330 -0.3768
   34CHL1   C22 3678   2.182   2.280   4.915  0.2160 -0.0359 -0.4092
   34CHL1  H22A 3679   2.292   2.289   4.934 -0.2038  3.9768  1.2324
   34CHL1  H22B 3680   2.174   2.218   4.824 -1.2720 -1.0777  0.3944
   34CHL1   C23 3681   2.128   2.423   4.877 -0.4908 -0.2070  0.0389
   34CHL1  H23A 3682   2.150   2.492   4.962 -1.5662 -1.0677  1.0553
   34CHL1  H23B 3683   2.184   2.464   4.791  0.6313 -0.6134  0.5590
   34CHL1   C24 3684   1.974   2.438   4.853  0.9503  0.0513  0.0326
   34CHL1  H24A 3685   1.916   2.343   4.857 -1.2759  1.3048 -0.7635
   34CHL1  H24B 3686   1.926   2.500   4.931 -1.3548 -2.9209  1.1655
   34CHL1   C25 3687   1.940   2.476   4.710 -0.1500  0.5882 -0.2565
   34CHL1   H25 3688   1.989   2.574   4.692  0.0085  0.1570 -2.5852
   34CHL1   C26 3689   2.000   2.379   4.600  0.6726 -0.3823  0.0757
   34CHL1  H26A 3690   1.944   2.285   4.619 -0.7780  0.1284 -1.4581
   34CHL1  H26B 3691   1.980   2.425   4.501  0.1169  0.9454  0.7712
   34CHL1  H26C 3692   2.110   2.368   4.612  0.7019 -1.7825 -1.2121
   34CHL1   C27 3693   1.789   2.494   4.704 -0.1288  0.2508 -0.2250
   34CHL1  H27A 3694   1.737   2.396   4.699  2.6251 -1.4009  1.0876
   34CHL1  H27B 3695   1.747   2.551   4.790  3.0332  2.0709  0.2945
   34CHL1  H27C 3696   1.772   2.537   4.602  1.1719  1.4549  0.0342
   35CHL1    C3 3697   6.052   4.081   6.169  0.0982 -1.0174 -0.6173
   35CHL1    H3 3698   6.160   4.076   6.142  0.2684 -1.7627  0.1792
   35CHL1    O3 3699   6.055   4.074   6.315 -0.4252  0.2390 -0.2525
   35CHL1   H3' 3700   5.968   4.083   6.355  0.5480 -1.0196  2.3959
   35CHL1    C4 3701   5.975   4.205   6.126 -0.4481  0.3001  0.4816
   35CHL1   H4A 3702   5.873   4.199   6.168 -0.5900 -1.9519 -0.0381
   35CHL1   H4B 3703   6.023   4.291   6.177 -0.7788  0.1468  1.0514
   35CHL1    C5 3704   5.967   4.209   5.976  0.8436 -0.1148  0.4057
   35CHL1    C6 3705   6.019   4.315   5.902  0.4893  0.0446 -0.3516
   35CHL1    H6 3706   6.062   4.401   5.955 -0.2450  0.1821  0.0403
   35CHL1    C7 3707   5.994   4.331   5.753 -0.0807 -0.3892  0.3890
   35CHL1   H7A 3708   5.965   4.436   5.730  2.3510  0.6041  1.5214
   35CHL1   H7B 3709   6.091   4.309   5.703  0.0866 -0.1298  0.5980
   35CHL1    C8 3710   5.883   4.231   5.701 -0.2300  0.4161 -0.6418
   35CHL1    H8 3711   5.783   4.264   5.737  0.8772  1.0932  2.0600
   35CHL1   C14 3712   5.890   4.224   5.551  0.0033  0.4956  0.0823
   35CHL1   H14 3713   5.983   4.171   5.521 -0.0155  0.3119  0.3464
   35CHL1   C15 3714   5.907   4.352   5.472  0.1448  0.0506 -0.7132
   35CHL1  H15A 3715   5.853   4.437   5.519  0.5711 -0.2866  0.4185
   35CHL1  H15B 3716   6.014   4.383   5.468  0.3374 -0.7090 -2.2071
   35CHL1   C16 3717   5.856   4.313   5.331  1.1312  0.3894  0.2529
   35CHL1  H16A 3718   5.765   4.376   5.316  0.0736 -1.3729 -1.3213
   35CHL1  H16B 3719   5.923   4.343   5.248 -1.8749  1.0607 -2.1001
   35CHL1   C17 3720   5.815   4.159   5.329 -0.3693 -0.5467 -0.6003
   35CHL1   H17 3721   5.909   4.103   5.312  0.1126  0.3383 -0.9614
   35CHL1   C13 3722   5.779   4.143   5.480  0.0669 -0.3122  0.5100
   35CHL1   C18 3723   5.638   4.210   5.509  0.0843 -0.1573 -0.1162
   35CHL1  H18A 3724   5.615   4.222   5.617  0.8606 -0.9023  0.1448
   35CHL1  H18B 3725   5.623   4.310   5.464 -2.3105  0.3315  1.5918
   35CHL1  H18C 3726   5.559   4.140   5.476 -0.5327  0.5323 -0.1135
   35CHL1   C12 3727   5.794   3.992   5.537  0.8509  0.0690 -1.1661
   35CHL1  H12A 3728   5.699   3.938   5.515  0.5904  0.0548 -0.0510
   35CHL1  H12B 3729   5.887   3.940   5.506  0.2722 -1.1071 -0.9811
   35CHL1   C11 3730   5.795   4.003   5.690 -0.3216 -0.0633  0.2463
   35CHL1  H11A 3731   5.694   4.028   5.730 -0.6070 -1.4784  0.4629
   35CHL1  H11B 3732   5.818   3.904   5.734 -0.6650  1.1195  3.3385
   35CHL1    C9 3733   5.899   4.091   5.757  0.3474 -0.7993  0.1685
   35CHL1    H9 3734   6.000   4.058   5.723  0.5934 -0.4522  0.5441
   35CHL1   C10 3735   5.902   4.090   5.914  0.1026  0.0972 -0.1694
   35CHL1   C19 3736   5.749   4.088   5.966 -0.2201 -0.4500  0.1574
   35CHL1  H19A 3737   5.695   3.999   5.927  0.0034  0.8006 -3.3606
   35CHL1  H19B 3738   5.736   4.091   6.077 -0.2308 -1.9395  0.2210
   35CHL1  H19C 3739   5.682   4.167   5.927 -1.2639 -0.6623  1.4141
   35CHL1    C1 3740   5.977   3.962   5.967 -0.6655 -0.4744  0.3521
   35CHL1   H1A 3741   5.927   3.870   5.931 -0.1033 -0.0342 -1.6903
   35CHL1   H1B 3742   6.079   3.957   5.922 -0.8833  0.1949 -0.2462
   35CHL1    C2 3743   5.989   3.952   6.120  0.0666 -0.7259  0.6318
   35CHL1   H2A 3744   6.056   3.871   6.155 -0.0454 -0.2633  1.9759
   35CHL1   H2B 3745   5.891   3.931   6.167  1.2917 -1.3621  3.0689
   35CHL1   C20 3746   5.706   4.122   5.230  0.0208  0.5665 -0.3306
   35CHL1   H20 3747   5.612   4.170   5.264 -1.5784 -1.6226 -1.4628
   35CHL1   C21 3748   5.672   3.975   5.248 -0.0822 -0.6211  0.0612
   35CHL1  H21A 3749   5.767   3.918   5.261  1.5608  1.4713 -1.8499
   35CHL1  H21B 3750   5.608   3.938   5.165  1.7313 -2.2499 -0.6787
   35CHL1  H21C 3751   5.607   3.966   5.337 -1.0111  0.8925 -0.4223
   35CHL1   C22 3752   5.755   4.148   5.083  0.7532  0.7614  0.7640
   35CHL1  H22A 3753   5.670   4.119   5.018  0.9789 -1.4791  1.3902
   35CHL1  H22B 3754   5.783   4.254   5.065  4.3076 -0.2313 -0.3926
   35CHL1   C23 3755   5.880   4.083   5.028  0.2993  0.5027  0.0123
   35CHL1  H23A 3756   5.969   4.116   5.087 -0.5842 -0.5623  2.0499
   35CHL1  H23B 3757   5.856   3.974   5.033 -1.4686  0.8784  0.4971
   35CHL1   C24 3758   5.897   4.115   4.878  0.4913  0.0422 -0.3928
   35CHL1  H24A 3759   5.826   4.064   4.808  1.2816 -0.8611 -0.5546
   35CHL1  H24B 3760   5.889   4.225   4.867  1.0351  0.1984  0.7492
   35CHL1   C25 3761   6.037   4.058   4.830  0.1437  0.3800  0.3560
   35CHL1   H25 3762   6.111   4.090   4.906  0.3077 -0.4785  0.5696
   35CHL1   C26 3763   6.027   3.905   4.825  0.7884  0.4007 -0.4643
   35CHL1  H26A 3764   6.001   3.865   4.925  0.6218  0.0560 -0.6465
   35CHL1  H26B 3765   5.946   3.884   4.752 -0.5387  2.1894  0.4133
   35CHL1  H26C 3766   6.121   3.854   4.794  0.2262 -0.8923 -0.0825
   35CHL1   C27 3767   6.069   4.108   4.693  0.3160  0.0493 -0.2656
   35CHL1  H27A 3768   6.077   4.218   4.690  1.4325 -0.0394 -1.0816
   35CHL1  H27B 3769   6.168   4.074   4.656  1.2714  1.3224  1.0422
   35CHL1  H27C 3770   6.005   4.083   4.605  0.4550  3.4994 -1.4614
   36CHL1    C3 3771   1.561   0.935   5.960 -0.5363  0.3417  0.3560
   36CHL1    H3 3772   1.658   0.888   5.933 -1.1470 -0.7598 -0.0002
   36CHL1    O3 3773   1.539   0.909   6.099 -0.3122 -0.1071  0.4450
   36CHL1   H3' 3774   1.446   0.887   6.108 -0.3275 -0.0702  0.3828
   36CHL1    C4 3775   1.569   1.087   5.932 -0.4281  0.4096 -0.3020
   36CHL1   H4A 3776   1.470   1.130   5.960 -0.5162  0.7478 -1.0874
   36CHL1   H4B 3777   1.641   1.130   6.005 -1.3477 -0.6254  1.2730
   36CHL1    C5 3778   1.614   1.105   5.787  0.1707 -0.1966 -0.2633
   36CHL1    C6 3779   1.726   1.168   5.752 -0.0984 -0.8257  0.0894
   36CHL1    H6 3780   1.792   1.203   5.832 -0.3584 -1.0003  0.3856
   36CHL1    C7 3781   1.753   1.205   5.611  0.2431 -0.5082 -0.0216
   36CHL1   H7A 3782   1.783   1.312   5.606  1.1915 -0.1546  5.9730
   36CHL1   H7B 3783   1.839   1.145   5.572 -0.4543  0.6030 -3.6997
   36CHL1    C8 3784   1.633   1.194   5.510  0.6420 -0.3055  0.3522
   36CHL1    H8 3785   1.561   1.277   5.527  0.6276 -0.2616  0.0730
   36CHL1   C14 3786   1.682   1.198   5.362 -0.2492  0.1140 -0.3275
   36CHL1   H14 3787   1.767   1.126   5.361  0.5866  1.0352 -2.5129
   36CHL1   C15 3788   1.743   1.335   5.320  0.4545  0.5343 -0.5174
   36CHL1  H15A 3789   1.677   1.418   5.353 -0.4268 -0.9516  1.7222
   36CHL1  H15B 3790   1.846   1.342   5.361 -0.5357 -2.4273  2.9646
   36CHL1   C16 3791   1.744   1.328   5.171  0.5040  0.5635 -0.0346
   36CHL1  H16A 3792   1.720   1.414   5.104 -1.2945 -1.1361 -1.6997
   36CHL1  H16B 3793   1.850   1.310   5.146  1.0241  1.4175  1.4449
   36CHL1   C17 3794   1.653   1.200   5.129  0.5092  0.0093  0.9313
   36CHL1   H17 3795   1.721   1.114   5.111 -1.0936 -0.8351 -1.5691
   36CHL1   C13 3796   1.578   1.168   5.256 -0.3989  0.6807 -0.2638
   36CHL1   C18 3797   1.453   1.264   5.264  0.2046  0.0078 -0.0228
   36CHL1  H18A 3798   1.415   1.270   5.368  0.2682  1.3521 -0.0584
   36CHL1  H18B 3799   1.495   1.363   5.236  1.5789 -0.9118 -1.4116
   36CHL1  H18C 3800   1.370   1.230   5.199  1.0693 -1.7679 -0.2544
   36CHL1   C12 3801   1.537   1.023   5.287 -0.1385 -0.4751 -0.5022
   36CHL1  H12A 3802   1.462   1.001   5.207 -0.9622 -0.0601  0.1364
   36CHL1  H12B 3803   1.623   0.953   5.286  0.8766  0.7360 -2.1284
   36CHL1   C11 3804   1.472   1.015   5.425 -0.5938 -0.8549 -0.2576
   36CHL1  H11A 3805   1.381   1.079   5.427 -0.0861  0.0020 -2.0651
   36CHL1  H11B 3806   1.442   0.917   5.466 -0.8146  0.0358  1.8447
   36CHL1    C9 3807   1.564   1.059   5.538  0.5593  0.4169  0.0283
   36CHL1    H9 3808   1.649   0.987   5.543  1.0120  0.8625 -1.1605
   36CHL1   C10 3809   1.515   1.049   5.687  0.6201  0.2681  0.9252
   36CHL1   C19 3810   1.384   1.131   5.695  0.0952 -0.4997 -0.2442
   36CHL1  H19A 3811   1.397   1.236   5.663 -1.2859  0.2181  1.4006
   36CHL1  H19B 3812   1.303   1.091   5.629 -1.0203  3.0085 -1.2091
   36CHL1  H19C 3813   1.343   1.129   5.798 -0.8321 -0.4050 -0.6006
   36CHL1    C1 3814   1.473   0.898   5.729 -1.0048 -0.1679 -0.3087
   36CHL1   H1A 3815   1.384   0.862   5.674 -0.6453 -0.9352 -0.3984
   36CHL1   H1B 3816   1.562   0.834   5.709 -0.7752 -0.5530  1.7412
   36CHL1    C2 3817   1.452   0.865   5.882  0.0343  0.9444  0.1701
   36CHL1   H2A 3818   1.465   0.758   5.907  1.7593  1.6099  2.4850
   36CHL1   H2B 3819   1.354   0.907   5.915 -1.0866 -1.1272 -0.4001
   36CHL1   C20 3820   1.575   1.225   4.994  0.0966 -0.1667  0.3058
   36CHL1   H20 3821   1.505   1.309   5.013  0.8189  0.7289 -0.8090
   36CHL1   C21 3822   1.505   1.092   4.957  0.1294  0.0933 -0.3779
   36CHL1  H21A 3823   1.405   1.084   5.005 -0.0145 -0.5509 -0.7679
   36CHL1  H21B 3824   1.569   1.002   4.971  0.8325  0.7599  0.8837
   36CHL1  H21C 3825   1.465   1.097   4.854  0.2467 -1.0535 -0.5019
   36CHL1   C22 3826   1.678   1.259   4.881 -0.4428 -0.0492  0.1467
   36CHL1  H22A 3827   1.709   1.364   4.903 -0.1212  0.2870 -1.7863
   36CHL1  H22B 3828   1.760   1.186   4.896  0.1577  0.6714  0.4173
   36CHL1   C23 3829   1.629   1.272   4.730 -0.2691 -0.4108 -0.1098
   36CHL1  H23A 3830   1.715   1.289   4.661 -0.3340 -0.4815 -0.2088
   36CHL1  H23B 3831   1.589   1.173   4.697 -0.5992 -1.0054  1.8972
   36CHL1   C24 3832   1.532   1.384   4.704  0.0216 -0.5156  0.1982
   36CHL1  H24A 3833   1.439   1.361   4.761 -0.6136 -2.2269 -1.4259
   36CHL1  H24B 3834   1.565   1.482   4.746 -1.1324  0.3680 -0.8744
   36CHL1   C25 3835   1.497   1.400   4.554  0.6736  0.9617  0.5386
   36CHL1   H25 3836   1.457   1.297   4.542 -0.9850  1.8796 -3.0778
   36CHL1   C26 3837   1.381   1.496   4.519 -0.1042  0.7910  0.1221
   36CHL1  H26A 3838   1.305   1.484   4.600 -0.6302  1.0278 -0.3268
   36CHL1  H26B 3839   1.412   1.602   4.504  0.2123  0.7248  0.2989
   36CHL1  H26C 3840   1.336   1.463   4.423 -1.8181 -1.8544  1.7214
   36CHL1   C27 3841   1.614   1.418   4.460  0.9254 -0.1790 -0.2007
   36CHL1  H27A 3842   1.653   1.522   4.459  2.2641 -0.5853 -3.8356
   36CHL1  H27B 3843   1.705   1.357   4.483 -0.8166 -2.0280  2.4180
   36CHL1  H27C 3844   1.579   1.386   4.360  1.1773  1.6351 -0.8965
   37CHL1    C3 3845   5.306   4.432   6.002  0.0114  0.2580 -0.1918
   37CHL1    H3 3846   5.346   4.506   5.928 -1.2422  1.0155 -0.1503
   37CHL1    O3 3847   5.309   4.483   6.136 -0.2038 -0.2857 -0.0262
   37CHL1   H3' 3848   5.402   4.493   6.159  0.7492  2.0930 -3.9447
   37CHL1    C4 3849   5.160   4.422   5.959  0.2337 -0.1026  0.2849
   37CHL1   H4A 3850   5.111   4.364   6.040 -2.4695  0.6642 -0.7245
   37CHL1   H4B 3851   5.127   4.528   5.967 -1.6460 -0.7260  1.2573
   37CHL1    C5 3852   5.148   4.359   5.816 -0.3179  0.0672 -0.0842
   37CHL1    C6 3853   5.084   4.431   5.723  0.7031  0.7007  0.0042
   37CHL1    H6 3854   5.053   4.536   5.736  1.2884  1.0191 -1.0937
   37CHL1    C7 3855   5.067   4.382   5.586 -0.1073 -0.2926 -0.3509
   37CHL1   H7A 3856   4.962   4.391   5.553 -0.3527 -3.2387 -0.5825
   37CHL1   H7B 3857   5.140   4.438   5.523  0.0816  1.2447  1.1551
   37CHL1    C8 3858   5.109   4.235   5.562 -0.1979  0.2736 -0.3341
   37CHL1    H8 3859   5.027   4.169   5.598  1.5417 -2.0469 -0.3848
   37CHL1   C14 3860   5.138   4.193   5.418  0.3921  0.2556  0.8254
   37CHL1   H14 3861   5.235   4.243   5.397 -0.4102  2.0492  1.1595
   37CHL1   C15 3862   5.034   4.234   5.299 -0.1112  0.8819 -0.8922
   37CHL1  H15A 3863   4.931   4.226   5.340 -0.1412 -1.9649 -1.3304
   37CHL1  H15B 3864   5.050   4.339   5.266  1.0454  1.0545  0.1361
   37CHL1   C16 3865   5.068   4.132   5.184 -0.2842 -0.3572 -0.2411
   37CHL1  H16A 3866   4.973   4.077   5.162 -1.6849  2.2900 -1.1854
   37CHL1  H16B 3867   5.102   4.183   5.092  0.2132 -0.1070  0.0812
   37CHL1   C17 3868   5.182   4.039   5.237 -0.4567  0.3616  0.7780
   37CHL1   H17 3869   5.272   4.097   5.208 -1.0670  1.4368  0.9677
   37CHL1   C13 3870   5.164   4.047   5.389 -0.2683 -0.0004  0.3242
   37CHL1   C18 3871   5.037   3.961   5.426 -0.3049 -0.3142  0.7942
   37CHL1  H18A 3872   5.056   3.851   5.430  2.5053  0.1037  0.9756
   37CHL1  H18B 3873   5.000   3.981   5.529 -0.7417 -0.4979  0.6753
   37CHL1  H18C 3874   4.956   3.983   5.354  1.4223  0.6204 -0.9716
   37CHL1   C12 3875   5.286   3.999   5.464 -0.3632  0.7824 -0.0948
   37CHL1  H12A 3876   5.299   3.889   5.472  1.8188  1.0898  1.4461
   37CHL1  H12B 3877   5.372   4.034   5.404 -0.7150  0.4047 -0.8255
   37CHL1   C11 3878   5.273   4.038   5.616  0.4395  0.2388 -0.4140
   37CHL1  H11A 3879   5.209   3.960   5.663  1.0054 -0.1070 -0.2010
   37CHL1  H11B 3880   5.375   4.019   5.656  0.8422  2.1599 -0.4727
   37CHL1    C9 3881   5.229   4.186   5.649 -0.0578 -0.5227 -0.1133
   37CHL1    H9 3882   5.309   4.247   5.604  0.3751 -1.1202 -0.1632
   37CHL1   C10 3883   5.216   4.227   5.796  0.6209  0.2288  0.0101
   37CHL1   C19 3884   5.131   4.123   5.869 -0.1512  0.5081 -0.6819
   37CHL1  H19A 3885   5.092   4.145   5.971  0.4149 -0.0134 -0.3437
   37CHL1  H19B 3886   5.038   4.084   5.821 -1.1761  0.4103  1.2493
   37CHL1  H19C 3887   5.196   4.033   5.872 -0.9655 -0.0872 -0.2738
   37CHL1    C1 3888   5.359   4.238   5.849  0.0028  0.2058 -0.0804
   37CHL1   H1A 3889   5.387   4.131   5.846  0.7461  0.3573  0.9763
   37CHL1   H1B 3890   5.413   4.307   5.781  1.1800  1.7805  2.2800
   37CHL1    C2 3891   5.373   4.295   5.991  0.6877  0.4759  0.3484
   37CHL1   H2A 3892   5.482   4.302   6.013  1.0970  2.1315 -1.7974
   37CHL1   H2B 3893   5.330   4.223   6.064 -1.9288  1.4672 -0.1211
   37CHL1   C20 3894   5.185   3.903   5.167 -0.3161 -0.0092  0.5584
   37CHL1   H20 3895   5.148   3.831   5.242  0.4370  0.9593  1.8967
   37CHL1   C21 3896   5.331   3.869   5.151 -0.1137  0.1979  0.0084
   37CHL1  H21A 3897   5.383   3.941   5.083  0.3814  0.0946  0.2707
   37CHL1  H21B 3898   5.344   3.768   5.107  1.4924  0.8391 -1.1057
   37CHL1  H21C 3899   5.381   3.864   5.250  0.8524  0.0827 -0.4717
   37CHL1   C22 3900   5.088   3.883   5.042  0.1159 -0.6078 -0.1966
   37CHL1  H22A 3901   4.985   3.874   5.083  0.5640 -2.3430  0.6610
   37CHL1  H22B 3902   5.091   3.965   4.967  0.8595 -0.5439 -0.1019
   37CHL1   C23 3903   5.105   3.751   4.961  1.2382 -1.1746 -0.0935
   37CHL1  H23A 3904   5.200   3.769   4.905  1.7794  0.8719  1.3581
   37CHL1  H23B 3905   5.112   3.662   5.026 -2.3890 -1.8820 -0.4853
   37CHL1   C24 3906   4.990   3.736   4.861  0.0470 -0.9113  0.3521
   37CHL1  H24A 3907   4.899   3.738   4.924  0.0378 -2.0845  0.4009
   37CHL1  H24B 3908   4.992   3.819   4.787  1.4614 -1.5300 -0.3448
   37CHL1   C25 3909   5.000   3.599   4.799  0.8382  0.9495  0.0451
   37CHL1   H25 3910   5.002   3.531   4.887 -0.8367 -0.0423 -0.6279
   37CHL1   C26 3911   4.880   3.563   4.710  0.4649  0.1244 -0.5452
   37CHL1  H26A 3912   4.888   3.614   4.611  0.0561  0.4159 -0.4280
   37CHL1  H26B 3913   4.872   3.455   4.688  2.7985 -0.5250  1.3463
   37CHL1  H26C 3914   4.791   3.601   4.764  0.0183 -1.4586 -0.1304
   37CHL1   C27 3915   5.132   3.572   4.722  0.4354 -0.2180 -0.2360
   37CHL1  H27A 3916   5.229   3.567   4.777  1.7671 -2.1076 -2.5502
   37CHL1  H27B 3917   5.107   3.484   4.659  0.2573 -0.9140  0.7804
   37CHL1  H27C 3918   5.140   3.661   4.656 -0.3652  1.0052  1.2638
   38CHL1    C3 3919   5.377   6.234   6.077 -0.2884  0.3131 -0.1215
   38CHL1    H3 3920   5.423   6.328   6.039  3.0446 -1.1565 -0.0064
   38CHL1    O3 3921   5.357   6.259   6.217  0.6817  0.2434  0.0184
   38CHL1   H3' 3922   5.362   6.355   6.223 -0.0268  0.2005  2.1162
   38CHL1    C4 3923   5.246   6.204   6.002 -1.0194 -0.2710  0.2589
   38CHL1   H4A 3924   5.213   6.113   6.056  0.2244  0.8597  3.1043
   38CHL1   H4B 3925   5.178   6.291   6.021  1.2024  1.7229 -0.3751
   38CHL1    C5 3926   5.285   6.186   5.851 -0.2562 -0.2322 -0.0252
   38CHL1    C6 3927   5.243   6.280   5.766  0.1304 -0.1761 -0.1615
   38CHL1    H6 3928   5.172   6.359   5.797 -0.3805  0.1764 -2.0811
   38CHL1    C7 3929   5.270   6.275   5.620 -0.4246  0.1940 -0.1585
   38CHL1   H7A 3930   5.170   6.295   5.575 -0.1486  1.4725 -0.2583
   38CHL1   H7B 3931   5.346   6.351   5.589  1.7787 -2.4686 -1.6918
   38CHL1    C8 3932   5.326   6.135   5.577  0.1643  0.7127 -0.0703
   38CHL1    H8 3933   5.247   6.057   5.581  0.8873 -0.0252  0.1060
   38CHL1   C14 3934   5.393   6.143   5.442 -0.0672  0.2041  0.0057
   38CHL1   H14 3935   5.474   6.217   5.458  0.3511 -0.3830  0.6685
   38CHL1   C15 3936   5.310   6.208   5.332  0.6621  0.3764 -0.1619
   38CHL1  H15A 3937   5.207   6.167   5.347  1.1810 -0.6925  0.7030
   38CHL1  H15B 3938   5.314   6.317   5.348 -0.1602  0.2759  0.9282
   38CHL1   C16 3939   5.383   6.166   5.210  0.3383 -0.5668  0.3783
   38CHL1  H16A 3940   5.313   6.128   5.132  1.1198  1.8547 -1.6627
   38CHL1  H16B 3941   5.437   6.244   5.152 -0.0171  0.0932  0.9115
   38CHL1   C17 3942   5.498   6.067   5.250 -0.3064 -0.4764 -0.1113
   38CHL1   H17 3943   5.592   6.123   5.269  0.0069 -1.1449  0.3357
   38CHL1   C13 3944   5.449   6.014   5.381 -0.2402 -0.3207 -0.1381
   38CHL1   C18 3945   5.344   5.899   5.365  0.3117  0.1856  0.2235
   38CHL1  H18A 3946   5.307   5.862   5.463 -0.7378 -2.1168 -0.9832
   38CHL1  H18B 3947   5.256   5.929   5.305 -0.6917 -1.2472  0.9154
   38CHL1  H18C 3948   5.401   5.817   5.317  0.9692  1.3072 -0.9979
   38CHL1   C12 3949   5.557   5.973   5.481  0.2027 -0.4724  0.3528
   38CHL1  H12A 3950   5.598   5.874   5.451 -0.1313 -1.8554  3.8890
   38CHL1  H12B 3951   5.640   6.046   5.480  0.5056 -0.8136 -1.1438
   38CHL1   C11 3952   5.509   5.956   5.627  0.6229  0.1164  0.0729
   38CHL1  H11A 3953   5.434   5.874   5.623 -0.3257  1.0211 -1.5727
   38CHL1  H11B 3954   5.589   5.917   5.694  0.5381 -0.4202 -0.1344
   38CHL1    C9 3955   5.432   6.085   5.677 -0.2784 -0.4004  0.7856
   38CHL1    H9 3956   5.512   6.163   5.677 -1.4472  0.8451  1.5113
   38CHL1   C10 3957   5.388   6.072   5.823 -0.0953  0.1107 -0.2823
   38CHL1   C19 3958   5.311   5.942   5.851 -0.3385  0.2863 -0.6038
   38CHL1  H19A 3959   5.376   5.852   5.840  0.6169  0.8455  0.3275
   38CHL1  H19B 3960   5.287   5.949   5.959  1.4033  2.2233 -0.2886
   38CHL1  H19C 3961   5.224   5.928   5.783 -0.9316  1.2064 -0.0570
   38CHL1    C1 3962   5.513   6.087   5.921  0.1691  0.1797  0.6819
   38CHL1   H1A 3963   5.563   5.988   5.917 -0.2118  0.0257 -1.3870
   38CHL1   H1B 3964   5.582   6.166   5.885  0.4465 -0.3702 -0.0231
   38CHL1    C2 3965   5.478   6.117   6.067  0.2873 -0.6954 -0.0096
   38CHL1   H2A 3966   5.567   6.165   6.114 -0.2356  1.2490 -0.9288
   38CHL1   H2B 3967   5.436   6.035   6.130  0.7750  0.7816  2.3913
   38CHL1   C20 3968   5.533   5.973   5.135  0.4451 -0.0681  0.1341
   38CHL1   H20 3969   5.448   5.902   5.125  1.2562 -0.8661 -1.5218
   38CHL1   C21 3970   5.656   5.890   5.178 -0.1780  0.3510 -0.0503
   38CHL1  H21A 3971   5.725   5.956   5.235  0.5357 -2.1617  2.1886
   38CHL1  H21B 3972   5.712   5.853   5.090  0.8876  2.0080 -0.1259
   38CHL1  H21C 3973   5.630   5.808   5.248  2.3865 -1.6199 -1.2764
   38CHL1   C22 3974   5.542   6.029   4.994 -0.3166 -0.4584  0.5481
   38CHL1  H22A 3975   5.578   5.945   4.933 -2.5704 -1.9331  1.1093
   38CHL1  H22B 3976   5.443   6.058   4.952  0.1833  3.3312  1.6261
   38CHL1   C23 3977   5.637   6.152   4.981 -0.3987 -0.1019 -0.3808
   38CHL1  H23A 3978   5.599   6.238   5.041 -5.1622 -0.6611 -2.1477
   38CHL1  H23B 3979   5.738   6.122   5.016 -0.3459  2.0398  1.5809
   38CHL1   C24 3980   5.644   6.199   4.838  0.1568  0.1160  0.3101
   38CHL1  H24A 3981   5.681   6.114   4.777  0.3339  0.9731 -0.8088
   38CHL1  H24B 3982   5.547   6.226   4.790  0.9114  1.3577 -0.5529
   38CHL1   C25 3983   5.739   6.316   4.822 -0.0386  0.0868  0.4495
   38CHL1   H25 3984   5.841   6.289   4.859 -0.3058 -1.8324 -0.0910
   38CHL1   C26 3985   5.762   6.342   4.671  0.4212 -0.7003 -0.1018
   38CHL1  H26A 3986   5.667   6.351   4.615 -0.5819 -0.3749  1.6036
   38CHL1  H26B 3987   5.831   6.430   4.667  1.7392 -1.7156 -0.5669
   38CHL1  H26C 3988   5.814   6.256   4.625 -2.8007 -3.3211  0.8259
   38CHL1   C27 3989   5.678   6.448   4.884  0.4373  0.0601 -0.5263
   38CHL1  H27A 3990   5.574   6.474   4.853 -0.6062  0.6659  3.0706
   38CHL1  H27B 3991   5.691   6.447   4.994  2.4483  1.3432 -0.6947
   38CHL1  H27C 3992   5.743   6.526   4.838  1.1395 -0.0624  0.2442
   39CHL1    C3 3993   5.645   6.696   6.093 -1.0647 -0.3352 -1.3639
   39CHL1    H3 3994   5.567   6.763   6.053  0.1455  2.9556  1.3042
   39CHL1    O3 3995   5.627   6.694   6.236  0.0293  0.5884  0.0954
   39CHL1   H3' 3996   5.697   6.630   6.253 -0.0542  0.1712 -0.9823
   39CHL1    C4 3997   5.630   6.558   6.025  0.6983  0.0488  0.0330
   39CHL1   H4A 3998   5.707   6.498   6.078  2.0507 -0.1955 -2.0722
   39CHL1   H4B 3999   5.536   6.503   6.045 -0.2965  1.9164  0.7863
   39CHL1    C5 4000   5.676   6.551   5.878 -0.2615 -0.4565  0.0174
   39CHL1    C6 4001   5.591   6.493   5.788 -0.2974  0.2271  0.0613
   39CHL1    H6 4002   5.498   6.444   5.822  0.0189  1.0002  2.1723
   39CHL1    C7 4003   5.627   6.470   5.649 -0.3348 -0.1196 -0.3240
   39CHL1   H7A 4004   5.627   6.365   5.612  0.8073  0.3706 -1.8399
   39CHL1   H7B 4005   5.552   6.523   5.587 -1.3693  1.1093  1.8631
   39CHL1    C8 4006   5.773   6.512   5.619 -0.2316 -0.4919  0.0986
   39CHL1    H8 4007   5.836   6.422   5.635  1.6637  0.8737  0.8017
   39CHL1   C14 4008   5.788   6.550   5.472 -0.2981  0.6502 -0.0113
   39CHL1   H14 4009   5.738   6.649   5.464 -0.7638  0.3622 -0.7683
   39CHL1   C15 4010   5.732   6.448   5.366  0.0056  0.7932 -0.4009
   39CHL1  H15A 4011   5.753   6.342   5.393 -0.6612  1.0910  1.4334
   39CHL1  H15B 4012   5.621   6.443   5.362 -0.0193 -4.6367 -0.8259
   39CHL1   C16 4013   5.790   6.496   5.234  0.6152  0.3084 -0.2403
   39CHL1  H16A 4014   5.844   6.411   5.187 -0.5480 -0.1422 -0.7917
   39CHL1  H16B 4015   5.722   6.555   5.169  2.3688 -0.1192 -2.5870
   39CHL1   C17 4016   5.911   6.595   5.264  0.6543  0.4883 -0.5352
   39CHL1   H17 4017   5.860   6.693   5.257  0.3656  0.3652 -0.1953
   39CHL1   C13 4018   5.934   6.575   5.417  0.0302 -0.2901 -0.0418
   39CHL1   C18 4019   6.017   6.444   5.437 -0.0717  0.5275  0.1821
   39CHL1  H18A 4020   5.980   6.356   5.380  1.1005 -1.2639  2.0508
   39CHL1  H18B 4021   6.124   6.458   5.411  0.4347 -1.3697  1.0097
   39CHL1  H18C 4022   6.025   6.413   5.544 -2.8462 -1.6185 -0.1211
   39CHL1   C12 4023   5.981   6.701   5.493 -0.6136 -0.7313 -0.0764
   39CHL1  H12A 4024   6.085   6.734   5.472 -0.4255  1.0365  3.0182
   39CHL1  H12B 4025   5.911   6.784   5.468 -0.6830 -0.6436  0.3917
   39CHL1   C11 4026   5.979   6.677   5.651  0.1675  0.3553  0.5898
   39CHL1  H11A 4027   6.058   6.601   5.670  2.8274  2.7990  0.0121
   39CHL1  H11B 4028   6.011   6.772   5.699  0.5784  1.4447 -1.6883
   39CHL1    C9 4029   5.836   6.631   5.699  0.0814 -0.1492 -0.3004
   39CHL1    H9 4030   5.761   6.709   5.670  0.7673 -0.1943 -2.3666
   39CHL1   C10 4031   5.811   6.618   5.851  0.2259  0.3024  0.0995
   39CHL1   C19 4032   5.929   6.524   5.904  0.6362 -0.5016 -0.1061
   39CHL1  H19A 4033   5.907   6.494   6.009 -1.7297 -1.8012 -0.8857
   39CHL1  H19B 4034   5.927   6.429   5.845 -2.5371  0.2213 -1.3616
   39CHL1  H19C 4035   6.026   6.577   5.908 -0.1467  0.9698  0.1152
   39CHL1    C1 4036   5.808   6.756   5.916  0.3583 -0.3571  0.4622
   39CHL1   H1A 4037   5.908   6.804   5.909 -1.4264  3.5380 -1.4158
   39CHL1   H1B 4038   5.733   6.812   5.856  0.6660 -0.1333  0.2849
   39CHL1    C2 4039   5.789   6.753   6.067 -0.5149 -0.5903 -0.3309
   39CHL1   H2A 4040   5.793   6.855   6.111 -2.7068  0.0072 -1.4002
   39CHL1   H2B 4041   5.871   6.688   6.106  0.5145  0.0476 -1.3463
   39CHL1   C20 4042   6.032   6.582   5.171 -0.1632 -0.3269 -0.4500
   39CHL1   H20 4043   6.069   6.478   5.180 -2.0732 -1.0085 -0.0374
   39CHL1   C21 4044   6.133   6.690   5.214  0.0140 -0.2679  0.3597
   39CHL1  H21A 4045   6.172   6.676   5.317  0.3126  1.3019  0.4837
   39CHL1  H21B 4046   6.078   6.786   5.201 -0.3977 -0.5771 -0.2434
   39CHL1  H21C 4047   6.226   6.697   5.154  0.6155  1.0199  1.3851
   39CHL1   C22 4048   5.998   6.590   5.019 -0.2193  1.0010  0.0469
   39CHL1  H22A 4049   5.950   6.492   4.998  1.9942 -0.2271  0.4145
   39CHL1  H22B 4050   5.928   6.675   5.001 -2.6707 -0.8141  0.4075
   39CHL1   C23 4051   6.126   6.608   4.935  0.4209 -0.0191 -1.0380
   39CHL1  H23A 4052   6.164   6.712   4.950  2.9528 -1.2334  2.0147
   39CHL1  H23B 4053   6.188   6.539   4.995  0.4221  1.8437  1.2444
   39CHL1   C24 4054   6.117   6.577   4.787 -0.3406  0.7288  0.2710
   39CHL1  H24A 4055   6.101   6.468   4.780 -0.0397  0.6633  0.5534
   39CHL1  H24B 4056   6.029   6.619   4.735  0.3198  3.0510  0.8875
   39CHL1   C25 4057   6.244   6.601   4.711 -0.0318 -0.1803 -0.4798
   39CHL1   H25 4058   6.323   6.545   4.766  0.5257 -0.2497 -1.3201
   39CHL1   C26 4059   6.243   6.536   4.572  0.4119  0.1278 -0.0452
   39CHL1  H26A 4060   6.343   6.547   4.525  0.7643  0.0206  0.6664
   39CHL1  H26B 4061   6.222   6.427   4.578 -0.1155  0.2858  1.2528
   39CHL1  H26C 4062   6.168   6.583   4.505 -0.1769 -0.3841  0.2403
   39CHL1   C27 4063   6.280   6.753   4.700  0.2077 -0.4591  0.1091
   39CHL1  H27A 4064   6.376   6.772   4.647 -0.0631 -0.4374 -0.3789
   39CHL1  H27B 4065   6.213   6.812   4.635 -0.6604 -0.6591  0.8101
   39CHL1  H27C 4066   6.288   6.798   4.802 -1.9336 -0.6955  0.4232
   40CHL1    C3 4067   4.108   2.359   5.900  0.6552  0.1206  1.2913
   40CHL1    H3 4068   4.003   2.369   5.865  1.5227  2.4500 -1.0718
   40CHL1    O3 4069   4.122   2.428   6.025  1.0137 -0.3571  0.1044
   40CHL1   H3' 4070   4.213   2.415   6.051  0.8243  2.3442  2.6234
   40CHL1    C4 4071   4.147   2.212   5.924  0.7830 -1.3742  0.1655
   40CHL1   H4A 4072   4.248   2.213   5.970  0.3245  0.2866  1.2003
   40CHL1   H4B 4073   4.072   2.183   6.001 -0.0634 -1.4059 -0.6510
   40CHL1    C5 4074   4.152   2.122   5.810 -0.3253  1.1794  0.4483
   40CHL1    C6 4075   4.084   2.007   5.799  0.8380  0.2865 -0.7657
   40CHL1    H6 4076   4.026   1.974   5.887 -0.1657  0.9411 -1.1534
   40CHL1    C7 4077   4.083   1.912   5.682  0.1214 -0.1767 -0.5567
   40CHL1   H7A 4078   4.115   1.816   5.729 -1.7664 -0.0260  1.1503
   40CHL1   H7B 4079   3.985   1.894   5.634  0.3262  2.3802 -2.1014
   40CHL1    C8 4080   4.182   1.947   5.572  1.5067 -0.8174 -0.9229
   40CHL1    H8 4081   4.281   1.908   5.605  0.3571 -2.6405  0.5474
   40CHL1   C14 4082   4.149   1.885   5.433 -0.7983  0.7273  0.2871
   40CHL1   H14 4083   4.055   1.941   5.411 -0.5902  1.4338  1.1347
   40CHL1   C15 4084   4.120   1.735   5.445 -0.4031 -0.0222 -0.5473
   40CHL1  H15A 4085   4.198   1.681   5.503 -0.3892  1.0560  0.4651
   40CHL1  H15B 4086   4.021   1.726   5.494 -1.2790  2.5292 -1.7098
   40CHL1   C16 4087   4.125   1.690   5.302  0.4124  0.2992 -0.3625
   40CHL1  H16A 4088   4.193   1.603   5.289 -0.5671 -0.5506  0.0385
   40CHL1  H16B 4089   4.028   1.676   5.248  1.1949  0.5845 -1.8952
   40CHL1   C17 4090   4.190   1.809   5.229 -0.3468  0.3819  0.5495
   40CHL1   H17 4091   4.107   1.868   5.183 -0.1941  1.0825  1.1533
   40CHL1   C13 4092   4.250   1.907   5.322 -0.1909  0.3219  0.2834
   40CHL1   C18 4093   4.380   1.831   5.366 -0.0781 -0.2901  0.3997
   40CHL1  H18A 4094   4.396   1.857   5.473 -3.9782 -1.1826  1.3576
   40CHL1  H18B 4095   4.379   1.723   5.338  0.9097  0.1649 -1.5863
   40CHL1  H18C 4096   4.458   1.879   5.302  0.6480  0.1535  1.5874
   40CHL1   C12 4097   4.271   2.056   5.298 -0.7144  0.0915  0.3246
   40CHL1  H12A 4098   4.368   2.071   5.246 -0.3845  1.7431  1.3535
   40CHL1  H12B 4099   4.182   2.100   5.248  1.5780  1.4759 -2.9355
   40CHL1   C11 4100   4.296   2.130   5.432 -0.9792  0.4138  0.5757
   40CHL1  H11A 4101   4.398   2.094   5.458 -0.7309 -1.4358 -2.5625
   40CHL1  H11B 4102   4.299   2.241   5.420  3.0018  0.5510  1.2465
   40CHL1    C9 4103   4.197   2.097   5.550 -0.0254 -0.5012 -0.2945
   40CHL1    H9 4104   4.096   2.125   5.512  0.3466  0.4807 -0.6018
   40CHL1   C10 4105   4.222   2.183   5.683  0.6415 -0.0646 -0.0861
   40CHL1   C19 4106   4.373   2.161   5.712 -0.3047 -0.0492 -0.6832
   40CHL1  H19A 4107   4.447   2.189   5.634  1.5910  0.4888  1.2172
   40CHL1  H19B 4108   4.405   2.227   5.795  0.3288 -0.5250 -0.5403
   40CHL1  H19C 4109   4.393   2.059   5.753 -0.1285  0.0999 -0.3994
   40CHL1    C1 4110   4.197   2.335   5.666 -0.2638 -0.0615  0.2784
   40CHL1   H1A 4111   4.266   2.386   5.595  0.4836  0.5980  1.4393
   40CHL1   H1B 4112   4.096   2.353   5.624  1.3003  3.4994 -2.6135
   40CHL1    C2 4113   4.198   2.423   5.791  0.0333 -0.2066  0.2270
   40CHL1   H2A 4114   4.153   2.522   5.771 -0.5144 -0.7981 -1.6669
   40CHL1   H2B 4115   4.303   2.434   5.827  0.3711  1.4476 -1.1658
   40CHL1   C20 4116   4.268   1.755   5.102 -0.8805  0.5574 -0.5771
   40CHL1   H20 4117   4.377   1.750   5.124 -0.7057 -1.0769 -1.6453
   40CHL1   C21 4118   4.269   1.867   4.999 -0.3399 -0.6021  0.4924
   40CHL1  H21A 4119   4.350   1.847   4.926 -1.0756 -0.6621 -0.3318
   40CHL1  H21B 4120   4.287   1.966   5.047  0.6938 -0.5310 -0.0124
   40CHL1  H21C 4121   4.169   1.868   4.951 -0.0787 -1.2823 -0.0692
   40CHL1   C22 4122   4.218   1.621   5.044 -0.0596 -0.3719  0.3368
   40CHL1  H22A 4123   4.238   1.532   5.107  1.6762 -0.7422 -0.6812
   40CHL1  H22B 4124   4.108   1.613   5.034 -0.1198  0.6081  0.0904
   40CHL1   C23 4125   4.276   1.606   4.898 -0.2784  0.3905 -0.0731
   40CHL1  H23A 4126   4.231   1.685   4.834  1.0957  1.0304 -0.2851
   40CHL1  H23B 4127   4.386   1.622   4.903  0.0875 -0.7755 -2.7965
   40CHL1   C24 4128   4.224   1.473   4.846  0.6832 -0.3169 -0.7992
   40CHL1  H24A 4129   4.231   1.391   4.920 -2.5531 -0.2407 -0.3032
   40CHL1  H24B 4130   4.114   1.473   4.829  0.3034  0.6205  1.4057
   40CHL1   C25 4131   4.300   1.427   4.717 -0.1015 -0.1881  0.4240
   40CHL1   H25 4132   4.402   1.406   4.756  0.3642 -0.5710 -0.9297
   40CHL1   C26 4133   4.237   1.297   4.674  0.0328 -0.1618  0.4040
   40CHL1  H26A 4134   4.130   1.300   4.643  1.1036  0.7515 -3.8692
   40CHL1  H26B 4135   4.282   1.264   4.578 -1.7963  0.8256 -0.8582
   40CHL1  H26C 4136   4.254   1.220   4.753 -2.0167 -0.8920  0.1878
   40CHL1   C27 4137   4.307   1.521   4.593  0.7505 -0.0999 -0.1135
   40CHL1  H27A 4138   4.205   1.535   4.552  0.3410 -1.3640  0.4302
   40CHL1  H27B 4139   4.363   1.617   4.595 -0.2623  0.5080 -0.4426
   40CHL1  H27C 4140   4.367   1.461   4.522  1.3303 -2.4723  2.2283
   41CHL1    C3 4141   1.464   3.068   5.908  0.2802 -0.4769 -0.1961
   41CHL1    H3 4142   1.520   3.093   5.816  0.4694 -1.6506 -0.4167
   41CHL1    O3 4143   1.554   3.067   6.019 -0.2797 -0.4422  0.0517
   41CHL1   H3' 4144   1.503   3.042   6.096  0.8823  1.1866  1.4262
   41CHL1    C4 4145   1.349   3.172   5.934 -0.3689  0.8733 -0.1959
   41CHL1   H4A 4146   1.291   3.141   6.023  1.4016  0.5578  0.8898
   41CHL1   H4B 4147   1.393   3.273   5.950 -0.5663  0.5981  2.4392
   41CHL1    C5 4148   1.265   3.175   5.811 -1.1026 -0.0772  0.1365
   41CHL1    C6 4149   1.251   3.292   5.735 -0.8407 -0.4110 -0.0065
   41CHL1    H6 4150   1.299   3.387   5.761 -0.1123 -1.2847  2.0981
   41CHL1    C7 4151   1.164   3.294   5.612 -0.1283 -0.5351  0.2670
   41CHL1   H7A 4152   1.106   3.389   5.610 -2.1949 -1.7450 -1.5056
   41CHL1   H7B 4153   1.229   3.277   5.524 -1.3198 -0.7497 -0.6038
   41CHL1    C8 4154   1.061   3.180   5.612 -0.7572  0.2391 -1.0166
   41CHL1    H8 4155   0.998   3.188   5.703  1.7067 -1.3334  0.9723
   41CHL1   C14 4156   0.974   3.185   5.489  0.6121 -0.0990  0.9032
   41CHL1   H14 4157   1.048   3.177   5.406 -1.3329 -1.3375 -0.7982
   41CHL1   C15 4158   0.901   3.314   5.450 -0.9917  0.8799 -0.0873
   41CHL1  H15A 4159   0.841   3.366   5.528 -0.9009  0.9202 -0.0437
   41CHL1  H15B 4160   0.977   3.391   5.423  2.0691 -2.2478 -1.1035
   41CHL1   C16 4161   0.800   3.267   5.343 -0.5863 -0.4519 -0.0549
   41CHL1  H16A 4162   0.703   3.305   5.380 -0.2249 -1.2463  1.8223
   41CHL1  H16B 4163   0.836   3.323   5.254  0.2929 -0.5097  0.2504
   41CHL1   C17 4164   0.815   3.113   5.326 -0.1568  0.0155  0.2116
   41CHL1   H17 4165   0.892   3.089   5.250 -0.5403  1.4251 -0.6705
   41CHL1   C13 4166   0.871   3.070   5.463  0.4533 -0.4464 -0.4076
   41CHL1   C18 4167   0.760   3.072   5.568  0.8168 -0.3206 -0.4255
   41CHL1  H18A 4168   0.795   3.076   5.673 -2.1438  1.2097  0.6132
   41CHL1  H18B 4169   0.693   3.160   5.555  0.2727 -0.5962  0.4546
   41CHL1  H18C 4170   0.704   2.977   5.561 -1.1061  0.5545  1.9011
   41CHL1   C12 4171   0.950   2.936   5.458 -0.2363 -0.6468  0.0968
   41CHL1  H12A 4172   0.885   2.846   5.459  0.7235 -1.3560  2.0180
   41CHL1  H12B 4173   1.017   2.929   5.370 -0.8231 -1.0134 -0.3337
   41CHL1   C11 4174   1.034   2.928   5.591  0.0168  0.1131  0.0723
   41CHL1  H11A 4175   0.959   2.900   5.668  0.9710 -1.7395  0.3834
   41CHL1  H11B 4176   1.101   2.842   5.570 -0.8016 -0.2854 -0.9592
   41CHL1    C9 4177   1.132   3.042   5.627 -0.4426 -0.6401  0.3550
   41CHL1    H9 4178   1.209   3.041   5.546  0.1300  1.0288  0.8267
   41CHL1   C10 4179   1.201   3.039   5.768  0.4831 -0.2727  0.1838
   41CHL1   C19 4180   1.090   3.015   5.876  0.2212 -0.5322 -0.7500
   41CHL1  H19A 4181   1.043   2.914   5.870 -1.5759 -0.0486  2.6739
   41CHL1  H19B 4182   1.127   3.012   5.981  0.2349 -1.5150 -0.7700
   41CHL1  H19C 4183   1.006   3.087   5.868  0.7400  0.3653  1.2902
   41CHL1    C1 4184   1.306   2.925   5.772 -0.1511 -0.0302  0.2809
   41CHL1   H1A 4185   1.254   2.827   5.774 -0.0917 -0.1441 -1.7580
   41CHL1   H1B 4186   1.377   2.949   5.690  0.8747 -0.8317  0.9077
   41CHL1    C2 4187   1.405   2.930   5.894 -0.1234  0.1926  0.0404
   41CHL1   H2A 4188   1.489   2.858   5.879 -0.8180 -0.6838  0.2603
   41CHL1   H2B 4189   1.351   2.911   5.989  3.0738  0.2258  2.0139
   41CHL1   C20 4190   0.676   3.056   5.280 -0.6276 -0.2113  0.4115
   41CHL1   H20 4191   0.593   3.104   5.336 -0.0023  0.6711  0.6029
   41CHL1   C21 4192   0.664   2.907   5.279  0.0707  0.2938 -0.8427
   41CHL1  H21A 4193   0.663   2.869   5.384 -0.5626  0.3068 -0.8398
   41CHL1  H21B 4194   0.744   2.867   5.214 -0.3846 -0.0915 -1.1628
   41CHL1  H21C 4195   0.561   2.892   5.240  0.0942  0.2209 -0.8755
   41CHL1   C22 4196   0.643   3.114   5.139  0.8393  0.2594  1.0123
   41CHL1  H22A 4197   0.546   3.063   5.119  1.1820 -1.7465  3.9045
   41CHL1  H22B 4198   0.616   3.220   5.158 -1.5011  0.2914 -1.7808
   41CHL1   C23 4199   0.740   3.100   5.021 -0.2131  0.1660 -0.4982
   41CHL1  H23A 4200   0.833   3.156   5.046 -0.4881  0.5106 -0.2134
   41CHL1  H23B 4201   0.755   2.994   4.992 -1.0501 -0.4264  1.1095
   41CHL1   C24 4202   0.684   3.161   4.895 -0.1098  0.0325 -0.1922
   41CHL1  H24A 4203   0.594   3.099   4.872 -1.2451  1.3974  0.4062
   41CHL1  H24B 4204   0.645   3.264   4.910 -0.2225  0.0070 -0.2995
   41CHL1   C25 4205   0.779   3.169   4.777 -0.9475  0.0279  0.0713
   41CHL1   H25 4206   0.719   3.209   4.692 -2.0658 -1.6949  0.0106
   41CHL1   C26 4207   0.909   3.252   4.804  0.4832  0.0300  0.3556
   41CHL1  H26A 4208   0.968   3.196   4.880  0.4920 -0.8427 -0.2777
   41CHL1  H26B 4209   0.970   3.260   4.711 -0.2269 -0.9753 -0.2199
   41CHL1  H26C 4210   0.884   3.356   4.833  0.9880  0.2055  0.1674
   41CHL1   C27 4211   0.832   3.031   4.725 -0.2220  0.3175  0.2795
   41CHL1  H27A 4212   0.898   2.979   4.798  0.9200  2.5825  0.9577
   41CHL1  H27B 4213   0.753   2.961   4.691 -1.7385  1.2086  1.8180
   41CHL1  H27C 4214   0.898   3.038   4.636  1.0557  0.2402  1.1831
   42CHL1    C3 4215   6.597   3.860   6.201  0.1798  0.5906  0.0742
   42CHL1    H3 4216   6.638   3.763   6.167 -1.4883 -1.6472  3.7697
   42CHL1    O3 4217   6.631   3.845   6.338 -0.2313 -0.7235 -0.4617
   42CHL1   H3' 4218   6.721   3.873   6.350 -0.2464 -0.2235 -1.4354
   42CHL1    C4 4219   6.654   3.981   6.130  0.0907 -0.5924  0.1435
   42CHL1   H4A 4220   6.596   4.065   6.176  0.1654  0.5370 -1.7161
   42CHL1   H4B 4221   6.761   3.999   6.153 -0.3359  0.8350  1.2355
   42CHL1    C5 4222   6.625   3.979   5.981  0.1713 -0.4535 -0.3387
   42CHL1    C6 4223   6.718   3.996   5.881  0.5272  0.5446  0.0786
   42CHL1    H6 4224   6.824   4.005   5.907  0.3361  0.6538  0.8617
   42CHL1    C7 4225   6.693   4.002   5.733  0.1741 -0.0882 -0.6608
   42CHL1   H7A 4226   6.739   4.094   5.691 -0.4849  1.3421  1.5338
   42CHL1   H7B 4227   6.738   3.915   5.681 -0.0967  0.7156 -2.3064
   42CHL1    C8 4228   6.543   4.016   5.703 -0.3360  0.3964  0.4063
   42CHL1    H8 4229   6.506   4.117   5.732 -1.7126 -0.6297  2.5088
   42CHL1   C14 4230   6.513   3.976   5.559  0.4150 -0.0128  0.7376
   42CHL1   H14 4231   6.540   3.869   5.546 -1.4587 -0.4500  0.0909
   42CHL1   C15 4232   6.588   4.054   5.450 -0.1404 -0.1137 -1.0928
   42CHL1  H15A 4233   6.583   4.162   5.474 -0.0009 -0.3615  0.1497
   42CHL1  H15B 4234   6.694   4.024   5.438  0.0626  0.6374 -1.1867
   42CHL1   C16 4235   6.510   4.007   5.323  0.2868 -0.7184  0.1112
   42CHL1  H16A 4236   6.491   4.097   5.261  0.7931  0.2658  1.3527
   42CHL1  H16B 4237   6.572   3.939   5.260  0.8742  1.9064 -2.3620
   42CHL1   C17 4238   6.374   3.943   5.358 -0.2622  0.6140 -0.3983
   42CHL1   H17 4239   6.385   3.833   5.351 -3.0195  0.2328  0.1257
   42CHL1   C13 4240   6.366   3.980   5.507 -0.5018 -0.0916 -0.2402
   42CHL1   C18 4241   6.318   4.130   5.523  0.6661  0.4745 -0.0555
   42CHL1  H18A 4242   6.344   4.171   5.624  2.5594 -1.5435  0.3544
   42CHL1  H18B 4243   6.352   4.204   5.448  1.1059  0.1990 -0.1327
   42CHL1  H18C 4244   6.208   4.134   5.513  0.6904  2.6738  0.0172
   42CHL1   C12 4245   6.290   3.883   5.598  0.8161  0.5474 -0.5643
   42CHL1  H12A 4246   6.185   3.884   5.562  1.1070 -1.5473 -1.6985
   42CHL1  H12B 4247   6.341   3.787   5.571 -0.6406  0.2501 -2.4930
   42CHL1   C11 4248   6.308   3.919   5.746 -0.0463 -0.2683 -0.2536
   42CHL1  H11A 4249   6.264   4.020   5.754  2.5512  0.7973  1.8269
   42CHL1  H11B 4250   6.245   3.841   5.795  0.8839 -2.2387 -2.0320
   42CHL1    C9 4251   6.455   3.924   5.790 -0.0524 -0.5803  0.4038
   42CHL1    H9 4252   6.497   3.821   5.781  2.1618  0.2091  1.2428
   42CHL1   C10 4253   6.480   3.963   5.943  0.2040 -0.0457 -0.4429
   42CHL1   C19 4254   6.402   4.094   5.979  0.0989  0.2244 -0.8037
   42CHL1  H19A 4255   6.456   4.185   5.945 -0.4220 -0.2489 -3.0687
   42CHL1  H19B 4256   6.298   4.105   5.940  0.2048  0.9889 -0.8872
   42CHL1  H19C 4257   6.400   4.102   6.090 -1.2627 -2.6804 -0.5255
   42CHL1    C1 4258   6.423   3.841   6.031  0.3243  0.5567  1.1543
   42CHL1   H1A 4259   6.313   3.836   6.016  0.6318 -0.0209 -1.4073
   42CHL1   H1B 4260   6.462   3.750   5.981  0.6575  0.4766  1.5505
   42CHL1    C2 4261   6.446   3.847   6.181  0.6438  0.2234 -0.5429
   42CHL1   H2A 4262   6.399   3.756   6.224  1.0628  0.9538  1.5737
   42CHL1   H2B 4263   6.399   3.942   6.214 -0.4851  0.6483 -3.0806
   42CHL1   C20 4264   6.261   3.978   5.265 -0.2810  0.4494  0.5821
   42CHL1   H20 4265   6.241   4.087   5.277  2.4655  0.8926  1.8194
   42CHL1   C21 4266   6.128   3.906   5.299  0.2302 -0.5013 -0.1456
   42CHL1  H21A 4267   6.071   3.960   5.378 -0.1522 -0.3004 -0.5553
   42CHL1  H21B 4268   6.151   3.800   5.324 -0.3333 -0.3264  1.2361
   42CHL1  H21C 4269   6.067   3.912   5.207  0.6227 -0.5664 -0.4112
   42CHL1   C22 4270   6.295   3.965   5.113 -0.5255 -0.8011  1.0269
   42CHL1  H22A 4271   6.206   3.990   5.052  0.4561  0.0112 -0.1173
   42CHL1  H22B 4272   6.371   4.038   5.078 -0.4749 -1.3262  0.0137
   42CHL1   C23 4273   6.338   3.817   5.065 -0.1068 -0.4827 -0.6927
   42CHL1  H23A 4274   6.416   3.773   5.131  0.1340 -0.2630 -0.8300
   42CHL1  H23B 4275   6.248   3.752   5.078 -1.0734  1.2456  1.9847
   42CHL1   C24 4276   6.392   3.826   4.924  0.1559  0.1527 -0.0378
   42CHL1  H24A 4277   6.318   3.851   4.846  0.4235 -2.3863 -1.2126
   42CHL1  H24B 4278   6.475   3.899   4.930  0.1491  0.0919  1.1468
   42CHL1   C25 4279   6.437   3.688   4.872  0.8928 -0.7758 -0.9210
   42CHL1   H25 4280   6.497   3.648   4.957 -1.0201 -0.7866  0.4939
   42CHL1   C26 4281   6.323   3.582   4.845  0.2976  0.2388 -0.9972
   42CHL1  H26A 4282   6.262   3.607   4.755  0.2938 -0.1253 -1.0959
   42CHL1  H26B 4283   6.375   3.485   4.835 -0.1561 -0.0257 -0.8306
   42CHL1  H26C 4284   6.251   3.574   4.930  0.7067 -2.5692 -0.8128
   42CHL1   C27 4285   6.537   3.703   4.750  0.6664 -0.6107 -0.1010
   42CHL1  H27A 4286   6.589   3.605   4.741 -1.1283 -1.8545  1.9257
   42CHL1  H27B 4287   6.475   3.721   4.659 -0.1492  0.1798  0.6010
   42CHL1  H27C 4288   6.622   3.772   4.765 -0.6599  0.5111  3.0184
   43CHL1    C3 4289   3.195   0.049   6.125  0.7062 -0.1248  0.1132
   43CHL1    H3 4290   3.115   0.125   6.112 -0.0315 -1.3183 -3.6331
   43CHL1    O3 4291   3.231   0.042   6.264  0.0982 -0.1588 -0.1914
   43CHL1   H3' 4292   3.252   0.133   6.288 -2.3308  0.7598 -1.2343
   43CHL1    C4 4293   3.149  -0.092   6.070  0.0963 -0.2605 -1.1002
   43CHL1   H4A 4294   3.235  -0.159   6.092  0.7606  0.8581 -0.1301
   43CHL1   H4B 4295   3.062  -0.134   6.125 -0.1293  0.1929 -1.1003
   43CHL1    C5 4296   3.124  -0.102   5.924  0.4422  0.0275  0.0884
   43CHL1    C6 4297   3.007  -0.161   5.880  0.7556 -0.3049  0.6060
   43CHL1    H6 4298   2.933  -0.205   5.948 -0.2253  0.0463 -0.1971
   43CHL1    C7 4299   2.965  -0.166   5.734  0.5627  0.3876 -0.1705
   43CHL1   H7A 4300   2.929  -0.266   5.701 -0.8154  0.9003 -0.2886
   43CHL1   H7B 4301   2.881  -0.094   5.724  2.5117  2.4419 -3.3873
   43CHL1    C8 4302   3.080  -0.128   5.643 -0.4121 -0.9844 -0.2345
   43CHL1    H8 4303   3.143  -0.219   5.631 -3.0197 -3.1014  1.0033
   43CHL1   C14 4304   3.026  -0.095   5.505 -0.1677 -0.0103 -0.1415
   43CHL1   H14 4305   2.961  -0.005   5.517  0.2651  0.1292  1.5062
   43CHL1   C15 4306   2.935  -0.206   5.442 -0.2729  0.4245  0.0356
   43CHL1  H15A 4307   2.974  -0.309   5.458 -2.6262 -0.1095  3.3023
   43CHL1  H15B 4308   2.835  -0.189   5.487 -0.5212 -1.7105  0.4009
   43CHL1   C16 4309   2.938  -0.166   5.297 -0.0162 -0.7603  0.7828
   43CHL1  H16A 4310   2.987  -0.257   5.256  1.7505  0.7337 -0.5740
   43CHL1  H16B 4311   2.840  -0.151   5.247  0.1867 -0.1358  0.5668
   43CHL1   C17 4312   3.048  -0.061   5.276 -0.5096 -0.8006 -0.9019
   43CHL1   H17 4313   2.989   0.033   5.282 -0.7102 -1.0055  1.5721
   43CHL1   C13 4314   3.136  -0.068   5.406  0.1667  0.7342  0.4884
   43CHL1   C18 4315   3.230  -0.192   5.394 -0.2872 -0.6175  0.7587
   43CHL1  H18A 4316   3.292  -0.179   5.303  0.4099  2.4147  1.5364
   43CHL1  H18B 4317   3.304  -0.198   5.476  1.8181  1.1886 -0.8957
   43CHL1  H18C 4318   3.175  -0.286   5.375 -1.2037  0.0015  0.2759
   43CHL1   C12 4319   3.213   0.062   5.446  0.1585  1.3863 -0.1616
   43CHL1  H12A 4320   3.297   0.085   5.377 -1.8996  2.6780 -2.3931
   43CHL1  H12B 4321   3.135   0.142   5.447  0.1867  1.4525  2.2592
   43CHL1   C11 4322   3.267   0.049   5.591  0.3577 -0.3511  0.6844
   43CHL1  H11A 4323   3.360  -0.012   5.581 -0.3736 -1.1811 -2.1655
   43CHL1  H11B 4324   3.288   0.154   5.619  1.5948  0.0913 -1.6340
   43CHL1    C9 4325   3.162  -0.008   5.696 -0.2702 -0.1231  0.1938
   43CHL1    H9 4326   3.088   0.075   5.704  0.4765  0.3867  3.1407
   43CHL1   C10 4327   3.230  -0.033   5.836  0.2425 -0.1208  1.1923
   43CHL1   C19 4328   3.345  -0.133   5.814 -0.4780 -0.4388  0.7292
   43CHL1  H19A 4329   3.435  -0.071   5.795 -2.3622  2.3607  0.4669
   43CHL1  H19B 4330   3.363  -0.183   5.912 -0.2653 -0.3088  0.7556
   43CHL1  H19C 4331   3.318  -0.205   5.733 -1.7221  1.2455 -0.4008
   43CHL1    C1 4332   3.280   0.096   5.904 -0.0113  0.9502 -0.7148
   43CHL1   H1A 4333   3.372   0.128   5.851  1.2986 -0.0440  0.8720
   43CHL1   H1B 4334   3.197   0.170   5.901 -1.3686 -0.4053  1.1611
   43CHL1    C2 4335   3.320   0.086   6.050  0.1359  0.5821  0.3745
   43CHL1   H2A 4336   3.356   0.188   6.075 -1.5134  1.1277  0.6243
   43CHL1   H2B 4337   3.395   0.009   6.080 -0.9361 -0.2344  1.0142
   43CHL1   C20 4338   3.114  -0.077   5.131 -0.3107 -0.3220 -0.3288
   43CHL1   H20 4339   3.176  -0.169   5.127  0.1277 -0.0027 -2.6922
   43CHL1   C21 4340   3.204   0.044   5.111 -0.7742 -0.2146 -0.1514
   43CHL1  H21A 4341   3.279   0.026   5.030  2.7566 -1.3858  3.0801
   43CHL1  H21B 4342   3.273   0.059   5.197 -1.1332  0.6641 -0.0157
   43CHL1  H21C 4343   3.147   0.139   5.107 -2.0463 -0.6733  3.4133
   43CHL1   C22 4344   3.007  -0.086   5.015  0.4340  0.2286 -0.0437
   43CHL1  H22A 4345   2.933  -0.167   5.034 -0.3599  1.2731  1.6457
   43CHL1  H22B 4346   2.954   0.012   5.021 -1.4589 -0.6143 -1.8223
   43CHL1   C23 4347   3.066  -0.103   4.880 -0.2682  0.2939 -0.2886
   43CHL1  H23A 4348   3.118  -0.013   4.841  0.2778  0.6971  1.3152
   43CHL1  H23B 4349   3.132  -0.193   4.874 -0.8438 -0.3414  1.9971
   43CHL1   C24 4350   2.944  -0.120   4.787  0.0147 -0.4676 -0.7238
   43CHL1  H24A 4351   2.890  -0.209   4.824  1.6587 -1.0036  0.4632
   43CHL1  H24B 4352   2.887  -0.026   4.805  1.9474  0.2766  2.1650
   43CHL1   C25 4353   2.991  -0.140   4.640  0.3291 -0.1546 -0.4588
   43CHL1   H25 4354   3.064  -0.057   4.624 -0.5728  0.7339 -0.0322
   43CHL1   C26 4355   3.073  -0.269   4.614 -0.5237 -0.8928  0.7280
   43CHL1  H26A 4356   3.155  -0.291   4.686 -0.9459 -1.0624  1.1610
   43CHL1  H26B 4357   3.005  -0.355   4.602 -1.4316  0.0730 -1.4820
   43CHL1  H26C 4358   3.118  -0.249   4.514 -5.0200  2.1144 -0.9855
   43CHL1   C27 4359   2.879  -0.121   4.535 -0.1187  0.3511  0.6764
   43CHL1  H27A 4360   2.800  -0.053   4.573 -0.1605  0.4208  0.4659
   43CHL1  H27B 4361   2.916  -0.074   4.441 -1.2376  0.8839  0.4832
   43CHL1  H27C 4362   2.836  -0.218   4.502 -1.5785  1.5280 -1.0587
   44CHL1    C3 4363   2.860   0.863   5.908  0.4899 -0.7821 -0.1435
   44CHL1    H3 4364   2.889   0.970   5.898 -0.5759 -0.5123 -0.4795
   44CHL1    O3 4365   2.880   0.809   6.038 -0.8137 -0.4530  0.1871
   44CHL1   H3' 4366   2.860   0.715   6.036 -0.7990 -0.4844  0.9880
   44CHL1    C4 4367   2.710   0.828   5.873  0.1876 -0.1651 -1.1387
   44CHL1   H4A 4368   2.691   0.720   5.893 -1.1411 -0.1666 -2.2366
   44CHL1   H4B 4369   2.649   0.874   5.953  1.3297  1.1786 -1.0194
   44CHL1    C5 4370   2.672   0.858   5.730 -0.5813 -0.0416  0.4500
   44CHL1    C6 4371   2.559   0.928   5.696 -0.6127 -0.0222 -1.4722
   44CHL1    H6 4372   2.495   0.965   5.777 -0.1443 -0.0092 -1.1033
   44CHL1    C7 4373   2.533   0.955   5.552 -0.1434  0.9580 -0.0195
   44CHL1   H7A 4374   2.423   0.941   5.540  0.3053 -2.2900 -1.1432
   44CHL1   H7B 4375   2.560   1.061   5.531 -3.2428  1.8288 -0.0819
   44CHL1    C8 4376   2.605   0.864   5.450  0.1084 -0.1702 -0.0831
   44CHL1    H8 4377   2.559   0.763   5.458 -0.0969 -0.2161 -1.5940
   44CHL1   C14 4378   2.586   0.912   5.304 -0.1302 -0.6525  0.4625
   44CHL1   H14 4379   2.632   1.013   5.292  1.2234 -1.1681  1.1383
   44CHL1   C15 4380   2.447   0.951   5.247 -0.3744  0.8715 -0.2438
   44CHL1  H15A 4381   2.372   0.869   5.261  0.1448  0.2931 -0.7809
   44CHL1  H15B 4382   2.412   1.047   5.290 -2.6615  0.1121 -0.2149
   44CHL1   C16 4383   2.466   0.952   5.096  0.2451  0.1244 -0.4240
   44CHL1  H16A 4384   2.397   0.883   5.043 -0.4854  0.2816  0.3145
   44CHL1  H16B 4385   2.464   1.051   5.046  2.7074  0.6903  0.4303
   44CHL1   C17 4386   2.617   0.901   5.068  0.1898  0.0328 -0.1305
   44CHL1   H17 4387   2.680   0.992   5.053 -0.9143  0.8729  0.2386
   44CHL1   C13 4388   2.657   0.832   5.199 -0.2599 -0.1745  0.2989
   44CHL1   C18 4389   2.590   0.693   5.199 -0.5670 -0.3894  0.3942
   44CHL1  H18A 4390   2.645   0.629   5.127  2.8671  1.0842  1.4957
   44CHL1  H18B 4391   2.617   0.642   5.294  0.3293 -0.3825  0.1489
   44CHL1  H18C 4392   2.486   0.691   5.160 -0.1780  0.3441 -0.7231
   44CHL1   C12 4393   2.802   0.834   5.228 -0.4093 -0.1529 -0.2824
   44CHL1  H12A 4394   2.854   0.761   5.162  0.7813 -0.4392  0.9349
   44CHL1  H12B 4395   2.845   0.934   5.206  0.3518 -0.7933 -1.9398
   44CHL1   C11 4396   2.838   0.797   5.376 -0.3616  0.0657  0.0484
   44CHL1  H11A 4397   2.833   0.686   5.376  1.3059 -0.0330 -0.0163
   44CHL1  H11B 4398   2.943   0.827   5.397 -0.7699  0.4242  1.7333
   44CHL1    C9 4399   2.754   0.860   5.485  0.5950 -0.5319 -0.0373
   44CHL1    H9 4400   2.792   0.964   5.496  1.0779 -0.7721  0.6093
   44CHL1   C10 4401   2.768   0.796   5.623  0.2540 -0.1407  0.4100
   44CHL1   C19 4402   2.738   0.643   5.616  0.8222 -0.2720 -0.2293
   44CHL1  H19A 4403   2.748   0.600   5.719 -0.2651  0.8381  0.3578
   44CHL1  H19B 4404   2.636   0.619   5.579  1.0800 -0.6213 -0.7264
   44CHL1  H19C 4405   2.821   0.591   5.563  2.3702 -0.1954  1.9301
   44CHL1    C1 4406   2.914   0.808   5.664 -0.3492 -0.0274  0.2957
   44CHL1   H1A 4407   2.984   0.748   5.602  1.7806  1.5792  1.0262
   44CHL1   H1B 4408   2.943   0.912   5.640 -2.2250  0.3953 -0.3423
   44CHL1    C2 4409   2.953   0.789   5.812 -0.2854 -0.6522  0.1960
   44CHL1   H2A 4410   3.051   0.835   5.834 -0.5276  0.7053 -1.4133
   44CHL1   H2B 4411   2.943   0.681   5.837 -0.8042 -0.2401  1.9159
   44CHL1   C20 4412   2.622   0.830   4.929  0.1770  0.0191 -0.0176
   44CHL1   H20 4413   2.550   0.746   4.925  0.0088  0.1664 -0.0626
   44CHL1   C21 4414   2.758   0.767   4.894 -0.2459  0.2149 -0.1702
   44CHL1  H21A 4415   2.842   0.840   4.893 -0.7160  0.7704  0.1026
   44CHL1  H21B 4416   2.757   0.719   4.795 -1.1488  4.0999 -2.2494
   44CHL1  H21C 4417   2.786   0.694   4.973  0.5590  0.6101 -0.0731
   44CHL1   C22 4418   2.565   0.921   4.819 -0.6813  0.2629  0.1129
   44CHL1  H22A 4419   2.570   0.853   4.731 -0.2879  0.2830  0.1155
   44CHL1  H22B 4420   2.460   0.952   4.833 -0.5410  1.1254 -0.7333
   44CHL1   C23 4421   2.653   1.046   4.793  0.3164  0.1019 -0.3328
   44CHL1  H23A 4422   2.626   1.123   4.868  0.0084 -0.0816 -0.2535
   44CHL1  H23B 4423   2.761   1.024   4.805  0.5747  2.0498  1.5297
   44CHL1   C24 4424   2.629   1.097   4.646  0.2853 -0.3977  0.4563
   44CHL1  H24A 4425   2.633   1.017   4.568  3.8611  2.0259 -2.1889
   44CHL1  H24B 4426   2.524   1.132   4.641  0.5124  0.1302 -1.4600
   44CHL1   C25 4427   2.720   1.215   4.626  0.0686  0.6898  0.0772
   44CHL1   H25 4428   2.714   1.269   4.723  0.0468 -1.2865  1.2209
   44CHL1   C26 4429   2.866   1.173   4.599  0.4202 -0.0114  0.5828
   44CHL1  H26A 4430   2.876   1.108   4.510 -0.5101  1.4775 -0.6693
   44CHL1  H26B 4431   2.933   1.260   4.583 -0.8347  0.5484 -2.2643
   44CHL1  H26C 4432   2.906   1.115   4.684 -1.1900 -2.3767 -0.1950
   44CHL1   C27 4433   2.669   1.305   4.511  0.1297 -0.4918 -0.3053
   44CHL1  H27A 4434   2.573   1.346   4.548  2.3224  2.5826  2.7252
   44CHL1  H27B 4435   2.734   1.395   4.501  0.0081 -0.5115 -1.3841
   44CHL1  H27C 4436   2.654   1.256   4.412 -0.3266  0.2716 -0.6190
   45CHL1    C3 4437   1.497   6.768   6.083 -0.1303 -0.0783 -0.1937
   45CHL1    H3 4438   1.571   6.693   6.047  1.2287  1.3612 -0.4939
   45CHL1    O3 4439   1.444   6.729   6.209 -0.1723  0.0717  0.0237
   45CHL1   H3' 4440   1.364   6.776   6.236 -1.6286 -2.2414  0.0561
   45CHL1    C4 4441   1.570   6.904   6.090 -0.5271 -0.3578 -1.3624
   45CHL1   H4A 4442   1.507   6.977   6.145  1.9087  1.0331 -0.2667
   45CHL1   H4B 4443   1.660   6.889   6.154 -0.0016 -3.0566 -2.5794
   45CHL1    C5 4444   1.609   6.980   5.967 -0.0473  0.4899  0.4223
   45CHL1    C6 4445   1.733   7.031   5.943 -0.5133  0.2750  0.6585
   45CHL1    H6 4446   1.814   7.003   6.012 -2.0032 -3.5934  1.1445
   45CHL1    C7 4447   1.756   7.122   5.829  0.3010 -0.3203  0.1085
   45CHL1   H7A 4448   1.809   7.217   5.850  0.5957 -0.4049 -0.2426
   45CHL1   H7B 4449   1.817   7.068   5.754 -0.1438  0.2961 -0.7173
   45CHL1    C8 4450   1.632   7.170   5.753  0.1029  0.3364  0.7944
   45CHL1    H8 4451   1.584   7.248   5.816  1.3143  1.1107  0.8043
   45CHL1   C14 4452   1.670   7.240   5.621 -0.3246  0.0746  0.5863
   45CHL1   H14 4453   1.732   7.167   5.564  1.2060  1.0845  0.8714
   45CHL1   C15 4454   1.767   7.358   5.627  0.3199 -0.2560 -0.8435
   45CHL1  H15A 4455   1.725   7.413   5.714 -0.8728  1.4995 -2.4545
   45CHL1  H15B 4456   1.875   7.334   5.640  0.0090 -1.0877  0.4065
   45CHL1   C16 4457   1.740   7.443   5.498 -0.6067  0.0383 -0.5263
   45CHL1  H16A 4458   1.700   7.539   5.537 -0.5088 -0.7818  1.7207
   45CHL1  H16B 4459   1.837   7.462   5.447 -0.0328  0.2939  0.6231
   45CHL1   C17 4460   1.637   7.361   5.421 -0.0029  0.0601  0.0004
   45CHL1   H17 4461   1.694   7.290   5.357 -0.6177 -0.1917 -0.2764
   45CHL1   C13 4462   1.556   7.278   5.529 -0.1203 -0.5648 -0.3575
   45CHL1   C18 4463   1.458   7.382   5.601  0.1830  0.4125 -1.0290
   45CHL1  H18A 4464   1.361   7.397   5.549 -1.3581  2.2851  2.0172
   45CHL1  H18B 4465   1.438   7.353   5.707 -1.2713  1.0182 -1.1069
   45CHL1  H18C 4466   1.507   7.481   5.595 -1.2521  1.2418  0.1240
   45CHL1   C12 4467   1.483   7.145   5.498 -0.0259 -0.0367  0.0927
   45CHL1  H12A 4468   1.402   7.166   5.424  2.0353 -0.7926 -2.5515
   45CHL1  H12B 4469   1.554   7.074   5.452 -0.0823 -0.4279  0.6077
   45CHL1   C11 4470   1.425   7.069   5.624 -0.7199 -0.5945  0.2531
   45CHL1  H11A 4471   1.338   7.133   5.650 -0.6687 -0.7014  0.6888
   45CHL1  H11B 4472   1.380   6.972   5.595 -1.1226 -0.2370 -0.3364
   45CHL1    C9 4473   1.533   7.053   5.734 -0.6800 -0.1052 -0.2217
   45CHL1    H9 4474   1.604   6.975   5.699 -0.0225 -0.1313  1.1123
   45CHL1   C10 4475   1.481   6.999   5.870  0.2236 -0.0564  0.3008
   45CHL1   C19 4476   1.369   7.091   5.937  0.3959  0.3247 -0.0606
   45CHL1  H19A 4477   1.282   7.083   5.868  0.0599  0.8403  0.2909
   45CHL1  H19B 4478   1.347   7.057   6.041  0.8288  1.7401  0.5121
   45CHL1  H19C 4479   1.406   7.195   5.949 -0.1617  0.2467  3.7008
   45CHL1    C1 4480   1.428   6.857   5.847  0.1894 -0.1146 -0.9806
   45CHL1   H1A 4481   1.345   6.862   5.773 -1.4706  0.0137  0.7895
   45CHL1   H1B 4482   1.507   6.796   5.799  0.7424  0.3388 -0.6610
   45CHL1    C2 4483   1.379   6.793   5.978  0.2477 -0.0953 -0.2219
   45CHL1   H2A 4484   1.349   6.691   5.947  1.3827 -0.1928 -1.0857
   45CHL1   H2B 4485   1.292   6.848   6.017 -0.4311 -0.1056 -1.6531
   45CHL1   C20 4486   1.555   7.448   5.318  0.6693 -0.4748  0.2082
   45CHL1   H20 4487   1.495   7.520   5.378  1.6000  1.2203 -0.8018
   45CHL1   C21 4488   1.477   7.360   5.219  0.4789 -0.1775  0.3414
   45CHL1  H21A 4489   1.440   7.416   5.131  1.2353 -1.8613 -1.1215
   45CHL1  H21B 4490   1.399   7.305   5.277  0.8257  1.6269  2.6829
   45CHL1  H21C 4491   1.555   7.291   5.180 -0.7006 -1.4488  0.1770
   45CHL1   C22 4492   1.638   7.546   5.223 -0.0715  0.2925 -0.7984
   45CHL1  H22A 4493   1.557   7.604   5.174 -0.9752  1.3462  1.7311
   45CHL1  H22B 4494   1.698   7.611   5.291  3.4378 -1.3306 -2.1022
   45CHL1   C23 4495   1.725   7.483   5.116 -0.3019 -0.0979  0.3807
   45CHL1  H23A 4496   1.803   7.422   5.165  0.0366 -0.7844 -0.9841
   45CHL1  H23B 4497   1.672   7.423   5.039  2.0588 -1.7319 -0.0680
   45CHL1   C24 4498   1.807   7.582   5.041 -0.2140 -0.1150  0.2917
   45CHL1  H24A 4499   1.747   7.663   4.994 -0.5083 -1.1830 -1.2301
   45CHL1  H24B 4500   1.886   7.625   5.106 -1.9192  1.3893  1.4597
   45CHL1   C25 4501   1.882   7.511   4.924  0.1530 -1.0092  0.1654
   45CHL1   H25 4502   1.931   7.423   4.971  0.1774 -0.1605  1.7921
   45CHL1   C26 4503   1.791   7.476   4.805 -0.3942  0.0359  0.0762
   45CHL1  H26A 4504   1.742   7.558   4.749 -1.3893 -2.0834 -2.3556
   45CHL1  H26B 4505   1.847   7.413   4.733 -1.3754 -0.2374 -0.4609
   45CHL1  H26C 4506   1.708   7.410   4.839 -1.9732 -0.3990 -4.0542
   45CHL1   C27 4507   1.990   7.596   4.859  0.0140 -0.3275 -0.2795
   45CHL1  H27A 4508   1.942   7.685   4.813  0.9678 -0.6896 -2.0643
   45CHL1  H27B 4509   2.078   7.622   4.922  0.1496  0.7077 -0.8890
   45CHL1  H27C 4510   2.027   7.534   4.775  1.6236 -0.4576  0.4950
   46CHL1    C3 4511   4.316   4.349   6.392 -0.2186 -0.2709 -0.5843
   46CHL1    H3 4512   4.373   4.442   6.371 -0.8958  0.5507  1.0607
   46CHL1    O3 4513   4.328   4.331   6.531 -0.0965  0.0086  0.0376
   46CHL1   H3' 4514   4.247   4.365   6.570 -0.5950 -1.1164  0.0352
   46CHL1    C4 4515   4.176   4.360   6.347 -0.1844 -0.4375 -0.3232
   46CHL1   H4A 4516   4.119   4.274   6.386  0.8461 -1.7058 -1.5373
   46CHL1   H4B 4517   4.130   4.446   6.401 -2.0115 -0.0214 -2.3828
   46CHL1    C5 4518   4.156   4.359   6.200  0.8617 -1.0761 -0.2047
   46CHL1    C6 4519   4.084   4.464   6.138 -0.1421  0.5948 -0.7144
   46CHL1    H6 4520   4.050   4.544   6.205 -1.8686 -1.0036  0.4240
   46CHL1    C7 4521   4.054   4.476   5.993  0.3562  0.3576 -0.2112
   46CHL1   H7A 4522   3.947   4.500   5.977  0.2688  0.6360  0.7542
   46CHL1   H7B 4523   4.112   4.562   5.952  0.0362  0.8323  0.3259
   46CHL1    C8 4524   4.101   4.348   5.916 -0.5706 -0.2973 -0.2203
   46CHL1    H8 4525   4.017   4.276   5.915 -0.7310 -0.2193  2.0697
   46CHL1   C14 4526   4.110   4.390   5.770  0.0911  0.2055  0.4069
   46CHL1   H14 4527   4.186   4.471   5.771 -1.1512  1.4408  2.0293
   46CHL1   C15 4528   3.996   4.471   5.703  0.2636  0.0383  0.6355
   46CHL1  H15A 4529   3.904   4.408   5.700 -0.4079  1.0323 -0.3228
   46CHL1  H15B 4530   3.983   4.574   5.744 -1.0015  1.3707 -2.7689
   46CHL1   C16 4531   4.030   4.478   5.558 -0.8720  0.1822  0.3384
   46CHL1  H16A 4532   3.954   4.459   5.479 -0.7888  2.9842 -0.5174
   46CHL1  H16B 4533   4.065   4.579   5.529 -1.8544  0.4300 -0.0390
   46CHL1   C17 4534   4.158   4.379   5.535  0.2775 -0.9129 -0.3734
   46CHL1   H17 4535   4.248   4.441   5.559 -2.2068  3.3596 -1.0236
   46CHL1   C13 4536   4.155   4.290   5.666 -0.1277  1.2281 -0.1435
   46CHL1   C18 4537   4.049   4.175   5.657  0.2811 -0.9682  0.0096
   46CHL1  H18A 4538   4.036   4.129   5.758 -2.4314 -0.7827 -0.1824
   46CHL1  H18B 4539   3.952   4.206   5.614  1.0495 -0.0885 -1.1476
   46CHL1  H18C 4540   4.102   4.104   5.590  2.0730  0.3609 -0.0680
   46CHL1   C12 4541   4.284   4.233   5.716  0.0763 -0.2928 -0.1737
   46CHL1  H12A 4542   4.314   4.143   5.659  0.2837 -0.6355  0.4674
   46CHL1  H12B 4543   4.368   4.306   5.712 -1.7510  2.0299  1.3113
   46CHL1   C11 4544   4.277   4.193   5.860  0.2302 -0.0801 -0.3473
   46CHL1  H11A 4545   4.218   4.099   5.868 -0.6867  0.5836  1.0255
   46CHL1  H11B 4546   4.378   4.157   5.889  1.8013  1.4960 -3.3912
   46CHL1    C9 4547   4.230   4.300   5.964 -0.9090 -0.6942  0.1927
   46CHL1    H9 4548   4.311   4.376   5.957 -2.7863  1.7541  2.9194
   46CHL1   C10 4549   4.232   4.258   6.116  0.1676  0.2449  0.4682
   46CHL1   C19 4550   4.161   4.121   6.129 -0.3531 -0.5503 -0.0789
   46CHL1  H19A 4551   4.223   4.035   6.096 -1.9204 -1.8980  0.3405
   46CHL1  H19B 4552   4.137   4.088   6.233 -0.3270  0.4781  0.2681
   46CHL1  H19C 4553   4.060   4.124   6.083  0.3157 -0.1996 -1.5806
   46CHL1    C1 4554   4.375   4.242   6.170 -0.5142  0.2998  1.0304
   46CHL1   H1A 4555   4.428   4.153   6.130  1.5985  2.3395 -1.0025
   46CHL1   H1B 4556   4.431   4.329   6.132  1.3453  0.0700  3.0196
   46CHL1    C2 4557   4.384   4.231   6.320 -0.5290 -0.3496  0.0533
   46CHL1   H2A 4558   4.492   4.227   6.346 -0.3198  3.8839  0.5650
   46CHL1   H2B 4559   4.340   4.133   6.347  2.0984 -1.3264  1.2289
   46CHL1   C20 4560   4.175   4.322   5.397 -0.0233  0.0995  0.2197
   46CHL1   H20 4561   4.090   4.261   5.359  0.3918  0.3281 -1.1467
   46CHL1   C21 4562   4.299   4.233   5.385  0.1350 -0.6853 -0.5154
   46CHL1  H21A 4563   4.276   4.175   5.293 -1.2451 -2.4210  0.8788
   46CHL1  H21B 4564   4.302   4.158   5.466  0.3804  1.8327  1.9768
   46CHL1  H21C 4565   4.399   4.283   5.390 -1.1297  2.0036 -0.2288
   46CHL1   C22 4566   4.184   4.435   5.287  0.9396  0.2357 -0.5777
   46CHL1  H22A 4567   4.091   4.494   5.290  2.3167  2.5555 -1.2595
   46CHL1  H22B 4568   4.263   4.509   5.311 -0.5370  1.6323  0.1851
   46CHL1   C23 4569   4.201   4.390   5.140  0.5734 -1.0373  0.3578
   46CHL1  H23A 4570   4.298   4.340   5.125 -0.8215 -2.8475 -4.5523
   46CHL1  H23B 4571   4.120   4.314   5.129  0.9251 -1.2118 -1.2535
   46CHL1   C24 4572   4.160   4.497   5.035 -0.0529  0.3338  0.4832
   46CHL1  H24A 4573   4.052   4.514   5.059 -0.1257 -0.9363  1.1163
   46CHL1  H24B 4574   4.213   4.593   5.055 -0.1784  0.3767  0.6148
   46CHL1   C25 4575   4.194   4.443   4.889  0.8785 -0.7297 -0.6029
   46CHL1   H25 4576   4.150   4.342   4.902 -0.1967 -0.1516  0.4804
   46CHL1   C26 4577   4.117   4.528   4.782 -0.5535  0.1691  0.2556
   46CHL1  H26A 4578   4.130   4.497   4.676 -1.0531  4.0545 -1.1312
   46CHL1  H26B 4579   4.009   4.519   4.808 -0.6460  3.2273  1.3607
   46CHL1  H26C 4580   4.136   4.637   4.793  1.2030 -0.3275  3.1142
   46CHL1   C27 4581   4.339   4.440   4.877  0.3965 -0.1364 -0.5946
   46CHL1  H27A 4582   4.382   4.535   4.915 -1.1760  0.1215  0.6288
   46CHL1  H27B 4583   4.390   4.354   4.926  0.8699 -0.3464 -1.4337
   46CHL1  H27C 4584   4.358   4.424   4.768  1.1196  3.1445 -1.0493
   47CHL1    C3 4585   3.759   2.942   6.055  0.6654  0.0112 -0.4187
   47CHL1    H3 4586   3.729   2.854   6.115 -1.1486  0.4920 -0.5743
   47CHL1    O3 4587   3.799   3.040   6.152 -1.0510  0.3020  0.6026
   47CHL1   H3' 4588   3.882   3.000   6.179 -1.4160 -1.6110 -0.8869
   47CHL1    C4 4589   3.872   2.887   5.963 -0.0653 -0.2619  0.7446
   47CHL1   H4A 4590   3.912   2.976   5.910 -0.2699 -1.2139 -1.0691
   47CHL1   H4B 4591   3.955   2.845   6.024 -0.2493  0.7358  1.7251
   47CHL1    C5 4592   3.824   2.788   5.856 -0.0244 -0.4605  0.3630
   47CHL1    C6 4593   3.894   2.673   5.829  0.0714 -0.0688  0.4387
   47CHL1    H6 4594   3.987   2.649   5.883  0.6668 -0.2272 -0.6374
   47CHL1    C7 4595   3.857   2.569   5.723 -0.3281 -0.8465 -0.1881
   47CHL1   H7A 4596   3.946   2.526   5.672  0.4460 -0.8258  1.1244
   47CHL1   H7B 4597   3.816   2.482   5.778  1.3229 -0.1634  2.2487
   47CHL1    C8 4598   3.757   2.628   5.624 -0.1337  0.2515 -0.1938
   47CHL1    H8 4599   3.802   2.710   5.565 -0.4606  0.1063 -0.6524
   47CHL1   C14 4600   3.707   2.515   5.536 -0.0770  0.0746  0.1862
   47CHL1   H14 4601   3.649   2.440   5.594 -0.9157 -1.0960 -2.0479
   47CHL1   C15 4602   3.808   2.418   5.475  0.7367  0.3177  0.3683
   47CHL1  H15A 4603   3.901   2.479   5.469  1.0404 -0.0075  1.4988
   47CHL1  H15B 4604   3.832   2.334   5.543 -1.0024  0.4469  1.1929
   47CHL1   C16 4605   3.742   2.380   5.343  0.0005  0.8175  0.4287
   47CHL1  H16A 4606   3.806   2.422   5.263 -0.6026  0.3255 -0.3294
   47CHL1  H16B 4607   3.734   2.269   5.337  0.3174  0.8085  0.1685
   47CHL1   C17 4608   3.598   2.441   5.347 -0.2647 -0.2695 -0.7842
   47CHL1   H17 4609   3.534   2.373   5.406 -0.8858  1.6590  0.8856
   47CHL1   C13 4610   3.606   2.567   5.429  0.2753  0.8604 -0.1334
   47CHL1   C18 4611   3.663   2.683   5.352 -0.2712  0.3367  0.3336
   47CHL1  H18A 4612   3.587   2.716   5.278 -1.4207  4.8085  3.1260
   47CHL1  H18B 4613   3.686   2.773   5.412  1.1852  0.5498 -0.4896
   47CHL1  H18C 4614   3.759   2.644   5.311 -2.6409 -3.0469 -2.6965
   47CHL1   C12 4615   3.484   2.607   5.518 -0.0981  0.4137 -0.5957
   47CHL1  H12A 4616   3.407   2.633   5.442 -0.6205 -3.9129 -1.7985
   47CHL1  H12B 4617   3.442   2.518   5.571  1.9504 -0.0963  0.2921
   47CHL1   C11 4618   3.517   2.716   5.619  0.5326 -0.3989  0.7512
   47CHL1  H11A 4619   3.527   2.809   5.559  0.1543  0.7579  2.4372
   47CHL1  H11B 4620   3.427   2.729   5.684 -0.2132 -1.5546 -0.0031
   47CHL1    C9 4621   3.640   2.697   5.699  0.2661  0.2823  0.3258
   47CHL1    H9 4622   3.603   2.617   5.767  1.9725 -0.2997  0.6315
   47CHL1   C10 4623   3.694   2.822   5.777  0.3973  0.0938  0.1594
   47CHL1   C19 4624   3.729   2.939   5.681 -0.6736  0.1104 -0.2375
   47CHL1  H19A 4625   3.785   3.023   5.726  1.2553 -1.3616  0.2262
   47CHL1  H19B 4626   3.778   2.897   5.591 -2.1011 -0.1418 -0.9242
   47CHL1  H19C 4627   3.629   2.976   5.649 -0.4426 -0.1229 -1.2341
   47CHL1    C1 4628   3.592   2.875   5.878 -0.4761 -0.0735 -0.7782
   47CHL1   H1A 4629   3.499   2.911   5.830 -0.3627 -0.0151 -0.9531
   47CHL1   H1B 4630   3.562   2.789   5.942  1.7987  0.5551  1.3184
   47CHL1    C2 4631   3.641   2.982   5.981  0.3743  0.0690 -0.2923
   47CHL1   H2A 4632   3.558   3.002   6.052 -0.8346  0.3684 -1.7437
   47CHL1   H2B 4633   3.651   3.079   5.929  1.1261  0.4249  0.4853
   47CHL1   C20 4634   3.527   2.443   5.215 -0.1265  0.4995  0.1772
   47CHL1   H20 4635   3.436   2.507   5.220 -0.8717 -0.5128 -0.2013
   47CHL1   C21 4636   3.471   2.305   5.185 -0.3579  0.1060  0.1817
   47CHL1  H21A 4637   3.387   2.283   5.255  0.8505 -0.3704  1.5152
   47CHL1  H21B 4638   3.547   2.225   5.200 -0.4430 -0.2398 -1.0626
   47CHL1  H21C 4639   3.440   2.301   5.078  0.5817  1.1543 -0.1364
   47CHL1   C22 4640   3.617   2.482   5.099  0.1858 -0.3330 -1.0419
   47CHL1  H22A 4641   3.693   2.561   5.117 -1.1057  1.0211 -1.3622
   47CHL1  H22B 4642   3.684   2.397   5.077  1.9290  0.5604  0.4906
   47CHL1   C23 4643   3.555   2.528   4.970  0.9009  0.4021  0.6213
   47CHL1  H23A 4644   3.489   2.450   4.928  1.4323  0.4942 -0.4099
   47CHL1  H23B 4645   3.491   2.613   5.001 -1.8295 -0.9917 -0.8469
   47CHL1   C24 4646   3.667   2.580   4.874  0.1301  0.5693 -0.4572
   47CHL1  H24A 4647   3.667   2.687   4.906  2.2329  0.4314  0.1005
   47CHL1  H24B 4648   3.759   2.519   4.867 -1.5327 -2.0267 -1.2731
   47CHL1   C25 4649   3.607   2.581   4.726  0.2648  0.3457  0.1568
   47CHL1   H25 4650   3.575   2.477   4.703  4.9205 -1.0512 -1.0881
   47CHL1   C26 4651   3.489   2.670   4.703  0.2358  0.1339 -0.2440
   47CHL1  H26A 4652   3.439   2.646   4.606 -1.3690 -1.6885  0.9435
   47CHL1  H26B 4653   3.407   2.656   4.776  0.2582  1.4163  0.0420
   47CHL1  H26C 4654   3.523   2.774   4.684 -0.7195  0.4531 -0.2396
   47CHL1   C27 4655   3.723   2.599   4.626  0.0954  0.3400 -0.5383
   47CHL1  H27A 4656   3.805   2.524   4.620 -0.9104 -0.7002 -1.8785
   47CHL1  H27B 4657   3.679   2.594   4.524 -1.5037 -3.4394  0.1833
   47CHL1  H27C 4658   3.768   2.698   4.647  1.0673 -0.3082  0.5660
   48CHL1    C3 4659   0.394   5.119   5.908 -0.3539 -0.2066 -0.2683
   48CHL1    H3 4660   0.454   5.212   5.915 -1.6134  0.6605 -0.6918
   48CHL1    O3 4661   0.341   5.099   6.035 -0.0453  0.0961 -0.3819
   48CHL1   H3' 4662   0.269   5.036   6.024  0.6050 -0.4159 -2.0519
   48CHL1    C4 4663   0.281   5.125   5.800  0.2886 -0.5882 -0.6731
   48CHL1   H4A 4664   0.208   5.041   5.799  0.4960 -0.9175 -4.5225
   48CHL1   H4B 4665   0.227   5.218   5.826  2.3066  0.0579  1.5218
   48CHL1    C5 4666   0.335   5.118   5.658  0.3495 -0.2635 -0.9617
   48CHL1    C6 4667   0.295   5.212   5.572 -0.6310 -0.2026  0.7632
   48CHL1    H6 4668   0.229   5.294   5.603 -0.0996  0.0865  1.1557
   48CHL1    C7 4669   0.339   5.219   5.425  0.1479  0.2309  0.2208
   48CHL1   H7A 4670   0.257   5.243   5.354  1.5279 -1.1916 -1.9867
   48CHL1   H7B 4671   0.407   5.307   5.420  0.8736 -0.3240  0.1498
   48CHL1    C8 4672   0.417   5.087   5.387 -0.2186 -0.7829 -1.0081
   48CHL1    H8 4673   0.340   5.010   5.365 -1.1947 -0.0743 -0.2070
   48CHL1   C14 4674   0.493   5.106   5.261 -0.4495 -0.1209  0.4331
   48CHL1   H14 4675   0.578   5.174   5.283 -1.2302  0.8602  0.4700
   48CHL1   C15 4676   0.419   5.170   5.135  0.0574 -0.5241  0.5548
   48CHL1  H15A 4677   0.310   5.153   5.121  0.1713 -0.1040 -1.0241
   48CHL1  H15B 4678   0.438   5.278   5.153  2.1094 -0.8890  0.9040
   48CHL1   C16 4679   0.496   5.120   5.016  0.3974 -0.4057  0.1221
   48CHL1  H16A 4680   0.437   5.046   4.959  0.8588 -0.8920  0.2641
   48CHL1  H16B 4681   0.536   5.199   4.949 -0.5240 -0.6627 -0.7465
   48CHL1   C17 4682   0.615   5.021   5.067  0.0780  0.8158 -0.9075
   48CHL1   H17 4683   0.694   5.092   5.100 -0.9325  2.0864 -1.1652
   48CHL1   C13 4684   0.558   4.975   5.202 -0.1098 -0.1466 -0.3297
   48CHL1   C18 4685   0.448   4.862   5.167 -0.2012  0.3299  0.4018
   48CHL1  H18A 4686   0.384   4.838   5.255 -0.6889 -0.9931 -0.3014
   48CHL1  H18B 4687   0.383   4.900   5.085  0.1957  0.0166 -0.0571
   48CHL1  H18C 4688   0.493   4.766   5.134 -0.4885 -0.0963  1.2251
   48CHL1   C12 4689   0.667   4.936   5.311  0.3239  0.2882  0.0230
   48CHL1  H12A 4690   0.715   4.845   5.269 -3.3681 -0.5409 -2.9963
   48CHL1  H12B 4691   0.749   5.010   5.317  2.9168 -2.4507  0.5609
   48CHL1   C11 4692   0.600   4.916   5.448  0.1250  0.2917  0.3093
   48CHL1  H11A 4693   0.534   4.829   5.427  3.3946 -2.6934  1.4168
   48CHL1  H11B 4694   0.681   4.884   5.517 -0.0037  1.2191  0.9020
   48CHL1    C9 4695   0.511   5.035   5.497 -0.4116 -0.3224 -0.6174
   48CHL1    H9 4696   0.580   5.120   5.512  0.5703 -1.4122  1.4638
   48CHL1   C10 4697   0.438   5.015   5.636  0.2517  0.8779  0.6479
   48CHL1   C19 4698   0.366   4.881   5.626  0.1158 -0.1063 -0.0858
   48CHL1  H19A 4699   0.304   4.862   5.536  2.0294 -1.7889 -1.1304
   48CHL1  H19B 4700   0.425   4.789   5.646 -1.3058 -1.1826 -0.6055
   48CHL1  H19C 4701   0.300   4.870   5.715  2.5986 -0.1048  1.8819
   48CHL1    C1 4702   0.542   5.001   5.750  0.3921 -0.4365  0.0362
   48CHL1   H1A 4703   0.595   4.906   5.728 -2.8771 -1.8744 -2.4003
   48CHL1   H1B 4704   0.610   5.088   5.739  0.3931 -0.2479  1.3471
   48CHL1    C2 4705   0.475   4.997   5.886  0.2282  0.5380 -0.4226
   48CHL1   H2A 4706   0.550   4.982   5.967  0.2817  2.2850 -0.0981
   48CHL1   H2B 4707   0.408   4.909   5.885  0.0177  0.6158 -3.2893
   48CHL1   C20 4708   0.680   4.924   4.963  0.3617 -0.0313  0.1788
   48CHL1   H20 4709   0.602   4.849   4.939 -0.3328  0.2235  1.5154
   48CHL1   C21 4710   0.810   4.851   5.018  0.1322 -0.1082 -0.4310
   48CHL1  H21A 4711   0.869   4.812   4.934  2.0577 -0.8485  1.1918
   48CHL1  H21B 4712   0.867   4.919   5.085 -1.4018 -0.2780  1.1256
   48CHL1  H21C 4713   0.770   4.765   5.076  0.3402 -1.6977 -2.5374
   48CHL1   C22 4714   0.719   4.986   4.826  0.0231  0.4122 -0.6711
   48CHL1  H22A 4715   0.657   5.074   4.797 -0.6510  0.0929 -0.2157
   48CHL1  H22B 4716   0.821   5.026   4.844  0.6962 -1.2061 -0.7434
   48CHL1   C23 4717   0.720   4.888   4.708 -0.0035  0.2679 -1.3550
   48CHL1  H23A 4718   0.758   4.792   4.749  0.6412  0.5990 -1.1708
   48CHL1  H23B 4719   0.613   4.868   4.684  0.1312 -2.1053 -0.2595
   48CHL1   C24 4720   0.781   4.938   4.584 -0.1966 -0.3872  0.4059
   48CHL1  H24A 4721   0.892   4.944   4.596 -0.2863 -0.5095  1.3269
   48CHL1  H24B 4722   0.785   4.861   4.503  2.7343  2.0849 -2.0785
   48CHL1   C25 4723   0.723   5.069   4.527 -0.5531 -0.1452  0.8586
   48CHL1   H25 4724   0.739   5.154   4.597 -1.4380  2.8504 -2.3062
   48CHL1   C26 4725   0.808   5.100   4.407  0.0252 -0.0377  0.1417
   48CHL1  H26A 4726   0.792   5.196   4.354  0.5479 -0.6607 -1.1912
   48CHL1  H26B 4727   0.912   5.086   4.444 -0.5570 -2.8734  0.9871
   48CHL1  H26C 4728   0.804   5.020   4.330 -2.2403 -0.4093  0.5769
   48CHL1   C27 4729   0.571   5.062   4.480 -0.6207 -0.4587  0.1454
   48CHL1  H27A 4730   0.534   5.162   4.448  2.0626  0.0770 -1.5833
   48CHL1  H27B 4731   0.565   5.001   4.388  0.3987 -1.7986  0.9340
   48CHL1  H27C 4732   0.504   5.026   4.561 -0.9765  1.8659  0.9951
   49CHL1    C3 4733   0.765   2.906   2.978  0.2566  0.0148 -0.1401
   49CHL1    H3 4734   0.786   2.797   2.973 -1.3936 -0.2797 -2.0090
   49CHL1    O3 4735   0.739   2.924   2.840  0.4657 -0.4514  0.0984
   49CHL1   H3' 4736   0.824   2.910   2.798 -0.7851  0.7769 -3.1972
   49CHL1    C4 4737   0.646   2.917   3.072  0.2338  0.1214  0.9846
   49CHL1   H4A 4738   0.596   3.013   3.050  0.4349 -0.2288 -1.1795
   49CHL1   H4B 4739   0.578   2.836   3.039  3.3223 -0.7692 -4.2782
   49CHL1    C5 4740   0.675   2.917   3.215  0.0418 -0.2818 -0.5283
   49CHL1    C6 4741   0.606   2.838   3.306 -1.0183  0.4857  0.6576
   49CHL1    H6 4742   0.536   2.762   3.268  1.7350 -2.0158  0.2548
   49CHL1    C7 4743   0.627   2.850   3.455 -0.0647 -1.0582 -0.0754
   49CHL1   H7A 4744   0.528   2.870   3.500 -0.6327 -1.5026 -1.0798
   49CHL1   H7B 4745   0.661   2.751   3.493 -1.8155 -0.8568  2.1776
   49CHL1    C8 4746   0.724   2.958   3.494  0.3022  0.5567  0.7028
   49CHL1    H8 4747   0.665   3.052   3.498  0.6206  0.9078 -1.5691
   49CHL1   C14 4748   0.766   2.919   3.634 -0.2998 -0.5079 -0.2537
   49CHL1   H14 4749   0.835   2.833   3.620  2.8186  1.7663 -0.0505
   49CHL1   C15 4750   0.661   2.882   3.740 -0.0706  0.0675 -0.4731
   49CHL1  H15A 4751   0.573   2.948   3.725 -0.0939 -0.0017 -0.6434
   49CHL1  H15B 4752   0.625   2.780   3.713  1.6560 -0.2952 -1.5582
   49CHL1   C16 4753   0.738   2.906   3.876 -0.6302  0.1853 -0.1618
   49CHL1  H16A 4754   0.668   2.974   3.929 -2.1269 -1.0555 -0.4775
   49CHL1  H16B 4755   0.753   2.811   3.931  0.2924 -1.1409 -2.5443
   49CHL1   C17 4756   0.874   2.975   3.843  0.0174 -0.0427  0.1497
   49CHL1   H17 4757   0.953   2.897   3.833 -0.1317 -0.3080  0.9683
   49CHL1   C13 4758   0.851   3.028   3.696 -0.4380 -0.8067 -1.0656
   49CHL1   C18 4759   0.771   3.158   3.715 -0.0169  0.0387  0.9010
   49CHL1  H18A 4760   0.751   3.200   3.614  1.9768  1.0294  0.8662
   49CHL1  H18B 4761   0.672   3.132   3.760  0.8723 -0.3866  2.6753
   49CHL1  H18C 4762   0.824   3.232   3.778 -0.3622  0.0251  1.2151
   49CHL1   C12 4763   0.974   3.046   3.602 -0.4419 -0.0560 -0.1296
   49CHL1  H12A 4764   1.037   3.127   3.646 -1.0610 -0.5178  1.7064
   49CHL1  H12B 4765   1.039   2.956   3.605 -1.6397 -0.9339  0.2069
   49CHL1   C11 4766   0.941   3.077   3.464  0.0284  0.2475 -0.2672
   49CHL1  H11A 4767   0.891   3.177   3.458 -2.3913 -0.7605  1.4852
   49CHL1  H11B 4768   1.036   3.080   3.406 -0.4674 -1.3555 -1.2257
   49CHL1    C9 4769   0.840   2.975   3.396  0.2490  0.6757 -0.8631
   49CHL1    H9 4770   0.896   2.879   3.388  0.4310  0.8861 -2.5656
   49CHL1   C10 4771   0.799   3.002   3.254  0.3076  0.1043 -0.8039
   49CHL1   C19 4772   0.753   3.151   3.234 -0.1236 -1.1443  0.6030
   49CHL1  H19A 4773   0.835   3.219   3.265 -0.8727  0.0068  0.1248
   49CHL1  H19B 4774   0.727   3.177   3.129  0.3543  1.8374  1.1593
   49CHL1  H19C 4775   0.672   3.177   3.305 -0.3931  1.6448 -0.6118
   49CHL1    C1 4776   0.919   2.974   3.161  0.5473 -0.5647  0.2025
   49CHL1   H1A 4777   0.989   3.057   3.184 -0.0160  0.1756 -0.6797
   49CHL1   H1B 4778   0.980   2.883   3.183  0.5519 -0.2952  1.3210
   49CHL1    C2 4779   0.888   2.986   3.008 -0.2954  0.5819  0.0112
   49CHL1   H2A 4780   0.976   2.959   2.945  0.5532 -1.6864  1.9869
   49CHL1   H2B 4781   0.867   3.095   2.996 -1.2743  0.1901 -2.3554
   49CHL1   C20 4782   0.917   3.071   3.951 -0.5932  0.2286 -0.3150
   49CHL1   H20 4783   0.854   3.161   3.971  0.4444  0.7919  0.5485
   49CHL1   C21 4784   1.056   3.134   3.913 -1.0433  0.1854 -0.2656
   49CHL1  H21A 4785   1.134   3.060   3.887 -2.3041 -2.2495  2.3652
   49CHL1  H21B 4786   1.102   3.196   3.993 -0.1391 -0.6013 -0.1664
   49CHL1  H21C 4787   1.039   3.206   3.830  1.5594 -1.2258 -2.1329
   49CHL1   C22 4788   0.932   3.002   4.093 -0.0394 -0.0384 -0.1812
   49CHL1  H22A 4789   0.836   2.976   4.141  0.6034  0.0129  1.1911
   49CHL1  H22B 4790   0.982   2.905   4.073  0.1588 -0.1888  0.9891
   49CHL1   C23 4791   1.023   3.066   4.198  0.3774 -0.0215  0.1403
   49CHL1  H23A 4792   1.024   3.008   4.293  2.1421 -0.8111 -0.3266
   49CHL1  H23B 4793   1.127   3.064   4.160  0.8041 -1.6023  1.2963
   49CHL1   C24 4794   0.965   3.204   4.239 -0.9993  0.4161  0.3724
   49CHL1  H24A 4795   1.000   3.281   4.166  0.0555 -0.1501  0.2641
   49CHL1  H24B 4796   0.854   3.201   4.236 -0.9641 -1.3807 -1.2684
   49CHL1   C25 4797   1.012   3.253   4.383 -0.6254 -0.2664  0.6130
   49CHL1   H25 4798   0.982   3.172   4.454 -1.9169 -1.8579 -1.6246
   49CHL1   C26 4799   1.168   3.274   4.379 -0.8350  0.2871  0.8183
   49CHL1  H26A 4800   1.198   3.353   4.306 -1.7125 -0.2272 -0.1209
   49CHL1  H26B 4801   1.210   3.304   4.477 -2.3176  0.5227  1.4004
   49CHL1  H26C 4802   1.205   3.172   4.356 -0.2454  0.4641  0.9630
   49CHL1   C27 4803   0.948   3.381   4.432 -0.5064  0.4177  0.0761
   49CHL1  H27A 4804   0.956   3.468   4.363 -2.1048 -0.3254 -1.1131
   49CHL1  H27B 4805   0.839   3.367   4.451 -0.8032 -0.3984 -1.9996
   49CHL1  H27C 4806   1.005   3.415   4.521  0.8969  2.1835 -1.4236
   50CHL1    C3 4807   5.478   6.098   2.825  0.1504  0.0525 -0.9546
   50CHL1    H3 4808   5.567   6.033   2.812 -1.4811 -2.8575  1.1854
   50CHL1    O3 4809   5.417   6.107   2.693 -0.7604 -0.6225 -0.3227
   50CHL1   H3' 4810   5.382   6.019   2.678  0.2555 -1.2010  0.5511
   50CHL1    C4 4811   5.384   6.009   2.913 -0.1899 -0.1796 -0.1251
   50CHL1   H4A 4812   5.286   6.061   2.904 -1.5557 -2.7696 -1.5206
   50CHL1   H4B 4813   5.372   5.914   2.858  0.6865 -0.1816 -0.3357
   50CHL1    C5 4814   5.436   5.989   3.055  0.6166 -0.4828 -0.7589
   50CHL1    C6 4815   5.444   5.867   3.114  0.0800  0.3962  0.2622
   50CHL1    H6 4816   5.419   5.779   3.054 -1.7662 -0.7969  2.6112
   50CHL1    C7 4817   5.505   5.851   3.251  0.7141 -0.0656  0.2683
   50CHL1   H7A 4818   5.443   5.771   3.297  0.4696 -0.4144 -0.6368
   50CHL1   H7B 4819   5.606   5.811   3.231 -0.4399 -2.8753 -0.4023
   50CHL1    C8 4820   5.495   5.971   3.342  0.1264  0.0978  0.1025
   50CHL1    H8 4821   5.391   5.996   3.371 -0.3872 -0.9215 -0.7929
   50CHL1   C14 4822   5.578   5.952   3.465  0.4723 -0.3308  0.2209
   50CHL1   H14 4823   5.677   5.932   3.418 -0.7575 -1.3489 -2.0675
   50CHL1   C15 4824   5.555   5.827   3.544 -0.3943 -0.0139  0.5410
   50CHL1  H15A 4825   5.452   5.806   3.581  0.1113 -0.3042  1.8326
   50CHL1  H15B 4826   5.579   5.744   3.475 -1.0930 -0.6831  1.0759
   50CHL1   C16 4827   5.651   5.852   3.664  0.2258 -0.2977  0.1165
   50CHL1  H16A 4828   5.607   5.819   3.760  0.2957 -3.8181 -0.9471
   50CHL1  H16B 4829   5.742   5.790   3.651  0.4363  0.0223  0.0551
   50CHL1   C17 4830   5.687   6.007   3.660 -0.2676 -0.2832 -0.0254
   50CHL1   H17 4831   5.785   6.011   3.608 -0.2314  0.1156  0.0647
   50CHL1   C13 4832   5.589   6.068   3.558  0.5162 -0.6874  0.0126
   50CHL1   C18 4833   5.453   6.094   3.631 -0.5263  0.1859 -0.2173
   50CHL1  H18A 4834   5.447   6.191   3.685 -0.0614 -0.9540  1.9616
   50CHL1  H18B 4835   5.383   6.114   3.547 -2.3325  0.7875  1.3612
   50CHL1  H18C 4836   5.407   6.020   3.699 -0.4757  0.3235 -0.0308
   50CHL1   C12 4837   5.641   6.191   3.479 -0.0944 -0.1268 -0.0068
   50CHL1  H12A 4838   5.630   6.276   3.549  1.0510  0.7242 -0.8168
   50CHL1  H12B 4839   5.750   6.171   3.472 -0.3144 -1.9960  1.2768
   50CHL1   C11 4840   5.564   6.213   3.351  0.6105 -0.2979 -0.0449
   50CHL1  H11A 4841   5.467   6.251   3.390 -0.3441 -2.6013  0.0147
   50CHL1  H11B 4842   5.621   6.289   3.294 -0.8584  2.1166  1.5464
   50CHL1    C9 4843   5.556   6.087   3.267 -0.2955  0.1459 -0.6577
   50CHL1    H9 4844   5.658   6.053   3.240 -0.9592 -0.4263 -2.6717
   50CHL1   C10 4845   5.478   6.118   3.128  0.0976  0.3438  0.1374
   50CHL1   C19 4846   5.352   6.183   3.168  0.7051 -0.2521 -0.6422
   50CHL1  H19A 4847   5.366   6.293   3.174  0.4447 -0.2949  1.8217
   50CHL1  H19B 4848   5.257   6.179   3.111  0.1905  1.0031  0.0943
   50CHL1  H19C 4849   5.325   6.150   3.271  1.5981 -1.5297 -0.7873
   50CHL1    C1 4850   5.566   6.197   3.033 -0.8039  0.1599 -0.3094
   50CHL1   H1A 4851   5.582   6.297   3.078  0.1838 -0.7529  1.4794
   50CHL1   H1B 4852   5.669   6.158   3.021 -0.4318  1.3581 -1.1712
   50CHL1    C2 4853   5.505   6.231   2.894 -0.3992 -0.0690 -0.2047
   50CHL1   H2A 4854   5.585   6.283   2.837 -0.8666  0.6740 -0.1987
   50CHL1   H2B 4855   5.413   6.293   2.899 -0.7042 -0.6173  1.5759
   50CHL1   C20 4856   5.690   6.074   3.799 -0.0060 -0.5386  0.1259
   50CHL1   H20 4857   5.588   6.073   3.843  0.4517 -1.0193  1.2200
   50CHL1   C21 4858   5.728   6.229   3.788  0.1985 -0.0615  0.0221
   50CHL1  H21A 4859   5.802   6.254   3.710  1.3988  0.3500  1.2495
   50CHL1  H21B 4860   5.756   6.270   3.887 -3.3755 -1.6068  1.8922
   50CHL1  H21C 4861   5.642   6.291   3.754  0.2762 -0.8395 -1.6757
   50CHL1   C22 4862   5.776   6.004   3.906  0.2256 -0.4285 -0.1238
   50CHL1  H22A 4863   5.794   5.901   3.868 -1.8935 -0.2246 -1.8913
   50CHL1  H22B 4864   5.874   6.053   3.924  0.2812 -0.8937  0.8950
   50CHL1   C23 4865   5.707   5.993   4.043 -0.0117  0.8683  0.7319
   50CHL1  H23A 4866   5.656   6.083   4.082 -0.2198  0.8203  0.5759
   50CHL1  H23B 4867   5.621   5.931   4.009  0.5050  0.4922  0.0825
   50CHL1   C24 4868   5.780   5.919   4.154 -0.2292  0.2566 -0.3961
   50CHL1  H24A 4869   5.871   5.981   4.171 -0.0924 -0.0205 -0.1049
   50CHL1  H24B 4870   5.712   5.921   4.242  0.2123 -0.4085 -0.0356
   50CHL1   C25 4871   5.814   5.769   4.127 -0.7495  0.4481 -0.2244
   50CHL1   H25 4872   5.884   5.757   4.042 -0.5774  2.4324 -0.4060
   50CHL1   C26 4873   5.876   5.704   4.249 -0.2301  0.3011 -0.2060
   50CHL1  H26A 4874   5.978   5.746   4.263  0.4254 -1.1205 -0.6012
   50CHL1  H26B 4875   5.813   5.719   4.340 -1.1848  0.7724 -0.9222
   50CHL1  H26C 4876   5.887   5.595   4.233  0.3095  0.6432 -2.5838
   50CHL1   C27 4877   5.693   5.692   4.084  0.1064  0.2307 -0.4440
   50CHL1  H27A 4878   5.618   5.727   4.158  3.4924  0.7603  3.0764
   50CHL1  H27B 4879   5.676   5.732   3.982  0.0233 -1.0320 -0.9394
   50CHL1  H27C 4880   5.693   5.581   4.090  0.6638  0.1443 -1.8169
   51CHL1    C3 4881   5.818   0.217   3.002  0.1471  0.4722 -0.7391
   51CHL1    H3 4882   5.745   0.300   3.015 -1.8089 -1.3477  0.4459
   51CHL1    O3 4883   5.806   0.187   2.865  0.6513 -0.0287 -0.4141
   51CHL1   H3' 4884   5.711   0.180   2.854  0.7064 -0.4620 -0.6373
   51CHL1    C4 4885   5.963   0.253   3.029  0.2770 -0.0571 -0.3075
   51CHL1   H4A 4886   6.022   0.162   3.006 -0.0037 -1.3088  3.2959
   51CHL1   H4B 4887   5.997   0.328   2.955 -1.4869 -1.5710 -2.8524
   51CHL1    C5 4888   5.987   0.296   3.175  0.7839  0.0261  0.7789
   51CHL1    C6 4889   6.034   0.413   3.212 -0.4698  0.3729 -0.3544
   51CHL1    H6 4890   6.068   0.495   3.147  0.5768  1.8232  1.9149
   51CHL1    C7 4891   6.068   0.447   3.358 -0.3187 -0.5453 -0.3951
   51CHL1   H7A 4892   6.168   0.492   3.374 -1.4863  1.7855  0.8983
   51CHL1   H7B 4893   5.991   0.522   3.389  0.4067 -0.6892  1.9512
   51CHL1    C8 4894   6.059   0.324   3.458  0.3068 -0.3764  0.1588
   51CHL1    H8 4895   6.151   0.267   3.433  0.7166  1.0944 -1.8870
   51CHL1   C14 4896   6.048   0.380   3.598  0.3245 -0.0488  0.3041
   51CHL1   H14 4897   5.947   0.425   3.612  1.2731  1.3179  4.0452
   51CHL1   C15 4898   6.150   0.485   3.645 -0.0315  0.0283  0.0123
   51CHL1  H15A 4899   6.255   0.459   3.619 -0.3002  1.7160 -3.4468
   51CHL1  H15B 4900   6.124   0.581   3.595  0.4754 -0.4748 -1.2508
   51CHL1   C16 4901   6.126   0.494   3.797  0.1652  0.7581  0.3226
   51CHL1  H16A 4902   6.227   0.487   3.842 -0.1214  0.5242  0.9330
   51CHL1  H16B 4903   6.063   0.581   3.826 -0.0466  0.7009  0.0492
   51CHL1   C17 4904   6.045   0.358   3.825 -0.0870 -0.1327 -0.4049
   51CHL1   H17 4905   5.941   0.396   3.827 -0.0128  0.0829 -0.5923
   51CHL1   C13 4906   6.053   0.271   3.705 -0.3096  0.1348 -0.0411
   51CHL1   C18 4907   6.195   0.208   3.708  0.6681  0.0491  0.9657
   51CHL1  H18A 4908   6.220   0.161   3.610 -0.3109  1.0272  0.2096
   51CHL1  H18B 4909   6.283   0.264   3.746  1.0858 -0.0531  0.1853
   51CHL1  H18C 4910   6.187   0.127   3.783 -1.6341  1.4482  2.3232
   51CHL1   C12 4911   5.941   0.171   3.677 -0.0290 -0.0233 -0.1124
   51CHL1  H12A 4912   5.966   0.083   3.739 -0.8882  0.8205  1.4837
   51CHL1  H12B 4913   5.846   0.221   3.708  0.4512  0.1169  1.1882
   51CHL1   C11 4914   5.941   0.116   3.529 -0.5557 -0.0987 -0.0114
   51CHL1  H11A 4915   6.031   0.053   3.515 -0.8448 -0.0674 -2.6589
   51CHL1  H11B 4916   5.848   0.058   3.510 -1.1632  0.5249  1.0200
   51CHL1    C9 4917   5.944   0.232   3.423  0.2022 -0.0897 -0.2860
   51CHL1    H9 4918   5.849   0.288   3.435  0.5211  0.0489  2.1933
   51CHL1   C10 4919   5.946   0.187   3.275  0.0122 -0.0617  0.4902
   51CHL1   C19 4920   6.048   0.072   3.259  0.3359  0.4320 -0.3762
   51CHL1  H19A 4921   6.149   0.110   3.282  0.1501  1.2649 -0.9059
   51CHL1  H19B 4922   6.017  -0.003   3.335 -1.8991  0.0356 -1.5924
   51CHL1  H19C 4923   6.053   0.022   3.160 -1.0928  2.5143 -1.5768
   51CHL1    C1 4924   5.809   0.135   3.246  0.3616  0.7626 -0.0323
   51CHL1   H1A 4925   5.780   0.041   3.297  2.3869  0.5250  0.7716
   51CHL1   H1B 4926   5.743   0.221   3.269  0.7424  0.5875  1.8050
   51CHL1    C2 4927   5.778   0.104   3.097 -0.4235  0.6296 -0.1287
   51CHL1   H2A 4928   5.670   0.083   3.086 -0.9088  0.6959  3.5053
   51CHL1   H2B 4929   5.843   0.019   3.064  0.4904  0.4721  1.9145
   51CHL1   C20 4930   6.060   0.287   3.961 -0.2925 -0.3167  0.0514
   51CHL1   H20 4931   6.058   0.178   3.943 -0.6940 -0.2427 -0.3517
   51CHL1   C21 4932   5.938   0.322   4.058  0.1018  0.1040  0.5680
   51CHL1  H21A 4933   5.939   0.430   4.082  0.5133  0.7564 -2.0885
   51CHL1  H21B 4934   5.938   0.253   4.146 -0.5743 -0.4496  0.1465
   51CHL1  H21C 4935   5.844   0.311   4.001  0.4309  0.8815 -0.1424
   51CHL1   C22 4936   6.193   0.307   4.034  0.5796  0.1777  0.1622
   51CHL1  H22A 4937   6.284   0.310   3.971  0.5302 -0.7294  0.0364
   51CHL1  H22B 4938   6.173   0.411   4.069  0.8197  0.5382 -0.7535
   51CHL1   C23 4939   6.210   0.213   4.150 -0.3131 -0.8222  0.3883
   51CHL1  H23A 4940   6.298   0.239   4.212  0.0304  1.6581 -0.9925
   51CHL1  H23B 4941   6.119   0.224   4.212 -1.4368  0.6977 -1.4014
   51CHL1   C24 4942   6.235   0.067   4.112 -0.0465  0.6445  0.0894
   51CHL1  H24A 4943   6.152   0.017   4.058 -0.5734 -0.2934  1.7053
   51CHL1  H24B 4944   6.322   0.067   4.042  0.4930  1.0924  0.7447
   51CHL1   C25 4945   6.261  -0.021   4.231 -0.1375  0.0263 -0.4530
   51CHL1   H25 4946   6.343   0.016   4.297 -0.0139 -1.9705  0.5943
   51CHL1   C26 4947   6.140  -0.027   4.320  0.2807  0.0933 -0.3307
   51CHL1  H26A 4948   6.050  -0.071   4.273 -0.0089 -0.8516  1.0417
   51CHL1  H26B 4949   6.173  -0.094   4.402 -1.7550  0.2729  0.6737
   51CHL1  H26C 4950   6.114   0.063   4.379 -0.7601 -0.9105  0.7835
   51CHL1   C27 4951   6.308  -0.166   4.185 -0.4444 -0.5464  0.3034
   51CHL1  H27A 4952   6.225  -0.213   4.129 -0.0281  0.7465 -1.4861
   51CHL1  H27B 4953   6.401  -0.151   4.126  0.1052  0.3616  1.3492
   51CHL1  H27C 4954   6.338  -0.237   4.265  3.2812  1.8577  1.2921
   52CHL1    C3 4955   1.179   1.118   2.765 -0.1638  0.4900  0.1009
   52CHL1    H3 4956   1.116   1.032   2.796 -0.3203 -0.6622 -3.0563
   52CHL1    O3 4957   1.198   1.093   2.627  0.4533 -0.1142 -0.1894
   52CHL1   H3' 4958   1.247   1.010   2.624 -1.5325 -1.3379 -0.3257
   52CHL1    C4 4959   1.096   1.241   2.790 -0.3127 -0.2680  0.7377
   52CHL1   H4A 4960   1.131   1.330   2.733  0.8199 -0.9034  0.3993
   52CHL1   H4B 4961   0.999   1.223   2.738  0.7002 -3.0455 -0.4050
   52CHL1    C5 4962   1.079   1.279   2.931  0.1610 -0.8724 -0.0501
   52CHL1    C6 4963   0.955   1.300   2.981  0.0901 -0.7061  0.3918
   52CHL1    H6 4964   0.873   1.321   2.911  0.2326  0.7158  0.6115
   52CHL1    C7 4965   0.935   1.329   3.124 -0.2262 -0.0515 -0.4204
   52CHL1   H7A 4966   0.869   1.418   3.136 -0.6042 -0.3059 -0.5769
   52CHL1   H7B 4967   0.880   1.243   3.170 -1.8857  0.6942 -0.9174
   52CHL1    C8 4968   1.058   1.360   3.211  0.9214 -0.1602 -0.2554
   52CHL1    H8 4969   1.089   1.463   3.180  1.6312 -0.1966  0.2985
   52CHL1   C14 4970   1.026   1.347   3.359  0.3773 -0.6282  0.2236
   52CHL1   H14 4971   1.009   1.238   3.373  2.0990 -0.8701  0.6629
   52CHL1   C15 4972   0.905   1.419   3.423  0.0545 -0.2829 -0.2420
   52CHL1  H15A 4973   0.894   1.523   3.385  1.3485  0.1894  0.5882
   52CHL1  H15B 4974   0.817   1.354   3.402  0.7431 -0.7688 -1.8271
   52CHL1   C16 4975   0.939   1.432   3.570  0.3432 -0.6106 -0.1052
   52CHL1  H16A 4976   0.911   1.533   3.608  1.3476 -0.5467  0.4924
   52CHL1  H16B 4977   0.875   1.364   3.630 -0.5914 -0.4299 -0.8697
   52CHL1   C17 4978   1.090   1.380   3.590  0.5515 -0.1541 -0.2813
   52CHL1   H17 4979   1.084   1.272   3.616  3.7030 -0.2763  0.2674
   52CHL1   C13 4980   1.147   1.388   3.446 -0.4833 -0.5992 -0.7240
   52CHL1   C18 4981   1.177   1.543   3.429  0.3928  0.9243 -0.1083
   52CHL1  H18A 4982   1.089   1.603   3.462  0.4466  1.6565 -1.2491
   52CHL1  H18B 4983   1.271   1.577   3.477  0.9846 -2.1427  1.1807
   52CHL1  H18C 4984   1.186   1.560   3.320 -0.3861 -1.8566 -0.6882
   52CHL1   C12 4985   1.270   1.298   3.405  0.5845  0.4853  0.4136
   52CHL1  H12A 4986   1.362   1.329   3.459 -0.1007  0.3248  1.7073
   52CHL1  H12B 4987   1.242   1.193   3.428 -0.0320  0.5411 -0.0487
   52CHL1   C11 4988   1.297   1.311   3.257 -0.4746 -0.2230 -0.0035
   52CHL1  H11A 4989   1.329   1.418   3.251 -0.1088 -0.1232  2.5072
   52CHL1  H11B 4990   1.387   1.248   3.239 -1.4034 -1.6517  0.2345
   52CHL1    C9 4991   1.174   1.262   3.173 -0.8573  0.5506  0.4012
   52CHL1    H9 4992   1.142   1.160   3.202  3.3688 -1.1878 -0.3956
   52CHL1   C10 4993   1.206   1.263   3.022  0.3604  0.6535  0.1688
   52CHL1   C19 4994   1.288   1.388   2.992  0.0150  0.3241 -0.2863
   52CHL1  H19A 4995   1.382   1.397   3.051 -0.0954  1.8553 -0.3069
   52CHL1  H19B 4996   1.336   1.380   2.892 -1.7373 -0.6093 -1.0990
   52CHL1  H19C 4997   1.231   1.483   2.987  0.8558  0.8765  0.3230
   52CHL1    C1 4998   1.288   1.132   2.986 -1.0439  0.8729  0.0112
   52CHL1   H1A 4999   1.381   1.143   3.046 -2.1559  2.1418  1.6146
   52CHL1   H1B 5000   1.232   1.047   3.031 -0.9836 -0.2109 -1.8590
   52CHL1    C2 5001   1.313   1.116   2.837 -0.0845 -0.0777  0.4967
   52CHL1   H2A 5002   1.365   1.019   2.825  1.3024  0.5326  1.3306
   52CHL1   H2B 5003   1.370   1.203   2.795  0.8904 -1.1928 -0.5964
   52CHL1   C20 5004   1.170   1.442   3.700 -0.1054  0.1285 -0.1347
   52CHL1   H20 5005   1.210   1.539   3.664  0.0863  0.1834  0.2205
   52CHL1   C21 5006   1.279   1.338   3.739 -0.0439 -0.3514 -0.3700
   52CHL1  H21A 5007   1.247   1.233   3.753 -0.6009 -0.1310  0.0291
   52CHL1  H21B 5008   1.328   1.376   3.832  2.7344 -0.0793 -1.8345
   52CHL1  H21C 5009   1.364   1.341   3.667 -0.4504  1.1103 -0.8340
   52CHL1   C22 5010   1.089   1.482   3.828 -0.5878 -0.0045  0.3871
   52CHL1  H22A 5011   1.155   1.540   3.895 -0.4039 -0.5718  0.7002
   52CHL1  H22B 5012   1.022   1.561   3.787 -1.1192  0.2273  1.6625
   52CHL1   C23 5013   1.015   1.378   3.917 -0.8076 -0.8968 -0.2127
   52CHL1  H23A 5014   0.959   1.312   3.848  0.6085 -2.9760  0.5189
   52CHL1  H23B 5015   1.089   1.319   3.976 -2.6088 -1.5759  1.4998
   52CHL1   C24 5016   0.915   1.453   4.011  0.1359  0.2205  0.0995
   52CHL1  H24A 5017   0.962   1.537   4.067 -0.2435  0.2525  0.3678
   52CHL1  H24B 5018   0.861   1.518   3.939  1.2554 -0.7741 -1.7186
   52CHL1   C25 5019   0.821   1.382   4.109  0.4403 -0.5393 -0.3820
   52CHL1   H25 5020   0.882   1.341   4.193  0.0318  0.1351  0.2534
   52CHL1   C26 5021   0.721   1.490   4.175 -0.4101  0.2193  0.0743
   52CHL1  H26A 5022   0.659   1.540   4.098  0.0784 -0.9570 -1.1328
   52CHL1  H26B 5023   0.669   1.439   4.259  0.4174 -0.4159  0.2118
   52CHL1  H26C 5024   0.780   1.573   4.216  0.1320 -0.5544  0.8869
   52CHL1   C27 5025   0.730   1.282   4.034 -0.1295 -0.7212  0.6005
   52CHL1  H27A 5026   0.641   1.264   4.099 -0.4263 -0.8846  0.1572
   52CHL1  H27B 5027   0.697   1.321   3.936 -0.7932 -2.8338 -0.0691
   52CHL1  H27C 5028   0.793   1.193   4.013  0.6518  0.1720 -1.0165
   53CHL1    C3 5029   5.097   1.246   2.741  0.4604 -0.2862  0.2928
   53CHL1    H3 5030   5.175   1.179   2.782  1.1076  0.5036  0.3685
   53CHL1    O3 5031   5.072   1.210   2.603  0.7188 -0.4040  0.1338
   53CHL1   H3' 5032   4.979   1.216   2.579  1.2546  0.8820 -1.8566
   53CHL1    C4 5033   4.962   1.233   2.816  0.2678  0.7613 -0.2314
   53CHL1   H4A 5034   4.888   1.310   2.786  1.2177  1.9689  0.4244
   53CHL1   H4B 5035   4.909   1.139   2.790 -0.0656  0.9596 -0.2817
   53CHL1    C5 5036   4.991   1.251   2.961 -0.1900 -0.5460 -0.6587
   53CHL1    C6 5037   4.966   1.153   3.053  0.1522 -0.4260 -0.3178
   53CHL1    H6 5038   4.937   1.055   3.012  1.2546 -1.0414  0.3195
   53CHL1    C7 5039   4.983   1.164   3.200  0.0347  0.7248 -0.7238
   53CHL1   H7A 5040   4.893   1.117   3.246 -0.1202 -0.1146 -1.8626
   53CHL1   H7B 5041   5.073   1.107   3.230 -0.8576 -0.9899 -1.1708
   53CHL1    C8 5042   5.000   1.306   3.248 -1.1037 -0.2409 -0.0036
   53CHL1    H8 5043   4.901   1.355   3.245 -0.3661  1.3122 -0.9851
   53CHL1   C14 5044   5.062   1.321   3.388 -0.3434  0.2817 -0.4730
   53CHL1   H14 5045   5.163   1.277   3.377 -0.0496  1.0183 -0.7856
   53CHL1   C15 5046   4.979   1.250   3.491 -0.2710  0.1257 -0.2682
   53CHL1  H15A 5047   4.872   1.280   3.483 -0.6440 -1.0572  0.1677
   53CHL1  H15B 5048   4.991   1.140   3.494 -1.4299  0.0161  1.7431
   53CHL1   C16 5049   5.035   1.304   3.618 -0.0501 -0.7228 -0.0609
   53CHL1  H16A 5050   4.944   1.330   3.676 -0.4041  1.0312 -1.3208
   53CHL1  H16B 5051   5.087   1.219   3.667 -2.9483 -2.8992 -0.4931
   53CHL1   C17 5052   5.125   1.424   3.586  0.0375 -0.4545  0.6436
   53CHL1   H17 5053   5.229   1.388   3.569  0.3407  0.8194 -0.2908
   53CHL1   C13 5054   5.078   1.461   3.441 -1.0037  0.6115 -0.0953
   53CHL1   C18 5055   4.944   1.542   3.439  0.3398  0.1416 -0.3336
   53CHL1  H18A 5056   4.867   1.527   3.518  1.6396  2.0790  1.3855
   53CHL1  H18B 5057   4.963   1.650   3.452  1.4197 -0.3592  3.2795
   53CHL1  H18C 5058   4.902   1.529   3.337  1.7102 -1.8054 -0.7037
   53CHL1   C12 5059   5.187   1.532   3.354 -0.1731  0.4161  0.7675
   53CHL1  H12A 5060   5.194   1.638   3.388  0.4898 -0.3929  3.3897
   53CHL1  H12B 5061   5.279   1.473   3.371  1.5095  2.9492  1.0338
   53CHL1   C11 5062   5.141   1.524   3.204  0.0681  0.0156  0.2311
   53CHL1  H11A 5063   5.063   1.603   3.194  0.2951  0.4342  1.6077
   53CHL1  H11B 5064   5.222   1.562   3.139 -0.3997  0.1500 -0.2825
   53CHL1    C9 5065   5.098   1.386   3.148  0.4191 -0.5792 -0.2251
   53CHL1    H9 5066   5.194   1.331   3.144 -0.8057 -2.8325 -0.3533
   53CHL1   C10 5067   5.045   1.388   3.002  0.2822 -0.7984  0.8278
   53CHL1   C19 5068   4.927   1.488   2.990  0.1773  0.2719  0.3938
   53CHL1  H19A 5069   4.848   1.461   3.063 -0.3806 -0.6738 -0.5320
   53CHL1  H19B 5070   4.972   1.589   3.005  1.3010 -0.0216 -0.8254
   53CHL1  H19C 5071   4.889   1.495   2.885  0.8017  0.6542  0.1857
   53CHL1    C1 5072   5.169   1.429   2.911 -0.4419 -0.2701 -0.0645
   53CHL1   H1A 5073   5.201   1.536   2.916 -0.3151 -0.2639 -0.8933
   53CHL1   H1B 5074   5.256   1.368   2.942 -0.5676 -0.4653 -0.0960
   53CHL1    C2 5075   5.144   1.394   2.758 -0.6274 -0.4367  0.2645
   53CHL1   H2A 5076   5.240   1.412   2.705 -1.5673 -0.0175 -1.3496
   53CHL1   H2B 5077   5.061   1.457   2.720 -0.2241 -0.4318 -0.6318
   53CHL1   C20 5078   5.125   1.536   3.692  0.7631 -0.1643  0.2669
   53CHL1   H20 5079   5.022   1.577   3.700 -0.4147 -1.8023 -4.0751
   53CHL1   C21 5080   5.218   1.655   3.662 -0.2705 -0.1507 -0.1142
   53CHL1  H21A 5081   5.313   1.636   3.608 -1.0470 -0.4887 -1.4082
   53CHL1  H21B 5082   5.231   1.708   3.759  0.3890  1.4637 -1.0542
   53CHL1  H21C 5083   5.170   1.718   3.585  2.1814  3.0881  0.7855
   53CHL1   C22 5084   5.161   1.467   3.824 -0.0283 -0.2018  0.3763
   53CHL1  H22A 5085   5.152   1.540   3.907 -2.8658 -1.7013  1.5148
   53CHL1  H22B 5086   5.073   1.403   3.847 -1.0743  0.2526 -2.1337
   53CHL1   C23 5087   5.294   1.396   3.833 -0.0113  0.4390  0.0845
   53CHL1  H23A 5088   5.308   1.320   3.753  0.3777 -0.0674  0.6206
   53CHL1  H23B 5089   5.372   1.474   3.827 -1.3608  1.8510  0.2471
   53CHL1   C24 5090   5.320   1.313   3.962 -0.6433  0.4029  0.0772
   53CHL1  H24A 5091   5.233   1.244   3.958 -0.8523  0.5241  1.8029
   53CHL1  H24B 5092   5.411   1.252   3.947 -0.5166  0.6148 -0.0231
   53CHL1   C25 5093   5.314   1.383   4.092 -0.2684 -0.1405  0.4810
   53CHL1   H25 5094   5.226   1.450   4.084 -0.3590 -0.4524 -2.1789
   53CHL1   C26 5095   5.314   1.293   4.215  0.6134 -0.3591 -0.0750
   53CHL1  H26A 5096   5.418   1.261   4.234  0.5886 -0.0828  0.5499
   53CHL1  H26B 5097   5.287   1.353   4.305  0.9934 -1.2454  0.6456
   53CHL1  H26C 5098   5.240   1.211   4.205 -0.3229  0.4457  0.0693
   53CHL1   C27 5099   5.434   1.473   4.102 -0.6367 -0.2843  0.5742
   53CHL1  H27A 5100   5.433   1.521   4.203 -0.7252  0.6180  0.1513
   53CHL1  H27B 5101   5.525   1.410   4.100  0.2304  0.9148  0.5814
   53CHL1  H27C 5102   5.448   1.550   4.023  1.0966 -2.3216 -1.2057
   54CHL1    C3 5103   0.620   3.989   3.166  0.7429  0.1078  0.5478
   54CHL1    H3 5104   0.658   3.889   3.196 -2.5575 -1.2610  0.7165
   54CHL1    O3 5105   0.628   3.992   3.025  0.1613 -0.2328  0.3733
   54CHL1   H3' 5106   0.577   4.068   2.996 -0.8828 -2.1504 -3.4871
   54CHL1    C4 5107   0.467   3.996   3.210  0.2272 -0.0611  0.0922
   54CHL1   H4A 5108   0.438   4.091   3.161  2.1475  0.2009 -0.6235
   54CHL1   H4B 5109   0.415   3.911   3.162 -2.5370 -0.6615  3.6974
   54CHL1    C5 5110   0.444   4.004   3.353 -0.1417  0.7564 -0.5393
   54CHL1    C6 5111   0.368   3.909   3.417 -0.0412  0.1388  0.9176
   54CHL1    H6 5112   0.329   3.829   3.352  0.5453  0.8968 -0.3958
   54CHL1    C7 5113   0.327   3.922   3.565 -0.9305 -0.1588  0.8085
   54CHL1   H7A 5114   0.216   3.912   3.571 -0.9533 -0.1184  0.4610
   54CHL1   H7B 5115   0.360   3.831   3.620 -2.1666 -0.5389  0.9721
   54CHL1    C8 5116   0.369   4.055   3.633 -0.4526 -0.6358  0.0268
   54CHL1    H8 5117   0.298   4.136   3.606  1.7315  0.6123 -2.4678
   54CHL1   C14 5118   0.359   4.033   3.779 -0.0849 -1.3807  0.2545
   54CHL1   H14 5119   0.445   3.966   3.801 -0.0611 -1.0252  1.2835
   54CHL1   C15 5120   0.240   3.959   3.843 -0.8546 -0.9162 -0.4031
   54CHL1  H15A 5121   0.143   3.995   3.802 -0.2292  1.3355 -0.0176
   54CHL1  H15B 5122   0.252   3.849   3.827  0.3081 -0.5708 -2.2425
   54CHL1   C16 5123   0.250   4.003   3.988  0.0534  1.2160 -0.0243
   54CHL1  H16A 5124   0.158   4.063   4.005 -1.2600 -0.1007 -2.0340
   54CHL1  H16B 5125   0.246   3.915   4.055 -1.9765  2.8790  2.1950
   54CHL1   C17 5126   0.372   4.085   4.000 -0.4311 -0.7394 -0.8275
   54CHL1   H17 5127   0.465   4.025   4.013  2.1129  3.0510  0.3573
   54CHL1   C13 5128   0.398   4.151   3.865  0.3583 -0.0801 -0.5395
   54CHL1   C18 5129   0.297   4.268   3.845 -0.1323 -0.1703 -0.1999
   54CHL1  H18A 5130   0.198   4.239   3.885  1.1060 -2.0882  1.6369
   54CHL1  H18B 5131   0.322   4.348   3.917  0.6383  0.6660 -1.3503
   54CHL1  H18C 5132   0.296   4.296   3.737 -0.7584 -3.0475 -1.0158
   54CHL1   C12 5133   0.539   4.190   3.822  0.2787  0.6198  0.0830
   54CHL1  H12A 5134   0.569   4.284   3.874  0.0826 -0.3326  1.9941
   54CHL1  H12B 5135   0.605   4.106   3.851 -0.6363 -0.5077 -0.9783
   54CHL1   C11 5136   0.558   4.218   3.666  0.0671  0.4123  0.2676
   54CHL1  H11A 5137   0.506   4.314   3.646 -1.1412 -0.2097  0.2817
   54CHL1  H11B 5138   0.667   4.232   3.653  0.3609 -2.1735 -0.7654
   54CHL1    C9 5139   0.506   4.099   3.582 -0.7294 -0.0094 -0.0893
   54CHL1    H9 5140   0.570   4.012   3.605  0.5339  1.4245  2.0972
   54CHL1   C10 5141   0.516   4.116   3.429 -0.6026  0.6629  0.0351
   54CHL1   C19 5142   0.445   4.249   3.396 -0.6051  0.3974  0.2631
   54CHL1  H19A 5143   0.338   4.260   3.421 -1.2699 -2.0206 -1.1745
   54CHL1  H19B 5144   0.500   4.337   3.436  0.7088 -0.1923 -0.1679
   54CHL1  H19C 5145   0.452   4.262   3.285  2.0943 -3.5899 -0.2893
   54CHL1    C1 5146   0.669   4.121   3.379  0.3993  0.1005 -0.6958
   54CHL1   H1A 5147   0.727   4.198   3.434  2.0326 -2.3425  1.2421
   54CHL1   H1B 5148   0.715   4.031   3.426  0.3435  1.5335  2.3634
   54CHL1    C2 5149   0.689   4.110   3.227 -0.0714 -0.3657 -0.4349
   54CHL1   H2A 5150   0.797   4.094   3.205  0.2048  1.3917 -0.5004
   54CHL1   H2B 5151   0.658   4.207   3.183 -0.9214 -0.0798  0.7619
   54CHL1   C20 5152   0.363   4.170   4.128 -0.1634 -0.0679  0.5499
   54CHL1   H20 5153   0.280   4.242   4.113 -0.8087 -0.4020  2.3406
   54CHL1   C21 5154   0.481   4.266   4.138  0.6418  0.5827  0.3401
   54CHL1  H21A 5155   0.485   4.339   4.055 -0.6866  1.3811  0.9403
   54CHL1  H21B 5156   0.576   4.209   4.132  0.8813  1.1471 -1.8165
   54CHL1  H21C 5157   0.478   4.323   4.233 -0.8035  1.0608  0.0303
   54CHL1   C22 5158   0.330   4.091   4.253 -0.8191  0.0910 -0.1547
   54CHL1  H22A 5159   0.234   4.037   4.240 -1.2928  0.7018  0.7140
   54CHL1  H22B 5160   0.412   4.020   4.279 -1.3388  0.0817  1.5892
   54CHL1   C23 5161   0.299   4.181   4.372 -0.6580  0.8272  0.4040
   54CHL1  H23A 5162   0.394   4.230   4.405 -1.2016  0.8916  1.9599
   54CHL1  H23B 5163   0.225   4.260   4.346  0.5821  1.7082 -0.5509
   54CHL1   C24 5164   0.255   4.109   4.495  0.2198 -0.0225 -0.0018
   54CHL1  H24A 5165   0.161   4.051   4.485  2.0039 -2.9533 -0.9267
   54CHL1  H24B 5166   0.330   4.028   4.504  0.1227 -0.2894 -1.3773
   54CHL1   C25 5167   0.253   4.189   4.628 -0.2149 -0.4060 -0.3517
   54CHL1   H25 5168   0.361   4.207   4.646  0.2002 -3.0736  0.2226
   54CHL1   C26 5169   0.180   4.322   4.625 -0.1859  0.2004  0.3580
   54CHL1  H26A 5170   0.189   4.375   4.722 -3.0848  1.3176  0.1180
   54CHL1  H26B 5171   0.228   4.399   4.561  1.5154 -0.3251  0.9418
   54CHL1  H26C 5172   0.072   4.311   4.603  0.0230 -1.2673 -0.0293
   54CHL1   C27 5173   0.207   4.099   4.741 -0.2253 -0.3213 -0.5041
   54CHL1  H27A 5174   0.273   4.013   4.765 -1.2072 -0.2315  3.2756
   54CHL1  H27B 5175   0.197   4.159   4.834 -1.9074 -0.4948 -0.5350
   54CHL1  H27C 5176   0.107   4.059   4.713  0.4745 -2.8785  0.3936
   55CHL1    C3 5177   0.662   6.312   2.403  0.4574 -0.5233 -0.5796
   55CHL1    H3 5178   0.632   6.388   2.478  0.3967  0.7422 -1.8402
   55CHL1    O3 5179   0.615   6.366   2.280  0.2586 -0.3648  0.0823
   55CHL1   H3' 5180   0.689   6.405   2.234 -1.0695  0.1968 -1.6784
   55CHL1    C4 5181   0.818   6.304   2.403  0.2285 -0.8803 -0.3113
   55CHL1   H4A 5182   0.858   6.233   2.328  0.0557 -1.4699  0.1506
   55CHL1   H4B 5183   0.859   6.404   2.377  0.5190 -1.0398 -0.4747
   55CHL1    C5 5184   0.866   6.264   2.547  0.5803  0.1762 -0.7579
   55CHL1    C6 5185   0.950   6.342   2.613 -0.0056  0.2387  0.6821
   55CHL1    H6 5186   0.991   6.429   2.559  0.8934  0.9061  2.3720
   55CHL1    C7 5187   1.002   6.323   2.756 -0.3311 -0.0240  0.2698
   55CHL1   H7A 5188   1.112   6.341   2.757 -0.7969  3.5078  0.3581
   55CHL1   H7B 5189   0.959   6.399   2.825 -0.5456  0.4900 -0.4169
   55CHL1    C8 5190   0.956   6.177   2.803 -0.8616 -0.1120  0.6665
   55CHL1    H8 5191   1.030   6.102   2.765 -1.3154 -0.7380  1.0019
   55CHL1   C14 5192   0.964   6.167   2.950 -0.0799  0.3783  0.4528
   55CHL1   H14 5193   0.886   6.242   2.977  0.2023  0.6473  0.5249
   55CHL1   C15 5194   1.092   6.228   3.016  0.3289  0.5305 -0.3321
   55CHL1  H15A 5195   1.177   6.166   2.980 -0.1150 -2.1488  2.7574
   55CHL1  H15B 5196   1.098   6.339   3.008  0.5719  0.6815  1.4020
   55CHL1   C16 5197   1.061   6.185   3.163 -0.3790 -0.1301 -0.1228
   55CHL1  H16A 5198   1.159   6.144   3.194  0.0766  2.3346  2.1456
   55CHL1  H16B 5199   1.054   6.280   3.221  1.7156  0.3946 -0.6471
   55CHL1   C17 5200   0.947   6.081   3.174  0.6071  0.3749  0.0250
   55CHL1   H17 5201   0.855   6.134   3.208  0.9688  0.6035  0.6560
   55CHL1   C13 5202   0.919   6.041   3.025  0.8753  0.5384 -0.5359
   55CHL1   C18 5203   1.014   5.925   2.994  0.2449 -0.0788 -0.0623
   55CHL1  H18A 5204   0.987   5.827   3.040  3.0411  0.3312  2.8468
   55CHL1  H18B 5205   1.008   5.903   2.886 -3.1265 -2.1184  0.4009
   55CHL1  H18C 5206   1.118   5.934   3.034  1.1384 -0.0932 -2.2579
   55CHL1   C12 5207   0.770   6.005   2.977 -0.2056  0.1037  0.5619
   55CHL1  H12A 5208   0.739   5.900   2.996  3.7015 -1.2149  0.6016
   55CHL1  H12B 5209   0.702   6.072   3.034  0.2858  0.5447  0.6466
   55CHL1   C11 5210   0.754   6.008   2.822 -0.3037 -0.0451  0.8018
   55CHL1  H11A 5211   0.791   5.914   2.775 -0.2994  0.4823 -0.2819
   55CHL1  H11B 5212   0.645   6.006   2.802 -0.3751 -0.7301  1.1984
   55CHL1    C9 5213   0.815   6.138   2.758 -0.1997 -0.1903  0.3228
   55CHL1    H9 5214   0.744   6.219   2.785  0.0570 -0.0467  0.5572
   55CHL1   C10 5215   0.796   6.142   2.604 -0.4393  0.4974  0.0533
   55CHL1   C19 5216   0.863   6.016   2.542  0.0157 -0.7804 -0.3852
   55CHL1  H19A 5217   0.878   6.018   2.432  0.7132  1.5646 -0.3057
   55CHL1  H19B 5218   0.959   6.009   2.596 -0.8994  0.5702  1.5617
   55CHL1  H19C 5219   0.806   5.925   2.568 -1.8509  0.5748  0.5542
   55CHL1    C1 5220   0.642   6.140   2.570  0.3584  0.3927 -0.6283
   55CHL1   H1A 5221   0.600   6.039   2.593  2.4763  0.1087  2.6698
   55CHL1   H1B 5222   0.586   6.210   2.635  0.2579 -0.6230  0.4182
   55CHL1    C2 5223   0.604   6.173   2.427 -1.0173  0.2841  0.0734
   55CHL1   H2A 5224   0.494   6.173   2.411 -1.1560  1.3199  0.8993
   55CHL1   H2B 5225   0.652   6.104   2.355  0.2001  1.5270 -0.3570
   55CHL1   C20 5226   0.974   5.967   3.270  0.1272 -0.2643 -0.3193
   55CHL1   H20 5227   1.050   5.897   3.230 -0.3064  0.2694 -2.1673
   55CHL1   C21 5228   0.844   5.884   3.293  0.0553 -0.3089  0.0948
   55CHL1  H21A 5229   0.748   5.939   3.308  1.1909  2.1480 -0.9364
   55CHL1  H21B 5230   0.867   5.831   3.388  1.2382  0.8254  0.4842
   55CHL1  H21C 5231   0.837   5.809   3.212  1.5189 -0.0558 -0.3047
   55CHL1   C22 5232   1.026   6.011   3.413  0.1074  0.6260 -0.2461
   55CHL1  H22A 5233   1.019   5.919   3.476 -4.6837 -0.3698 -1.7920
   55CHL1  H22B 5234   1.128   6.055   3.407  0.1846  0.2605 -2.4056
   55CHL1   C23 5235   0.939   6.120   3.484  0.4362 -0.6340 -0.8979
   55CHL1  H23A 5236   0.938   6.215   3.426  0.3132 -0.9663 -1.4461
   55CHL1  H23B 5237   0.840   6.073   3.498  1.0098 -1.6600 -0.1415
   55CHL1   C24 5238   1.001   6.143   3.618  0.3032  0.3476  0.1693
   55CHL1  H24A 5239   1.013   6.042   3.663  0.3610 -0.0363 -0.6884
   55CHL1  H24B 5240   1.106   6.179   3.610  1.8415 -2.8769  2.8900
   55CHL1   C25 5241   0.923   6.229   3.718  0.0121 -0.3000 -0.2873
   55CHL1   H25 5242   0.823   6.184   3.735 -0.9817  1.8631 -0.0150
   55CHL1   C26 5243   0.982   6.219   3.854  0.1392  0.1839 -0.0017
   55CHL1  H26A 5244   0.993   6.117   3.898 -0.2327  0.4867  0.8079
   55CHL1  H26B 5245   1.086   6.260   3.852  0.6498 -1.0231  0.3687
   55CHL1  H26C 5246   0.926   6.276   3.930  1.5684  0.3964  0.9437
   55CHL1   C27 5247   0.908   6.370   3.669  0.0208 -0.0660 -0.1805
   55CHL1  H27A 5248   1.009   6.414   3.662  1.0020 -1.6076  2.5526
   55CHL1  H27B 5249   0.858   6.385   3.571  0.0073 -2.5107 -0.6080
   55CHL1  H27C 5250   0.848   6.421   3.747  0.0011 -1.1355  0.5352
   56CHL1    C3 5251   3.292   1.530   3.052  0.0786  0.0333 -0.4675
   56CHL1    H3 5252   3.383   1.466   3.049  0.1401 -0.2188  2.8641
   56CHL1    O3 5253   3.262   1.590   2.929 -0.2038 -0.5400 -0.1219
   56CHL1   H3' 5254   3.334   1.652   2.911 -1.9993  1.9968  0.8459
   56CHL1    C4 5255   3.179   1.439   3.102  0.1568 -0.4527 -0.1096
   56CHL1   H4A 5256   3.098   1.515   3.107  1.4312  0.8845  1.0645
   56CHL1   H4B 5257   3.146   1.354   3.038 -0.7982 -1.1522  1.2565
   56CHL1    C5 5258   3.206   1.385   3.241  0.4176  0.5239  0.0970
   56CHL1    C6 5259   3.211   1.257   3.267 -0.8437  0.6532  0.4427
   56CHL1    H6 5260   3.220   1.185   3.184  0.7398  1.9241 -0.5696
   56CHL1    C7 5261   3.228   1.188   3.396 -0.1266  0.0852 -0.3919
   56CHL1   H7A 5262   3.144   1.116   3.405  0.8013 -0.8105  1.8117
   56CHL1   H7B 5263   3.334   1.155   3.396  0.1516  0.8749 -1.8601
   56CHL1    C8 5264   3.221   1.287   3.509  0.3570  0.0739 -0.2412
   56CHL1    H8 5265   3.117   1.323   3.527  0.7732  2.0691 -1.4755
   56CHL1   C14 5266   3.269   1.228   3.640 -0.3773 -0.1416 -0.1135
   56CHL1   H14 5267   3.366   1.188   3.601 -1.4354 -1.4346 -1.5412
   56CHL1   C15 5268   3.194   1.107   3.693 -0.5862  0.0646  0.4644
   56CHL1  H15A 5269   3.085   1.129   3.685 -0.4156  0.3339 -2.0023
   56CHL1  H15B 5270   3.213   1.010   3.643 -1.4961  0.1613 -0.0926
   56CHL1   C16 5271   3.249   1.091   3.838  0.0319 -0.0397  0.7188
   56CHL1  H16A 5272   3.158   1.096   3.902 -1.1667  0.9136 -0.9473
   56CHL1  H16B 5273   3.311   0.999   3.838  0.1656  0.0246 -0.6682
   56CHL1   C17 5274   3.332   1.217   3.865  0.5234  0.1172  0.5590
   56CHL1   H17 5275   3.436   1.182   3.847  0.3349 -1.7884  2.7424
   56CHL1   C13 5276   3.281   1.324   3.764  0.8447 -0.5274 -0.3782
   56CHL1   C18 5277   3.141   1.375   3.804  0.8162  0.6176 -0.3450
   56CHL1  H18A 5278   3.062   1.299   3.824  2.5493 -1.6204 -1.5390
   56CHL1  H18B 5279   3.151   1.431   3.900 -1.4912 -0.6917  0.7412
   56CHL1  H18C 5280   3.094   1.439   3.726  0.7728 -1.2329 -1.9162
   56CHL1   C12 5281   3.371   1.441   3.728 -0.3229 -0.1067 -0.7019
   56CHL1  H12A 5282   3.385   1.520   3.804  1.6112 -1.6151  0.5993
   56CHL1  H12B 5283   3.462   1.378   3.721 -1.2744 -1.7195  0.4267
   56CHL1   C11 5284   3.330   1.508   3.591  0.1226  0.1099  0.3765
   56CHL1  H11A 5285   3.242   1.566   3.626  0.1789 -1.4362  3.3502
   56CHL1  H11B 5286   3.412   1.581   3.571  1.1111 -0.6720  1.4630
   56CHL1    C9 5287   3.298   1.412   3.473 -0.5305 -0.7825 -0.1436
   56CHL1    H9 5288   3.396   1.370   3.441  0.3877 -0.3491  1.9583
   56CHL1   C10 5289   3.233   1.490   3.350 -0.4765 -0.1125 -0.8533
   56CHL1   C19 5290   3.105   1.564   3.392 -0.1651 -0.2133 -0.1315
   56CHL1  H19A 5291   3.122   1.636   3.475 -1.6014 -1.3825  1.2275
   56CHL1  H19B 5292   3.057   1.619   3.308 -1.6311 -0.7874  0.3005
   56CHL1  H19C 5293   3.023   1.507   3.441 -0.8590  3.3423  3.2271
   56CHL1    C1 5294   3.343   1.593   3.291 -0.4558  0.3010 -0.5778
   56CHL1   H1A 5295   3.360   1.679   3.360  0.6625  0.3226 -0.8586
   56CHL1   H1B 5296   3.437   1.533   3.292 -1.0155 -0.6051 -1.3788
   56CHL1    C2 5297   3.310   1.646   3.152  0.1670 -0.0791 -0.0387
   56CHL1   H2A 5298   3.392   1.712   3.118 -1.0017  1.9782  0.9480
   56CHL1   H2B 5299   3.219   1.710   3.152  1.0247  1.2051 -1.4225
   56CHL1   C20 5300   3.336   1.254   4.017  0.1371  0.6651 -0.0491
   56CHL1   H20 5301   3.229   1.271   4.042  0.2534 -1.1604  2.0325
   56CHL1   C21 5302   3.414   1.377   4.046  0.0234 -0.1027 -1.1317
   56CHL1  H21A 5303   3.519   1.366   4.012  0.1483  0.5804 -0.9885
   56CHL1  H21B 5304   3.431   1.379   4.155 -0.5649 -0.2223 -1.0354
   56CHL1  H21C 5305   3.368   1.472   4.010  0.4638  0.0744 -1.2315
   56CHL1   C22 5306   3.387   1.135   4.105 -0.1172 -0.3201  0.1231
   56CHL1  H22A 5307   3.388   1.036   4.055  1.7919 -0.5765  0.5601
   56CHL1  H22B 5308   3.497   1.146   4.122  0.0343  0.2982 -1.1189
   56CHL1   C23 5309   3.327   1.114   4.247 -0.4535  0.0980 -0.0180
   56CHL1  H23A 5310   3.347   1.202   4.311 -1.3754 -0.2737  0.8047
   56CHL1  H23B 5311   3.218   1.105   4.227 -0.6901 -4.0169  2.0583
   56CHL1   C24 5312   3.386   0.995   4.325 -0.2013  0.1003 -0.9060
   56CHL1  H24A 5313   3.436   0.918   4.263 -1.4465 -2.7014  1.3486
   56CHL1  H24B 5314   3.468   1.034   4.389 -0.2624  0.2290 -0.9044
   56CHL1   C25 5315   3.288   0.930   4.429 -0.7715  0.3114  0.2849
   56CHL1   H25 5316   3.258   1.024   4.480 -0.1412  0.2509  0.7894
   56CHL1   C26 5317   3.168   0.859   4.365  0.4044  0.4850  0.0034
   56CHL1  H26A 5318   3.096   0.856   4.450  0.4134 -2.9825  0.0348
   56CHL1  H26B 5319   3.129   0.921   4.282  1.2883 -1.1672 -1.7209
   56CHL1  H26C 5320   3.200   0.756   4.338  0.7555  0.3971  0.7345
   56CHL1   C27 5321   3.357   0.836   4.530 -0.3420  0.4587  0.4207
   56CHL1  H27A 5322   3.287   0.781   4.596 -2.4242  0.1124 -1.9108
   56CHL1  H27B 5323   3.419   0.769   4.466  0.9530  2.4762 -0.5318
   56CHL1  H27C 5324   3.429   0.879   4.603 -0.9462 -0.7651  1.7900
   57CHL1    C3 5325   1.454   6.262   2.518 -0.0523  0.0596 -0.8969
   57CHL1    H3 5326   1.428   6.365   2.551  0.6849  0.2647 -0.9325
   57CHL1    O3 5327   1.407   6.239   2.382 -0.0223  0.4427  0.2787
   57CHL1   H3' 5328   1.411   6.144   2.368 -1.9724  0.6685 -2.4282
   57CHL1    C4 5329   1.604   6.241   2.529  0.2114 -1.3332  0.6695
   57CHL1   H4A 5330   1.626   6.134   2.513  1.3314 -1.1633  0.9403
   57CHL1   H4B 5331   1.643   6.301   2.444 -2.5489  1.3186  1.0816
   57CHL1    C5 5332   1.655   6.273   2.667  0.2210  0.3089 -0.4012
   57CHL1    C6 5333   1.747   6.370   2.686 -0.0329 -0.3319  0.1751
   57CHL1    H6 5334   1.791   6.413   2.595 -3.0927  1.3712 -0.6741
   57CHL1    C7 5335   1.790   6.428   2.820  0.0335 -0.0811  0.0882
   57CHL1   H7A 5336   1.899   6.424   2.840  0.0054 -0.3353  0.1951
   57CHL1   H7B 5337   1.751   6.531   2.835 -0.9671 -0.5046  0.4797
   57CHL1    C8 5338   1.743   6.341   2.941 -0.0466  0.1048  0.7854
   57CHL1    H8 5339   1.810   6.253   2.946  0.7576  0.5204 -1.3974
   57CHL1   C14 5340   1.752   6.423   3.065  0.0218  0.4050  0.6829
   57CHL1   H14 5341   1.671   6.499   3.056 -2.5063 -1.9858  1.6120
   57CHL1   C15 5342   1.875   6.503   3.100 -0.2032  0.3084  0.6244
   57CHL1  H15A 5343   1.956   6.435   3.066  1.5564  2.3583  0.4522
   57CHL1  H15B 5344   1.892   6.595   3.039  1.7249  0.2558  1.0211
   57CHL1   C16 5345   1.871   6.529   3.246 -0.2128  0.6453  0.2898
   57CHL1  H16A 5346   1.965   6.508   3.301 -0.1757  1.2896  0.4845
   57CHL1  H16B 5347   1.875   6.640   3.250  1.0443  0.7518 -2.0634
   57CHL1   C17 5348   1.745   6.467   3.302  0.8955  0.4505  0.0285
   57CHL1   H17 5349   1.664   6.542   3.291  0.0884 -0.7336 -3.8240
   57CHL1   C13 5350   1.710   6.357   3.199  0.0785 -0.4912  0.1748
   57CHL1   C18 5351   1.800   6.222   3.222 -0.0337 -0.0101 -0.0561
   57CHL1  H18A 5352   1.805   6.158   3.132 -1.1987 -1.8636  1.1237
   57CHL1  H18B 5353   1.901   6.255   3.253  0.6938 -1.5512 -0.7118
   57CHL1  H18C 5354   1.744   6.163   3.298 -0.1660  0.5297  0.2722
   57CHL1   C12 5355   1.562   6.315   3.178  0.3102 -0.2941  0.0997
   57CHL1  H12A 5356   1.524   6.250   3.260  0.0219 -0.0684  0.1437
   57CHL1  H12B 5357   1.504   6.410   3.179  1.9902  0.8254 -1.6801
   57CHL1   C11 5358   1.540   6.236   3.048  0.7933  0.6692 -0.6973
   57CHL1  H11A 5359   1.588   6.136   3.062 -0.9081 -0.0978 -0.1265
   57CHL1  H11B 5360   1.432   6.212   3.039  0.7598  0.8733 -0.8490
   57CHL1    C9 5361   1.597   6.288   2.914  0.1912  0.2350 -1.0026
   57CHL1    H9 5362   1.546   6.386   2.903  4.5732  2.8530 -0.5424
   57CHL1   C10 5363   1.576   6.208   2.783  0.1205  0.6279 -0.1825
   57CHL1   C19 5364   1.635   6.071   2.797  0.2750  0.2369 -0.0445
   57CHL1  H19A 5365   1.609   6.013   2.706  0.0565  1.9878 -1.1566
   57CHL1  H19B 5366   1.746   6.077   2.793  0.4050  0.0145  2.2362
   57CHL1  H19C 5367   1.610   6.013   2.888  2.0249  0.4584  0.6284
   57CHL1    C1 5368   1.422   6.214   2.747  0.2251 -0.0739  0.3042
   57CHL1   H1A 5369   1.366   6.162   2.828  2.7363 -0.0546  2.1790
   57CHL1   H1B 5370   1.384   6.318   2.755  1.2271  0.2774  0.7403
   57CHL1    C2 5371   1.381   6.169   2.609 -0.4065 -0.0225  0.9678
   57CHL1   H2A 5372   1.272   6.178   2.595  0.0914  1.1687 -4.5143
   57CHL1   H2B 5373   1.406   6.065   2.579  1.6529  1.3258 -2.6321
   57CHL1   C20 5374   1.754   6.420   3.448  0.6432  0.2791 -0.2612
   57CHL1   H20 5375   1.816   6.328   3.455 -0.1766 -0.2696  0.0383
   57CHL1   C21 5376   1.608   6.381   3.498 -0.3505 -0.3980 -0.5302
   57CHL1  H21A 5377   1.547   6.474   3.494  0.9764  0.5025 -0.6914
   57CHL1  H21B 5378   1.613   6.335   3.599  0.7575 -1.4862 -1.0471
   57CHL1  H21C 5379   1.554   6.311   3.432 -2.4645  1.5110 -0.9674
   57CHL1   C22 5380   1.834   6.521   3.540  0.5129  0.3260  0.3241
   57CHL1  H22A 5381   1.944   6.510   3.530  0.6164  1.7223 -0.3698
   57CHL1  H22B 5382   1.812   6.623   3.502  0.7337  0.3825  0.3504
   57CHL1   C23 5383   1.792   6.510   3.691 -0.7478  0.6630 -0.0788
   57CHL1  H23A 5384   1.685   6.541   3.697 -1.0227  0.1661 -1.7905
   57CHL1  H23B 5385   1.799   6.401   3.714 -1.9213  0.0135 -2.5078
   57CHL1   C24 5386   1.868   6.594   3.791  0.0915 -0.4460  0.1869
   57CHL1  H24A 5387   1.976   6.566   3.793  0.3239  0.2689 -1.2333
   57CHL1  H24B 5388   1.871   6.700   3.756  3.1842  0.3731  2.4841
   57CHL1   C25 5389   1.805   6.604   3.934  0.4235 -0.4045  0.3216
   57CHL1   H25 5390   1.696   6.614   3.916  0.7950  1.6289 -1.0868
   57CHL1   C26 5391   1.838   6.481   4.018  1.1932 -0.2184  0.4288
   57CHL1  H26A 5392   1.807   6.490   4.124  1.0464 -0.8609  0.4419
   57CHL1  H26B 5393   1.799   6.393   3.963  0.3936  0.5557 -0.2721
   57CHL1  H26C 5394   1.949   6.467   4.021  1.1370 -0.6262  0.6224
   57CHL1   C27 5395   1.843   6.732   4.010  0.4503  0.0968  0.0934
   57CHL1  H27A 5396   1.791   6.818   3.964  0.0281  0.2379  0.8283
   57CHL1  H27B 5397   1.795   6.731   4.110  0.3392  0.0573  0.0396
   57CHL1  H27C 5398   1.954   6.735   4.018  0.6184 -1.5391 -0.9932
   58CHL1    C3 5399   5.127   4.800   3.012 -0.0251  0.1179 -0.4715
   58CHL1    H3 5400   5.018   4.813   2.996  0.3075  1.2339 -1.9138
   58CHL1    O3 5401   5.188   4.777   2.888 -0.3578  0.3354  0.4662
   58CHL1   H3' 5402   5.280   4.804   2.901 -0.3179  0.6304 -0.4109
   58CHL1    C4 5403   5.189   4.932   3.071 -0.2411 -0.0917 -0.1223
   58CHL1   H4A 5404   5.300   4.926   3.066 -0.1916 -1.3021  1.5815
   58CHL1   H4B 5405   5.160   5.008   2.996  1.8151  0.9491  0.0621
   58CHL1    C5 5406   5.145   4.956   3.216 -0.3533  0.3990 -0.1023
   58CHL1    C6 5407   5.092   5.072   3.253  1.1005  0.0127 -0.0910
   58CHL1    H6 5408   5.083   5.145   3.171  2.4930 -1.0881 -1.2730
   58CHL1    C7 5409   5.056   5.110   3.395 -0.3503 -0.2907 -0.3659
   58CHL1   H7A 5410   5.101   5.208   3.422  0.5350 -0.8476  0.2387
   58CHL1   H7B 5411   4.947   5.129   3.400 -0.1220  1.5534 -1.4228
   58CHL1    C8 5412   5.093   5.008   3.503 -0.1650 -0.3422 -0.5415
   58CHL1    H8 5413   5.199   5.029   3.530 -0.6313 -1.1488  2.1818
   58CHL1   C14 5414   5.001   5.031   3.626 -0.4350 -0.9788  0.4492
   58CHL1   H14 5415   4.897   5.014   3.591 -0.1585  0.1717 -1.0255
   58CHL1   C15 5416   4.992   5.166   3.694 -0.2816  0.3484 -0.1352
   58CHL1  H15A 5417   5.094   5.210   3.692  0.3352 -1.0182  0.3421
   58CHL1  H15B 5418   4.934   5.236   3.630 -0.7847  1.0677  1.0655
   58CHL1   C16 5419   4.927   5.145   3.825  0.4066  0.4875 -0.4604
   58CHL1  H16A 5420   5.000   5.183   3.899  0.4514  1.5404 -1.0378
   58CHL1  H16B 5421   4.831   5.200   3.826 -0.4447 -0.8754 -1.6336
   58CHL1   C17 5422   4.915   4.989   3.847  0.1259 -0.0861  0.6112
   58CHL1   H17 5423   4.813   4.954   3.822  0.1103  1.3239 -1.5251
   58CHL1   C13 5424   5.012   4.925   3.738 -0.5669 -0.4377  0.4676
   58CHL1   C18 5425   5.158   4.928   3.794  0.3686  0.3859 -0.1173
   58CHL1  H18A 5426   5.189   5.031   3.823 -1.1075  0.8880 -0.1932
   58CHL1  H18B 5427   5.160   4.872   3.889 -1.9606  1.1627  0.4737
   58CHL1  H18C 5428   5.224   4.878   3.721  1.4272 -1.6020  2.0755
   58CHL1   C12 5429   4.982   4.787   3.679  0.4608  0.4176 -0.0953
   58CHL1  H12A 5430   4.991   4.712   3.760 -0.2291 -0.2920 -0.6682
   58CHL1  H12B 5431   4.877   4.788   3.644 -0.3162  0.2951  2.0430
   58CHL1   C11 5432   5.072   4.751   3.552  0.3499  0.2264 -0.8178
   58CHL1  H11A 5433   5.176   4.725   3.583  0.5116  0.2651 -1.3073
   58CHL1  H11B 5434   5.027   4.655   3.518 -0.5961  0.8763 -1.4511
   58CHL1    C9 5435   5.073   4.864   3.446  0.4620  0.2940 -0.5256
   58CHL1    H9 5436   4.967   4.870   3.412 -0.3286 -2.2920  1.1701
   58CHL1   C10 5437   5.156   4.844   3.318  0.0444  0.1502  0.1901
   58CHL1   C19 5438   5.303   4.810   3.364 -0.2090 -1.2477 -0.4558
   58CHL1  H19A 5439   5.316   4.722   3.430 -0.1047 -1.7686 -1.1571
   58CHL1  H19B 5440   5.368   4.805   3.274  0.6821 -0.9329  0.1642
   58CHL1  H19C 5441   5.335   4.893   3.430 -0.2099 -0.0553 -1.8973
   58CHL1    C1 5442   5.104   4.714   3.257  0.6397 -0.1942 -0.3116
   58CHL1   H1A 5443   5.128   4.631   3.327 -0.0137  0.5225  0.7912
   58CHL1   H1B 5444   4.993   4.725   3.264  0.7102 -0.4427  2.0132
   58CHL1    C2 5445   5.150   4.684   3.117  0.3721 -0.5663  0.4744
   58CHL1   H2A 5446   5.100   4.604   3.058  0.0750  0.7557 -1.1461
   58CHL1   H2B 5447   5.255   4.647   3.119  0.4073 -0.4562  1.8435
   58CHL1   C20 5448   4.942   4.950   3.995  0.1170 -0.5725 -1.0493
   58CHL1   H20 5449   5.049   4.967   4.020 -0.1767  1.3867 -0.9633
   58CHL1   C21 5450   4.902   4.804   4.014  0.6766  0.2493 -0.8145
   58CHL1  H21A 5451   4.796   4.784   3.987  0.5218 -0.2161  0.1015
   58CHL1  H21B 5452   4.903   4.774   4.120  0.6514  1.3686 -0.4839
   58CHL1  H21C 5453   4.966   4.734   3.956 -0.2059 -2.1693  0.9861
   58CHL1   C22 5454   4.861   5.042   4.096  0.1661 -0.2342 -0.1643
   58CHL1  H22A 5455   4.869   4.995   4.197  0.0832 -2.5457 -1.1884
   58CHL1  H22B 5456   4.904   5.145   4.093  0.1311 -0.2228 -0.2485
   58CHL1   C23 5457   4.713   5.046   4.061  0.7047 -0.8111  1.0845
   58CHL1  H23A 5458   4.694   5.114   3.976 -0.6813  0.0697  2.0486
   58CHL1  H23B 5459   4.679   4.947   4.024  0.1464 -0.0172 -0.6424
   58CHL1   C24 5460   4.619   5.095   4.178  0.4093  0.2915 -0.3202
   58CHL1  H24A 5461   4.621   5.025   4.264  1.2604 -0.1348 -0.6871
   58CHL1  H24B 5462   4.671   5.187   4.212  2.2361  0.1654 -2.5528
   58CHL1   C25 5463   4.468   5.123   4.144  0.5157  0.4443  0.1892
   58CHL1   H25 5464   4.461   5.183   4.050 -1.8643  0.5446  0.3755
   58CHL1   C26 5465   4.399   4.987   4.127 -0.2645  0.0925 -0.1453
   58CHL1  H26A 5466   4.449   4.928   4.048  2.3466  1.0827  0.6730
   58CHL1  H26B 5467   4.409   4.915   4.211 -0.1453  0.5155  0.2058
   58CHL1  H26C 5468   4.290   5.002   4.113 -0.0654  1.1541 -0.6960
   58CHL1   C27 5469   4.407   5.207   4.259  0.4521  0.1758  0.0653
   58CHL1  H27A 5470   4.309   5.249   4.229 -0.4895 -2.2839 -0.5442
   58CHL1  H27B 5471   4.391   5.146   4.351  1.4638  1.7796  1.3564
   58CHL1  H27C 5472   4.479   5.285   4.293  0.0304  0.5364  0.1478
   59CHL1    C3 5473   4.333   5.591   2.585 -0.0465  0.3460 -0.6942
   59CHL1    H3 5474   4.237   5.537   2.597  0.5546 -0.5631  0.1527
   59CHL1    O3 5475   4.380   5.572   2.453  0.1911  0.0453 -0.2857
   59CHL1   H3' 5476   4.303   5.597   2.402 -1.0492 -2.5181  0.1783
   59CHL1    C4 5477   4.310   5.736   2.616 -0.1170  0.3327  0.2965
   59CHL1   H4A 5478   4.411   5.781   2.606  1.1366 -2.4184 -0.4510
   59CHL1   H4B 5479   4.244   5.789   2.544 -1.1889  1.1004  1.7975
   59CHL1    C5 5480   4.261   5.748   2.763 -0.2223  1.1656 -0.6946
   59CHL1    C6 5481   4.147   5.805   2.803  0.6888 -0.0941 -0.0816
   59CHL1    H6 5482   4.080   5.855   2.732 -0.1069  0.6401  1.1508
   59CHL1    C7 5483   4.098   5.811   2.947  0.7205 -0.0852 -0.3086
   59CHL1   H7A 5484   4.061   5.910   2.983  2.5754 -0.2782  2.4906
   59CHL1   H7B 5485   4.024   5.730   2.962 -0.4702  0.6098 -2.0758
   59CHL1    C8 5486   4.208   5.783   3.053  0.5463  0.3064  0.0185
   59CHL1    H8 5487   4.280   5.867   3.045  2.2705 -1.2162 -1.2617
   59CHL1   C14 5488   4.155   5.775   3.197 -0.6462  0.2836 -0.5219
   59CHL1   H14 5489   4.088   5.686   3.198  1.6224 -1.5403 -1.7166
   59CHL1   C15 5490   4.069   5.892   3.245 -0.0833  0.3464 -0.6599
   59CHL1  H15A 5491   4.125   5.986   3.230 -0.0872  0.3123 -0.8957
   59CHL1  H15B 5492   3.972   5.899   3.191  0.0964 -0.0608 -1.0387
   59CHL1   C16 5493   4.049   5.850   3.398 -0.4949  0.1773  0.1705
   59CHL1  H16A 5494   4.073   5.946   3.449 -0.8785  0.4851 -0.2178
   59CHL1  H16B 5495   3.948   5.811   3.424 -0.7484  0.7912  0.1225
   59CHL1   C17 5496   4.157   5.740   3.424 -0.8912  0.3173 -0.0378
   59CHL1   H17 5497   4.109   5.639   3.427 -1.3063  0.4893 -0.6601
   59CHL1   C13 5498   4.247   5.738   3.305 -0.7524  0.0967 -0.5232
   59CHL1   C18 5499   4.348   5.852   3.328  0.5162 -0.1634 -1.0612
   59CHL1  H18A 5500   4.396   5.877   3.231 -0.1049 -0.6997 -1.5175
   59CHL1  H18B 5501   4.307   5.949   3.364 -0.7215 -0.6403 -1.1157
   59CHL1  H18C 5502   4.424   5.816   3.400  0.1182 -1.7495 -1.4132
   59CHL1   C12 5503   4.320   5.606   3.267  0.8578  0.1892 -0.4087
   59CHL1  H12A 5504   4.412   5.582   3.324  0.3563 -2.0860 -0.4739
   59CHL1  H12B 5505   4.247   5.523   3.257  0.6230  0.0764  1.8653
   59CHL1   C11 5506   4.374   5.612   3.126 -0.8028 -0.0295  0.3656
   59CHL1  H11A 5507   4.456   5.685   3.141  1.5858 -2.3834 -0.3734
   59CHL1  H11B 5508   4.420   5.512   3.109  0.8587  0.7640 -0.0123
   59CHL1    C9 5509   4.283   5.657   3.011  0.0752  0.4441 -0.0389
   59CHL1    H9 5510   4.204   5.581   2.994  0.2737  0.4329 -0.9767
   59CHL1   C10 5511   4.356   5.674   2.870  1.4393 -0.3673 -0.0294
   59CHL1   C19 5512   4.477   5.766   2.878  0.1206 -0.0664 -0.3955
   59CHL1  H19A 5513   4.515   5.799   2.780  0.0291 -0.3006 -0.5091
   59CHL1  H19B 5514   4.455   5.857   2.939  1.0158 -0.4106  0.4733
   59CHL1  H19C 5515   4.560   5.718   2.934  1.7779  0.5385 -2.2340
   59CHL1    C1 5516   4.393   5.531   2.825  0.0242  0.0871 -0.2323
   59CHL1   H1A 5517   4.480   5.497   2.885 -1.3471 -0.1671  1.7036
   59CHL1   H1B 5518   4.304   5.467   2.842 -0.2387  0.6518  0.6047
   59CHL1    C2 5519   4.445   5.530   2.681 -0.1772  0.2913 -0.6576
   59CHL1   H2A 5520   4.459   5.425   2.647  0.3725  0.8105 -2.1311
   59CHL1   H2B 5521   4.533   5.597   2.666  0.8287 -1.3214 -2.5978
   59CHL1   C20 5522   4.213   5.751   3.565  0.4056 -0.0019  0.4596
   59CHL1   H20 5523   4.279   5.841   3.571  0.4277 -0.0593  1.1211
   59CHL1   C21 5524   4.303   5.632   3.594 -0.3012 -0.4292  0.1202
   59CHL1  H21A 5525   4.339   5.644   3.698  0.9971 -2.6696 -0.0013
   59CHL1  H21B 5526   4.393   5.637   3.529 -1.2708  1.9915 -1.1425
   59CHL1  H21C 5527   4.254   5.532   3.587 -1.2354  0.0052  0.3353
   59CHL1   C22 5528   4.103   5.758   3.678 -0.4857 -0.0326  1.2103
   59CHL1  H22A 5529   4.036   5.845   3.667 -2.3734 -1.3827  1.5381
   59CHL1  H22B 5530   4.044   5.664   3.665 -1.0649  0.1840  2.1446
   59CHL1   C23 5531   4.152   5.764   3.821 -0.2945 -0.0344  0.5123
   59CHL1  H23A 5532   4.186   5.660   3.841 -1.3510 -0.9472 -2.0902
   59CHL1  H23B 5533   4.231   5.842   3.834  0.5522 -0.8349  0.2772
   59CHL1   C24 5534   4.039   5.804   3.913  0.5284  0.4144  0.8196
   59CHL1  H24A 5535   3.999   5.901   3.876 -1.0788 -0.2715  0.6875
   59CHL1  H24B 5536   3.970   5.719   3.895  0.7361  0.5656 -0.7967
   59CHL1   C25 5537   4.092   5.811   4.058  0.5794  0.2911  0.9009
   59CHL1   H25 5538   4.170   5.732   4.061 -0.4673 -0.7949  0.4875
   59CHL1   C26 5539   4.172   5.942   4.088 -0.6739 -0.6005  0.2109
   59CHL1  H26A 5540   4.099   6.025   4.089 -3.3385 -2.8010  0.0179
   59CHL1  H26B 5541   4.226   5.938   4.184  1.1183  0.9053 -0.6821
   59CHL1  H26C 5542   4.242   5.978   4.010 -2.2521  1.7559 -0.2110
   59CHL1   C27 5543   3.974   5.776   4.145 -0.2252 -0.3691  0.1964
   59CHL1  H27A 5544   3.902   5.860   4.139  2.5918  2.1955 -0.4787
   59CHL1  H27B 5545   3.922   5.691   4.097 -0.6282 -0.1477  0.2432
   59CHL1  H27C 5546   3.999   5.745   4.248  1.6096  2.6582  0.8137
   60CHL1    C3 5547   6.855   5.551   3.071  0.2866 -1.0271  0.7680
   60CHL1    H3 5548   6.960   5.532   3.101  1.0114 -2.1317 -2.1641
   60CHL1    O3 5549   6.826   5.474   2.959 -0.1493  0.8843  0.1106
   60CHL1   H3' 5550   6.851   5.384   2.980 -0.4100 -0.0960 -3.1935
   60CHL1    C4 5551   6.767   5.510   3.180  0.4400  0.4416 -0.4714
   60CHL1   H4A 5552   6.658   5.523   3.161 -0.5363 -0.6817  3.4129
   60CHL1   H4B 5553   6.791   5.402   3.186  2.4939  0.8764 -0.2002
   60CHL1    C5 5554   6.814   5.589   3.303  0.5576 -0.0454 -0.2606
   60CHL1    C6 5555   6.861   5.513   3.407 -0.2173 -0.2965 -0.1041
   60CHL1    H6 5556   6.863   5.404   3.395  1.5918 -0.0759 -2.4303
   60CHL1    C7 5557   6.903   5.569   3.537  0.0823 -0.1332  0.2501
   60CHL1   H7A 5558   6.870   5.509   3.624  1.3866  0.3782  1.1255
   60CHL1   H7B 5559   7.014   5.574   3.543  0.0778  0.9200 -0.3414
   60CHL1    C8 5560   6.847   5.711   3.561  0.1640 -0.2843  0.7366
   60CHL1    H8 5561   6.736   5.704   3.569  0.2475  0.4811  3.7777
   60CHL1   C14 5562   6.904   5.790   3.681  0.2572  0.4817  0.2174
   60CHL1   H14 5563   7.011   5.800   3.651  0.4949  0.3747  1.0117
   60CHL1   C15 5564   6.924   5.731   3.822 -0.0769  0.0282  0.6074
   60CHL1  H15A 5565   6.848   5.655   3.849 -0.9944  0.7611  0.1711
   60CHL1  H15B 5566   7.018   5.673   3.824 -0.2497 -0.2954 -0.0698
   60CHL1   C16 5567   6.926   5.848   3.916 -0.0841  0.3333  0.0146
   60CHL1  H16A 5568   6.842   5.832   3.987 -0.5974  1.5353 -0.3028
   60CHL1  H16B 5569   7.017   5.829   3.975  0.3900  2.0436 -0.1180
   60CHL1   C17 5570   6.921   5.981   3.827 -0.1350 -0.3955 -0.9416
   60CHL1   H17 5571   7.020   6.010   3.785  0.9376 -2.0696  0.3070
   60CHL1   C13 5572   6.845   5.933   3.697 -0.2165  0.0274 -0.1224
   60CHL1   C18 5573   6.694   5.928   3.725  1.0411  0.4377 -0.3044
   60CHL1  H18A 5574   6.664   6.035   3.732  2.5105  0.8263  0.2767
   60CHL1  H18B 5575   6.639   5.895   3.635  1.0504 -1.8280  0.4675
   60CHL1  H18C 5576   6.648   5.881   3.815  2.0591  1.5945  0.8797
   60CHL1   C12 5577   6.877   6.019   3.571 -0.3918  0.0013  0.6459
   60CHL1  H12A 5578   6.841   6.124   3.579  2.1235  1.0817 -0.7029
   60CHL1  H12B 5579   6.988   6.029   3.561 -0.5676  1.4117 -0.1426
   60CHL1   C11 5580   6.816   5.949   3.445 -0.1160  0.1030 -0.5443
   60CHL1  H11A 5581   6.707   5.965   3.459 -0.0529 -0.6774  1.1398
   60CHL1  H11B 5582   6.839   6.000   3.350  0.0828  0.0862 -0.5043
   60CHL1    C9 5583   6.861   5.799   3.435  0.5689  0.3595  0.7552
   60CHL1    H9 5584   6.971   5.802   3.416  0.3878  3.6839 -0.5301
   60CHL1   C10 5585   6.800   5.736   3.305 -0.2568 -0.2243 -0.1070
   60CHL1   C19 5586   6.647   5.768   3.308 -0.6742 -0.9520  0.4115
   60CHL1  H19A 5587   6.590   5.710   3.232 -0.0208 -0.0585 -0.8008
   60CHL1  H19B 5588   6.600   5.759   3.408  0.5682  0.8157  1.2131
   60CHL1  H19C 5589   6.630   5.874   3.276  1.3491 -0.9357 -0.7849
   60CHL1    C1 5590   6.877   5.785   3.176 -0.7516 -0.0661 -0.4351
   60CHL1   H1A 5591   6.875   5.895   3.159 -1.0756 -0.0003  0.0276
   60CHL1   H1B 5592   6.985   5.761   3.179 -0.6580  0.4295  0.4148
   60CHL1    C2 5593   6.841   5.706   3.044 -0.1874  0.5120 -0.4206
   60CHL1   H2A 5594   6.903   5.719   2.953 -0.3422 -0.0586 -0.6113
   60CHL1   H2B 5595   6.734   5.721   3.018 -0.2715 -1.1242 -1.1459
   60CHL1   C20 5596   6.867   6.104   3.893  0.9781 -0.5232 -0.0245
   60CHL1   H20 5597   6.824   6.168   3.813  3.7188  1.9497  0.3004
   60CHL1   C21 5598   6.977   6.184   3.956  0.1185 -0.1885  1.0112
   60CHL1  H21A 5599   7.067   6.203   3.893 -0.8411  2.7068  0.3394
   60CHL1  H21B 5600   7.000   6.125   4.047  1.9041 -2.7573 -0.9789
   60CHL1  H21C 5601   6.946   6.290   3.969 -0.9192 -0.4945  1.1114
   60CHL1   C22 5602   6.760   6.091   4.005 -0.2449  0.0166 -0.1906
   60CHL1  H22A 5603   6.672   6.031   3.973 -0.3381  0.4102 -0.6929
   60CHL1  H22B 5604   6.801   6.049   4.099  1.9507  0.6439 -0.8203
   60CHL1   C23 5605   6.685   6.225   4.027 -0.1036  0.4693 -0.2290
   60CHL1  H23A 5606   6.750   6.305   4.067 -0.2792  0.9043 -0.7950
   60CHL1  H23B 5607   6.661   6.254   3.922  0.8299 -0.9199 -0.8481
   60CHL1   C24 5608   6.558   6.211   4.113 -0.2228  0.0762 -0.4628
   60CHL1  H24A 5609   6.504   6.121   4.078  1.2422 -0.6057 -1.0377
   60CHL1  H24B 5610   6.596   6.189   4.215  0.6685  0.9084 -0.6029
   60CHL1   C25 5611   6.464   6.332   4.111 -0.0654  0.0586 -0.2434
   60CHL1   H25 5612   6.519   6.428   4.116 -0.1126  0.0486  0.6178
   60CHL1   C26 5613   6.386   6.338   3.977 -0.0371 -0.0783 -0.4776
   60CHL1  H26A 5614   6.364   6.242   3.923 -2.0868  0.5265 -0.7932
   60CHL1  H26B 5615   6.285   6.379   3.997  0.2679  0.2285  0.4425
   60CHL1  H26C 5616   6.434   6.412   3.910  0.9929  0.9267  1.3051
   60CHL1   C27 5617   6.375   6.326   4.239  0.4125 -0.0613  0.4844
   60CHL1  H27A 5618   6.443   6.303   4.323  1.5645  2.2481  0.2634
   60CHL1  H27B 5619   6.323   6.424   4.240 -1.1291 -0.7657 -1.8284
   60CHL1  H27C 5620   6.295   6.249   4.239  0.2663  0.0880  1.3483
   61CHL1    C3 5621   0.258   0.087   2.529 -0.6433  0.2217  0.0893
   61CHL1    H3 5622   0.260  -0.024   2.520 -0.9528  0.1672  0.6689
   61CHL1    O3 5623   0.268   0.137   2.397  0.6168  0.0865  0.1548
   61CHL1   H3' 5624   0.278   0.232   2.400  0.9320  0.3584 -4.2028
   61CHL1    C4 5625   0.126   0.148   2.586  0.6229 -0.2389  0.7760
   61CHL1   H4A 5626   0.131   0.258   2.579 -1.2213 -0.2001 -0.5555
   61CHL1   H4B 5627   0.047   0.116   2.515  2.6384 -0.6133 -1.4167
   61CHL1    C5 5628   0.125   0.103   2.734  0.3875  0.3964 -0.2221
   61CHL1    C6 5629   0.024   0.029   2.780  0.1146 -0.0990 -0.3363
   61CHL1    H6 5630  -0.060  -0.003   2.716  1.6669 -1.0018 -2.0383
   61CHL1    C7 5631   0.027  -0.017   2.921 -0.0462 -0.2554  0.5691
   61CHL1   H7A 5632  -0.078  -0.034   2.952 -0.2117 -0.4113 -0.0693
   61CHL1   H7B 5633   0.075  -0.117   2.915 -0.4989 -0.4390 -0.1556
   61CHL1    C8 5634   0.093   0.085   3.012 -0.1565 -0.3508  0.3186
   61CHL1    H8 5635   0.041   0.183   3.003  1.4919  0.5305  0.0871
   61CHL1   C14 5636   0.095   0.025   3.152  0.2030 -0.1260 -0.0662
   61CHL1   H14 5637   0.149  -0.072   3.142 -1.4028 -0.8169 -3.5226
   61CHL1   C15 5638  -0.039  -0.018   3.224 -0.0228 -0.4859 -0.5746
   61CHL1  H15A 5639  -0.110   0.058   3.186  0.7554 -0.3222 -1.7640
   61CHL1  H15B 5640  -0.054  -0.123   3.191  1.1734 -0.9517  0.2951
   61CHL1   C16 5641   0.002  -0.005   3.378 -0.1794  0.6075  0.5814
   61CHL1  H16A 5642  -0.039   0.087   3.425  0.8250  0.3665  2.0150
   61CHL1  H16B 5643  -0.035  -0.087   3.444 -0.5913  0.4716  0.1876
   61CHL1   C17 5644   0.158   0.005   3.381 -0.8516 -0.6571 -0.2269
   61CHL1   H17 5645   0.201  -0.095   3.358  2.3202  0.3429  0.7438
   61CHL1   C13 5646   0.183   0.098   3.255 -0.3762 -0.5535 -0.4097
   61CHL1   C18 5647   0.119   0.241   3.284  0.0392  0.6283  0.7331
   61CHL1  H18A 5648   0.145   0.309   3.199 -0.1577 -0.8428 -0.5511
   61CHL1  H18B 5649   0.008   0.239   3.284 -0.0142  1.0997 -1.3302
   61CHL1  H18C 5650   0.140   0.278   3.386  0.4361  3.5646 -0.2937
   61CHL1   C12 5651   0.326   0.108   3.202 -0.5941 -0.1882 -0.8750
   61CHL1  H12A 5652   0.378   0.175   3.274 -2.4111 -1.1398  1.4726
   61CHL1  H12B 5653   0.375   0.009   3.195 -0.2645 -0.4455  2.8542
   61CHL1   C11 5654   0.335   0.162   3.060  0.9302  0.3085 -0.6006
   61CHL1  H11A 5655   0.313   0.270   3.072  0.2296 -0.0691  2.0018
   61CHL1  H11B 5656   0.441   0.160   3.025  1.1223 -0.6847 -0.0013
   61CHL1    C9 5657   0.234   0.097   2.961  0.0338  0.6320 -0.7659
   61CHL1    H9 5658   0.264  -0.010   2.952 -1.0334  0.2822 -0.3041
   61CHL1   C10 5659   0.248   0.152   2.818  0.1979 -0.1997 -0.2881
   61CHL1   C19 5660   0.242   0.304   2.826 -0.1016  0.0697  0.4552
   61CHL1  H19A 5661   0.222   0.360   2.732 -0.0594 -1.3673 -0.4270
   61CHL1  H19B 5662   0.169   0.330   2.905  0.5103  2.3455  0.3468
   61CHL1  H19C 5663   0.339   0.342   2.866 -0.9112  2.8851 -0.0398
   61CHL1    C1 5664   0.383   0.099   2.756 -0.2976 -0.0411 -0.2220
   61CHL1   H1A 5665   0.470   0.146   2.806  2.4270 -1.4803 -3.2510
   61CHL1   H1B 5666   0.381  -0.012   2.770 -1.6233  0.3379  4.6870
   61CHL1    C2 5667   0.388   0.135   2.607  0.4135  0.1281  0.5699
   61CHL1   H2A 5668   0.467   0.075   2.557  0.7716  1.2343 -0.2295
   61CHL1   H2B 5669   0.394   0.245   2.592 -2.3322  0.2288 -0.5451
   61CHL1   C20 5670   0.226   0.064   3.507 -0.2405 -0.6039 -0.0097
   61CHL1   H20 5671   0.240   0.174   3.498 -1.1553 -0.5881 -1.6390
   61CHL1   C21 5672   0.372   0.011   3.513  0.4400  0.4111 -0.2018
   61CHL1  H21A 5673   0.435   0.027   3.422  1.4354 -0.0798  0.3875
   61CHL1  H21B 5674   0.374  -0.096   3.543  3.7292  1.1593  2.9595
   61CHL1  H21C 5675   0.426   0.071   3.590  1.0785  2.1977 -1.9404
   61CHL1   C22 5676   0.157   0.026   3.642 -0.2176  0.1530 -1.0428
   61CHL1  H22A 5677   0.053   0.063   3.636 -1.0513 -2.0639 -1.1999
   61CHL1  H22B 5678   0.136  -0.083   3.653  0.9219 -0.0957 -1.2067
   61CHL1   C23 5679   0.224   0.076   3.766  0.2176 -0.2679  0.1352
   61CHL1  H23A 5680   0.328   0.041   3.776  1.4694  2.5408 -1.7562
   61CHL1  H23B 5681   0.215   0.187   3.771 -1.6138 -0.4333  1.7503
   61CHL1   C24 5682   0.151   0.027   3.898 -0.4922  0.2138  0.2474
   61CHL1  H24A 5683   0.042   0.050   3.900 -0.8866 -1.4417 -0.2715
   61CHL1  H24B 5684   0.171  -0.082   3.904 -0.8082  0.1522  0.2236
   61CHL1   C25 5685   0.204   0.095   4.021 -0.1144  0.3852 -1.0448
   61CHL1   H25 5686   0.315   0.101   4.015  0.0439 -1.0748 -0.0715
   61CHL1   C26 5687   0.142   0.234   4.041 -0.5768 -0.0951  0.2628
   61CHL1  H26A 5688   0.036   0.240   4.010 -1.1421 -2.5484  1.4638
   61CHL1  H26B 5689   0.138   0.259   4.150  1.3415 -1.5923  0.7427
   61CHL1  H26C 5690   0.212   0.307   3.996  0.0035 -1.7551 -1.6690
   61CHL1   C27 5691   0.188   0.010   4.155 -0.0533 -0.7353  0.0043
   61CHL1  H27A 5692   0.252  -0.082   4.150 -1.7649 -1.9206 -1.1071
   61CHL1  H27B 5693   0.216   0.067   4.247 -0.2047 -0.0843 -0.3497
   61CHL1  H27C 5694   0.082  -0.023   4.150  0.5239 -2.4390 -3.2327
   62CHL1    C3 5695   2.568   0.491   2.785  0.1127 -0.5133  0.7795
   62CHL1    H3 5696   2.673   0.477   2.816  0.2696  0.7783  0.9073
   62CHL1    O3 5697   2.545   0.489   2.647  0.1163  0.5249 -0.0080
   62CHL1   H3' 5698   2.482   0.418   2.633 -0.0196  0.7468 -0.5348
   62CHL1    C4 5699   2.487   0.378   2.852 -0.0913  0.3997 -0.8639
   62CHL1   H4A 5700   2.379   0.385   2.825 -0.3367 -1.6280 -0.5912
   62CHL1   H4B 5701   2.522   0.288   2.797  4.2288  0.6836  1.0119
   62CHL1    C5 5702   2.512   0.373   3.003  0.9983 -0.3841 -0.0179
   62CHL1    C6 5703   2.568   0.273   3.074 -0.7508  0.1373  0.0578
   62CHL1    H6 5704   2.595   0.181   3.020 -2.9444 -1.6788  1.8436
   62CHL1    C7 5705   2.592   0.277   3.226 -0.2586  0.1104  0.7380
   62CHL1   H7A 5706   2.549   0.183   3.266 -0.4765 -0.2459 -0.2825
   62CHL1   H7B 5707   2.701   0.262   3.238 -0.4527 -0.4769  1.9079
   62CHL1    C8 5708   2.530   0.395   3.298  0.6886  0.4433  0.0767
   62CHL1    H8 5709   2.423   0.367   3.309  0.3542  1.9917  1.0315
   62CHL1   C14 5710   2.587   0.413   3.438  0.5163 -0.3205  0.2256
   62CHL1   H14 5711   2.685   0.459   3.416  0.6856 -1.2299 -1.0421
   62CHL1   C15 5712   2.605   0.292   3.523  0.3095  0.4398 -0.1351
   62CHL1  H15A 5713   2.503   0.249   3.530  0.7219 -0.4906  0.2704
   62CHL1  H15B 5714   2.680   0.216   3.492 -0.2115  0.7378 -2.3121
   62CHL1   C16 5715   2.640   0.360   3.653 -0.2592 -0.0063 -0.3136
   62CHL1  H16A 5716   2.578   0.316   3.734  0.2829  0.6230  0.4557
   62CHL1  H16B 5717   2.747   0.339   3.675  0.3622  4.6370  2.3780
   62CHL1   C17 5718   2.616   0.509   3.646 -0.1676 -0.4881 -0.4999
   62CHL1   H17 5719   2.704   0.568   3.613 -2.7588  3.5865 -0.7859
   62CHL1   C13 5720   2.522   0.520   3.527  0.4354 -0.1256 -0.1540
   62CHL1   C18 5721   2.377   0.485   3.564 -0.1036  0.3703 -0.1123
   62CHL1  H18A 5722   2.330   0.577   3.606 -0.5947  0.0641  0.0162
   62CHL1  H18B 5723   2.328   0.447   3.472  2.4927 -1.5384 -0.8056
   62CHL1  H18C 5724   2.383   0.396   3.630 -0.7695  0.1099 -0.3937
   62CHL1   C12 5725   2.529   0.649   3.447  0.1747 -1.1879 -0.0598
   62CHL1  H12A 5726   2.469   0.728   3.498  0.3549 -1.0644 -0.0351
   62CHL1  H12B 5727   2.632   0.689   3.437 -0.2551 -0.1765 -0.6051
   62CHL1   C11 5728   2.468   0.634   3.302 -0.7030 -0.6866 -0.4192
   62CHL1  H11A 5729   2.359   0.620   3.318 -1.4070  2.4000 -1.8912
   62CHL1  H11B 5730   2.482   0.736   3.260 -2.2217  0.9632  2.7321
   62CHL1    C9 5731   2.535   0.521   3.214 -0.1599 -0.7369 -0.2819
   62CHL1    H9 5732   2.643   0.548   3.214 -0.3397  0.4119  2.8534
   62CHL1   C10 5733   2.479   0.512   3.072 -0.3057 -0.0575  0.6885
   62CHL1   C19 5734   2.328   0.523   3.079 -0.6557  0.1629  0.4176
   62CHL1  H19A 5735   2.301   0.623   3.118  3.0892  1.0841  1.0465
   62CHL1  H19B 5736   2.290   0.495   2.978 -0.4690 -0.1223  0.4244
   62CHL1  H19C 5737   2.291   0.443   3.146  3.4539 -0.6767  2.0093
   62CHL1    C1 5738   2.546   0.628   2.988 -0.3190  0.0187  0.8485
   62CHL1   H1A 5739   2.491   0.720   3.015  0.7430  1.1104 -0.5276
   62CHL1   H1B 5740   2.655   0.616   3.007  0.3890  1.8258 -1.5116
   62CHL1    C2 5741   2.528   0.623   2.833 -0.5984 -0.4292 -0.2021
   62CHL1   H2A 5742   2.568   0.717   2.788 -0.2954 -0.1202  0.6826
   62CHL1   H2B 5743   2.418   0.638   2.826 -0.2831  3.3009  0.6547
   62CHL1   C20 5744   2.571   0.572   3.782 -0.1033 -0.8140  0.4182
   62CHL1   H20 5745   2.469   0.537   3.807 -0.1320  0.4062  2.2198
   62CHL1   C21 5746   2.557   0.728   3.778  0.2713  0.3497 -0.1441
   62CHL1  H21A 5747   2.482   0.763   3.704 -2.0760 -1.2103  1.3654
   62CHL1  H21B 5748   2.656   0.772   3.755 -0.2743  2.0876  0.6732
   62CHL1  H21C 5749   2.535   0.786   3.871  2.4861 -0.2437  0.8195
   62CHL1   C22 5750   2.657   0.522   3.905 -0.1585 -0.1203  0.2785
   62CHL1  H22A 5751   2.622   0.596   3.981 -0.4329  1.1255 -1.0068
   62CHL1  H22B 5752   2.635   0.417   3.933  0.6912 -0.3454  0.1072
   62CHL1   C23 5753   2.804   0.546   3.890  0.6615 -0.2649  0.5875
   62CHL1  H23A 5754   2.840   0.490   3.802  3.9339  0.5701  1.2340
   62CHL1  H23B 5755   2.822   0.654   3.869 -0.1155 -0.2088  0.1773
   62CHL1   C24 5756   2.886   0.503   4.013  0.2187 -0.2701  0.3781
   62CHL1  H24A 5757   2.857   0.573   4.094 -0.6047  0.4628 -0.5152
   62CHL1  H24B 5758   2.871   0.397   4.043  2.1764  0.1183  3.0486
   62CHL1   C25 5759   3.040   0.510   4.004  0.1006  0.5406  0.1184
   62CHL1   H25 5760   3.080   0.448   3.921 -0.2550 -1.3053  1.2682
   62CHL1   C26 5761   3.090   0.654   3.989 -0.0253 -0.2177  0.3732
   62CHL1  H26A 5762   3.200   0.655   3.973  0.1024 -1.3167  1.0662
   62CHL1  H26B 5763   3.048   0.692   3.893  0.5066 -0.4570  0.0421
   62CHL1  H26C 5764   3.069   0.709   4.083 -1.3196 -0.5816  0.3050
   62CHL1   C27 5765   3.105   0.447   4.128 -0.2204  0.6055  0.2410
   62CHL1  H27A 5766   3.095   0.337   4.127 -1.2264  0.6290  2.2582
   62CHL1  H27B 5767   3.214   0.469   4.130 -0.3052  1.8390 -2.9058
   62CHL1  H27C 5768   3.062   0.491   4.221 -0.5183  0.7706  0.0300
   63CHL1    C3 5769   2.222   3.128   2.959  0.7118 -0.0056 -0.7508
   63CHL1    H3 5770   2.311   3.063   2.971  0.6969  0.2512  1.2819
   63CHL1    O3 5771   2.202   3.159   2.821  0.5202  0.2930 -0.2078
   63CHL1   H3' 5772   2.290   3.151   2.784  0.4543  1.2540 -0.6032
   63CHL1    C4 5773   2.089   3.062   3.022  0.1712  0.6347  0.6485
   63CHL1   H4A 5774   2.004   3.130   3.000  2.0636  3.4596  1.5453
   63CHL1   H4B 5775   2.065   2.968   2.967  3.4913 -0.1019  0.2531
   63CHL1    C5 5776   2.090   3.048   3.176 -0.2424 -0.2088  0.1065
   63CHL1    C6 5777   2.088   2.935   3.254  0.0632 -0.1160  0.0720
   63CHL1    H6 5778   2.084   2.836   3.207 -0.7694  1.6000 -3.8344
   63CHL1    C7 5779   2.076   2.941   3.403 -0.0561 -0.7457 -0.1757
   63CHL1   H7A 5780   1.994   2.871   3.432 -0.6450  0.1537  0.4072
   63CHL1   H7B 5781   2.167   2.900   3.451  0.6855  2.6294  1.6118
   63CHL1    C8 5782   2.036   3.084   3.457 -0.0353  0.0982  0.4099
   63CHL1    H8 5783   1.930   3.109   3.435  0.1454  0.0225 -0.5759
   63CHL1   C14 5784   2.051   3.076   3.610 -0.0712  0.0825  0.8547
   63CHL1   H14 5785   2.156   3.047   3.630  1.0093  1.4935 -2.0927
   63CHL1   C15 5786   1.975   2.968   3.701  0.5220  0.5668 -0.1147
   63CHL1  H15A 5787   1.867   2.967   3.672  0.3597  3.0691  0.1580
   63CHL1  H15B 5788   2.019   2.871   3.672  1.8898  0.6329  1.5903
   63CHL1   C16 5789   2.009   3.008   3.844  0.0269 -0.2292  0.0703
   63CHL1  H16A 5790   1.925   3.001   3.917  1.4518 -1.8781  1.6440
   63CHL1  H16B 5791   2.090   2.940   3.878  1.0869  1.8366  1.9120
   63CHL1   C17 5792   2.063   3.157   3.834  0.1896 -0.1188  0.4613
   63CHL1   H17 5793   2.174   3.153   3.837  0.3694  0.1394 -2.7401
   63CHL1   C13 5794   2.038   3.209   3.691 -0.2151  0.7697  0.1132
   63CHL1   C18 5795   1.889   3.255   3.683  0.6325  0.6554  0.4498
   63CHL1  H18A 5796   1.835   3.170   3.729  2.3228 -0.6419  0.1512
   63CHL1  H18B 5797   1.872   3.355   3.727  0.1045  0.9064 -0.3005
   63CHL1  H18C 5798   1.858   3.269   3.577 -1.0001  0.9528  0.9335
   63CHL1   C12 5799   2.134   3.317   3.631 -1.1397 -0.0813  0.7701
   63CHL1  H12A 5800   2.121   3.418   3.676  1.1934  1.4483 -1.6588
   63CHL1  H12B 5801   2.235   3.286   3.662 -0.2833 -0.6205 -2.2138
   63CHL1   C11 5802   2.124   3.330   3.470 -0.3330 -0.2860 -0.4344
   63CHL1  H11A 5803   2.022   3.374   3.462 -0.2496 -0.3851 -2.6417
   63CHL1  H11B 5804   2.188   3.415   3.438 -0.2623 -0.4763 -0.7938
   63CHL1    C9 5805   2.132   3.190   3.398  0.2284 -0.2486  0.3791
   63CHL1    H9 5806   2.234   3.154   3.420  0.7980  0.9565 -0.1712
   63CHL1   C10 5807   2.106   3.196   3.244  0.0114  0.3426  0.8872
   63CHL1   C19 5808   1.997   3.297   3.209  0.3310  0.2909 -0.1123
   63CHL1  H19A 5809   2.022   3.403   3.230  1.8554 -0.0602 -0.0303
   63CHL1  H19B 5810   1.989   3.290   3.098  1.3426 -1.3404 -0.1067
   63CHL1  H19C 5811   1.900   3.265   3.253  1.5983 -1.4790  1.5651
   63CHL1    C1 5812   2.242   3.248   3.188 -0.0135  0.0624  0.0981
   63CHL1   H1A 5813   2.270   3.342   3.239  1.3215 -0.2576  0.0164
   63CHL1   H1B 5814   2.315   3.175   3.229 -0.3959 -0.5029 -0.2089
   63CHL1    C2 5815   2.250   3.264   3.033  0.1249  0.6752  0.4189
   63CHL1   H2A 5816   2.350   3.296   2.997  1.4200 -3.1104  0.1983
   63CHL1   H2B 5817   2.178   3.338   2.992  0.6257 -0.0646 -1.9401
   63CHL1   C20 5818   2.013   3.252   3.949  0.1806 -0.3206 -0.3564
   63CHL1   H20 5819   1.903   3.263   3.940  0.2691  1.4831  0.3810
   63CHL1   C21 5820   2.074   3.390   3.926 -0.7846 -0.2711 -0.2444
   63CHL1  H21A 5821   2.183   3.383   3.908 -0.4786  0.1025  1.3239
   63CHL1  H21B 5822   2.050   3.451   4.016 -2.1531 -0.9426 -0.1164
   63CHL1  H21C 5823   2.017   3.439   3.845  0.6518  2.5352  0.3355
   63CHL1   C22 5824   2.040   3.193   4.087  0.2934  0.0979  0.6536
   63CHL1  H22A 5825   2.011   3.267   4.165 -1.8760 -0.4823  0.4533
   63CHL1  H22B 5826   1.972   3.105   4.085  0.2357  0.1495 -0.6162
   63CHL1   C23 5827   2.180   3.134   4.118  0.6138  0.9635  0.2578
   63CHL1  H23A 5828   2.196   3.042   4.057  1.4409 -0.1470  2.0657
   63CHL1  H23B 5829   2.254   3.213   4.094  0.8406  0.8581  0.6021
   63CHL1   C24 5830   2.201   3.092   4.263  0.3499  0.6653 -0.2551
   63CHL1  H24A 5831   2.219   3.182   4.326  1.2643 -0.5235  1.2716
   63CHL1  H24B 5832   2.107   3.043   4.296  2.2288 -1.9233  1.7316
   63CHL1   C25 5833   2.305   2.984   4.289  0.1938 -0.1725  0.3653
   63CHL1   H25 5834   2.274   2.894   4.232  1.0283 -0.0123 -0.3630
   63CHL1   C26 5835   2.451   3.020   4.253 -0.4586  0.1363 -0.6334
   63CHL1  H26A 5836   2.464   3.055   4.149  0.3473  0.7893 -0.3272
   63CHL1  H26B 5837   2.480   3.103   4.321 -0.3977 -1.5137  1.4858
   63CHL1  H26C 5838   2.521   2.938   4.281 -1.2343  0.8906  4.5533
   63CHL1   C27 5839   2.303   2.946   4.439  0.0186 -0.5769  0.4280
   63CHL1  H27A 5840   2.199   2.936   4.476  0.1536 -0.6722  0.7866
   63CHL1  H27B 5841   2.351   2.848   4.463  2.8601  1.2727  3.2312
   63CHL1  H27C 5842   2.358   3.021   4.500  0.4304  0.0935 -0.7451
   64CHL1    C3 5843   3.985   3.838   3.035 -0.1574 -0.0554 -0.0463
   64CHL1    H3 5844   3.922   3.925   3.061 -1.6694 -0.9585 -0.6081
   64CHL1    O3 5845   4.006   3.826   2.897  0.3441  0.4063  0.1048
   64CHL1   H3' 5846   4.095   3.790   2.888  0.1341 -0.4098  1.0421
   64CHL1    C4 5847   4.121   3.866   3.110  0.1604  0.3312  0.2077
   64CHL1   H4A 5848   4.193   3.786   3.082 -2.1236 -1.9449  0.3434
   64CHL1   H4B 5849   4.160   3.965   3.081 -4.0367  2.1024 -0.1184
   64CHL1    C5 5850   4.094   3.871   3.266 -0.0133  0.7440 -0.2780
   64CHL1    C6 5851   4.137   3.974   3.343  0.3192 -0.1240 -0.2570
   64CHL1    H6 5852   4.190   4.058   3.296  1.0835 -0.3763  0.1421
   64CHL1    C7 5853   4.117   3.982   3.494 -0.3957 -0.3931  0.2170
   64CHL1   H7A 5854   4.211   4.020   3.540  0.8909  0.4855 -2.8790
   64CHL1   H7B 5855   4.052   4.067   3.525  2.8110  1.4807  2.4481
   64CHL1    C8 5856   4.080   3.848   3.566 -0.0550 -0.1761 -0.1637
   64CHL1    H8 5857   4.169   3.782   3.552 -0.0222 -0.1904  0.0972
   64CHL1   C14 5858   4.029   3.867   3.708  0.5187  0.1555  0.4975
   64CHL1   H14 5859   3.927   3.910   3.700 -0.7208 -2.5369  0.8472
   64CHL1   C15 5860   4.085   3.963   3.814  0.1228 -0.2426  0.2499
   64CHL1  H15A 5861   4.195   3.966   3.824  0.1883  3.4016 -0.0253
   64CHL1  H15B 5862   4.056   4.067   3.784 -3.0985 -2.2304 -5.0180
   64CHL1   C16 5863   4.020   3.915   3.945  0.0965 -0.7476  0.4251
   64CHL1  H16A 5864   4.084   3.924   4.036  1.1596  1.4902 -0.4695
   64CHL1  H16B 5865   3.937   3.984   3.969 -1.5994 -1.4079 -2.9144
   64CHL1   C17 5866   3.940   3.786   3.912 -0.4557  0.5594  0.5513
   64CHL1   H17 5867   3.834   3.812   3.889 -0.7056 -0.8431  0.0443
   64CHL1   C13 5868   4.000   3.735   3.781 -0.2336  0.8017  0.6674
   64CHL1   C18 5869   4.141   3.667   3.798  0.2744 -0.4564  0.3691
   64CHL1  H18A 5870   4.211   3.732   3.856 -0.6659  0.9607 -0.0257
   64CHL1  H18B 5871   4.135   3.577   3.862  1.9486  0.8494  2.5219
   64CHL1  H18C 5872   4.182   3.625   3.705 -0.1078 -0.1258  0.0451
   64CHL1   C12 5873   3.893   3.660   3.693 -0.4130 -0.8517  0.0509
   64CHL1  H12A 5874   3.858   3.564   3.737 -2.2395 -1.2243 -1.9907
   64CHL1  H12B 5875   3.801   3.723   3.699  0.6169  0.7453 -0.2940
   64CHL1   C11 5876   3.937   3.639   3.548  0.3747 -0.0076  0.5286
   64CHL1  H11A 5877   4.027   3.574   3.547 -0.7805 -1.8066 -2.0730
   64CHL1  H11B 5878   3.850   3.582   3.506  0.4769 -0.1260  0.4759
   64CHL1    C9 5879   3.979   3.767   3.478  0.2458 -0.3332 -0.3086
   64CHL1    H9 5880   3.887   3.830   3.480 -0.0341 -0.4768 -3.2311
   64CHL1   C10 5881   4.017   3.750   3.323  0.2735  0.7112  0.5470
   64CHL1   C19 5882   4.113   3.628   3.312  0.9189 -0.0529  0.4395
   64CHL1  H19A 5883   4.142   3.601   3.208 -1.1563 -2.3236  0.3508
   64CHL1  H19B 5884   4.207   3.656   3.364 -0.0133  2.7670  0.7580
   64CHL1  H19C 5885   4.079   3.531   3.354  0.9237 -0.5517 -0.6620
   64CHL1    C1 5886   3.891   3.725   3.237  0.8289 -0.0264 -0.2332
   64CHL1   H1A 5887   3.856   3.630   3.283 -2.4637  1.4214  0.5854
   64CHL1   H1B 5888   3.818   3.804   3.265  0.6052  0.0710 -1.0425
   64CHL1    C2 5889   3.914   3.716   3.085 -0.3273  1.1276  0.1601
   64CHL1   H2A 5890   3.821   3.704   3.025 -1.1357  0.9231  1.4336
   64CHL1   H2B 5891   3.985   3.632   3.067  0.0855  1.6289 -0.6078
   64CHL1   C20 5892   3.946   3.680   4.031  0.0586 -0.6846  0.3342
   64CHL1   H20 5893   4.053   3.672   4.061  0.3824 -1.7800 -1.0013
   64CHL1   C21 5894   3.880   3.545   3.995  0.4266  0.8677 -0.0082
   64CHL1  H21A 5895   3.898   3.475   4.078  2.6243 -1.1382 -2.0251
   64CHL1  H21B 5896   3.942   3.501   3.914 -0.5566  1.1553 -0.9408
   64CHL1  H21C 5897   3.773   3.560   3.967  0.2604  1.6371  1.0105
   64CHL1   C22 5898   3.885   3.725   4.166  0.9657 -0.0034  0.7293
   64CHL1  H22A 5899   3.783   3.767   4.152  1.6144  0.8315 -1.9313
   64CHL1  H22B 5900   3.878   3.634   4.230  1.0577 -0.2041  0.4521
   64CHL1   C23 5901   3.951   3.828   4.257 -0.0785 -0.3470  0.1545
   64CHL1  H23A 5902   4.036   3.782   4.311 -0.7809  0.3267  1.8874
   64CHL1  H23B 5903   4.001   3.909   4.199  0.4355 -0.7623  0.0008
   64CHL1   C24 5904   3.858   3.885   4.365 -0.2664 -0.1088  0.0032
   64CHL1  H24A 5905   3.764   3.924   4.320  0.3613 -1.3071 -2.4795
   64CHL1  H24B 5906   3.832   3.797   4.427 -0.3170 -1.0061 -1.2755
   64CHL1   C25 5907   3.926   3.990   4.456  0.0420  0.7064 -0.8035
   64CHL1   H25 5908   4.027   3.958   4.490 -0.1886  0.7017 -0.1189
   64CHL1   C26 5909   3.927   4.128   4.395  0.3973  0.4207 -0.0658
   64CHL1  H26A 5910   3.984   4.196   4.462 -0.7221  0.2418  1.1107
   64CHL1  H26B 5911   3.976   4.141   4.297  1.7457  2.1747  0.7844
   64CHL1  H26C 5912   3.828   4.178   4.394  0.5175  1.0319  3.6485
   64CHL1   C27 5913   3.847   3.998   4.588  0.2564 -0.7914  0.0264
   64CHL1  H27A 5914   3.848   3.897   4.635  1.1347 -0.8289 -0.0510
   64CHL1  H27B 5915   3.909   4.058   4.658 -0.0623 -1.2680  0.7373
   64CHL1  H27C 5916   3.748   4.049   4.586  1.9612  2.9301 -3.1500
   65CHL1    C3 5917   4.694   1.825   3.004 -0.6153 -0.6190 -0.0681
   65CHL1    H3 5918   4.751   1.730   3.017 -2.8325 -2.2277 -1.3115
   65CHL1    O3 5919   4.670   1.827   2.866 -0.0566 -0.4749  1.0499
   65CHL1   H3' 5920   4.654   1.919   2.844  0.1833 -0.8708 -0.9091
   65CHL1    C4 5921   4.560   1.830   3.086  0.6958 -0.0749 -0.3787
   65CHL1   H4A 5922   4.495   1.918   3.068 -1.7044 -1.2650  1.8011
   65CHL1   H4B 5923   4.502   1.743   3.048 -0.2081 -0.3284  1.4847
   65CHL1    C5 5924   4.585   1.825   3.231 -0.4890 -0.3761  0.3973
   65CHL1    C6 5925   4.528   1.729   3.309 -0.1670  0.2024 -0.2604
   65CHL1    H6 5926   4.458   1.659   3.261 -2.1082  1.5934  0.4508
   65CHL1    C7 5927   4.568   1.707   3.458 -0.1238  0.1713  0.3977
   65CHL1   H7A 5928   4.470   1.699   3.511 -1.1407 -0.1345 -1.4340
   65CHL1   H7B 5929   4.629   1.616   3.472 -0.7014 -0.1798  0.6711
   65CHL1    C8 5930   4.639   1.826   3.520 -0.1360 -0.4784  0.2360
   65CHL1    H8 5931   4.569   1.911   3.537 -0.2794 -0.6575  0.5499
   65CHL1   C14 5932   4.708   1.785   3.647  0.5053  0.4853 -0.3778
   65CHL1   H14 5933   4.785   1.709   3.622  0.8920  0.8657 -0.3529
   65CHL1   C15 5934   4.612   1.720   3.751 -0.7760  0.0174  0.4773
   65CHL1  H15A 5935   4.515   1.775   3.755  0.6354  2.6327  1.8407
   65CHL1  H15B 5936   4.595   1.612   3.734 -0.2728 -0.1452  0.9858
   65CHL1   C16 5937   4.687   1.738   3.879  0.2722 -0.1013 -0.2764
   65CHL1  H16A 5938   4.631   1.795   3.957 -0.2327 -1.8046  0.6482
   65CHL1  H16B 5939   4.714   1.642   3.928  1.0716  1.9429  3.7771
   65CHL1   C17 5940   4.821   1.815   3.844  1.0264  0.4509  0.6758
   65CHL1   H17 5941   4.901   1.743   3.816  0.8478  1.1149 -1.7809
   65CHL1   C13 5942   4.788   1.892   3.719 -0.0504  0.5792 -0.2440
   65CHL1   C18 5943   4.706   2.012   3.763 -0.2120 -0.3111 -0.1611
   65CHL1  H18A 5944   4.671   2.073   3.678  1.4957 -0.4395 -0.9913
   65CHL1  H18B 5945   4.618   1.982   3.824 -0.3588 -0.9508 -0.6811
   65CHL1  H18C 5946   4.766   2.078   3.830 -1.0442  0.6024 -0.2989
   65CHL1   C12 5947   4.909   1.930   3.630 -0.1017 -0.8623  0.2091
   65CHL1  H12A 5948   4.982   1.993   3.685  0.6200 -1.5083  0.0025
   65CHL1  H12B 5949   4.949   1.829   3.611 -0.3268 -0.4736 -2.9237
   65CHL1   C11 5950   4.856   1.984   3.493  0.3856  0.9451 -0.2363
   65CHL1  H11A 5951   4.804   2.080   3.512 -1.8960 -0.7887  3.6761
   65CHL1  H11B 5952   4.944   1.986   3.426 -0.7687 -1.5635 -2.0174
   65CHL1    C9 5953   4.752   1.880   3.426  0.3991  0.4782  0.6411
   65CHL1    H9 5954   4.810   1.789   3.399  0.5400  0.3754  1.2753
   65CHL1   C10 5955   4.691   1.929   3.286  0.1326  0.5893  0.5615
   65CHL1   C19 5956   4.624   2.068   3.298 -0.1305  0.4541 -0.3908
   65CHL1  H19A 5957   4.572   2.098   3.205 -1.6952 -1.4553 -0.2134
   65CHL1  H19B 5958   4.542   2.060   3.373 -0.7093 -0.8792 -1.1390
   65CHL1  H19C 5959   4.696   2.149   3.322  2.4604 -1.5074 -1.1119
   65CHL1    C1 5960   4.814   1.951   3.182 -0.3069  0.1614 -0.2068
   65CHL1   H1A 5961   4.859   2.044   3.224 -2.4196  1.7125 -1.1643
   65CHL1   H1B 5962   4.884   1.865   3.185  0.2201  0.6038  0.7147
   65CHL1    C2 5963   4.778   1.954   3.038  0.8208  0.1006 -0.3308
   65CHL1   H2A 5964   4.869   1.948   2.974  0.3689 -0.2824 -0.9440
   65CHL1   H2B 5965   4.715   2.042   3.015 -2.3130 -1.5119  1.5305
   65CHL1   C20 5966   4.878   1.892   3.970  0.1515  0.0378 -0.0081
   65CHL1   H20 5967   4.806   1.966   4.011 -1.4564 -2.0346  1.1570
   65CHL1   C21 5968   5.019   1.950   3.944 -0.4158  0.1785  0.3221
   65CHL1  H21A 5969   5.065   1.982   4.040  0.6360 -1.8018  0.5382
   65CHL1  H21B 5970   5.019   2.046   3.887  4.4805  0.0069 -0.4253
   65CHL1  H21C 5971   5.093   1.882   3.896  2.8923  4.9271 -2.1612
   65CHL1   C22 5972   4.896   1.798   4.099 -0.3569  0.9027  0.3288
   65CHL1  H22A 5973   4.915   1.864   4.186  1.9899 -0.0679  0.6188
   65CHL1  H22B 5974   4.792   1.760   4.114  0.5843 -0.7994  3.3614
   65CHL1   C23 5975   4.983   1.675   4.088 -0.0956 -0.4823  0.2676
   65CHL1  H23A 5976   4.968   1.637   3.984 -1.3306  1.5571 -0.3753
   65CHL1  H23B 5977   5.093   1.684   4.099  0.1350  0.7036 -2.1191
   65CHL1   C24 5978   4.948   1.558   4.185 -0.4970 -0.0122  0.2692
   65CHL1  H24A 5979   4.842   1.530   4.163 -0.5363  0.2359  0.1384
   65CHL1  H24B 5980   5.024   1.480   4.165  0.9564  1.2770  0.5850
   65CHL1   C25 5981   4.962   1.605   4.334  0.9982  0.2030  0.0855
   65CHL1   H25 5982   4.903   1.698   4.351 -1.2219 -0.8317 -1.4726
   65CHL1   C26 5983   4.890   1.501   4.425 -0.0830  0.1722  0.4161
   65CHL1  H26A 5984   4.884   1.554   4.522  4.3028  1.3767  0.2268
   65CHL1  H26B 5985   4.788   1.473   4.390  0.2495 -0.2267 -0.2525
   65CHL1  H26C 5986   4.956   1.412   4.430  0.6617  0.7793  1.8334
   65CHL1   C27 5987   5.111   1.617   4.381  0.3929 -0.1251 -0.4129
   65CHL1  H27A 5988   5.118   1.646   4.488  2.7405 -1.3997 -0.1674
   65CHL1  H27B 5989   5.160   1.518   4.375  0.1130 -0.2462 -0.7278
   65CHL1  H27C 5990   5.173   1.688   4.322 -1.1240 -0.3924 -2.4634
   66CHL1    C3 5991   0.618   5.556   2.524  0.5763  0.3343 -0.0343
   66CHL1    H3 5992   0.659   5.453   2.533  2.8179  1.1804  0.3222
   66CHL1    O3 5993   0.641   5.604   2.393  0.1569 -0.7994 -0.6068
   66CHL1   H3' 5994   0.727   5.566   2.371  1.2349  0.3045  1.4372
   66CHL1    C4 5995   0.466   5.572   2.554 -0.2929  0.6484  0.4588
   66CHL1   H4A 5996   0.418   5.672   2.544 -2.5619 -0.2343  1.5569
   66CHL1   H4B 5997   0.408   5.498   2.495  0.0058 -1.0113  2.1305
   66CHL1    C5 5998   0.458   5.533   2.700 -0.0629 -0.0007  0.1836
   66CHL1    C6 5999   0.386   5.429   2.739  0.2764  0.1412  0.0868
   66CHL1    H6 6000   0.334   5.363   2.667  1.3003 -2.4161  1.5354
   66CHL1    C7 6001   0.360   5.388   2.881  0.6668 -0.1651 -1.0057
   66CHL1   H7A 6002   0.250   5.389   2.900  0.7718  0.6417 -0.3909
   66CHL1   H7B 6003   0.405   5.291   2.912 -0.0229  0.6634  3.2291
   66CHL1    C8 6004   0.417   5.489   2.986 -0.8731 -0.4849  0.4109
   66CHL1    H8 6005   0.338   5.566   3.000 -1.2260 -1.0267  1.5094
   66CHL1   C14 6006   0.438   5.420   3.122 -1.1999  0.3435 -0.2638
   66CHL1   H14 6007   0.524   5.351   3.107  0.7405  1.4224  4.4508
   66CHL1   C15 6008   0.334   5.332   3.173  0.2114 -0.5900  0.5603
   66CHL1  H15A 6009   0.236   5.382   3.160  0.7026  0.9141  2.1940
   66CHL1  H15B 6010   0.341   5.234   3.121 -0.1991  0.9622 -2.7067
   66CHL1   C16 6011   0.359   5.324   3.324 -0.3136 -0.0389 -0.7364
   66CHL1  H16A 6012   0.275   5.370   3.380  1.1410 -1.1146  2.5522
   66CHL1  H16B 6013   0.369   5.221   3.364  0.5489 -0.2620 -1.4971
   66CHL1   C17 6014   0.490   5.407   3.349  0.6764  0.2117 -0.1022
   66CHL1   H17 6015   0.570   5.332   3.333  0.0864 -0.6651  0.8889
   66CHL1   C13 6016   0.484   5.511   3.238 -0.7333 -0.1384 -0.2579
   66CHL1   C18 6017   0.373   5.618   3.280  0.6563 -0.2310 -0.0536
   66CHL1  H18A 6018   0.276   5.565   3.292 -0.1336  0.9033 -1.2699
   66CHL1  H18B 6019   0.384   5.656   3.384 -2.0287 -0.5356  0.3949
   66CHL1  H18C 6020   0.365   5.689   3.196  0.9237 -1.0384 -0.7764
   66CHL1   C12 6021   0.623   5.578   3.190  0.3117  0.2459  0.1581
   66CHL1  H12A 6022   0.662   5.654   3.262  1.7136 -1.7296  1.6030
   66CHL1  H12B 6023   0.705   5.503   3.184 -0.6821 -0.9275  0.7654
   66CHL1   C11 6024   0.605   5.646   3.053  0.0350 -0.3596 -0.8521
   66CHL1  H11A 6025   0.523   5.720   3.064  1.0795  0.6534  0.3323
   66CHL1  H11B 6026   0.703   5.692   3.028  1.9511 -2.7489  1.6263
   66CHL1    C9 6027   0.550   5.552   2.941 -0.3116  0.1069 -0.0614
   66CHL1    H9 6028   0.613   5.460   2.937 -0.9745 -0.4156  0.9466
   66CHL1   C10 6029   0.544   5.616   2.799  0.9372  0.3272  0.3040
   66CHL1   C19 6030   0.486   5.760   2.812  0.0344  0.7557  0.3975
   66CHL1  H19A 6031   0.573   5.824   2.840  1.1532 -0.1241 -0.9316
   66CHL1  H19B 6032   0.462   5.796   2.709 -2.0612  2.3350  1.3506
   66CHL1  H19C 6033   0.390   5.774   2.866 -1.3004  3.6923 -2.3323
   66CHL1    C1 6034   0.692   5.613   2.753  0.3825  0.1746  0.3886
   66CHL1   H1A 6035   0.756   5.686   2.808 -1.3477  1.4281  0.8074
   66CHL1   H1B 6036   0.730   5.509   2.762 -3.5772 -1.5690 -1.0302
   66CHL1    C2 6037   0.702   5.650   2.604 -0.0735  1.0749  0.0894
   66CHL1   H2A 6038   0.805   5.651   2.560  0.1214  2.5304  0.5249
   66CHL1   H2B 6039   0.667   5.755   2.598  2.1203  1.8446 -0.3532
   66CHL1   C20 6040   0.507   5.438   3.499 -0.0624 -0.6658 -0.2531
   66CHL1   H20 6041   0.438   5.519   3.530  1.2040  0.1977  0.3832
   66CHL1   C21 6042   0.653   5.489   3.518  0.2243 -0.4882  0.5222
   66CHL1  H21A 6043   0.675   5.532   3.619  0.7888 -0.0637  0.2274
   66CHL1  H21B 6044   0.687   5.576   3.457  1.4745 -1.6314 -0.4753
   66CHL1  H21C 6045   0.725   5.409   3.489 -0.2019 -0.4277 -0.7410
   66CHL1   C22 6046   0.466   5.321   3.589 -0.3503 -0.1551  0.1703
   66CHL1  H22A 6047   0.357   5.307   3.576 -0.3117  0.7833 -1.3752
   66CHL1  H22B 6048   0.519   5.227   3.564 -1.8754 -0.8817 -0.4713
   66CHL1   C23 6049   0.486   5.364   3.741 -0.1693  0.2144 -0.5665
   66CHL1  H23A 6050   0.589   5.403   3.752 -0.0021 -0.4896  0.5763
   66CHL1  H23B 6051   0.412   5.445   3.759  1.1001  0.9109  1.9120
   66CHL1   C24 6052   0.464   5.253   3.841 -0.5586  0.5744 -0.4038
   66CHL1  H24A 6053   0.356   5.238   3.857 -0.7382  0.3163 -1.7514
   66CHL1  H24B 6054   0.506   5.163   3.792 -2.5625  0.6436 -2.4018
   66CHL1   C25 6055   0.529   5.284   3.980 -0.0172  0.0431  0.5709
   66CHL1   H25 6056   0.560   5.391   3.980  0.0241  0.0414 -0.6741
   66CHL1   C26 6057   0.426   5.255   4.096  0.0664  0.4008 -0.6854
   66CHL1  H26A 6058   0.386   5.152   4.084  0.1405  0.4076 -0.9929
   66CHL1  H26B 6059   0.465   5.280   4.197 -1.2278 -2.6615  0.7141
   66CHL1  H26C 6060   0.341   5.318   4.062  0.3666  1.7279  0.9061
   66CHL1   C27 6061   0.651   5.194   3.996 -0.0721 -0.1868  0.0881
   66CHL1  H27A 6062   0.625   5.091   3.963 -1.6026 -0.0694  0.8498
   66CHL1  H27B 6063   0.684   5.205   4.101 -1.0230  1.3056  0.2578
   66CHL1  H27C 6064   0.730   5.239   3.932  0.2467  1.7736  1.7602
   67CHL1    C3 6065   6.580   4.622   3.035  0.0924  0.3316 -0.6240
   67CHL1    H3 6066   6.576   4.532   3.100  1.5192  0.4699 -0.3270
   67CHL1    O3 6067   6.591   4.591   2.896 -0.0712 -0.1232 -0.1729
   67CHL1   H3' 6068   6.559   4.666   2.846 -0.9946 -0.6748 -0.4320
   67CHL1    C4 6069   6.444   4.684   3.063 -0.4944  0.5847 -0.6090
   67CHL1   H4A 6070   6.441   4.782   3.010 -0.9058  1.6973  1.3639
   67CHL1   H4B 6071   6.367   4.618   3.019  0.0157 -0.6704  0.3127
   67CHL1    C5 6072   6.422   4.708   3.212  0.0991  0.3959 -0.0422
   67CHL1    C6 6073   6.330   4.637   3.282  0.1199  0.6189 -0.3080
   67CHL1    H6 6074   6.275   4.557   3.231 -1.0610  0.0942  1.6869
   67CHL1    C7 6075   6.306   4.648   3.426 -0.1818  0.3233 -0.2480
   67CHL1   H7A 6076   6.197   4.668   3.438 -0.4259 -1.3193  0.5900
   67CHL1   H7B 6077   6.336   4.556   3.481  0.6507  1.2718  0.9402
   67CHL1    C8 6078   6.384   4.765   3.493 -0.3930  0.1304  0.2646
   67CHL1    H8 6079   6.327   4.859   3.477 -1.2806  0.0486  2.6095
   67CHL1   C14 6080   6.402   4.738   3.643  0.2134  0.1891  0.6260
   67CHL1   H14 6081   6.460   4.646   3.664  1.1097  0.2568 -1.3107
   67CHL1   C15 6082   6.274   4.713   3.714 -0.0044 -0.0655  0.4115
   67CHL1  H15A 6083   6.211   4.802   3.691  1.0739  0.5394 -0.2937
   67CHL1  H15B 6084   6.215   4.620   3.701  0.0081 -0.0671  0.3662
   67CHL1   C16 6085   6.319   4.716   3.863 -0.7938  0.5941 -0.4504
   67CHL1  H16A 6086   6.231   4.749   3.922  0.3986  0.8601  1.2518
   67CHL1  H16B 6087   6.343   4.615   3.902  0.6828  1.9100  2.3718
   67CHL1   C17 6088   6.455   4.798   3.865 -0.3639  0.1414  0.1205
   67CHL1   H17 6089   6.525   4.717   3.896 -0.0799  0.6652  0.8779
   67CHL1   C13 6090   6.478   4.852   3.719 -0.4952  0.2637 -0.8212
   67CHL1   C18 6091   6.402   4.984   3.712 -0.5203 -0.1821 -0.5629
   67CHL1  H18A 6092   6.304   4.991   3.765 -0.5035  1.3516 -0.6930
   67CHL1  H18B 6093   6.465   5.072   3.738 -1.4117 -0.2066  1.9970
   67CHL1  H18C 6094   6.381   5.007   3.606  1.0350  0.3275 -0.7907
   67CHL1   C12 6095   6.617   4.870   3.657 -0.5030  0.1299 -0.2884
   67CHL1  H12A 6096   6.680   4.942   3.714  1.6208 -1.8098 -0.0059
   67CHL1  H12B 6097   6.674   4.774   3.664 -0.3371  0.3001  1.0106
   67CHL1   C11 6098   6.613   4.894   3.504  0.9099 -0.3789  0.0671
   67CHL1  H11A 6099   6.561   4.990   3.484 -0.7854 -0.8517  1.9491
   67CHL1  H11B 6100   6.715   4.886   3.460  2.0766 -1.5619  2.7837
   67CHL1    C9 6101   6.521   4.785   3.434  0.0016  0.1055  0.1654
   67CHL1    H9 6102   6.576   4.690   3.454  0.4476 -0.1979 -2.1753
   67CHL1   C10 6103   6.531   4.797   3.281  0.6355  0.0876 -0.4613
   67CHL1   C19 6104   6.501   4.943   3.238 -0.8344  0.5254  0.8234
   67CHL1  H19A 6105   6.492   4.948   3.128 -0.0700  0.9316  0.7794
   67CHL1  H19B 6106   6.409   4.977   3.290 -1.2029  1.1995 -0.2511
   67CHL1  H19C 6107   6.584   5.011   3.265 -0.3987 -0.9822  3.7043
   67CHL1    C1 6108   6.674   4.749   3.239  0.2201 -0.0164  1.3952
   67CHL1   H1A 6109   6.759   4.811   3.276 -1.4088  3.2146  0.1119
   67CHL1   H1B 6110   6.679   4.648   3.285 -0.3403  0.6510  2.9964
   67CHL1    C2 6111   6.689   4.720   3.086 -0.0426  0.2466 -0.0769
   67CHL1   H2A 6112   6.787   4.674   3.058  0.5271  1.3474  0.0550
   67CHL1   H2B 6113   6.679   4.808   3.018  1.5449 -1.4845 -2.7621
   67CHL1   C20 6114   6.462   4.901   3.981  0.3295 -0.1775  0.2384
   67CHL1   H20 6115   6.384   4.977   3.961 -0.0992 -0.4549  0.8494
   67CHL1   C21 6116   6.600   4.961   3.989  0.2916 -0.0658  0.1512
   67CHL1  H21A 6117   6.678   4.884   4.006  0.6251  0.2236 -0.0507
   67CHL1  H21B 6118   6.613   5.031   4.074 -0.1864 -0.9769  1.0067
   67CHL1  H21C 6119   6.632   5.007   3.893  0.3784 -0.0831  0.1720
   67CHL1   C22 6120   6.429   4.827   4.116 -0.4018  0.0247  0.1152
   67CHL1  H22A 6121   6.322   4.799   4.105 -0.4657  0.6616 -1.0505
   67CHL1  H22B 6122   6.482   4.732   4.138  1.7592  1.8442  3.5109
   67CHL1   C23 6123   6.460   4.914   4.237 -0.4454 -0.2070  0.6819
   67CHL1  H23A 6124   6.569   4.913   4.257 -0.7849  1.9847  3.1039
   67CHL1  H23B 6125   6.435   5.020   4.215  0.2577  0.4657  2.9022
   67CHL1   C24 6126   6.381   4.875   4.365 -0.6107  0.5628  0.2325
   67CHL1  H24A 6127   6.281   4.854   4.321  0.3223 -1.0923 -1.2141
   67CHL1  H24B 6128   6.421   4.777   4.398 -3.6579 -0.4222  1.3275
   67CHL1   C25 6129   6.381   4.985   4.469 -0.1761  0.6322 -0.4667
   67CHL1   H25 6130   6.327   4.941   4.555  0.9085 -1.6414 -0.8689
   67CHL1   C26 6131   6.526   5.025   4.518  0.2732 -0.4198  0.1689
   67CHL1  H26A 6132   6.581   4.944   4.570  0.2687  0.7182  2.0293
   67CHL1  H26B 6133   6.584   5.059   4.430 -0.7209  1.6145  0.2483
   67CHL1  H26C 6134   6.522   5.109   4.590  2.5847 -0.0320 -0.1046
   67CHL1   C27 6135   6.304   5.112   4.433  0.1225  0.6004 -0.2939
   67CHL1  H27A 6136   6.208   5.088   4.383  0.9526 -1.2276 -1.0876
   67CHL1  H27B 6137   6.287   5.176   4.522  1.7077  0.9903 -0.2372
   67CHL1  H27C 6138   6.355   5.164   4.349 -2.1578  2.0631 -0.8710
   68CHL1    C3 6139   3.492   5.945   2.540  0.2243 -0.3972 -1.2598
   68CHL1    H3 6140   3.523   6.052   2.543 -1.8914  0.2412 -1.1259
   68CHL1    O3 6141   3.484   5.904   2.405  0.2624 -0.2933  0.3438
   68CHL1   H3' 6142   3.463   5.810   2.407 -1.1870 -0.0122 -0.2096
   68CHL1    C4 6143   3.596   5.851   2.611  0.4124 -0.0016 -0.2801
   68CHL1   H4A 6144   3.573   5.743   2.600  0.7334 -0.3241  1.8507
   68CHL1   H4B 6145   3.695   5.870   2.566  0.4846  2.9514  0.8834
   68CHL1    C5 6146   3.597   5.885   2.761  0.0278 -0.1488 -0.6864
   68CHL1    C6 6147   3.712   5.920   2.819 -0.0113  0.8413 -0.5128
   68CHL1    H6 6148   3.800   5.939   2.756  0.5793  0.9442  0.3372
   68CHL1    C7 6149   3.711   5.948   2.966  0.2906 -0.0812  0.0228
   68CHL1   H7A 6150   3.801   5.910   3.018  2.5000  1.5233 -2.3334
   68CHL1   H7B 6151   3.709   6.057   2.989 -1.9807 -0.2511  0.9101
   68CHL1    C8 6152   3.591   5.896   3.048  0.8670 -0.9567 -0.3222
   68CHL1    H8 6153   3.601   5.785   3.042  0.4117 -0.9720 -0.8912
   68CHL1   C14 6154   3.580   5.950   3.188  0.7443 -0.0686  0.3630
   68CHL1   H14 6155   3.578   6.061   3.187 -1.3738 -0.0551  0.3909
   68CHL1   C15 6156   3.694   5.917   3.275  0.4110  0.0568 -0.5434
   68CHL1  H15A 6157   3.737   5.814   3.269  0.4986  0.0826 -0.3694
   68CHL1  H15B 6158   3.777   5.987   3.251  3.2687 -2.7176  0.5104
   68CHL1   C16 6159   3.651   5.946   3.422 -0.1669 -0.5689 -0.2940
   68CHL1  H16A 6160   3.689   5.861   3.483  0.3106 -0.1674 -0.0254
   68CHL1  H16B 6161   3.702   6.036   3.462  1.7218 -2.4103  1.7337
   68CHL1   C17 6162   3.497   5.965   3.408  0.3300  0.0582  0.1761
   68CHL1   H17 6163   3.476   6.073   3.396  1.3720  0.1298 -1.4914
   68CHL1   C13 6164   3.469   5.894   3.271  0.2929 -0.1650  0.0825
   68CHL1   C18 6165   3.474   5.739   3.297  0.5071 -0.8201  0.2522
   68CHL1  H18A 6166   3.454   5.682   3.204 -0.9431  0.7340 -0.4529
   68CHL1  H18B 6167   3.563   5.694   3.347  0.9890 -2.1393 -1.6847
   68CHL1  H18C 6168   3.384   5.716   3.358  0.0795  0.5662  0.1862
   68CHL1   C12 6169   3.340   5.937   3.204 -0.1429 -0.0848 -0.0963
   68CHL1  H12A 6170   3.262   5.896   3.272  0.3629 -0.5183  0.2268
   68CHL1  H12B 6171   3.331   6.047   3.191  0.4904 -0.0166  0.0425
   68CHL1   C11 6172   3.333   5.884   3.060 -0.1703  0.1074 -0.2623
   68CHL1  H11A 6173   3.333   5.773   3.069 -1.9830  0.2062  1.8803
   68CHL1  H11B 6174   3.230   5.904   3.024 -1.3677 -1.5173  1.9833
   68CHL1    C9 6175   3.456   5.926   2.975 -0.1218 -0.2503 -0.2883
   68CHL1    H9 6176   3.456   6.034   2.951 -1.6731 -0.6518 -2.4105
   68CHL1   C10 6177   3.459   5.870   2.829 -0.0204  0.3337  0.0405
   68CHL1   C19 6178   3.404   5.724   2.829 -0.2165 -0.0450  0.4426
   68CHL1  H19A 6179   3.453   5.664   2.908  0.9153 -1.9309 -1.5973
   68CHL1  H19B 6180   3.293   5.720   2.827 -0.2699  1.1384  0.2702
   68CHL1  H19C 6181   3.437   5.666   2.740 -0.2386  0.6399 -0.0252
   68CHL1    C1 6182   3.354   5.962   2.748  0.0950  0.3289 -0.1328
   68CHL1   H1A 6183   3.251   5.939   2.784  0.9646 -2.2970  0.9675
   68CHL1   H1B 6184   3.378   6.069   2.767 -1.6955  0.6683  0.4019
   68CHL1    C2 6185   3.350   5.926   2.603 -0.0770 -0.1236  0.3334
   68CHL1   H2A 6186   3.278   5.993   2.551 -0.7707 -0.2756  1.0825
   68CHL1   H2B 6187   3.304   5.826   2.589 -0.4569  0.2230 -1.0982
   68CHL1   C20 6188   3.418   5.931   3.528 -0.5652 -0.0943 -0.1204
   68CHL1   H20 6189   3.420   5.822   3.551  0.5433 -0.4664 -1.8125
   68CHL1   C21 6190   3.267   5.968   3.517 -0.8887 -0.1203 -0.0966
   68CHL1  H21A 6191   3.262   6.070   3.474 -2.7980 -0.4065 -0.6499
   68CHL1  H21B 6192   3.214   5.978   3.615 -1.4204 -1.1872 -0.2657
   68CHL1  H21C 6193   3.205   5.903   3.452 -1.1995 -0.3014  0.3756
   68CHL1   C22 6194   3.466   6.005   3.657  0.5706  0.5818 -0.3961
   68CHL1  H22A 6195   3.540   6.082   3.629  1.4164 -1.3941 -4.4513
   68CHL1  H22B 6196   3.383   6.046   3.718  1.6362 -0.1327  1.6133
   68CHL1   C23 6197   3.533   5.906   3.763 -0.1738 -0.7473 -0.4074
   68CHL1  H23A 6198   3.457   5.831   3.795 -0.3013 -1.2623 -1.8212
   68CHL1  H23B 6199   3.612   5.848   3.710  1.7080 -0.0710  1.5346
   68CHL1   C24 6200   3.583   5.988   3.880  0.3313  0.1412  0.2337
   68CHL1  H24A 6201   3.662   5.931   3.935 -0.9800 -2.9686 -0.8534
   68CHL1  H24B 6202   3.644   6.073   3.844  2.6770 -1.8470 -0.7304
   68CHL1   C25 6203   3.469   6.041   3.968 -0.0593  0.0973 -0.1922
   68CHL1   H25 6204   3.414   6.122   3.916 -1.4486 -1.1785 -0.7576
   68CHL1   C26 6205   3.355   5.945   4.007  0.1426  0.5041  0.3629
   68CHL1  H26A 6206   3.287   5.986   4.085 -1.6629  0.2612 -1.0204
   68CHL1  H26B 6207   3.288   5.921   3.922  0.9210 -3.5787  0.6921
   68CHL1  H26C 6208   3.398   5.851   4.047  0.4170  0.5297  0.1280
   68CHL1   C27 6209   3.535   6.101   4.101 -0.5598 -0.5808  0.3252
   68CHL1  H27A 6210   3.577   6.023   4.168 -0.8382  0.1687  1.3910
   68CHL1  H27B 6211   3.608   6.181   4.076  1.9650 -2.7645  0.2814
   68CHL1  H27C 6212   3.442   6.144   4.146 -0.7004  0.3723 -0.8118
   69CHL1    C3 6213   3.081   6.355   2.598  0.2196  0.4104 -0.1060
   69CHL1    H3 6214   2.971   6.357   2.616  0.4370  2.1334  1.4146
   69CHL1    O3 6215   3.113   6.343   2.458 -0.2513 -0.8619 -0.0868
   69CHL1   H3' 6216   3.207   6.326   2.451 -0.3229 -0.8312 -1.3860
   69CHL1    C4 6217   3.129   6.489   2.639 -0.0229  0.1531 -0.1761
   69CHL1   H4A 6218   3.231   6.513   2.604 -0.0127  1.1569  0.4886
   69CHL1   H4B 6219   3.074   6.564   2.578  1.2758  0.1027 -1.4583
   69CHL1    C5 6220   3.118   6.520   2.787 -0.8553  0.0733 -0.2449
   69CHL1    C6 6221   3.058   6.631   2.837 -0.4912 -0.2709  0.0549
   69CHL1    H6 6222   3.012   6.705   2.769  0.9563  0.6206  0.0020
   69CHL1    C7 6223   3.047   6.659   2.985  0.7484 -0.0982  0.3327
   69CHL1   H7A 6224   3.052   6.765   3.019  1.0071  0.0198 -0.0749
   69CHL1   H7B 6225   2.944   6.633   3.020  0.3548  1.6974  0.6431
   69CHL1    C8 6226   3.135   6.574   3.072  0.2982 -0.1370 -0.3791
   69CHL1    H8 6227   3.243   6.603   3.066  0.7573 -1.8007 -0.5201
   69CHL1   C14 6228   3.092   6.577   3.216 -0.3331 -0.1016 -0.3159
   69CHL1   H14 6229   2.994   6.525   3.228  0.0935 -0.9914 -0.6106
   69CHL1   C15 6230   3.068   6.715   3.292 -0.0339 -0.4292  0.4155
   69CHL1  H15A 6231   3.135   6.799   3.266 -1.7627  1.2258  1.0519
   69CHL1  H15B 6232   2.969   6.758   3.264  0.9109  2.4069  1.1284
   69CHL1   C16 6233   3.067   6.673   3.443  0.1721  0.2425 -0.7111
   69CHL1  H16A 6234   3.158   6.723   3.484 -0.0541 -1.7436  2.6304
   69CHL1  H16B 6235   2.979   6.704   3.503  0.5334 -0.9012  0.4606
   69CHL1   C17 6236   3.087   6.514   3.446  0.0072 -0.0387  0.1715
   69CHL1   H17 6237   2.991   6.458   3.450 -0.2275  0.3312 -0.1777
   69CHL1   C13 6238   3.175   6.483   3.313 -0.1688  1.0611  0.3197
   69CHL1   C18 6239   3.321   6.536   3.320 -0.0109 -0.3634  0.3451
   69CHL1  H18A 6240   3.366   6.525   3.421  0.2928 -0.4433  0.2028
   69CHL1  H18B 6241   3.382   6.506   3.232 -0.2151  2.3694 -0.8283
   69CHL1  H18C 6242   3.317   6.644   3.293 -0.9905 -0.7277 -1.0689
   69CHL1   C12 6243   3.174   6.342   3.260  0.3145 -0.0366  0.2615
   69CHL1  H12A 6244   3.253   6.285   3.314  0.7908  1.7755  1.5726
   69CHL1  H12B 6245   3.076   6.292   3.277 -1.1760  2.7125  0.3491
   69CHL1   C11 6246   3.212   6.331   3.116 -0.2851  0.2551  0.3324
   69CHL1  H11A 6247   3.318   6.364   3.109 -0.1280 -0.2026  0.5215
   69CHL1  H11B 6248   3.206   6.224   3.085  0.5195  0.1593  0.4806
   69CHL1    C9 6249   3.126   6.427   3.021  0.1300  0.3909 -0.2884
   69CHL1    H9 6250   3.019   6.398   3.025 -0.7208  3.0772 -1.7303
   69CHL1   C10 6251   3.169   6.405   2.875 -1.0166  0.1960 -0.3562
   69CHL1   C19 6252   3.331   6.421   2.866  0.9307  0.1097 -0.7112
   69CHL1  H19A 6253   3.384   6.329   2.898 -0.4997 -0.0226  1.4576
   69CHL1  H19B 6254   3.366   6.453   2.766  1.4814 -2.7018 -1.5101
   69CHL1  H19C 6255   3.365   6.499   2.937  0.6928  0.2000 -0.6975
   69CHL1    C1 6256   3.130   6.268   2.824  0.7198  0.4673 -0.0743
   69CHL1   H1A 6257   3.186   6.190   2.880 -0.4730  0.7066  1.5098
   69CHL1   H1B 6258   3.020   6.259   2.830  0.6695 -0.2934 -1.4984
   69CHL1    C2 6259   3.158   6.245   2.672  0.1276 -0.1957 -0.9482
   69CHL1   H2A 6260   3.123   6.146   2.636 -0.7268 -0.2031 -0.1410
   69CHL1   H2B 6261   3.268   6.246   2.661  0.5133 -0.6802  2.0061
   69CHL1   C20 6262   3.159   6.478   3.584  0.7619  0.2645 -0.2661
   69CHL1   H20 6263   3.263   6.517   3.595  0.7722 -0.4296  2.9704
   69CHL1   C21 6264   3.181   6.321   3.595 -0.5149  0.3374  0.8661
   69CHL1  H21A 6265   3.088   6.264   3.616  1.1533 -2.2718  1.5452
   69CHL1  H21B 6266   3.245   6.288   3.679 -0.9553 -2.3059  0.2574
   69CHL1  H21C 6267   3.226   6.272   3.507 -2.1521 -0.9230  0.6792
   69CHL1   C22 6268   3.085   6.527   3.707  0.2972 -0.1426  0.2402
   69CHL1  H22A 6269   3.065   6.636   3.693  0.9118  0.0913  1.0823
   69CHL1  H22B 6270   2.986   6.478   3.712  0.9002 -1.3992  0.1372
   69CHL1   C23 6271   3.166   6.506   3.841 -0.3964  0.8470 -0.2331
   69CHL1  H23A 6272   3.201   6.400   3.848  2.2169  1.6896  0.9576
   69CHL1  H23B 6273   3.262   6.562   3.838  2.1988 -3.2024 -0.6146
   69CHL1   C24 6274   3.087   6.542   3.960 -0.3269  0.4867 -0.5582
   69CHL1  H24A 6275   3.049   6.646   3.964 -0.7416  0.4308 -2.4452
   69CHL1  H24B 6276   2.996   6.478   3.967  1.9104 -2.7929  1.4450
   69CHL1   C25 6277   3.169   6.518   4.092 -0.0911 -0.1954  0.7171
   69CHL1   H25 6278   3.257   6.585   4.100 -0.8357  0.6563  2.2029
   69CHL1   C26 6279   3.083   6.563   4.210  0.7217 -0.4958  0.7438
   69CHL1  H26A 6280   2.986   6.511   4.198  0.6065 -0.1317  0.0526
   69CHL1  H26B 6281   3.128   6.532   4.307  1.2757  0.7403  0.9005
   69CHL1  H26C 6282   3.058   6.668   4.184  0.9465 -0.5624  0.2457
   69CHL1   C27 6283   3.199   6.373   4.119 -0.5777 -0.0863 -0.0246
   69CHL1  H27A 6284   3.280   6.354   4.194 -0.1626  2.8626  0.3857
   69CHL1  H27B 6285   3.102   6.331   4.151 -1.7828  2.5241  0.0019
   69CHL1  H27C 6286   3.226   6.321   4.025 -1.7149 -1.2984  0.2867
   70CHL1    C3 6287   4.176   6.865   2.398  0.4063 -0.8650 -0.7241
   70CHL1    H3 6288   4.133   6.966   2.385  3.2504  0.2632 -2.4847
   70CHL1    O3 6289   4.211   6.814   2.271 -0.3994  0.0597 -0.6893
   70CHL1   H3' 6290   4.128   6.798   2.224 -0.3870 -1.6748 -0.1872
   70CHL1    C4 6291   4.302   6.880   2.488  0.0372  0.3908  0.3359
   70CHL1   H4A 6292   4.346   6.779   2.499  2.8445  1.3025 -1.4355
   70CHL1   H4B 6293   4.373   6.945   2.432 -2.8420  2.2100 -1.4824
   70CHL1    C5 6294   4.265   6.920   2.629 -0.7085 -0.4151  0.1841
   70CHL1    C6 6295   4.316   7.028   2.684  0.7596 -0.8108 -0.5585
   70CHL1    H6 6296   4.390   7.084   2.624  0.2888  0.0541 -0.3450
   70CHL1    C7 6297   4.295   7.062   2.827 -0.6324 -0.6031  0.0039
   70CHL1   H7A 6298   4.394   7.083   2.872  0.0628 -3.1583 -0.2345
   70CHL1   H7B 6299   4.236   7.155   2.845  1.1598  1.0843 -2.2893
   70CHL1    C8 6300   4.251   6.941   2.910 -0.5757 -0.5092 -0.1523
   70CHL1    H8 6301   4.340   6.877   2.930  1.2787  2.4854  1.9992
   70CHL1   C14 6302   4.215   6.994   3.048 -0.5366  0.1277 -0.2343
   70CHL1   H14 6303   4.138   7.066   3.015  0.6257  0.9514 -1.2285
   70CHL1   C15 6304   4.312   7.080   3.143 -0.0960 -0.0224  0.8383
   70CHL1  H15A 6305   4.408   7.025   3.153  0.6415  1.4548  2.3009
   70CHL1  H15B 6306   4.335   7.179   3.099  0.6907 -0.5669 -0.0018
   70CHL1   C16 6307   4.237   7.080   3.282  0.2947 -0.0203 -0.6199
   70CHL1  H16A 6308   4.306   7.061   3.367 -1.4877  0.0451  0.9096
   70CHL1  H16B 6309   4.202   7.183   3.308 -0.9109 -0.0766 -1.8956
   70CHL1   C17 6310   4.122   6.983   3.275 -0.3612  0.2253 -0.3676
   70CHL1   H17 6311   4.040   7.055   3.256  0.0853  0.9621  0.4304
   70CHL1   C13 6312   4.151   6.893   3.147  0.0348  0.3106  0.5322
   70CHL1   C18 6313   4.254   6.789   3.195 -0.0106  0.8282 -0.9230
   70CHL1  H18A 6314   4.209   6.706   3.255  1.1423  0.5907 -0.3565
   70CHL1  H18B 6315   4.295   6.735   3.107 -1.0110 -1.3858 -0.1117
   70CHL1  H18C 6316   4.334   6.839   3.253  0.2871  1.2755 -1.7024
   70CHL1   C12 6317   4.031   6.838   3.080 -0.4462  0.5140 -0.2111
   70CHL1  H12A 6318   3.999   6.748   3.138 -0.5869  0.8007  0.1589
   70CHL1  H12B 6319   3.947   6.910   3.072 -0.7335  0.0313 -1.7942
   70CHL1   C11 6320   4.064   6.780   2.939 -0.7230  0.0615  0.0826
   70CHL1  H11A 6321   4.113   6.682   2.954 -1.8396 -1.1855 -3.2814
   70CHL1  H11B 6322   3.963   6.759   2.896 -1.2818  1.5965  0.5691
   70CHL1    C9 6323   4.130   6.878   2.842 -0.5771  0.1322  0.0279
   70CHL1    H9 6324   4.057   6.959   2.818  0.0574  1.6745  2.8653
   70CHL1   C10 6325   4.176   6.818   2.704  0.5217  0.3140  0.3051
   70CHL1   C19 6326   4.256   6.688   2.730 -0.3620  0.5552 -0.1034
   70CHL1  H19A 6327   4.340   6.713   2.798  1.2757  1.6373 -2.4031
   70CHL1  H19B 6328   4.186   6.612   2.771 -1.0581  0.6725 -1.0507
   70CHL1  H19C 6329   4.305   6.638   2.644 -1.4069  0.5134 -0.6829
   70CHL1    C1 6330   4.055   6.798   2.605  0.7760 -0.0120 -0.1741
   70CHL1   H1A 6331   3.979   6.737   2.658  0.0870  3.6884  3.6495
   70CHL1   H1B 6332   4.002   6.896   2.599 -0.4320 -0.4051  2.6158
   70CHL1    C2 6333   4.088   6.760   2.470 -0.1228  0.2719 -0.3092
   70CHL1   H2A 6334   3.996   6.745   2.408 -0.2298  1.7175 -0.5345
   70CHL1   H2B 6335   4.129   6.657   2.473  1.2778  0.7498 -1.7907
   70CHL1   C20 6336   4.104   6.909   3.407  0.4623  0.3344 -0.4082
   70CHL1   H20 6337   4.187   6.838   3.428 -0.4396  0.1688  3.3155
   70CHL1   C21 6338   3.965   6.838   3.400 -0.0036 -0.2743  0.8577
   70CHL1  H21A 6339   3.928   6.831   3.504 -1.1700  0.4428  0.5109
   70CHL1  H21B 6340   3.975   6.738   3.352  1.9821  0.5229 -0.5343
   70CHL1  H21C 6341   3.896   6.899   3.338  0.3405 -0.0415  0.7035
   70CHL1   C22 6342   4.098   7.002   3.528  0.5547 -0.3295 -0.0885
   70CHL1  H22A 6343   4.069   6.930   3.608  1.4290 -1.4693 -0.7699
   70CHL1  H22B 6344   4.194   7.052   3.551  0.5172  1.0004 -2.4945
   70CHL1   C23 6345   3.991   7.110   3.524 -0.2440 -0.0048  0.6035
   70CHL1  H23A 6346   3.993   7.169   3.430 -0.4974  0.9495  1.1803
   70CHL1  H23B 6347   3.888   7.069   3.528 -0.0977 -0.5152 -0.5159
   70CHL1   C24 6348   4.022   7.200   3.639  0.3673 -0.2297  0.5228
   70CHL1  H24A 6349   4.051   7.141   3.729 -1.7233  1.1473  2.2050
   70CHL1  H24B 6350   4.095   7.281   3.618 -0.6487  0.9455  1.3666
   70CHL1   C25 6351   3.903   7.283   3.689  0.8792 -0.1085  0.2444
   70CHL1   H25 6352   3.833   7.213   3.739  1.2162 -0.7814 -0.2047
   70CHL1   C26 6353   3.944   7.380   3.801  0.6032 -0.4421  0.3680
   70CHL1  H26A 6354   4.014   7.453   3.755  0.4453 -0.0921  0.6797
   70CHL1  H26B 6355   3.857   7.439   3.836 -2.0408 -2.4013 -2.3640
   70CHL1  H26C 6356   3.981   7.330   3.893  0.8615  1.8012  1.5414
   70CHL1   C27 6357   3.822   7.340   3.567  0.4601  0.0418 -0.0809
   70CHL1  H27A 6358   3.748   7.413   3.607  0.8196 -0.7277  2.1913
   70CHL1  H27B 6359   3.878   7.398   3.491  0.9952 -1.9075 -1.2397
   70CHL1  H27C 6360   3.774   7.258   3.509  2.1061 -1.2360  0.2926
   71CHL1    C3 6361   2.727   1.110   2.679 -0.6160 -0.1548  0.1222
   71CHL1    H3 6362   2.773   1.009   2.683 -0.7155 -0.3774 -2.5599
   71CHL1    O3 6363   2.722   1.140   2.538 -0.2547 -0.1974 -0.1954
   71CHL1   H3' 6364   2.721   1.235   2.527  1.6747 -0.0047  0.8863
   71CHL1    C4 6365   2.587   1.108   2.739  0.9460  0.4158  0.0735
   71CHL1   H4A 6366   2.526   1.196   2.709 -1.4914 -0.4076  2.2528
   71CHL1   H4B 6367   2.526   1.035   2.683  1.4196  0.2526 -0.2409
   71CHL1    C5 6368   2.579   1.101   2.895 -0.1990  0.1214  0.9619
   71CHL1    C6 6369   2.517   1.003   2.961 -0.0007 -0.0962 -0.1900
   71CHL1    H6 6370   2.467   0.931   2.895  1.3521 -0.6883 -0.6009
   71CHL1    C7 6371   2.521   0.982   3.106  0.6918  0.0382 -0.4163
   71CHL1   H7A 6372   2.424   0.953   3.150  0.2145  0.1686 -1.3569
   71CHL1   H7B 6373   2.594   0.903   3.133  0.6593  0.2973  0.4715
   71CHL1    C8 6374   2.558   1.117   3.178  0.2929  0.1138  0.5255
   71CHL1    H8 6375   2.471   1.185   3.182 -1.2081 -1.7346  0.8207
   71CHL1   C14 6376   2.583   1.089   3.331  0.3151 -0.2128 -0.0551
   71CHL1   H14 6377   2.669   1.018   3.333  1.2824  0.9191 -0.2780
   71CHL1   C15 6378   2.466   1.027   3.402 -0.3558 -0.5342  0.3076
   71CHL1  H15A 6379   2.367   1.067   3.370 -0.2200  0.8533  1.5256
   71CHL1  H15B 6380   2.454   0.917   3.390 -0.3260 -0.4919 -0.1170
   71CHL1   C16 6381   2.489   1.058   3.550  0.1768  0.0009 -0.1732
   71CHL1  H16A 6382   2.395   1.103   3.588 -2.0240 -3.2485 -1.2631
   71CHL1  H16B 6383   2.503   0.965   3.608 -0.4971  0.4924  0.8033
   71CHL1   C17 6384   2.610   1.153   3.558  0.2159 -0.3738 -0.5202
   71CHL1   H17 6385   2.695   1.081   3.563 -0.5937 -1.2554  2.2511
   71CHL1   C13 6386   2.613   1.211   3.417  0.5209  0.1567 -0.1428
   71CHL1   C18 6387   2.506   1.327   3.406 -0.2398  0.4750  0.0890
   71CHL1  H18A 6388   2.528   1.409   3.479 -0.6966  0.7455 -0.0697
   71CHL1  H18B 6389   2.500   1.361   3.301  2.5918  0.4147 -0.1639
   71CHL1  H18C 6390   2.403   1.300   3.439  0.0164 -0.6587 -0.0079
   71CHL1   C12 6391   2.753   1.259   3.372  0.3183 -0.1271 -0.2676
   71CHL1  H12A 6392   2.796   1.346   3.426 -1.4585  1.1019 -0.7489
   71CHL1  H12B 6393   2.821   1.173   3.384 -0.9008 -0.9336  1.3717
   71CHL1   C11 6394   2.750   1.296   3.216 -0.4850 -0.1419  0.8059
   71CHL1  H11A 6395   2.691   1.388   3.199 -0.7829 -0.4018  0.3827
   71CHL1  H11B 6396   2.857   1.313   3.195 -0.7340 -1.5805 -2.1961
   71CHL1    C9 6397   2.689   1.179   3.119 -0.0541  0.3948 -0.0787
   71CHL1    H9 6398   2.758   1.091   3.123 -1.0081 -0.5283 -2.4011
   71CHL1   C10 6399   2.669   1.209   2.965 -0.4633  0.5792 -0.3955
   71CHL1   C19 6400   2.614   1.352   2.949 -0.0667 -1.0028 -0.3293
   71CHL1  H19A 6401   2.530   1.379   3.016  0.5685 -0.8379  0.4186
   71CHL1  H19B 6402   2.692   1.426   2.977 -1.7508  0.4304  0.7369
   71CHL1  H19C 6403   2.589   1.372   2.842  0.4920 -1.3076 -0.5206
   71CHL1    C1 6404   2.808   1.192   2.900 -0.8475 -0.0180 -0.4922
   71CHL1   H1A 6405   2.875   1.261   2.955 -0.7461  0.5168 -1.2678
   71CHL1   H1B 6406   2.839   1.089   2.927 -0.0572  1.2928  4.4817
   71CHL1    C2 6407   2.816   1.212   2.746 -1.1368  0.1421 -0.9235
   71CHL1   H2A 6408   2.924   1.198   2.725 -0.3113  2.3432  1.3464
   71CHL1   H2B 6409   2.791   1.318   2.722  1.2703  0.8500 -0.5816
   71CHL1   C20 6410   2.589   1.252   3.680  0.1112  0.2232  0.1563
   71CHL1   H20 6411   2.491   1.300   3.659 -1.2355 -2.2503  0.4807
   71CHL1   C21 6412   2.699   1.360   3.691  0.0854 -0.2828  0.6493
   71CHL1  H21A 6413   2.719   1.399   3.793  3.4858 -0.3410  0.1335
   71CHL1  H21B 6414   2.667   1.449   3.634  0.4954  0.0653  0.9563
   71CHL1  H21C 6415   2.802   1.325   3.667  0.4664  0.9604  0.4002
   71CHL1   C22 6416   2.572   1.177   3.816 -0.2392 -0.4645 -0.1424
   71CHL1  H22A 6417   2.561   1.259   3.891 -0.4517  0.6104 -1.3064
   71CHL1  H22B 6418   2.474   1.126   3.812  0.1527 -1.2947  0.6684
   71CHL1   C23 6419   2.685   1.085   3.857 -0.2400 -0.0409  0.3392
   71CHL1  H23A 6420   2.685   1.002   3.783 -0.1521  1.6965 -1.7016
   71CHL1  H23B 6421   2.777   1.145   3.845  0.8711 -1.6180  0.6281
   71CHL1   C24 6422   2.665   1.037   3.998 -0.2171 -0.4071  0.3780
   71CHL1  H24A 6423   2.656   1.127   4.062 -1.5324  0.1358 -0.5351
   71CHL1  H24B 6424   2.565   0.993   4.016  0.4615 -1.7410  1.0408
   71CHL1   C25 6425   2.776   0.946   4.046 -0.4805  0.2212  0.4279
   71CHL1   H25 6426   2.791   0.873   3.963 -0.8678  0.2551  0.3235
   71CHL1   C26 6427   2.910   1.008   4.084  0.0544  0.4783 -0.6535
   71CHL1  H26A 6428   2.985   0.931   4.114 -0.2586  0.3695 -0.1360
   71CHL1  H26B 6429   2.942   1.080   4.006 -3.0934  0.7043 -1.8893
   71CHL1  H26C 6430   2.901   1.064   4.179 -0.8443 -1.5535  0.5276
   71CHL1   C27 6431   2.717   0.862   4.171 -0.4568 -0.2355  0.0693
   71CHL1  H27A 6432   2.632   0.797   4.140 -1.0659  0.4839  0.1870
   71CHL1  H27B 6433   2.789   0.805   4.231  0.3233 -0.1545 -0.7657
   71CHL1  H27C 6434   2.673   0.938   4.239  0.0843  0.5695 -0.4586
   72CHL1    C3 6435   2.414   4.247   2.990  0.0907 -0.1397 -0.3575
   72CHL1    H3 6436   2.368   4.346   3.009  0.7064 -0.0684  0.9327
   72CHL1    O3 6437   2.376   4.194   2.866  0.2140 -0.0220  0.0209
   72CHL1   H3' 6438   2.434   4.127   2.828  4.0425  2.3540  1.1408
   72CHL1    C4 6439   2.562   4.268   2.990  0.2577  0.7481 -0.2206
   72CHL1   H4A 6440   2.609   4.171   2.961 -0.6210  0.0027  0.7571
   72CHL1   H4B 6441   2.572   4.341   2.908  0.6527  2.5040  1.3228
   72CHL1    C5 6442   2.604   4.328   3.124 -0.2103 -0.4489  0.6409
   72CHL1    C6 6443   2.669   4.445   3.139  0.1093  0.0639 -0.5421
   72CHL1    H6 6444   2.686   4.508   3.050 -0.0662 -1.0797 -1.4121
   72CHL1    C7 6445   2.716   4.488   3.275  0.2036 -0.0989 -0.6754
   72CHL1   H7A 6446   2.818   4.527   3.257  1.3495 -1.7295  1.8325
   72CHL1   H7B 6447   2.657   4.576   3.308  1.8483  1.5985 -2.0270
   72CHL1    C8 6448   2.714   4.385   3.393 -0.2816 -0.1503 -0.2826
   72CHL1    H8 6449   2.807   4.324   3.390 -0.1718 -0.2137  2.2784
   72CHL1   C14 6450   2.727   4.457   3.529  0.1700  0.3521 -0.5375
   72CHL1   H14 6451   2.640   4.525   3.540  0.2878  0.1660  2.1956
   72CHL1   C15 6452   2.833   4.548   3.563 -0.5797 -0.0535 -0.2540
   72CHL1  H15A 6453   2.932   4.507   3.533  1.8464  3.6947  1.7443
   72CHL1  H15B 6454   2.832   4.645   3.509  1.5964  0.6077  0.7727
   72CHL1   C16 6455   2.833   4.567   3.712  0.3645  0.2754 -0.5301
   72CHL1  H16A 6456   2.933   4.543   3.754 -0.5405 -1.4897  0.7401
   72CHL1  H16B 6457   2.802   4.667   3.751  0.7937 -0.0435  0.6753
   72CHL1   C17 6458   2.724   4.473   3.772  0.1199  0.5796 -0.4397
   72CHL1   H17 6459   2.624   4.521   3.777 -0.8921 -1.4785  0.1468
   72CHL1   C13 6460   2.716   4.363   3.651  0.1498 -0.0224  0.1407
   72CHL1   C18 6461   2.836   4.266   3.668 -0.5947  0.8431  0.1520
   72CHL1  H18A 6462   2.930   4.325   3.662 -0.6928  0.8959 -3.3822
   72CHL1  H18B 6463   2.831   4.218   3.768 -1.7143 -1.7639 -1.0448
   72CHL1  H18C 6464   2.827   4.194   3.583 -3.0415  2.6867 -1.2869
   72CHL1   C12 6465   2.584   4.281   3.644 -0.4876  0.3253  0.3146
   72CHL1  H12A 6466   2.577   4.210   3.729 -0.2100 -0.0056  0.0616
   72CHL1  H12B 6467   2.496   4.349   3.644 -1.1165 -0.4816 -0.4309
   72CHL1   C11 6468   2.574   4.202   3.512  0.1759  0.1933  0.1708
   72CHL1  H11A 6469   2.652   4.124   3.521 -0.3505 -0.1256  3.2502
   72CHL1  H11B 6470   2.474   4.154   3.504 -0.8115  2.1933 -0.1329
   72CHL1    C9 6471   2.597   4.289   3.381  0.4231  0.2627 -0.4834
   72CHL1    H9 6472   2.519   4.366   3.398  0.2296  0.1594 -0.9058
   72CHL1   C10 6473   2.571   4.233   3.242 -0.0117 -0.1121 -0.5540
   72CHL1   C19 6474   2.667   4.111   3.235 -0.4892  0.1881  0.5782
   72CHL1  H19A 6475   2.660   4.059   3.137  1.0321  0.4308  0.3059
   72CHL1  H19B 6476   2.775   4.132   3.252 -0.2784 -1.3723  1.3299
   72CHL1  H19C 6477   2.645   4.026   3.302 -0.5362  0.3449  0.7605
   72CHL1    C1 6478   2.422   4.181   3.238 -0.2297 -0.6613  0.5307
   72CHL1   H1A 6479   2.406   4.099   3.312 -0.2744 -0.3683  0.8484
   72CHL1   H1B 6480   2.368   4.274   3.267  1.4218  0.4405  0.2117
   72CHL1    C2 6481   2.385   4.140   3.100  0.6082 -0.3153  0.3845
   72CHL1   H2A 6482   2.275   4.127   3.101  0.5915 -0.2076  1.7787
   72CHL1   H2B 6483   2.439   4.045   3.080  1.2757 -0.6184  3.1273
   72CHL1   C20 6484   2.750   4.441   3.917  0.1997 -0.1286 -0.4426
   72CHL1   H20 6485   2.854   4.406   3.936 -0.3180 -1.7800 -0.4832
   72CHL1   C21 6486   2.651   4.328   3.959 -0.4914 -0.7283  0.6388
   72CHL1  H21A 6487   2.656   4.308   4.068  0.3722 -2.0327  0.3804
   72CHL1  H21B 6488   2.683   4.229   3.921 -0.1526 -1.0046  1.6111
   72CHL1  H21C 6489   2.550   4.354   3.920 -0.0477 -0.3708 -0.3085
   72CHL1   C22 6490   2.717   4.568   4.001  0.0488  0.0066  0.2445
   72CHL1  H22A 6491   2.748   4.666   3.958 -0.5564  0.6039  1.1381
   72CHL1  H22B 6492   2.608   4.577   4.020  0.1651 -0.2989  1.0850
   72CHL1   C23 6493   2.791   4.567   4.137 -0.4815 -0.5102 -0.2463
   72CHL1  H23A 6494   2.727   4.625   4.207  2.9065  0.7165  2.0789
   72CHL1  H23B 6495   2.798   4.462   4.174 -0.3728 -0.6052 -0.5307
   72CHL1   C24 6496   2.935   4.622   4.117  0.2800 -0.1478  0.1613
   72CHL1  H24A 6497   2.998   4.543   4.070 -1.2011 -2.0813  1.2624
   72CHL1  H24B 6498   2.942   4.718   4.062  1.5393 -0.6071 -0.5167
   72CHL1   C25 6499   2.997   4.662   4.252  0.7040 -0.0904  0.1063
   72CHL1   H25 6500   2.916   4.707   4.314  0.4330  1.8958 -1.5568
   72CHL1   C26 6501   3.060   4.550   4.337  0.0944  0.0335  0.4577
   72CHL1  H26A 6502   3.059   4.581   4.444 -1.7259  0.3473  0.3879
   72CHL1  H26B 6503   2.999   4.459   4.321  1.9530 -0.9005 -2.0119
   72CHL1  H26C 6504   3.164   4.526   4.305 -0.7119 -2.2220 -0.7326
   72CHL1   C27 6505   3.098   4.784   4.224  0.7054 -0.1760  0.0613
   72CHL1  H27A 6506   3.162   4.804   4.313 -0.0244 -0.4725  0.6679
   72CHL1  H27B 6507   3.163   4.746   4.143 -1.1311 -0.4913 -1.3472
   72CHL1  H27C 6508   3.029   4.867   4.195 -1.2753 -1.0937  1.8602
   73CHL1    C3 6509   4.529   6.095   2.538 -0.1082 -0.4560 -0.3934
   73CHL1    H3 6510   4.473   6.001   2.558  0.7977 -1.0278 -0.4444
   73CHL1    O3 6511   4.580   6.090   2.407 -0.1348 -0.5444 -0.0943
   73CHL1   H3' 6512   4.648   6.158   2.409 -2.4095  2.0202 -1.8031
   73CHL1    C4 6513   4.439   6.212   2.544  0.2882 -0.0383 -0.5958
   73CHL1   H4A 6514   4.497   6.302   2.517 -0.1052  0.3295 -0.2229
   73CHL1   H4B 6515   4.351   6.211   2.476  1.3804  0.8261 -2.0548
   73CHL1    C5 6516   4.391   6.228   2.690 -0.5381  0.1986  0.4480
   73CHL1    C6 6517   4.260   6.229   2.722 -0.4554 -0.0622  0.1562
   73CHL1    H6 6518   4.190   6.221   2.637 -1.2034 -0.7833  0.8272
   73CHL1    C7 6519   4.198   6.242   2.861  0.5830  0.5207  1.0337
   73CHL1   H7A 6520   4.102   6.298   2.855  0.6690  0.5083 -1.8018
   73CHL1   H7B 6521   4.167   6.138   2.885  0.9281  0.3199  0.6279
   73CHL1    C8 6522   4.301   6.287   2.966  0.0726 -0.4636  0.4795
   73CHL1    H8 6523   4.319   6.396   2.952  4.0931 -0.8882  1.0414
   73CHL1   C14 6524   4.264   6.253   3.106  0.0770 -0.3043  0.1923
   73CHL1   H14 6525   4.250   6.143   3.114  0.2836 -0.5647 -2.2853
   73CHL1   C15 6526   4.126   6.304   3.140 -0.0848  0.3107 -0.0978
   73CHL1  H15A 6527   4.106   6.406   3.101  1.6673  0.9621  0.6131
   73CHL1  H15B 6528   4.043   6.237   3.108 -1.0293  2.3785 -2.2235
   73CHL1   C16 6529   4.126   6.319   3.298  0.2830  0.1641  0.1819
   73CHL1  H16A 6530   4.090   6.418   3.333 -2.6650 -1.2881  1.7084
   73CHL1  H16B 6531   4.046   6.253   3.338 -0.1429 -0.1404 -1.1252
   73CHL1   C17 6532   4.267   6.278   3.343  0.0134 -0.0913 -0.6923
   73CHL1   H17 6533   4.268   6.172   3.378 -2.0605  0.9922  3.2891
   73CHL1   C13 6534   4.358   6.300   3.214  0.8562  0.3003 -0.2029
   73CHL1   C18 6535   4.401   6.453   3.201  0.0302 -0.0952  0.0573
   73CHL1  H18A 6536   4.309   6.511   3.223 -1.2357 -1.9031 -0.2127
   73CHL1  H18B 6537   4.488   6.478   3.265 -0.0310 -0.2232  0.1919
   73CHL1  H18C 6538   4.430   6.485   3.099  0.0116  2.3697  0.7603
   73CHL1   C12 6539   4.482   6.207   3.194 -0.6310 -0.0550  0.2388
   73CHL1  H12A 6540   4.558   6.216   3.274 -0.5253 -1.5157  0.3232
   73CHL1  H12B 6541   4.457   6.100   3.208 -1.2945  0.0168 -0.3277
   73CHL1   C11 6542   4.537   6.237   3.054 -0.2035 -0.2675 -0.1503
   73CHL1  H11A 6543   4.583   6.338   3.059 -4.5940  1.9047  1.0839
   73CHL1  H11B 6544   4.622   6.165   3.044  0.2285  0.4973 -2.5280
   73CHL1    C9 6545   4.436   6.223   2.945 -1.1041  0.5445  0.2049
   73CHL1    H9 6546   4.409   6.116   2.955 -0.2506  0.3063  0.1046
   73CHL1   C10 6547   4.501   6.237   2.797 -0.1776 -0.2488  0.6678
   73CHL1   C19 6548   4.572   6.377   2.787 -0.3559  0.0514  0.4938
   73CHL1  H19A 6549   4.595   6.398   2.680 -0.8439  0.4852  0.4717
   73CHL1  H19B 6550   4.509   6.453   2.837  0.0783  0.5734  0.2465
   73CHL1  H19C 6551   4.668   6.372   2.843  0.0679  1.3192 -0.0972
   73CHL1    C1 6552   4.602   6.121   2.770  0.2619 -0.0545  0.6668
   73CHL1   H1A 6553   4.690   6.145   2.834 -0.0316 -1.1555  1.5038
   73CHL1   H1B 6554   4.561   6.025   2.806  3.4664 -1.1307  1.8692
   73CHL1    C2 6555   4.651   6.091   2.626 -0.0930 -0.2174  0.2136
   73CHL1   H2A 6556   4.704   5.993   2.628 -0.7032 -0.5716 -0.4282
   73CHL1   H2B 6557   4.722   6.171   2.595  1.7926 -1.6289  0.7075
   73CHL1   C20 6558   4.322   6.352   3.470 -0.0119  0.5476  0.2576
   73CHL1   H20 6559   4.328   6.462   3.457  2.8470  0.6077  1.2521
   73CHL1   C21 6560   4.460   6.300   3.502  0.0596 -0.1646 -0.0305
   73CHL1  H21A 6561   4.491   6.311   3.608 -0.3345 -2.6864  0.4055
   73CHL1  H21B 6562   4.525   6.354   3.430 -1.3012 -0.2947 -1.4016
   73CHL1  H21C 6563   4.473   6.193   3.475  1.6746  0.5614 -2.4316
   73CHL1   C22 6564   4.226   6.319   3.591  0.4849 -0.2199 -0.5980
   73CHL1  H22A 6565   4.246   6.390   3.674  0.2059 -1.5551  0.6337
   73CHL1  H22B 6566   4.128   6.343   3.545  0.8561 -2.8902 -3.0225
   73CHL1   C23 6567   4.221   6.175   3.632  0.4832 -0.2874 -0.4011
   73CHL1  H23A 6568   4.179   6.105   3.556 -1.9645  1.3119 -0.6144
   73CHL1  H23B 6569   4.324   6.136   3.650  0.2869 -0.4894  0.3597
   73CHL1   C24 6570   4.132   6.159   3.759 -0.0601  0.2086  0.0895
   73CHL1  H24A 6571   4.134   6.056   3.803 -2.0690  0.2225  0.3041
   73CHL1  H24B 6572   4.174   6.219   3.842  0.4143  0.1004 -0.0726
   73CHL1   C25 6573   3.990   6.204   3.742  0.5349 -0.5600  0.2157
   73CHL1   H25 6574   3.993   6.311   3.713 -1.8064  0.4791  3.2596
   73CHL1   C26 6575   3.907   6.128   3.638  0.5186 -0.4467  0.0567
   73CHL1  H26A 6576   3.860   6.036   3.680 -0.3038 -0.5313 -1.0091
   73CHL1  H26B 6577   3.824   6.197   3.610 -0.4270 -0.8130  1.7742
   73CHL1  H26C 6578   3.964   6.117   3.544 -1.9780  1.7385 -1.8610
   73CHL1   C27 6579   3.927   6.196   3.889  0.5835  0.4638 -0.1060
   73CHL1  H27A 6580   3.832   6.254   3.885  0.4593  0.2075 -1.0721
   73CHL1  H27B 6581   3.903   6.090   3.911  0.4299  0.5609  0.2090
   73CHL1  H27C 6582   3.996   6.242   3.963  3.1333 -2.2201 -0.6385
   74CHL1    C3 6583   5.010   4.111   2.941  0.0706  0.5296 -0.0465
   74CHL1    H3 6584   4.906   4.083   2.915  0.2115 -0.0954  0.0478
   74CHL1    O3 6585   5.101   4.088   2.831 -0.5112  0.1528 -0.0310
   74CHL1   H3' 6586   5.083   4.000   2.798  0.6376  0.3268 -1.2408
   74CHL1    C4 6587   5.022   4.256   2.991 -0.1239 -0.1500 -0.4256
   74CHL1   H4A 6588   5.127   4.292   2.995  0.0792 -0.7715 -0.0328
   74CHL1   H4B 6589   4.965   4.315   2.916 -2.1727 -0.7633  0.5450
   74CHL1    C5 6590   4.957   4.274   3.131  0.2554  0.1097 -0.5442
   74CHL1    C6 6591   4.848   4.352   3.151 -0.4647 -0.3694 -0.0894
   74CHL1    H6 6592   4.808   4.416   3.071 -0.1351 -0.1247 -0.0552
   74CHL1    C7 6593   4.786   4.372   3.283  0.0326  0.1357 -0.3085
   74CHL1   H7A 6594   4.735   4.470   3.292  0.4804  0.1801  3.1524
   74CHL1   H7B 6595   4.697   4.305   3.285 -0.9367  1.2546 -2.5386
   74CHL1    C8 6596   4.873   4.327   3.398 -0.3240  0.4152 -0.3734
   74CHL1    H8 6597   4.964   4.391   3.406  2.0475 -2.6863 -0.5638
   74CHL1   C14 6598   4.801   4.321   3.528  0.6339 -0.2450 -0.9289
   74CHL1   H14 6599   4.730   4.236   3.516  1.7586 -1.8297  2.5283
   74CHL1   C15 6600   4.724   4.451   3.572 -0.1220 -0.8134 -0.4626
   74CHL1  H15A 6601   4.776   4.538   3.526  0.5374 -2.2072 -2.4832
   74CHL1  H15B 6602   4.617   4.445   3.541 -0.2813 -1.3260  0.1886
   74CHL1   C16 6603   4.732   4.463   3.728 -0.7264 -0.5310  0.7137
   74CHL1  H16A 6604   4.791   4.551   3.761 -0.9175  0.1374 -0.6639
   74CHL1  H16B 6605   4.634   4.478   3.777 -0.4614 -0.3320  1.1892
   74CHL1   C17 6606   4.790   4.326   3.765  0.2545 -0.0902 -0.4929
   74CHL1   H17 6607   4.700   4.261   3.759 -0.5022  0.3079  3.3663
   74CHL1   C13 6608   4.884   4.286   3.655 -0.6092  0.6889  0.0546
   74CHL1   C18 6609   5.010   4.382   3.663  0.4069 -0.0730 -0.2779
   74CHL1  H18A 6610   5.058   4.353   3.759 -2.5343  1.1910  1.7350
   74CHL1  H18B 6611   5.080   4.374   3.577 -0.5035  0.1353 -1.0665
   74CHL1  H18C 6612   4.977   4.488   3.669  0.0147 -0.0618 -2.0393
   74CHL1   C12 6613   4.936   4.141   3.629  0.2306 -0.5926 -0.9504
   74CHL1  H12A 6614   5.006   4.121   3.713 -0.1161 -2.6555 -1.0882
   74CHL1  H12B 6615   4.854   4.067   3.647  1.6857 -2.0685 -0.0703
   74CHL1   C11 6616   4.999   4.121   3.493 -0.2502  0.7390 -0.2306
   74CHL1  H11A 6617   5.102   4.162   3.506  0.3911 -1.1604  1.2494
   74CHL1  H11B 6618   5.022   4.013   3.477  1.3150  1.1783 -1.1779
   74CHL1    C9 6619   4.933   4.191   3.370 -1.3270  0.3242  0.0183
   74CHL1    H9 6620   4.842   4.130   3.354 -1.4021  0.1501  1.0311
   74CHL1   C10 6621   5.009   4.181   3.241 -0.2818  0.0381 -0.5432
   74CHL1   C19 6622   5.146   4.240   3.271  0.3211 -0.3583 -0.5765
   74CHL1  H19A 6623   5.137   4.344   3.311 -0.7747 -1.4835  2.3836
   74CHL1  H19B 6624   5.212   4.181   3.337 -0.6414  0.7411  1.4537
   74CHL1  H19C 6625   5.204   4.238   3.176  0.1151 -0.2337 -0.7062
   74CHL1    C1 6626   5.002   4.033   3.193 -0.1633  0.2680  0.3643
   74CHL1   H1A 6627   5.064   3.974   3.263 -1.1349 -0.8616  0.3067
   74CHL1   H1B 6628   4.901   3.988   3.191 -0.1293  0.0776  2.1718
   74CHL1    C2 6629   5.066   4.010   3.049  0.1856 -0.5787 -0.0111
   74CHL1   H2A 6630   5.054   3.905   3.016 -1.1817 -0.3708 -0.2287
   74CHL1   H2B 6631   5.177   4.015   3.056  0.2855 -1.8512 -0.4805
   74CHL1   C20 6632   4.842   4.310   3.915 -0.6721  0.0149 -0.1432
   74CHL1   H20 6633   4.944   4.349   3.934  0.2324 -1.9437 -0.7480
   74CHL1   C21 6634   4.835   4.158   3.945  0.4708 -0.1391  0.2668
   74CHL1  H21A 6635   4.925   4.109   3.901 -0.5256 -2.6458  0.8793
   74CHL1  H21B 6636   4.750   4.106   3.898  1.5331 -0.7732 -1.0094
   74CHL1  H21C 6637   4.828   4.126   4.052  1.9821 -1.6091 -0.0355
   74CHL1   C22 6638   4.754   4.387   4.015  0.5597  0.6644 -0.2017
   74CHL1  H22A 6639   4.751   4.492   3.978 -0.3757  0.5924 -0.3430
   74CHL1  H22B 6640   4.651   4.346   4.015 -0.2536  2.4373  1.8145
   74CHL1   C23 6641   4.806   4.374   4.160 -0.5610 -0.0144  0.5711
   74CHL1  H23A 6642   4.815   4.269   4.194 -0.7945 -0.0487  0.5303
   74CHL1  H23B 6643   4.910   4.412   4.157 -0.6857  0.3070  0.2051
   74CHL1   C24 6644   4.728   4.469   4.243 -0.0681 -0.3629 -0.3696
   74CHL1  H24A 6645   4.702   4.559   4.183  0.0866  0.3771  0.6544
   74CHL1  H24B 6646   4.634   4.427   4.284 -0.6199  0.6290 -0.5873
   74CHL1   C25 6647   4.815   4.523   4.359  0.5079 -0.4496 -1.1049
   74CHL1   H25 6648   4.920   4.551   4.338  0.7924 -0.1974  0.4679
   74CHL1   C26 6649   4.748   4.652   4.427  0.0587 -0.0962 -0.4316
   74CHL1  H26A 6650   4.641   4.624   4.438  0.2395 -2.1040 -2.8395
   74CHL1  H26B 6651   4.795   4.666   4.526 -0.5330 -0.6369 -0.0675
   74CHL1  H26C 6652   4.766   4.746   4.371  1.5535  0.3130  0.6855
   74CHL1   C27 6653   4.829   4.402   4.458  0.2297  0.8158  0.4557
   74CHL1  H27A 6654   4.731   4.359   4.487  1.0496 -0.5672  1.2587
   74CHL1  H27B 6655   4.895   4.323   4.417 -1.5022 -0.8211  0.6810
   74CHL1  H27C 6656   4.861   4.442   4.556 -1.6766 -1.4985  2.1428
   75CHL1    C3 6657   0.154   3.223   2.930 -0.4680 -0.5815 -0.3620
   75CHL1    H3 6658   0.045   3.222   2.954 -0.6344  2.4070 -0.6202
   75CHL1    O3 6659   0.158   3.223   2.792 -0.5073  0.9931 -0.3676
   75CHL1   H3' 6660   0.253   3.217   2.777 -0.1548  2.8784  0.8034
   75CHL1    C4 6661   0.229   3.336   2.997  0.1395  0.2628  0.3426
   75CHL1   H4A 6662   0.334   3.310   2.973  0.2620 -0.2177  1.3304
   75CHL1   H4B 6663   0.204   3.432   2.948  0.3810 -0.0132 -0.3392
   75CHL1    C5 6664   0.211   3.329   3.154  0.0057  0.0712 -0.1019
   75CHL1    C6 6665   0.174   3.434   3.228 -0.0721 -0.1032  0.3328
   75CHL1    H6 6666   0.146   3.525   3.172  0.7470  1.5869  2.5265
   75CHL1    C7 6667   0.158   3.429   3.381 -0.5509  0.5434  0.6448
   75CHL1   H7A 6668   0.216   3.515   3.422  3.5128 -0.3008 -2.6428
   75CHL1   H7B 6669   0.051   3.433   3.410 -0.0292  1.3880  2.5886
   75CHL1    C8 6670   0.211   3.300   3.443  0.5180  0.5078 -0.1384
   75CHL1    H8 6671   0.322   3.306   3.442  0.6680 -0.8564  2.0823
   75CHL1   C14 6672   0.163   3.289   3.594  0.1854  0.6133  0.9225
   75CHL1   H14 6673   0.055   3.284   3.569  1.1820 -2.7798 -4.2201
   75CHL1   C15 6674   0.194   3.401   3.687  0.4250 -0.1103  0.5177
   75CHL1  H15A 6675   0.303   3.422   3.688 -0.2101  4.1115  2.1494
   75CHL1  H15B 6676   0.151   3.501   3.662 -0.5554 -0.6734 -0.1131
   75CHL1   C16 6677   0.163   3.344   3.819  0.0948  0.5821 -0.1344
   75CHL1  H16A 6678   0.249   3.360   3.886 -0.3438 -0.6478  0.7582
   75CHL1  H16B 6679   0.072   3.394   3.860 -0.7822 -0.1800 -1.0994
   75CHL1   C17 6680   0.124   3.196   3.798  0.0667  0.5224  0.6477
   75CHL1   H17 6681   0.018   3.188   3.767 -0.4335 -0.0520  2.3899
   75CHL1   C13 6682   0.193   3.159   3.669  0.8095  0.4562  0.2185
   75CHL1   C18 6683   0.341   3.141   3.680 -0.2933  0.6122 -0.1778
   75CHL1  H18A 6684   0.362   3.052   3.743 -2.0314  0.1631 -0.1868
   75CHL1  H18B 6685   0.385   3.143   3.578  1.0070 -0.7086  0.3154
   75CHL1  H18C 6686   0.388   3.225   3.737  1.2934 -0.4932  0.2247
   75CHL1   C12 6687   0.135   3.039   3.583  1.3222  0.3246 -0.0656
   75CHL1  H12A 6688   0.141   2.943   3.640 -1.2081  0.3658  0.3990
   75CHL1  H12B 6689   0.027   3.066   3.584  1.2989  0.2216  0.6246
   75CHL1   C11 6690   0.190   3.039   3.441 -0.6906  0.3503 -0.3405
   75CHL1  H11A 6691   0.296   3.006   3.438 -0.5527  0.7117  0.4520
   75CHL1  H11B 6692   0.136   2.960   3.383  0.1455  0.3394 -1.1250
   75CHL1    C9 6693   0.173   3.174   3.363 -0.0864 -0.6180  0.0763
   75CHL1    H9 6694   0.067   3.179   3.331  0.5729  1.5139 -2.1845
   75CHL1   C10 6695   0.228   3.187   3.213 -0.3985 -0.1766  0.0536
   75CHL1   C19 6696   0.382   3.160   3.222 -0.6810  0.2970 -0.0897
   75CHL1  H19A 6697   0.407   3.062   3.268 -0.1959  0.6966  0.5060
   75CHL1  H19B 6698   0.431   3.168   3.122  0.2845  0.0044  0.3504
   75CHL1  H19C 6699   0.428   3.235   3.290  0.1888 -0.5719  0.3092
   75CHL1    C1 6700   0.170   3.076   3.123 -0.9096 -0.3844 -0.1503
   75CHL1   H1A 6701   0.201   2.974   3.156  0.8530 -0.0038 -0.5264
   75CHL1   H1B 6702   0.059   3.085   3.131 -0.7769  1.1467  0.2101
   75CHL1    C2 6703   0.212   3.088   2.975 -0.6830  0.1397  0.7533
   75CHL1   H2A 6704   0.169   3.004   2.917  0.5695 -0.3293  0.4717
   75CHL1   H2B 6705   0.321   3.072   2.955 -0.7686 -1.6649  1.5665
   75CHL1   C20 6706   0.139   3.118   3.931 -0.1027  0.7684 -0.1903
   75CHL1   H20 6707   0.246   3.094   3.950 -0.4113 -0.0292  0.6705
   75CHL1   C21 6708   0.065   2.988   3.912 -0.5402 -0.1861  1.0753
   75CHL1  H21A 6709   0.128   2.935   3.839 -2.4568 -0.7694 -0.2252
   75CHL1  H21B 6710  -0.032   3.012   3.864  0.9542  3.0844 -0.6115
   75CHL1  H21C 6711   0.050   2.925   4.002 -0.3157  1.5829  2.4135
   75CHL1   C22 6712   0.089   3.198   4.056 -0.0357  0.3213  0.0603
   75CHL1  H22A 6713   0.145   3.293   4.075  2.8354 -1.3574  0.6939
   75CHL1  H22B 6714  -0.018   3.220   4.039  0.4820  2.2258 -1.0034
   75CHL1   C23 6715   0.087   3.121   4.191  0.2007 -0.1609  0.1020
   75CHL1  H23A 6716   0.016   3.036   4.184  0.6266 -0.6145  1.0858
   75CHL1  H23B 6717   0.189   3.080   4.205 -0.1694 -0.4875  2.2046
   75CHL1   C24 6718   0.039   3.215   4.309  0.1061  0.1663  0.0957
   75CHL1  H24A 6719   0.112   3.294   4.335 -0.4909  0.7524  0.0092
   75CHL1  H24B 6720  -0.051   3.263   4.267  0.4593 -0.6256 -1.6500
   75CHL1   C25 6721  -0.012   3.152   4.438 -0.5941 -0.2190  0.4155
   75CHL1   H25 6722   0.066   3.102   4.499  0.0995  0.3619  0.0153
   75CHL1   C26 6723  -0.066   3.261   4.531 -0.3769  0.1815 -0.3735
   75CHL1  H26A 6724  -0.012   3.358   4.542  0.4660  0.0260 -2.5140
   75CHL1  H26B 6725  -0.166   3.291   4.493  0.0589  2.4903  0.1738
   75CHL1  H26C 6726  -0.075   3.210   4.629 -1.5188 -0.5341 -0.8341
   75CHL1   C27 6727  -0.125   3.055   4.415  0.3797 -0.4072  0.5399
   75CHL1  H27A 6728  -0.201   3.114   4.359  2.7460 -0.0521 -2.5762
   75CHL1  H27B 6729  -0.073   2.973   4.361  0.1306  0.4708 -1.0896
   75CHL1  H27C 6730  -0.169   3.019   4.510 -2.7231  0.6675 -0.3532
   76CHL1    C3 6731   3.214   4.350   3.120 -0.2965 -0.4288 -0.8994
   76CHL1    H3 6732   3.291   4.271   3.129  0.3737  0.3156  0.1052
   76CHL1    O3 6733   3.136   4.336   3.005 -0.2705  0.2162  0.2093
   76CHL1   H3' 6734   3.071   4.407   3.012  0.0957  0.4824  1.1049
   76CHL1    C4 6735   3.117   4.341   3.241 -0.3124  0.2078  0.4280
   76CHL1   H4A 6736   3.030   4.407   3.218 -0.5417 -0.5271 -0.8898
   76CHL1   H4B 6737   3.076   4.238   3.232  0.0823  0.2172 -2.6221
   76CHL1    C5 6738   3.179   4.371   3.369  0.8825  0.1801 -0.7671
   76CHL1    C6 6739   3.173   4.281   3.466  0.0733  0.2391  0.3067
   76CHL1    H6 6740   3.123   4.184   3.450 -0.7928  0.7865 -0.3682
   76CHL1    C7 6741   3.234   4.297   3.602 -0.1789 -0.2922  0.6622
   76CHL1   H7A 6742   3.150   4.271   3.670 -0.1696 -0.7184  0.5191
   76CHL1   H7B 6743   3.325   4.235   3.617  0.0275  0.5231  3.1163
   76CHL1    C8 6744   3.250   4.444   3.635 -0.6382 -0.1154 -0.1689
   76CHL1    H8 6745   3.150   4.492   3.641  0.0426  1.6070 -1.6346
   76CHL1   C14 6746   3.315   4.459   3.772  0.3701 -0.4113  0.1437
   76CHL1   H14 6747   3.406   4.397   3.759  0.8237  0.7846 -3.1471
   76CHL1   C15 6748   3.237   4.399   3.890  0.3486 -0.2738 -0.3051
   76CHL1  H15A 6749   3.132   4.437   3.886  0.3299  0.3291  2.9217
   76CHL1  H15B 6750   3.254   4.290   3.894  1.1726 -0.2733 -2.5768
   76CHL1   C16 6751   3.316   4.463   4.008 -0.1383  0.0731  0.2384
   76CHL1  H16A 6752   3.249   4.507   4.086  1.1167  1.4317  0.5824
   76CHL1  H16B 6753   3.378   4.394   4.069 -0.8032 -1.0521 -0.3202
   76CHL1   C17 6754   3.421   4.559   3.945  0.1323 -0.3069  0.0161
   76CHL1   H17 6755   3.509   4.495   3.925  1.3548  0.6866  1.8607
   76CHL1   C13 6756   3.355   4.598   3.815  0.1186 -0.3395 -0.6843
   76CHL1   C18 6757   3.231   4.694   3.844 -0.1895 -0.0943  0.2332
   76CHL1  H18A 6758   3.171   4.660   3.931  1.6781 -0.7128  1.3461
   76CHL1  H18B 6759   3.275   4.793   3.867  0.8533 -0.7324  1.0837
   76CHL1  H18C 6760   3.169   4.695   3.751 -0.1962  0.1205  0.2395
   76CHL1   C12 6761   3.443   4.658   3.705 -0.3003 -0.1159  1.0115
   76CHL1  H12A 6762   3.474   4.761   3.731  1.3473  0.1829 -1.7230
   76CHL1  H12B 6763   3.537   4.600   3.700 -0.7622 -1.0476  2.6237
   76CHL1   C11 6764   3.373   4.657   3.568 -0.4990  0.0251  0.6563
   76CHL1  H11A 6765   3.285   4.724   3.569  0.1367  0.8748  1.1433
   76CHL1  H11B 6766   3.444   4.703   3.495  1.0412 -0.3558  1.8535
   76CHL1    C9 6767   3.329   4.519   3.526 -0.2915 -0.3864  0.2292
   76CHL1    H9 6768   3.421   4.458   3.513  0.1009  0.6867 -2.8274
   76CHL1   C10 6769   3.251   4.509   3.386 -0.6761 -0.7285 -0.3419
   76CHL1   C19 6770   3.148   4.621   3.370 -1.0122 -0.1143  0.0991
   76CHL1  H19A 6771   3.081   4.610   3.283  0.2301 -1.4597 -0.7325
   76CHL1  H19B 6772   3.085   4.634   3.461  1.4036  1.3915  1.6857
   76CHL1  H19C 6773   3.207   4.715   3.361 -1.5980  0.3860  1.2008
   76CHL1    C1 6774   3.345   4.514   3.265  0.1996 -0.4377  0.5944
   76CHL1   H1A 6775   3.386   4.617   3.266  0.5844 -0.5169 -1.6118
   76CHL1   H1B 6776   3.418   4.436   3.298 -0.8432 -1.2578  1.0311
   76CHL1    C2 6777   3.287   4.485   3.124 -0.3494 -0.2758  0.2181
   76CHL1   H2A 6778   3.373   4.495   3.054 -1.2658  2.3341 -0.6392
   76CHL1   H2B 6779   3.207   4.559   3.108  0.0974  0.3318  0.7658
   76CHL1   C20 6780   3.468   4.667   4.047 -0.3954 -0.0828  0.2242
   76CHL1   H20 6781   3.389   4.744   4.063  1.6338  1.8129  1.7781
   76CHL1   C21 6782   3.593   4.744   3.994 -0.1298  0.2052  1.5719
   76CHL1  H21A 6783   3.557   4.804   3.907 -2.5207 -1.1489  1.5372
   76CHL1  H21B 6784   3.669   4.673   3.954  0.6770  1.3654  0.9703
   76CHL1  H21C 6785   3.627   4.817   4.070  2.2757  0.7482  0.0867
   76CHL1   C22 6786   3.506   4.613   4.186 -1.0729  0.0776 -0.1887
   76CHL1  H22A 6787   3.428   4.539   4.213  1.9149 -2.6522  1.6491
   76CHL1  H22B 6788   3.602   4.559   4.171 -0.0066  1.2062  2.0861
   76CHL1   C23 6789   3.529   4.715   4.297 -0.0741 -0.1641 -0.0962
   76CHL1  H23A 6790   3.616   4.779   4.274  0.3079 -0.8464 -0.5925
   76CHL1  H23B 6791   3.437   4.777   4.287  1.3812  1.9382 -1.1157
   76CHL1   C24 6792   3.556   4.640   4.428 -0.0893 -0.1548 -0.0882
   76CHL1  H24A 6793   3.474   4.568   4.446 -0.5491  0.6301  1.0532
   76CHL1  H24B 6794   3.645   4.577   4.410 -0.9346 -1.3943 -0.0858
   76CHL1   C25 6795   3.580   4.735   4.544  0.4976 -0.3815  0.4150
   76CHL1   H25 6796   3.677   4.785   4.520  1.4860 -2.3984  0.0294
   76CHL1   C26 6797   3.473   4.833   4.578  0.5345 -0.0505  0.1413
   76CHL1  H26A 6798   3.508   4.883   4.671 -0.1479 -2.0663  1.5454
   76CHL1  H26B 6799   3.468   4.904   4.493 -0.7636  0.4471  0.6099
   76CHL1  H26C 6800   3.376   4.781   4.594  0.0130  0.6688 -0.5877
   76CHL1   C27 6801   3.601   4.653   4.673 -0.1431 -0.1554 -0.2681
   76CHL1  H27A 6802   3.628   4.727   4.750  0.7683 -0.0573 -0.6788
   76CHL1  H27B 6803   3.508   4.600   4.703  0.7928 -0.6132  1.9876
   76CHL1  H27C 6804   3.674   4.570   4.679 -1.0187 -0.9317 -0.1085
   77SOPE     N 6805   5.459   1.142   6.621  0.6554 -0.1124 -0.9134
   77SOPE   HN1 6806   5.401   1.094   6.693  0.3772  1.1260 -0.2876
   77SOPE   HN2 6807   5.538   1.182   6.675  0.4764 -0.3409 -0.4766
   77SOPE   HN3 6808   5.399   1.210   6.570 -1.9605 -1.9987 -0.5697
   77SOPE   C12 6809   5.525   1.052   6.516 -0.8095  0.3394 -0.1383
   77SOPE  H12A 6810   5.598   0.995   6.577  0.6400  1.5583 -0.6899
   77SOPE  H12B 6811   5.584   1.114   6.446 -0.4325  0.9870  0.7372
   77SOPE   C11 6812   5.427   0.964   6.437 -0.8176  1.2167 -1.1651
   77SOPE  H11A 6813   5.476   0.894   6.366  2.5557  2.0801  0.0830
   77SOPE  H11B 6814   5.349   1.014   6.376 -0.6864 -0.1567 -2.5285
   77SOPE     P 6815   5.402   0.749   6.586  0.4274 -0.2547 -0.4221
   77SOPE   O13 6816   5.287   0.702   6.664 -0.0990  0.7796 -0.3958
   77SOPE   O14 6817   5.535   0.756   6.649  0.6626  0.0928  0.4347
   77SOPE   O12 6818   5.361   0.888   6.533 -0.0836 -0.5849 -0.1465
   77SOPE   O11 6819   5.420   0.663   6.456  0.1711  0.1950 -0.4264
   77SOPE    C1 6820   5.317   0.655   6.361 -0.6505  0.5388  0.3303
   77SOPE    HA 6821   5.354   0.708   6.271 -2.5611  2.1089  0.3936
   77SOPE    HB 6822   5.224   0.708   6.390 -2.4792 -1.6843 -1.0556
   77SOPE    C2 6823   5.279   0.505   6.335 -0.6537  0.3225  0.0950
   77SOPE    HS 6824   5.249   0.466   6.434 -1.1709 -0.7776 -0.4739
   77SOPE   O21 6825   5.398   0.437   6.282 -0.1927 -0.2576 -0.4220
   77SOPE   C21 6826   5.391   0.300   6.285 -0.3301  0.6659  0.0272
   77SOPE   O22 6827   5.288   0.234   6.303 -0.2439 -0.4154  0.5359
   77SOPE   C22 6828   5.531   0.246   6.224 -0.4153  0.2324 -0.1329
   77SOPE   H2R 6829   5.524   0.140   6.257 -2.6110  1.1645  2.9389
   77SOPE   H2S 6830   5.613   0.300   6.277 -0.9343 -1.2402  2.3689
   77SOPE    C3 6831   5.154   0.508   6.239 -0.4975  0.0159 -0.5528
   77SOPE    HX 6832   5.082   0.554   6.310 -1.2051 -0.0783 -1.1972
   77SOPE    HY 6833   5.116   0.408   6.210  0.8652 -0.2747 -1.3956
   77SOPE   O31 6834   5.170   0.592   6.123  0.3443 -0.0161  0.4225
   77SOPE   C31 6835   5.062   0.653   6.077  0.3341 -0.3086  0.0784
   77SOPE   O32 6836   4.959   0.662   6.135  0.3540  0.0072  0.0367
   77SOPE   C32 6837   5.096   0.715   5.942 -0.6041 -1.0493 -0.2761
   77SOPE   H2X 6838   5.119   0.630   5.874  1.7825 -0.1990 -0.6162
   77SOPE   H2Y 6839   5.188   0.775   5.955 -0.1044 -1.8974  0.1497
   77SOPE   C23 6840   5.546   0.264   6.065 -0.5809 -0.2568 -0.5844
   77SOPE   H3R 6841   5.628   0.199   6.027  1.4856  3.2486 -2.6464
   77SOPE   H3S 6842   5.588   0.366   6.057  1.1842 -0.8773  0.2943
   77SOPE   C24 6843   5.419   0.254   5.981  0.6509  0.1802 -0.2849
   77SOPE   H4R 6844   5.355   0.165   5.997 -1.1834  1.6700  1.2366
   77SOPE   H4S 6845   5.346   0.326   6.024  1.0082 -0.7071  1.9914
   77SOPE   C25 6846   5.440   0.288   5.834  0.4495 -0.8949 -0.2590
   77SOPE   H5R 6847   5.344   0.316   5.786  1.1328 -1.1218 -1.8199
   77SOPE   H5S 6848   5.510   0.373   5.818 -0.8170 -0.2355 -2.6832
   77SOPE   C26 6849   5.503   0.179   5.751 -0.5599  0.0585  0.3894
   77SOPE   H6R 6850   5.594   0.143   5.804 -0.5759  2.0014  1.8316
   77SOPE   H6S 6851   5.429   0.097   5.743  0.6278 -1.3619  2.6919
   77SOPE   C27 6852   5.572   0.219   5.615 -0.2338  0.2511  0.0115
   77SOPE   H7R 6853   5.493   0.260   5.548 -0.2860  0.5421  0.2449
   77SOPE   H7S 6854   5.653   0.293   5.635 -0.3215  0.8826 -1.7909
   77SOPE   C28 6855   5.638   0.098   5.542  0.3286 -0.2495  0.2601
   77SOPE   H8R 6856   5.711   0.053   5.613 -0.1466 -2.7673 -0.7556
   77SOPE   H8S 6857   5.549   0.032   5.533 -0.5763  0.4213  3.1104
   77SOPE   C29 6858   5.702   0.140   5.409 -0.3421 -0.3455 -0.3087
   77SOPE   H91 6859   5.785   0.212   5.418 -1.7899  1.4056 -0.3321
   77SOPE  C210 6860   5.666   0.100   5.287 -0.5101  0.1397 -0.0947
   77SOPE  H101 6861   5.725   0.142   5.205 -0.3155 -0.4580 -0.2647
   77SOPE  C211 6862   5.555   0.005   5.242 -0.0637 -0.7227 -0.3718
   77SOPE  H11R 6863   5.457   0.050   5.269 -0.2803 -1.1562 -0.4264
   77SOPE  H11S 6864   5.567  -0.091   5.296 -0.6555 -0.5430  0.0903
   77SOPE  C212 6865   5.555  -0.038   5.093  0.3410  0.0261 -0.2550
   77SOPE  H12R 6866   5.480  -0.119   5.078 -0.1708 -0.2069  2.7782
   77SOPE  H12S 6867   5.656  -0.073   5.063  1.1432  2.6849 -0.8538
   77SOPE  C213 6868   5.505   0.072   4.994 -0.3835 -0.4018 -0.8624
   77SOPE  H13R 6869   5.564   0.162   5.020 -2.7322  0.4536  1.9975
   77SOPE  H13S 6870   5.401   0.106   5.010 -0.2985 -0.3886 -0.3244
   77SOPE  C214 6871   5.524   0.029   4.847 -0.1778 -0.0458 -0.2566
   77SOPE  H14R 6872   5.473   0.101   4.779  1.9590 -0.5102 -2.4719
   77SOPE  H14S 6873   5.477  -0.070   4.828 -0.4287 -0.1341  0.7898
   77SOPE  C215 6874   5.671   0.010   4.810 -0.0510  0.1941 -0.0716
   77SOPE  H15R 6875   5.704  -0.080   4.867 -3.1451  0.3700  2.2690
   77SOPE  H15S 6876   5.739   0.090   4.844  0.9189 -1.2359  1.4979
   77SOPE  C216 6877   5.675  -0.016   4.658 -0.3970 -0.2080  0.1326
   77SOPE  H16R 6878   5.637   0.076   4.610  0.8677  1.3732  2.0140
   77SOPE  H16S 6879   5.608  -0.099   4.626  1.9570 -0.7123 -4.2453
   77SOPE  C217 6880   5.812  -0.058   4.613 -0.3573  0.1442  0.3890
   77SOPE  H17R 6881   5.836  -0.135   4.689  1.9489  0.0549 -0.3448
   77SOPE  H17S 6882   5.901   0.008   4.612 -0.0795 -0.1744 -2.1844
   77SOPE  C218 6883   5.814  -0.128   4.467 -0.3700 -0.3761 -0.0978
   77SOPE  H18R 6884   5.786  -0.069   4.378 -1.4297 -1.8322 -0.7588
   77SOPE  H18S 6885   5.729  -0.199   4.470  0.3425 -1.2525 -0.0888
   77SOPE  H18T 6886   5.909  -0.183   4.448 -1.1008 -1.5820 -0.3392
   77SOPE   C33 6887   4.993   0.815   5.900  0.0767  0.0932 -0.0263
   77SOPE   H3X 6888   5.006   0.916   5.946 -0.1956  0.1960 -0.1670
   77SOPE   H3Y 6889   4.890   0.779   5.919  0.4069 -2.2073 -2.1344
   77SOPE   C34 6890   4.985   0.829   5.745 -0.3063 -0.4597 -0.4775
   77SOPE   H4X 6891   4.906   0.904   5.725  0.2750  0.3412  0.2023
   77SOPE   H4Y 6892   4.951   0.726   5.721 -0.0597 -0.6672  0.0366
   77SOPE   C35 6893   5.121   0.883   5.679  0.2941  0.2485 -0.4669
   77SOPE   H5X 6894   5.183   0.790   5.682 -0.7119 -0.4284  0.0593
   77SOPE   H5Y 6895   5.155   0.969   5.740  0.0542  1.0755 -1.4781
   77SOPE   C36 6896   5.094   0.924   5.531  0.5473  0.3003  0.2434
   77SOPE   H6X 6897   5.086   1.034   5.531 -0.6730  0.2295 -0.3788
   77SOPE   H6Y 6898   4.993   0.884   5.507  1.1683 -0.9820 -0.3469
   77SOPE   C37 6899   5.199   0.888   5.430 -0.6498 -0.1395  0.0304
   77SOPE   H7X 6900   5.218   0.779   5.422 -2.2388 -0.3314 -1.7462
   77SOPE   H7Y 6901   5.292   0.941   5.459 -0.5453  1.9875 -3.5008
   77SOPE   C38 6902   5.145   0.930   5.289 -0.2132  0.9852 -0.1830
   77SOPE   H8X 6903   5.135   1.041   5.284 -1.4711  0.8635 -0.7837
   77SOPE   H8Y 6904   5.048   0.889   5.254  0.8178 -1.4770 -0.3131
   77SOPE   C39 6905   5.259   0.894   5.195  0.3150 -0.2131  0.2012
   77SOPE   H9X 6906   5.263   0.783   5.189 -2.5327 -0.2910 -2.4540
   77SOPE   H9Y 6907   5.351   0.932   5.244 -1.1819 -0.3877  3.3619
   77SOPE  C310 6908   5.245   0.952   5.047 -0.0486  1.2496  0.1880
   77SOPE  H10X 6909   5.233   1.061   5.065  0.2907  1.3967 -0.4716
   77SOPE  H10Y 6910   5.161   0.907   4.989  1.2460 -2.0507  0.6670
   77SOPE  C311 6911   5.375   0.938   4.967 -0.5083  0.2310  0.8009
   77SOPE  H11X 6912   5.381   0.833   4.933 -0.0856 -0.0467  1.7066
   77SOPE  H11Y 6913   5.462   0.963   5.031 -0.4228  1.4528  0.2361
   77SOPE  C312 6914   5.384   1.039   4.849 -0.2735 -0.7079  1.3097
   77SOPE  H12X 6915   5.475   1.034   4.785 -0.6268  1.6977  0.5305
   77SOPE  H12Y 6916   5.389   1.138   4.898 -1.2730 -0.4052  0.8157
   77SOPE  C313 6917   5.270   1.029   4.754  0.1109 -0.2528 -0.6485
   77SOPE  H13X 6918   5.269   1.118   4.688 -2.0664  0.3397  0.1095
   77SOPE  H13Y 6919   5.172   1.018   4.804 -0.0757 -1.1316 -1.1875
   77SOPE  C314 6920   5.287   0.911   4.650  0.7369  0.2919 -0.1663
   77SOPE  H14X 6921   5.272   0.822   4.714 -1.6458  0.2587 -0.6524
   77SOPE  H14Y 6922   5.389   0.923   4.607  0.8469 -0.5921 -0.1527
   77SOPE  C315 6923   5.180   0.927   4.546  0.3479  0.0495  0.2049
   77SOPE  H15X 6924   5.210   0.852   4.470  3.3355  1.8148 -0.4982
   77SOPE  H15Y 6925   5.195   1.020   4.487 -1.8385  0.6234  0.4379
   77SOPE  C316 6926   5.037   0.903   4.594 -1.0454 -0.4527 -0.6439
   77SOPE  H16X 6927   5.005   0.985   4.663  2.9907  0.5774  0.2835
   77SOPE  H16Y 6928   5.028   0.813   4.659 -0.4723 -0.2731 -0.3009
   77SOPE  C317 6929   4.947   0.890   4.475  0.3912 -0.1864  0.2309
   77SOPE  H17X 6930   4.993   0.830   4.393  1.9569  2.8172 -1.2595
   77SOPE  H17Y 6931   4.928   0.986   4.423 -1.9505 -0.4715  0.4400
   77SOPE  C318 6932   4.809   0.834   4.513  0.3292 -0.2556 -0.1331
   77SOPE  H18X 6933   4.732   0.850   4.435 -0.3680  0.3138  0.6660
   77SOPE  H18Y 6934   4.776   0.888   4.604 -1.5450  1.3291 -1.6677
   77SOPE  H18Z 6935   4.805   0.725   4.535 -0.5582 -0.1230  0.3641
   78SOPE     N 6936   3.380   3.639   6.981  0.2631  0.0387 -0.4566
   78SOPE   HN1 6937   3.407   3.538   6.981 -1.2363 -0.3938  1.0393
   78SOPE   HN2 6938   3.472   3.687   6.976  1.0719 -1.4772 -0.8441
   78SOPE   HN3 6939   3.330   3.649   7.071  1.0487  1.0579 -0.1123
   78SOPE   C12 6940   3.288   3.678   6.864 -0.1327 -0.6512 -0.0835
   78SOPE  H12A 6941   3.198   3.613   6.870 -0.5876  0.0055  0.3294
   78SOPE  H12B 6942   3.351   3.652   6.776  0.7369  1.6584 -0.2208
   78SOPE   C11 6943   3.250   3.828   6.882  0.2800  0.9179 -0.4889
   78SOPE  H11A 6944   3.348   3.879   6.876  1.1139 -0.3270  1.5576
   78SOPE  H11B 6945   3.215   3.830   6.987  0.2113 -2.0406 -0.3711
   78SOPE     P 6946   3.184   3.925   6.645 -0.1432  0.1182 -0.3386
   78SOPE   O13 6947   3.298   4.015   6.664 -0.3054 -0.1772  0.3594
   78SOPE   O14 6948   3.065   3.976   6.582 -0.7426 -0.5350  0.1117
   78SOPE   O12 6949   3.144   3.866   6.791 -0.2333  0.4552 -0.0492
   78SOPE   O11 6950   3.230   3.798   6.565 -0.8173  0.1887  0.2606
   78SOPE    C1 6951   3.154   3.674   6.557 -0.7148  0.1179 -0.5323
   78SOPE    HA 6952   3.067   3.678   6.626  0.7055  4.4473  1.3240
   78SOPE    HB 6953   3.220   3.589   6.582 -1.3587 -0.2884 -0.1729
   78SOPE    C2 6954   3.096   3.636   6.418 -0.4722 -0.1780 -0.1588
   78SOPE    HS 6955   3.063   3.530   6.424 -0.5909 -0.1823 -0.7997
   78SOPE   O21 6956   3.185   3.657   6.310 -0.0507 -0.7617 -0.6784
   78SOPE   C21 6957   3.255   3.551   6.280  0.2814 -0.0821 -0.3751
   78SOPE   O22 6958   3.250   3.449   6.340 -0.2280  0.8763 -0.1442
   78SOPE   C22 6959   3.339   3.575   6.155  0.2038 -0.0388 -0.0091
   78SOPE   H2R 6960   3.400   3.665   6.179  0.1846 -0.3765  1.3760
   78SOPE   H2S 6961   3.265   3.603   6.078 -0.6664  2.0274  1.4813
   78SOPE    C3 6962   2.964   3.714   6.383 -0.3176 -0.0482  0.0554
   78SOPE    HX 6963   2.993   3.817   6.352  0.2933 -0.2048  0.0869
   78SOPE    HY 6964   2.897   3.723   6.471  1.1642  1.5630  1.0966
   78SOPE   O31 6965   2.894   3.665   6.266  0.5079  0.5481 -0.3071
   78SOPE   C31 6966   2.824   3.555   6.285 -0.3884  0.0647  0.3941
   78SOPE   O32 6967   2.809   3.500   6.396 -0.4401 -0.3396  0.7551
   78SOPE   C32 6968   2.775   3.510   6.154 -0.5295 -0.8299  0.5250
   78SOPE   H2X 6969   2.860   3.508   6.082 -2.0753 -0.6574 -1.3756
   78SOPE   H2Y 6970   2.700   3.583   6.115 -0.6904 -0.8322  0.8310
   78SOPE   C23 6971   3.435   3.461   6.095  0.6570 -0.7026  0.2217
   78SOPE   H3R 6972   3.372   3.375   6.064 -2.8087  1.5730  0.3956
   78SOPE   H3S 6973   3.514   3.434   6.168  1.4497 -1.0375 -0.7317
   78SOPE   C24 6974   3.500   3.504   5.960 -0.9845  0.2137  0.5315
   78SOPE   H4R 6975   3.424   3.511   5.879 -0.2664  0.6601 -0.1091
   78SOPE   H4S 6976   3.539   3.607   5.968 -2.3244  0.6776  1.4938
   78SOPE   C25 6977   3.617   3.409   5.908  0.3377 -0.1875  0.2400
   78SOPE   H5R 6978   3.697   3.409   5.985  1.7231  1.4251 -1.1238
   78SOPE   H5S 6979   3.582   3.304   5.906  1.1826 -0.4622 -0.2707
   78SOPE   C26 6980   3.665   3.436   5.771  0.3506 -0.2197 -0.2213
   78SOPE   H6R 6981   3.699   3.542   5.764 -1.1483  0.2178 -1.5044
   78SOPE   H6S 6982   3.747   3.364   5.751  0.6472  0.2477 -0.7095
   78SOPE   C27 6983   3.562   3.399   5.665 -0.6542  0.4876  0.8366
   78SOPE   H7R 6984   3.540   3.290   5.667  3.6452 -0.6329 -0.9449
   78SOPE   H7S 6985   3.474   3.466   5.672 -1.6567 -0.5442 -1.0685
   78SOPE   C28 6986   3.608   3.410   5.516 -0.2932 -0.1731 -0.1275
   78SOPE   H8R 6987   3.676   3.498   5.514 -3.2406  2.3318  1.1061
   78SOPE   H8S 6988   3.665   3.321   5.481  2.2035  1.4598 -0.4187
   78SOPE   C29 6989   3.485   3.430   5.428  0.8330  1.1323 -0.0971
   78SOPE   H91 6990   3.390   3.430   5.484  1.4805  0.1135  1.0727
   78SOPE  C210 6991   3.494   3.449   5.295  0.2223 -0.3118  0.1782
   78SOPE  H101 6992   3.404   3.459   5.233  0.5105  1.3790  0.0045
   78SOPE  C211 6993   3.631   3.464   5.227  0.5642  0.1757  0.3564
   78SOPE  H11R 6994   3.684   3.367   5.223 -0.8733 -0.6417 -3.0423
   78SOPE  H11S 6995   3.698   3.528   5.286  1.3418 -0.0207 -0.2912
   78SOPE  C212 6996   3.622   3.536   5.083  0.0158  0.5163  0.2313
   78SOPE  H12R 6997   3.728   3.557   5.059  0.2305  1.4507  1.8621
   78SOPE  H12S 6998   3.567   3.633   5.087  1.8180  1.6861 -1.6075
   78SOPE  C213 6999   3.553   3.452   4.977  0.5663 -0.4462 -0.3905
   78SOPE  H13R 7000   3.450   3.414   4.996  0.7385 -2.7425 -3.2351
   78SOPE  H13S 7001   3.616   3.361   4.985  0.6843 -0.3793 -0.5495
   78SOPE  C214 7002   3.566   3.519   4.843 -0.0120 -0.8244 -0.0274
   78SOPE  H14R 7003   3.668   3.551   4.812 -0.1892  1.6315  1.6380
   78SOPE  H14S 7004   3.513   3.614   4.866  0.8743  0.1736 -1.8543
   78SOPE  C215 7005   3.497   3.439   4.725 -0.0581  0.0441  0.4931
   78SOPE  H15R 7006   3.391   3.411   4.744  0.1407 -1.5438 -0.5233
   78SOPE  H15S 7007   3.541   3.337   4.718 -1.8690 -0.6997 -0.8259
   78SOPE  C216 7008   3.516   3.506   4.587 -0.1200  0.0363 -0.0423
   78SOPE  H16R 7009   3.624   3.521   4.569 -0.1380  1.1543  0.7168
   78SOPE  H16S 7010   3.473   3.608   4.579 -1.0060 -0.3784 -0.9803
   78SOPE  C217 7011   3.457   3.417   4.473  0.2549 -0.3714  0.1288
   78SOPE  H17R 7012   3.502   3.316   4.482  0.3315 -0.4392 -0.9120
   78SOPE  H17S 7013   3.488   3.454   4.373 -0.4202 -1.1890 -0.3994
   78SOPE  C218 7014   3.302   3.406   4.477 -0.1389  0.8115 -0.3256
   78SOPE  H18R 7015   3.257   3.508   4.473 -0.2606  0.7633 -0.1710
   78SOPE  H18S 7016   3.272   3.359   4.573 -0.1939  0.5361 -0.4779
   78SOPE  H18T 7017   3.254   3.340   4.401  2.0939 -2.0285  0.5525
   78SOPE   C33 7018   2.675   3.385   6.152 -0.5457 -0.1602 -0.1782
   78SOPE   H3X 7019   2.595   3.411   6.224 -2.3222 -1.7091 -1.4843
   78SOPE   H3Y 7020   2.729   3.303   6.203  1.3895  1.2123  0.0682
   78SOPE   C34 7021   2.619   3.358   6.014  0.0340 -0.1530 -0.2486
   78SOPE   H4X 7022   2.704   3.330   5.948  1.4547  0.8864  1.0649
   78SOPE   H4Y 7023   2.587   3.452   5.963 -0.0921  1.1159  2.0098
   78SOPE   C35 7024   2.522   3.239   6.017  0.2451  0.2824  0.0369
   78SOPE   H5X 7025   2.442   3.252   6.093 -0.6198 -0.3519 -0.7430
   78SOPE   H5Y 7026   2.565   3.144   6.058 -0.2915  1.1789  2.8827
   78SOPE   C36 7027   2.457   3.213   5.879  0.2947  0.0017 -0.8540
   78SOPE   H6X 7028   2.405   3.304   5.844  1.2968  1.0427  0.2817
   78SOPE   H6Y 7029   2.383   3.131   5.891 -1.4187  1.4237 -1.4469
   78SOPE   C37 7030   2.561   3.170   5.774 -0.6568  0.3510 -0.5712
   78SOPE   H7X 7031   2.505   3.090   5.722 -0.9532  0.6453 -0.7048
   78SOPE   H7Y 7032   2.651   3.124   5.822 -0.5871 -0.9527 -1.8903
   78SOPE   C38 7033   2.616   3.278   5.683 -0.7417 -0.1012 -0.0851
   78SOPE   H8X 7034   2.717   3.313   5.714 -1.4000  1.6728  0.1836
   78SOPE   H8Y 7035   2.547   3.364   5.693 -4.1432 -2.5599 -0.8723
   78SOPE   C39 7036   2.593   3.250   5.533  0.4427  0.1484 -0.0049
   78SOPE   H9X 7037   2.484   3.229   5.530 -0.2187  2.2111  3.5746
   78SOPE   H9Y 7038   2.640   3.155   5.501 -0.4201  0.7067 -3.2928
   78SOPE  C310 7039   2.618   3.371   5.445  0.2348 -0.6919 -0.0011
   78SOPE  H10X 7040   2.721   3.400   5.477  0.9412 -1.7131 -1.2485
   78SOPE  H10Y 7041   2.550   3.455   5.470  0.7311 -0.1973 -0.2755
   78SOPE  C311 7042   2.617   3.329   5.299 -0.3301  0.1547  0.1359
   78SOPE  H11X 7043   2.537   3.255   5.275  0.2478 -0.0182 -1.3733
   78SOPE  H11Y 7044   2.717   3.284   5.281 -0.7109 -0.8055  0.3760
   78SOPE  C312 7045   2.611   3.457   5.217  0.6142 -0.3117  0.4581
   78SOPE  H12X 7046   2.694   3.525   5.246  0.6787 -0.3101  0.2716
   78SOPE  H12Y 7047   2.514   3.497   5.253  1.1373  1.9806 -0.4965
   78SOPE  C313 7048   2.617   3.429   5.066  1.0865  0.2420  0.1783
   78SOPE  H13X 7049   2.537   3.357   5.036  1.5782 -0.5343  0.6989
   78SOPE  H13Y 7050   2.712   3.386   5.028  2.2882  2.6990  0.2334
   78SOPE  C314 7051   2.601   3.566   4.986  0.3615  0.5680  0.0832
   78SOPE  H14X 7052   2.542   3.634   5.051 -1.6261 -1.2353  0.2793
   78SOPE  H14Y 7053   2.539   3.549   4.895 -0.8183 -0.4262  1.0359
   78SOPE  C315 7054   2.732   3.633   4.960 -0.0824 -0.2521  0.3479
   78SOPE  H15X 7055   2.783   3.660   5.055 -1.4776  0.8693  0.8083
   78SOPE  H15Y 7056   2.716   3.733   4.913  0.3475 -1.1269 -1.8081
   78SOPE  C316 7057   2.839   3.555   4.878 -0.1343  0.4379 -0.4004
   78SOPE  H16X 7058   2.802   3.537   4.775  1.1334  0.0952 -0.8133
   78SOPE  H16Y 7059   2.856   3.456   4.925  3.9264  0.4490 -1.4343
   78SOPE  C317 7060   2.978   3.616   4.882 -0.4932 -0.4401  0.1192
   78SOPE  H17X 7061   3.004   3.641   4.987  0.5439 -1.0441  0.0283
   78SOPE  H17Y 7062   2.975   3.715   4.833  0.7844 -0.6759 -0.5051
   78SOPE  C318 7063   3.093   3.542   4.802 -0.1583  0.2411 -0.6013
   78SOPE  H18X 7064   3.051   3.515   4.703 -1.6670  0.5653 -0.0740
   78SOPE  H18Y 7065   3.137   3.459   4.862  1.2597  1.8052  0.6389
   78SOPE  H18Z 7066   3.177   3.613   4.786 -0.0514 -0.2478 -2.4454
   79SOPE     N 7067   6.049   0.417   6.992 -0.5702 -0.0409  0.3210
   79SOPE   HN1 7068   6.059   0.339   7.059 -1.0861 -0.7502 -0.4044
   79SOPE   HN2 7069   6.145   0.430   6.954 -1.1371  1.0557 -0.8429
   79SOPE   HN3 7070   6.034   0.511   7.033 -0.1939  0.6747 -1.1095
   79SOPE   C12 7071   5.953   0.373   6.881  0.5819 -0.2501 -0.4929
   79SOPE  H12A 7072   5.942   0.466   6.820  1.8373  1.1173  1.2396
   79SOPE  H12B 7073   5.856   0.350   6.929  0.8476  1.7801  1.2072
   79SOPE   C11 7074   6.019   0.263   6.798 -0.4168 -0.0312  0.6680
   79SOPE  H11A 7075   5.942   0.238   6.722 -1.0327  1.5164  0.7609
   79SOPE  H11B 7076   6.021   0.169   6.858  2.2305 -0.9890 -0.7223
   79SOPE     P 7077   6.151   0.369   6.602 -0.2009 -0.0645 -0.3368
   79SOPE   O13 7078   6.298   0.398   6.579  0.0767 -0.2521 -0.0558
   79SOPE   O14 7079   6.053   0.484   6.610 -0.1501 -0.4179 -0.1533
   79SOPE   O12 7080   6.154   0.286   6.742  0.6108  0.1495 -0.2658
   79SOPE   O11 7081   6.096   0.271   6.494  0.0989  0.0391 -0.0622
   79SOPE    C1 7082   6.154   0.148   6.453 -0.0180  0.0064 -0.5735
   79SOPE    HA 7083   6.085   0.061   6.465  0.8449 -0.7725 -1.0649
   79SOPE    HB 7084   6.245   0.125   6.514 -0.2313  0.0790 -0.2244
   79SOPE    C2 7085   6.213   0.149   6.309  0.3486  0.3333 -0.3101
   79SOPE    HS 7086   6.316   0.188   6.320  0.3553  0.2648 -0.1322
   79SOPE   O21 7087   6.131   0.231   6.226  0.4563 -0.7083  0.4905
   79SOPE   C21 7088   6.182   0.343   6.177 -0.5088 -0.1636  0.7741
   79SOPE   O22 7089   6.296   0.375   6.173 -0.2873 -1.1843 -0.0778
   79SOPE   C22 7090   6.068   0.448   6.143 -0.2631 -0.2220  0.2847
   79SOPE   H2R 7091   6.110   0.504   6.056  1.3483  0.3398  1.3812
   79SOPE   H2S 7092   6.066   0.520   6.228  1.0844  1.6636 -1.2028
   79SOPE    C3 7093   6.225   0.008   6.248  0.8546 -0.2344 -0.0535
   79SOPE    HX 7094   6.123  -0.036   6.239  0.2348  1.0998  0.2102
   79SOPE    HY 7095   6.283  -0.046   6.326  0.3965 -1.2245 -0.3905
   79SOPE   O31 7096   6.284   0.017   6.114 -0.0281 -0.4707  0.1006
   79SOPE   C31 7097   6.416   0.006   6.114 -0.2582  0.5268  0.8772
   79SOPE   O32 7098   6.489   0.011   6.215  0.1146  0.5432  0.1823
   79SOPE   C32 7099   6.466  -0.031   5.964  0.0288 -0.2078  0.4791
   79SOPE   H2X 7100   6.442  -0.139   5.965  2.8858 -0.9273  0.2091
   79SOPE   H2Y 7101   6.576  -0.012   5.959  0.2433 -1.5831 -0.6495
   79SOPE   C23 7102   5.926   0.393   6.122 -0.3360  0.4164  1.1255
   79SOPE   H3R 7103   5.846   0.464   6.152 -1.1216 -0.3749  0.9159
   79SOPE   H3S 7104   5.914   0.301   6.183  1.5362 -0.1366  0.7462
   79SOPE   C24 7105   5.907   0.368   5.971 -0.3853 -0.7947 -0.0155
   79SOPE   H4R 7106   5.798   0.354   5.953 -0.4431 -1.8817  1.0371
   79SOPE   H4S 7107   5.934   0.462   5.919  1.7933 -0.2368  1.9840
   79SOPE   C25 7108   5.971   0.243   5.918 -0.6203 -0.0221  0.2928
   79SOPE   H5R 7109   6.079   0.268   5.923 -0.7601  1.2087 -1.6584
   79SOPE   H5S 7110   5.933   0.163   5.986 -0.2514 -0.8150 -0.4099
   79SOPE   C26 7111   5.940   0.203   5.770  0.5477 -0.6658  0.0466
   79SOPE   H6R 7112   5.999   0.114   5.738  0.3015  0.0756 -2.7587
   79SOPE   H6S 7113   5.832   0.174   5.769 -0.1988  1.4471 -4.3507
   79SOPE   C27 7114   5.955   0.316   5.658 -0.7330 -0.6185  0.3276
   79SOPE   H7R 7115   5.870   0.327   5.587 -0.1890  0.0880 -0.2318
   79SOPE   H7S 7116   5.961   0.417   5.704  1.1907 -0.0718 -0.9974
   79SOPE   C28 7117   6.080   0.288   5.572 -0.1374  0.3266  0.2881
   79SOPE   H8R 7118   6.171   0.285   5.635 -0.1534 -0.8237  0.2776
   79SOPE   H8S 7119   6.069   0.189   5.523 -0.6793 -0.1127  1.2529
   79SOPE   C29 7120   6.130   0.388   5.469 -0.2976 -0.1990 -1.0542
   79SOPE   H91 7121   6.182   0.479   5.502  1.0886 -1.4928  0.5098
   79SOPE  C210 7122   6.118   0.372   5.335 -0.1169 -0.5375  0.6118
   79SOPE  H101 7123   6.163   0.446   5.267 -1.1557 -0.9629 -0.5734
   79SOPE  C211 7124   6.052   0.264   5.265  0.3016 -0.1396  0.2982
   79SOPE  H11R 7125   5.945   0.289   5.248  0.3358 -0.5743 -0.5914
   79SOPE  H11S 7126   6.062   0.170   5.323  0.9539 -0.4447 -0.2988
   79SOPE  C212 7127   6.104   0.247   5.124 -0.2130 -0.2489 -0.0559
   79SOPE  H12R 7128   6.041   0.170   5.075 -0.2479 -0.7901  0.8191
   79SOPE  H12S 7129   6.207   0.208   5.113  0.2485  0.9757 -0.2827
   79SOPE  C213 7130   6.111   0.372   5.029 -0.0056 -0.1698  0.3026
   79SOPE  H13R 7131   6.173   0.453   5.074 -1.0636  1.2774 -0.7617
   79SOPE  H13S 7132   6.006   0.408   5.023  0.6016  1.3920 -2.2907
   79SOPE  C214 7133   6.173   0.337   4.900 -0.7765 -0.7823 -0.1287
   79SOPE  H14R 7134   6.277   0.302   4.911 -0.3800  0.0682 -1.0421
   79SOPE  H14S 7135   6.181   0.440   4.858 -0.1084 -0.6553  0.2944
   79SOPE  C215 7136   6.077   0.263   4.809  0.0263  0.3111  0.1081
   79SOPE  H15R 7137   5.975   0.305   4.816  0.8563  2.3031  1.0230
   79SOPE  H15S 7138   6.079   0.157   4.841  0.6007  0.8916  2.1351
   79SOPE  C216 7139   6.123   0.269   4.662 -0.2563 -0.1040  0.4381
   79SOPE  H16R 7140   6.059   0.190   4.617 -1.7113  1.0592  0.3745
   79SOPE  H16S 7141   6.227   0.234   4.647 -0.2573  0.6792 -1.7556
   79SOPE  C217 7142   6.106   0.408   4.593 -0.6695  0.3991  0.1557
   79SOPE  H17R 7143   6.190   0.475   4.621  0.5427 -0.4914 -1.2441
   79SOPE  H17S 7144   6.012   0.457   4.627  0.7331  2.6221  1.0712
   79SOPE  C218 7145   6.117   0.394   4.444 -0.4150  0.5428 -0.5432
   79SOPE  H18R 7146   6.030   0.334   4.412 -0.5207 -0.3043  1.1890
   79SOPE  H18S 7147   6.213   0.341   4.426 -0.0487  0.6864  0.8138
   79SOPE  H18T 7148   6.122   0.494   4.395 -0.6366  1.4694  1.2159
   79SOPE   C33 7149   6.381   0.040   5.860 -0.3647 -0.1361  0.5594
   79SOPE   H3X 7150   6.381   0.151   5.870  2.4526 -0.1261  1.4527
   79SOPE   H3Y 7151   6.275   0.011   5.874 -0.5306  0.3546  0.3372
   79SOPE   C34 7152   6.426   0.003   5.718 -0.0907 -0.2459  0.1782
   79SOPE   H4X 7153   6.448  -0.105   5.703  1.0628 -0.0129  0.0880
   79SOPE   H4Y 7154   6.529   0.042   5.704  0.9260 -2.1991  1.6031
   79SOPE   C35 7155   6.338   0.061   5.609  0.7308 -0.0243  0.2352
   79SOPE   H5X 7156   6.354   0.166   5.578 -2.0298 -0.2577 -2.4436
   79SOPE   H5Y 7157   6.232   0.054   5.641  0.2980 -0.1986 -1.1710
   79SOPE   C36 7158   6.347  -0.013   5.478 -0.3645 -0.0722  0.1045
   79SOPE   H6X 7159   6.253   0.008   5.422  0.4596  0.6726 -1.0366
   79SOPE   H6Y 7160   6.345  -0.121   5.502  0.3845 -0.3981 -1.1847
   79SOPE   C37 7161   6.473   0.036   5.395  0.5550  0.2902 -0.3469
   79SOPE   H7X 7162   6.561  -0.009   5.447 -1.7482 -1.7319  2.1055
   79SOPE   H7Y 7163   6.475   0.146   5.413 -2.1410  0.6764 -1.9366
   79SOPE   C38 7164   6.460   0.020   5.243  0.5833 -0.1847  0.0234
   79SOPE   H8X 7165   6.353   0.035   5.215  0.6628 -1.1761 -0.9025
   79SOPE   H8Y 7166   6.490  -0.086   5.225 -0.8420 -1.1258  2.6227
   79SOPE   C39 7167   6.549   0.108   5.160 -0.6363 -0.8353 -0.5399
   79SOPE   H9X 7168   6.655   0.110   5.192 -1.0662 -1.5674  1.0161
   79SOPE   H9Y 7169   6.514   0.207   5.197 -1.4802 -0.6287 -1.8182
   79SOPE  C310 7170   6.536   0.082   5.009  0.4256  0.4112 -0.0878
   79SOPE  H10X 7171   6.430   0.093   4.979  0.3478  0.4102  0.1866
   79SOPE  H10Y 7172   6.564  -0.023   4.987 -1.7846 -0.0386 -1.0395
   79SOPE  C311 7173   6.621   0.179   4.924 -0.6708  0.1417  0.4998
   79SOPE  H11X 7174   6.729   0.159   4.940 -0.8131  1.1681  3.1816
   79SOPE  H11Y 7175   6.608   0.284   4.958 -2.4925  0.5249 -1.2144
   79SOPE  C312 7176   6.593   0.162   4.769  0.1737 -1.0253 -0.7183
   79SOPE  H12X 7177   6.652   0.228   4.702  3.0620 -1.1167  1.5345
   79SOPE  H12Y 7178   6.488   0.194   4.755  0.7975  1.3200 -0.4939
   79SOPE  C313 7179   6.620   0.028   4.704  0.6128 -0.3702 -0.2482
   79SOPE  H13X 7180   6.562  -0.052   4.753  0.0957  0.2077  0.0951
   79SOPE  H13Y 7181   6.727   0.002   4.722  0.3021 -1.3368  0.2239
   79SOPE  C314 7182   6.601   0.034   4.550  0.7571 -0.2106 -0.5728
   79SOPE  H14X 7183   6.669   0.113   4.511  0.8009  0.3614  0.6283
   79SOPE  H14Y 7184   6.494   0.050   4.523  0.5940  1.1556  0.7420
   79SOPE  C315 7185   6.659  -0.094   4.488 -0.2838  0.9868  0.0913
   79SOPE  H15X 7186   6.609  -0.179   4.540 -0.0680 -0.2747 -1.6653
   79SOPE  H15Y 7187   6.768  -0.100   4.506 -0.3067 -4.2656  0.0615
   79SOPE  C316 7188   6.633  -0.117   4.337  0.4951  0.0240  0.1736
   79SOPE  H16X 7189   6.653  -0.011   4.308  1.3954  0.6786  2.9128
   79SOPE  H16Y 7190   6.525  -0.134   4.317  0.1380  1.4846  0.7113
   79SOPE  C317 7191   6.716  -0.212   4.249 -0.2910  0.1236  0.5803
   79SOPE  H17X 7192   6.686  -0.313   4.282 -0.5935  0.1498  0.3936
   79SOPE  H17Y 7193   6.824  -0.195   4.267  0.2432 -0.4110 -1.7461
   79SOPE  C318 7194   6.707  -0.192   4.095 -0.1478 -0.0155 -0.0630
   79SOPE  H18X 7195   6.775  -0.263   4.043 -2.7760 -2.5496 -0.3534
   79SOPE  H18Y 7196   6.732  -0.088   4.065 -3.2137  0.6498 -0.6972
   79SOPE  H18Z 7197   6.609  -0.205   4.043 -0.3019  2.3197 -0.4297
   80SOPE     N 7198   2.485   6.672   6.744  0.1901  0.1159  0.2466
   80SOPE   HN1 7199   2.565   6.709   6.799  1.0428 -0.1751 -0.7630
   80SOPE   HN2 7200   2.404   6.643   6.802 -1.8145  2.5354 -1.1000
   80SOPE   HN3 7201   2.513   6.587   6.691  0.8501  2.0829 -2.8192
   80SOPE   C12 7202   2.440   6.762   6.629  0.1084 -0.4538  0.3988
   80SOPE  H12A 7203   2.404   6.861   6.666 -0.2729  0.5263 -2.3317
   80SOPE  H12B 7204   2.350   6.710   6.590 -0.9343  1.2334  0.4370
   80SOPE   C11 7205   2.549   6.773   6.517  0.2293  0.2028  0.0630
   80SOPE  H11A 7206   2.515   6.851   6.445  1.0401 -0.1257 -0.7038
   80SOPE  H11B 7207   2.556   6.677   6.461 -1.0233  0.8946 -1.3517
   80SOPE     P 7208   2.788   6.893   6.520  0.3357  0.7012  0.3976
   80SOPE   O13 7209   2.921   6.826   6.507  0.5369  0.0774  0.5338
   80SOPE   O14 7210   2.774   7.012   6.606  0.0843 -0.3308 -0.5402
   80SOPE   O12 7211   2.678   6.790   6.580  0.2275 -0.3227 -1.0037
   80SOPE   O11 7212   2.746   6.928   6.376 -0.1272 -0.1585  0.1115
   80SOPE    C1 7213   2.683   7.046   6.325 -0.0437  0.0450  0.0042
   80SOPE    HA 7214   2.740   7.134   6.360 -0.5431  0.3269  0.1119
   80SOPE    HB 7215   2.581   7.065   6.364 -0.6328 -0.7604 -1.0725
   80SOPE    C2 7216   2.678   7.041   6.168 -0.4870 -0.7340 -0.3079
   80SOPE    HS 7217   2.659   7.145   6.133  0.5590 -0.2223  0.5607
   80SOPE   O21 7218   2.577   6.939   6.120 -0.6794 -0.1409 -0.4909
   80SOPE   C21 7219   2.453   6.977   6.137 -0.0869 -0.0236 -0.4649
   80SOPE   O22 7220   2.414   7.078   6.193 -0.6378  0.0403  0.2758
   80SOPE   C22 7221   2.353   6.872   6.082  0.4815 -0.3371 -0.5296
   80SOPE   H2R 7222   2.282   6.874   6.167  0.6299  0.4237 -0.4184
   80SOPE   H2S 7223   2.399   6.771   6.080 -0.9222 -1.0607  1.0499
   80SOPE    C3 7224   2.822   7.011   6.111 -0.2858  0.3089 -0.2308
   80SOPE    HX 7225   2.880   6.935   6.167  1.8150  3.1799  1.7731
   80SOPE    HY 7226   2.890   7.098   6.120  1.6461 -0.9510 -1.7714
   80SOPE   O31 7227   2.801   6.976   5.970  0.6763  0.5733 -0.1098
   80SOPE   C31 7228   2.780   7.075   5.883 -0.2835 -0.0765 -0.4042
   80SOPE   O32 7229   2.762   7.192   5.905 -0.8788  0.0076  0.2855
   80SOPE   C32 7230   2.776   7.026   5.744 -0.6571 -0.7353 -0.5243
   80SOPE   H2X 7231   2.723   6.929   5.751 -2.0035  0.0694  1.4841
   80SOPE   H2Y 7232   2.879   7.000   5.714 -0.1722 -0.1945  0.5990
   80SOPE   C23 7233   2.270   6.910   5.954 -0.0427  0.4668  0.5758
   80SOPE   H3R 7234   2.339   6.941   5.873  0.9030 -0.6887  0.9027
   80SOPE   H3S 7235   2.213   7.003   5.977 -3.8467 -1.2984 -0.9426
   80SOPE   C24 7236   2.163   6.809   5.917  0.5481 -0.0240  0.4470
   80SOPE   H4R 7237   2.215   6.711   5.902  1.7753  0.4400  1.4445
   80SOPE   H4S 7238   2.093   6.807   6.002  0.3519  0.6430  0.3076
   80SOPE   C25 7239   2.093   6.851   5.797  0.6897 -0.4710 -0.4821
   80SOPE   H5R 7240   2.062   6.958   5.797 -0.0318 -0.6686  0.4727
   80SOPE   H5S 7241   2.159   6.843   5.707  0.1233 -0.1647 -0.9343
   80SOPE   C26 7242   1.969   6.765   5.767 -0.3786 -0.4611  0.7409
   80SOPE   H6R 7243   1.979   6.664   5.812  0.9540 -0.0814  1.3626
   80SOPE   H6S 7244   1.889   6.823   5.820 -1.0876 -1.4578  0.7779
   80SOPE   C27 7245   1.923   6.768   5.623 -0.1860  0.0614  0.2863
   80SOPE   H7R 7246   1.817   6.737   5.610 -0.2887  0.4190  0.2556
   80SOPE   H7S 7247   1.929   6.874   5.590 -1.7911 -0.3009 -1.3614
   80SOPE   C28 7248   2.026   6.686   5.538  0.2294  0.3575  0.1005
   80SOPE   H8R 7249   1.997   6.694   5.431 -0.9235 -1.8103  0.1851
   80SOPE   H8S 7250   2.130   6.723   5.537  0.5112 -0.4141  0.2264
   80SOPE   C29 7251   2.025   6.539   5.570 -0.2500 -0.1730  0.6211
   80SOPE   H91 7252   2.071   6.519   5.668  0.2650  0.4851  0.5234
   80SOPE  C210 7253   1.956   6.443   5.499  0.4926  0.7234  0.3309
   80SOPE  H101 7254   1.968   6.342   5.541 -2.5934  0.5533  1.0606
   80SOPE  C211 7255   1.893   6.448   5.365  0.8104  0.1643 -0.4318
   80SOPE  H11R 7256   1.841   6.546   5.354 -0.9510 -0.6553  0.3598
   80SOPE  H11S 7257   1.811   6.374   5.354 -1.3535  2.4540 -0.6645
   80SOPE  C212 7258   1.991   6.452   5.252 -0.6695 -0.2470  0.5882
   80SOPE  H12R 7259   2.035   6.350   5.243 -1.8803 -0.7442  0.1772
   80SOPE  H12S 7260   2.072   6.528   5.266 -3.3136  3.5054 -2.3464
   80SOPE  C213 7261   1.919   6.492   5.125 -0.0525 -0.4989 -0.5781
   80SOPE  H13R 7262   1.870   6.591   5.134  0.9705  0.3552 -3.2633
   80SOPE  H13S 7263   1.842   6.420   5.088 -1.1339  0.1163  0.4211
   80SOPE  C214 7264   2.021   6.513   5.014  0.7532  0.0371 -0.1749
   80SOPE  H14R 7265   2.118   6.561   5.039  1.0814 -0.0275 -1.2600
   80SOPE  H14S 7266   1.976   6.566   4.928  3.3859  0.5170 -1.3620
   80SOPE  C215 7267   2.071   6.380   4.952  0.4461 -0.1126 -0.1328
   80SOPE  H15R 7268   1.990   6.303   4.945  1.6047 -1.4436  0.5190
   80SOPE  H15S 7269   2.132   6.327   5.029 -0.4701  0.2802  0.8948
   80SOPE  C216 7270   2.168   6.390   4.839 -0.1347  0.0128 -0.5212
   80SOPE  H16R 7271   2.261   6.439   4.874  1.7577 -1.7712 -2.7666
   80SOPE  H16S 7272   2.119   6.441   4.754 -2.3905  1.5684  1.5825
   80SOPE  C217 7273   2.229   6.257   4.799 -0.1430 -0.1556 -0.0820
   80SOPE  H17R 7274   2.283   6.225   4.891 -1.7670  0.2061  1.0526
   80SOPE  H17S 7275   2.298   6.278   4.715 -2.2254  1.5019 -1.4928
   80SOPE  C218 7276   2.134   6.147   4.760 -0.1760  0.1100  0.0758
   80SOPE  H18R 7277   2.053   6.138   4.835 -1.2860  1.5097 -0.8849
   80SOPE  H18S 7278   2.177   6.047   4.739 -2.0834 -0.3417 -2.0510
   80SOPE  H18T 7279   2.081   6.163   4.663 -0.6895  0.9523  0.4815
   80SOPE   C33 7280   2.709   7.108   5.641  0.4626  0.4106  0.6830
   80SOPE   H3X 7281   2.728   7.217   5.641 -0.3836  0.5668  0.7852
   80SOPE   H3Y 7282   2.599   7.102   5.658  0.6098 -0.3931  1.4212
   80SOPE   C34 7283   2.744   7.052   5.504 -1.4062 -0.4734 -0.0321
   80SOPE   H4X 7284   2.716   6.945   5.496  1.8245 -1.4053 -0.7328
   80SOPE   H4Y 7285   2.852   7.057   5.478 -1.2275  1.2140  0.8881
   80SOPE   C35 7286   2.673   7.122   5.384 -0.6448  0.1442 -0.4403
   80SOPE   H5X 7287   2.695   7.230   5.380 -0.3164  0.0428 -2.7744
   80SOPE   H5Y 7288   2.564   7.113   5.403 -0.4193 -0.8715  0.5269
   80SOPE   C36 7289   2.708   7.057   5.245 -0.3893 -0.2493 -0.2116
   80SOPE   H6X 7290   2.727   6.950   5.269 -1.7072 -0.5711 -0.4996
   80SOPE   H6Y 7291   2.805   7.090   5.202 -1.5876  0.6430 -2.3530
   80SOPE   C37 7292   2.598   7.069   5.131 -0.1708  0.4768 -0.0166
   80SOPE   H7X 7293   2.499   7.045   5.175  0.1800  1.1762  1.1995
   80SOPE   H7Y 7294   2.617   6.990   5.055  2.6794 -0.8985  1.9650
   80SOPE   C38 7295   2.578   7.212   5.075 -0.3233  0.2949  0.6392
   80SOPE   H8X 7296   2.672   7.248   5.028  1.4342  1.6742  4.8198
   80SOPE   H8Y 7297   2.572   7.278   5.164  0.3435  1.1077  0.0971
   80SOPE   C39 7298   2.462   7.218   4.979 -0.3080  0.2742  0.0192
   80SOPE   H9X 7299   2.359   7.195   5.014 -0.4726  0.7846 -0.1098
   80SOPE   H9Y 7300   2.484   7.139   4.905 -0.9750  0.6454 -0.5867
   80SOPE  C310 7301   2.468   7.345   4.893  0.3476  0.0896 -0.0046
   80SOPE  H10X 7302   2.569   7.367   4.851  0.2524  0.2270 -0.1617
   80SOPE  H10Y 7303   2.445   7.428   4.963  0.6797  0.7924 -0.7110
   80SOPE  C311 7304   2.358   7.359   4.783 -0.1175  0.3729 -0.9780
   80SOPE  H11X 7305   2.260   7.397   4.820  0.2802  2.4821 -1.9257
   80SOPE  H11Y 7306   2.352   7.257   4.741 -1.9451 -0.6119  1.3920
   80SOPE  C312 7307   2.405   7.455   4.681 -0.6384 -0.2588  0.6042
   80SOPE  H12X 7308   2.509   7.432   4.648 -0.7912  1.5671 -1.3570
   80SOPE  H12Y 7309   2.408   7.549   4.741  0.8242  1.1246 -1.4888
   80SOPE  C313 7310   2.312   7.477   4.560 -0.0030  0.5353 -0.1908
   80SOPE  H13X 7311   2.207   7.486   4.596  0.0012  0.8101 -0.2475
   80SOPE  H13Y 7312   2.320   7.378   4.510  0.4173 -0.4207  1.6831
   80SOPE  C314 7313   2.365   7.591   4.474 -0.0341 -0.2265 -0.3132
   80SOPE  H14X 7314   2.474   7.596   4.450 -0.2743 -0.2883 -1.4569
   80SOPE  H14Y 7315   2.343   7.684   4.531 -0.8698 -1.3000  1.1902
   80SOPE  C315 7316   2.297   7.598   4.338 -0.1433 -0.5104 -0.3738
   80SOPE  H15X 7317   2.342   7.684   4.283 -0.9671  0.2809  0.1576
   80SOPE  H15Y 7318   2.186   7.610   4.338 -0.0015  0.9615 -0.4208
   80SOPE  C316 7319   2.322   7.475   4.252 -0.1491  0.1928  0.1207
   80SOPE  H16X 7320   2.256   7.397   4.296  0.6265  0.3241  1.5573
   80SOPE  H16Y 7321   2.427   7.439   4.247 -0.2182  0.0027  0.0428
   80SOPE  C317 7322   2.279   7.501   4.108  0.7326 -0.0060  0.9947
   80SOPE  H17X 7323   2.346   7.581   4.071  0.5734  0.0121  0.7350
   80SOPE  H17Y 7324   2.183   7.556   4.095  1.7548  1.7101  0.4301
   80SOPE  C318 7325   2.296   7.388   4.013  0.3651 -0.1191 -0.2133
   80SOPE  H18X 7326   2.321   7.430   3.914  1.0278  3.0212  1.1644
   80SOPE  H18Y 7327   2.213   7.314   4.018 -0.1073  0.4448  0.5457
   80SOPE  H18Z 7328   2.392   7.337   4.037 -1.1175 -2.6687  0.7458
   81SOPE     N 7329   0.212   3.047   6.921 -0.1023 -0.5745 -0.1809
   81SOPE   HN1 7330   0.258   2.963   6.961  1.3529  0.2205 -0.1151
   81SOPE   HN2 7331   0.112   3.022   6.907 -0.5295  0.3591  1.0207
   81SOPE   HN3 7332   0.240   3.070   6.823 -2.1940  0.7499 -0.5336
   81SOPE   C12 7333   0.228   3.152   7.022  0.2571 -0.2316  0.1931
   81SOPE  H12A 7334   0.333   3.189   7.013 -0.3756  1.3087 -1.8902
   81SOPE  H12B 7335   0.202   3.115   7.123 -1.8276 -1.2953 -0.6655
   81SOPE   C11 7336   0.134   3.278   6.993  0.4357 -0.1718 -0.0168
   81SOPE  H11A 7337   0.168   3.355   7.066 -0.4285  0.5629 -0.3779
   81SOPE  H11B 7338   0.029   3.263   7.025  0.2369  1.5421  0.2545
   81SOPE     P 7339   0.109   3.464   6.809  0.1074 -0.1003  0.0866
   81SOPE   O13 7340   0.215   3.567   6.839 -0.3816 -0.4653  0.2147
   81SOPE   O14 7341  -0.020   3.504   6.855 -0.5102  0.1774 -0.2634
   81SOPE   O12 7342   0.145   3.322   6.859  0.4057  0.6584 -0.0409
   81SOPE   O11 7343   0.096   3.430   6.662  0.1848  0.5359 -0.3157
   81SOPE    C1 7344   0.031   3.529   6.568 -0.1905 -0.3967  0.1599
   81SOPE    HA 7345   0.093   3.620   6.556 -0.5238 -0.0565  0.9828
   81SOPE    HB 7346  -0.070   3.551   6.608 -0.1729  1.4801 -0.7454
   81SOPE    C2 7347   0.003   3.469   6.434  0.9408 -0.2447  0.2122
   81SOPE    HS 7348  -0.038   3.368   6.451  0.2373  0.2191  1.3617
   81SOPE   O21 7349   0.120   3.466   6.349  0.2552  0.1363 -0.7419
   81SOPE   C21 7350   0.122   3.369   6.257 -1.1826 -0.2315 -0.4296
   81SOPE   O22 7351   0.051   3.271   6.259  0.3017  0.5002  0.4970
   81SOPE   C22 7352   0.229   3.409   6.150 -0.4027 -0.0726  0.4614
   81SOPE   H2R 7353   0.326   3.426   6.201  0.1704  2.4334 -1.2870
   81SOPE   H2S 7354   0.195   3.498   6.093  0.0821  0.3710  0.8492
   81SOPE    C3 7355  -0.098   3.563   6.361 -0.2995  0.1993 -0.0579
   81SOPE    HX 7356  -0.045   3.660   6.353  0.1927 -0.1710 -1.7189
   81SOPE    HY 7357  -0.188   3.577   6.425  0.7058  2.4941  0.9912
   81SOPE   O31 7358  -0.132   3.518   6.225  0.2450 -0.5003 -0.0737
   81SOPE   C31 7359  -0.243   3.447   6.217  0.5193 -0.5186  0.2909
   81SOPE   O32 7360  -0.320   3.426   6.308  0.0370  0.3397  0.5733
   81SOPE   C32 7361  -0.278   3.406   6.077 -0.0757 -0.6904 -0.4283
   81SOPE   H2X 7362  -0.386   3.418   6.056  0.0623  0.0829 -0.7231
   81SOPE   H2Y 7363  -0.257   3.297   6.081 -3.5203 -1.6695 -3.6880
   81SOPE   C23 7364   0.263   3.290   6.055  0.3008  0.1435  0.3488
   81SOPE   H3R 7365   0.278   3.201   6.120 -1.6804 -2.4406 -2.4315
   81SOPE   H3S 7366   0.363   3.319   6.015  1.4386 -0.5427  2.5583
   81SOPE   C24 7367   0.156   3.264   5.946  0.0496 -0.8978 -0.0052
   81SOPE   H4R 7368   0.053   3.240   5.977 -0.8039  2.2143 -0.0660
   81SOPE   H4S 7369   0.139   3.359   5.891  1.3366 -0.2915  0.5894
   81SOPE   C25 7370   0.200   3.153   5.856 -1.1034 -0.0445  0.7197
   81SOPE   H5R 7371   0.309   3.128   5.859 -1.2887 -1.3496 -1.3236
   81SOPE   H5S 7372   0.150   3.060   5.890 -1.4494 -0.6197 -1.2488
   81SOPE   C26 7373   0.154   3.161   5.712  0.1437  0.1259  0.8772
   81SOPE   H6R 7374   0.043   3.165   5.706  0.1061 -0.7347  0.7674
   81SOPE   H6S 7375   0.190   3.262   5.682 -1.9410  1.1776  1.7337
   81SOPE   C27 7376   0.212   3.056   5.614  0.0455  0.8343  0.0461
   81SOPE   H7R 7377   0.316   3.032   5.647  0.0890  0.4658 -0.3519
   81SOPE   H7S 7378   0.167   2.956   5.634 -0.6654  0.8463 -1.3640
   81SOPE   C28 7379   0.208   3.086   5.469  0.2832  0.2874  0.1906
   81SOPE   H8R 7380   0.104   3.111   5.436 -0.7548 -2.8539  0.7271
   81SOPE   H8S 7381   0.260   3.184   5.468 -1.2909  1.1663  0.5955
   81SOPE   C29 7382   0.278   2.995   5.376  0.3117 -0.3715  0.7977
   81SOPE   H91 7383   0.358   2.941   5.428  1.2059  0.9673  0.8652
   81SOPE  C210 7384   0.274   2.983   5.246 -0.4077 -0.2647  0.3930
   81SOPE  H101 7385   0.352   2.926   5.194  1.3839  2.9318 -0.6694
   81SOPE  C211 7386   0.187   3.073   5.158  0.4748 -0.0463  0.2609
   81SOPE  H11R 7387   0.111   3.133   5.213  1.6440  0.1417  1.7503
   81SOPE  H11S 7388   0.135   3.020   5.076  0.5856 -0.8310  0.6927
   81SOPE  C212 7389   0.271   3.177   5.086  0.6354  0.2311 -0.5035
   81SOPE  H12R 7390   0.362   3.129   5.044 -0.6035 -1.7059 -1.1227
   81SOPE  H12S 7391   0.298   3.247   5.168 -1.5370 -0.8213  1.2014
   81SOPE  C213 7392   0.193   3.263   4.981 -0.0707 -0.3893 -0.7354
   81SOPE  H13R 7393   0.269   3.339   4.955  1.0644 -0.8779  0.9278
   81SOPE  H13S 7394   0.119   3.310   5.049 -1.5232 -3.4815 -0.0095
   81SOPE  C214 7395   0.129   3.200   4.862 -0.4338  0.3629 -0.1668
   81SOPE  H14R 7396   0.069   3.281   4.816 -1.4231 -0.7172 -0.8548
   81SOPE  H14S 7397   0.057   3.123   4.898 -0.6799 -0.3529 -2.1123
   81SOPE  C215 7398   0.222   3.138   4.753  0.4936 -0.5601  0.1364
   81SOPE  H15R 7399   0.177   3.097   4.661  3.3881  1.2900 -2.2902
   81SOPE  H15S 7400   0.269   3.047   4.796 -1.0708 -0.9521  1.0793
   81SOPE  C216 7401   0.334   3.237   4.702 -0.3804  0.1418  0.0702
   81SOPE  H16R 7402   0.396   3.256   4.792  1.0381  1.4445 -1.1273
   81SOPE  H16S 7403   0.274   3.324   4.668 -0.3779  0.0109 -0.2765
   81SOPE  C217 7404   0.407   3.175   4.579  0.2707  0.2190 -0.1400
   81SOPE  H17R 7405   0.506   3.221   4.558 -0.3635  1.3688 -0.7479
   81SOPE  H17S 7406   0.343   3.186   4.489 -4.0559  0.6176  2.6850
   81SOPE  C218 7407   0.448   3.025   4.598 -0.0375  0.0451  0.0818
   81SOPE  H18R 7408   0.504   2.998   4.691 -0.5552 -0.5561  0.2255
   81SOPE  H18S 7409   0.518   3.004   4.515  1.5708  1.1770  1.0979
   81SOPE  H18T 7410   0.362   2.957   4.579 -0.0949  0.5377 -1.5200
   81SOPE   C33 7411  -0.189   3.473   5.970  0.6280 -0.4647  0.5177
   81SOPE   H3X 7412  -0.082   3.446   5.983  1.1663  0.1574 -2.1263
   81SOPE   H3Y 7413  -0.183   3.581   5.995 -0.8275 -0.7822  2.4809
   81SOPE   C34 7414  -0.233   3.450   5.829 -0.7532 -0.4282 -0.2022
   81SOPE   H4X 7415  -0.333   3.494   5.809 -0.7305 -1.7660 -4.2351
   81SOPE   H4Y 7416  -0.240   3.343   5.802 -1.1092 -0.4328 -0.0962
   81SOPE   C35 7417  -0.132   3.515   5.741 -0.2394 -0.4816  0.0040
   81SOPE   H5X 7418  -0.034   3.467   5.759  1.7944  1.0130 -5.1763
   81SOPE   H5Y 7419  -0.115   3.623   5.764 -1.5069 -0.4719  1.0383
   81SOPE   C36 7420  -0.164   3.501   5.592  0.6417 -0.3255  0.0580
   81SOPE   H6X 7421  -0.272   3.524   5.580  1.1111  1.5349 -0.9481
   81SOPE   H6Y 7422  -0.147   3.402   5.543 -1.1841 -0.7818  0.2591
   81SOPE   C37 7423  -0.084   3.596   5.503  0.1955 -0.2431 -0.1512
   81SOPE   H7X 7424   0.018   3.554   5.497  0.5658  0.7989 -2.4226
   81SOPE   H7Y 7425  -0.083   3.693   5.558  1.1154 -0.2297 -0.1836
   81SOPE   C38 7426  -0.139   3.618   5.366 -0.4196 -0.2800 -0.3790
   81SOPE   H8X 7427  -0.245   3.644   5.388  0.3853  1.6020  1.7213
   81SOPE   H8Y 7428  -0.132   3.536   5.291 -2.4307 -0.4200 -0.4835
   81SOPE   C39 7429  -0.081   3.737   5.303 -0.1995 -0.5073 -0.0236
   81SOPE   H9X 7430   0.029   3.731   5.319  0.1134  2.0094 -0.8435
   81SOPE   H9Y 7431  -0.104   3.830   5.359 -1.0670 -1.1362  0.6946
   81SOPE  C310 7432  -0.104   3.750   5.154  0.3114  0.3344 -0.2032
   81SOPE  H10X 7433  -0.079   3.846   5.105  2.2260  0.3259  0.6920
   81SOPE  H10Y 7434  -0.214   3.740   5.139  0.2132 -0.0512  0.7115
   81SOPE  C311 7435  -0.034   3.631   5.078  0.0301  0.1053 -0.6014
   81SOPE  H11X 7436  -0.111   3.570   5.026 -0.2659  1.6544 -2.0718
   81SOPE  H11Y 7437   0.022   3.567   5.150  1.2427  0.4918 -1.1702
   81SOPE  C312 7438   0.057   3.694   4.969  0.1765 -0.0244 -0.0677
   81SOPE  H12X 7439   0.136   3.746   5.026  0.4883  0.6739 -1.1005
   81SOPE  H12Y 7440   0.005   3.776   4.913  2.2126  3.5877  2.8660
   81SOPE  C313 7441   0.126   3.597   4.868 -0.1762  0.2930  0.0770
   81SOPE  H13X 7442   0.141   3.499   4.920 -1.2568  0.2325  0.3009
   81SOPE  H13Y 7443   0.225   3.637   4.840 -0.1403  0.6248  0.6727
   81SOPE  C314 7444   0.048   3.565   4.733 -0.2602  0.0662 -0.6426
   81SOPE  H14X 7445  -0.056   3.529   4.750 -0.2330 -0.4875 -1.5899
   81SOPE  H14Y 7446   0.093   3.474   4.688  0.7016  1.2125 -2.0917
   81SOPE  C315 7447   0.042   3.683   4.629  0.3514  0.9185 -0.1107
   81SOPE  H15X 7448  -0.004   3.771   4.678  2.2929  2.1190 -0.3193
   81SOPE  H15Y 7449  -0.019   3.635   4.549  0.3102  0.3618  0.2449
   81SOPE  C316 7450   0.178   3.733   4.580 -0.2806 -0.4406  0.3357
   81SOPE  H16X 7451   0.240   3.779   4.660  1.9722 -2.6490 -0.0231
   81SOPE  H16Y 7452   0.157   3.798   4.493 -0.2485  1.6214  1.8036
   81SOPE  C317 7453   0.273   3.621   4.526 -0.2165  0.4840 -0.2128
   81SOPE  H17X 7454   0.225   3.575   4.437 -0.0171  0.5957 -0.3790
   81SOPE  H17Y 7455   0.282   3.547   4.608  1.4526  1.3017  0.3896
   81SOPE  C318 7456   0.409   3.667   4.498  0.3863  0.2352  0.0483
   81SOPE  H18X 7457   0.414   3.754   4.430  0.5084  0.7357  0.6860
   81SOPE  H18Y 7458   0.467   3.587   4.447 -0.6499 -0.1962 -0.4855
   81SOPE  H18Z 7459   0.461   3.698   4.592  2.1421 -2.1204 -0.0434
   82SOPE     N 7460   2.659   4.140   6.854 -0.1538  0.3331 -0.1542
   82SOPE   HN1 7461   2.757   4.146   6.819 -0.7619 -1.1027 -2.2908
   82SOPE   HN2 7462   2.653   4.226   6.913  2.8954 -0.7412  1.9867
   82SOPE   HN3 7463   2.637   4.059   6.915  0.4874  1.1495  1.2223
   82SOPE   C12 7464   2.566   4.143   6.738 -0.0647 -0.2184 -0.0701
   82SOPE  H12A 7465   2.580   4.049   6.680 -1.6912 -0.3655 -0.2658
   82SOPE  H12B 7466   2.593   4.234   6.680 -0.3209  0.7958  1.3453
   82SOPE   C11 7467   2.420   4.163   6.795 -0.5048  0.0893  0.0037
   82SOPE  H11A 7468   2.406   4.092   6.878  0.1604  1.0110  0.9304
   82SOPE  H11B 7469   2.345   4.127   6.721 -1.1716 -0.2543  0.8320
   82SOPE     P 7470   2.389   4.434   6.745 -0.2079  0.1110 -0.3102
   82SOPE   O13 7471   2.498   4.522   6.770 -0.0705  0.3237  0.3157
   82SOPE   O14 7472   2.254   4.482   6.768  0.3231 -0.6487 -0.0455
   82SOPE   O12 7473   2.409   4.303   6.836  0.9348 -0.2899 -0.5795
   82SOPE   O11 7474   2.401   4.378   6.595 -0.3408 -0.0086  0.0471
   82SOPE    C1 7475   2.505   4.410   6.502  0.3679 -0.0128  0.1956
   82SOPE    HA 7476   2.522   4.340   6.418 -0.4889  1.5099 -1.3092
   82SOPE    HB 7477   2.601   4.452   6.539  0.6720  1.6639 -2.2564
   82SOPE    C2 7478   2.457   4.537   6.419  0.3338  0.7927  0.2533
   82SOPE    HS 7479   2.426   4.610   6.497 -2.3456 -0.5243  0.5483
   82SOPE   O21 7480   2.348   4.494   6.340 -0.3087  0.0667  0.2837
   82SOPE   C21 7481   2.258   4.586   6.309 -0.1909 -0.4481  0.1407
   82SOPE   O22 7482   2.264   4.704   6.341 -0.2219  0.4405  0.1520
   82SOPE   C22 7483   2.134   4.519   6.247 -0.7345  0.5700 -0.3482
   82SOPE   H2R 7484   2.046   4.542   6.311 -0.6331 -1.5163  0.6268
   82SOPE   H2S 7485   2.147   4.410   6.234  3.5270  1.1500 -2.8818
   82SOPE    C3 7486   2.572   4.584   6.334  0.2428  0.0676 -0.3136
   82SOPE    HX 7487   2.652   4.628   6.396  0.1972 -1.2031  0.6799
   82SOPE    HY 7488   2.535   4.671   6.276  0.7866  0.4577 -0.0779
   82SOPE   O31 7489   2.618   4.472   6.252 -0.4266  0.4119 -0.3782
   82SOPE   C31 7490   2.595   4.496   6.124  0.7069 -0.1646  0.8042
   82SOPE   O32 7491   2.549   4.599   6.075  0.1014 -0.1042 -0.9404
   82SOPE   C32 7492   2.661   4.378   6.047  0.1580 -0.0118 -0.3723
   82SOPE   H2X 7493   2.633   4.286   6.102  2.5115 -0.7909 -0.3415
   82SOPE   H2Y 7494   2.771   4.393   6.048  0.3583 -1.3332  0.6572
   82SOPE   C23 7495   2.108   4.576   6.106  0.3616 -0.5150  0.7502
   82SOPE   H3R 7496   2.065   4.676   6.128  1.1228 -0.2377  1.0158
   82SOPE   H3S 7497   2.031   4.514   6.056 -0.3815  0.9082  0.0581
   82SOPE   C24 7498   2.232   4.586   6.015 -0.1666  0.4453 -0.3305
   82SOPE   H4R 7499   2.326   4.618   6.065 -0.8939  1.0209  0.6935
   82SOPE   H4S 7500   2.251   4.480   5.985  1.8467  0.0276  2.1226
   82SOPE   C25 7501   2.216   4.675   5.887  0.3050 -0.5612  0.1106
   82SOPE   H5R 7502   2.131   4.632   5.831 -0.4016  0.6024  0.2570
   82SOPE   H5S 7503   2.192   4.776   5.928  1.5080 -0.1360 -0.1821
   82SOPE   C26 7504   2.345   4.673   5.800 -0.5063  0.2483  0.5673
   82SOPE   H6R 7505   2.423   4.743   5.836  0.0031 -0.0826  0.1178
   82SOPE   H6S 7506   2.384   4.570   5.813  0.6225  0.9867  4.0726
   82SOPE   C27 7507   2.316   4.709   5.660 -0.9809 -0.1659 -0.1835
   82SOPE   H7R 7508   2.392   4.673   5.588 -1.1505  0.6219 -0.7743
   82SOPE   H7S 7509   2.222   4.657   5.634 -0.0572 -1.3866 -1.1809
   82SOPE   C28 7510   2.290   4.862   5.633  0.5557  0.8478  0.2409
   82SOPE   H8R 7511   2.239   4.901   5.724  0.3876 -1.5665  1.2821
   82SOPE   H8S 7512   2.389   4.907   5.613  0.3423  0.8287 -0.9199
   82SOPE   C29 7513   2.209   4.895   5.511 -0.0854 -0.4726 -0.1001
   82SOPE   H91 7514   2.237   4.841   5.420 -1.2559 -1.2973  0.0079
   82SOPE  C210 7515   2.105   4.982   5.504 -0.6346  0.1009  0.2087
   82SOPE  H101 7516   2.078   4.999   5.399  0.9147 -2.3242 -0.6470
   82SOPE  C211 7517   2.048   5.076   5.608  0.0328  0.0282 -0.5796
   82SOPE  H11R 7518   2.095   5.175   5.589  0.7389 -0.5131 -1.7612
   82SOPE  H11S 7519   2.088   5.041   5.706 -0.9742  0.7891  0.1253
   82SOPE  C212 7520   1.900   5.090   5.613  0.1662 -0.1703 -0.2595
   82SOPE  H12R 7521   1.888   5.164   5.695 -0.8653  0.7667 -1.2295
   82SOPE  H12S 7522   1.845   4.996   5.637  0.1280 -0.5943 -1.8846
   82SOPE  C213 7523   1.841   5.140   5.483 -0.5266 -0.2278  0.7697
   82SOPE  H13R 7524   1.731   5.154   5.486 -0.4671  0.5036 -0.0484
   82SOPE  H13S 7525   1.870   5.070   5.402  2.0820  0.7448  0.7742
   82SOPE  C214 7526   1.892   5.283   5.431 -0.0915 -0.7894 -0.4201
   82SOPE  H14R 7527   1.999   5.280   5.401  0.4370  1.8921  0.8397
   82SOPE  H14S 7528   1.882   5.348   5.521 -1.1654 -1.0531 -0.3379
   82SOPE  C215 7529   1.818   5.348   5.314  0.5324  0.7628 -0.1110
   82SOPE  H15R 7530   1.841   5.456   5.312 -0.7100  1.0815  1.0109
   82SOPE  H15S 7531   1.708   5.344   5.333  0.6757 -1.0989  0.6098
   82SOPE  C216 7532   1.839   5.295   5.175  0.4180 -0.3667  0.2232
   82SOPE  H16R 7533   1.858   5.186   5.180  0.2799 -0.6429 -3.1537
   82SOPE  H16S 7534   1.927   5.346   5.130 -1.4023  1.5608 -1.4057
   82SOPE  C217 7535   1.726   5.324   5.083  0.1429  0.5809  0.2815
   82SOPE  H17R 7536   1.631   5.342   5.137 -0.4454 -0.4759 -0.3752
   82SOPE  H17S 7537   1.696   5.242   5.015  0.1264  1.5018 -0.8612
   82SOPE  C218 7538   1.757   5.445   5.010 -0.0765  0.2885 -0.0161
   82SOPE  H18R 7539   1.668   5.482   4.956  0.2361  0.6664 -0.2782
   82SOPE  H18S 7540   1.834   5.418   4.935 -0.4526 -1.2072  0.1148
   82SOPE  H18T 7541   1.789   5.534   5.069 -0.3103 -0.1843  0.8333
   82SOPE   C33 7542   2.608   4.365   5.900 -0.4175  0.5388 -0.5326
   82SOPE   H3X 7543   2.602   4.464   5.849  0.2465  2.0872  2.1976
   82SOPE   H3Y 7544   2.505   4.323   5.900  0.9318 -3.4879 -4.1565
   82SOPE   C34 7545   2.680   4.265   5.812  0.3188  0.0242  0.8489
   82SOPE   H4X 7546   2.679   4.167   5.865 -3.7129  0.2726  1.5390
   82SOPE   H4Y 7547   2.788   4.293   5.814  0.7983 -1.6869  0.5093
   82SOPE   C35 7548   2.621   4.249   5.668 -0.0864 -0.1203  0.5869
   82SOPE   H5X 7549   2.524   4.195   5.667  0.4789 -1.2265 -2.1036
   82SOPE   H5Y 7550   2.699   4.189   5.616 -0.0004  0.2917  0.2423
   82SOPE   C36 7551   2.609   4.376   5.588  0.5101 -0.5554  0.3611
   82SOPE   H6X 7552   2.712   4.418   5.583  1.6288 -3.0524  0.9909
   82SOPE   H6Y 7553   2.545   4.451   5.641  1.4279  1.6521 -1.5032
   82SOPE   C37 7554   2.548   4.356   5.446  0.0363 -0.2579 -0.5475
   82SOPE   H7X 7555   2.478   4.271   5.435 -0.2042 -0.0787 -0.4079
   82SOPE   H7Y 7556   2.634   4.333   5.381  0.5069 -1.5817  0.5065
   82SOPE   C38 7557   2.477   4.489   5.402 -0.8087  0.0941  0.5414
   82SOPE   H8X 7558   2.539   4.576   5.431 -0.8119  0.7346 -1.2614
   82SOPE   H8Y 7559   2.373   4.481   5.441 -0.2248 -1.7278  1.8591
   82SOPE   C39 7560   2.447   4.488   5.246  0.3128  0.4807  0.1177
   82SOPE   H9X 7561   2.365   4.413   5.237 -0.4229  1.4042 -1.2752
   82SOPE   H9Y 7562   2.537   4.451   5.193  1.0462  1.7337  0.4455
   82SOPE  C310 7563   2.407   4.629   5.203  0.2363 -0.5513 -0.0540
   82SOPE  H10X 7564   2.500   4.686   5.181 -1.3595  1.6376 -1.5616
   82SOPE  H10Y 7565   2.351   4.685   5.282 -1.6204 -2.1869 -0.1271
   82SOPE  C311 7566   2.311   4.618   5.077 -0.1326 -0.0608  0.0682
   82SOPE  H11X 7567   2.219   4.559   5.099  0.6465 -2.2325 -2.0121
   82SOPE  H11Y 7568   2.361   4.567   4.992  0.7513  0.8114  0.0492
   82SOPE  C312 7569   2.270   4.752   5.019 -0.5662  0.5025 -0.0317
   82SOPE  H12X 7570   2.349   4.822   4.984 -0.0596 -0.2341 -0.3804
   82SOPE  H12Y 7571   2.233   4.799   5.112  1.3742  2.3256 -0.1018
   82SOPE  C313 7572   2.168   4.740   4.909  0.0587 -0.2945 -0.4464
   82SOPE  H13X 7573   2.088   4.668   4.937 -0.1547 -0.3388 -1.1552
   82SOPE  H13Y 7574   2.212   4.695   4.818  1.2133 -1.8256  0.8047
   82SOPE  C314 7575   2.112   4.877   4.885 -0.1440 -0.1499 -0.3861
   82SOPE  H14X 7576   2.188   4.955   4.862  0.9032 -1.4589 -1.5416
   82SOPE  H14Y 7577   2.058   4.910   4.977 -0.1392 -3.2220  0.8318
   82SOPE  C315 7578   2.014   4.890   4.763 -0.3695 -0.3091  0.8274
   82SOPE  H15X 7579   1.968   4.791   4.743 -1.2804  0.0191  1.2306
   82SOPE  H15Y 7580   2.075   4.918   4.675 -1.7221 -1.1267 -0.4124
   82SOPE  C316 7581   1.913   5.001   4.779  0.3084 -0.1566  0.2435
   82SOPE  H16X 7582   1.844   4.988   4.865 -1.2845 -0.0503 -0.9527
   82SOPE  H16Y 7583   1.841   5.005   4.693 -1.0323 -1.8098  1.2318
   82SOPE  C317 7584   1.977   5.135   4.817  0.2164 -0.0491  0.3146
   82SOPE  H17X 7585   2.085   5.129   4.792  0.7197  1.0387  2.0833
   82SOPE  H17Y 7586   1.982   5.156   4.926  1.4384 -0.8678  0.4393
   82SOPE  C318 7587   1.911   5.250   4.739  0.1957  0.9596  0.2429
   82SOPE  H18X 7588   1.970   5.342   4.759  1.0762 -0.2259  4.0203
   82SOPE  H18Y 7589   1.804   5.259   4.767  0.5447 -1.0313  2.5656
   82SOPE  H18Z 7590   1.915   5.226   4.631 -0.5116  0.2006  0.3702
   83SOPE     N 7591   6.216   2.798   2.386 -0.4126  0.8698  0.5730
   83SOPE   HN1 7592   6.187   2.713   2.333  2.1056 -0.0170  0.4810
   83SOPE   HN2 7593   6.311   2.793   2.427 -0.7903  3.9367  2.0594
   83SOPE   HN3 7594   6.148   2.808   2.464  0.2345  0.8066  1.1541
   83SOPE   C12 7595   6.224   2.931   2.318  0.5781 -0.5016 -0.1697
   83SOPE  H12A 7596   6.250   3.011   2.391 -0.4986  1.6813 -2.0461
   83SOPE  H12B 7597   6.126   2.962   2.277  0.2110 -1.8581 -0.3451
   83SOPE   C11 7598   6.331   2.930   2.206  0.0367  0.2695 -0.1034
   83SOPE  H11A 7599   6.338   3.036   2.174  0.0277  0.6401  1.0978
   83SOPE  H11B 7600   6.296   2.862   2.125 -1.5200  0.3699  0.4433
   83SOPE     P 7601   6.592   2.962   2.186 -0.4421  0.0693 -0.1736
   83SOPE   O13 7602   6.555   3.000   2.047  0.4704  0.2190 -0.2600
   83SOPE   O14 7603   6.719   2.889   2.209 -0.8418  0.0993 -0.9106
   83SOPE   O12 7604   6.463   2.895   2.256 -0.4994 -0.3590  0.0174
   83SOPE   O11 7605   6.604   3.094   2.266 -0.7334  0.0384  0.3506
   83SOPE    C1 7606   6.611   3.105   2.406  0.1215 -0.5620 -0.1646
   83SOPE    HA 7607   6.706   3.065   2.449 -0.9880 -1.1523  1.8576
   83SOPE    HB 7608   6.538   3.045   2.463  1.0830 -0.2946  1.4179
   83SOPE    C2 7609   6.583   3.249   2.461  0.5173 -0.7966 -0.9336
   83SOPE    HS 7610   6.634   3.326   2.399  3.3732 -0.2709  1.8168
   83SOPE   O21 7611   6.626   3.258   2.604 -0.0228  0.5767  0.2087
   83SOPE   C21 7612   6.630   3.373   2.659 -0.5359 -0.0402  0.2603
   83SOPE   O22 7613   6.599   3.478   2.606  0.2991 -0.0592  0.1143
   83SOPE   C22 7614   6.678   3.365   2.801  0.2674  0.3182  0.2438
   83SOPE   H2R 7615   6.768   3.430   2.804 -0.0757  0.7696  1.4528
   83SOPE   H2S 7616   6.703   3.258   2.818 -0.2101 -0.3086 -2.5800
   83SOPE    C3 7617   6.423   3.260   2.459  0.1505 -0.1973 -0.2900
   83SOPE    HX 7618   6.385   3.240   2.357  0.5837  0.8666 -0.6681
   83SOPE    HY 7619   6.390   3.363   2.482 -0.2694 -0.9411  3.0108
   83SOPE   O31 7620   6.355   3.156   2.538  0.2556  0.2938  0.8694
   83SOPE   C31 7621   6.312   3.197   2.657 -0.4142 -1.0977 -0.6644
   83SOPE   O32 7622   6.321   3.315   2.696 -0.1581  0.2380  0.1333
   83SOPE   C32 7623   6.228   3.094   2.726  0.5622 -0.6458 -0.0033
   83SOPE   H2X 7624   6.256   2.987   2.716  0.6521 -0.5703 -0.5688
   83SOPE   H2Y 7625   6.126   3.099   2.682  0.4828 -0.8201  0.1612
   83SOPE   C23 7626   6.576   3.423   2.909 -0.0811  0.3872  0.5242
   83SOPE   H3R 7627   6.486   3.360   2.894  0.8157 -0.4251 -1.9712
   83SOPE   H3S 7628   6.554   3.525   2.872  0.2367 -0.4911 -2.2838
   83SOPE   C24 7629   6.625   3.420   3.053  0.1964  0.0715  0.1527
   83SOPE   H4R 7630   6.728   3.461   3.053  1.0434 -1.9408 -0.3723
   83SOPE   H4S 7631   6.556   3.485   3.112  0.6206  1.5633 -0.9421
   83SOPE   C25 7632   6.637   3.281   3.117  0.3535 -0.3829  0.2697
   83SOPE   H5R 7633   6.539   3.233   3.098 -0.1576  0.0768  1.6366
   83SOPE   H5S 7634   6.724   3.233   3.068 -0.4311  1.1930 -2.9400
   83SOPE   C26 7635   6.666   3.288   3.274  0.2165  0.3673  0.5628
   83SOPE   H6R 7636   6.717   3.191   3.294  1.0046  0.8666  1.0466
   83SOPE   H6S 7637   6.735   3.370   3.305 -0.5552  1.6600 -1.0040
   83SOPE   C27 7638   6.537   3.289   3.356  0.2640 -0.9912 -0.3556
   83SOPE   H7R 7639   6.489   3.386   3.333  1.9917 -0.3690 -1.5272
   83SOPE   H7S 7640   6.467   3.205   3.336 -1.8513  0.7659 -0.7193
   83SOPE   C28 7641   6.555   3.275   3.514 -0.2790 -0.0469 -0.1106
   83SOPE   H8R 7642   6.454   3.263   3.559  0.2271 -2.8815  0.4599
   83SOPE   H8S 7643   6.607   3.177   3.528 -3.2177 -1.8008 -0.6280
   83SOPE   C29 7644   6.629   3.384   3.590 -0.1517  0.1397 -0.3044
   83SOPE   H91 7645   6.657   3.477   3.538  2.3643  0.2532  1.0873
   83SOPE  C210 7646   6.655   3.370   3.722  0.1968  0.4560  0.1733
   83SOPE  H101 7647   6.718   3.446   3.772 -0.1692 -0.8125  2.7538
   83SOPE  C211 7648   6.623   3.255   3.823  0.2449 -0.4130 -0.2013
   83SOPE  H11R 7649   6.715   3.230   3.880  1.3476 -1.4057 -2.2838
   83SOPE  H11S 7650   6.606   3.158   3.771  0.7019 -0.4212 -0.3378
   83SOPE  C212 7651   6.502   3.272   3.911  0.8124  0.1402 -0.2426
   83SOPE  H12R 7652   6.406   3.289   3.858  0.1918 -0.4241  0.6840
   83SOPE  H12S 7653   6.520   3.364   3.971 -0.3482 -0.5587  1.2347
   83SOPE  C213 7654   6.469   3.147   3.997 -0.5773  0.5567  0.0689
   83SOPE  H13R 7655   6.426   3.187   4.091 -0.6711 -1.7044  1.0533
   83SOPE  H13S 7656   6.569   3.105   4.021  1.4735  2.2522 -4.3010
   83SOPE  C214 7657   6.369   3.043   3.937  0.0706  0.3526 -0.2805
   83SOPE  H14R 7658   6.426   2.969   3.877  1.2451 -0.2673  1.5265
   83SOPE  H14S 7659   6.297   3.095   3.870  0.3434 -1.4406 -2.0681
   83SOPE  C215 7660   6.306   2.968   4.050 -0.6129  0.1981  0.1522
   83SOPE  H15R 7661   6.214   2.921   4.009 -3.1787 -1.0357  6.2800
   83SOPE  H15S 7662   6.272   3.043   4.124 -2.4132 -0.6011  0.1819
   83SOPE  C216 7663   6.391   2.857   4.109  0.0563  0.0108 -0.0231
   83SOPE  H16R 7664   6.493   2.898   4.120 -0.2844  0.9108 -0.1704
   83SOPE  H16S 7665   6.409   2.774   4.038  1.7244  1.5232 -1.4458
   83SOPE  C217 7666   6.338   2.804   4.242  0.4203  0.2603  0.1557
   83SOPE  H17R 7667   6.321   2.881   4.320 -2.8102 -1.3072  1.2094
   83SOPE  H17S 7668   6.418   2.740   4.283  0.0138 -0.0570  0.4664
   83SOPE  C218 7669   6.203   2.727   4.235 -0.1205 -0.2799 -0.6296
   83SOPE  H18R 7670   6.117   2.786   4.197 -0.5484  0.9333  2.0605
   83SOPE  H18S 7671   6.172   2.710   4.340  1.3473  2.0466  0.2342
   83SOPE  H18T 7672   6.223   2.638   4.172  1.1571 -0.9207  0.6336
   83SOPE   C33 7673   6.212   3.119   2.878  0.7256  0.2047 -0.3070
   83SOPE   H3X 7674   6.123   3.056   2.901  1.1050  0.0125  0.7162
   83SOPE   H3Y 7675   6.201   3.226   2.903  1.3099 -0.2846  2.3611
   83SOPE   C34 7676   6.329   3.059   2.954 -0.7460 -0.5132 -0.1329
   83SOPE   H4X 7677   6.428   3.093   2.915 -0.2369 -0.9493  0.7379
   83SOPE   H4Y 7678   6.330   2.948   2.944  1.8592 -0.8401  2.2740
   83SOPE   C35 7679   6.316   3.077   3.111  0.3682  0.0585 -0.7260
   83SOPE   H5X 7680   6.320   3.185   3.135  0.2172 -0.1835  0.4611
   83SOPE   H5Y 7681   6.412   3.040   3.153 -0.5337 -2.2387 -0.5595
   83SOPE   C36 7682   6.191   3.025   3.184  0.2449  0.7958  0.3225
   83SOPE   H6X 7683   6.169   2.923   3.146  1.2908  0.9758 -0.8131
   83SOPE   H6Y 7684   6.101   3.089   3.169 -0.9324 -0.5800  1.1636
   83SOPE   C37 7685   6.213   3.008   3.339  0.1929  0.7915 -1.0014
   83SOPE   H7X 7686   6.277   3.090   3.377 -1.5945  0.9016  2.1562
   83SOPE   H7Y 7687   6.273   2.916   3.350 -0.1467  0.6759 -0.0153
   83SOPE   C38 7688   6.082   2.985   3.418  0.2406  0.5032  0.7012
   83SOPE   H8X 7689   6.046   2.881   3.402 -0.1353  0.6838  0.3757
   83SOPE   H8Y 7690   6.008   3.056   3.376 -0.4425  0.8308  2.3610
   83SOPE   C39 7691   6.102   3.010   3.566  0.1622 -0.0718 -0.6643
   83SOPE   H9X 7692   6.124   3.118   3.580  0.2610 -0.2701  0.8523
   83SOPE   H9Y 7693   6.196   2.961   3.601  1.7111  3.0428 -0.0338
   83SOPE  C310 7694   5.985   2.969   3.658  0.2572 -0.6763  0.9369
   83SOPE  H10X 7695   5.954   2.865   3.635 -1.3941 -0.5198  2.3102
   83SOPE  H10Y 7696   5.905   3.037   3.620  0.7918 -2.0122 -3.0857
   83SOPE  C311 7697   6.016   2.982   3.805  0.0619 -0.4088 -0.4920
   83SOPE  H11X 7698   6.050   3.086   3.825 -2.1451 -0.1257  2.4082
   83SOPE  H11Y 7699   6.096   2.911   3.836 -0.5270 -0.5023  0.8394
   83SOPE  C312 7700   5.891   2.964   3.898 -0.3725 -0.6877  0.3363
   83SOPE  H12X 7701   5.823   3.050   3.881  1.0490  0.6191  1.0090
   83SOPE  H12Y 7702   5.923   2.968   4.004 -0.5590 -0.6014  0.3896
   83SOPE  C313 7703   5.814   2.834   3.887  0.1955  0.7558 -0.2390
   83SOPE  H13X 7704   5.880   2.746   3.903 -0.5325 -0.1055 -1.6521
   83SOPE  H13Y 7705   5.779   2.820   3.782  0.4930 -0.2281 -0.2230
   83SOPE  C314 7706   5.689   2.815   3.973 -0.5562  0.6577 -0.1498
   83SOPE  H14X 7707   5.659   2.708   3.977 -1.5871  0.9239 -0.3788
   83SOPE  H14Y 7708   5.599   2.869   3.935  0.9453  3.6951  0.3130
   83SOPE  C315 7709   5.720   2.858   4.115 -0.6068 -0.8634 -0.7931
   83SOPE  H15X 7710   5.723   2.969   4.111 -0.8141 -0.8699 -1.2083
   83SOPE  H15Y 7711   5.827   2.840   4.139 -0.6614  0.1558  0.2679
   83SOPE  C316 7712   5.614   2.811   4.219 -0.7907  0.0317  0.1603
   83SOPE  H16X 7713   5.596   2.703   4.200 -0.3883  0.0837 -0.5838
   83SOPE  H16Y 7714   5.521   2.867   4.197 -0.2428  0.9768  0.1783
   83SOPE  C317 7715   5.646   2.848   4.364 -0.2708  0.0268 -0.0043
   83SOPE  H17X 7716   5.664   2.956   4.386 -0.7895 -0.3595  2.7418
   83SOPE  H17Y 7717   5.739   2.795   4.394 -0.0629  1.3125  1.8386
   83SOPE  C318 7718   5.546   2.790   4.465 -1.0106  0.1649  0.2123
   83SOPE  H18X 7719   5.522   2.682   4.448  0.3507 -0.1926  0.4496
   83SOPE  H18Y 7720   5.454   2.852   4.467  1.6413  4.5937 -0.8211
   83SOPE  H18Z 7721   5.587   2.782   4.568 -0.2891  1.2335  0.0237
   84SOPE     N 7722   4.057   2.136   2.049 -0.1563  0.5161 -0.0774
   84SOPE   HN1 7723   3.958   2.143   2.018 -0.1126 -0.9076 -0.6071
   84SOPE   HN2 7724   4.110   2.204   1.992  0.5670 -0.7039 -0.9002
   84SOPE   HN3 7725   4.089   2.037   2.044 -1.0097  0.0437  2.4500
   84SOPE   C12 7726   4.063   2.170   2.197 -0.3331 -0.8000 -0.2220
   84SOPE  H12A 7727   4.166   2.170   2.240  0.6137 -0.1779 -2.3416
   84SOPE  H12B 7728   4.008   2.083   2.239 -2.1293  0.3091 -0.1703
   84SOPE   C11 7729   3.996   2.300   2.240 -0.4502  0.1474  0.6222
   84SOPE  H11A 7730   4.006   2.321   2.348  0.3037  0.5643  0.4811
   84SOPE  H11B 7731   3.889   2.299   2.210 -0.7873  0.5074  1.7667
   84SOPE     P 7732   4.190   2.485   2.192 -0.0295 -0.4386  0.3509
   84SOPE   O13 7733   4.243   2.537   2.060  0.5635  0.2639 -0.7716
   84SOPE   O14 7734   4.283   2.405   2.272  0.3460  0.3895 -0.3045
   84SOPE   O12 7735   4.055   2.413   2.169  0.7939  0.3420  0.1323
   84SOPE   O11 7736   4.138   2.610   2.277 -0.6680  0.4457 -0.2205
   84SOPE    C1 7737   4.020   2.680   2.251  0.5623 -0.4233  0.1431
   84SOPE    HA 7738   3.958   2.630   2.173  1.0983 -0.8104 -0.0475
   84SOPE    HB 7739   4.032   2.786   2.220 -1.5456  0.3325  1.7440
   84SOPE    C2 7740   3.926   2.682   2.377 -0.7449  0.4759 -0.0567
   84SOPE    HS 7741   3.981   2.740   2.454  0.1526 -1.0564  0.4809
   84SOPE   O21 7742   3.884   2.549   2.411  0.1408  0.2310 -0.5707
   84SOPE   C21 7743   3.894   2.529   2.537 -0.6558 -0.0797 -1.0661
   84SOPE   O22 7744   3.918   2.618   2.621 -0.3030 -0.3755 -0.0595
   84SOPE   C22 7745   3.885   2.385   2.574 -0.1745  0.0521 -0.4641
   84SOPE   H2R 7746   3.989   2.346   2.575 -0.6278 -1.5451 -3.4137
   84SOPE   H2S 7747   3.840   2.329   2.489  1.5542 -0.5651 -1.0315
   84SOPE    C3 7748   3.802   2.764   2.346 -0.0075 -0.5739  0.9122
   84SOPE    HX 7749   3.758   2.718   2.255  1.6471 -0.8138  0.1938
   84SOPE    HY 7750   3.837   2.868   2.328  0.3359 -0.9028 -0.4233
   84SOPE   O31 7751   3.705   2.770   2.450 -0.6241  0.5682 -0.3243
   84SOPE   C31 7752   3.582   2.801   2.411 -0.1267  0.7531 -0.5744
   84SOPE   O32 7753   3.556   2.863   2.309  0.5149  0.2489  0.5448
   84SOPE   C32 7754   3.483   2.744   2.506 -0.4133 -0.0413 -0.1320
   84SOPE   H2X 7755   3.457   2.640   2.478 -0.5735 -0.3986  1.2472
   84SOPE   H2Y 7756   3.390   2.801   2.484  0.7727  1.5581 -1.1935
   84SOPE   C23 7757   3.807   2.357   2.703 -0.8275 -0.2510  0.3783
   84SOPE   H3R 7758   3.838   2.442   2.767 -1.9127  0.2602  0.2528
   84SOPE   H3S 7759   3.850   2.266   2.750 -0.7161 -1.1087 -1.2864
   84SOPE   C24 7760   3.662   2.343   2.685  0.0403  0.2346  0.6988
   84SOPE   H4R 7761   3.621   2.444   2.666  0.6469  0.1981 -0.9955
   84SOPE   H4S 7762   3.639   2.273   2.601 -1.6367  0.2311  1.1263
   84SOPE   C25 7763   3.588   2.306   2.818 -0.1420 -0.2941  0.2279
   84SOPE   H5R 7764   3.626   2.373   2.898  0.5382  1.1211 -1.2298
   84SOPE   H5S 7765   3.479   2.312   2.798 -0.1769 -2.0474 -0.2948
   84SOPE   C26 7766   3.611   2.166   2.875  0.0453  0.7418  0.1605
   84SOPE   H6R 7767   3.550   2.089   2.823  0.8098  1.6389 -2.1935
   84SOPE   H6S 7768   3.714   2.130   2.859 -0.1675  1.0110 -2.0590
   84SOPE   C27 7769   3.579   2.148   3.025  0.6765  0.4466  0.1381
   84SOPE   H7R 7770   3.658   2.191   3.089  0.9584  1.4240 -0.8329
   84SOPE   H7S 7771   3.488   2.208   3.049  0.9408  0.0074  2.4925
   84SOPE   C28 7772   3.545   2.000   3.065 -0.7837  1.0905  0.2937
   84SOPE   H8R 7773   3.486   2.000   3.159 -1.1879  0.2348  0.0451
   84SOPE   H8S 7774   3.484   1.946   2.990  0.6413 -4.3037  2.5489
   84SOPE   C29 7775   3.669   1.911   3.061 -0.3920 -0.3190  0.1916
   84SOPE   H91 7776   3.709   1.889   2.961  0.3312  0.9445  0.1688
   84SOPE  C210 7777   3.716   1.839   3.170  1.0617 -0.4896  0.1220
   84SOPE  H101 7778   3.801   1.771   3.152 -1.2692 -3.5490 -0.2695
   84SOPE  C211 7779   3.657   1.841   3.313 -0.2641 -0.2613  0.3025
   84SOPE  H11R 7780   3.571   1.771   3.321 -1.5136  1.0430 -1.0766
   84SOPE  H11S 7781   3.615   1.941   3.335 -0.2637  0.0551 -1.0635
   84SOPE  C212 7782   3.762   1.800   3.412  0.5929 -0.2456 -0.2257
   84SOPE  H12R 7783   3.845   1.873   3.396 -0.2644  1.2224  1.7030
   84SOPE  H12S 7784   3.796   1.695   3.395 -3.2866 -2.3823  3.3814
   84SOPE  C213 7785   3.700   1.792   3.549 -0.8934 -0.2371  0.6163
   84SOPE  H13R 7786   3.653   1.692   3.563 -0.3437 -0.6815 -0.5581
   84SOPE  H13S 7787   3.621   1.867   3.568 -0.3459  0.2793  0.8647
   84SOPE  C214 7788   3.812   1.801   3.660 -0.4015 -0.5606 -0.0973
   84SOPE  H14R 7789   3.890   1.875   3.632 -0.9215 -0.0411 -0.1944
   84SOPE  H14S 7790   3.862   1.702   3.665 -0.4439 -0.5383  1.2877
   84SOPE  C215 7791   3.755   1.845   3.793  0.5011  0.2089 -0.6437
   84SOPE  H15R 7792   3.663   1.785   3.808  0.5254  0.2715 -0.2441
   84SOPE  H15S 7793   3.728   1.953   3.785  0.1040  0.2152  0.6047
   84SOPE  C216 7794   3.846   1.826   3.923  0.1610  0.3061 -0.2956
   84SOPE  H16R 7795   3.942   1.882   3.913 -1.3956  3.7234  2.0490
   84SOPE  H16S 7796   3.861   1.716   3.916 -0.4153  0.2887 -1.6142
   84SOPE  C217 7797   3.765   1.872   4.042 -0.0823  0.1159 -0.6888
   84SOPE  H17R 7798   3.676   1.806   4.050 -0.9311  1.4406  1.7826
   84SOPE  H17S 7799   3.725   1.975   4.033 -1.0043  0.0908  2.1533
   84SOPE  C218 7800   3.841   1.852   4.173  0.1684  1.1319  0.1707
   84SOPE  H18R 7801   3.925   1.924   4.179  2.2418 -1.0623 -0.7470
   84SOPE  H18S 7802   3.876   1.749   4.195 -0.1476  0.9045 -0.3736
   84SOPE  H18T 7803   3.771   1.870   4.257  0.1085  0.6977  0.2155
   84SOPE   C33 7804   3.518   2.763   2.661 -0.5676 -0.1255  0.4799
   84SOPE   H3X 7805   3.566   2.862   2.675  0.1485 -0.3672 -0.1956
   84SOPE   H3Y 7806   3.606   2.699   2.684  1.2911  2.6140  1.3982
   84SOPE   C34 7807   3.409   2.752   2.764 -0.2425  0.0240 -0.4453
   84SOPE   H4X 7808   3.338   2.829   2.728  0.8383  0.0119 -2.8185
   84SOPE   H4Y 7809   3.450   2.770   2.866 -2.1098  0.7759  0.2231
   84SOPE   C35 7810   3.345   2.608   2.769 -0.4297 -0.5531  0.7373
   84SOPE   H5X 7811   3.424   2.530   2.775  0.1730 -0.0513 -0.3964
   84SOPE   H5Y 7812   3.294   2.584   2.674 -0.4824  1.1648  0.3022
   84SOPE   C36 7813   3.252   2.587   2.891  0.2763  0.3254 -0.0612
   84SOPE   H6X 7814   3.170   2.658   2.870 -0.2069  0.0285  0.7415
   84SOPE   H6Y 7815   3.306   2.604   2.987 -0.1968  0.7300  0.1333
   84SOPE   C37 7816   3.189   2.445   2.902 -0.0594  0.3149 -0.2522
   84SOPE   H7X 7817   3.267   2.370   2.929 -1.9791 -0.9763  2.1884
   84SOPE   H7Y 7818   3.136   2.423   2.807  0.8472  2.5962 -1.3545
   84SOPE   C38 7819   3.100   2.440   3.031  0.5538 -0.3603  0.1312
   84SOPE   H8X 7820   3.030   2.525   3.017  0.8040 -0.4665 -2.1182
   84SOPE   H8Y 7821   3.170   2.462   3.115  0.9776  2.1567 -0.7790
   84SOPE   C39 7822   3.027   2.308   3.052 -0.1329 -0.1604  0.4883
   84SOPE   H9X 7823   2.972   2.285   2.959  3.2051 -3.2349 -0.9311
   84SOPE   H9Y 7824   2.957   2.324   3.137  1.2723 -2.4663  2.1865
   84SOPE  C310 7825   3.133   2.196   3.082 -0.3280 -0.0139  0.5794
   84SOPE  H10X 7826   3.197   2.230   3.166  0.5698  0.5580 -0.3112
   84SOPE  H10Y 7827   3.195   2.186   2.990 -0.8931 -1.3273  0.3146
   84SOPE  C311 7828   3.070   2.064   3.116  0.0223 -0.0552  1.0296
   84SOPE  H11X 7829   3.044   2.015   3.020  2.2328  0.8661 -0.0936
   84SOPE  H11Y 7830   2.977   2.089   3.172  0.4769  0.7016  1.4518
   84SOPE  C312 7831   3.147   1.959   3.207  0.1506 -0.0248  0.3128
   84SOPE  H12X 7832   3.247   1.952   3.158 -0.2798 -2.4682 -0.3542
   84SOPE  H12Y 7833   3.101   1.858   3.201  1.5567 -0.6136 -1.4903
   84SOPE  C313 7834   3.159   2.010   3.346  0.2926 -0.1835 -0.2926
   84SOPE  H13X 7835   3.061   2.025   3.395 -0.2910 -0.6241 -1.2902
   84SOPE  H13Y 7836   3.208   2.110   3.336  0.8148 -0.4053  0.0373
   84SOPE  C314 7837   3.252   1.928   3.434  0.2668  0.5862  0.6667
   84SOPE  H14X 7838   3.332   1.903   3.361 -0.7663 -0.6949 -0.0719
   84SOPE  H14Y 7839   3.201   1.830   3.446  0.3899 -0.1236 -3.2626
   84SOPE  C315 7840   3.273   2.006   3.558 -0.3293  1.2254 -0.0328
   84SOPE  H15X 7841   3.174   2.038   3.597 -1.6127 -1.9056 -0.4651
   84SOPE  H15Y 7842   3.338   2.095   3.543 -0.5951  1.7482  1.6936
   84SOPE  C316 7843   3.336   1.917   3.673 -0.1094  0.5477  0.2317
   84SOPE  H16X 7844   3.420   1.872   3.616  0.5601  2.3563 -0.2765
   84SOPE  H16Y 7845   3.262   1.835   3.689  0.0135  0.0681 -1.4524
   84SOPE  C317 7846   3.361   1.987   3.809  0.0870 -0.2377  0.8817
   84SOPE  H17X 7847   3.277   2.057   3.830  1.3804  1.2010  1.3928
   84SOPE  H17Y 7848   3.451   2.049   3.791  1.4432 -2.7008 -1.6483
   84SOPE  C318 7849   3.394   1.891   3.925 -0.0696 -0.0640  1.0058
   84SOPE  H18X 7850   3.298   1.846   3.959 -1.4596  1.8723 -0.1791
   84SOPE  H18Y 7851   3.451   1.945   4.003 -0.6736 -1.3117  2.3586
   84SOPE  H18Z 7852   3.464   1.810   3.894  0.1826  0.8287 -0.9157
   85SOPE     N 7853   0.787   3.205   2.304 -0.6211 -0.2093  0.3373
   85SOPE   HN1 7854   0.818   3.138   2.377  3.3254  0.4497 -0.5180
   85SOPE   HN2 7855   0.683   3.216   2.300 -0.4133  1.8245 -0.7440
   85SOPE   HN3 7856   0.810   3.167   2.209  1.2741 -0.3367  0.8196
   85SOPE   C12 7857   0.855   3.341   2.323  0.7742  1.3433  0.2166
   85SOPE  H12A 7858   0.842   3.376   2.427 -0.6373 -0.6704  0.7623
   85SOPE  H12B 7859   0.813   3.400   2.238  1.7319 -0.1061 -1.3434
   85SOPE   C11 7860   1.010   3.338   2.318  0.1660  0.0258 -0.0710
   85SOPE  H11A 7861   1.050   3.268   2.396  2.0244  1.6615  0.5202
   85SOPE  H11B 7862   1.054   3.439   2.328  2.8913 -0.9456 -1.1275
   85SOPE     P 7863   1.191   3.303   2.131  0.2619 -0.2940  0.2705
   85SOPE   O13 7864   1.188   3.438   2.063  0.2132 -0.4356 -0.3973
   85SOPE   O14 7865   1.232   3.198   2.038 -0.6338 -0.1820  0.6342
   85SOPE   O12 7866   1.048   3.285   2.186  1.5128 -0.1447  0.3722
   85SOPE   O11 7867   1.283   3.303   2.254 -0.3108  0.4692  0.0960
   85SOPE    C1 7868   1.308   3.184   2.333  0.1211  0.9535 -0.6794
   85SOPE    HA 7869   1.408   3.145   2.306  0.2174  1.4166 -1.0091
   85SOPE    HB 7870   1.240   3.098   2.312 -1.4220  2.0285 -0.2892
   85SOPE    C2 7871   1.317   3.216   2.479  0.4735  0.2345 -0.9597
   85SOPE    HS 7872   1.223   3.255   2.524  0.0700 -1.4097 -0.3045
   85SOPE   O21 7873   1.423   3.310   2.495  0.0489  0.2525  0.3478
   85SOPE   C21 7874   1.407   3.421   2.559  0.2811  0.5634  0.1321
   85SOPE   O22 7875   1.302   3.468   2.600 -0.1305  0.1726 -0.3429
   85SOPE   C22 7876   1.538   3.487   2.578  0.1453 -0.0625 -0.0317
   85SOPE   H2R 7877   1.532   3.580   2.637 -0.5814 -0.1481  0.0490
   85SOPE   H2S 7878   1.584   3.494   2.477  2.1928 -2.5743  0.6164
   85SOPE    C3 7879   1.355   3.094   2.567  0.9344 -0.2462  0.2537
   85SOPE    HX 7880   1.452   3.067   2.520  1.2281  1.5354 -0.2615
   85SOPE    HY 7881   1.285   3.010   2.551  0.1215  0.3949  0.3453
   85SOPE   O31 7882   1.370   3.125   2.702 -0.3466  0.0419 -0.1842
   85SOPE   C31 7883   1.262   3.130   2.777 -0.0745 -0.2141 -0.1235
   85SOPE   O32 7884   1.151   3.127   2.732 -0.2547 -0.0540  0.6967
   85SOPE   C32 7885   1.288   3.121   2.931  0.3217 -1.2633 -0.2262
   85SOPE   H2X 7886   1.391   3.161   2.944 -0.3880  0.3722  0.6589
   85SOPE   H2Y 7887   1.288   3.015   2.962 -0.3736 -1.3901 -0.6575
   85SOPE   C23 7888   1.634   3.389   2.648  0.0287 -0.1482 -0.1342
   85SOPE   H3R 7889   1.734   3.438   2.642 -1.5255  3.4348  0.5462
   85SOPE   H3S 7890   1.628   3.295   2.588 -0.5123  1.0778 -2.1214
   85SOPE   C24 7891   1.611   3.379   2.800 -0.5683 -0.6672  0.1602
   85SOPE   H4R 7892   1.607   3.486   2.830 -1.4684 -0.9286  0.9909
   85SOPE   H4S 7893   1.512   3.330   2.810 -1.0293  0.2060 -0.0217
   85SOPE   C25 7894   1.725   3.298   2.867  0.2364 -0.4341  0.0080
   85SOPE   H5R 7895   1.731   3.205   2.806  0.6035 -0.0240 -0.5981
   85SOPE   H5S 7896   1.819   3.356   2.855 -0.4320  1.1666  1.9166
   85SOPE   C26 7897   1.690   3.292   3.013  0.4150 -0.2599  0.6591
   85SOPE   H6R 7898   1.759   3.359   3.070 -0.1527 -0.5824  1.7668
   85SOPE   H6S 7899   1.590   3.338   3.026  1.5328  3.3118 -1.8535
   85SOPE   C27 7900   1.684   3.148   3.075  0.5864 -0.0336 -0.0205
   85SOPE   H7R 7901   1.596   3.097   3.030 -1.5781  1.9258  1.6603
   85SOPE   H7S 7902   1.778   3.096   3.050 -0.3406 -1.0065 -1.6356
   85SOPE   C28 7903   1.655   3.141   3.230  0.5869 -0.4408 -0.1800
   85SOPE   H8R 7904   1.641   3.031   3.236  1.6920 -0.5316  1.3730
   85SOPE   H8S 7905   1.745   3.168   3.290 -0.0443 -1.7125  1.4382
   85SOPE   C29 7906   1.542   3.228   3.273 -0.3829 -0.1908 -0.1331
   85SOPE   H91 7907   1.563   3.333   3.246 -0.5597  0.1820  1.0999
   85SOPE  C210 7908   1.427   3.201   3.337  0.1049  0.3909  0.7645
   85SOPE  H101 7909   1.371   3.290   3.370 -2.2361 -0.5440 -0.4473
   85SOPE  C211 7910   1.367   3.072   3.388  0.4139 -0.4332 -0.1255
   85SOPE  H11R 7911   1.404   2.972   3.356 -0.2794 -2.4759  4.6498
   85SOPE  H11S 7912   1.257   3.076   3.373  0.4370  2.8287 -0.1718
   85SOPE  C212 7913   1.379   3.067   3.542 -0.4252  0.0724 -0.3030
   85SOPE  H12R 7914   1.309   2.994   3.587 -1.9430  1.3305 -0.5350
   85SOPE  H12S 7915   1.331   3.159   3.582 -1.0064 -0.2006 -0.3693
   85SOPE  C213 7916   1.528   3.044   3.590 -0.5088  0.0755  0.4154
   85SOPE  H13R 7917   1.601   3.122   3.559 -0.3171 -1.4536 -3.4836
   85SOPE  H13S 7918   1.563   2.940   3.573 -0.1190  0.3008 -0.2001
   85SOPE  C214 7919   1.534   3.053   3.752 -0.2595  0.2347  0.0449
   85SOPE  H14R 7920   1.628   3.004   3.785 -1.9733 -1.4520  2.8393
   85SOPE  H14S 7921   1.449   2.997   3.795 -0.6569  1.4474  0.8866
   85SOPE  C215 7922   1.532   3.201   3.794  0.0291 -0.4306 -0.4028
   85SOPE  H15R 7923   1.429   3.244   3.796  0.1572 -0.1550  0.4136
   85SOPE  H15S 7924   1.595   3.263   3.726  2.7135 -1.9360  0.6000
   85SOPE  C216 7925   1.599   3.235   3.929  0.0676  0.1787  0.0576
   85SOPE  H16R 7926   1.581   3.341   3.958 -0.7389  0.7244 -2.2163
   85SOPE  H16S 7927   1.708   3.216   3.918  0.0542  0.1171  0.0314
   85SOPE  C217 7928   1.549   3.150   4.044 -1.1493  0.9133  0.2251
   85SOPE  H17R 7929   1.600   3.192   4.133 -0.2760 -2.8165  1.6869
   85SOPE  H17S 7930   1.574   3.042   4.039 -0.7275  1.0609 -1.6235
   85SOPE  C218 7931   1.389   3.155   4.061  0.0759  0.4654  0.5774
   85SOPE  H18R 7932   1.355   3.261   4.056 -1.1263  0.1722  1.8857
   85SOPE  H18S 7933   1.359   3.106   4.156  1.6188 -1.2269  0.2493
   85SOPE  H18T 7934   1.350   3.100   3.973 -1.5990  1.0388  0.9242
   85SOPE   C33 7935   1.179   3.188   3.014  0.1944 -0.3772 -0.7650
   85SOPE   H3X 7936   1.183   3.158   3.121 -3.4031  1.6352  0.0998
   85SOPE   H3Y 7937   1.078   3.158   2.977  0.8325 -0.4172 -2.5779
   85SOPE   C34 7938   1.187   3.337   3.023 -0.6823 -0.4855  0.3827
   85SOPE   H4X 7939   1.180   3.373   2.919 -0.6197 -2.9300 -0.5349
   85SOPE   H4Y 7940   1.292   3.363   3.050 -1.0303  2.5904 -0.8625
   85SOPE   C35 7941   1.091   3.392   3.136  0.6993 -0.2903  0.3769
   85SOPE   H5X 7942   0.998   3.333   3.118  0.2590  0.7244 -0.7561
   85SOPE   H5Y 7943   1.064   3.498   3.119 -0.3012 -0.4205  1.0466
   85SOPE   C36 7944   1.147   3.377   3.281  0.7713 -0.1389  0.6320
   85SOPE   H6X 7945   1.248   3.424   3.277  0.3935  0.6356 -2.3197
   85SOPE   H6Y 7946   1.152   3.267   3.300 -0.4110 -0.2589  0.3072
   85SOPE   C37 7947   1.056   3.450   3.369 -0.4734 -0.0821 -0.1984
   85SOPE   H7X 7948   0.951   3.416   3.364 -1.0581  1.2544  1.6925
   85SOPE   H7Y 7949   1.055   3.555   3.334 -0.6687  0.5779  1.6927
   85SOPE   C38 7950   1.104   3.456   3.517  0.3495 -0.9959 -0.2628
   85SOPE   H8X 7951   1.120   3.357   3.565  2.6295 -1.6615 -2.1914
   85SOPE   H8Y 7952   1.023   3.510   3.570 -0.3827 -0.1847 -2.1289
   85SOPE   C39 7953   1.234   3.536   3.529  0.1443  0.7175 -0.1902
   85SOPE   H9X 7954   1.221   3.636   3.483 -2.7607  0.8760  0.8162
   85SOPE   H9Y 7955   1.308   3.485   3.464  0.6234  2.4965 -1.1066
   85SOPE  C310 7956   1.289   3.539   3.672 -0.2010  0.4114 -0.0766
   85SOPE  H10X 7957   1.340   3.447   3.708 -0.2214 -0.1353 -1.3909
   85SOPE  H10Y 7958   1.199   3.542   3.737  1.1889  0.4964  1.9326
   85SOPE  C311 7959   1.374   3.662   3.697 -0.0910  0.4542 -0.2618
   85SOPE  H11X 7960   1.358   3.744   3.625 -0.0616 -1.2867 -2.3502
   85SOPE  H11Y 7961   1.484   3.643   3.687 -0.1070 -0.0242  0.3798
   85SOPE  C312 7962   1.369   3.724   3.839  0.3967  0.3985 -0.0798
   85SOPE  H12X 7963   1.268   3.761   3.867  0.1269 -0.1773 -0.2705
   85SOPE  H12Y 7964   1.423   3.820   3.833 -2.2634  1.8924 -2.9932
   85SOPE  C313 7965   1.428   3.626   3.949 -0.8314 -0.9257  0.0051
   85SOPE  H13X 7966   1.535   3.611   3.924 -0.4583  1.8909 -0.4349
   85SOPE  H13Y 7967   1.373   3.529   3.940 -2.3597  0.0786 -2.9573
   85SOPE  C314 7968   1.426   3.678   4.092 -0.3477  0.0978 -0.1947
   85SOPE  H14X 7969   1.326   3.705   4.132 -0.8840  3.5769 -3.3232
   85SOPE  H14Y 7970   1.486   3.771   4.083  1.7580 -1.0234  1.5012
   85SOPE  C315 7971   1.489   3.566   4.187  0.1001 -0.2278 -0.5305
   85SOPE  H15X 7972   1.455   3.468   4.147  1.3695  0.2805 -2.9982
   85SOPE  H15Y 7973   1.446   3.583   4.288  0.8400 -2.3937  0.2039
   85SOPE  C316 7974   1.644   3.573   4.197 -0.0616 -0.2659 -0.3041
   85SOPE  H16X 7975   1.660   3.680   4.225 -1.8257  0.0723 -0.4252
   85SOPE  H16Y 7976   1.693   3.557   4.099  0.7363 -1.7524  0.3005
   85SOPE  C317 7977   1.707   3.486   4.304 -0.2941 -0.8335  0.4175
   85SOPE  H17X 7978   1.708   3.377   4.286 -0.0402 -0.3842 -2.8582
   85SOPE  H17Y 7979   1.642   3.497   4.394 -1.3315  0.7366 -0.4667
   85SOPE  C318 7980   1.850   3.545   4.324 -0.7604 -0.0175  0.4535
   85SOPE  H18X 7981   1.882   3.523   4.428 -5.1413  1.1394  2.2651
   85SOPE  H18Y 7982   1.852   3.655   4.307  0.9830 -0.1783 -0.6007
   85SOPE  H18Z 7983   1.922   3.510   4.247 -0.2767 -0.0926  0.9324
   86SOPE     N 7984   1.664   5.396   2.061  0.5573  0.6948 -1.0550
   86SOPE   HN1 7985   1.723   5.311   2.058 -0.0868  0.2227 -0.5139
   86SOPE   HN2 7986   1.676   5.453   2.147 -0.2936  2.3509 -1.9673
   86SOPE   HN3 7987   1.566   5.364   2.069  0.8086  0.2091  0.1831
   86SOPE   C12 7988   1.687   5.498   1.945  0.7463  0.1748  0.0581
   86SOPE  H12A 7989   1.691   5.439   1.851  0.4847 -0.6146  0.5326
   86SOPE  H12B 7990   1.785   5.545   1.966  0.6588  0.9884 -1.2514
   86SOPE   C11 7991   1.574   5.593   1.936  0.3543  0.3895 -0.1624
   86SOPE  H11A 7992   1.478   5.537   1.927  1.7716 -2.3616  0.8513
   86SOPE  H11B 7993   1.585   5.632   1.833  0.9606 -0.4173 -0.4135
   86SOPE     P 7994   1.637   5.824   2.036 -0.0699  0.1389 -0.1135
   86SOPE   O13 7995   1.540   5.931   1.996 -0.2253 -0.4224 -0.0823
   86SOPE   O14 7996   1.763   5.812   1.957  0.0258 -0.3388  0.4493
   86SOPE   O12 7997   1.564   5.685   2.041 -0.0160  0.3704 -0.1155
   86SOPE   O11 7998   1.687   5.852   2.182 -0.6112 -0.5459  0.6898
   86SOPE    C1 7999   1.791   5.763   2.237  0.6560  0.8893 -0.7316
   86SOPE    HA 8000   1.898   5.790   2.223  1.1407 -0.0491  0.9048
   86SOPE    HB 8001   1.789   5.661   2.192  2.1930 -0.7339  2.5907
   86SOPE    C2 8002   1.765   5.736   2.389 -1.1276  0.4260  0.2613
   86SOPE    HS 8003   1.818   5.640   2.410 -1.2359  0.7732  2.3505
   86SOPE   O21 8004   1.622   5.733   2.410  0.0846 -0.4286  0.6426
   86SOPE   C21 8005   1.573   5.610   2.375  0.4502  0.5089 -0.5024
   86SOPE   O22 8006   1.635   5.514   2.338  0.5591  0.3264 -0.8173
   86SOPE   C22 8007   1.419   5.621   2.398  0.1550  0.2479  0.0078
   86SOPE   H2R 8008   1.379   5.520   2.377  1.9177 -0.6294  0.6465
   86SOPE   H2S 8009   1.384   5.684   2.314  1.0154  0.4893 -0.1767
   86SOPE    C3 8010   1.836   5.836   2.472 -0.1063 -0.1542  0.0610
   86SOPE    HX 8011   1.786   5.932   2.451  0.6898  0.0638 -0.8793
   86SOPE    HY 8012   1.943   5.846   2.442 -0.4034 -0.8337 -1.2788
   86SOPE   O31 8013   1.812   5.804   2.614 -0.2332  0.2206 -0.3710
   86SOPE   C31 8014   1.917   5.768   2.684  0.1794 -0.1735 -0.6601
   86SOPE   O32 8015   2.028   5.753   2.639  0.0933 -0.4919 -0.5029
   86SOPE   C32 8016   1.872   5.741   2.822 -0.4861  0.3866  0.1176
   86SOPE   H2X 8017   1.892   5.632   2.827 -0.7918  0.3795  1.4733
   86SOPE   H2Y 8018   1.763   5.756   2.841 -0.3236 -0.5029  1.9739
   86SOPE   C23 8019   1.404   5.691   2.545  0.1654  0.5405 -0.1793
   86SOPE   H3R 8020   1.427   5.799   2.527 -0.6358  1.6435  4.2914
   86SOPE   H3S 8021   1.474   5.644   2.617 -1.1081  0.5552  1.1068
   86SOPE   C24 8022   1.260   5.689   2.601  0.0797 -0.7120 -0.1948
   86SOPE   H4R 8023   1.184   5.687   2.519 -0.0657 -0.2618 -0.0729
   86SOPE   H4S 8024   1.240   5.589   2.647  0.1593 -1.7593 -2.3023
   86SOPE   C25 8025   1.227   5.797   2.698 -0.0311 -0.2850 -0.3895
   86SOPE   H5R 8026   1.222   5.895   2.645  0.3842  0.2762  0.5657
   86SOPE   H5S 8027   1.128   5.781   2.745  0.7900 -0.1261  1.4917
   86SOPE   C26 8028   1.326   5.802   2.822  0.4097 -0.2709  0.9849
   86SOPE   H6R 8029   1.430   5.822   2.788 -0.3113  2.2025  0.0142
   86SOPE   H6S 8030   1.284   5.888   2.879 -1.2145 -1.3398  1.4500
   86SOPE   C27 8031   1.312   5.672   2.903 -0.4869 -0.0988 -0.7047
   86SOPE   H7R 8032   1.225   5.611   2.868 -0.7406 -0.7071  0.9008
   86SOPE   H7S 8033   1.390   5.605   2.862  0.2283 -0.4782  1.1767
   86SOPE   C28 8034   1.322   5.675   3.058  0.2286  0.3850  0.7125
   86SOPE   H8R 8035   1.227   5.717   3.098  0.4618  1.3398  0.2774
   86SOPE   H8S 8036   1.334   5.569   3.092  0.2228 -0.0821 -0.6888
   86SOPE   C29 8037   1.443   5.751   3.099 -0.2272 -0.0864 -0.5747
   86SOPE   H91 8038   1.521   5.741   3.022 -0.0785  0.4646 -0.4994
   86SOPE  C210 8039   1.463   5.817   3.216 -0.0118 -0.5711 -0.0660
   86SOPE  H101 8040   1.567   5.846   3.239 -0.1584 -0.8361  0.9747
   86SOPE  C211 8041   1.370   5.832   3.331  0.6115  0.0410 -0.0471
   86SOPE  H11R 8042   1.294   5.752   3.335 -0.7872  1.2186 -1.7441
   86SOPE  H11S 8043   1.305   5.920   3.315 -0.5136 -0.3562  2.0388
   86SOPE  C212 8044   1.451   5.859   3.461 -0.1061 -0.0316  0.3253
   86SOPE  H12R 8045   1.543   5.798   3.469  1.3127  1.9979  0.2851
   86SOPE  H12S 8046   1.395   5.838   3.554 -0.7352  1.6754  0.3645
   86SOPE  C213 8047   1.496   6.006   3.466 -0.1573  0.8573 -0.2952
   86SOPE  H13R 8048   1.414   6.080   3.454 -1.2955 -0.6723 -2.7088
   86SOPE  H13S 8049   1.583   6.020   3.398  1.2359 -0.4050  1.1656
   86SOPE  C214 8050   1.562   6.030   3.607  0.1897 -0.2020 -0.9422
   86SOPE  H14R 8051   1.631   6.114   3.583 -1.2991  1.4981  0.4506
   86SOPE  H14S 8052   1.619   5.947   3.654 -0.4143  1.0002  2.1681
   86SOPE  C215 8053   1.464   6.089   3.711 -0.4937 -0.5960  0.0719
   86SOPE  H15R 8054   1.388   6.014   3.740  0.0736 -0.5137  1.9067
   86SOPE  H15S 8055   1.411   6.180   3.676  0.3341 -0.1796 -0.1311
   86SOPE  C216 8056   1.538   6.133   3.842 -0.0049 -0.8836 -0.7276
   86SOPE  H16R 8057   1.619   6.202   3.810 -1.7018  1.7100  0.2489
   86SOPE  H16S 8058   1.587   6.049   3.895 -0.0767 -0.8472 -0.6046
   86SOPE  C217 8059   1.443   6.212   3.933  0.1731 -0.5404 -0.6444
   86SOPE  H17R 8060   1.370   6.144   3.981  0.3019  0.5088  1.1280
   86SOPE  H17S 8061   1.383   6.278   3.868 -0.8720  0.5406  1.3244
   86SOPE  C218 8062   1.519   6.295   4.032 -0.1390  0.0283 -0.2643
   86SOPE  H18R 8063   1.569   6.234   4.110  1.8439 -0.6758 -1.9951
   86SOPE  H18S 8064   1.455   6.369   4.085  0.3801  0.3362 -0.0605
   86SOPE  H18T 8065   1.594   6.362   3.985 -0.4984  1.8301  1.5584
   86SOPE   C33 8066   1.939   5.834   2.930  0.2255 -0.3996  0.0132
   86SOPE   H3X 8067   1.917   5.941   2.907  1.9721 -0.3457 -1.7476
   86SOPE   H3Y 8068   2.050   5.830   2.924  0.4054  2.3147  0.0805
   86SOPE   C34 8069   1.908   5.784   3.072 -0.1022  0.0543 -0.0703
   86SOPE   H4X 8070   1.938   5.678   3.086 -0.1494  0.0765  0.2136
   86SOPE   H4Y 8071   1.797   5.781   3.083 -0.1326 -1.0310 -0.6066
   86SOPE   C35 8072   1.956   5.873   3.179 -0.4915  0.2860 -0.4772
   86SOPE   H5X 8073   1.906   5.971   3.170 -3.2162 -0.9713 -0.0289
   86SOPE   H5Y 8074   2.063   5.897   3.163 -0.4801 -0.7833 -2.3346
   86SOPE   C36 8075   1.923   5.824   3.321 -0.0077  0.1424 -0.2213
   86SOPE   H6X 8076   1.996   5.747   3.353 -0.0140  0.6628  1.0931
   86SOPE   H6Y 8077   1.820   5.782   3.321 -0.1064  0.3746  0.3077
   86SOPE   C37 8078   1.943   5.939   3.426 -0.0657 -0.3047  0.3321
   86SOPE   H7X 8079   1.861   6.013   3.418  1.8268  2.0027  0.9422
   86SOPE   H7Y 8080   2.033   5.999   3.398 -1.4532  0.6724 -2.4548
   86SOPE   C38 8081   1.962   5.883   3.565 -0.5536  0.0803 -0.1349
   86SOPE   H8X 8082   2.063   5.838   3.578 -0.3928  0.4583 -0.0840
   86SOPE   H8Y 8083   1.894   5.797   3.581  0.9504 -0.8981  1.3640
   86SOPE   C39 8084   1.943   5.986   3.671  0.5467  0.1815 -0.1367
   86SOPE   H9X 8085   1.864   6.059   3.640  0.1339 -0.7209 -1.3053
   86SOPE   H9Y 8086   2.030   6.053   3.685  0.7964 -0.1704 -0.0025
   86SOPE  C310 8087   1.893   5.917   3.812  0.0006 -0.4119  0.0298
   86SOPE  H10X 8088   1.954   5.826   3.831 -0.1224 -0.3220  0.8821
   86SOPE  H10Y 8089   1.787   5.885   3.812  0.4598 -2.0413  1.0089
   86SOPE  C311 8090   1.918   6.018   3.924 -0.4683 -0.1797  0.5520
   86SOPE  H11X 8091   1.841   6.094   3.896 -1.8042 -1.5356  0.3958
   86SOPE  H11Y 8092   2.018   6.066   3.921 -1.0585  1.0426 -1.4746
   86SOPE  C312 8093   1.887   5.972   4.068 -0.0645  0.6239 -0.5579
   86SOPE  H12X 8094   1.949   5.890   4.110  1.4235  2.5235  1.1843
   86SOPE  H12Y 8095   1.789   5.921   4.068  1.9430 -3.6226 -1.9490
   86SOPE  C313 8096   1.898   6.090   4.164 -0.3796  0.3653  0.0568
   86SOPE  H13X 8097   1.844   6.180   4.127 -1.3159  0.2920  1.1569
   86SOPE  H13Y 8098   2.004   6.123   4.170 -0.1981 -0.2293  0.2342
   86SOPE  C314 8099   1.868   6.044   4.312 -0.2528  0.3186  0.4206
   86SOPE  H14X 8100   1.930   5.958   4.346 -0.0806  0.0505 -0.5360
   86SOPE  H14Y 8101   1.764   6.005   4.322  0.0550 -0.8768 -0.6535
   86SOPE  C315 8102   1.894   6.157   4.410 -0.2855 -0.2312 -0.1459
   86SOPE  H15X 8103   1.909   6.123   4.515 -0.5611 -0.5934 -0.2214
   86SOPE  H15Y 8104   1.801   6.216   4.417 -0.1323 -0.1453  3.6282
   86SOPE  C316 8105   2.007   6.256   4.381  0.6963  0.1370  0.0250
   86SOPE  H16X 8106   2.002   6.292   4.276 -0.8178  1.0195  0.3713
   86SOPE  H16Y 8107   2.103   6.204   4.398 -0.9802 -2.8891  0.8870
   86SOPE  C317 8108   1.995   6.388   4.476 -0.3637  0.5310  0.6209
   86SOPE  H17X 8109   2.088   6.445   4.462 -0.6004  0.2825 -2.4987
   86SOPE  H17Y 8110   1.986   6.343   4.578 -0.3530  0.1935  0.4731
   86SOPE  C318 8111   1.881   6.479   4.425 -0.0337 -0.0489  0.7149
   86SOPE  H18X 8112   1.885   6.493   4.315 -1.2565  0.1613  0.6808
   86SOPE  H18Y 8113   1.881   6.582   4.467 -0.9794  0.0699  0.4654
   86SOPE  H18Z 8114   1.785   6.442   4.468 -0.0009 -0.6048  0.3157
   87SOPE     N 8115   2.428   5.148   2.333 -0.2954  0.3437  0.2119
   87SOPE   HN1 8116   2.492   5.072   2.364 -0.0644  0.0277 -0.9907
   87SOPE   HN2 8117   2.405   5.114   2.238 -0.1199 -0.0613  0.3083
   87SOPE   HN3 8118   2.492   5.229   2.323 -1.6170  1.4079  0.1108
   87SOPE   C12 8119   2.316   5.148   2.430  0.7376  0.2062  0.1271
   87SOPE  H12A 8120   2.317   5.048   2.479  1.4156  0.6811  1.1038
   87SOPE  H12B 8121   2.228   5.151   2.362  1.7466  1.0222 -1.2032
   87SOPE   C11 8122   2.325   5.272   2.522 -0.8049  0.4121  0.6225
   87SOPE  H11A 8123   2.425   5.263   2.569 -1.1521  1.2428  1.5426
   87SOPE  H11B 8124   2.253   5.267   2.607  0.2585  0.5272  1.5487
   87SOPE     P 8125   2.428   5.490   2.403 -0.1258  0.0596  0.0481
   87SOPE   O13 8126   2.366   5.596   2.325  0.2027 -0.6233  0.1581
   87SOPE   O14 8127   2.540   5.410   2.346  0.6043 -0.4262 -0.2001
   87SOPE   O12 8128   2.311   5.389   2.444  0.1910  0.2294  0.2917
   87SOPE   O11 8129   2.478   5.551   2.538  0.4314 -0.6218 -0.3666
   87SOPE    C1 8130   2.390   5.653   2.595 -0.2719 -0.8788  0.0461
   87SOPE    HA 8131   2.284   5.626   2.580 -0.5728  0.9846 -1.6292
   87SOPE    HB 8132   2.398   5.747   2.535 -0.2707 -1.6754 -1.2362
   87SOPE    C2 8133   2.418   5.680   2.741 -0.0226  0.1935  0.0571
   87SOPE    HS 8134   2.529   5.680   2.755  0.0861  1.3859 -0.6731
   87SOPE   O21 8135   2.345   5.571   2.803  0.1941 -0.1835  0.1738
   87SOPE   C21 8136   2.402   5.530   2.918 -0.1446 -0.5486  0.1359
   87SOPE   O22 8137   2.507   5.578   2.957  0.5329  0.8742  0.2276
   87SOPE   C22 8138   2.305   5.435   2.986 -0.3327 -0.0537 -0.1601
   87SOPE   H2R 8139   2.370   5.371   3.049  0.9039  0.9554 -0.3842
   87SOPE   H2S 8140   2.259   5.377   2.903 -0.5121  0.4344 -0.4107
   87SOPE    C3 8141   2.347   5.814   2.769  0.4130  0.3968 -0.2775
   87SOPE    HX 8142   2.238   5.793   2.773  0.2656  1.0747 -0.6482
   87SOPE    HY 8143   2.355   5.893   2.692 -0.4419  1.7277  0.9437
   87SOPE   O31 8144   2.373   5.870   2.896  0.1357  0.0620 -0.2524
   87SOPE   C31 8145   2.498   5.889   2.921 -0.1389 -0.5835 -0.4247
   87SOPE   O32 8146   2.595   5.877   2.849 -0.2220  0.0926 -0.4694
   87SOPE   C32 8147   2.513   5.958   3.061 -0.0932  0.4205 -0.2493
   87SOPE   H2X 8148   2.476   6.062   3.069  1.0020  0.7656  0.5164
   87SOPE   H2Y 8149   2.621   5.967   3.085 -0.4252 -3.0789  3.8662
   87SOPE   C23 8150   2.197   5.516   3.063 -0.3616 -0.2091  0.6952
   87SOPE   H3R 8151   2.106   5.522   3.000  1.7254 -2.0988 -2.7938
   87SOPE   H3S 8152   2.225   5.621   3.085 -2.2788  1.0488 -2.2209
   87SOPE   C24 8153   2.147   5.468   3.203  0.1250  0.1339 -1.0213
   87SOPE   H4R 8154   2.045   5.508   3.220  0.5004  0.2464  1.3418
   87SOPE   H4S 8155   2.140   5.357   3.197  0.8539  0.0790 -0.9472
   87SOPE   C25 8156   2.234   5.507   3.325  0.0798  1.1363 -0.4905
   87SOPE   H5R 8157   2.340   5.472   3.329 -0.6644 -1.3061 -0.4700
   87SOPE   H5S 8158   2.235   5.617   3.308  1.2797  0.8852 -2.4328
   87SOPE   C26 8159   2.172   5.485   3.462  0.1882  0.9527  0.4352
   87SOPE   H6R 8160   2.226   5.541   3.540 -0.7515  0.9018  1.1310
   87SOPE   H6S 8161   2.065   5.517   3.464 -0.1857 -0.1070 -0.7949
   87SOPE   C27 8162   2.179   5.337   3.501  0.0857 -0.2287  0.2507
   87SOPE   H7R 8163   2.115   5.279   3.430 -0.8579  1.4670 -0.3497
   87SOPE   H7S 8164   2.285   5.304   3.495 -0.1690 -0.9932 -0.1998
   87SOPE   C28 8165   2.138   5.291   3.639  0.2109  0.0256  0.3014
   87SOPE   H8R 8166   2.029   5.311   3.652  0.4772 -0.1282  3.6323
   87SOPE   H8S 8167   2.146   5.180   3.628  0.3820  0.1863 -1.6432
   87SOPE   C29 8168   2.219   5.346   3.758 -0.1672  0.1622 -0.1785
   87SOPE   H91 8169   2.304   5.279   3.781 -0.0956  0.5111  0.5886
   87SOPE  C210 8170   2.195   5.464   3.828  0.3493  0.6038  0.0406
   87SOPE  H101 8171   2.265   5.499   3.906  0.7877 -1.3376  0.5932
   87SOPE  C211 8172   2.070   5.552   3.808  0.0413  0.8361  0.2162
   87SOPE  H11R 8173   2.011   5.522   3.720 -1.3039 -0.9084  1.6434
   87SOPE  H11S 8174   2.098   5.660   3.808 -4.8062  2.3502  0.2357
   87SOPE  C212 8175   1.983   5.537   3.937 -0.0483 -0.1691  0.8892
   87SOPE  H12R 8176   1.892   5.602   3.942  0.3941  0.3705  2.4793
   87SOPE  H12S 8177   2.037   5.564   4.030 -0.1539  2.6395  0.2306
   87SOPE  C213 8178   1.930   5.389   3.960 -0.5387 -0.6503  0.0081
   87SOPE  H13R 8179   2.017   5.327   3.989  0.8909  1.7735  1.2147
   87SOPE  H13S 8180   1.883   5.356   3.865 -0.2810  2.1893 -1.1992
   87SOPE  C214 8181   1.812   5.385   4.064 -0.2476  0.3607 -0.1076
   87SOPE  H14R 8182   1.778   5.279   4.073  1.6667 -0.5458 -2.3006
   87SOPE  H14S 8183   1.723   5.444   4.033 -0.1415  1.1509  1.0466
   87SOPE  C215 8184   1.846   5.454   4.199  0.0843 -0.5474  0.7932
   87SOPE  H15R 8185   1.861   5.562   4.179  0.1584 -0.9324 -1.6396
   87SOPE  H15S 8186   1.942   5.402   4.218  1.2053  0.8853 -0.6487
   87SOPE  C216 8187   1.738   5.435   4.304 -0.9065 -0.0083 -0.0558
   87SOPE  H16R 8188   1.641   5.481   4.275  0.2474  0.9407 -2.6305
   87SOPE  H16S 8189   1.769   5.493   4.394 -4.0871 -0.2859  1.3784
   87SOPE  C217 8190   1.716   5.298   4.363 -0.0444 -0.1978 -0.3947
   87SOPE  H17R 8191   1.815   5.259   4.395 -0.2524 -1.5643 -1.3214
   87SOPE  H17S 8192   1.677   5.230   4.284 -0.7538 -0.1687 -0.0826
   87SOPE  C218 8193   1.613   5.295   4.472 -0.2036 -0.8900 -0.8845
   87SOPE  H18R 8194   1.648   5.356   4.558 -1.9034  0.1414 -0.8916
   87SOPE  H18S 8195   1.585   5.190   4.495 -1.5956 -0.4529 -0.4724
   87SOPE  H18T 8196   1.522   5.351   4.443  1.0837  0.8626 -1.6731
   87SOPE   C33 8197   2.445   5.871   3.170 -0.0083  0.5864  0.1579
   87SOPE   H3X 8198   2.494   5.772   3.181 -0.0396  0.8490  4.3698
   87SOPE   H3Y 8199   2.342   5.849   3.134  0.9769 -0.6425 -2.1269
   87SOPE   C34 8200   2.424   5.942   3.307  0.0350 -0.7052  0.3459
   87SOPE   H4X 8201   2.366   6.036   3.296 -0.7718 -1.1784  0.5333
   87SOPE   H4Y 8202   2.518   5.978   3.354 -0.1903  1.0539 -0.4601
   87SOPE   C35 8203   2.357   5.853   3.410  0.7658  0.1573  0.2756
   87SOPE   H5X 8204   2.400   5.750   3.407 -0.4749 -0.3506 -1.5324
   87SOPE   H5Y 8205   2.249   5.846   3.382  0.2028  0.9723  2.0524
   87SOPE   C36 8206   2.371   5.909   3.553  0.2084 -0.7305  0.5005
   87SOPE   H6X 8207   2.285   5.868   3.611  0.7526  1.4900  3.0679
   87SOPE   H6Y 8208   2.350   6.018   3.561 -2.9435 -1.2587  1.0775
   87SOPE   C37 8209   2.508   5.871   3.622  0.8854  0.4577 -0.0073
   87SOPE   H7X 8210   2.590   5.921   3.565  1.5477  0.0185  0.5444
   87SOPE   H7Y 8211   2.527   5.762   3.610 -2.1826 -0.0509 -0.9844
   87SOPE   C38 8212   2.508   5.908   3.771 -0.0106  0.5520  0.7701
   87SOPE   H8X 8213   2.488   6.016   3.791  0.4899  0.9213 -0.5530
   87SOPE   H8Y 8214   2.607   5.882   3.814  1.3901  2.0753 -1.3272
   87SOPE   C39 8215   2.398   5.841   3.861  0.3090  0.1829 -0.4285
   87SOPE   H9X 8216   2.417   5.731   3.865  1.8958  0.4583  0.3862
   87SOPE   H9Y 8217   2.299   5.859   3.813  0.0811  0.0072 -0.0278
   87SOPE  C310 8218   2.394   5.909   3.999 -1.0627 -0.5542 -0.2575
   87SOPE  H10X 8219   2.378   6.018   3.988 -0.7090 -0.6407 -1.8105
   87SOPE  H10Y 8220   2.491   5.900   4.054 -2.2904  2.5704  2.7524
   87SOPE  C311 8221   2.289   5.845   4.091 -0.1645 -0.4338 -0.1934
   87SOPE  H11X 8222   2.296   5.735   4.095  0.0901 -0.4380 -0.7130
   87SOPE  H11Y 8223   2.200   5.870   4.030  0.0904 -0.2697 -0.4977
   87SOPE  C312 8224   2.262   5.923   4.223  0.1802 -0.5216 -0.1841
   87SOPE  H12X 8225   2.156   5.956   4.223  0.0552 -0.5106 -4.2894
   87SOPE  H12Y 8226   2.325   6.015   4.226  0.5852 -0.8166  0.9543
   87SOPE  C313 8227   2.309   5.852   4.353 -0.1252  0.1743  0.1782
   87SOPE  H13X 8228   2.411   5.813   4.333 -0.9926 -1.3295 -1.5444
   87SOPE  H13Y 8229   2.240   5.768   4.375 -2.5537  2.0046 -0.0640
   87SOPE  C314 8230   2.307   5.934   4.481  0.3309 -0.2336  0.0922
   87SOPE  H14X 8231   2.316   5.871   4.571  1.1935 -1.6874 -0.9608
   87SOPE  H14Y 8232   2.214   5.994   4.491  1.8033  2.6033 -1.7537
   87SOPE  C315 8233   2.412   6.045   4.477  0.2286  0.0276  0.0828
   87SOPE  H15X 8234   2.361   6.140   4.451  0.0841  0.4132  1.6684
   87SOPE  H15Y 8235   2.479   6.030   4.390 -0.6301 -0.3626 -0.5309
   87SOPE  C316 8236   2.500   6.050   4.600 -0.0412 -0.5992 -0.6385
   87SOPE  H16X 8237   2.565   5.960   4.596  0.4862 -0.4547  2.4593
   87SOPE  H16Y 8238   2.449   6.054   4.699 -0.2446 -0.7868 -0.7318
   87SOPE  C317 8239   2.594   6.166   4.593 -0.2015  0.2621 -0.4819
   87SOPE  H17X 8240   2.532   6.256   4.572 -0.2834  0.2339 -0.3619
   87SOPE  H17Y 8241   2.670   6.159   4.513 -2.8188 -1.1169 -3.0524
   87SOPE  C318 8242   2.668   6.184   4.729 -0.4160 -0.1362  0.1282
   87SOPE  H18X 8243   2.712   6.286   4.726  1.3753 -0.8363  1.1367
   87SOPE  H18Y 8244   2.747   6.107   4.743 -0.6191 -0.8802 -2.2613
   87SOPE  H18Z 8245   2.606   6.167   4.819  0.2029 -0.9555  0.4158
   88SOPE     N 8246   4.496   6.094   2.110  0.1494 -0.0571 -0.0394
   88SOPE   HN1 8247   4.598   6.087   2.127 -0.1052  0.4432  1.9823
   88SOPE   HN2 8248   4.454   6.021   2.171 -0.6642  1.6089  1.4977
   88SOPE   HN3 8249   4.471   6.074   2.011 -1.5284 -0.1888  0.3755
   88SOPE   C12 8250   4.430   6.230   2.136  0.2118  0.1140 -0.0158
   88SOPE  H12A 8251   4.473   6.314   2.077  0.3723  0.2468  0.2902
   88SOPE  H12B 8252   4.439   6.247   2.245  1.3737 -0.3970 -0.0210
   88SOPE   C11 8253   4.280   6.224   2.090  0.2268 -0.3437 -0.2905
   88SOPE  H11A 8254   4.277   6.194   1.983  1.1376 -1.3714 -0.0419
   88SOPE  H11B 8255   4.252   6.329   2.111 -0.5641 -0.4731 -0.6599
   88SOPE     P 8256   4.045   6.137   2.142  0.0551 -0.0242  0.4098
   88SOPE   O13 8257   3.998   6.007   2.095  0.1790 -0.2048  0.2760
   88SOPE   O14 8258   4.004   6.253   2.060 -0.2768  0.3700 -0.2787
   88SOPE   O12 8259   4.200   6.128   2.162 -0.3342  0.5734  0.2274
   88SOPE   O11 8260   3.985   6.156   2.289 -0.0777 -0.0440 -0.6849
   88SOPE    C1 8261   3.954   6.285   2.340 -0.0274 -0.1340 -0.7187
   88SOPE    HA 8262   3.999   6.372   2.288 -0.8872  0.5628 -0.3120
   88SOPE    HB 8263   3.995   6.294   2.443 -1.5672 -2.6176  0.2234
   88SOPE    C2 8264   3.802   6.312   2.352  0.2373 -0.0504 -0.1721
   88SOPE    HS 8265   3.747   6.319   2.255 -0.6584 -1.8291  0.1570
   88SOPE   O21 8266   3.764   6.424   2.430 -0.1335 -0.0027  0.4814
   88SOPE   C21 8267   3.788   6.537   2.377  0.4930  0.3750 -0.5342
   88SOPE   O22 8268   3.855   6.557   2.277  0.5296 -0.2243 -0.1361
   88SOPE   C22 8269   3.695   6.647   2.441 -0.4942  0.1281  0.2960
   88SOPE   H2R 8270   3.603   6.640   2.379  1.1036 -1.7136 -2.0243
   88SOPE   H2S 8271   3.756   6.739   2.425 -0.9048  0.4042  0.3076
   88SOPE    C3 8272   3.736   6.185   2.415  0.2847  0.4240 -0.4239
   88SOPE    HX 8273   3.761   6.093   2.358 -0.9901 -1.0498  1.2617
   88SOPE    HY 8274   3.627   6.200   2.406  0.2880 -0.0090 -1.2818
   88SOPE   O31 8275   3.769   6.174   2.557 -0.1280  0.5606  0.2334
   88SOPE   C31 8276   3.703   6.250   2.642 -0.0477 -0.6366  1.1776
   88SOPE   O32 8277   3.584   6.276   2.629  0.5127 -0.5978 -0.0454
   88SOPE   C32 8278   3.795   6.301   2.743 -0.1064 -0.0707  0.4154
   88SOPE   H2X 8279   3.874   6.369   2.704  0.4508 -0.7182  0.3935
   88SOPE   H2Y 8280   3.864   6.218   2.767 -0.5707  0.1417  2.7364
   88SOPE   C23 8281   3.654   6.627   2.590  0.6047  0.3106 -0.6378
   88SOPE   H3R 8282   3.739   6.592   2.653  0.5051  0.8692 -0.1852
   88SOPE   H3S 8283   3.573   6.553   2.603 -0.1311  0.8903 -1.7692
   88SOPE   C24 8284   3.603   6.762   2.654  0.0722 -0.3333 -0.3692
   88SOPE   H4R 8285   3.690   6.831   2.659 -0.8613  0.8127  0.4163
   88SOPE   H4S 8286   3.525   6.800   2.585 -0.5572  2.4872  1.7180
   88SOPE   C25 8287   3.533   6.752   2.796 -0.1999  0.2800 -0.2629
   88SOPE   H5R 8288   3.449   6.825   2.792 -0.1747  0.3568  0.4590
   88SOPE   H5S 8289   3.503   6.645   2.804  0.5675  0.0683 -0.2017
   88SOPE   C26 8290   3.618   6.792   2.917  0.7474  0.4007 -0.5694
   88SOPE   H6R 8291   3.716   6.740   2.913  0.7154  0.3584 -0.8275
   88SOPE   H6S 8292   3.642   6.900   2.909  1.8375  0.1407 -0.8690
   88SOPE   C27 8293   3.552   6.759   3.055  0.1121 -0.1345  0.4920
   88SOPE   H7R 8294   3.458   6.819   3.051 -0.3668 -0.9653 -1.8952
   88SOPE   H7S 8295   3.529   6.650   3.060 -2.8649  0.1948 -2.4553
   88SOPE   C28 8296   3.645   6.802   3.168 -0.0762  0.1003 -0.7411
   88SOPE   H8R 8297   3.611   6.756   3.263 -2.3989 -0.3933 -1.7427
   88SOPE   H8S 8298   3.746   6.759   3.151  0.4987  0.7148  0.9524
   88SOPE   C29 8299   3.648   6.953   3.179 -0.1975 -0.1342 -0.5551
   88SOPE   H91 8300   3.733   7.003   3.129  2.2705 -0.7326  2.6930
   88SOPE  C210 8301   3.566   7.019   3.263 -0.8921 -0.0252  0.0534
   88SOPE  H101 8302   3.580   7.126   3.283  0.2318 -0.1536 -0.0037
   88SOPE  C211 8303   3.457   6.964   3.336  0.2237  0.0897 -0.0676
   88SOPE  H11R 8304   3.437   6.855   3.331  1.8140 -0.2861  0.8668
   88SOPE  H11S 8305   3.368   7.020   3.302  1.1236  0.5905 -1.6652
   88SOPE  C212 8306   3.467   6.986   3.493 -0.2449  0.1352 -0.3174
   88SOPE  H12R 8307   3.383   6.945   3.553  0.6929 -0.4647  0.6447
   88SOPE  H12S 8308   3.471   7.093   3.523  1.7316 -0.2693  1.0672
   88SOPE  C213 8309   3.594   6.916   3.547 -0.4257  0.4037  0.5635
   88SOPE  H13R 8310   3.681   6.963   3.496  0.6927 -2.0004  0.1149
   88SOPE  H13S 8311   3.597   6.811   3.511 -1.3784  0.3678  0.5629
   88SOPE  C214 8312   3.611   6.929   3.695 -0.3556 -0.2942 -0.3902
   88SOPE  H14R 8313   3.531   6.862   3.732 -0.1825 -0.0752  0.3948
   88SOPE  H14S 8314   3.601   7.036   3.722  0.2602 -0.4236  0.3999
   88SOPE  C215 8315   3.750   6.889   3.750 -0.5635  0.2081 -0.0606
   88SOPE  H15R 8316   3.834   6.943   3.701 -0.4765  0.0810 -0.0513
   88SOPE  H15S 8317   3.768   6.780   3.734 -0.4209  0.3783 -1.1557
   88SOPE  C216 8318   3.754   6.913   3.897  0.0169 -0.1844 -0.3630
   88SOPE  H16R 8319   3.655   6.882   3.937 -0.3555 -1.1959 -1.9614
   88SOPE  H16S 8320   3.767   7.022   3.914 -0.2868  0.1273 -1.9822
   88SOPE  C217 8321   3.862   6.837   3.975 -0.0160 -0.2091  0.6620
   88SOPE  H17R 8322   3.965   6.850   3.936 -0.1317  1.1522  0.7850
   88SOPE  H17S 8323   3.847   6.729   3.952  0.8305  0.0367 -1.2362
   88SOPE  C218 8324   3.858   6.860   4.126 -0.4062  0.2672  0.7254
   88SOPE  H18R 8325   3.874   6.771   4.191 -1.2696 -0.4848 -0.0749
   88SOPE  H18S 8326   3.754   6.889   4.154 -0.7403 -0.3771  0.1729
   88SOPE  H18T 8327   3.926   6.941   4.163  0.8933 -0.2365 -0.4719
   88SOPE   C33 8328   3.715   6.348   2.861  0.2616 -0.2792 -0.7545
   88SOPE   H3X 8329   3.628   6.282   2.879 -0.8366  0.9469 -1.3679
   88SOPE   H3Y 8330   3.670   6.448   2.842 -0.7017 -0.5904 -0.1852
   88SOPE   C34 8331   3.792   6.344   2.993 -0.3892 -0.2827  0.5219
   88SOPE   H4X 8332   3.892   6.390   2.978 -0.9002  0.5037 -0.6800
   88SOPE   H4Y 8333   3.808   6.236   3.013 -3.0432 -1.3186 -2.2273
   88SOPE   C35 8334   3.721   6.405   3.112 -0.0884 -0.1231 -0.2476
   88SOPE   H5X 8335   3.625   6.355   3.136  0.8347 -1.5060  0.7495
   88SOPE   H5Y 8336   3.704   6.510   3.081  1.5634  0.3661  0.4261
   88SOPE   C36 8337   3.805   6.410   3.237  0.2415 -0.6203 -0.1532
   88SOPE   H6X 8338   3.900   6.461   3.212 -1.2371  1.7981 -1.1848
   88SOPE   H6Y 8339   3.838   6.310   3.273 -0.7217 -1.1156 -0.6049
   88SOPE   C37 8340   3.725   6.482   3.358 -0.5669 -0.1948  0.8495
   88SOPE   H7X 8341   3.629   6.426   3.363  0.1559 -1.6424 -0.4092
   88SOPE   H7Y 8342   3.707   6.587   3.327 -0.1835  0.4311  2.6324
   88SOPE   C38 8343   3.809   6.474   3.489  0.1292 -0.3766 -0.3902
   88SOPE   H8X 8344   3.900   6.537   3.476 -2.5166  3.8086 -0.4470
   88SOPE   H8Y 8345   3.827   6.367   3.514 -0.0501 -0.6182 -1.2452
   88SOPE   C39 8346   3.728   6.521   3.603  0.2493 -0.5165 -0.4122
   88SOPE   H9X 8347   3.676   6.614   3.571 -0.2795 -0.9143 -0.7204
   88SOPE   H9Y 8348   3.794   6.556   3.686  0.4825  1.0470 -1.2097
   88SOPE  C310 8349   3.616   6.423   3.647 -0.1746  0.0344 -0.4279
   88SOPE  H10X 8350   3.658   6.328   3.686  0.4315 -0.4207 -2.1074
   88SOPE  H10Y 8351   3.562   6.394   3.554 -0.7538 -0.0604 -0.0615
   88SOPE  C311 8352   3.522   6.464   3.761  0.6304 -0.7333  0.8649
   88SOPE  H11X 8353   3.421   6.421   3.745  0.2079  0.3923  0.3571
   88SOPE  H11Y 8354   3.512   6.575   3.758  0.8846 -0.6983  1.2805
   88SOPE  C312 8355   3.563   6.427   3.907 -0.1794  0.1995 -0.2303
   88SOPE  H12X 8356   3.612   6.327   3.912  0.2770  0.4368  0.0746
   88SOPE  H12Y 8357   3.472   6.417   3.971 -1.6379 -0.4714 -2.3038
   88SOPE  C313 8358   3.672   6.523   3.969  0.0886  0.2424 -0.1619
   88SOPE  H13X 8359   3.633   6.626   3.983  0.8631  0.7658 -1.6098
   88SOPE  H13Y 8360   3.756   6.532   3.897  0.5679  1.0266  0.4748
   88SOPE  C314 8361   3.725   6.466   4.104 -0.4584 -0.1103  0.5349
   88SOPE  H14X 8362   3.809   6.535   4.128 -0.0646  0.2787 -1.7952
   88SOPE  H14Y 8363   3.764   6.365   4.081  1.7365  0.7058  0.4487
   88SOPE  C315 8364   3.625   6.458   4.219 -0.4844  0.6591 -0.2969
   88SOPE  H15X 8365   3.531   6.403   4.195  0.1031  0.0267 -1.1841
   88SOPE  H15Y 8366   3.601   6.562   4.249  3.5421  1.6223  0.1107
   88SOPE  C316 8367   3.691   6.393   4.343  0.4290  0.2515 -0.3805
   88SOPE  H16X 8368   3.801   6.402   4.337  0.3602  0.3652 -2.0146
   88SOPE  H16Y 8369   3.676   6.283   4.342 -2.7030  0.5119  1.9457
   88SOPE  C317 8370   3.637   6.453   4.480 -0.2353 -0.1321  0.0847
   88SOPE  H17X 8371   3.659   6.561   4.497 -2.3342  0.3564 -0.0398
   88SOPE  H17Y 8372   3.698   6.408   4.562  1.0664  0.1131 -0.7282
   88SOPE  C318 8373   3.491   6.410   4.502  0.2557 -0.3736 -0.2458
   88SOPE  H18X 8374   3.487   6.304   4.535 -0.0349  0.0066  1.0014
   88SOPE  H18Y 8375   3.431   6.434   4.411  2.4972  0.5164 -1.5786
   88SOPE  H18Z 8376   3.442   6.456   4.591 -0.1398 -1.7519  0.2778
   89SAPC     N 8377   6.620   1.315   6.680 -0.1385 -0.3325  0.2235
   89SAPC   C12 8378   6.738   1.323   6.597  0.5161 -0.4881 -0.3469
   89SAPC  H12A 8379   6.768   1.222   6.572  2.9200  0.4287 -1.5746
   89SAPC  H12B 8380   6.825   1.372   6.637  0.6376 -0.7499 -0.2888
   89SAPC   C13 8381   6.639   1.220   6.793 -0.1621 -0.5209  0.3032
   89SAPC  H13A 8382   6.653   1.117   6.764 -0.7361 -0.7119  0.6836
   89SAPC  H13B 8383   6.725   1.252   6.850 -1.5803  0.9214  1.7451
   89SAPC  H13C 8384   6.564   1.224   6.870  0.6902 -0.4724  1.1550
   89SAPC   C14 8385   6.585   1.449   6.722  0.0511 -0.0714 -0.4394
   89SAPC  H14A 8386   6.534   1.507   6.647 -0.4726  1.5969  1.1223
   89SAPC  H14B 8387   6.516   1.449   6.805 -0.6901 -0.0437 -1.0422
   89SAPC  H14C 8388   6.670   1.511   6.747 -0.6400  0.0282  1.8987
   89SAPC   C15 8389   6.507   1.245   6.604  0.1550  0.6903 -0.7133
   89SAPC  H15A 8390   6.552   1.176   6.533  0.1687  1.5062 -1.5117
   89SAPC  H15B 8391   6.437   1.191   6.666 -0.0144 -0.0846 -1.5458
   89SAPC  H15C 8392   6.433   1.306   6.555 -2.8354 -1.3737  0.9438
   89SAPC   C11 8393   6.723   1.392   6.459 -0.0190 -0.3091  0.0536
   89SAPC  H11A 8394   6.680   1.492   6.480  1.9836  0.1705  2.4541
   89SAPC  H11B 8395   6.647   1.335   6.401 -0.7338  0.1233  0.5393
   89SAPC     P 8396   6.965   1.501   6.452 -0.1423 -0.1199 -0.3742
   89SAPC   O13 8397   6.970   1.521   6.601 -0.6661  0.0948  0.0571
   89SAPC   O14 8398   7.092   1.463   6.389  0.5105  0.0915 -0.3413
   89SAPC   O12 8399   6.852   1.404   6.396 -0.0887  0.4286 -1.2331
   89SAPC   O11 8400   6.902   1.633   6.390  0.2708 -0.4341 -0.6643
   89SAPC    C1 8401   6.824   1.634   6.270  0.1884  0.3352  0.1879
   89SAPC    HA 8402   6.734   1.570   6.283 -0.1404  0.2080 -2.1402
   89SAPC    HB 8403   6.790   1.735   6.238 -2.2989 -0.5382 -0.1996
   89SAPC    C2 8404   6.896   1.580   6.146 -0.1608  0.0238  0.0605
   89SAPC    HS 8405   6.936   1.478   6.164 -2.7500 -0.7871  1.8667
   89SAPC   O21 8406   6.996   1.678   6.108  0.1351  0.6193 -0.6052
   89SAPC   C21 8407   7.098   1.628   6.039 -0.2844  0.4793  0.1823
   89SAPC   O22 8408   7.117   1.507   6.032 -0.5357 -0.4490  0.6649
   89SAPC   C22 8409   7.162   1.744   5.959  0.0082 -0.0235  0.9797
   89SAPC   H2R 8410   7.083   1.792   5.898  1.2593  0.7122 -0.1126
   89SAPC   H2S 8411   7.197   1.824   6.028  0.0166  0.8623 -0.0248
   89SAPC    C3 8412   6.792   1.561   6.028 -0.0631 -0.7265 -0.7741
   89SAPC    HX 8413   6.737   1.655   6.011 -1.5959 -1.5831 -0.7014
   89SAPC    HY 8414   6.711   1.492   6.060 -1.3960  2.5750  4.1428
   89SAPC   O31 8415   6.855   1.515   5.907 -0.0365  0.4495  0.4120
   89SAPC   C31 8416   6.846   1.391   5.862 -0.7978  0.3688  0.3748
   89SAPC   O32 8417   6.765   1.307   5.896 -0.0225  0.6257 -0.5787
   89SAPC   C32 8418   6.961   1.359   5.765  0.0625  0.3653 -0.7910
   89SAPC   H2X 8419   7.047   1.315   5.820 -0.1666  1.7172  0.6843
   89SAPC   H2Y 8420   6.990   1.449   5.706 -0.4052  2.1884  1.6172
   89SAPC   C23 8421   7.286   1.710   5.870 -0.2493 -0.2434  0.0794
   89SAPC   H3R 8422   7.268   1.626   5.799  1.4795 -0.9845  0.4659
   89SAPC   H3S 8423   7.363   1.677   5.942 -0.6323  1.0284  1.1260
   89SAPC   C24 8424   7.345   1.825   5.785 -0.7885 -0.6304  0.1250
   89SAPC   H4R 8425   7.255   1.876   5.745 -0.2485 -0.3942 -0.7959
   89SAPC   H4S 8426   7.382   1.773   5.694  2.7328  2.5885 -0.5135
   89SAPC   C25 8427   7.458   1.899   5.855  0.3392  1.1868 -0.5382
   89SAPC   H5R 8428   7.453   1.894   5.964 -1.8744 -1.7344 -0.6642
   89SAPC   C26 8429   7.552   1.958   5.790 -0.7201 -0.4002 -0.1869
   89SAPC   H6R 8430   7.627   1.998   5.859 -1.4733  0.8549 -0.0817
   89SAPC   C27 8431   7.573   1.966   5.642  0.0246  0.9473  0.2555
   89SAPC   H7R 8432   7.518   1.887   5.587  0.1456  1.0988 -0.0829
   89SAPC   H7S 8433   7.680   1.937   5.635 -0.2891 -0.5001  1.1995
   89SAPC   C28 8434   7.550   2.103   5.582  0.0167  0.2274  0.2415
   89SAPC   H8R 8435   7.542   2.186   5.654 -3.7248  0.0202  0.2862
   89SAPC   C29 8436   7.547   2.123   5.443 -0.0948  0.0812 -0.1663
   89SAPC   H9R 8437   7.536   2.224   5.401  0.7744  0.1642 -0.2220
   89SAPC  C210 8438   7.550   2.012   5.341  0.2614  0.3922 -0.2206
   89SAPC  H10R 8439   7.551   1.903   5.361  1.9343  0.2570 -0.8868
   89SAPC  H10S 8440   7.641   2.038   5.283 -1.5479  1.4807 -2.7668
   89SAPC  C211 8441   7.421   2.036   5.268 -0.4446  0.8401  0.7661
   89SAPC  H11R 8442   7.332   1.981   5.302 -1.5194  2.2727  0.3693
   89SAPC  C212 8443   7.419   2.112   5.155  0.4148  0.6559 -0.3372
   89SAPC  H12R 8444   7.323   2.127   5.105 -0.6967 -1.7504  0.8753
   89SAPC  C213 8445   7.532   2.181   5.084  0.1773 -0.2574 -0.8240
   89SAPC  H13R 8446   7.621   2.200   5.148 -1.2092  2.2361  0.5362
   89SAPC  H13S 8447   7.487   2.280   5.059 -2.2425 -1.6746 -2.5133
   89SAPC  C214 8448   7.563   2.098   4.962  0.8686  0.1398  0.5897
   89SAPC  H14R 8449   7.621   2.007   4.981  1.0262 -0.2650 -1.5761
   89SAPC  C215 8450   7.517   2.116   4.839 -0.2840 -0.0803 -0.1393
   89SAPC  H15R 8451   7.544   2.038   4.766  2.6641 -0.1296  0.8447
   89SAPC  C216 8452   7.425   2.227   4.784  0.3133  0.6990 -0.3404
   89SAPC  H16R 8453   7.459   2.265   4.685 -1.8179  1.5463 -0.7997
   89SAPC  H16S 8454   7.438   2.321   4.843  2.1477 -1.0149  2.2097
   89SAPC  C217 8455   7.275   2.193   4.771  0.1122 -0.1782 -0.3755
   89SAPC  H17R 8456   7.233   2.178   4.873 -1.4429  1.1426 -0.7819
   89SAPC  H17S 8457   7.254   2.096   4.721  0.1403 -0.0479 -0.6434
   89SAPC  C218 8458   7.185   2.302   4.705 -0.4254 -0.7615  0.7768
   89SAPC  H18R 8459   7.185   2.406   4.746 -2.6777 -0.2155 -0.4127
   89SAPC  H18S 8460   7.084   2.269   4.738 -1.3266  1.0689  0.0212
   89SAPC  C219 8461   7.176   2.306   4.552  0.3811 -0.5603 -0.1098
   89SAPC  H19R 8462   7.223   2.213   4.512  1.2843 -0.0791 -0.2103
   89SAPC  H19S 8463   7.250   2.381   4.517  0.6240 -0.9064 -0.3512
   89SAPC  C220 8464   7.034   2.322   4.498  0.2745 -0.4204  0.3495
   89SAPC  H20R 8465   6.998   2.220   4.473  1.7382 -0.7552 -0.5106
   89SAPC  H20S 8466   7.034   2.384   4.405  2.0836  0.5780  0.9790
   89SAPC  H20T 8467   6.976   2.371   4.579  0.6163  0.0938  0.2899
   89SAPC   C33 8468   6.932   1.244   5.660 -0.5956 -0.1802  0.0539
   89SAPC   H3X 8469   6.885   1.161   5.717  0.6635 -1.6769 -1.0320
   89SAPC   H3Y 8470   7.031   1.213   5.621  1.0413  2.2896  1.9117
   89SAPC   C34 8471   6.843   1.277   5.541  0.4302 -0.1347  0.7258
   89SAPC   H4X 8472   6.756   1.344   5.560  0.3302  0.2169 -0.8855
   89SAPC   H4Y 8473   6.804   1.178   5.507  1.4318  0.2315 -1.6685
   89SAPC   C35 8474   6.923   1.326   5.420  0.0200 -0.6575  0.1911
   89SAPC   H5X 8475   7.016   1.267   5.407  0.7423  0.6086 -0.6291
   89SAPC   H5Y 8476   6.959   1.430   5.437 -0.0200 -0.6800  0.4118
   89SAPC   C36 8477   6.847   1.306   5.286 -0.0967 -0.6094 -0.1446
   89SAPC   H6X 8478   6.742   1.342   5.286  0.5150  1.4534  2.0505
   89SAPC   H6Y 8479   6.831   1.196   5.286 -0.4409 -0.5583 -0.3966
   89SAPC   C37 8480   6.910   1.353   5.158  0.3718 -0.0891  0.8237
   89SAPC   H7X 8481   7.017   1.323   5.161  1.8997  4.5459  2.2764
   89SAPC   H7Y 8482   6.905   1.464   5.157 -0.5555 -0.1191  1.6285
   89SAPC   C38 8483   6.845   1.301   5.030 -0.2269 -0.0381 -0.7581
   89SAPC   H8X 8484   6.758   1.366   5.009  0.2389  0.8199 -0.0806
   89SAPC   H8Y 8485   6.818   1.193   5.034 -2.2312  0.4467 -0.1640
   89SAPC   C39 8486   6.935   1.318   4.910 -0.0957 -0.4003 -0.2720
   89SAPC   H9X 8487   7.021   1.251   4.927  0.1593 -0.0005  0.0311
   89SAPC   H9Y 8488   6.971   1.423   4.899 -1.3061  0.0223 -0.4251
   89SAPC  C310 8489   6.848   1.300   4.783 -0.5115  0.6786  0.2512
   89SAPC  H10X 8490   6.776   1.385   4.788 -1.4641 -0.1701  1.5772
   89SAPC  H10Y 8491   6.799   1.200   4.792  0.0297  0.5628  2.6044
   89SAPC  C311 8492   6.944   1.313   4.660 -0.2275 -0.4073  0.2865
   89SAPC  H11X 8493   6.897   1.271   4.568 -0.5175 -0.3042  0.3897
   89SAPC  H11Y 8494   7.037   1.254   4.677  0.6022  1.0533  1.0714
   89SAPC  C312 8495   6.983   1.463   4.645 -0.0939  0.7652  0.6685
   89SAPC  H12X 8496   7.010   1.507   4.744 -0.9457 -1.6053  2.0371
   89SAPC  H12Y 8497   6.895   1.524   4.613 -0.1207  1.1416  1.4237
   89SAPC  C313 8498   7.102   1.491   4.552 -0.0675 -0.3531 -0.4832
   89SAPC  H13X 8499   7.081   1.447   4.452 -0.7344  0.6927 -0.8204
   89SAPC  H13Y 8500   7.185   1.431   4.595 -0.0553 -0.8716 -1.2113
   89SAPC  C314 8501   7.138   1.638   4.531  0.1182 -0.0532 -0.4121
   89SAPC  H14X 8502   7.168   1.680   4.630  0.8890  3.3770 -1.9530
   89SAPC  H14Y 8503   7.057   1.706   4.497  0.9533 -0.1829 -2.8800
   89SAPC  C315 8504   7.265   1.665   4.454  0.0660 -0.1180  0.2358
   89SAPC  H15X 8505   7.248   1.640   4.347 -2.2020  1.3204  0.1951
   89SAPC  H15Y 8506   7.345   1.599   4.494 -0.6645 -0.3084  1.3986
   89SAPC  C316 8507   7.333   1.801   4.482  0.0340 -0.1180  0.6388
   89SAPC  H16X 8508   7.359   1.820   4.588  3.0922 -0.5372  0.0656
   89SAPC  H16Y 8509   7.268   1.885   4.447  2.4900  1.1670 -1.1588
   89SAPC  C317 8510   7.462   1.835   4.413  0.0113  0.2050 -0.5119
   89SAPC  H17X 8511   7.462   1.815   4.304  0.7071 -1.3117 -0.2646
   89SAPC  H17Y 8512   7.549   1.790   4.465  0.8725  2.2405 -0.0981
   89SAPC  C318 8513   7.492   1.987   4.428  0.3559 -1.0590  0.1829
   89SAPC  H18X 8514   7.597   2.017   4.407  0.6344 -1.7079  0.6100
   89SAPC  H18Y 8515   7.453   2.034   4.520 -1.9838  1.4616 -1.9438
   89SAPC  H18Z 8516   7.437   2.036   4.345  0.7498 -0.4730  0.2630
   90SAPC     N 8517   4.115   4.032   6.748  0.4308  0.6810  0.7199
   90SAPC   C12 8518   3.979   4.034   6.681  0.3742  0.2256 -0.0754
   90SAPC  H12A 8519   3.906   4.005   6.754  1.0372 -1.6342 -0.1148
   90SAPC  H12B 8520   3.984   3.951   6.612 -0.1051 -0.7749  1.0576
   90SAPC   C13 8521   4.129   3.893   6.790  0.0163 -0.1873  0.0323
   90SAPC  H13A 8522   4.053   3.856   6.858  1.0396 -2.2207  0.1535
   90SAPC  H13B 8523   4.111   3.828   6.705  2.7706 -1.0818  0.0359
   90SAPC  H13C 8524   4.225   3.863   6.829 -1.2178 -0.8642  2.8067
   90SAPC   C14 8525   4.225   4.061   6.644  0.8803 -0.7714 -0.3232
   90SAPC  H14A 8526   4.327   4.070   6.677  0.8858 -1.9588  0.0246
   90SAPC  H14B 8527   4.229   3.997   6.558 -0.0326 -0.6774 -0.4422
   90SAPC  H14C 8528   4.202   4.154   6.593 -0.0151 -0.9010 -0.1732
   90SAPC   C15 8529   4.126   4.121   6.869 -0.3265  0.7669  0.6857
   90SAPC  H15A 8530   4.226   4.112   6.907  0.0266 -0.3016 -0.4270
   90SAPC  H15B 8531   4.130   4.223   6.832  0.2235 -0.0293 -1.6423
   90SAPC  H15C 8532   4.048   4.104   6.942 -2.0551  0.1352 -1.1970
   90SAPC   C11 8533   3.926   4.168   6.615 -0.0503 -0.1461  0.2867
   90SAPC  H11A 8534   3.837   4.135   6.557 -1.0745  1.6994  0.7319
   90SAPC  H11B 8535   4.001   4.196   6.538 -1.0210  0.6095 -0.4184
   90SAPC     P 8536   3.955   4.415   6.690 -0.0663 -0.4350  0.1636
   90SAPC   O13 8537   3.898   4.486   6.810  0.1061  0.3210 -0.0525
   90SAPC   O14 8538   4.106   4.426   6.662  0.4314 -0.0072  0.0733
   90SAPC   O12 8539   3.904   4.265   6.712 -0.0692  0.1759 -0.0693
   90SAPC   O11 8540   3.877   4.455   6.564 -0.2410 -0.4392 -0.3783
   90SAPC    C1 8541   3.747   4.514   6.568 -0.5614  0.1259  0.7267
   90SAPC    HA 8542   3.676   4.435   6.600 -0.2412 -1.0376 -1.2877
   90SAPC    HB 8543   3.753   4.600   6.638 -0.3802  0.3816  0.4069
   90SAPC    C2 8544   3.716   4.568   6.428 -0.5134 -0.6114 -0.2704
   90SAPC    HS 8545   3.611   4.605   6.423  0.0193  1.3507  1.5869
   90SAPC   O21 8546   3.752   4.472   6.325 -1.0680 -0.2734  0.0604
   90SAPC   C21 8547   3.684   4.366   6.314 -0.9090  0.4736 -0.8522
   90SAPC   O22 8548   3.584   4.342   6.373 -0.1083 -0.5705 -0.5880
   90SAPC   C22 8549   3.751   4.277   6.206  0.2765  0.1196  0.2363
   90SAPC   H2R 8550   3.788   4.348   6.129 -0.7304  1.0459  0.5706
   90SAPC   H2S 8551   3.840   4.214   6.226 -0.1368 -1.5687 -2.6612
   90SAPC    C3 8552   3.805   4.701   6.401  0.6439  0.3219 -0.4017
   90SAPC    HX 8553   3.913   4.677   6.415  0.9553  2.3170  1.1133
   90SAPC    HY 8554   3.776   4.788   6.464 -0.4667  0.1579 -0.6690
   90SAPC   O31 8555   3.803   4.736   6.263  0.1212 -0.4734  0.0385
   90SAPC   C31 8556   3.694   4.800   6.219 -0.6549  0.5281 -0.2542
   90SAPC   O32 8557   3.616   4.853   6.293  0.0781  0.0052 -0.3250
   90SAPC   C32 8558   3.688   4.785   6.071 -0.7058  0.6415  0.0039
   90SAPC   H2X 8559   3.768   4.848   6.026 -0.5213 -1.9622 -3.7763
   90SAPC   H2Y 8560   3.593   4.831   6.035 -0.2781  0.7744 -0.9906
   90SAPC   C23 8561   3.651   4.181   6.133  0.1170  0.2346  0.0356
   90SAPC   H3R 8562   3.563   4.234   6.091 -1.3661 -0.5894  1.9614
   90SAPC   H3S 8563   3.614   4.105   6.206 -0.8076 -1.2582 -1.8749
   90SAPC   C24 8564   3.720   4.083   6.031  0.3269 -0.5112  0.5075
   90SAPC   H4R 8565   3.670   3.984   6.035 -0.5911 -0.1347 -0.9580
   90SAPC   H4S 8566   3.825   4.069   6.066  0.9548  1.6443 -0.2884
   90SAPC   C25 8567   3.726   4.147   5.894 -0.2655  0.1607 -0.1017
   90SAPC   H5R 8568   3.796   4.228   5.873  0.0357  0.6090  2.3820
   90SAPC   C26 8569   3.647   4.106   5.790  0.3520  0.2706 -0.5093
   90SAPC   H6R 8570   3.666   4.146   5.690 -1.4229 -0.7040 -1.2732
   90SAPC   C27 8571   3.551   3.997   5.819 -0.4340  0.9322  0.3291
   90SAPC   H7R 8572   3.500   4.013   5.916  0.7877 -0.1834  1.1882
   90SAPC   H7S 8573   3.617   3.909   5.829  0.5955  1.8559  2.2176
   90SAPC   C28 8574   3.447   3.974   5.716  1.1078 -0.2160 -0.3758
   90SAPC   H8R 8575   3.349   4.003   5.758  1.6747  1.2238  0.0075
   90SAPC   C29 8576   3.454   3.889   5.611  0.1163  0.5095 -0.0739
   90SAPC   H9R 8577   3.373   3.880   5.537  0.1561 -0.4743 -0.0097
   90SAPC  C210 8578   3.581   3.818   5.567  0.1092 -0.4243 -0.1895
   90SAPC  H10R 8579   3.576   3.710   5.593 -2.0139 -0.4867 -0.7218
   90SAPC  H10S 8580   3.672   3.863   5.613  0.5993  1.3619 -2.6767
   90SAPC  C211 8581   3.576   3.820   5.409 -0.2035  0.1375  0.1333
   90SAPC  H11R 8582   3.486   3.773   5.367 -0.2852 -0.5177  1.0061
   90SAPC  C212 8583   3.678   3.878   5.336 -0.0062  0.5115 -0.3942
   90SAPC  H12R 8584   3.680   3.862   5.227 -1.3001  0.7200 -0.4638
   90SAPC  C213 8585   3.783   3.970   5.395  0.0076 -0.3154  0.0945
   90SAPC  H13R 8586   3.859   3.904   5.442 -0.9773  0.2719  2.7181
   90SAPC  H13S 8587   3.741   4.013   5.489  1.0266 -1.6448  1.1976
   90SAPC  C214 8588   3.828   4.090   5.319  0.5693 -0.1058  0.1402
   90SAPC  H14R 8589   3.787   4.186   5.353  3.6081  0.7125  1.8715
   90SAPC  C215 8590   3.899   4.092   5.205 -0.1380  0.2532 -0.4127
   90SAPC  H15R 8591   3.921   4.189   5.158  0.5733  1.1276  1.6068
   90SAPC  C216 8592   3.975   3.975   5.152 -0.0786 -1.0161  0.2040
   90SAPC  H16R 8593   3.894   3.904   5.123 -1.1553  0.9468 -1.9526
   90SAPC  H16S 8594   4.043   3.934   5.230 -0.5296  0.5081  1.4322
   90SAPC  C217 8595   4.044   4.015   5.015  0.1581 -0.0442 -1.1228
   90SAPC  H17R 8596   4.123   4.093   5.016  0.3044 -0.1092  1.6919
   90SAPC  H17S 8597   3.969   4.048   4.940 -0.1644  1.0477 -0.3408
   90SAPC  C218 8598   4.096   3.888   4.953 -1.0474  0.2943  0.7685
   90SAPC  H18R 8599   4.015   3.822   4.916 -1.9372 -0.0928  3.1905
   90SAPC  H18S 8600   4.158   3.827   5.023 -0.2065  0.7624  0.4527
   90SAPC  C219 8601   4.176   3.904   4.822  0.1539 -0.2334  0.1905
   90SAPC  H19R 8602   4.104   3.965   4.762  0.1088  0.6412  1.1054
   90SAPC  H19S 8603   4.193   3.811   4.763 -2.3174 -0.3242 -0.4981
   90SAPC  C220 8604   4.312   3.959   4.847 -0.3234  0.5503  0.3006
   90SAPC  H20R 8605   4.391   3.881   4.851 -1.4204 -0.5517  1.2727
   90SAPC  H20S 8606   4.310   4.015   4.943  0.7970  1.1506 -0.0063
   90SAPC  H20T 8607   4.353   4.016   4.760  0.6480 -1.0297 -0.3208
   90SAPC   C33 8608   3.691   4.639   6.018 -0.0401  0.3403 -0.3223
   90SAPC   H3X 8609   3.606   4.585   6.065  0.8619 -0.5935  0.2973
   90SAPC   H3Y 8610   3.788   4.593   6.046 -1.0843 -1.8195 -0.0500
   90SAPC   C34 8611   3.673   4.626   5.868  0.3109 -0.6938 -1.0350
   90SAPC   H4X 8612   3.766   4.654   5.815 -0.2728  0.4594 -1.4937
   90SAPC   H4Y 8613   3.602   4.709   5.848 -0.0764 -0.4212  1.1693
   90SAPC   C35 8614   3.604   4.503   5.815  0.4618  0.1476 -0.4133
   90SAPC   H5X 8615   3.517   4.482   5.880 -0.1607  0.7145 -1.0571
   90SAPC   H5Y 8616   3.675   4.418   5.803  1.0455  0.4379  0.7599
   90SAPC   C36 8617   3.541   4.531   5.676 -0.2814  0.1273  0.4492
   90SAPC   H6X 8618   3.501   4.634   5.667  0.1023  0.0633 -3.6567
   90SAPC   H6Y 8619   3.462   4.458   5.647 -1.5687  1.8555 -0.5806
   90SAPC   C37 8620   3.655   4.515   5.570  0.0137  0.2454 -0.5051
   90SAPC   H7X 8621   3.707   4.417   5.581  0.2902  0.6094  2.5312
   90SAPC   H7Y 8622   3.732   4.593   5.589 -0.3459  0.7030 -0.9075
   90SAPC   C38 8623   3.607   4.554   5.430  0.8292  0.2572  0.2569
   90SAPC   H8X 8624   3.604   4.665   5.432 -0.6014  0.2418  1.8752
   90SAPC   H8Y 8625   3.501   4.523   5.415  1.0220 -1.2457  1.6376
   90SAPC   C39 8626   3.697   4.490   5.325 -0.0629 -0.4869 -0.4171
   90SAPC   H9X 8627   3.708   4.380   5.329  0.6278 -0.5356 -2.3355
   90SAPC   H9Y 8628   3.799   4.533   5.329 -0.0804 -0.4455 -0.4100
   90SAPC  C310 8629   3.643   4.505   5.181 -0.2542 -0.2319  0.3653
   90SAPC  H10X 8630   3.619   4.611   5.156  2.3667  0.4010  0.2077
   90SAPC  H10Y 8631   3.547   4.450   5.175  0.3349 -1.1209 -2.0832
   90SAPC  C311 8632   3.747   4.442   5.083 -0.3163  0.3098 -0.1642
   90SAPC  H11X 8633   3.788   4.355   5.138  1.8566  1.6474  0.5101
   90SAPC  H11Y 8634   3.838   4.507   5.078  0.4503 -0.8538 -3.3513
   90SAPC  C312 8635   3.694   4.418   4.942 -0.6731  0.0870  0.0312
   90SAPC  H12X 8636   3.778   4.400   4.871 -0.1898  2.1613  0.0279
   90SAPC  H12Y 8637   3.639   4.508   4.907 -0.6506  0.3022  0.5413
   90SAPC  C313 8638   3.594   4.310   4.930  0.8752  0.0426 -0.7294
   90SAPC  H13X 8639   3.547   4.315   4.829 -0.4629  0.9030 -0.0985
   90SAPC  H13Y 8640   3.512   4.333   5.002  2.0706  0.4795  0.5297
   90SAPC  C314 8641   3.659   4.171   4.955 -0.4796 -0.1851  0.3034
   90SAPC  H14X 8642   3.699   4.167   5.059 -1.1921  1.5901  0.6845
   90SAPC  H14Y 8643   3.755   4.172   4.898  1.2694 -0.2371  3.0282
   90SAPC  C315 8644   3.574   4.047   4.928 -0.0194  0.2415 -0.6961
   90SAPC  H15X 8645   3.490   4.056   5.000 -0.9779  2.1617 -1.9653
   90SAPC  H15Y 8646   3.633   3.954   4.940 -0.6119 -0.1313 -0.6298
   90SAPC  C316 8647   3.519   4.031   4.785  0.5566 -0.1062 -0.6418
   90SAPC  H16X 8648   3.594   4.064   4.710 -0.3613  2.4816 -0.5299
   90SAPC  H16Y 8649   3.435   4.101   4.767  1.2602  0.8931 -0.1449
   90SAPC  C317 8650   3.446   3.896   4.756 -0.2381 -0.4075 -0.2857
   90SAPC  H17X 8651   3.380   3.866   4.840 -1.6898  0.8549 -0.9436
   90SAPC  H17Y 8652   3.527   3.820   4.769  2.6938  2.7910  2.4044
   90SAPC  C318 8653   3.378   3.878   4.630  0.6023 -0.5132  0.3595
   90SAPC  H18X 8654   3.331   3.778   4.614 -1.1788  0.7330 -3.2419
   90SAPC  H18Y 8655   3.443   3.912   4.547 -0.3827  1.2217  0.2638
   90SAPC  H18Z 8656   3.289   3.944   4.628  0.1748 -1.0735  0.4307
   91SAPC     N 8657   1.303   4.113   7.221 -0.3089  0.0830  0.2649
   91SAPC   C12 8658   1.376   4.238   7.170  0.4753  0.0100 -0.6074
   91SAPC  H12A 8659   1.478   4.235   7.206  1.1538  3.0228 -1.8669
   91SAPC  H12B 8660   1.344   4.328   7.221  1.3558  1.8562 -3.0605
   91SAPC   C13 8661   1.353   3.985   7.156  0.5350  1.6815  0.0175
   91SAPC  H13A 8662   1.291   3.912   7.206  2.0610  1.0471  1.0385
   91SAPC  H13B 8663   1.338   3.973   7.049  2.3795 -0.5918 -0.0397
   91SAPC  H13C 8664   1.452   3.958   7.187 -0.0432  0.3887  0.7809
   91SAPC   C14 8665   1.321   4.095   7.370  0.2267 -0.6328 -0.8004
   91SAPC  H14A 8666   1.426   4.085   7.394  0.4170 -1.2395 -1.7908
   91SAPC  H14B 8667   1.270   4.177   7.419 -0.2690 -1.3664 -0.0602
   91SAPC  H14C 8668   1.279   4.007   7.416 -2.1021  0.8982  0.1783
   91SAPC   C15 8669   1.150   4.139   7.195 -0.5596 -0.4315 -0.0111
   91SAPC  H15A 8670   1.117   4.167   7.096 -3.7969 -1.9264  0.5111
   91SAPC  H15B 8671   1.111   4.041   7.218  1.1720 -0.9767  0.8324
   91SAPC  H15C 8672   1.120   4.212   7.269  1.3394 -1.0607  1.4637
   91SAPC   C11 8673   1.397   4.271   7.014  0.0308  0.2298  0.4558
   91SAPC  H11A 8674   1.463   4.198   6.963  2.9374  1.6108  1.9671
   91SAPC  H11B 8675   1.451   4.369   7.013 -2.3873  1.6355  0.8912
   91SAPC     P 8676   1.175   4.403   6.978  0.2924  0.0626 -0.4384
   91SAPC   O13 8677   1.040   4.350   6.981 -0.0654 -0.1384 -0.0202
   91SAPC   O14 8678   1.221   4.490   7.090  0.3510 -0.7310 -0.2254
   91SAPC   O12 8679   1.270   4.281   6.951 -0.5545 -0.0046 -0.5458
   91SAPC   O11 8680   1.174   4.484   6.839 -0.0977 -0.3160 -1.0111
   91SAPC    C1 8681   1.297   4.491   6.765  0.4861  0.3081 -0.2501
   91SAPC    HA 8682   1.371   4.537   6.834 -0.9171 -0.2132  1.6889
   91SAPC    HB 8683   1.333   4.387   6.750  0.9115  0.6410 -1.7238
   91SAPC    C2 8684   1.276   4.562   6.630  0.2688 -0.2811 -0.1041
   91SAPC    HS 8685   1.202   4.502   6.573 -0.6536 -0.8446  1.6077
   91SAPC   O21 8686   1.400   4.577   6.562 -0.0127 -0.0884 -0.0617
   91SAPC   C21 8687   1.437   4.477   6.486  0.4116 -0.4818  0.1619
   91SAPC   O22 8688   1.376   4.376   6.468  0.2881 -0.4439  0.0425
   91SAPC   C22 8689   1.573   4.511   6.417 -0.2013  0.4974 -0.3917
   91SAPC   H2R 8690   1.567   4.616   6.381  1.5428  0.0542 -2.1657
   91SAPC   H2S 8691   1.646   4.503   6.501  0.9507 -0.2406 -1.4180
   91SAPC    C3 8692   1.223   4.706   6.647  0.5226  0.1269  0.7709
   91SAPC    HX 8693   1.274   4.752   6.734 -1.4194  0.3568  1.8605
   91SAPC    HY 8694   1.117   4.700   6.682  0.0461  1.8187 -0.2312
   91SAPC   O31 8695   1.222   4.784   6.523  0.2528 -0.1359 -0.1871
   91SAPC   C31 8696   1.155   4.742   6.416 -0.6817  0.4691  0.2216
   91SAPC   O32 8697   1.098   4.633   6.400 -0.6907  0.9147 -0.6662
   91SAPC   C32 8698   1.166   4.847   6.307 -0.4847  0.8925  0.1741
   91SAPC   H2X 8699   1.254   4.916   6.312  0.2203 -0.0834  2.3236
   91SAPC   H2Y 8700   1.086   4.917   6.340 -1.6626 -1.0327  1.5503
   91SAPC   C23 8701   1.609   4.422   6.295  0.4522  0.0829  0.6796
   91SAPC   H3R 8702   1.535   4.431   6.212  1.5484  1.3375 -0.2069
   91SAPC   H3S 8703   1.606   4.315   6.323 -1.8274  0.1395  0.8662
   91SAPC   C24 8704   1.752   4.461   6.249  0.4776  0.4143  0.3669
   91SAPC   H4R 8705   1.787   4.373   6.190 -3.2025 -0.5428 -0.6667
   91SAPC   H4S 8706   1.809   4.466   6.344  1.3760 -0.4825 -0.1039
   91SAPC   C25 8707   1.766   4.597   6.184 -0.1879  0.3484 -0.1976
   91SAPC   H5R 8708   1.782   4.684   6.249  0.5322 -0.0389  0.1493
   91SAPC   C26 8709   1.766   4.628   6.056  0.0511  0.2930 -0.4504
   91SAPC   H6R 8710   1.785   4.731   6.025 -0.6836 -0.1908 -2.6877
   91SAPC   C27 8711   1.746   4.532   5.939  0.8909  0.9984 -0.4366
   91SAPC   H7R 8712   1.638   4.508   5.930  0.7934 -1.1458  3.6837
   91SAPC   H7S 8713   1.786   4.430   5.957 -0.3728  0.6451  0.5699
   91SAPC   C28 8714   1.815   4.594   5.812 -0.1960 -0.4448 -0.4412
   91SAPC   H8R 8715   1.907   4.652   5.827 -0.2687 -0.5117  0.2954
   91SAPC   C29 8716   1.765   4.580   5.688 -0.3279  0.1661  1.4609
   91SAPC   H9R 8717   1.810   4.627   5.599  0.9414  0.0436  2.0123
   91SAPC  C210 8718   1.646   4.492   5.659  0.0574  0.3772  0.6542
   91SAPC  H10R 8719   1.615   4.430   5.746  2.4713 -3.3419 -0.8628
   91SAPC  H10S 8720   1.673   4.420   5.578 -1.6945  1.9950 -1.4958
   91SAPC  C211 8721   1.523   4.557   5.605 -0.3365 -0.2353 -0.4609
   91SAPC  H11R 8722   1.471   4.611   5.686 -1.1750 -1.6500 -0.0332
   91SAPC  C212 8723   1.471   4.569   5.482  0.5132 -0.1729 -0.3595
   91SAPC  H12R 8724   1.388   4.638   5.462  1.8444  1.9930  1.1118
   91SAPC  C213 8725   1.533   4.513   5.356  0.0730  0.2585  0.4792
   91SAPC  H13R 8726   1.603   4.427   5.364 -0.3510 -0.2969 -1.2651
   91SAPC  H13S 8727   1.581   4.598   5.303 -0.8308  0.9634  0.7617
   91SAPC  C214 8728   1.422   4.455   5.271 -0.4121  0.1797 -0.1576
   91SAPC  H14R 8729   1.322   4.445   5.314 -0.4072  0.3899 -0.1004
   91SAPC  C215 8730   1.449   4.415   5.144  1.1608  0.3076  0.3073
   91SAPC  H15R 8731   1.364   4.372   5.090  1.0147 -0.5775  1.2070
   91SAPC  C216 8732   1.574   4.427   5.062  0.5268  0.3117 -0.3982
   91SAPC  H16R 8733   1.610   4.322   5.060 -2.6570 -0.8711 -1.3676
   91SAPC  H16S 8734   1.657   4.490   5.101  0.8619 -0.1398 -0.3730
   91SAPC  C217 8735   1.546   4.479   4.917  0.7279 -0.5112 -0.2510
   91SAPC  H17R 8736   1.509   4.583   4.930  2.4402  0.2239 -0.9629
   91SAPC  H17S 8737   1.470   4.418   4.862 -0.0208  0.9781 -0.9254
   91SAPC  C218 8738   1.675   4.480   4.832 -0.1202  0.1896  0.6969
   91SAPC  H18R 8739   1.747   4.548   4.882 -1.4474  1.4378  0.9732
   91SAPC  H18S 8740   1.658   4.532   4.735  1.7528  0.1262  0.2896
   91SAPC  C219 8741   1.744   4.346   4.811  0.3539  0.2399 -0.6205
   91SAPC  H19R 8742   1.706   4.298   4.718  1.2413 -0.0228 -0.8609
   91SAPC  H19S 8743   1.720   4.277   4.894 -0.7287  2.7105  1.2262
   91SAPC  C220 8744   1.898   4.347   4.795  0.3625  0.2316 -1.0056
   91SAPC  H20R 8745   1.913   4.240   4.770 -1.1844 -0.1087 -0.5443
   91SAPC  H20S 8746   1.941   4.364   4.896 -0.9217  0.8136 -0.5435
   91SAPC  H20T 8747   1.941   4.423   4.726  2.1889 -0.2175 -0.4152
   91SAPC   C33 8748   1.153   4.792   6.157 -0.0804  0.3663 -0.0964
   91SAPC   H3X 8749   1.109   4.690   6.159 -0.0268  0.3467  0.0350
   91SAPC   H3Y 8750   1.251   4.772   6.108 -0.1009  0.2726 -0.0996
   91SAPC   C34 8751   1.080   4.882   6.070 -0.1257 -0.2364 -0.3029
   91SAPC   H4X 8752   1.139   4.974   6.049 -1.5805  1.1739  1.5384
   91SAPC   H4Y 8753   0.990   4.918   6.123 -0.7841 -1.8161 -0.3208
   91SAPC   C35 8754   1.040   4.818   5.942  0.3133  0.7014  0.0725
   91SAPC   H5X 8755   0.948   4.758   5.952 -0.4399  1.8805  0.3450
   91SAPC   H5Y 8756   1.125   4.749   5.919  0.3499  0.5447  0.6530
   91SAPC   C36 8757   1.027   4.914   5.822 -0.1215  0.1105 -0.3052
   91SAPC   H6X 8758   1.111   4.987   5.821  1.0833 -1.2205  0.0557
   91SAPC   H6Y 8759   0.926   4.958   5.810  0.4514  1.5237 -0.1769
   91SAPC   C37 8760   1.051   4.832   5.692  0.1599 -0.6514 -0.2399
   91SAPC   H7X 8761   0.979   4.747   5.690 -1.7036  0.8409 -0.1564
   91SAPC   H7Y 8762   1.151   4.784   5.700 -0.2848 -1.3474  1.7342
   91SAPC   C38 8763   1.040   4.913   5.562  0.6537  0.0252 -0.5884
   91SAPC   H8X 8764   1.094   5.008   5.583  2.5834 -1.0880 -0.2433
   91SAPC   H8Y 8765   0.932   4.937   5.557  0.7213  0.2741 -0.8655
   91SAPC   C39 8766   1.092   4.845   5.435  0.9409  0.8047  0.2178
   91SAPC   H9X 8767   1.049   4.743   5.425 -0.8539  1.5972 -0.5394
   91SAPC   H9Y 8768   1.198   4.819   5.457  0.8057 -0.8996 -0.8782
   91SAPC  C310 8769   1.080   4.937   5.311 -0.8271  0.2795  0.1001
   91SAPC  H10X 8770   1.116   5.038   5.338 -0.3773  0.3531 -0.7351
   91SAPC  H10Y 8771   0.971   4.938   5.288 -0.9777  1.1844  0.8143
   91SAPC  C311 8772   1.151   4.888   5.178 -0.1222  0.5173  0.4811
   91SAPC  H11X 8773   1.088   4.807   5.136  0.6648  0.1798 -0.0781
   91SAPC  H11Y 8774   1.248   4.836   5.194 -0.3754  0.8488  3.7233
   91SAPC  C312 8775   1.148   4.993   5.067  0.0242  0.5340  0.1444
   91SAPC  H12X 8776   1.227   5.067   5.092  0.3006  0.0673  0.6853
   91SAPC  H12Y 8777   1.043   5.027   5.076 -0.8294 -2.2253  1.8614
   91SAPC  C313 8778   1.178   4.933   4.930 -0.0268 -0.2693  0.8316
   91SAPC  H13X 8779   1.084   4.892   4.886  0.7036 -3.0997  1.6729
   91SAPC  H13Y 8780   1.238   4.839   4.935  0.0392 -0.3220 -0.5319
   91SAPC  C314 8781   1.235   5.035   4.827 -0.3016 -0.3560  0.1930
   91SAPC  H14X 8782   1.267   4.973   4.740  1.6109  0.6815  0.1215
   91SAPC  H14Y 8783   1.322   5.088   4.870  0.7790 -2.1984  0.3703
   91SAPC  C315 8784   1.140   5.136   4.759 -0.0359  0.3454  0.9832
   91SAPC  H15X 8785   1.107   5.208   4.836 -1.5513 -1.1327  1.8003
   91SAPC  H15Y 8786   1.049   5.092   4.711  0.5751  1.5355 -1.3776
   91SAPC  C316 8787   1.211   5.223   4.651  0.2556  0.4769 -0.5337
   91SAPC  H16X 8788   1.319   5.226   4.678  0.5017  0.1824 -1.4421
   91SAPC  H16Y 8789   1.173   5.328   4.649 -0.6534  0.2269  1.3686
   91SAPC  C317 8790   1.187   5.182   4.509 -0.2196  0.0780  0.9965
   91SAPC  H17X 8791   1.082   5.201   4.481 -0.4736 -2.9264 -0.4579
   91SAPC  H17Y 8792   1.203   5.072   4.510 -0.4873  0.0001 -0.6501
   91SAPC  C318 8793   1.280   5.248   4.400 -0.5841  1.0158 -0.0517
   91SAPC  H18X 8794   1.378   5.197   4.409 -0.5139  1.1215 -0.2075
   91SAPC  H18Y 8795   1.297   5.355   4.422 -3.3102  1.5115  0.0408
   91SAPC  H18Z 8796   1.229   5.227   4.303 -1.0181 -3.4669  0.9181
   92SAPC     N 8797   5.609   2.268   6.694 -0.5118  0.0233 -0.6705
   92SAPC   C12 8798   5.483   2.347   6.685  0.1846  0.3719 -0.2411
   92SAPC  H12A 8799   5.508   2.441   6.733  1.4343 -0.8458  1.6259
   92SAPC  H12B 8800   5.405   2.298   6.742  0.0624  0.8383  0.0018
   92SAPC   C13 8801   5.726   2.329   6.618 -0.3256  0.0089 -0.5161
   92SAPC  H13A 8802   5.701   2.344   6.514  1.5005  1.4219 -0.8136
   92SAPC  H13B 8803   5.732   2.430   6.656 -0.5236  0.0682 -0.6413
   92SAPC  H13C 8804   5.817   2.272   6.631 -1.1873 -1.5031 -0.8757
   92SAPC   C14 8805   5.668   2.268   6.836 -0.0403 -0.3999  0.3677
   92SAPC  H14A 8806   5.761   2.215   6.845 -0.5588 -1.7507 -1.5100
   92SAPC  H14B 8807   5.666   2.365   6.884  0.5776 -0.3689  0.3370
   92SAPC  H14C 8808   5.596   2.221   6.902  1.8233 -0.4811  2.4680
   92SAPC   C15 8809   5.598   2.129   6.653 -0.2476  0.3890  0.0674
   92SAPC  H15A 8810   5.567   2.135   6.550  0.6147  0.6235 -0.1874
   92SAPC  H15B 8811   5.692   2.075   6.650 -0.6326 -0.2481 -1.4418
   92SAPC  H15C 8812   5.526   2.070   6.708  1.2187 -2.0371 -0.4387
   92SAPC   C11 8813   5.435   2.360   6.545 -0.4347  0.3823 -0.2096
   92SAPC  H11A 8814   5.509   2.407   6.477 -1.8832  2.4944 -0.4243
   92SAPC  H11B 8815   5.357   2.439   6.535 -0.3413  0.6431  0.9444
   92SAPC     P 8816   5.245   2.191   6.554 -0.0823 -0.0977  0.7959
   92SAPC   O13 8817   5.280   2.129   6.685 -0.0241 -0.2102 -0.1866
   92SAPC   O14 8818   5.141   2.295   6.544  0.2358 -0.2711 -0.7154
   92SAPC   O12 8819   5.372   2.243   6.490  0.1904  0.3842 -0.2583
   92SAPC   O11 8820   5.204   2.080   6.456  0.0340  0.5490  0.7888
   92SAPC    C1 8821   5.297   2.003   6.372 -0.6263  0.2689 -0.5016
   92SAPC    HA 8822   5.398   2.004   6.418 -0.8927  2.8527  0.1759
   92SAPC    HB 8823   5.257   1.900   6.372 -1.9510  0.7580  0.3909
   92SAPC    C2 8824   5.300   2.036   6.221 -0.3268  0.1377 -0.9329
   92SAPC    HS 8825   5.348   1.956   6.161 -1.5741  0.2698 -2.1662
   92SAPC   O21 8826   5.369   2.157   6.208  0.4031  0.1201  0.1647
   92SAPC   C21 8827   5.504   2.164   6.241 -0.2300  0.2334  0.0384
   92SAPC   O22 8828   5.567   2.075   6.293 -0.1307  0.0126 -0.2074
   92SAPC   C22 8829   5.568   2.293   6.176  0.3295  0.1576 -0.1534
   92SAPC   H2R 8830   5.512   2.335   6.089  0.1398  3.0225  1.2377
   92SAPC   H2S 8831   5.561   2.360   6.264  0.2685 -1.6270  1.2516
   92SAPC    C3 8832   5.166   2.055   6.146  0.0350  0.0053  0.5552
   92SAPC    HX 8833   5.119   2.148   6.184  0.5223 -0.6233  2.8943
   92SAPC    HY 8834   5.104   1.972   6.186 -0.7722  0.4941  0.3331
   92SAPC   O31 8835   5.184   2.048   6.010  0.3752 -0.4735  0.4200
   92SAPC   C31 8836   5.073   2.072   5.934 -0.2540  0.0672 -0.3486
   92SAPC   O32 8837   4.966   2.094   5.988 -0.2534 -1.0581  0.1623
   92SAPC   C32 8838   5.114   2.086   5.792  0.5018 -0.0205 -0.1775
   92SAPC   H2X 8839   5.040   2.054   5.717  2.1201  1.3762 -2.4991
   92SAPC   H2Y 8840   5.206   2.026   5.773  2.3558  2.8865 -1.1424
   92SAPC   C23 8841   5.721   2.280   6.131 -0.1568  0.2553 -0.4633
   92SAPC   H3R 8842   5.729   2.203   6.051  2.7071  0.8372 -0.8563
   92SAPC   H3S 8843   5.774   2.240   6.220 -0.9060 -0.6253 -0.3953
   92SAPC   C24 8844   5.771   2.421   6.073 -0.8485 -0.0467  0.3006
   92SAPC   H4R 8845   5.718   2.501   6.129  1.3545  2.2384 -0.6792
   92SAPC   H4S 8846   5.723   2.417   5.973 -1.2339  0.0678  0.4802
   92SAPC   C25 8847   5.924   2.436   6.071 -0.3656  0.0834 -0.8913
   92SAPC   H5R 8848   5.976   2.366   6.138 -1.6745 -0.2146 -0.1690
   92SAPC   C26 8849   5.999   2.487   5.977 -0.3166 -0.4335  0.3211
   92SAPC   H6R 8850   6.109   2.484   5.985 -0.2916  1.3513  1.2361
   92SAPC   C27 8851   5.945   2.560   5.851 -0.0710  0.2268 -0.1734
   92SAPC   H7R 8852   5.977   2.667   5.847  0.1920  0.1625  0.1468
   92SAPC   H7S 8853   5.834   2.566   5.845 -0.0415  0.9479 -0.0897
   92SAPC   C28 8854   5.983   2.504   5.719 -0.2696  0.1630  0.7250
   92SAPC   H8R 8855   5.984   2.394   5.718  1.3793  0.0703 -3.0377
   92SAPC   C29 8856   6.006   2.575   5.609  0.3722 -0.1591  0.5446
   92SAPC   H9R 8857   6.038   2.525   5.516 -0.5143 -2.1283  1.2634
   92SAPC  C210 8858   6.018   2.725   5.602 -0.1013 -0.3543 -0.2171
   92SAPC  H10R 8859   5.940   2.776   5.663 -0.8889 -1.5664 -0.1778
   92SAPC  H10S 8860   5.994   2.755   5.498 -1.6151  0.6287  0.3863
   92SAPC  C211 8861   6.153   2.773   5.633 -0.3580 -0.4230 -0.2595
   92SAPC  H11R 8862   6.174   2.806   5.735 -1.0020  0.1592 -0.3046
   92SAPC  C212 8863   6.259   2.778   5.550 -0.8243  0.8503 -0.3182
   92SAPC  H12R 8864   6.353   2.818   5.591  0.6696 -2.8615  0.3035
   92SAPC  C213 8865   6.285   2.730   5.409  0.4759  0.1523  0.2434
   92SAPC  H13R 8866   6.208   2.655   5.381  2.1092 -0.3746 -3.5063
   92SAPC  H13S 8867   6.379   2.671   5.402  1.4645  1.5911  0.9451
   92SAPC  C214 8868   6.272   2.842   5.310  0.0638 -0.4909  0.1582
   92SAPC  H14R 8869   6.192   2.913   5.333  0.5445 -0.1784  0.9006
   92SAPC  C215 8870   6.338   2.864   5.198  0.4557  0.2643  0.5080
   92SAPC  H15R 8871   6.325   2.964   5.153 -1.5921  1.0704  2.6660
   92SAPC  C216 8872   6.438   2.765   5.138 -0.4106 -0.1149  0.1812
   92SAPC  H16R 8873   6.439   2.661   5.176  2.0591 -0.6251 -1.0932
   92SAPC  H16S 8874   6.539   2.809   5.151 -0.6590  0.8079 -0.8633
   92SAPC  C217 8875   6.422   2.769   4.981  0.2792  0.2123  0.1323
   92SAPC  H17R 8876   6.457   2.870   4.951  1.7123 -0.2042  0.2898
   92SAPC  H17S 8877   6.314   2.769   4.958  0.1534  0.0044  0.7076
   92SAPC  C218 8878   6.512   2.669   4.908  0.1269  0.0630  0.4972
   92SAPC  H18R 8879   6.458   2.573   4.914 -1.0729  0.5284 -1.6996
   92SAPC  H18S 8880   6.609   2.668   4.961 -0.3799  0.2531  1.4379
   92SAPC  C219 8881   6.551   2.724   4.768  0.2050  0.0755 -0.3022
   92SAPC  H19R 8882   6.633   2.661   4.727  1.6338  1.3958  0.4588
   92SAPC  H19S 8883   6.595   2.824   4.785  1.9383 -1.0738  2.8569
   92SAPC  C220 8884   6.441   2.717   4.672 -0.2556 -0.6388  0.9202
   92SAPC  H20R 8885   6.463   2.770   4.577 -1.7706 -0.5321  0.6076
   92SAPC  H20S 8886   6.355   2.770   4.718 -1.8943 -2.9026  0.6249
   92SAPC  H20T 8887   6.408   2.612   4.654  0.9889 -1.0147  0.7330
   92SAPC   C33 8888   5.160   2.225   5.761  0.3681 -0.5697  0.4944
   92SAPC   H3X 8889   5.204   2.271   5.852 -1.2541 -0.2636  1.1599
   92SAPC   H3Y 8890   5.083   2.297   5.726  0.8050 -0.6162 -0.6320
   92SAPC   C34 8891   5.281   2.234   5.655 -0.4915 -0.4152  0.0263
   92SAPC   H4X 8892   5.338   2.139   5.649 -1.2479 -0.9345  0.7878
   92SAPC   H4Y 8893   5.352   2.307   5.699  1.3692 -2.1868  0.0933
   92SAPC   C35 8894   5.237   2.258   5.507  0.7485  0.3751  0.3152
   92SAPC   H5X 8895   5.189   2.358   5.501 -0.4642 -0.2243 -0.4188
   92SAPC   H5Y 8896   5.165   2.179   5.476  0.9726 -0.4633  1.8511
   92SAPC   C36 8897   5.347   2.256   5.403 -0.2211  0.0080  0.2820
   92SAPC   H6X 8898   5.388   2.153   5.396  0.8225  0.3183  1.6075
   92SAPC   H6Y 8899   5.425   2.324   5.443  1.9815 -1.3233 -1.4866
   92SAPC   C37 8900   5.308   2.324   5.270  0.6515 -0.3513  0.3222
   92SAPC   H7X 8901   5.302   2.432   5.296 -0.6763 -0.3446  0.0225
   92SAPC   H7Y 8902   5.214   2.289   5.223  1.2370  1.6113 -2.6260
   92SAPC   C38 8903   5.402   2.306   5.156 -0.5743  0.0735 -0.0751
   92SAPC   H8X 8904   5.431   2.199   5.156  1.1427  0.4901 -1.5941
   92SAPC   H8Y 8905   5.496   2.366   5.165 -1.0582  1.1496 -1.6153
   92SAPC   C39 8906   5.359   2.357   5.025  0.5785  0.4131 -0.7799
   92SAPC   H9X 8907   5.382   2.466   5.016  0.7434  0.4938  0.4790
   92SAPC   H9Y 8908   5.249   2.349   5.020  0.6078 -2.1342  0.9540
   92SAPC  C310 8909   5.411   2.281   4.906  0.4705 -0.0687 -0.0285
   92SAPC  H10X 8910   5.378   2.176   4.891 -0.8004  0.7396 -3.8226
   92SAPC  H10Y 8911   5.521   2.297   4.916  0.1447  2.0242  0.7717
   92SAPC  C311 8912   5.373   2.356   4.777  0.1833  0.2189 -0.8910
   92SAPC  H11X 8913   5.285   2.422   4.787  0.5385  0.5299  0.2907
   92SAPC  H11Y 8914   5.325   2.286   4.705  1.8183 -1.2603 -0.6398
   92SAPC  C312 8915   5.488   2.432   4.702  0.5266 -0.2919  0.6634
   92SAPC  H12X 8916   5.531   2.498   4.781 -2.7399 -0.0282  2.4007
   92SAPC  H12Y 8917   5.440   2.495   4.624 -0.9823 -1.4167  0.6387
   92SAPC  C313 8918   5.607   2.359   4.646 -0.3284  0.6337  0.3417
   92SAPC  H13X 8919   5.565   2.265   4.605  2.1563 -0.7554  0.8069
   92SAPC  H13Y 8920   5.679   2.334   4.727 -0.1036  1.8903  0.5506
   92SAPC  C314 8921   5.678   2.443   4.541  0.3923  0.2853  0.0447
   92SAPC  H14X 8922   5.697   2.536   4.599 -2.5463 -0.0525  1.7813
   92SAPC  H14Y 8923   5.619   2.478   4.453 -0.5660  1.1898  1.0108
   92SAPC  C315 8924   5.817   2.385   4.502  0.5416 -0.5935  0.1432
   92SAPC  H15X 8925   5.811   2.277   4.480 -1.3080 -0.0980 -2.2180
   92SAPC  H15Y 8926   5.873   2.388   4.598 -2.4744 -1.1638  2.0512
   92SAPC  C316 8927   5.895   2.456   4.392  0.3469 -0.4659  0.5957
   92SAPC  H16X 8928   5.884   2.567   4.390 -2.2280 -0.6717 -0.4191
   92SAPC  H16Y 8929   5.857   2.414   4.297 -1.4364  0.0665  1.0323
   92SAPC  C317 8930   6.046   2.439   4.401  0.5780  0.9282 -0.1326
   92SAPC  H17X 8931   6.090   2.488   4.311  0.7347 -0.5631 -0.9021
   92SAPC  H17Y 8932   6.056   2.328   4.407 -1.7112  0.7057  0.4960
   92SAPC  C318 8933   6.123   2.498   4.516  0.6273 -0.2627  0.7312
   92SAPC  H18X 8934   6.232   2.487   4.498  0.5340  0.9691 -0.8072
   92SAPC  H18Y 8935   6.090   2.448   4.609  1.7276  1.0143  1.8598
   92SAPC  H18Z 8936   6.096   2.606   4.524  0.7052 -0.1335 -0.5649
   93SAPC     N 8937   2.273   4.845   6.823  0.1144  0.1323  0.3683
   93SAPC   C12 8938   2.362   4.956   6.776  0.0090 -0.5896 -0.4877
   93SAPC  H12A 8939   2.401   4.990   6.871  0.9763 -1.5720 -0.5077
   93SAPC  H12B 8940   2.298   5.035   6.742 -2.5648 -0.0604  4.7238
   93SAPC   C13 8941   2.345   4.751   6.909 -0.2154 -0.1165 -0.2622
   93SAPC  H13A 8942   2.404   4.680   6.854 -0.3607 -0.3104 -0.1677
   93SAPC  H13B 8943   2.413   4.808   6.971 -0.7863  1.8394 -1.3324
   93SAPC  H13C 8944   2.273   4.690   6.962  0.1718 -0.2005  0.1716
   93SAPC   C14 8945   2.177   4.909   6.915  0.2974 -0.0510 -0.3586
   93SAPC  H14A 8946   2.117   4.837   6.970  1.1248  0.0319  0.6866
   93SAPC  H14B 8947   2.231   4.970   6.986  0.5155  0.2977 -0.8212
   93SAPC  H14C 8948   2.110   4.980   6.869 -0.4443 -0.4626  0.0528
   93SAPC   C15 8949   2.199   4.769   6.718 -0.2685 -0.5796 -0.2665
   93SAPC  H15A 8950   2.270   4.762   6.636  0.6374  0.0453  0.4449
   93SAPC  H15B 8951   2.164   4.672   6.750 -1.4404  0.5091  1.9732
   93SAPC  H15C 8952   2.107   4.818   6.690 -1.2694 -1.2461  1.7159
   93SAPC   C11 8953   2.488   4.918   6.697 -0.5626  0.5415 -0.0722
   93SAPC  H11A 8954   2.533   5.013   6.660  0.2547  0.2130  0.0616
   93SAPC  H11B 8955   2.465   4.848   6.613  0.4928 -1.5112  1.2757
   93SAPC     P 8956   2.652   4.937   6.897  0.3323 -0.1077  0.0731
   93SAPC   O13 8957   2.562   5.026   6.974  0.6690 -0.1641  0.4678
   93SAPC   O14 8958   2.717   4.832   6.974 -0.2472  0.3682  0.2034
   93SAPC   O12 8959   2.586   4.855   6.779  0.5745 -0.1017  0.4194
   93SAPC   O11 8960   2.758   5.015   6.827 -0.3346  0.0034  0.4591
   93SAPC    C1 8961   2.844   4.959   6.723 -0.6414  0.2068 -0.2675
   93SAPC    HA 8962   2.950   4.983   6.743 -0.7911 -0.8625  2.2302
   93SAPC    HB 8963   2.840   4.848   6.724 -0.7667  0.2113  0.0096
   93SAPC    C2 8964   2.821   5.026   6.585  0.2440  0.6618 -0.1044
   93SAPC    HS 8965   2.741   4.965   6.536  2.0932 -1.0612 -1.1745
   93SAPC   O21 8966   2.931   5.008   6.493  0.2136 -0.2904  0.5527
   93SAPC   C21 8967   2.956   4.878   6.460  0.1063 -0.3169 -0.1784
   93SAPC   O22 8968   2.898   4.781   6.504 -1.0573  0.2335  0.1346
   93SAPC   C22 8969   3.062   4.889   6.346 -0.0822 -0.2960  0.2165
   93SAPC   H2R 8970   3.031   4.941   6.253  0.1796 -2.5260 -1.1982
   93SAPC   H2S 8971   3.152   4.944   6.381 -2.0483  3.6139 -0.3109
   93SAPC    C3 8972   2.775   5.167   6.594 -0.1260  0.2540  0.4634
   93SAPC    HX 8973   2.860   5.230   6.628 -1.3451  1.8776  0.5851
   93SAPC    HY 8974   2.699   5.171   6.675  0.0799  1.6319  0.6036
   93SAPC   O31 8975   2.711   5.213   6.471  0.3323 -0.7670 -0.0112
   93SAPC   C31 8976   2.768   5.296   6.388  0.0977  0.0057 -0.5357
   93SAPC   O32 8977   2.880   5.346   6.400 -0.3564 -0.1218 -0.1787
   93SAPC   C32 8978   2.672   5.327   6.269  0.2173 -0.1039  0.2933
   93SAPC   H2X 8979   2.629   5.426   6.293 -0.3437 -0.2181 -0.2254
   93SAPC   H2Y 8980   2.606   5.237   6.273  0.4576 -0.2468  2.4889
   93SAPC   C23 8981   3.118   4.747   6.300 -0.0172 -0.5217  0.0663
   93SAPC   H3R 8982   3.040   4.710   6.230 -1.7895 -0.3162  1.8438
   93SAPC   H3S 8983   3.127   4.680   6.388  0.2925  0.4860  0.8226
   93SAPC   C24 8984   3.258   4.758   6.229  0.3918  0.2085  0.6163
   93SAPC   H4R 8985   3.330   4.802   6.301  0.4223  0.2725  0.5470
   93SAPC   H4S 8986   3.254   4.815   6.134  0.1627 -3.0163 -1.4730
   93SAPC   C25 8987   3.316   4.629   6.197  0.3842  0.6575 -0.2666
   93SAPC   H5R 8988   3.369   4.591   6.286  0.9469 -1.6611 -1.5163
   93SAPC   C26 8989   3.305   4.541   6.090  0.2523  0.1211 -0.1733
   93SAPC   H6R 8990   3.364   4.448   6.092 -1.4711 -1.0114  0.9222
   93SAPC   C27 8991   3.240   4.584   5.961  0.0189  0.2706  0.1978
   93SAPC   H7R 8992   3.309   4.564   5.876 -0.0262  0.9461  0.0001
   93SAPC   H7S 8993   3.217   4.693   5.958 -0.7480  0.1292  0.7937
   93SAPC   C28 8994   3.110   4.512   5.933 -0.6073  0.8673 -0.4114
   93SAPC   H8R 8995   3.051   4.490   6.023  2.4721  1.2532  1.8531
   93SAPC   C29 8996   3.069   4.457   5.819  0.6251  0.9689 -0.3098
   93SAPC   H9R 8997   2.974   4.402   5.812  1.5433 -0.5719 -1.3472
   93SAPC  C210 8998   3.140   4.455   5.682 -0.2921 -0.3661  0.4014
   93SAPC  H10R 8999   3.216   4.536   5.690 -1.1522  0.4705  0.3777
   93SAPC  H10S 9000   3.076   4.495   5.601  0.7613  1.0660  0.2262
   93SAPC  C211 9001   3.216   4.324   5.657 -0.4404  0.1110  0.1166
   93SAPC  H11R 9002   3.275   4.298   5.746  0.7519 -0.0649 -0.7123
   93SAPC  C212 9003   3.221   4.249   5.548  0.5093  0.0584  0.5237
   93SAPC  H12R 9004   3.277   4.154   5.548  0.9616  0.3228  0.6837
   93SAPC  C213 9005   3.153   4.275   5.413  0.3239  0.5162  0.4589
   93SAPC  H13R 9006   3.107   4.376   5.416 -0.3440  0.1908  1.9102
   93SAPC  H13S 9007   3.067   4.206   5.402 -0.8299  2.0381 -0.4894
   93SAPC  C214 9008   3.247   4.269   5.297  0.2074 -0.6409 -0.0551
   93SAPC  H14R 9009   3.347   4.303   5.327  1.4704 -5.1273  1.5183
   93SAPC  C215 9010   3.222   4.216   5.173 -1.0958  0.7902  0.3489
   93SAPC  H15R 9011   3.297   4.209   5.093 -1.2994  1.9787  0.0323
   93SAPC  C216 9012   3.088   4.159   5.136  0.5137 -0.1910  0.0079
   93SAPC  H16R 9013   3.058   4.203   5.038  0.7464 -1.2924 -0.5760
   93SAPC  H16S 9014   2.999   4.192   5.193  2.8809  4.0077  1.7360
   93SAPC  C217 9015   3.083   3.999   5.123 -0.2316 -0.3713  1.0920
   93SAPC  H17R 9016   3.164   3.948   5.066 -0.9099 -2.0950  1.5805
   93SAPC  H17S 9017   2.991   3.978   5.065  0.8412  2.9325 -2.1913
   93SAPC  C218 9018   3.075   3.931   5.252 -0.0512 -0.0602  0.3124
   93SAPC  H18R 9019   2.978   3.960   5.299 -1.6193 -2.1191 -1.4015
   93SAPC  H18S 9020   3.163   3.961   5.312  2.4801 -3.6800 -1.2413
   93SAPC  C219 9021   3.082   3.778   5.249  0.1637 -0.2377 -0.0830
   93SAPC  H19R 9022   3.016   3.725   5.177 -0.5952 -0.0512  0.4721
   93SAPC  H19S 9023   3.065   3.740   5.352 -0.6732  3.7488  1.4333
   93SAPC  C220 9024   3.224   3.728   5.205  0.3231  0.3440 -0.5867
   93SAPC  H20R 9025   3.304   3.783   5.258  0.0329 -1.5794  2.1011
   93SAPC  H20S 9026   3.244   3.742   5.097  0.3782  0.2478 -0.5891
   93SAPC  H20T 9027   3.240   3.621   5.233 -1.1948  0.6676  1.8612
   93SAPC   C33 9028   2.721   5.342   6.129 -0.4351  0.3772 -1.2657
   93SAPC   H3X 9029   2.782   5.435   6.121  2.2781 -1.2383 -0.7908
   93SAPC   H3Y 9030   2.644   5.343   6.049 -0.1422 -1.7801 -1.6275
   93SAPC   C34 9031   2.828   5.228   6.090 -0.3007 -0.5477  0.0586
   93SAPC   H4X 9032   2.923   5.233   6.148 -1.1648  3.3373  1.4498
   93SAPC   H4Y 9033   2.847   5.252   5.983 -3.6971  1.6300 -0.1962
   93SAPC   C35 9034   2.764   5.089   6.101  0.3246  0.4398  0.0772
   93SAPC   H5X 9035   2.658   5.093   6.069  0.1704  2.4834  0.6924
   93SAPC   H5Y 9036   2.765   5.042   6.202  0.4090 -1.2289 -0.6669
   93SAPC   C36 9037   2.832   4.979   6.015 -0.4683 -0.2154 -0.0536
   93SAPC   H6X 9038   2.933   4.955   6.053 -0.6789  0.1198  0.7363
   93SAPC   H6Y 9039   2.833   5.019   5.911  0.3925  3.0977  1.1024
   93SAPC   C37 9040   2.764   4.839   6.016 -0.7830  0.1696  0.3835
   93SAPC   H7X 9041   2.659   4.852   5.983 -1.2147  1.2060  2.0580
   93SAPC   H7Y 9042   2.761   4.804   6.122  1.9588  0.1465  0.5192
   93SAPC   C38 9043   2.838   4.733   5.934 -0.5455  0.1582 -0.3294
   93SAPC   H8X 9044   2.815   4.626   5.953  0.4132 -0.1635 -0.8681
   93SAPC   H8Y 9045   2.946   4.735   5.960 -0.2533  0.9697 -1.5067
   93SAPC   C39 9046   2.854   4.765   5.789 -0.8455 -0.0353 -0.7876
   93SAPC   H9X 9047   2.913   4.682   5.744  0.6379  0.8898 -0.6058
   93SAPC   H9Y 9048   2.918   4.854   5.774  1.4115 -1.8375 -2.4372
   93SAPC  C310 9049   2.723   4.779   5.707 -0.1657  0.5429 -0.2990
   93SAPC  H10X 9050   2.647   4.854   5.736 -0.3191  0.8535 -1.4798
   93SAPC  H10Y 9051   2.679   4.677   5.703  1.8444 -0.3615 -0.8052
   93SAPC  C311 9052   2.755   4.808   5.563  0.0518  0.1960 -0.5751
   93SAPC  H11X 9053   2.812   4.904   5.555  0.9565 -0.1983  0.9038
   93SAPC  H11Y 9054   2.659   4.825   5.510  1.0821 -2.6401 -3.6947
   93SAPC  C312 9055   2.827   4.699   5.481  0.3915 -0.1229  0.3283
   93SAPC  H12X 9056   2.765   4.609   5.503 -0.4374  0.3983  0.1546
   93SAPC  H12Y 9057   2.928   4.686   5.526  0.2132  0.1612  0.8204
   93SAPC  C313 9058   2.839   4.744   5.337  0.4825  0.2176 -0.2573
   93SAPC  H13X 9059   2.911   4.827   5.321 -1.9592  2.1534 -1.9546
   93SAPC  H13Y 9060   2.745   4.796   5.307  0.4985  1.0598  1.1098
   93SAPC  C314 9061   2.868   4.627   5.235  0.2961 -0.5658 -0.7511
   93SAPC  H14X 9062   2.812   4.535   5.264  1.0407 -1.4170 -1.8725
   93SAPC  H14Y 9063   2.976   4.602   5.246 -0.2461 -2.2957  1.2322
   93SAPC  C315 9064   2.833   4.663   5.088 -0.4026  0.0021 -0.7099
   93SAPC  H15X 9065   2.897   4.748   5.056 -1.5193  1.0755 -0.1649
   93SAPC  H15Y 9066   2.732   4.707   5.080  0.6091  2.6639  0.2347
   93SAPC  C316 9067   2.841   4.543   4.998  0.1257  0.0653  1.1634
   93SAPC  H16X 9068   2.803   4.456   5.057 -1.8604  1.5092  2.1335
   93SAPC  H16Y 9069   2.949   4.519   4.992 -0.2636 -1.6975  0.3940
   93SAPC  C317 9070   2.786   4.543   4.848 -0.2056 -0.8003  0.1982
   93SAPC  H17X 9071   2.829   4.452   4.800  2.7993  0.5666  0.0478
   93SAPC  H17Y 9072   2.833   4.630   4.799 -1.0541 -0.7871 -0.5987
   93SAPC  C318 9073   2.637   4.554   4.831 -0.3162  0.4042 -0.4475
   93SAPC  H18X 9074   2.626   4.615   4.739  2.8928 -1.5071 -2.3072
   93SAPC  H18Y 9075   2.596   4.605   4.922  0.9216 -1.7748  1.4475
   93SAPC  H18Z 9076   2.596   4.451   4.822  1.2219 -0.2938  0.0850
   94SAPC     N 9077   2.236   2.987   6.662 -0.5301  0.2027 -0.6104
   94SAPC   C12 9078   2.166   2.853   6.652  0.1270  0.4225  0.1667
   94SAPC  H12A 9079   2.163   2.827   6.547 -2.1903  1.9691 -0.2403
   94SAPC  H12B 9080   2.062   2.865   6.680  0.9519  0.7491  3.5511
   94SAPC   C13 9081   2.167   3.081   6.571  0.2885  0.2994 -0.3422
   94SAPC  H13A 9082   2.061   3.075   6.586  0.3180 -1.1142 -0.5352
   94SAPC  H13B 9083   2.202   3.179   6.600 -3.4994  1.8656 -0.5081
   94SAPC  H13C 9084   2.181   3.060   6.465 -0.8575  1.4383 -0.7381
   94SAPC   C14 9085   2.234   3.029   6.801 -0.1421  0.4619 -0.6659
   94SAPC  H14A 9086   2.135   3.032   6.844  0.1309  2.5463 -0.0198
   94SAPC  H14B 9087   2.300   2.968   6.860  0.5852  3.3738  1.8273
   94SAPC  H14C 9088   2.265   3.132   6.813 -0.9916  0.6062  0.5368
   94SAPC   C15 9089   2.375   2.974   6.617 -0.4305 -0.6263  0.2466
   94SAPC  H15A 9090   2.435   3.064   6.624 -0.8630 -0.3591  0.5333
   94SAPC  H15B 9091   2.431   2.898   6.669 -1.0049 -1.2318 -0.0021
   94SAPC  H15C 9092   2.379   2.937   6.515  2.0217 -0.9512  0.3949
   94SAPC   C11 9093   2.234   2.732   6.722  1.4708  0.0355 -0.0817
   94SAPC  H11A 9094   2.164   2.646   6.735  0.3695  1.0340  0.7954
   94SAPC  H11B 9095   2.253   2.763   6.827 -0.9213 -0.3566  0.5216
   94SAPC     P 9096   2.350   2.610   6.530  0.3072 -0.0898  0.4850
   94SAPC   O13 9097   2.458   2.643   6.439  0.2479  0.5182  0.8006
   94SAPC   O14 9098   2.331   2.471   6.568 -0.3361  0.0147 -0.2790
   94SAPC   O12 9099   2.367   2.701   6.665  0.3672  0.0482 -0.2339
   94SAPC   O11 9100   2.218   2.671   6.452  0.3389 -0.4582 -0.3248
   94SAPC    C1 9101   2.115   2.587   6.396 -0.7296 -0.1827  0.3086
   94SAPC    HA 9102   2.091   2.503   6.464  1.9783 -0.3085  1.2477
   94SAPC    HB 9103   2.019   2.643   6.399 -1.5893 -1.6514  1.9715
   94SAPC    C2 9104   2.140   2.530   6.251  0.0563  0.4168  0.3533
   94SAPC    HS 9105   2.194   2.434   6.257 -1.2739 -0.4808 -1.1239
   94SAPC   O21 9106   2.221   2.625   6.174  0.5379 -0.0608 -0.5773
   94SAPC   C21 9107   2.309   2.578   6.083  0.6593  0.1227  0.7936
   94SAPC   O22 9108   2.335   2.462   6.072 -0.5549  0.2255  0.4190
   94SAPC   C22 9109   2.352   2.681   5.990  0.2571 -0.7255 -0.0975
   94SAPC   H2R 9110   2.268   2.752   5.975 -1.0903 -1.8921  1.4638
   94SAPC   H2S 9111   2.430   2.733   6.050 -0.3724 -0.6712  0.6815
   94SAPC    C3 9112   2.017   2.490   6.174  0.2444 -0.1543 -0.4120
   94SAPC    HX 9113   1.937   2.555   6.217 -1.5808 -1.8097 -1.1042
   94SAPC    HY 9114   1.990   2.386   6.206 -0.7541 -0.2795 -1.5709
   94SAPC   O31 9115   2.034   2.494   6.031 -0.1081 -0.1139  0.3814
   94SAPC   C31 9116   1.950   2.573   5.962 -0.3209  0.3595 -0.0130
   94SAPC   O32 9117   1.883   2.660   6.016  0.0765 -0.0243 -0.3041
   94SAPC   C32 9118   1.934   2.517   5.820 -0.2152  0.0815  0.0681
   94SAPC   H2X 9119   1.854   2.442   5.830  0.6404 -0.7217  1.1228
   94SAPC   H2Y 9120   2.025   2.456   5.801 -1.8017 -2.9858  1.6013
   94SAPC   C23 9121   2.416   2.622   5.862 -0.3479  1.0029 -0.4785
   94SAPC   H3R 9122   2.348   2.547   5.816  1.0069 -0.1625 -0.6835
   94SAPC   H3S 9123   2.510   2.569   5.887 -1.2423 -0.7120 -0.5716
   94SAPC   C24 9124   2.434   2.735   5.759 -0.7523  0.1377  0.5558
   94SAPC   H4R 9125   2.464   2.678   5.668 -1.4348  0.7717 -0.0813
   94SAPC   H4S 9126   2.516   2.807   5.779 -1.7050  2.2825 -2.4441
   94SAPC   C25 9127   2.323   2.826   5.737  0.5507 -0.6936  0.3997
   94SAPC   H5R 9128   2.290   2.900   5.811 -0.0094  0.1329 -0.6497
   94SAPC   C26 9129   2.256   2.841   5.623  0.2339 -0.2854  0.0645
   94SAPC   H6R 9130   2.177   2.916   5.612 -0.0502 -0.2070  2.2141
   94SAPC   C27 9131   2.284   2.764   5.494  0.5442 -0.0666 -0.6610
   94SAPC   H7R 9132   2.189   2.716   5.464  0.6109 -0.1585 -0.7248
   94SAPC   H7S 9133   2.347   2.675   5.515 -0.6223 -0.7710 -0.0403
   94SAPC   C28 9134   2.340   2.854   5.385 -0.5327 -0.5333 -0.8805
   94SAPC   H8R 9135   2.449   2.860   5.377 -0.4785 -0.3918 -0.0521
   94SAPC   C29 9136   2.277   2.922   5.287  0.3419 -0.4617 -0.1341
   94SAPC   H9R 9137   2.338   2.969   5.209 -0.7306  1.6566  0.2126
   94SAPC  C210 9138   2.127   2.939   5.260  0.0881 -0.1744 -0.1183
   94SAPC  H10R 9139   2.070   2.944   5.355 -0.4457 -1.5660 -0.3395
   94SAPC  H10S 9140   2.095   2.846   5.208 -1.2994 -0.7365  1.6545
   94SAPC  C211 9141   2.100   3.058   5.169 -0.0228 -0.3598 -0.9601
   94SAPC  H11R 9142   2.066   3.148   5.223  0.9509 -0.8746  0.5680
   94SAPC  C212 9143   2.108   3.073   5.036 -0.3795  0.6459  0.6419
   94SAPC  H12R 9144   2.090   3.170   4.988  0.4085 -0.2123 -1.4691
   94SAPC  C213 9145   2.150   2.954   4.945  0.2718 -0.5689  0.1556
   94SAPC  H13R 9146   2.070   2.937   4.870  0.6123 -0.4235 -0.2463
   94SAPC  H13S 9147   2.154   2.855   4.995 -2.1073 -0.4942  0.5660
   94SAPC  C214 9148   2.284   2.987   4.881  0.2644  0.0495  0.4347
   94SAPC  H14R 9149   2.300   3.094   4.859 -1.0820 -0.1631 -1.8457
   94SAPC  C215 9150   2.385   2.904   4.861  0.7152 -0.5860 -0.5440
   94SAPC  H15R 9151   2.469   2.950   4.807  1.5407 -0.3928  0.8807
   94SAPC  C216 9152   2.382   2.750   4.881  0.0767  0.3870 -0.7598
   94SAPC  H16R 9153   2.288   2.703   4.919  0.0241  0.3673 -0.9141
   94SAPC  H16S 9154   2.466   2.731   4.951 -0.5477  1.2155  0.2442
   94SAPC  C217 9155   2.411   2.678   4.748  0.0396 -0.0995 -0.3857
   94SAPC  H17R 9156   2.338   2.709   4.670 -1.9208  1.8252  2.0566
   94SAPC  H17S 9157   2.402   2.570   4.770 -0.1324  0.2002  1.1111
   94SAPC  C218 9158   2.553   2.713   4.691 -0.4485 -0.1545 -0.8508
   94SAPC  H18R 9159   2.629   2.675   4.763  0.0708  0.0961 -1.2612
   94SAPC  H18S 9160   2.565   2.821   4.671 -2.3252  0.2667  0.1023
   94SAPC  C219 9161   2.584   2.635   4.559  0.4822  0.0020  0.2454
   94SAPC  H19R 9162   2.523   2.676   4.476 -2.2626 -0.8592  1.7164
   94SAPC  H19S 9163   2.555   2.529   4.578  1.0053  0.2036  2.3687
   94SAPC  C220 9164   2.729   2.650   4.525  0.1764  0.4044  0.0064
   94SAPC  H20R 9165   2.787   2.598   4.604 -2.1579 -1.4561  0.6226
   94SAPC  H20S 9166   2.740   2.760   4.519  0.4552  0.3056 -1.6885
   94SAPC  H20T 9167   2.759   2.605   4.428  0.2975  0.6451 -0.0662
   94SAPC   C33 9168   1.910   2.622   5.704  0.3083  0.6951 -0.1718
   94SAPC   H3X 9169   2.002   2.681   5.681  1.5881  0.2591  3.1968
   94SAPC   H3Y 9170   1.829   2.691   5.736 -0.2890  0.1212 -0.4319
   94SAPC   C34 9171   1.853   2.554   5.577 -0.1085 -0.0486 -0.1923
   94SAPC   H4X 9172   1.750   2.544   5.619  0.1143  1.4673  0.8132
   94SAPC   H4Y 9173   1.885   2.449   5.560  0.0464 -0.1579  0.7235
   94SAPC   C35 9174   1.866   2.645   5.458 -0.3719  0.5162  0.1883
   94SAPC   H5X 9175   1.975   2.655   5.438 -0.0667 -0.6395  1.1442
   94SAPC   H5Y 9176   1.833   2.750   5.475  2.7647  1.4635  0.9643
   94SAPC   C36 9177   1.791   2.598   5.331 -0.2994  0.0412  0.3236
   94SAPC   H6X 9178   1.683   2.591   5.351 -0.3904 -1.2424 -0.5158
   94SAPC   H6Y 9179   1.821   2.497   5.295 -1.0529 -0.9691  2.4258
   94SAPC   C37 9180   1.806   2.699   5.224  0.2058 -0.3184  0.3112
   94SAPC   H7X 9181   1.909   2.703   5.183 -1.0344  1.6074 -2.9223
   94SAPC   H7Y 9182   1.783   2.801   5.262  1.8288  0.2174 -0.0595
   94SAPC   C38 9183   1.726   2.668   5.102  0.1977 -0.4051  0.0255
   94SAPC   H8X 9184   1.620   2.671   5.134 -0.2877  1.2840 -1.5613
   94SAPC   H8Y 9185   1.749   2.566   5.066 -0.3509  0.3150 -2.5756
   94SAPC   C39 9186   1.735   2.765   4.989  0.5586  0.5527  0.1921
   94SAPC   H9X 9187   1.657   2.736   4.916 -0.8922 -1.8482  2.5089
   94SAPC   H9Y 9188   1.828   2.760   4.928 -0.4098  1.1248 -1.4000
   94SAPC  C310 9189   1.717   2.912   5.031 -0.5718  0.2198  0.3082
   94SAPC  H10X 9190   1.791   2.946   5.108  0.8539  1.1991 -1.4106
   94SAPC  H10Y 9191   1.613   2.924   5.069 -0.8247 -1.0937  0.0939
   94SAPC  C311 9192   1.740   3.013   4.918  0.7696 -0.0367  0.1913
   94SAPC  H11X 9193   1.661   3.003   4.841  1.1132  0.2167 -0.1996
   94SAPC  H11Y 9194   1.837   2.994   4.866  2.6470 -0.4743  3.5862
   94SAPC  C312 9195   1.730   3.155   4.965  0.1134  0.5974  0.1416
   94SAPC  H12X 9196   1.808   3.178   5.040 -1.2841  0.7821  1.5858
   94SAPC  H12Y 9197   1.637   3.166   5.025  0.3434 -0.6173  0.7430
   94SAPC  C313 9198   1.765   3.252   4.845  0.4114 -0.6056 -0.1004
   94SAPC  H13X 9199   1.683   3.234   4.773 -0.6779  2.0588  0.3675
   94SAPC  H13Y 9200   1.861   3.222   4.798 -0.2772 -2.1910 -0.5596
   94SAPC  C314 9201   1.769   3.399   4.867  0.3669 -0.1525  0.1260
   94SAPC  H14X 9202   1.849   3.439   4.934  1.7290 -1.4859 -0.6358
   94SAPC  H14Y 9203   1.672   3.428   4.912 -0.1186 -0.4504 -0.7148
   94SAPC  C315 9204   1.791   3.486   4.737  0.4669  0.0981  0.0017
   94SAPC  H15X 9205   1.723   3.456   4.654  1.0606  2.0698 -1.2648
   94SAPC  H15Y 9206   1.895   3.483   4.698  0.6914  0.7513  0.5269
   94SAPC  C316 9207   1.754   3.633   4.768  0.2424  0.1701 -0.0091
   94SAPC  H16X 9208   1.806   3.661   4.862  1.2569 -2.0263  0.1568
   94SAPC  H16Y 9209   1.647   3.638   4.798  0.7970  2.1694  1.8403
   94SAPC  C317 9210   1.768   3.731   4.650 -0.4876  0.1655 -0.1108
   94SAPC  H17X 9211   1.728   3.677   4.562  0.1715 -0.7292  0.1193
   94SAPC  H17Y 9212   1.876   3.751   4.633  0.2702 -1.9969  1.6228
   94SAPC  C318 9213   1.685   3.856   4.662 -0.3310 -0.3461 -0.0191
   94SAPC  H18X 9214   1.584   3.823   4.692 -0.2980  0.7876  1.4402
   94SAPC  H18Y 9215   1.681   3.901   4.560 -0.4790  2.0463  0.9810
   94SAPC  H18Z 9216   1.730   3.938   4.722 -0.1113 -0.7981  0.4390
   95SAPC     N 9217   5.403   5.770   1.984  0.4820 -0.5347 -0.0098
   95SAPC   C12 9218   5.388   5.812   2.124 -0.2881 -0.1569 -0.1267
   95SAPC  H12A 9219   5.299   5.872   2.134 -0.9987 -0.9151 -1.4988
   95SAPC  H12B 9220   5.474   5.876   2.138 -1.4950  1.6360 -0.6466
   95SAPC   C13 9221   5.382   5.894   1.901  0.3227  0.6688  0.7052
   95SAPC  H13A 9222   5.453   5.969   1.933 -0.4547  1.2985  0.9925
   95SAPC  H13B 9223   5.408   5.867   1.800  0.5201  1.3023  0.5797
   95SAPC  H13C 9224   5.281   5.932   1.908 -0.6967 -1.6008 -0.4296
   95SAPC   C14 9225   5.542   5.717   1.960 -0.0012  0.3830 -0.6007
   95SAPC  H14A 9226   5.562   5.681   1.860  4.0052 -2.3206  0.9206
   95SAPC  H14B 9227   5.619   5.789   1.985  0.8598 -0.8174  0.3617
   95SAPC  H14C 9228   5.568   5.631   2.020 -1.7567  0.8606  0.9259
   95SAPC   C15 9229   5.305   5.668   1.939  0.2167  0.0443  0.5796
   95SAPC  H15A 9230   5.340   5.635   1.843  1.1490 -0.0882  0.9486
   95SAPC  H15B 9231   5.313   5.580   2.002 -0.7973 -0.6736 -0.2535
   95SAPC  H15C 9232   5.202   5.699   1.933  0.0548 -0.6926 -0.8188
   95SAPC   C11 9233   5.392   5.701   2.239  0.2346  0.4998  0.3475
   95SAPC  H11A 9234   5.398   5.741   2.342 -0.3534 -2.1482  1.4684
   95SAPC  H11B 9235   5.479   5.636   2.217 -0.2854 -0.6348  1.5772
   95SAPC     P 9236   5.132   5.664   2.259 -0.2716  0.3570 -0.3016
   95SAPC   O13 9237   5.090   5.795   2.206 -0.3987  0.1179  0.1014
   95SAPC   O14 9238   5.039   5.554   2.224  0.0801 -0.2388  0.0553
   95SAPC   O12 9239   5.275   5.615   2.224  0.3401  0.5121  0.7391
   95SAPC   O11 9240   5.127   5.675   2.411 -0.1677 -0.4742  0.2778
   95SAPC    C1 9241   5.180   5.566   2.490  0.0065 -0.4192 -0.1383
   95SAPC    HA 9242   5.224   5.481   2.434  0.4744  0.3657 -0.9867
   95SAPC    HB 9243   5.267   5.598   2.551 -1.5625  1.5636  1.1852
   95SAPC    C2 9244   5.067   5.505   2.585 -0.5576  0.3567 -0.3047
   95SAPC    HS 9245   4.981   5.493   2.516 -0.6050 -1.3941  0.0224
   95SAPC   O21 9246   5.047   5.600   2.693 -0.7056 -0.0852 -0.0025
   95SAPC   C21 9247   4.926   5.590   2.754  0.1958  0.1272 -0.2325
   95SAPC   O22 9248   4.837   5.516   2.716 -0.4340  0.0675  0.1623
   95SAPC   C22 9249   4.900   5.703   2.849 -0.5566 -0.4738 -0.0162
   95SAPC   H2R 9250   4.825   5.766   2.797 -1.0548 -0.0343  1.2152
   95SAPC   H2S 9251   4.857   5.662   2.942 -0.0147 -1.4045 -0.1528
   95SAPC    C3 9252   5.104   5.365   2.629  0.0351 -0.4260 -0.0091
   95SAPC    HX 9253   5.104   5.296   2.542 -0.5886  1.7106 -1.8021
   95SAPC    HY 9254   5.028   5.331   2.703 -0.0492 -0.0275  0.0935
   95SAPC   O31 9255   5.237   5.372   2.690 -0.7204 -1.3008 -0.4163
   95SAPC   C31 9256   5.254   5.260   2.756  0.3836 -0.3299  0.1414
   95SAPC   O32 9257   5.181   5.168   2.758  0.0723  0.5987 -0.3182
   95SAPC   C32 9258   5.380   5.265   2.839 -0.2314 -0.4624  0.8475
   95SAPC   H2X 9259   5.467   5.275   2.770 -1.0248 -0.5958 -0.1914
   95SAPC   H2Y 9260   5.390   5.182   2.912  0.9401  0.2806  1.5806
   95SAPC   C23 9261   5.019   5.793   2.891  0.3360 -0.1625 -0.8503
   95SAPC   H3R 9262   5.037   5.866   2.809 -0.3724  1.1633  0.1532
   95SAPC   H3S 9263   5.112   5.734   2.909  0.0825 -0.1422  0.6646
   95SAPC   C24 9264   4.992   5.885   3.007  0.5512  0.7664  0.1598
   95SAPC   H4R 9265   4.894   5.937   3.004 -0.8374 -1.6972  0.4038
   95SAPC   H4S 9266   5.061   5.971   2.990  1.4851 -0.0642 -0.3113
   95SAPC   C25 9267   5.010   5.814   3.135  0.2025 -0.0885 -0.5091
   95SAPC   H5R 9268   5.111   5.771   3.148  0.3578  0.3892 -0.1031
   95SAPC   C26 9269   4.909   5.776   3.219  0.0942  0.6383  0.1168
   95SAPC   H6R 9270   4.939   5.727   3.312  1.5602 -0.3620 -0.8398
   95SAPC   C27 9271   4.764   5.821   3.218  0.9032 -0.0182  0.3764
   95SAPC   H7R 9272   4.695   5.743   3.257 -1.1952 -0.0409 -3.0279
   95SAPC   H7S 9273   4.723   5.851   3.119  0.7337  2.0741  1.0194
   95SAPC   C28 9274   4.751   5.954   3.283 -0.7406  0.5540 -0.9974
   95SAPC   H8R 9275   4.765   6.046   3.223 -3.6644  2.0978  0.4464
   95SAPC   C29 9276   4.705   5.983   3.410  0.3403 -0.2103  0.0089
   95SAPC   H9R 9277   4.692   6.089   3.434 -1.4631 -0.4447  0.1741
   95SAPC  C210 9278   4.666   5.874   3.511  0.2491 -0.8253 -0.3978
   95SAPC  H10R 9279   4.630   5.775   3.478 -0.5600 -1.2093  1.5283
   95SAPC  H10S 9280   4.580   5.921   3.564 -0.9499 -1.7846 -1.4475
   95SAPC  C211 9281   4.784   5.859   3.607  0.5227  0.9215  0.6200
   95SAPC  H11R 9282   4.866   5.797   3.568  1.1655  2.2620 -0.2274
   95SAPC  C212 9283   4.804   5.922   3.725 -0.0560 -0.3983  0.1229
   95SAPC  H12R 9284   4.885   5.890   3.793 -0.5094 -0.6031  0.5792
   95SAPC  C213 9285   4.707   6.021   3.786  0.3959 -0.4043 -0.6673
   95SAPC  H13R 9286   4.658   6.075   3.702  0.3627 -1.3238 -1.2441
   95SAPC  H13S 9287   4.769   6.101   3.832  1.4547 -1.5200 -0.1315
   95SAPC  C214 9288   4.605   5.969   3.880  0.0924  0.1324  0.2042
   95SAPC  H14R 9289   4.588   5.863   3.859  2.3107 -0.1130 -0.6178
   95SAPC  C215 9290   4.535   6.035   3.968  0.5311  0.0233  0.2201
   95SAPC  H15R 9291   4.454   5.988   4.025 -0.2310  0.6700 -0.3104
   95SAPC  C216 9292   4.549   6.186   3.996 -0.3189  0.0808  0.3952
   95SAPC  H16R 9293   4.453   6.243   3.995  0.1219  0.8333 -0.1136
   95SAPC  H16S 9294   4.619   6.233   3.924 -1.8284 -0.0900 -1.2621
   95SAPC  C217 9295   4.607   6.201   4.138  0.0691 -0.9046  0.3966
   95SAPC  H17R 9296   4.614   6.312   4.148 -2.6050 -0.5799 -0.6730
   95SAPC  H17S 9297   4.709   6.159   4.154  0.9844  1.0837  0.1622
   95SAPC  C218 9298   4.511   6.145   4.245 -0.2665  0.1128  0.5702
   95SAPC  H18R 9299   4.512   6.035   4.234 -2.0968  0.3356 -3.4530
   95SAPC  H18S 9300   4.405   6.174   4.225 -0.8454 -2.9276 -1.3833
   95SAPC  C219 9301   4.544   6.171   4.394  0.0586 -0.0679  0.6386
   95SAPC  H19R 9302   4.459   6.150   4.463 -1.3008 -2.2043 -1.5494
   95SAPC  H19S 9303   4.545   6.282   4.394 -0.8936  0.0404 -2.5394
   95SAPC  C220 9304   4.677   6.124   4.449  0.0548  0.5655  0.1177
   95SAPC  H20R 9305   4.678   6.013   4.441  2.2427  0.6013 -0.9024
   95SAPC  H20S 9306   4.684   6.146   4.557  3.6797 -1.0106  0.3608
   95SAPC  H20T 9307   4.764   6.173   4.400 -1.0219  1.0745 -1.3715
   95SAPC   C33 9308   5.383   5.398   2.925  0.4253 -0.2192 -0.5485
   95SAPC   H3X 9309   5.360   5.487   2.863  0.2241  0.2625  0.2064
   95SAPC   H3Y 9310   5.484   5.417   2.969 -0.0336  1.7159 -0.2755
   95SAPC   C34 9311   5.285   5.378   3.035 -0.4172  0.2616 -0.5394
   95SAPC   H4X 9312   5.292   5.274   3.076  0.8357  0.5171 -0.0696
   95SAPC   H4Y 9313   5.183   5.397   2.993 -1.5736 -0.9153  1.5389
   95SAPC   C35 9314   5.286   5.478   3.152 -0.7454  0.7659 -0.1313
   95SAPC   H5X 9315   5.285   5.582   3.112 -0.5136  0.4007 -1.1059
   95SAPC   H5Y 9316   5.380   5.461   3.208 -1.0770  2.5876  1.0834
   95SAPC   C36 9317   5.169   5.450   3.244  0.5933 -0.1743  0.3501
   95SAPC   H6X 9318   5.163   5.343   3.276 -2.4206 -0.3556 -0.4654
   95SAPC   H6Y 9319   5.078   5.472   3.184  0.4363 -1.9683 -0.1519
   95SAPC   C37 9320   5.175   5.547   3.365  0.2470  0.9295 -0.4482
   95SAPC   H7X 9321   5.143   5.650   3.343  2.4601  1.6539 -0.5049
   95SAPC   H7Y 9322   5.282   5.546   3.395 -0.2447 -0.0149  1.4443
   95SAPC   C38 9323   5.101   5.477   3.476  0.5987 -0.1107  1.2730
   95SAPC   H8X 9324   5.153   5.386   3.514  1.4659 -1.2694 -2.3045
   95SAPC   H8Y 9325   4.999   5.458   3.438  0.8935  2.9073 -1.4229
   95SAPC   C39 9326   5.078   5.563   3.604 -0.2220  0.2861 -0.8403
   95SAPC   H9X 9327   4.988   5.533   3.663 -0.0007  2.6952  0.8614
   95SAPC   H9Y 9328   5.062   5.669   3.575  0.5763  0.7084  0.1941
   95SAPC  C310 9329   5.197   5.548   3.702  0.1026  0.1014 -0.9153
   95SAPC  H10X 9330   5.271   5.488   3.644  0.2367 -0.1777 -0.4598
   95SAPC  H10Y 9331   5.185   5.487   3.794 -1.1105 -0.8261 -1.6401
   95SAPC  C311 9332   5.267   5.680   3.745 -0.2934  0.4186 -0.4481
   95SAPC  H11X 9333   5.246   5.768   3.680 -1.0093  1.8173  1.5407
   95SAPC  H11Y 9334   5.373   5.661   3.768 -0.6914 -1.9505 -0.3878
   95SAPC  C312 9335   5.211   5.744   3.880 -0.5871  0.8051  0.8979
   95SAPC  H12X 9336   5.180   5.665   3.952 -0.1625  0.3410  0.5832
   95SAPC  H12Y 9337   5.112   5.787   3.854 -1.4731 -0.7650  1.4741
   95SAPC  C313 9338   5.296   5.849   3.946 -0.9096  0.6437  0.0276
   95SAPC  H13X 9339   5.310   5.931   3.872  0.3338  0.0949 -0.3845
   95SAPC  H13Y 9340   5.400   5.811   3.963 -1.2916 -1.0539 -1.2185
   95SAPC  C314 9341   5.232   5.887   4.077  0.1125 -0.3573  0.2951
   95SAPC  H14X 9342   5.222   5.806   4.153  0.2446 -0.3702  0.2996
   95SAPC  H14Y 9343   5.128   5.917   4.053  0.2196 -1.3657 -1.6340
   95SAPC  C315 9344   5.303   6.004   4.152  0.2769  0.5152 -0.0758
   95SAPC  H15X 9345   5.313   6.085   4.077 -1.6647  1.3778  0.5424
   95SAPC  H15Y 9346   5.398   5.971   4.199 -1.1192  1.0448  3.4318
   95SAPC  C316 9347   5.224   6.061   4.270  0.5191 -0.1983  0.4620
   95SAPC  H16X 9348   5.296   6.122   4.328  0.0958  1.8872 -1.0812
   95SAPC  H16Y 9349   5.190   5.977   4.333 -1.0408  0.1594  0.1387
   95SAPC  C317 9350   5.097   6.137   4.216  0.2801  0.2611 -0.2955
   95SAPC  H17X 9351   5.017   6.062   4.195 -1.1371  1.0830  1.8010
   95SAPC  H17Y 9352   5.115   6.183   4.117  0.0423 -1.0460 -0.9693
   95SAPC  C318 9353   5.044   6.241   4.315 -0.1331 -0.0027 -0.6010
   95SAPC  H18X 9354   5.133   6.300   4.345  1.0617 -1.7857 -0.4656
   95SAPC  H18Y 9355   5.002   6.182   4.399  0.5377 -2.7593 -2.0667
   95SAPC  H18Z 9356   4.977   6.317   4.270 -1.4163 -2.2718 -2.7973
   96SAPC     N 9357   3.678   0.794   1.701 -0.9456  0.3444  0.2419
   96SAPC   C12 9358   3.754   0.666   1.737 -0.1146 -0.2607  0.8241
   96SAPC  H12A 9359   3.739   0.593   1.658 -0.4613 -0.2949  0.9212
   96SAPC  H12B 9360   3.737   0.628   1.836  0.9347 -0.1744  1.0529
   96SAPC   C13 9361   3.535   0.765   1.689  0.0751 -0.8121 -0.0045
   96SAPC  H13A 9362   3.517   0.680   1.625  0.1868 -1.0143  0.2323
   96SAPC  H13B 9363   3.488   0.761   1.787 -0.9174  4.5940  0.0500
   96SAPC  H13C 9364   3.490   0.854   1.648  2.9053  1.4007  1.3202
   96SAPC   C14 9365   3.689   0.904   1.809  0.1495 -0.6822 -0.9704
   96SAPC  H14A 9366   3.615   0.983   1.797 -1.6518 -2.1475  0.0140
   96SAPC  H14B 9367   3.663   0.866   1.906 -0.4971  0.6712 -0.5808
   96SAPC  H14C 9368   3.785   0.953   1.810 -0.6233  0.9970 -2.4484
   96SAPC   C15 9369   3.728   0.854   1.576 -0.6590 -0.5815  0.2207
   96SAPC  H15A 9370   3.832   0.879   1.589 -0.6610 -1.1065  1.3065
   96SAPC  H15B 9371   3.716   0.788   1.492 -1.0717 -1.1983  0.7538
   96SAPC  H15C 9372   3.689   0.950   1.545 -2.8918 -2.3474 -2.9674
   96SAPC   C11 9373   3.911   0.690   1.723 -0.5681  0.3593 -0.5783
   96SAPC  H11A 9374   3.940   0.776   1.660  4.4450  0.0998  0.9152
   96SAPC  H11B 9375   3.949   0.598   1.673  0.5551  0.4235  0.1184
   96SAPC     P 9376   4.108   0.741   1.886  0.0930  0.1385 -0.2383
   96SAPC   O13 9377   4.176   0.762   1.756  0.0859 -0.4515 -0.1722
   96SAPC   O14 9378   4.098   0.857   1.983 -0.0531  0.5699 -0.8249
   96SAPC   O12 9379   3.968   0.692   1.850 -0.0452 -0.6473  0.0501
   96SAPC   O11 9380   4.180   0.620   1.942  0.0281  0.5256  0.0111
   96SAPC    C1 9381   4.135   0.491   1.928  0.5652  0.8478  0.3035
   96SAPC    HA 9382   4.064   0.469   1.845 -0.2170  0.1435  1.1259
   96SAPC    HB 9383   4.220   0.421   1.915  0.6250  1.0847 -0.6755
   96SAPC    C2 9384   4.058   0.442   2.052  0.0051 -0.7433  0.0009
   96SAPC    HS 9385   3.964   0.497   2.073  0.4476  0.0271 -0.0010
   96SAPC   O21 9386   4.153   0.450   2.162  0.3288  0.0303  0.3074
   96SAPC   C21 9387   4.095   0.477   2.285  0.4201  0.1228  0.3580
   96SAPC   O22 9388   3.979   0.500   2.299 -0.5068 -0.3044  0.2717
   96SAPC   C22 9389   4.202   0.469   2.390  0.5468 -0.0556  0.4757
   96SAPC   H2R 9390   4.239   0.365   2.404  4.9380  1.1921 -0.3538
   96SAPC   H2S 9391   4.289   0.525   2.349 -0.3134  0.5996 -0.5097
   96SAPC    C3 9392   4.015   0.291   2.031 -0.7928  0.3566  0.0791
   96SAPC    HX 9393   4.117   0.249   2.018 -0.2528  1.2293  1.4031
   96SAPC    HY 9394   3.973   0.283   1.928 -1.2049  0.7079  0.2169
   96SAPC   O31 9395   3.945   0.229   2.143  0.0787 -0.0674  0.1467
   96SAPC   C31 9396   3.814   0.257   2.128 -0.5766  0.2408  0.8933
   96SAPC   O32 9397   3.772   0.313   2.025  0.5069 -0.2373  0.4830
   96SAPC   C32 9398   3.742   0.222   2.256  0.0126  0.2876 -0.4205
   96SAPC   H2X 9399   3.818   0.239   2.335  0.3893  0.6541 -0.8562
   96SAPC   H2Y 9400   3.712   0.115   2.256 -1.0162  0.5591 -1.1142
   96SAPC   C23 9401   4.159   0.539   2.520 -0.1280 -0.8815  0.1923
   96SAPC   H3R 9402   4.078   0.474   2.559 -1.9213  1.5656  0.8343
   96SAPC   H3S 9403   4.100   0.632   2.502 -0.3989 -0.5668  2.4384
   96SAPC   C24 9404   4.257   0.547   2.632 -0.0606 -0.0244 -0.1591
   96SAPC   H4R 9405   4.297   0.448   2.663 -1.3214  0.2904  2.8310
   96SAPC   H4S 9406   4.202   0.595   2.716 -0.2370  1.4415 -1.0736
   96SAPC   C25 9407   4.376   0.635   2.598 -0.6293  0.2868 -0.2640
   96SAPC   H5R 9408   4.373   0.694   2.505 -1.5936  0.6958  0.0184
   96SAPC   C26 9409   4.483   0.652   2.681  0.1599 -0.0719  0.2790
   96SAPC   H6R 9410   4.564   0.711   2.636 -1.5892  1.8112 -0.5681
   96SAPC   C27 9411   4.505   0.573   2.810 -0.4447  0.7529 -0.8225
   96SAPC   H7R 9412   4.499   0.464   2.793 -0.3774  0.6219 -0.0549
   96SAPC   H7S 9413   4.418   0.592   2.878  0.7579  1.5396  0.5478
   96SAPC   C28 9414   4.622   0.618   2.897 -0.0070  0.8372 -0.2548
   96SAPC   H8R 9415   4.697   0.679   2.844  1.5762  1.3573  2.4349
   96SAPC   C29 9416   4.640   0.592   3.028  0.2840  0.5937 -0.5505
   96SAPC   H9R 9417   4.727   0.641   3.074  0.3453 -0.5427  0.6106
   96SAPC  C210 9418   4.552   0.520   3.128 -0.0945  0.0667 -0.8220
   96SAPC  H10R 9419   4.453   0.504   3.080 -0.8949 -0.6174  0.9580
   96SAPC  H10S 9420   4.543   0.582   3.219 -0.4351 -3.2717  1.6318
   96SAPC  C211 9421   4.635   0.395   3.165  0.0213  0.3477  0.0301
   96SAPC  H11R 9422   4.668   0.328   3.085 -0.1773  0.0248  0.2169
   96SAPC  C212 9423   4.675   0.365   3.291 -0.2913 -0.2621  0.0165
   96SAPC  H12R 9424   4.728   0.269   3.299  0.1023 -0.2458 -1.9170
   96SAPC  C213 9425   4.636   0.444   3.414 -0.5092  0.3622  0.4632
   96SAPC  H13R 9426   4.672   0.548   3.394  1.0356 -0.5374 -1.8649
   96SAPC  H13S 9427   4.694   0.408   3.502 -2.7492 -1.3299  1.3314
   96SAPC  C214 9428   4.489   0.439   3.437  0.4331  0.1361  0.1039
   96SAPC  H14R 9429   4.422   0.426   3.351 -1.2150  2.1655  0.9847
   96SAPC  C215 9430   4.427   0.467   3.551  0.8439  0.0587  0.1298
   96SAPC  H15R 9431   4.319   0.444   3.553  0.3892  2.0357  1.5461
   96SAPC  C216 9432   4.484   0.502   3.686  0.1823 -0.5154 -0.4692
   96SAPC  H16R 9433   4.430   0.595   3.715  0.9411  0.1250 -1.0670
   96SAPC  H16S 9434   4.589   0.537   3.671  0.1658 -0.4302 -0.3857
   96SAPC  C217 9435   4.478   0.393   3.791  0.0506  0.3304  0.7307
   96SAPC  H17R 9436   4.543   0.412   3.879 -1.0276 -0.1237  1.6479
   96SAPC  H17S 9437   4.523   0.302   3.745  0.2887 -0.2357  2.0602
   96SAPC  C218 9438   4.331   0.378   3.838 -0.3120 -0.2208 -0.7300
   96SAPC  H18R 9439   4.267   0.331   3.761 -1.8104 -0.8654  0.8707
   96SAPC  H18S 9440   4.295   0.481   3.861  0.2063 -0.2755  0.4075
   96SAPC  C219 9441   4.334   0.294   3.966 -0.5779  0.1978 -0.0274
   96SAPC  H19R 9442   4.416   0.319   4.037  1.2465 -1.2814 -1.5036
   96SAPC  H19S 9443   4.358   0.192   3.931 -1.1089 -0.3145  1.0587
   96SAPC  C220 9444   4.201   0.286   4.037  0.0357  1.1904 -0.4738
   96SAPC  H20R 9445   4.174   0.387   4.074  0.4457  1.4379 -0.8375
   96SAPC  H20S 9446   4.207   0.214   4.121  0.5573 -0.2611 -1.6949
   96SAPC  H20T 9447   4.121   0.256   3.965 -0.9712 -0.4533  1.2559
   96SAPC   C33 9448   3.618   0.313   2.290 -0.1675  0.0920 -0.3708
   96SAPC   H3X 9449   3.544   0.290   2.210 -2.3061 -0.2650  1.5901
   96SAPC   H3Y 9450   3.627   0.423   2.298 -1.2790  0.0804  2.2187
   96SAPC   C34 9451   3.548   0.275   2.417  0.1214  0.6279  0.0313
   96SAPC   H4X 9452   3.495   0.180   2.392 -0.4284  0.6160  1.1819
   96SAPC   H4Y 9453   3.464   0.345   2.437 -0.7281 -0.2264 -0.4769
   96SAPC   C35 9454   3.631   0.244   2.541  0.0694 -0.4066  0.6812
   96SAPC   H5X 9455   3.709   0.171   2.511 -0.2598 -0.4385 -0.1346
   96SAPC   H5Y 9456   3.562   0.198   2.614  0.0800 -0.8662  0.4047
   96SAPC   C36 9457   3.696   0.366   2.606  0.0369 -0.1054  0.2737
   96SAPC   H6X 9458   3.613   0.425   2.651 -2.5013 -2.8246 -0.4935
   96SAPC   H6Y 9459   3.751   0.433   2.537 -1.6200 -1.0154 -2.0845
   96SAPC   C37 9460   3.792   0.324   2.717  0.5245  0.0861  0.7038
   96SAPC   H7X 9461   3.880   0.289   2.658  1.4763  0.3386  1.9395
   96SAPC   H7Y 9462   3.743   0.234   2.760  0.0158 -0.1346 -0.2956
   96SAPC   C38 9463   3.845   0.441   2.799  0.1729 -0.0871  0.1407
   96SAPC   H8X 9464   3.765   0.512   2.833  0.0763 -1.4532  3.0946
   96SAPC   H8Y 9465   3.892   0.509   2.725 -0.4954 -0.8703 -1.0222
   96SAPC   C39 9466   3.932   0.402   2.916 -0.3935  0.0102  0.5320
   96SAPC   H9X 9467   4.027   0.359   2.879 -0.1263 -0.3359  1.5852
   96SAPC   H9Y 9468   3.880   0.320   2.970 -1.6626  0.1160 -0.4764
   96SAPC  C310 9469   3.963   0.518   3.011 -0.1286  0.2215 -0.1582
   96SAPC  H10X 9470   3.875   0.529   3.077  0.9827 -0.5103  1.5259
   96SAPC  H10Y 9471   3.966   0.613   2.954 -1.6039  0.2154 -0.2636
   96SAPC  C311 9472   4.079   0.506   3.111  0.4863 -0.3371  0.4781
   96SAPC  H11X 9473   4.163   0.465   3.052 -0.3750 -2.1775  0.4636
   96SAPC  H11Y 9474   4.051   0.432   3.188 -3.3741  1.5278  1.1557
   96SAPC  C312 9475   4.106   0.638   3.171  0.5621 -0.1886  0.1624
   96SAPC  H12X 9476   4.016   0.669   3.228  0.5722  2.8431 -1.2561
   96SAPC  H12Y 9477   4.131   0.711   3.090  0.8950 -1.2044 -0.6720
   96SAPC  C313 9478   4.227   0.632   3.269  0.7968  0.1926 -0.0866
   96SAPC  H13X 9479   4.321   0.601   3.219  1.0231  0.3313  0.2527
   96SAPC  H13Y 9480   4.193   0.550   3.335 -3.2242  0.6492 -1.2606
   96SAPC  C314 9481   4.246   0.755   3.358  0.5334  0.9330 -0.4501
   96SAPC  H14X 9482   4.271   0.832   3.283  0.7904  1.4558  0.1646
   96SAPC  H14Y 9483   4.334   0.736   3.424  0.5204  1.2344 -0.3424
   96SAPC  C315 9484   4.122   0.798   3.439 -0.1358 -0.3764 -0.0037
   96SAPC  H15X 9485   4.064   0.706   3.460 -2.2156  1.2504  1.9520
   96SAPC  H15Y 9486   4.053   0.867   3.386  0.9995  1.4213  0.7596
   96SAPC  C316 9487   4.153   0.877   3.562 -0.0815  0.4271  0.6933
   96SAPC  H16X 9488   4.058   0.924   3.595  0.3711  2.0006 -0.1318
   96SAPC  H16Y 9489   4.222   0.960   3.535  0.2425  0.0682  0.4151
   96SAPC  C317 9490   4.218   0.791   3.670 -0.3413  0.1792 -0.8866
   96SAPC  H17X 9491   4.321   0.766   3.634 -0.3337 -1.4219  0.1550
   96SAPC  H17Y 9492   4.175   0.690   3.655 -0.8692  0.5619 -2.1359
   96SAPC  C318 9493   4.212   0.854   3.806  0.0002 -0.1001 -0.0576
   96SAPC  H18X 9494   4.254   0.957   3.803  0.8830 -0.4105  1.0663
   96SAPC  H18Y 9495   4.269   0.792   3.879 -0.1483 -0.6850 -0.4365
   96SAPC  H18Z 9496   4.110   0.864   3.848 -0.4268  3.8434 -1.6068
   97SAPC     N 9497   4.996   6.415   1.860  0.0726  0.1500  0.3844
   97SAPC   C12 9498   4.939   6.489   1.984  0.0308 -0.0094  0.2364
   97SAPC  H12A 9499   4.900   6.581   1.945 -1.1100 -1.1921 -1.6026
   97SAPC  H12B 9500   5.020   6.509   2.053  1.4654 -2.3422 -0.6169
   97SAPC   C13 9501   4.902   6.415   1.741  0.0865  0.1166  0.2083
   97SAPC  H13A 9502   4.954   6.363   1.662  1.2234  0.0185  0.9929
   97SAPC  H13B 9503   4.808   6.365   1.760  0.1926  0.5765  2.1425
   97SAPC  H13C 9504   4.884   6.513   1.700  1.4288  0.6191  0.7663
   97SAPC   C14 9505   5.122   6.482   1.814 -0.0765 -0.1545 -0.2785
   97SAPC  H14A 9506   5.086   6.582   1.796 -2.5295 -0.7858  0.6692
   97SAPC  H14B 9507   5.189   6.480   1.898 -2.1700  2.4929  1.6419
   97SAPC  H14C 9508   5.163   6.443   1.722 -1.3569  3.4383 -2.6157
   97SAPC   C15 9509   5.034   6.275   1.888  0.7267 -0.0950 -0.3843
   97SAPC  H15A 9510   5.116   6.274   1.958 -1.4511 -0.1138  2.3733
   97SAPC  H15B 9511   4.949   6.223   1.929 -0.0191  0.4254 -1.2375
   97SAPC  H15C 9512   5.051   6.236   1.789 -1.3231 -0.5421 -0.5954
   97SAPC   C11 9513   4.844   6.399   2.074 -0.3457 -0.0491  1.2990
   97SAPC  H11A 9514   4.785   6.346   1.997 -1.8149  4.6820 -1.2612
   97SAPC  H11B 9515   4.789   6.475   2.135 -2.0548 -0.0456 -0.1877
   97SAPC     P 9516   4.844   6.210   2.249 -0.3404 -0.0903  0.1288
   97SAPC   O13 9517   4.755   6.137   2.158 -0.3779 -0.0743 -0.1527
   97SAPC   O14 9518   4.947   6.129   2.320  0.1360  0.3486  0.2520
   97SAPC   O12 9519   4.916   6.321   2.163 -0.0788  0.3004 -0.8528
   97SAPC   O11 9520   4.759   6.286   2.358  0.5756 -0.1356 -0.0637
   97SAPC    C1 9521   4.791   6.417   2.409 -0.0522 -0.1026 -0.1698
   97SAPC    HA 9522   4.795   6.493   2.328 -1.0982  1.1958  0.9412
   97SAPC    HB 9523   4.704   6.451   2.468 -0.8300 -1.4161 -0.5202
   97SAPC    C2 9524   4.924   6.433   2.496  0.3566  0.1934  0.4173
   97SAPC    HS 9525   5.011   6.411   2.431  0.8281  1.3492  0.6377
   97SAPC   O21 9526   4.912   6.344   2.604  0.0328  0.2910 -0.1381
   97SAPC   C21 9527   5.023   6.323   2.667  0.2800 -1.2219  0.4776
   97SAPC   O22 9528   5.129   6.383   2.636  0.1371  0.2126  0.0912
   97SAPC   C22 9529   5.006   6.233   2.783  0.3633 -0.4104  0.0963
   97SAPC   H2R 9530   4.897   6.211   2.784  0.1715  0.0909 -2.5500
   97SAPC   H2S 9531   5.059   6.136   2.768  0.7343 -0.0830 -0.7128
   97SAPC    C3 9532   4.933   6.577   2.549  0.3925  0.4861  0.5169
   97SAPC    HX 9533   4.973   6.641   2.467  1.0392 -1.7082 -0.9997
   97SAPC    HY 9534   5.016   6.577   2.623 -2.1330  0.1890  3.5113
   97SAPC   O31 9535   4.803   6.628   2.596 -0.4627  0.4050  0.2227
   97SAPC   C31 9536   4.818   6.727   2.687  0.0910  0.0381 -0.1667
   97SAPC   O32 9537   4.924   6.769   2.726 -0.1663 -0.7235 -0.0328
   97SAPC   C32 9538   4.679   6.775   2.723  0.2762 -0.3194 -0.5841
   97SAPC   H2X 9539   4.619   6.683   2.735  1.7912 -1.1264  1.5643
   97SAPC   H2Y 9540   4.650   6.849   2.645 -0.8724  0.2232  0.3305
   97SAPC   C23 9541   5.043   6.296   2.917 -0.1495  0.5563  0.5692
   97SAPC   H3R 9542   5.152   6.313   2.919 -0.2239  1.0221  0.7598
   97SAPC   H3S 9543   5.025   6.222   2.997 -1.7827 -0.8821 -1.0323
   97SAPC   C24 9544   4.965   6.423   2.942 -0.0167 -0.0739 -0.3551
   97SAPC   H4R 9545   4.855   6.414   2.953 -0.3798  2.2489 -1.4103
   97SAPC   H4S 9546   4.973   6.484   2.849  0.3810 -1.3182 -1.1646
   97SAPC   C25 9547   5.033   6.501   3.056  0.5277 -0.7501  0.3861
   97SAPC   H5R 9548   5.098   6.584   3.027 -2.1529  1.0392 -0.9458
   97SAPC   C26 9549   5.021   6.472   3.187 -0.5079  0.7091  0.4033
   97SAPC   H6R 9550   5.072   6.539   3.257 -0.6806  1.3599 -0.0778
   97SAPC   C27 9551   4.931   6.376   3.259  0.3231  0.5200 -0.4366
   97SAPC   H7R 9552   4.855   6.324   3.196  1.1363 -1.2393 -0.0461
   97SAPC   H7S 9553   4.866   6.436   3.326 -1.2162 -1.2456 -0.2623
   97SAPC   C28 9554   5.011   6.269   3.327  0.1568 -0.7139 -0.6527
   97SAPC   H8R 9555   5.074   6.206   3.261  1.4425 -2.6748  2.2311
   97SAPC   C29 9556   5.001   6.228   3.453 -0.0947  0.0818 -0.1647
   97SAPC   H9R 9557   5.051   6.133   3.478  0.5628  0.6799  0.8510
   97SAPC  C210 9558   4.914   6.297   3.559 -0.3739 -0.0402  0.5359
   97SAPC  H10R 9559   4.811   6.261   3.580 -0.6442  0.3818 -0.0340
   97SAPC  H10S 9560   4.894   6.401   3.525  1.6809 -0.5690 -2.7157
   97SAPC  C211 9561   4.995   6.299   3.691  0.8293  0.4455 -0.2531
   97SAPC  H11R 9562   5.097   6.258   3.697 -0.0777 -1.7130  2.7512
   97SAPC  C212 9563   4.952   6.362   3.803 -0.0676 -0.1982  0.8256
   97SAPC  H12R 9564   5.015   6.379   3.892  1.6323  1.8519 -0.6531
   97SAPC  C213 9565   4.823   6.439   3.800  1.4618 -0.4095  0.4172
   97SAPC  H13R 9566   4.753   6.387   3.868  0.0612  0.1654 -0.5462
   97SAPC  H13S 9567   4.774   6.447   3.701  1.4576 -0.0759  0.4421
   97SAPC  C214 9568   4.853   6.583   3.846 -0.0982  0.8211  0.7186
   97SAPC  H14R 9569   4.905   6.646   3.772  1.1946  2.2457  2.7207
   97SAPC  C215 9570   4.825   6.645   3.961  0.4864 -0.0600 -0.1480
   97SAPC  H15R 9571   4.833   6.754   3.969 -0.3499 -0.0069  0.1581
   97SAPC  C216 9572   4.760   6.587   4.086  0.1256  0.0457 -0.1842
   97SAPC  H16R 9573   4.796   6.483   4.102 -0.5382 -0.2521 -0.5816
   97SAPC  H16S 9574   4.650   6.574   4.077  0.3608 -0.8420 -2.3799
   97SAPC  C217 9575   4.781   6.664   4.214 -0.0756  0.8449 -0.4779
   97SAPC  H17R 9576   4.725   6.613   4.296  1.6408  0.7616  0.6862
   97SAPC  H17S 9577   4.741   6.767   4.208 -3.6472 -0.3933 -0.6610
   97SAPC  C218 9578   4.927   6.661   4.264 -0.0752 -0.0861 -0.2088
   97SAPC  H18R 9579   4.985   6.738   4.209  0.5042 -1.0737 -1.0089
   97SAPC  H18S 9580   4.966   6.565   4.223 -0.3722 -1.0684  1.7200
   97SAPC  C219 9581   4.962   6.660   4.413  0.4330  0.6450  0.4452
   97SAPC  H19R 9582   5.071   6.647   4.431  0.3499 -0.3690  0.3169
   97SAPC  H19S 9583   4.929   6.566   4.463 -0.0287 -0.5522 -1.9535
   97SAPC  C220 9584   4.905   6.779   4.493  0.1282  0.2480  0.6526
   97SAPC  H20R 9585   4.947   6.784   4.596  1.8341 -0.6388  0.0212
   97SAPC  H20S 9586   4.795   6.765   4.501  0.3855 -2.8806 -0.1937
   97SAPC  H20T 9587   4.916   6.881   4.451  0.5749 -0.0757 -0.0251
   97SAPC   C33 9588   4.668   6.845   2.864  0.2267  0.4448 -0.2509
   97SAPC   H3X 9589   4.575   6.905   2.864  0.4178  0.7715  1.0100
   97SAPC   H3Y 9590   4.742   6.927   2.879 -0.6961  1.4319 -0.9028
   97SAPC   C34 9591   4.666   6.741   2.976 -0.2272  0.1885 -0.2434
   97SAPC   H4X 9592   4.768   6.696   2.981  0.9077  2.1658 -2.7033
   97SAPC   H4Y 9593   4.601   6.659   2.939  1.3724 -1.4869  0.5028
   97SAPC   C35 9594   4.616   6.800   3.110  0.2584  0.3675  0.1160
   97SAPC   H5X 9595   4.505   6.807   3.106  0.2363 -0.2236 -0.5071
   97SAPC   H5Y 9596   4.659   6.903   3.111 -2.8737  1.7937  1.2444
   97SAPC   C36 9597   4.683   6.731   3.231  0.6814 -0.7527  0.2835
   97SAPC   H6X 9598   4.792   6.756   3.231  0.5155  0.0009  1.1580
   97SAPC   H6Y 9599   4.664   6.623   3.213  0.7203 -0.8807  0.9893
   97SAPC   C37 9600   4.618   6.780   3.359 -0.1885 -0.3912  0.6648
   97SAPC   H7X 9601   4.512   6.747   3.365 -0.7007  1.0996  0.2518
   97SAPC   H7Y 9602   4.620   6.891   3.353 -0.8806 -0.4527 -1.4448
   97SAPC   C38 9603   4.692   6.745   3.494 -0.0778 -0.7206  0.4790
   97SAPC   H8X 9604   4.796   6.780   3.507 -0.2743 -0.3467  1.0798
   97SAPC   H8Y 9605   4.707   6.635   3.499 -0.2732 -0.7808 -0.1327
   97SAPC   C39 9606   4.621   6.791   3.625 -0.1053 -0.8641  0.2921
   97SAPC   H9X 9607   4.639   6.900   3.639 -0.1750 -0.7020 -0.7777
   97SAPC   H9Y 9608   4.661   6.738   3.714 -1.8807 -0.2888  1.4868
   97SAPC  C310 9609   4.469   6.761   3.632 -0.0292 -0.5537  0.5015
   97SAPC  H10X 9610   4.436   6.671   3.577 -2.2510  1.6733 -2.1104
   97SAPC  H10Y 9611   4.424   6.839   3.567  2.1403 -1.7864 -2.7561
   97SAPC  C311 9612   4.413   6.759   3.773  0.1627  0.1999 -0.2046
   97SAPC  H11X 9613   4.304   6.749   3.751  0.1349 -0.0815  0.0541
   97SAPC  H11Y 9614   4.421   6.864   3.806  0.3281  1.4845 -3.8389
   97SAPC  C312 9615   4.458   6.641   3.870 -0.2599 -0.8236 -0.4154
   97SAPC  H12X 9616   4.552   6.665   3.924 -0.5501 -0.7558  0.0633
   97SAPC  H12Y 9617   4.472   6.549   3.810  0.6331 -0.7271 -0.3665
   97SAPC  C313 9618   4.353   6.614   3.974  0.5072 -0.1184 -0.9915
   97SAPC  H13X 9619   4.397   6.532   4.035 -0.4946  0.8149  1.0697
   97SAPC  H13Y 9620   4.253   6.593   3.932 -1.2332  1.7874  1.8668
   97SAPC  C314 9621   4.320   6.725   4.081  0.5385  0.4004 -0.1952
   97SAPC  H14X 9622   4.246   6.682   4.152  0.8821 -0.2141 -0.1993
   97SAPC  H14Y 9623   4.248   6.797   4.036  0.8728  0.1237 -1.2136
   97SAPC  C315 9624   4.439   6.779   4.157  0.3192  0.5092  0.0907
   97SAPC  H15X 9625   4.498   6.840   4.085  1.1189  1.3199  1.3870
   97SAPC  H15Y 9626   4.499   6.692   4.193  0.9228 -0.6670 -3.3629
   97SAPC  C316 9627   4.403   6.865   4.283 -0.0434 -0.0795 -0.1323
   97SAPC  H16X 9628   4.345   6.804   4.355  1.0041 -0.7406  0.1717
   97SAPC  H16Y 9629   4.339   6.946   4.242 -0.2236 -0.8431 -1.4040
   97SAPC  C317 9630   4.524   6.941   4.342 -0.0523  0.0477 -0.3641
   97SAPC  H17X 9631   4.589   6.960   4.254  1.7299 -2.9405  0.1872
   97SAPC  H17Y 9632   4.591   6.885   4.410  1.5306  3.0628  0.7253
   97SAPC  C318 9633   4.486   7.080   4.406 -1.2027  0.2354 -0.0190
   97SAPC  H18X 9634   4.423   7.059   4.495  1.0974 -1.1323  1.3952
   97SAPC  H18Y 9635   4.435   7.155   4.342 -3.0001 -0.3614  0.6398
   97SAPC  H18Z 9636   4.578   7.120   4.453 -0.7273 -0.0564 -0.6923
   98SAPC     N 9637   2.165   2.177   2.021  0.6008  0.5220  0.0283
   98SAPC   C12 9638   2.120   2.103   2.149  0.7541 -0.0119  0.1529
   98SAPC  H12A 9639   2.013   2.118   2.158  0.8576  2.9926 -2.1032
   98SAPC  H12B 9640   2.163   2.161   2.229 -2.5601  0.9454  1.4168
   98SAPC   C13 9641   2.313   2.141   1.995  0.0277 -0.0823 -0.0769
   98SAPC  H13A 9642   2.357   2.186   1.907  0.3363 -0.2602 -0.0104
   98SAPC  H13B 9643   2.370   2.177   2.079 -0.2556 -0.9707  0.5051
   98SAPC  H13C 9644   2.330   2.035   1.999 -2.1542 -0.5668 -1.4796
   98SAPC   C14 9645   2.072   2.129   1.909 -0.4624 -0.1943 -0.2913
   98SAPC  H14A 9646   2.077   2.022   1.918  1.2585 -0.0487  0.9233
   98SAPC  H14B 9647   1.969   2.149   1.935 -0.0501 -0.6942  1.9814
   98SAPC  H14C 9648   2.103   2.163   1.811  0.8652  1.8680  0.7623
   98SAPC   C15 9649   2.157   2.329   2.027 -0.1477  0.2106  0.0993
   98SAPC  H15A 9650   2.072   2.368   2.081 -1.0115 -0.4238 -0.7810
   98SAPC  H15B 9651   2.245   2.372   2.075 -0.4632  1.2319 -0.2059
   98SAPC  H15C 9652   2.152   2.369   1.927  0.5852  0.0438 -0.0107
   98SAPC   C11 9653   2.146   1.956   2.166 -0.3645 -0.1256 -0.1851
   98SAPC  H11A 9654   2.103   1.924   2.263  0.1054  3.5281  1.3797
   98SAPC  H11B 9655   2.257   1.947   2.169 -0.2688  0.9945  0.2360
   98SAPC     P 9656   2.106   1.729   2.061  0.2813  0.1568 -0.3690
   98SAPC   O13 9657   2.050   1.686   1.934  0.4531 -0.3579 -0.3379
   98SAPC   O14 9658   2.241   1.687   2.102 -0.3145  0.2449 -0.0194
   98SAPC   O12 9659   2.096   1.882   2.060  0.6796  0.6920 -0.5834
   98SAPC   O11 9660   2.008   1.696   2.187 -0.1970  0.1452  0.3050
   98SAPC    C1 9661   1.922   1.589   2.166 -0.0249  0.0209  0.7497
   98SAPC    HA 9662   1.846   1.618   2.090  0.2892 -0.7346  0.1339
   98SAPC    HB 9663   1.981   1.501   2.133 -2.4286 -1.2994 -0.2467
   98SAPC    C2 9664   1.872   1.540   2.306 -0.3901  0.1842  0.0122
   98SAPC    HS 9665   1.842   1.637   2.350 -3.0674  0.5810 -2.3635
   98SAPC   O21 9666   1.982   1.472   2.384 -0.0296 -0.1972 -0.1911
   98SAPC   C21 9667   1.965   1.484   2.516  0.1080  0.1164 -0.3856
   98SAPC   O22 9668   1.888   1.561   2.571  0.1891  0.1821 -0.0701
   98SAPC   C22 9669   2.044   1.377   2.592 -0.0086  0.4456 -0.4157
   98SAPC   H2R 9670   2.134   1.433   2.626  0.1234 -0.4797  0.8234
   98SAPC   H2S 9671   1.992   1.341   2.684  1.7805  0.3606  0.6052
   98SAPC    C3 9672   1.762   1.436   2.287  0.4260  0.9176 -0.8582
   98SAPC    HX 9673   1.801   1.335   2.262 -1.5095  0.6476 -3.2881
   98SAPC    HY 9674   1.692   1.463   2.204  0.7098 -0.9574 -1.7512
   98SAPC   O31 9675   1.674   1.436   2.409  0.0177 -0.0741  0.0951
   98SAPC   C31 9676   1.626   1.322   2.446 -1.1861 -0.3023  0.4311
   98SAPC   O32 9677   1.658   1.220   2.389 -0.2162  0.2532 -0.3121
   98SAPC   C32 9678   1.529   1.332   2.561  0.1520  0.2010  0.4152
   98SAPC   H2X 9679   1.484   1.233   2.584  2.5866 -0.9758  0.3298
   98SAPC   H2Y 9680   1.459   1.414   2.531  1.3536  1.7659  1.7004
   98SAPC   C23 9681   2.081   1.254   2.505 -0.2901  0.3199 -0.1881
   98SAPC   H3R 9682   2.136   1.279   2.412 -2.0404  0.4252 -1.2477
   98SAPC   H3S 9683   1.989   1.199   2.472  1.0619 -1.4819 -1.1379
   98SAPC   C24 9684   2.167   1.162   2.590 -0.1020 -0.8648  0.9416
   98SAPC   H4R 9685   2.110   1.140   2.683 -4.5656 -1.3352 -1.6292
   98SAPC   H4S 9686   2.261   1.217   2.611 -1.2016  1.4636 -0.0143
   98SAPC   C25 9687   2.202   1.043   2.501  0.1043  1.4529 -0.1215
   98SAPC   H5R 9688   2.288   1.068   2.438  0.5733  0.0221 -0.0950
   98SAPC   C26 9689   2.154   0.916   2.523 -0.9180  0.0186  0.0860
   98SAPC   H6R 9690   2.186   0.843   2.447  1.2921  2.6811 -1.7623
   98SAPC   C27 9691   2.046   0.882   2.625  0.2113 -0.5309  0.5457
   98SAPC   H7R 9692   1.958   0.840   2.572  0.4143  1.0813 -1.1780
   98SAPC   H7S 9693   1.999   0.974   2.667  2.3275  0.6448  0.4768
   98SAPC   C28 9694   2.107   0.792   2.734 -0.0978  0.3995 -0.2895
   98SAPC   H8R 9695   2.143   0.696   2.694 -0.4063  0.5238 -0.8820
   98SAPC   C29 9696   2.139   0.826   2.860 -0.0764  0.1188  0.4697
   98SAPC   H9R 9697   2.183   0.753   2.929  0.4163 -0.5319 -0.5188
   98SAPC  C210 9698   2.114   0.959   2.933 -0.0597 -0.6967 -0.3241
   98SAPC  H10R 9699   2.109   1.050   2.871 -1.1940  0.2928  1.1338
   98SAPC  H10S 9700   2.203   0.988   2.992 -1.5830  0.4823  1.5397
   98SAPC  C211 9701   1.982   0.962   3.012  0.1761 -0.1779  0.5157
   98SAPC  H11R 9702   1.892   0.945   2.953 -0.7339 -1.7627  2.2669
   98SAPC  C212 9703   1.966   0.969   3.143  0.2034  0.1711 -0.3992
   98SAPC  H12R 9704   1.864   0.982   3.181  0.7888  0.0129  1.3109
   98SAPC  C213 9705   2.075   0.989   3.246  0.4424  0.4131 -0.1869
   98SAPC  H13R 9706   2.060   1.088   3.296  1.0837  0.3688  0.1048
   98SAPC  H13S 9707   2.174   1.009   3.199  1.9629 -0.4108  2.4568
   98SAPC  C214 9708   2.072   0.876   3.346  0.4473  0.1671  0.2178
   98SAPC  H14R 9709   2.067   0.776   3.300 -0.6877 -0.7300  2.1725
   98SAPC  C215 9710   2.085   0.882   3.481 -0.6981 -0.5599  0.4811
   98SAPC  H15R 9711   2.078   0.786   3.533 -0.7760 -0.8853 -0.1209
   98SAPC  C216 9712   2.095   0.993   3.578  0.5289 -1.0438 -0.0962
   98SAPC  H16R 9713   1.999   1.028   3.620  0.3964 -2.2809  0.6581
   98SAPC  H16S 9714   2.145   1.081   3.532  0.2107 -0.3014  0.9571
   98SAPC  C217 9715   2.171   0.940   3.701 -0.1165  0.4527 -0.0472
   98SAPC  H17R 9716   2.276   0.917   3.672  0.1729  1.6183  0.0611
   98SAPC  H17S 9717   2.143   0.838   3.736 -0.5998  1.4088  2.5663
   98SAPC  C218 9718   2.185   1.044   3.818 -0.8150  0.1985 -0.0115
   98SAPC  H18R 9719   2.085   1.073   3.857 -0.2656  1.3879  0.5667
   98SAPC  H18S 9720   2.237   1.131   3.772  0.0758  0.0870  0.7790
   98SAPC  C219 9721   2.268   0.975   3.937 -0.4370  0.7129  0.2952
   98SAPC  H19R 9722   2.367   0.954   3.892 -0.8004 -0.1932 -0.0979
   98SAPC  H19S 9723   2.225   0.874   3.954 -0.6894  0.0929 -3.3202
   98SAPC  C220 9724   2.288   1.058   4.059  0.4854  0.6857  0.4959
   98SAPC  H20R 9725   2.359   1.141   4.043  0.5792  0.7832  1.3774
   98SAPC  H20S 9726   2.319   0.989   4.140  0.5072 -0.8163 -0.7219
   98SAPC  H20T 9727   2.185   1.092   4.085  0.1883  0.8663 -0.8013
   98SAPC   C33 9728   1.608   1.379   2.687 -0.4976 -0.0707 -0.4005
   98SAPC   H3X 9729   1.539   1.425   2.760  1.6540  1.0622  1.0574
   98SAPC   H3Y 9730   1.679   1.456   2.650  0.3755 -0.3514  0.6396
   98SAPC   C34 9731   1.706   1.273   2.750 -1.1451  0.2086 -0.3989
   98SAPC   H4X 9732   1.776   1.235   2.673 -0.7782 -0.4226  0.2367
   98SAPC   H4Y 9733   1.657   1.181   2.789  1.4503 -0.3342  1.8954
   98SAPC   C35 9734   1.787   1.332   2.871 -0.4115  0.3198  0.3542
   98SAPC   H5X 9735   1.814   1.435   2.840 -0.1209  0.6644  1.6673
   98SAPC   H5Y 9736   1.883   1.278   2.882  0.7145  1.3469 -3.2012
   98SAPC   C36 9737   1.704   1.327   3.000  0.5014 -0.1783  0.2228
   98SAPC   H6X 9738   1.660   1.225   3.005  2.9675 -1.2540  2.4546
   98SAPC   H6Y 9739   1.621   1.400   2.985  0.8698  0.4403  1.1046
   98SAPC   C37 9740   1.790   1.343   3.128  0.0992  0.1185 -0.0630
   98SAPC   H7X 9741   1.829   1.447   3.129  0.7669 -0.1050 -1.3913
   98SAPC   H7Y 9742   1.868   1.265   3.133 -1.7828 -1.8435  0.4130
   98SAPC   C38 9743   1.706   1.304   3.248  0.0334 -0.4740  0.0348
   98SAPC   H8X 9744   1.689   1.194   3.243 -1.5279 -0.3342  1.3105
   98SAPC   H8Y 9745   1.603   1.347   3.254 -1.0911 -3.1678  1.8919
   98SAPC   C39 9746   1.779   1.337   3.381  0.5678  0.4976 -1.0667
   98SAPC   H9X 9747   1.780   1.445   3.408  3.9867  0.4900 -0.7442
   98SAPC   H9Y 9748   1.885   1.303   3.375  0.4920 -0.5702  2.1317
   98SAPC  C310 9749   1.704   1.270   3.497 -0.3141  0.0693  0.1294
   98SAPC  H10X 9750   1.697   1.161   3.477  0.7230 -0.3363  1.7673
   98SAPC  H10Y 9751   1.595   1.295   3.500 -0.4842 -0.7149  0.7351
   98SAPC  C311 9752   1.769   1.277   3.632 -0.1276  0.0326 -0.0218
   98SAPC  H11X 9753   1.793   1.381   3.664  0.6199 -0.9277  2.8670
   98SAPC  H11Y 9754   1.870   1.235   3.611 -1.1048 -1.8672 -1.2495
   98SAPC  C312 9755   1.686   1.214   3.747 -0.5200 -0.2235  0.7125
   98SAPC  H12X 9756   1.648   1.119   3.703 -2.3541  0.3028  1.0821
   98SAPC  H12Y 9757   1.604   1.283   3.776  0.2261 -0.6455  4.2381
   98SAPC  C313 9758   1.778   1.171   3.858  0.2100 -0.7266  0.1714
   98SAPC  H13X 9759   1.858   1.117   3.804  0.6888 -0.1030  0.2470
   98SAPC  H13Y 9760   1.731   1.094   3.922 -0.9508 -0.7715 -0.7011
   98SAPC  C314 9761   1.807   1.290   3.956  0.0794  0.5905  0.1602
   98SAPC  H14X 9762   1.711   1.336   3.988  0.5448  0.0298  2.5055
   98SAPC  H14Y 9763   1.864   1.362   3.894  0.8091 -0.6573 -0.6596
   98SAPC  C315 9764   1.888   1.245   4.075 -0.6854 -0.6595  0.4477
   98SAPC  H15X 9765   1.987   1.212   4.038 -0.6179 -0.0333  0.0460
   98SAPC  H15Y 9766   1.834   1.164   4.128  0.3142 -0.8081  1.2685
   98SAPC  C316 9767   1.908   1.352   4.182 -0.7992 -0.0812 -0.1430
   98SAPC  H16X 9768   1.984   1.310   4.251  1.5177  2.3446 -1.0121
   98SAPC  H16Y 9769   1.807   1.366   4.226 -1.4707 -2.8405 -0.6359
   98SAPC  C317 9770   1.968   1.496   4.139  0.2907  0.9304  0.7201
   98SAPC  H17X 9771   1.937   1.529   4.038  1.2438  0.0363  0.1153
   98SAPC  H17Y 9772   2.079   1.488   4.129  0.2742  1.3363  0.2423
   98SAPC  C318 9773   1.946   1.598   4.249 -0.2721 -0.3316  0.5170
   98SAPC  H18X 9774   1.988   1.553   4.341  0.9221 -1.1418 -0.3961
   98SAPC  H18Y 9775   1.838   1.616   4.269  0.5003  2.1506  3.0257
   98SAPC  H18Z 9776   2.004   1.692   4.239 -0.4695 -0.1341  1.1796
   99SAPC     N 9777   0.708   4.263   2.047  0.4363 -0.2296 -0.1922
   99SAPC   C12 9778   0.827   4.240   2.143  0.2751  0.0815 -0.4383
   99SAPC  H12A 9779   0.791   4.249   2.245  1.8090 -0.4713  0.1800
   99SAPC  H12B 9780   0.905   4.313   2.129  0.6501 -0.3132 -0.4334
   99SAPC   C13 9781   0.658   4.404   2.072  0.7268 -0.2617  0.3689
   99SAPC  H13A 9782   0.609   4.416   2.168 -1.5003  2.0174 -0.9136
   99SAPC  H13B 9783   0.734   4.480   2.063  0.1498  0.1586 -1.3816
   99SAPC  H13C 9784   0.587   4.427   1.994  1.6365  1.3323 -0.0353
   99SAPC   C14 9785   0.744   4.253   1.909  0.3539 -0.0611  0.0125
   99SAPC  H14A 9786   0.663   4.255   1.837  2.1519 -0.6856 -2.1787
   99SAPC  H14B 9787   0.809   4.334   1.878  1.1984 -0.3727  0.9397
   99SAPC  H14C 9788   0.785   4.154   1.894 -1.5762 -0.8475 -0.4877
   99SAPC   C15 9789   0.596   4.173   2.081  0.0964  0.0599 -0.2665
   99SAPC  H15A 9790   0.625   4.069   2.075  0.0295  0.0958 -1.3216
   99SAPC  H15B 9791   0.550   4.207   2.173 -0.8095 -0.0945 -0.6608
   99SAPC  H15C 9792   0.520   4.193   2.008  1.7031 -0.0832 -2.0505
   99SAPC   C11 9793   0.896   4.089   2.141  0.6372 -0.2363 -0.0265
   99SAPC  H11A 9794   0.996   4.106   2.186  0.7756  0.7181 -0.6562
   99SAPC  H11B 9795   0.924   4.049   2.041  2.1838 -0.3635  0.4442
   99SAPC     P 9796   0.795   4.005   2.364 -0.0986 -0.1264 -0.1204
   99SAPC   O13 9797   0.653   4.016   2.388 -0.1423  0.0141 -0.6213
   99SAPC   O14 9798   0.870   3.888   2.423 -0.1305 -0.2591 -0.1528
   99SAPC   O12 9799   0.816   3.988   2.209 -0.5103 -0.3492 -0.0883
   99SAPC   O11 9800   0.869   4.142   2.414  0.5232 -0.1103  0.2831
   99SAPC    C1 9801   1.009   4.147   2.444  0.9032 -1.2489 -0.6089
   99SAPC    HA 9802   1.071   4.058   2.419 -0.5621 -2.3470 -0.5025
   99SAPC    HB 9803   1.050   4.242   2.404 -0.3618 -0.3497  0.1370
   99SAPC    C2 9804   1.015   4.173   2.596 -0.2118 -0.2195  0.1017
   99SAPC    HS 9805   1.122   4.171   2.624  0.7290 -1.2437 -3.2072
   99SAPC   O21 9806   0.952   4.076   2.676  0.4701 -0.4420  0.0775
   99SAPC   C21 9807   1.024   3.965   2.700  0.3471 -0.2009  0.2088
   99SAPC   O22 9808   1.134   3.940   2.652 -0.2707  0.2238  0.0578
   99SAPC   C22 9809   0.958   3.871   2.804  0.3759 -0.0262  0.3093
   99SAPC   H2R 9810   0.880   3.940   2.844 -1.0155 -0.2643 -1.8475
   99SAPC   H2S 9811   0.905   3.787   2.756 -0.5181  0.2427  0.7964
   99SAPC    C3 9812   0.974   4.313   2.638  0.3897  0.8500 -0.0087
   99SAPC    HX 9813   0.870   4.323   2.602  0.4971  1.5416 -0.1483
   99SAPC    HY 9814   1.029   4.394   2.585 -0.4572  1.7178  0.4037
   99SAPC   O31 9815   0.987   4.336   2.779 -0.3312  0.0208 -0.1571
   99SAPC   C31 9816   0.905   4.445   2.821 -0.4343  0.3349 -0.9711
   99SAPC   O32 9817   0.849   4.513   2.736 -0.0893  0.0457 -0.3469
   99SAPC   C32 9818   0.877   4.445   2.974 -0.1917  0.6694  0.3662
   99SAPC   H2X 9819   0.976   4.442   3.024  0.0106  1.5813  0.0340
   99SAPC   H2Y 9820   0.832   4.351   3.014  1.0963  0.9006  2.5403
   99SAPC   C23 9821   1.052   3.827   2.915 -0.1272 -0.3542 -0.1434
   99SAPC   H3R 9822   1.138   3.771   2.873 -0.3398 -1.7787  1.2249
   99SAPC   H3S 9823   1.011   3.763   2.996  1.6418 -0.1194  0.9938
   99SAPC   C24 9824   1.100   3.948   3.003 -0.2644  0.4286  1.0506
   99SAPC   H4R 9825   1.018   3.994   3.061 -0.2410  0.1399  1.3158
   99SAPC   H4S 9826   1.131   4.026   2.930  2.1561 -1.5195 -0.1811
   99SAPC   C25 9827   1.215   3.897   3.093  0.4964 -1.2589 -0.4822
   99SAPC   H5R 9828   1.305   3.868   3.036  0.9357  1.0081 -1.0241
   99SAPC   C26 9829   1.211   3.906   3.226  0.4443 -0.3331  0.0716
   99SAPC   H6R 9830   1.294   3.865   3.287  0.1699  1.6235  1.9168
   99SAPC   C27 9831   1.101   3.962   3.304 -0.1934  0.1949 -0.2408
   99SAPC   H7R 9832   1.042   4.043   3.256 -0.5884  0.9609  1.4474
   99SAPC   H7S 9833   1.140   4.016   3.393  2.3603 -0.3769 -0.9317
   99SAPC   C28 9834   0.999   3.856   3.338 -0.0761 -0.0205 -0.7255
   99SAPC   H8R 9835   0.966   3.791   3.256  3.0064  0.5931 -2.5803
   99SAPC   C29 9836   0.951   3.841   3.461  0.4499  0.2609  0.2250
   99SAPC   H9R 9837   0.867   3.771   3.471  0.3273  0.4038  0.1896
   99SAPC  C210 9838   0.964   3.912   3.597  0.5254  0.5807  1.0194
   99SAPC  H10R 9839   0.860   3.945   3.619  0.1438 -0.0663  0.2437
   99SAPC  H10S 9840   1.031   3.999   3.582  0.4706  0.6800  1.3395
   99SAPC  C211 9841   1.025   3.825   3.703  0.2064 -0.6643 -0.0215
   99SAPC  H11R 9842   1.086   3.738   3.675  0.2058 -0.4191 -0.8194
   99SAPC  C212 9843   1.003   3.838   3.835 -0.2933 -0.0464  0.6530
   99SAPC  H12R 9844   1.039   3.769   3.913 -0.1808 -0.7071  0.0342
   99SAPC  C213 9845   0.915   3.940   3.898  0.5472 -0.2214 -0.6104
   99SAPC  H13R 9846   0.890   4.019   3.824 -0.6205  1.1993  1.1862
   99SAPC  H13S 9847   0.974   3.986   3.980 -1.9087 -1.2465  1.9326
   99SAPC  C214 9848   0.781   3.887   3.945  0.1491 -0.3072  0.2166
   99SAPC  H14R 9849   0.701   3.882   3.871 -1.6531  2.3156  1.8375
   99SAPC  C215 9850   0.740   3.861   4.069  0.2404  0.1256 -0.3924
   99SAPC  H15R 9851   0.648   3.801   4.071 -0.2573  0.8913  1.5780
   99SAPC  C216 9852   0.820   3.869   4.197  0.4752  0.0284  0.0827
   99SAPC  H16R 9853   0.894   3.949   4.176 -1.9841  2.3166 -0.4202
   99SAPC  H16S 9854   0.872   3.772   4.216 -0.9796 -0.2650  3.1886
   99SAPC  C217 9855   0.728   3.923   4.316 -0.3069  0.3374 -0.3323
   99SAPC  H17R 9856   0.646   3.849   4.330 -0.4361  0.3416 -1.0295
   99SAPC  H17S 9857   0.680   4.021   4.295  0.0778  0.6087  0.0436
   99SAPC  C218 9858   0.796   3.921   4.453 -0.5797  0.9297  0.1699
   99SAPC  H18R 9859   0.888   3.984   4.449 -0.2860  0.4584 -1.9092
   99SAPC  H18S 9860   0.827   3.819   4.481  0.1984  0.8743 -0.8174
   99SAPC  C219 9861   0.711   3.975   4.566  0.0463 -0.1420  0.1392
   99SAPC  H19R 9862   0.629   3.901   4.583 -1.9213  1.9692  0.2568
   99SAPC  H19S 9863   0.680   4.070   4.520  2.1952 -0.6084 -2.5299
   99SAPC  C220 9864   0.781   3.977   4.703 -0.5603 -0.6036 -0.2760
   99SAPC  H20R 9865   0.759   3.898   4.778  0.1437 -0.3832  0.1738
   99SAPC  H20S 9866   0.739   4.064   4.758 -0.4951 -0.7016 -0.0694
   99SAPC  H20T 9867   0.890   3.998   4.703 -0.4372 -1.1651  0.4116
   99SAPC   C33 9868   0.791   4.560   3.035 -0.1593  1.1304 -0.1174
   99SAPC   H3X 9869   0.703   4.584   2.972  0.7749  0.0986 -1.8882
   99SAPC   H3Y 9870   0.850   4.655   3.030  0.8097  0.6055  0.8398
   99SAPC   C34 9871   0.759   4.540   3.179  0.1311  0.6490  0.2242
   99SAPC   H4X 9872   0.697   4.449   3.191 -0.4069  0.9955  0.1356
   99SAPC   H4Y 9873   0.681   4.611   3.216 -0.4376  0.2831 -0.2702
   99SAPC   C35 9874   0.862   4.552   3.287  0.1617  0.1316 -0.5852
   99SAPC   H5X 9875   0.925   4.643   3.275 -0.5171  0.9322  1.4602
   99SAPC   H5Y 9876   0.926   4.462   3.298 -2.0337 -1.3862  0.4676
   99SAPC   C36 9877   0.787   4.564   3.420 -0.1683 -0.4026 -0.1972
   99SAPC   H6X 9878   0.723   4.475   3.434  0.9762 -1.5766 -2.0461
   99SAPC   H6Y 9879   0.729   4.658   3.419  0.2474 -0.1336  0.1677
   99SAPC   C37 9880   0.888   4.580   3.539  0.8491 -1.0019  0.4664
   99SAPC   H7X 9881   0.839   4.651   3.610  0.8614 -1.8133  1.3005
   99SAPC   H7Y 9882   0.987   4.624   3.516  0.6670 -0.0405  1.4249
   99SAPC   C38 9883   0.904   4.449   3.617 -0.7257  0.3437  0.0002
   99SAPC   H8X 9884   0.962   4.380   3.552  1.6923  1.9444  0.3458
   99SAPC   H8Y 9885   0.803   4.403   3.622 -0.9545  0.8578  0.1035
   99SAPC   C39 9886   0.967   4.453   3.761 -0.3964  0.3297 -0.4122
   99SAPC   H9X 9887   0.892   4.507   3.823 -2.2063  0.6362 -2.7398
   99SAPC   H9Y 9888   1.062   4.511   3.760  0.5002 -0.7053  3.7420
   99SAPC  C310 9889   0.993   4.316   3.808  0.2677  0.6664 -0.3624
   99SAPC  H10X 9890   1.056   4.250   3.745 -1.6431 -2.2670  0.6164
   99SAPC  H10Y 9891   0.896   4.263   3.806  1.4819 -1.7910  0.8814
   99SAPC  C311 9892   1.034   4.311   3.953 -0.2974 -0.6400  0.4143
   99SAPC  H11X 9893   1.115   4.380   3.984 -2.3452  1.5040  1.3066
   99SAPC  H11Y 9894   1.075   4.210   3.978  0.9384  0.0363  1.2196
   99SAPC  C312 9895   0.910   4.324   4.040  0.0304 -0.1965 -0.6156
   99SAPC  H12X 9896   0.836   4.240   4.039  0.4887 -0.6743  1.4748
   99SAPC  H12Y 9897   0.852   4.417   4.022 -0.5943 -0.6383 -0.9385
   99SAPC  C313 9898   0.954   4.320   4.188 -0.0907  0.0859  0.0425
   99SAPC  H13X 9899   1.031   4.395   4.218 -0.9150  1.4795 -1.1613
   99SAPC  H13Y 9900   0.996   4.222   4.219 -1.7835 -0.4420  0.7798
   99SAPC  C314 9901   0.842   4.354   4.288  0.2749  0.2655  0.1024
   99SAPC  H14X 9902   0.759   4.282   4.269  1.1409 -0.4724 -0.9943
   99SAPC  H14Y 9903   0.798   4.454   4.270 -1.3080 -0.2114  1.1047
   99SAPC  C315 9904   0.893   4.343   4.432  0.2704 -0.2109 -0.1534
   99SAPC  H15X 9905   0.954   4.433   4.452 -0.4811  0.3392 -0.3059
   99SAPC  H15Y 9906   0.956   4.252   4.442  0.9611  0.3692  0.9545
   99SAPC  C316 9907   0.790   4.367   4.542 -0.1143 -0.0707  0.0652
   99SAPC  H16X 9908   0.839   4.371   4.642 -1.0897  0.9732  0.5314
   99SAPC  H16Y 9909   0.719   4.282   4.552 -0.1969  0.1693  1.9385
   99SAPC  C317 9910   0.718   4.503   4.522  0.7120  0.1553 -0.5962
   99SAPC  H17X 9911   0.649   4.504   4.435 -3.5359  0.9318  2.4552
   99SAPC  H17Y 9912   0.792   4.585   4.510  0.1470  0.5542 -1.3930
   99SAPC  C318 9913   0.633   4.532   4.641  0.9218  0.3799 -0.0276
   99SAPC  H18X 9914   0.560   4.451   4.661 -1.2835  2.5394  1.2653
   99SAPC  H18Y 9915   0.567   4.620   4.627  0.0370 -0.1132  0.9045
   99SAPC  H18Z 9916   0.681   4.555   4.739  0.4532  0.1623  0.2568
  100SAPC     N 9917   4.393   2.748   2.515 -0.4663  0.1770  0.1721
  100SAPC   C12 9918   4.477   2.806   2.622 -0.5907 -0.6372  0.3871
  100SAPC  H12A 9919   4.433   2.894   2.667  0.2753 -0.6809  1.3671
  100SAPC  H12B 9920   4.569   2.836   2.573 -0.7529  2.6840  1.8651
  100SAPC   C13 9921   4.263   2.687   2.560  0.0435 -0.6929  1.1290
  100SAPC  H13A 9922   4.223   2.633   2.475  0.5021  2.0034 -0.9266
  100SAPC  H13B 9923   4.285   2.622   2.644  0.5187 -1.7173  0.2406
  100SAPC  H13C 9924   4.203   2.769   2.597 -2.8316 -2.2115  0.1917
  100SAPC   C14 9925   4.369   2.860   2.416  0.8323  0.2195  0.1024
  100SAPC  H14A 9926   4.317   2.819   2.330  1.2089 -1.5420  0.6640
  100SAPC  H14B 9927   4.303   2.924   2.471  0.7281 -1.6625  2.3121
  100SAPC  H14C 9928   4.458   2.904   2.373  0.7760  1.2410  1.0087
  100SAPC   C15 9929   4.469   2.639   2.436  0.9628 -0.1989 -0.1603
  100SAPC  H15A 9930   4.507   2.567   2.507 -0.2923 -1.4525 -0.7000
  100SAPC  H15B 9931   4.405   2.600   2.358  0.4527  4.1865 -2.2124
  100SAPC  H15C 9932   4.550   2.684   2.381 -0.7970  0.4393 -2.3918
  100SAPC   C11 9933   4.518   2.706   2.729 -0.0208 -0.3506 -0.7160
  100SAPC  H11A 9934   4.432   2.661   2.783  1.4335 -1.2062  1.0137
  100SAPC  H11B 9935   4.572   2.762   2.809 -0.1084 -1.7561  0.3848
  100SAPC     P 9936   4.756   2.618   2.671 -0.2318 -0.1066 -0.4918
  100SAPC   O13 9937   4.794   2.560   2.544  0.3597  0.1157 -0.1253
  100SAPC   O14 9938   4.797   2.762   2.688  0.1558  0.5003 -0.1647
  100SAPC   O12 9939   4.600   2.601   2.682 -0.4601  0.1114  0.2424
  100SAPC   O11 9940   4.808   2.532   2.788 -0.0666  0.2220  0.6433
  100SAPC    C1 9941   4.799   2.387   2.807  0.5732  0.3407  0.0212
  100SAPC    HA 9942   4.704   2.354   2.759 -0.5948  3.7409 -0.2907
  100SAPC    HB 9943   4.894   2.343   2.769  0.6815  0.7599 -0.1983
  100SAPC    C2 9944   4.794   2.352   2.960 -0.2070  0.0868 -0.1913
  100SAPC    HS 9945   4.775   2.242   2.959 -2.0020  0.3594  0.1123
  100SAPC   O21 9946   4.679   2.416   3.029 -0.0967 -0.0736  0.9119
  100SAPC   C21 9947   4.560   2.366   2.999  0.3115 -0.1608 -0.6659
  100SAPC   O22 9948   4.545   2.256   2.948 -0.2455 -0.9022 -0.6583
  100SAPC   C22 9949   4.449   2.457   3.046  0.2788 -0.5061  0.8431
  100SAPC   H2R 9950   4.486   2.559   3.069 -0.4535  0.1331 -0.6908
  100SAPC   H2S 9951   4.375   2.464   2.963  1.3348 -0.8899 -0.1630
  100SAPC    C3 9952   4.933   2.383   3.039  0.3146  0.2687 -0.9138
  100SAPC    HX 9953   4.958   2.491   3.031  1.7626 -0.0960 -1.4691
  100SAPC    HY 9954   5.017   2.343   2.978 -0.4267  1.7356 -3.0125
  100SAPC   O31 9955   4.930   2.325   3.166  0.4213 -0.3630  0.3072
  100SAPC   C31 9956   4.888   2.404   3.263  0.1901  0.1778  0.5986
  100SAPC   O32 9957   4.836   2.513   3.247  0.3224  0.3060 -0.0772
  100SAPC   C32 9958   4.921   2.334   3.396  0.1175 -0.3328  0.1668
  100SAPC   H2X 9959   5.031   2.323   3.395 -0.0665 -2.9504 -0.9091
  100SAPC   H2Y 9960   4.867   2.236   3.398 -0.5336  0.0268  1.4055
  100SAPC   C23 9961   4.364   2.396   3.171 -0.5964  0.5102 -0.0775
  100SAPC   H3R 9962   4.330   2.295   3.140  3.1002 -0.9294  0.1533
  100SAPC   H3S 9963   4.283   2.472   3.181 -1.1552 -0.1844  0.7644
  100SAPC   C24 9964   4.464   2.377   3.291 -0.2441  0.0048  0.3380
  100SAPC   H4R 9965   4.558   2.320   3.272 -1.2299 -1.7981  0.6317
  100SAPC   H4S 9966   4.407   2.312   3.361 -0.8449 -0.4697 -0.5787
  100SAPC   C25 9967   4.513   2.509   3.352  0.1366  0.0150  0.0301
  100SAPC   H5R 9968   4.573   2.572   3.285  0.2641 -0.1062  0.0295
  100SAPC   C26 9969   4.461   2.568   3.462 -0.1460 -0.0773  0.1130
  100SAPC   H6R 9970   4.499   2.663   3.504  1.3667 -0.2148 -0.8639
  100SAPC   C27 9971   4.372   2.487   3.553 -0.1151  0.6149 -0.2360
  100SAPC   H7R 9972   4.438   2.406   3.591 -0.7270 -0.4565 -1.3785
  100SAPC   H7S 9973   4.285   2.443   3.499 -0.0937 -0.7067  0.7581
  100SAPC   C28 9974   4.306   2.554   3.672 -0.0769 -0.0296  1.3963
  100SAPC   H8R 9975   4.344   2.519   3.769  1.3433  1.4425  1.4183
  100SAPC   C29 9976   4.245   2.670   3.674 -0.2263 -0.3807  1.1337
  100SAPC   H9R 9977   4.200   2.697   3.770 -1.7609 -2.2095  0.9804
  100SAPC  C210 9978   4.200   2.747   3.547 -0.2927 -0.0575 -0.4186
  100SAPC  H10R 9979   4.223   2.698   3.450 -2.1494 -0.6420 -0.6075
  100SAPC  H10S 9980   4.241   2.850   3.557 -0.5304  0.0487 -0.5203
  100SAPC  C211 9981   4.053   2.755   3.556  0.6315  0.2143 -0.2125
  100SAPC  H11R 9982   4.013   2.731   3.655 -1.3624  0.7511 -0.8224
  100SAPC  C212 9983   3.962   2.765   3.454  0.4898  0.0338  0.2831
  100SAPC  H12R 9984   3.853   2.766   3.467  0.1554 -1.0955 -1.9804
  100SAPC  C213 9985   3.996   2.798   3.313 -0.4485 -0.5480 -0.7556
  100SAPC  H13R 9986   4.105   2.816   3.302 -0.1074 -1.7098  0.4365
  100SAPC  H13S 9987   3.955   2.898   3.287 -0.9421 -0.7904 -0.9155
  100SAPC  C214 9988   3.975   2.699   3.210  0.1123  0.7997 -0.1347
  100SAPC  H14R 9989   4.062   2.638   3.183 -1.0196 -1.0597  0.2326
  100SAPC  C215 9990   3.847   2.680   3.158 -0.2900  0.7244  0.2329
  100SAPC  H15R 9991   3.828   2.587   3.102 -0.6286  0.6532  0.4644
  100SAPC  C216 9992   3.718   2.750   3.202 -0.2786 -0.0733 -0.1706
  100SAPC  H16R 9993   3.643   2.779   3.125 -0.6881 -0.6589  0.0021
  100SAPC  H16S 9994   3.747   2.852   3.234  1.5027 -1.1821  2.0288
  100SAPC  C217 9995   3.642   2.667   3.306  0.5807  0.0113 -0.3243
  100SAPC  H17R 9996   3.568   2.723   3.367  1.3890  0.6433  0.0959
  100SAPC  H17S 9997   3.715   2.613   3.370 -0.7761 -0.3269  0.9733
  100SAPC  C218 9998   3.545   2.569   3.237  0.8019  0.4570 -0.3144
  100SAPC  H18R 9999   3.589   2.502   3.161  0.1819 -2.4558  1.7428
  100SAPC  H18S10000   3.459   2.625   3.194  0.7617  0.2610 -0.4898
  100SAPC  C21910001   3.487   2.478   3.348 -0.2828  0.0498 -0.6764
  100SAPC  H19R10002   3.414   2.534   3.411  1.5209  1.5945  0.1353
  100SAPC  H19S10003   3.573   2.454   3.413 -1.3311 -2.6253 -0.1369
  100SAPC  C22010004   3.432   2.351   3.293 -0.5998  0.6899 -0.7850
  100SAPC  H20R10005   3.372   2.375   3.203 -0.3409  1.1322 -0.8378
  100SAPC  H20S10006   3.374   2.292   3.367  0.2268 -2.2972 -2.3307
  100SAPC  H20T10007   3.515   2.282   3.265 -0.3926  0.3396  0.6254
  100SAPC   C3310008   4.866   2.412   3.509  0.5330 -0.6537 -0.7237
  100SAPC   H3X10009   4.761   2.440   3.489  0.5037 -0.6575 -0.5749
  100SAPC   H3Y10010   4.922   2.507   3.526  1.1866 -1.6123  3.4534
  100SAPC   C3410011   4.894   2.342   3.646  0.5877 -0.6215 -0.4566
  100SAPC   H4X10012   4.996   2.302   3.659  0.4029 -0.6385  1.1697
  100SAPC   H4Y10013   4.810   2.271   3.662 -0.9819  0.8647 -1.6563
  100SAPC   C3510014   4.873   2.440   3.762 -0.0659 -0.3400 -0.2798
  100SAPC   H5X10015   4.781   2.500   3.745  1.9206  2.2527 -2.7083
  100SAPC   H5Y10016   4.956   2.512   3.750 -0.7904  0.1962 -2.5725
  100SAPC   C3610017   4.868   2.367   3.900  0.3366  0.3643  0.5330
  100SAPC   H6X10018   4.956   2.299   3.901  0.3408  0.3386 -0.4283
  100SAPC   H6Y10019   4.780   2.301   3.908 -0.2935  1.2806  1.3684
  100SAPC   C3710020   4.870   2.450   4.031 -0.0671  0.7718 -0.0206
  100SAPC   H7X10021   4.925   2.547   4.026  1.2983  0.0321  0.0870
  100SAPC   H7Y10022   4.927   2.387   4.103 -0.0538 -0.7165 -1.2869
  100SAPC   C3810023   4.734   2.474   4.092 -0.6663  1.2030  0.3821
  100SAPC   H8X10024   4.686   2.375   4.109 -0.5000  1.2300  1.0306
  100SAPC   H8Y10025   4.659   2.513   4.020 -2.2846  1.4465  2.1055
  100SAPC   C3910026   4.744   2.556   4.227  0.2093  0.6209  0.7980
  100SAPC   H9X10027   4.807   2.644   4.203 -0.0661  0.5592 -0.2039
  100SAPC   H9Y10028   4.800   2.497   4.303 -0.8947 -1.2276  0.2416
  100SAPC  C31010029   4.612   2.618   4.285 -0.1406 -0.5598  1.0599
  100SAPC  H10X10030   4.542   2.676   4.221 -0.5545 -1.3333  0.7880
  100SAPC  H10Y10031   4.648   2.676   4.372 -0.4244  1.1400  0.0938
  100SAPC  C31110032   4.522   2.509   4.342  0.6003  0.1395 -0.6523
  100SAPC  H11X10033   4.583   2.437   4.399  0.4363  1.7849  1.7584
  100SAPC  H11Y10034   4.484   2.455   4.252 -0.1634 -0.2702 -0.0919
  100SAPC  C31210035   4.396   2.564   4.415  0.4444  0.3469 -0.8620
  100SAPC  H12X10036   4.341   2.640   4.354  0.8658  2.9153  1.7486
  100SAPC  H12Y10037   4.434   2.624   4.500  1.4532 -0.6071 -0.6200
  100SAPC  C31310038   4.298   2.459   4.472  0.4167  0.6738  0.9963
  100SAPC  H13X10039   4.331   2.411   4.567  0.1712  1.4233  1.4716
  100SAPC  H13Y10040   4.298   2.383   4.391 -2.0226  0.3568  1.2262
  100SAPC  C31410041   4.157   2.505   4.473  0.6314 -0.0781 -1.0658
  100SAPC  H14X10042   4.089   2.429   4.516 -0.5384  0.7360 -1.4105
  100SAPC  H14Y10043   4.117   2.536   4.374  2.4146  1.7722 -1.2698
  100SAPC  C31510044   4.126   2.640   4.552  0.2136  0.3261  1.0545
  100SAPC  H15X10045   4.022   2.668   4.525 -1.0722 -1.4520  3.7421
  100SAPC  H15Y10046   4.195   2.720   4.517  0.8772 -1.3931 -1.9531
  100SAPC  C31610047   4.139   2.629   4.701 -0.6900  0.2078 -0.1780
  100SAPC  H16X10048   4.247   2.630   4.730 -0.3052  0.3969 -1.5643
  100SAPC  H16Y10049   4.093   2.530   4.722 -0.9580  0.4491  0.3949
  100SAPC  C31710050   4.067   2.737   4.782 -0.0833 -0.3458  0.3408
  100SAPC  H17X10051   3.973   2.768   4.732  0.2043  1.6244  0.9101
  100SAPC  H17Y10052   4.114   2.837   4.775 -0.1115 -0.3598 -0.0640
  100SAPC  C31810053   4.027   2.704   4.930 -0.4979 -0.2946  0.1869
  100SAPC  H18X10054   3.958   2.784   4.963  1.7657  1.6517  0.5312
  100SAPC  H18Y10055   4.111   2.706   5.003 -0.7215 -0.4815  0.4477
  100SAPC  H18Z10056   3.963   2.616   4.949 -3.0834  1.6941  1.1764
  101OSM      N10057   6.410   2.087   6.914 -0.2589  0.0905 -0.3759
  101OSM    C1510058   6.437   2.047   6.774 -0.1315  0.0974  0.7182
  101OSM   H15A10059   6.483   1.949   6.765 -0.8181 -0.0616 -2.3587
  101OSM   H15B10060   6.503   2.117   6.725  0.5511 -1.7163 -1.0928
  101OSM   H15C10061   6.343   2.045   6.720  0.3958 -0.7197 -0.2236
  101OSM    C1410062   6.531   2.088   7.001  0.4155  0.0439 -0.1051
  101OSM   H14A10063   6.613   2.154   6.975  1.8639 -1.7675 -0.3746
  101OSM   H14B10064   6.576   1.990   7.001  1.5006  0.4516 -2.5974
  101OSM   H14C10065   6.499   2.106   7.102  1.3242  0.8351  0.0686
  101OSM    C1310066   6.368   2.229   6.912 -0.9460 -0.5211 -0.5748
  101OSM   H13A10067   6.286   2.259   6.849 -1.2073  0.0693  0.0348
  101OSM   H13B10068   6.451   2.283   6.869 -1.2160 -1.0118 -1.7436
  101OSM   H13C10069   6.360   2.264   7.014  0.1244 -1.3956 -0.1629
  101OSM    C1210070   6.300   1.998   6.964 -0.3979 -0.3637 -0.1436
  101OSM   H12A10071   6.293   2.004   7.071  0.2557 -0.3580 -0.0934
  101OSM   H12B10072   6.341   1.899   6.949  1.7863  0.0889  2.2495
  101OSM    C1110073   6.160   2.003   6.892 -0.5710  0.5413  0.3618
  101OSM   H11A10074   6.134   2.110   6.878 -0.7556  0.2635 -1.9027
  101OSM   H11B10075   6.083   1.958   6.958 -0.8806  0.2503 -0.1840
  101OSM      P10076   6.167   1.772   6.769 -0.1049  0.0929  0.4656
  101OSM    O1310077   6.297   1.725   6.815 -0.3795  0.1816 -0.2215
  101OSM    O1410078   6.041   1.723   6.822 -0.0872 -0.1162 -0.6686
  101OSM    O1110079   6.162   1.737   6.613  0.3873 -0.3720 -1.0912
  101OSM    O1210080   6.165   1.929   6.769 -0.1166  0.0564 -0.0024
  101OSM    C1S10081   6.061   1.652   6.565 -0.3548 -0.4175 -0.2488
  101OSM    H1S10082   5.960   1.700   6.568 -0.6111 -0.9761  1.5377
  101OSM    H1T10083   6.052   1.554   6.616  3.1712 -1.1355 -0.7888
  101OSM     NF10084   5.984   1.591   6.319 -0.1243 -0.3797 -0.3324
  101OSM    HNF10085   5.985   1.519   6.250 -1.0974 -1.4994  0.7701
  101OSM    C2S10086   6.096   1.608   6.417 -0.9742  0.5433  0.8171
  101OSM    H2S10087   6.158   1.686   6.368 -1.3770 -0.9007 -2.2355
  101OSM    C3S10088   6.200   1.494   6.420  0.2338 -0.4590 -0.3533
  101OSM    H3S10089   6.149   1.400   6.452 -1.0460  0.4043  0.2318
  101OSM     O310090   6.307   1.500   6.503 -0.2478 -0.0489 -0.5338
  101OSM    HO310091   6.298   1.581   6.553 -0.4363 -0.1162 -0.4577
  101OSM    C4S10092   6.257   1.460   6.280 -0.9600 -0.0252  0.6801
  101OSM    H4S10093   6.189   1.401   6.217 -1.6947  2.5059 -1.0906
  101OSM    C5S10094   6.374   1.503   6.222 -0.6071  0.1298  0.5368
  101OSM    H5S10095   6.441   1.563   6.287  0.8599 -1.8910  0.9754
  101OSM    C6S10096   6.410   1.471   6.075  0.3227  0.4121  0.4552
  101OSM    H6S10097   6.346   1.394   6.028  0.9872 -0.1216  0.3971
  101OSM    H6T10098   6.510   1.426   6.056 -0.2265  0.3358 -2.7940
  101OSM    C7S10099   6.412   1.588   5.976 -0.5357 -0.7450 -0.0984
  101OSM    H7S10100   6.487   1.667   5.993 -1.6270 -0.1368  2.1764
  101OSM    H7T10101   6.314   1.637   5.995  0.9676  1.0876  3.9381
  101OSM    C8S10102   6.411   1.529   5.828  0.0358 -0.1568 -0.0061
  101OSM    H8S10103   6.349   1.438   5.828 -1.7895  1.0115 -1.5504
  101OSM    H8T10104   6.513   1.489   5.807 -0.8902 -2.8807  0.3054
  101OSM    C9S10105   6.362   1.618   5.708 -0.4995 -0.3323  0.3706
  101OSM    H9S10106   6.417   1.712   5.732 -1.2409  0.4016 -0.7172
  101OSM    H9T10107   6.256   1.648   5.695 -0.1866 -0.1087 -2.1816
  101OSM   C10S10108   6.434   1.581   5.575 -0.3059  0.3236  0.1120
  101OSM   H10S10109   6.371   1.505   5.522 -0.3262  0.2523  0.2388
  101OSM   H10T10110   6.523   1.519   5.598  1.3949  1.6700 -2.3370
  101OSM   C11S10111   6.482   1.693   5.477 -0.9378  0.5784 -0.2192
  101OSM   H11S10112   6.567   1.748   5.522  0.7522 -0.3373 -2.0995
  101OSM   H11T10113   6.396   1.760   5.457 -0.6149  0.4256 -2.3436
  101OSM   C12S10114   6.537   1.642   5.340 -0.5482 -0.4439  0.1182
  101OSM   H12S10115   6.460   1.585   5.283 -0.1279 -1.2710  0.3659
  101OSM   H12T10116   6.623   1.573   5.356 -1.0324 -1.1848 -0.3935
  101OSM   C13S10117   6.589   1.759   5.257 -0.2237  0.5704 -0.5667
  101OSM   H13S10118   6.667   1.818   5.309  2.1340 -1.9377 -0.9972
  101OSM   H13T10119   6.504   1.824   5.230 -0.0304  1.4033  0.7405
  101OSM   C14S10120   6.652   1.707   5.121 -0.3228  0.0524 -0.1300
  101OSM   H14S10121   6.577   1.650   5.062 -0.4946  0.3213 -0.1737
  101OSM   H14T10122   6.741   1.642   5.129 -0.6987 -0.6623 -1.4380
  101OSM   C15S10123   6.706   1.817   5.028  0.0339  0.1188 -0.2219
  101OSM   H15S10124   6.788   1.868   5.084  0.4457  1.1634 -1.6783
  101OSM   H15T10125   6.632   1.900   5.019  2.0482  1.7943 -4.3670
  101OSM   C16S10126   6.749   1.771   4.889  0.2481 -0.6990  0.2714
  101OSM   H16S10127   6.804   1.675   4.877 -1.1076 -1.2796 -1.9392
  101OSM   H16T10128   6.812   1.858   4.859 -0.0003 -0.6452 -0.0995
  101OSM   C17S10129   6.623   1.776   4.792 -0.6052  0.2741  0.6271
  101OSM   H17S10130   6.582   1.879   4.799  0.6055  1.0867 -2.3474
  101OSM   H17T10131   6.558   1.695   4.831 -0.7512 -0.1316 -0.4224
  101OSM   C18S10132   6.646   1.752   4.646  0.3022 -0.2897  0.5805
  101OSM   H18S10133   6.707   1.832   4.598 -0.2774  0.4366  1.0342
  101OSM   H18T10134   6.544   1.763   4.603 -0.0970 -0.1790  1.5417
  101OSM   H18U10135   6.690   1.653   4.624 -5.2647 -2.5349 -2.4313
  101OSM    C1F10136   5.891   1.686   6.297 -0.2393 -0.2033  0.6238
  101OSM     OF10137   5.897   1.794   6.357 -0.4362  0.2237  0.7541
  101OSM    C2F10138   5.791   1.661   6.189  1.1393  0.0772  0.0271
  101OSM    H2F10139   5.781   1.551   6.186  0.1996  0.1616 -0.3175
  101OSM    H2G10140   5.813   1.685   6.083 -1.0429 -1.2116 -0.7881
  101OSM    C3F10141   5.653   1.718   6.231  0.3984 -0.7537  0.0817
  101OSM    H3F10142   5.657   1.820   6.274 -1.4629 -0.6111 -0.0133
  101OSM    H3G10143   5.618   1.641   6.302  1.3908 -0.1344  1.2785
  101OSM    C4F10144   5.556   1.731   6.115 -0.6723  0.0226  0.1480
  101OSM    H4F10145   5.450   1.744   6.146 -1.3965 -0.8436 -1.8298
  101OSM    H4G10146   5.558   1.638   6.055  0.6274 -1.3939  2.2539
  101OSM    C5F10147   5.600   1.852   6.022  0.1201 -0.0426 -1.2093
  101OSM    H5F10148   5.700   1.831   5.978  0.7892 -0.7945  0.5531
  101OSM    H5G10149   5.612   1.942   6.086  0.6460 -1.1198  0.2826
  101OSM    C6F10150   5.499   1.874   5.914  0.4638  0.9085  0.1282
  101OSM    H6F10151   5.406   1.859   5.973  0.7358 -1.0347  0.1138
  101OSM    H6G10152   5.509   1.793   5.839 -1.0281  0.7070  0.1160
  101OSM    C7F10153   5.512   2.011   5.849 -0.9280  0.6587 -1.2291
  101OSM    H7F10154   5.499   2.093   5.923 -0.7260  0.5881 -1.1132
  101OSM    H7G10155   5.427   2.021   5.778 -0.1341 -0.0610 -2.3159
  101OSM    C8F10156   5.643   2.042   5.767 -0.4513  0.4012 -0.4239
  101OSM    H8F10157   5.661   1.955   5.700 -2.1758 -0.1603 -0.2125
  101OSM    H8G10158   5.735   2.041   5.829 -0.9315 -0.1521  0.2970
  101OSM    C9F10159   5.641   2.172   5.691 -0.1152  0.1781 -0.3123
  101OSM    H9F10160   5.626   2.263   5.750  1.2487  0.0233  0.3024
  101OSM   C10F10161   5.673   2.192   5.562  0.3215 -0.3091 -0.6103
  101OSM   H10F10162   5.671   2.292   5.517 -0.7827 -0.2166 -0.3671
  101OSM   C11F10163   5.711   2.084   5.458 -0.3753  0.2648  0.0085
  101OSM   H11F10164   5.659   1.989   5.483 -1.3723  0.9003  0.4169
  101OSM   H11G10165   5.820   2.064   5.471 -0.5963 -0.3376  0.9988
  101OSM   C12F10166   5.678   2.114   5.317 -0.5299  0.0967 -0.0133
  101OSM   H12F10167   5.718   2.213   5.284 -2.2094  0.6249 -0.5630
  101OSM   H12G10168   5.570   2.109   5.290 -0.5827 -0.6690  0.3262
  101OSM   C13F10169   5.741   2.008   5.236  0.4704 -0.6052  0.3634
  101OSM   H13F10170   5.744   1.916   5.298 -2.0541  0.1480  1.7874
  101OSM   H13G10171   5.847   2.030   5.214  0.3436  1.4684  1.5627
  101OSM   C14F10172   5.655   1.972   5.114  0.4331 -0.6250  0.6431
  101OSM   H14F10173   5.630   2.061   5.052  0.2762 -0.8886  0.3198
  101OSM   H14G10174   5.563   1.919   5.148 -0.7984  1.0098 -0.0140
  101OSM   C15F10175   5.728   1.883   5.019  0.1248  0.8866  0.2348
  101OSM   H15F10176   5.778   1.804   5.079  1.0152 -0.3425 -1.9847
  101OSM   H15G10177   5.808   1.941   4.966  1.4259  0.6149  1.8179
  101OSM   C16F10178   5.648   1.802   4.915 -0.5404 -0.0893 -0.1832
  101OSM   H16F10179   5.582   1.746   4.984 -1.6956  0.8400 -0.4977
  101OSM   H16G10180   5.711   1.727   4.865 -0.0515 -1.0481  1.7622
  101OSM   C17F10181   5.583   1.887   4.805 -0.2903 -0.2598 -0.4490
  101OSM   H17F10182   5.529   1.974   4.845  0.0733  0.0250 -0.5694
  101OSM   H17G10183   5.505   1.821   4.762 -1.6825  0.7375  0.4676
  101OSM   C18F10184   5.677   1.917   4.687 -0.4888 -0.3869  0.6506
  101OSM   H18F10185   5.745   1.999   4.719 -0.2357 -1.3162  2.6543
  101OSM   H18G10186   5.619   1.949   4.598 -0.0489  2.2754  1.2301
  101OSM   H18H10187   5.730   1.828   4.648 -0.7523 -0.3859  0.2880
  102OSM      N10188   0.894   0.895   6.816 -0.1989 -0.3064 -0.4205
  102OSM    C1510189   0.793   0.988   6.757 -0.4698 -0.1557  0.0052
  102OSM   H15A10190   0.718   1.020   6.828  0.8071  0.9492  0.9128
  102OSM   H15B10191   0.744   0.939   6.674  1.7657 -0.1751 -1.3714
  102OSM   H15C10192   0.842   1.070   6.707  0.1587 -0.7259 -0.3392
  102OSM    C1410193   0.973   0.979   6.916  0.7855  0.4494  1.2543
  102OSM   H14A10194   1.046   0.916   6.965  1.0679  0.5067  0.9130
  102OSM   H14B10195   0.913   1.019   6.996  0.5424  1.5197  0.5578
  102OSM   H14C10196   1.028   1.058   6.866  1.0241 -1.7942 -2.3803
  102OSM    C1310197   0.819   0.792   6.896  0.2523 -0.0766  0.7129
  102OSM   H13A10198   0.758   0.820   6.980 -0.8561 -0.5834  0.0945
  102OSM   H13B10199   0.892   0.720   6.930  1.0974  0.3878 -0.0472
  102OSM   H13C10200   0.750   0.746   6.827 -0.3537  1.9337 -0.1066
  102OSM    C1210201   1.000   0.838   6.720 -0.6917  0.2836 -0.2110
  102OSM   H12A10202   1.068   0.772   6.771 -0.2544  1.2254  0.4585
  102OSM   H12B10203   1.056   0.923   6.684 -1.2937  1.6742  1.9993
  102OSM    C1110204   0.953   0.761   6.597  0.2815 -0.5332 -0.4017
  102OSM   H11A10205   1.028   0.745   6.517  1.0016 -0.6951  0.2838
  102OSM   H11B10206   0.881   0.831   6.550 -0.2552 -0.1526  0.9271
  102OSM      P10207   0.967   0.509   6.660 -0.3947 -0.0235  0.1191
  102OSM    O1310208   1.099   0.543   6.709 -0.0675 -0.3997  0.0894
  102OSM    O1410209   0.880   0.421   6.742 -0.0056 -0.1951 -0.0291
  102OSM    O1110210   0.987   0.441   6.517 -0.1855  0.4644  0.3358
  102OSM    O1210211   0.885   0.641   6.635  0.2788  0.0110 -0.2993
  102OSM    C1S10212   0.870   0.460   6.428 -0.0718 -0.9959 -0.3559
  102OSM    H1S10213   0.843   0.567   6.419  3.3434 -0.1239 -1.9615
  102OSM    H1T10214   0.785   0.400   6.466 -2.5536  0.3218 -3.3984
  102OSM     NF10215   0.760   0.419   6.206 -0.5959  0.7886  0.0987
  102OSM    HNF10216   0.705   0.337   6.193 -1.1705  1.3600 -1.2473
  102OSM    C2S10217   0.883   0.399   6.282  0.7398 -0.2304  0.0555
  102OSM    H2S10218   0.965   0.460   6.240 -0.2219  0.1374 -1.3383
  102OSM    C3S10219   0.937   0.259   6.299  0.7030  0.7647  0.5941
  102OSM    H3S10220   0.870   0.207   6.371 -0.2445  0.4078 -0.5146
  102OSM     O310221   1.064   0.245   6.358  0.2097  0.2373  0.0472
  102OSM    HO310222   1.081   0.328   6.403  2.9077  1.5226 -2.8776
  102OSM    C4S10223   0.945   0.194   6.168  0.0474 -0.6379 -0.3645
  102OSM    H4S10224   1.004   0.253   6.096 -0.8051  0.5775 -0.0888
  102OSM    C5S10225   0.912   0.066   6.140 -0.0042  0.4264  0.0322
  102OSM    H5S10226   0.890   0.003   6.227  0.9296  2.7810  2.0924
  102OSM    C6S10227   0.951  -0.004   6.014  0.3709  0.6045  0.0610
  102OSM    H6S10228   0.857  -0.054   5.984 -0.5749  3.3446 -1.9574
  102OSM    H6T10229   1.020  -0.090   6.032  0.4941  0.5182 -0.7902
  102OSM    C7S10230   0.996   0.091   5.898  0.1059  0.7150  0.2805
  102OSM    H7S10231   1.091   0.143   5.924  1.5750 -1.0774 -1.2295
  102OSM    H7T10232   0.909   0.160   5.894 -0.7647 -0.3464  0.6232
  102OSM    C8S10233   0.999   0.018   5.766 -0.6096  0.3148 -0.8501
  102OSM    H8S10234   0.900  -0.030   5.751 -0.1467 -0.1985 -2.4724
  102OSM    H8T10235   1.075  -0.063   5.769 -0.5321  0.3800 -1.0494
  102OSM    C9S10236   1.039   0.109   5.641 -0.5670  0.1423  0.2219
  102OSM    H9S10237   1.141   0.144   5.667 -1.0262  0.2340  2.0390
  102OSM    H9T10238   0.971   0.196   5.636 -0.1958  0.4120 -0.1531
  102OSM   C10S10239   1.058   0.044   5.503 -0.0529 -0.7169  0.0478
  102OSM   H10S10240   0.963  -0.004   5.472 -0.1078 -1.3681  1.1567
  102OSM   H10T10241   1.134  -0.037   5.500  1.8014  0.9684 -0.9048
  102OSM   C11S10242   1.103   0.145   5.403  0.1563 -0.1224 -0.3116
  102OSM   H11S10243   1.162   0.227   5.447  2.0062 -1.2473 -0.6066
  102OSM   H11T10244   1.011   0.196   5.367  0.1178  1.2492  1.5763
  102OSM   C12S10245   1.167   0.082   5.287 -0.7373 -0.1292  0.0725
  102OSM   H12S10246   1.107  -0.005   5.252 -2.8975 -0.0595  3.1774
  102OSM   H12T10247   1.266   0.056   5.332 -1.2035  0.4815  1.5069
  102OSM   C13S10248   1.183   0.178   5.163  0.1862 -0.4859 -0.0048
  102OSM   H13S10249   1.194   0.282   5.200 -1.5420  0.3117 -1.5633
  102OSM   H13T10250   1.088   0.175   5.106  1.0183 -0.9789 -1.4239
  102OSM   C14S10251   1.295   0.144   5.067 -0.1173  0.3628  0.0664
  102OSM   H14S10252   1.289   0.040   5.031 -0.5640 -1.0120  3.6742
  102OSM   H14T10253   1.386   0.150   5.132  1.1191  0.9815 -1.6498
  102OSM   C15S10254   1.327   0.243   4.951  0.7436  0.3283 -0.1563
  102OSM   H15S10255   1.345   0.344   4.992  3.4232  0.0455 -0.4214
  102OSM   H15T10256   1.235   0.234   4.889 -0.2470 -4.3187  1.5814
  102OSM   C16S10257   1.446   0.199   4.867  0.0855 -0.4654  0.7850
  102OSM   H16S10258   1.424   0.095   4.835 -0.4887 -0.2811  0.5448
  102OSM   H16T10259   1.536   0.208   4.932  0.1607 -0.1165  0.6357
  102OSM   C17S10260   1.453   0.290   4.744 -0.4800 -0.0135 -0.2043
  102OSM   H17S10261   1.478   0.387   4.792  2.5221  0.1127 -1.7873
  102OSM   H17T10262   1.352   0.292   4.699  0.4680 -0.6529 -2.5247
  102OSM   C18S10263   1.564   0.250   4.646  0.5044 -0.1005  0.2468
  102OSM   H18S10264   1.515   0.248   4.546  1.2469  0.2436 -0.1298
  102OSM   H18T10265   1.604   0.149   4.670 -0.0598 -0.1461  1.0495
  102OSM   H18U10266   1.645   0.326   4.652  0.3879  0.1012 -0.6074
  102OSM    C1F10267   0.707   0.534   6.179  0.0479  0.0216 -0.0711
  102OSM     OF10268   0.754   0.643   6.217 -0.3282  0.8583  0.3350
  102OSM    C2F10269   0.582   0.530   6.095 -0.2020  0.8433  0.3556
  102OSM    H2F10270   0.498   0.486   6.154 -0.5097  0.3476 -0.4313
  102OSM    H2G10271   0.582   0.465   6.005 -0.6769  1.1104  0.1564
  102OSM    C3F10272   0.532   0.672   6.034 -0.7857  0.4740 -0.1452
  102OSM    H3F10273   0.528   0.741   6.121 -1.1008 -0.0099  0.2291
  102OSM    H3G10274   0.432   0.671   5.984 -0.4393 -0.0130 -0.8428
  102OSM    C4F10275   0.627   0.724   5.925  0.1648 -0.6954 -0.0208
  102OSM    H4F10276   0.585   0.699   5.825 -0.6883  0.5196  0.0029
  102OSM    H4G10277   0.730   0.685   5.931  1.7039  2.8316 -0.8904
  102OSM    C5F10278   0.650   0.875   5.937 -0.4932 -0.4627  0.0680
  102OSM    H5F10279   0.748   0.879   5.883 -0.1206  0.4653  0.7893
  102OSM    H5G10280   0.661   0.895   6.046  0.3824 -0.8225  0.0590
  102OSM    C6F10281   0.554   0.962   5.855 -0.0069  0.1392  0.5699
  102OSM    H6F10282   0.453   0.955   5.902  0.4157  0.2041  1.5267
  102OSM    H6G10283   0.539   0.930   5.750  0.2739  1.8619 -0.0230
  102OSM    C7F10284   0.597   1.112   5.857  0.5907 -0.5508 -0.2123
  102OSM    H7F10285   0.677   1.125   5.781 -0.4503 -2.2734 -1.6940
  102OSM    H7G10286   0.646   1.137   5.953 -1.5932 -0.4300  0.9263
  102OSM    C8F10287   0.475   1.208   5.827  0.7635  0.2291  0.4730
  102OSM    H8F10288   0.405   1.192   5.912 -0.0072 -2.0495 -0.4907
  102OSM    H8G10289   0.419   1.158   5.745  1.4263  2.8194 -1.6788
  102OSM    C9F10290   0.518   1.348   5.798  0.7872 -0.5493  0.2891
  102OSM    H9F10291   0.560   1.399   5.886  0.2668  0.4805 -0.0514
  102OSM   C10F10292   0.520   1.411   5.682 -0.3504  0.4017  0.1966
  102OSM   H10F10293   0.551   1.516   5.690 -1.3301  0.7515 -0.4401
  102OSM   C11F10294   0.456   1.356   5.552 -0.8416 -0.2231  0.1843
  102OSM   H11F10295   0.354   1.386   5.519 -1.1719 -1.7574 -0.2851
  102OSM   H11G10296   0.472   1.247   5.541  1.4101  0.2046 -1.5823
  102OSM   C12F10297   0.540   1.408   5.435 -0.2330 -0.6511 -0.0978
  102OSM   H12F10298   0.649   1.388   5.445  0.3366  2.3999  0.8044
  102OSM   H12G10299   0.541   1.517   5.412  1.8506 -0.8039 -0.9898
  102OSM   C13F10300   0.493   1.338   5.303  0.0806 -0.5284  0.0750
  102OSM   H13F10301   0.386   1.363   5.288  0.4778  0.0365 -2.2191
  102OSM   H13G10302   0.514   1.229   5.304  0.0009 -0.5434  0.3541
  102OSM   C14F10303   0.552   1.400   5.173 -0.1128 -0.2249 -0.2669
  102OSM   H14F10304   0.661   1.378   5.177 -0.5228 -2.8976 -1.3961
  102OSM   H14G10305   0.549   1.511   5.173 -0.2383 -0.2276  0.1700
  102OSM   C15F10306   0.508   1.341   5.039  0.6234 -0.6169 -0.1631
  102OSM   H15F10307   0.403   1.371   5.016  1.0217  0.5404 -0.5583
  102OSM   H15G10308   0.511   1.231   5.048 -0.3083 -0.7096 -0.7884
  102OSM   C16F10309   0.603   1.368   4.919 -0.4979  0.5727  0.9717
  102OSM   H16F10310   0.589   1.295   4.837  3.2368 -0.2372  0.9035
  102OSM   H16G10311   0.707   1.347   4.951  0.2859  1.7082 -0.7215
  102OSM   C17F10312   0.585   1.513   4.871 -0.8712 -0.7505 -0.2112
  102OSM   H17F10313   0.608   1.582   4.955  0.7669  0.2094 -1.3894
  102OSM   H17G10314   0.479   1.533   4.842 -0.6176  0.1553 -0.5429
  102OSM   C18F10315   0.666   1.562   4.756 -0.8786 -0.6563  0.3213
  102OSM   H18F10316   0.663   1.483   4.678  0.4958 -0.4890  0.0896
  102OSM   H18G10317   0.772   1.556   4.786 -0.8123  0.0247  0.2384
  102OSM   H18H10318   0.629   1.657   4.711  0.4500 -0.6369 -0.7665
  103OSM      N10319   3.812   1.771   6.431  0.2404 -0.1023  0.0504
  103OSM    C1510320   3.886   1.709   6.311  0.2260 -0.2506  0.3035
  103OSM   H15A10321   3.957   1.641   6.356 -3.0816 -2.5141  2.5490
  103OSM   H15B10322   3.918   1.788   6.245 -0.2025 -0.0316  0.3540
  103OSM   H15C10323   3.804   1.665   6.256 -0.8083  2.1892 -0.2629
  103OSM    C1410324   3.904   1.833   6.531  0.1367 -0.5921  0.8615
  103OSM   H14A10325   3.984   1.764   6.553  0.2745 -1.8638 -2.8024
  103OSM   H14B10326   3.860   1.886   6.614  2.3829  0.4279  1.4636
  103OSM   H14C10327   3.963   1.909   6.483  0.0114 -1.4545 -0.7632
  103OSM    C1310328   3.705   1.865   6.379  0.4285 -0.1329 -0.2411
  103OSM   H13A10329   3.646   1.900   6.462 -0.8306  1.1187 -1.5978
  103OSM   H13B10330   3.644   1.805   6.313 -0.8776 -2.2579  2.6648
  103OSM   H13C10331   3.741   1.951   6.324 -0.7293  0.0345 -0.7650
  103OSM    C1210332   3.733   1.653   6.500 -0.2174  0.1165  0.7914
  103OSM   H12A10333   3.808   1.584   6.536  2.6223  2.9059  0.6340
  103OSM   H12B10334   3.684   1.595   6.423  4.0308 -3.0860  0.0897
  103OSM    C1110335   3.628   1.679   6.610  0.2120  0.0917  0.4209
  103OSM   H11A10336   3.668   1.736   6.696 -0.7223  1.0321  0.2656
  103OSM   H11B10337   3.602   1.578   6.648 -0.2621  0.4604  1.1090
  103OSM      P10338   3.404   1.811   6.659  0.2512  0.4711  0.0787
  103OSM    O1310339   3.407   1.752   6.792 -0.1129 -0.1678 -0.2975
  103OSM    O1410340   3.422   1.957   6.656 -0.0161  0.5506 -0.4632
  103OSM    O1110341   3.276   1.769   6.587  0.1223 -0.2266 -0.4679
  103OSM    O1210342   3.507   1.744   6.565  0.1999  0.3874 -0.5833
  103OSM    C1S10343   3.256   1.791   6.451  0.2621  0.0805  1.1083
  103OSM    H1S10344   3.280   1.895   6.420  0.2740 -0.4309 -0.7174
  103OSM    H1T10345   3.146   1.783   6.436  0.3006 -1.7062  1.5524
  103OSM     NF10346   3.274   1.726   6.214 -0.5368 -0.2553  0.3981
  103OSM    HNF10347   3.183   1.691   6.196 -1.1682  0.5245  1.8369
  103OSM    C2S10348   3.314   1.687   6.347  0.0770 -0.4351  1.1052
  103OSM    H2S10349   3.425   1.686   6.339 -0.0364 -1.5816 -1.3441
  103OSM    C3S10350   3.277   1.540   6.382 -0.2382 -0.2831 -0.2239
  103OSM    H3S10351   3.166   1.536   6.383 -0.5829  4.0833 -0.9496
  103OSM     O310352   3.320   1.495   6.512  0.0345 -0.3276 -0.3147
  103OSM    HO310353   3.318   1.575   6.564 -0.7844 -1.6676  1.8679
  103OSM    C4S10354   3.342   1.445   6.292  0.1156  0.5543  0.3714
  103OSM    H4S10355   3.439   1.481   6.254  0.1511  0.5868  0.4942
  103OSM    C5S10356   3.281   1.337   6.232 -0.1542 -0.2876  0.5245
  103OSM    H5S10357   3.173   1.327   6.246 -0.3917 -0.2018 -1.0655
  103OSM    C6S10358   3.342   1.239   6.137 -0.5112  0.3595  0.0678
  103OSM    H6S10359   3.327   1.134   6.169 -1.8717  0.6951  0.6273
  103OSM    H6T10360   3.453   1.247   6.136 -0.3028 -1.9778  0.0798
  103OSM    C7S10361   3.304   1.259   5.990 -0.9289 -0.0993  0.8319
  103OSM    H7S10362   3.314   1.364   5.956  0.2504 -0.1495  0.9875
  103OSM    H7T10363   3.195   1.240   5.985 -1.2605  1.5805  1.2363
  103OSM    C8S10364   3.375   1.163   5.893 -0.3500  0.9170  0.2184
  103OSM    H8S10365   3.360   1.064   5.942  1.7991  0.4686  0.0539
  103OSM    H8T10366   3.484   1.183   5.902  0.4552 -2.4480 -0.7501
  103OSM    C9S10367   3.326   1.170   5.747  0.3253  0.7103 -0.1184
  103OSM    H9S10368   3.398   1.118   5.679 -2.6475 -1.6195 -1.7228
  103OSM    H9T10369   3.321   1.276   5.714 -0.2831  0.6938 -0.0921
  103OSM   C10S10370   3.184   1.111   5.718  0.1185  0.2643 -0.3661
  103OSM   H10S10371   3.125   1.145   5.806  3.1032  1.4757  1.2855
  103OSM   H10T10372   3.194   1.000   5.708  1.2174  0.3116  0.0817
  103OSM   C11S10373   3.138   1.170   5.581 -0.3714  0.1117 -0.1504
  103OSM   H11S10374   3.154   1.280   5.588  0.0589 -0.0684  3.3502
  103OSM   H11T10375   3.031   1.147   5.563 -1.2863  2.3545  1.9740
  103OSM   C12S10376   3.228   1.113   5.469  0.1140 -0.7901  0.5174
  103OSM   H12S10377   3.240   1.003   5.484  2.1652 -0.5056  1.2476
  103OSM   H12T10378   3.332   1.151   5.477 -0.4090  0.5822  0.9693
  103OSM   C13S10379   3.188   1.149   5.324 -0.0409 -0.5393 -0.7813
  103OSM   H13S10380   3.190   1.260   5.321 -3.1976 -0.3754 -0.0450
  103OSM   H13T10381   3.081   1.125   5.306 -0.2455 -1.8801  1.7568
  103OSM   C14S10382   3.277   1.094   5.211 -0.6595 -0.3451 -0.4164
  103OSM   H14S10383   3.277   0.986   5.238  1.3585 -0.3473 -0.3099
  103OSM   H14T10384   3.377   1.140   5.221 -1.5459  1.4628  0.7707
  103OSM   C15S10385   3.207   1.130   5.082 -0.7501 -0.5306  0.6019
  103OSM   H15S10386   3.179   1.237   5.083 -0.3105 -0.3041 -2.1940
  103OSM   H15T10387   3.108   1.078   5.078 -0.9233 -0.1773  0.2470
  103OSM   C16S10388   3.283   1.096   4.951 -0.5559 -0.0506  0.1927
  103OSM   H16S10389   3.212   1.109   4.866  0.1306  1.5015 -0.1723
  103OSM   H16T10390   3.320   0.992   4.939 -0.6770 -0.0647 -0.0835
  103OSM   C17S10391   3.390   1.201   4.918 -0.9555  1.1709  0.4597
  103OSM   H17S10392   3.479   1.184   4.983  1.6906 -1.9984 -3.4815
  103OSM   H17T10393   3.340   1.299   4.938 -1.2479  0.9135  1.0231
  103OSM   C18S10394   3.434   1.191   4.776  0.5574  0.3885  0.6186
  103OSM   H18S10395   3.357   1.232   4.707  1.6959 -1.4364 -1.9137
  103OSM   H18T10396   3.446   1.091   4.728  2.3391  1.1959 -0.7238
  103OSM   H18U10397   3.525   1.250   4.753  0.7085  0.4516  1.3646
  103OSM    C1F10398   3.327   1.832   6.143  0.0640 -0.1348  0.2789
  103OSM     OF10399   3.425   1.895   6.172  0.3522 -0.3063  0.1449
  103OSM    C2F10400   3.246   1.874   6.022 -0.1457 -0.4677  0.8633
  103OSM    H2F10401   3.173   1.954   6.046  1.7948  1.4879  0.5189
  103OSM    H2G10402   3.199   1.779   5.988 -0.4172  0.1933 -0.6983
  103OSM    C3F10403   3.335   1.919   5.894 -0.3516  1.2018  0.5686
  103OSM    H3F10404   3.396   1.834   5.856 -1.2294 -0.8140  3.2866
  103OSM    H3G10405   3.402   2.001   5.928  0.4250  0.4973  0.7862
  103OSM    C4F10406   3.245   1.986   5.788 -0.5751 -0.4084  0.9034
  103OSM    H4F10407   3.315   2.048   5.728  0.3260 -1.6951  0.5544
  103OSM    H4G10408   3.169   2.053   5.832 -1.0921 -1.2442  1.3240
  103OSM    C5F10409   3.159   1.888   5.701  0.0532 -0.4880 -0.3935
  103OSM    H5F10410   3.066   1.867   5.759 -0.3833 -0.9010 -1.2267
  103OSM    H5G10411   3.207   1.793   5.670  1.5009  0.0215  0.2117
  103OSM    C6F10412   3.117   1.959   5.575 -0.3042  0.0128  0.0348
  103OSM    H6F10413   3.112   2.068   5.592 -3.3498  0.4713 -2.6453
  103OSM    H6G10414   3.014   1.931   5.543 -0.2291  1.1003 -1.2761
  103OSM    C7F10415   3.225   1.934   5.466 -0.6349 -0.7337 -0.4156
  103OSM    H7F10416   3.220   1.829   5.432  1.8122 -0.2187 -2.7571
  103OSM    H7G10417   3.315   1.953   5.529 -0.7267  2.1537 -1.0042
  103OSM    C8F10418   3.231   2.025   5.342 -0.9551  0.6181 -0.4527
  103OSM    H8F10419   3.333   2.009   5.301 -0.5003  0.2603  0.7810
  103OSM    H8G10420   3.229   2.132   5.370 -1.0469  0.5454 -0.1834
  103OSM    C9F10421   3.122   1.984   5.252  0.0903  0.3898 -0.8132
  103OSM    H9F10422   3.019   2.017   5.272 -0.2521 -1.5851  0.9276
  103OSM   C10F10423   3.131   1.923   5.130 -0.5811 -0.0657 -0.2429
  103OSM   H10F10424   3.041   1.923   5.067 -0.1799 -2.7926 -0.9164
  103OSM   C11F10425   3.266   1.885   5.060 -0.5556  0.4284 -0.3915
  103OSM   H11F10426   3.269   1.781   5.020  0.0715  0.3845 -0.2348
  103OSM   H11G10427   3.349   1.902   5.132 -1.9496  1.4549  1.0681
  103OSM   C12F10428   3.307   1.986   4.938 -0.2706 -1.1990  0.5414
  103OSM   H12F10429   3.410   1.958   4.908  0.5580  0.2029  1.9446
  103OSM   H12G10430   3.316   2.083   4.990 -0.9711 -0.9814  0.2631
  103OSM   C13F10431   3.205   1.996   4.819 -0.5403  0.0044 -0.3327
  103OSM   H13F10432   3.105   2.012   4.865 -0.3034 -0.4678  0.3671
  103OSM   H13G10433   3.195   1.907   4.754  0.1142 -1.1276  1.0618
  103OSM   C14F10434   3.234   2.117   4.720 -0.3991  0.7586 -0.5415
  103OSM   H14F10435   3.280   2.197   4.782  0.5591  1.2488 -1.8311
  103OSM   H14G10436   3.139   2.168   4.693 -0.8206 -0.4936 -1.5187
  103OSM   C15F10437   3.298   2.068   4.582  1.2489  0.1394 -0.5516
  103OSM   H15F10438   3.383   2.005   4.614  0.9013  0.3946  0.9777
  103OSM   H15G10439   3.326   2.155   4.519 -0.2629 -0.1109 -1.6305
  103OSM   C16F10440   3.192   1.987   4.506 -0.0384 -0.1778  0.6867
  103OSM   H16F10441   3.094   2.039   4.497 -0.2942 -0.6910  0.4595
  103OSM   H16G10442   3.178   1.889   4.555  0.3242 -1.6743 -1.9880
  103OSM   C17F10443   3.237   1.952   4.362 -0.4488  0.8713 -0.1636
  103OSM   H17F10444   3.325   1.885   4.363 -1.6061 -0.7078  0.1872
  103OSM   H17G10445   3.277   2.045   4.316  0.2633  1.4994  1.6299
  103OSM   C18F10446   3.125   1.893   4.268  0.0042  0.3203 -0.5438
  103OSM   H18F10447   3.069   1.816   4.325 -0.6080 -0.0507 -1.6213
  103OSM   H18G10448   3.164   1.857   4.170 -0.3365  0.5186 -0.7536
  103OSM   H18H10449   3.056   1.976   4.244 -0.4217  0.3701  0.7854
  104OSM      N10450   4.569   0.924   6.964 -0.3700 -1.0657 -0.0510
  104OSM    C1510451   4.436   0.985   6.951 -0.4471 -0.2108 -0.3612
  104OSM   H15A10452   4.402   0.986   6.848 -0.2531  0.6762 -0.4274
  104OSM   H15B10453   4.439   1.089   6.982  0.5119  0.0981 -1.4059
  104OSM   H15C10454   4.365   0.932   7.013  0.0654 -0.5453 -0.0559
  104OSM    C1410455   4.597   0.895   7.105  0.0387 -0.4955  0.5014
  104OSM   H14A10456   4.669   0.814   7.111 -0.1862 -0.6651  0.9497
  104OSM   H14B10457   4.513   0.850   7.156 -1.3324 -0.5429 -1.6534
  104OSM   H14C10458   4.621   0.986   7.158  1.1916 -1.0909  1.0491
  104OSM    C1310459   4.575   0.800   6.879 -0.2340 -0.4344  0.6976
  104OSM   H13A10460   4.640   0.724   6.921 -2.8560 -3.5091 -0.4009
  104OSM   H13B10461   4.606   0.821   6.778  0.6211  0.4454  1.1328
  104OSM   H13C10462   4.478   0.752   6.876 -0.2558 -0.4006  0.8412
  104OSM    C1210463   4.675   1.021   6.913  0.6817  0.1835  0.3721
  104OSM   H12A10464   4.667   1.020   6.806  0.6432 -1.2590  0.3735
  104OSM   H12B10465   4.777   0.988   6.920  0.6872 -0.0269 -0.5679
  104OSM    C1110466   4.652   1.167   6.948  0.1065 -0.0701 -0.1502
  104OSM   H11A10467   4.756   1.204   6.932  0.7333 -1.9924 -0.8405
  104OSM   H11B10468   4.638   1.184   7.057  0.9053  1.1357 -0.2147
  104OSM      P10469   4.525   1.387   6.861  0.0445  0.3044  0.2207
  104OSM    O1310470   4.376   1.419   6.866  0.0721 -0.1710 -0.3081
  104OSM    O1410471   4.609   1.457   6.969  0.4268 -0.9473 -0.0348
  104OSM    O1110472   4.590   1.412   6.720  0.9927  0.3834  0.3603
  104OSM    O1210473   4.545   1.232   6.870  0.0215 -0.4027 -0.7229
  104OSM    C1S10474   4.596   1.310   6.614  0.0093  0.3842 -0.0611
  104OSM    H1S10475   4.519   1.232   6.631 -1.0344  1.1340 -1.1037
  104OSM    H1T10476   4.691   1.254   6.608 -1.3776 -2.1856  0.5277
  104OSM     NF10477   4.571   1.270   6.380  0.7283  0.0983  0.0890
  104OSM    HNF10478   4.636   1.282   6.305 -0.6690 -0.0759 -1.1865
  104OSM    C2S10479   4.567   1.375   6.481  0.2278 -1.6918 -0.3753
  104OSM    H2S10480   4.465   1.418   6.482 -0.0562 -2.1006 -3.4159
  104OSM    C3S10481   4.669   1.502   6.454 -0.1406 -0.3980 -0.2813
  104OSM    H3S10482   4.772   1.468   6.478 -0.2597 -0.3710  0.2875
  104OSM     O310483   4.652   1.614   6.539  0.2275  0.0745  0.0322
  104OSM    HO310484   4.593   1.586   6.610 -1.4270 -1.4789 -1.8415
  104OSM    C4S10485   4.661   1.546   6.316 -0.8602  0.5071 -0.1680
  104OSM    H4S10486   4.722   1.485   6.248 -1.7749 -1.2967  0.5874
  104OSM    C5S10487   4.591   1.649   6.262  0.6983  0.0399 -0.6803
  104OSM    H5S10488   4.530   1.719   6.321  0.8114 -0.1971 -0.2781
  104OSM    C6S10489   4.594   1.675   6.114  0.1594 -0.5627  0.0133
  104OSM    H6S10490   4.490   1.683   6.077 -0.1104 -1.3384  0.5972
  104OSM    H6T10491   4.620   1.579   6.066  0.7262 -0.4955  0.1778
  104OSM    C7S10492   4.676   1.791   6.073  0.2147 -0.3656 -0.0291
  104OSM    H7S10493   4.766   1.792   6.138  0.6054 -0.9377 -0.5437
  104OSM    H7T10494   4.624   1.888   6.078 -1.2273 -1.1759  1.7404
  104OSM    C8S10495   4.734   1.788   5.928 -0.5515 -0.8650 -0.0679
  104OSM    H8S10496   4.784   1.692   5.903 -0.6107 -1.1116  0.7191
  104OSM    H8T10497   4.810   1.868   5.931  0.4902 -1.7191 -2.0898
  104OSM    C9S10498   4.627   1.811   5.819 -0.2279  0.3663 -0.7096
  104OSM    H9S10499   4.541   1.850   5.877 -1.6056 -1.7784 -1.2178
  104OSM    H9T10500   4.606   1.707   5.785  4.2235 -1.9377  2.3727
  104OSM   C10S10501   4.657   1.913   5.717 -0.0935  0.4470  0.4358
  104OSM   H10S10502   4.713   2.000   5.758  1.5970 -0.8168  0.8933
  104OSM   H10T10503   4.568   1.958   5.668  0.8820  0.5555 -1.3313
  104OSM   C11S10504   4.746   1.858   5.599 -0.5911 -0.5490 -0.6505
  104OSM   H11S10505   4.679   1.795   5.536 -1.9056 -0.5589  0.6887
  104OSM   H11T10506   4.838   1.805   5.633  0.0571  0.8701 -0.1167
  104OSM   C12S10507   4.789   1.974   5.507 -0.5304 -0.0827 -0.6958
  104OSM   H12S10508   4.864   2.037   5.558 -2.6288 -0.3561  3.1405
  104OSM   H12T10509   4.714   2.054   5.486 -1.9162 -1.2100 -0.2546
  104OSM   C13S10510   4.845   1.926   5.375  0.0558 -0.1423 -0.1811
  104OSM   H13S10511   4.911   1.840   5.399 -1.2135 -1.5753 -1.6314
  104OSM   H13T10512   4.906   2.007   5.329 -0.5834  0.3067 -0.2472
  104OSM   C14S10513   4.735   1.875   5.282 -0.4356  0.1682  0.8360
  104OSM   H14S10514   4.668   1.964   5.276  2.6670  2.6772  0.5885
  104OSM   H14T10515   4.689   1.781   5.316 -0.6627  0.3996  1.1714
  104OSM   C15S10516   4.797   1.851   5.140 -0.7260 -0.3483  0.0297
  104OSM   H15S10517   4.868   1.766   5.155  0.5675  0.7007  0.0598
  104OSM   H15T10518   4.861   1.937   5.111 -0.4639  0.0390  1.6417
  104OSM   C16S10519   4.694   1.813   5.033 -0.5053 -0.5639 -0.0893
  104OSM   H16S10520   4.614   1.888   5.017 -0.1677 -0.2537 -0.3277
  104OSM   H16T10521   4.646   1.720   5.070 -0.9996 -0.4829 -0.5240
  104OSM   C17S10522   4.760   1.781   4.893  0.5212 -0.0213 -0.3263
  104OSM   H17S10523   4.842   1.707   4.902 -0.5909 -1.6854 -2.8885
  104OSM   H17T10524   4.800   1.872   4.844  1.0811  0.0500  0.2400
  104OSM   C18S10525   4.652   1.723   4.802  0.3053  0.0450  0.3604
  104OSM   H18S10526   4.602   1.633   4.844  0.7945 -0.8191 -0.8370
  104OSM   H18T10527   4.684   1.694   4.699 -1.0256 -1.4621  0.3309
  104OSM   H18U10528   4.571   1.799   4.794 -0.0774 -0.3065  0.8809
  104OSM    C1F10529   4.490   1.159   6.372 -0.0375 -0.0567  0.2764
  104OSM     OF10530   4.387   1.144   6.433  0.3323 -0.0464  0.0563
  104OSM    C2F10531   4.545   1.048   6.287  0.5152 -0.0514 -0.3832
  104OSM    H2F10532   4.506   0.955   6.333 -0.2799  1.9707  3.4519
  104OSM    H2G10533   4.655   1.051   6.277  0.7056 -1.7289  0.7637
  104OSM    C3F10534   4.485   1.058   6.145 -0.2039 -0.8651 -0.2736
  104OSM    H3F10535   4.487   1.158   6.098 -0.1954 -0.6973  0.0768
  104OSM    H3G10536   4.377   1.032   6.158 -0.4077 -0.3109 -0.8301
  104OSM    C4F10537   4.544   0.954   6.051  0.6926  0.3179 -0.5282
  104OSM    H4F10538   4.547   0.854   6.100  0.5471 -1.3366 -3.6233
  104OSM    H4G10539   4.650   0.983   6.031  1.7544 -1.4677  1.9712
  104OSM    C5F10540   4.472   0.937   5.916 -0.8270 -0.5698 -0.4439
  104OSM    H5F10541   4.436   1.038   5.886 -0.3561  0.9772  3.5915
  104OSM    H5G10542   4.387   0.867   5.933 -0.6311 -0.8593 -0.6452
  104OSM    C6F10543   4.562   0.870   5.814 -0.2804  0.7946 -0.3025
  104OSM    H6F10544   4.580   0.763   5.841 -0.5221  0.6982 -0.5181
  104OSM    H6G10545   4.663   0.917   5.811  1.1766 -2.0159  0.4039
  104OSM    C7F10546   4.496   0.872   5.678 -0.3465 -1.0807 -0.7903
  104OSM    H7F10547   4.481   0.980   5.658 -0.0674 -0.9800 -0.4564
  104OSM    H7G10548   4.400   0.816   5.667  0.3994 -2.6433  0.2519
  104OSM    C8F10549   4.583   0.811   5.562  0.3127 -0.0881  0.3681
  104OSM    H8F10550   4.516   0.770   5.483  0.7096 -1.8432  0.8859
  104OSM    H8G10551   4.624   0.718   5.607  1.4100  0.3989  0.3981
  104OSM    C9F10552   4.700   0.899   5.518 -0.2502 -0.6378  0.1183
  104OSM    H9F10553   4.763   0.918   5.607  1.0353 -3.2542 -0.1544
  104OSM   C10F10554   4.712   0.960   5.397 -0.1849  0.3114 -0.4554
  104OSM   H10F10555   4.810   1.008   5.383  0.6885 -0.6183  1.9960
  104OSM   C11F10556   4.632   0.932   5.274 -0.3922 -0.0120  0.5378
  104OSM   H11F10557   4.662   0.991   5.184  1.6521 -0.8882  0.5870
  104OSM   H11G10558   4.522   0.943   5.279 -0.4568  0.0130 -0.5200
  104OSM   C12F10559   4.651   0.782   5.223 -0.4079 -0.8679 -0.1040
  104OSM   H12F10560   4.619   0.712   5.302 -0.8624 -0.3014  0.2277
  104OSM   H12G10561   4.757   0.772   5.190 -0.8929 -3.2259 -1.1566
  104OSM   C13F10562   4.565   0.764   5.100 -0.9145 -0.0138 -0.6278
  104OSM   H13F10563   4.468   0.817   5.093 -0.9372 -0.1722 -1.5529
  104OSM   H13G10564   4.528   0.659   5.103 -0.2573 -0.2558 -0.6202
  104OSM   C14F10565   4.642   0.790   4.975 -0.3189  0.0228 -0.4406
  104OSM   H14F10566   4.717   0.709   4.963 -0.2669 -0.0712  0.4778
  104OSM   H14G10567   4.703   0.883   4.979  1.5690 -1.1701  0.0437
  104OSM   C15F10568   4.563   0.792   4.845  0.0557  0.4233 -0.1460
  104OSM   H15F10569   4.609   0.859   4.769  1.4027  0.2028  0.4473
  104OSM   H15G10570   4.469   0.844   4.871 -0.1369  0.6339 -1.2062
  104OSM   C16F10571   4.533   0.646   4.800  0.3759 -0.0259 -0.7273
  104OSM   H16F10572   4.442   0.606   4.849 -0.9635  2.5014 -0.9409
  104OSM   H16G10573   4.625   0.586   4.813  0.8833  1.1039  1.2700
  104OSM   C17F10574   4.477   0.640   4.658 -1.0428 -0.2604 -0.3576
  104OSM   H17F10575   4.544   0.683   4.580 -0.4573 -1.8477 -0.7688
  104OSM   H17G10576   4.376   0.686   4.649 -0.8368 -0.0968 -1.9729
  104OSM   C18F10577   4.465   0.492   4.609  0.4994  0.0391 -0.0886
  104OSM   H18F10578   4.560   0.453   4.567 -0.3976 -2.8038  0.3180
  104OSM   H18G10579   4.402   0.494   4.518  1.2906  0.7668 -0.6362
  104OSM   H18H10580   4.417   0.432   4.689 -0.0074 -0.9985 -1.1329
  105OSM      N10581   2.144   1.654   6.468  0.2786  0.3078 -0.0398
  105OSM    C1510582   2.178   1.789   6.526  0.4351  0.5479  0.0734
  105OSM   H15A10583   2.102   1.861   6.497 -0.8214  0.4143  2.7565
  105OSM   H15B10584   2.283   1.810   6.517  0.9523 -1.4804  0.9467
  105OSM   H15C10585   2.162   1.778   6.632 -0.7215 -1.2285 -0.2298
  105OSM    C1410586   2.154   1.648   6.316 -0.4170  0.5446 -0.2607
  105OSM   H14A10587   2.095   1.722   6.265 -1.9499 -1.5383 -1.7045
  105OSM   H14B10588   2.121   1.551   6.281 -1.6918  0.2894  1.5465
  105OSM   H14C10589   2.250   1.686   6.282 -0.0753 -0.8305 -0.9639
  105OSM    C1310590   2.239   1.553   6.537 -0.2683 -0.3106  0.2732
  105OSM   H13A10591   2.221   1.551   6.643 -1.0117 -0.1323  0.1531
  105OSM   H13B10592   2.343   1.581   6.524 -0.8400  2.1393  0.4282
  105OSM   H13C10593   2.234   1.456   6.491  2.1304 -0.6051  0.4721
  105OSM    C1210594   2.000   1.622   6.509  0.0890 -0.1371 -0.4470
  105OSM   H12A10595   1.987   1.636   6.616 -1.0027  0.8565 -0.6875
  105OSM   H12B10596   1.970   1.520   6.490 -0.3512  0.1705 -1.4665
  105OSM    C1110597   1.891   1.711   6.439 -0.6537 -0.2616  0.4284
  105OSM   H11A10598   1.798   1.663   6.476 -1.1862  1.3623  1.3077
  105OSM   H11B10599   1.899   1.694   6.329 -1.0968  1.4625  0.0951
  105OSM      P10600   1.780   1.920   6.565 -0.2151 -0.4292  0.1146
  105OSM    O1310601   1.787   1.884   6.712 -0.1322  0.0868  0.1889
  105OSM    O1410602   1.770   2.068   6.541 -0.1638 -0.1120 -0.4581
  105OSM    O1110603   1.655   1.860   6.497 -0.0718  0.2838  0.5440
  105OSM    O1210604   1.899   1.849   6.473 -0.2343  0.1677 -0.5400
  105OSM    C1S10605   1.623   1.910   6.368 -0.0949  0.0554 -0.5151
  105OSM    H1S10606   1.712   1.932   6.305 -0.7696  1.8874 -0.8802
  105OSM    H1T10607   1.569   2.007   6.372 -0.8302 -0.3985  1.2419
  105OSM     NF10608   1.474   1.883   6.165  0.3987  0.0473  0.5589
  105OSM    HNF10609   1.375   1.892   6.159  0.4697  0.4835 -0.0130
  105OSM    C2S10610   1.535   1.812   6.279  0.2396 -0.2858  0.3130
  105OSM    H2S10611   1.605   1.737   6.236  0.3567  1.6608 -3.2782
  105OSM    C3S10612   1.421   1.749   6.367  0.5192  0.1891 -0.4582
  105OSM    H3S10613   1.348   1.826   6.401 -0.1351 -1.1160  1.2505
  105OSM     O310614   1.461   1.700   6.501 -0.0942 -0.3222  0.0601
  105OSM    HO310615   1.552   1.731   6.495 -0.0178 -0.8170 -2.0210
  105OSM    C4S10616   1.349   1.635   6.288 -0.9362 -0.1384  0.1338
  105OSM    H4S10617   1.273   1.682   6.224 -0.9263 -0.3197 -0.0112
  105OSM    C5S10618   1.368   1.500   6.300 -0.0444 -0.2483 -0.5035
  105OSM    H5S10619   1.449   1.468   6.367 -0.8994  0.4414  0.9090
  105OSM    C6S10620   1.290   1.392   6.230 -0.4217  0.7195 -0.1249
  105OSM    H6S10621   1.212   1.441   6.168 -0.5516 -0.2685 -0.7663
  105OSM    H6T10622   1.246   1.321   6.304  1.9555 -1.3290 -0.5618
  105OSM    C7S10623   1.370   1.319   6.121 -0.1052 -0.5427 -0.6982
  105OSM    H7S10624   1.312   1.243   6.064 -1.2036  1.7817 -2.8878
  105OSM    H7T10625   1.453   1.272   6.179 -1.4710  1.1196  2.8681
  105OSM    C8S10626   1.401   1.417   6.002 -0.1913  0.7336  0.1797
  105OSM    H8S10627   1.470   1.360   5.936  1.5629 -1.7541  3.7952
  105OSM    H8T10628   1.454   1.510   6.033  0.2601  0.7430 -0.6009
  105OSM    C9S10629   1.287   1.471   5.920  0.1199  0.0796 -1.1030
  105OSM    H9S10630   1.235   1.539   5.991  2.9989 -0.1188  1.4030
  105OSM    H9T10631   1.213   1.402   5.875 -0.7286  0.2510 -0.0108
  105OSM   C10S10632   1.349   1.561   5.809  0.3427  1.1927 -0.1303
  105OSM   H10S10633   1.425   1.499   5.756  0.6047 -0.0823  1.6393
  105OSM   H10T10634   1.406   1.642   5.859 -0.4606  0.2186  2.5170
  105OSM   C11S10635   1.242   1.604   5.705 -0.1453 -0.2412 -0.5083
  105OSM   H11S10636   1.166   1.666   5.756 -1.3273  0.1200 -2.6024
  105OSM   H11T10637   1.199   1.512   5.659  0.6552 -0.8449 -0.0970
  105OSM   C12S10638   1.307   1.691   5.598 -0.5682  0.2514 -0.0503
  105OSM   H12S10639   1.406   1.730   5.627 -0.5488  0.9215 -0.9744
  105OSM   H12T10640   1.232   1.770   5.577 -2.2598 -1.0760  0.6727
  105OSM   C13S10641   1.336   1.619   5.467 -0.5485  0.4796 -0.0165
  105OSM   H13S10642   1.249   1.560   5.431  1.0442 -1.1878 -1.3209
  105OSM   H13T10643   1.415   1.544   5.490  3.1275  3.4044 -2.0682
  105OSM   C14S10644   1.374   1.712   5.355  0.3832  0.5705  0.5542
  105OSM   H14S10645   1.459   1.769   5.398 -0.4401  2.6928 -0.4890
  105OSM   H14T10646   1.301   1.794   5.335  1.1546  1.8571  2.6702
  105OSM   C15S10647   1.403   1.644   5.220 -0.0686 -0.1120  0.7021
  105OSM   H15S10648   1.323   1.568   5.207 -1.4965  1.1227  1.8379
  105OSM   H15T10649   1.502   1.593   5.219 -0.7331 -1.4716  1.1631
  105OSM   C16S10650   1.393   1.737   5.098 -0.3333 -0.9732  0.6084
  105OSM   H16S10651   1.476   1.810   5.113 -0.6386  0.1289 -2.3014
  105OSM   H16T10652   1.301   1.799   5.104  1.1342  1.5402 -1.0003
  105OSM   C17S10653   1.419   1.662   4.968  0.1182  0.0507 -0.1998
  105OSM   H17S10654   1.347   1.578   4.959  0.4347 -0.2437 -0.0195
  105OSM   H17T10655   1.510   1.600   4.984  1.0598  1.6548  0.9788
  105OSM   C18S10656   1.423   1.758   4.856 -0.3680  0.5366  0.5026
  105OSM   H18S10657   1.511   1.825   4.869  0.5916 -0.5417 -0.1914
  105OSM   H18T10658   1.335   1.822   4.832 -0.4867 -0.4267 -2.0413
  105OSM   H18U10659   1.435   1.694   4.766 -1.2558 -2.8071  2.5929
  105OSM    C1F10660   1.554   1.931   6.066  0.8988 -0.2246 -0.1148
  105OSM     OF10661   1.673   1.958   6.085 -0.0153  0.6627 -0.0283
  105OSM    C2F10662   1.486   1.954   5.933 -0.5900  0.1342  0.5479
  105OSM    H2F10663   1.448   2.059   5.941 -0.7487  0.0593  0.7738
  105OSM    H2G10664   1.410   1.873   5.931  0.2857 -0.6925  0.3679
  105OSM    C3F10665   1.592   1.946   5.818  1.1979 -0.0764  0.5891
  105OSM    H3F10666   1.646   1.849   5.811  1.5702 -0.0175  2.2844
  105OSM    H3G10667   1.670   2.020   5.844  1.0694 -0.7551  3.1096
  105OSM    C4F10668   1.514   1.984   5.686  0.0571  0.4088  0.2847
  105OSM    H4F10669   1.425   2.049   5.697 -1.5404 -1.0622 -2.6930
  105OSM    H4G10670   1.458   1.907   5.629 -1.3452  1.9079 -0.4593
  105OSM    C5F10671   1.614   2.044   5.590 -0.4411  0.2691 -0.2943
  105OSM    H5F10672   1.687   1.967   5.560 -1.7919 -0.7032 -1.2411
  105OSM    H5G10673   1.670   2.130   5.633  1.5887 -1.3943  0.5693
  105OSM    C6F10674   1.544   2.100   5.461 -0.3946 -0.8874  0.3067
  105OSM    H6F10675   1.483   2.183   5.501 -0.0564 -0.3399 -0.2944
  105OSM    H6G10676   1.477   2.023   5.416 -1.4190  0.2326 -0.1565
  105OSM    C7F10677   1.652   2.156   5.361 -0.3103 -0.4389  0.0774
  105OSM    H7F10678   1.733   2.083   5.340  0.0898  0.3381 -1.1821
  105OSM    H7G10679   1.692   2.238   5.424 -2.0780 -1.1124  2.2119
  105OSM    C8F10680   1.605   2.223   5.231 -0.0634 -0.4820 -0.3801
  105OSM    H8F10681   1.698   2.271   5.191 -0.2655 -0.3818 -0.7419
  105OSM    H8G10682   1.549   2.311   5.269  3.6095  1.3827  1.2682
  105OSM    C9F10683   1.534   2.137   5.125  0.6466 -0.6137 -0.1202
  105OSM    H9F10684   1.442   2.092   5.162  0.7095  2.3366  4.4648
  105OSM   C10F10685   1.577   2.110   5.001  0.6046 -0.5446  0.2186
  105OSM   H10F10686   1.512   2.047   4.938  2.1016 -0.4033 -1.5664
  105OSM   C11F10687   1.711   2.152   4.937 -0.0334  0.0852 -0.1467
  105OSM   H11F10688   1.790   2.158   5.015  0.0039 -2.0879  0.0395
  105OSM   H11G10689   1.703   2.247   4.880  1.7306 -0.2816 -1.0893
  105OSM   C12F10690   1.747   2.055   4.819 -0.1673 -0.0081  0.2659
  105OSM   H12F10691   1.731   1.950   4.852  2.7153 -1.2736 -1.8896
  105OSM   H12G10692   1.854   2.073   4.796  0.2547 -1.5829  0.8603
  105OSM   C13F10693   1.651   2.085   4.695  0.0553 -0.3279  0.6412
  105OSM   H13F10694   1.668   2.189   4.659 -1.6733 -0.4206 -0.5940
  105OSM   H13G10695   1.545   2.083   4.729 -0.2216  0.1680 -0.1496
  105OSM   C14F10696   1.660   1.986   4.576 -0.4543 -0.0757  0.4848
  105OSM   H14F10697   1.632   1.881   4.602  0.2053 -0.4839 -0.3926
  105OSM   H14G10698   1.767   1.990   4.547 -0.5322 -0.1172  0.1779
  105OSM   C15F10699   1.551   2.022   4.473 -0.3378 -0.1365 -0.5148
  105OSM   H15F10700   1.448   2.002   4.510 -0.0500 -0.1509  0.3005
  105OSM   H15G10701   1.556   1.945   4.393 -0.2519  0.8066 -1.4464
  105OSM   C16F10702   1.572   2.154   4.400  0.6146  0.1414  0.0398
  105OSM   H16F10703   1.560   2.238   4.472  2.3183 -0.4979  1.1356
  105OSM   H16G10704   1.494   2.168   4.322  0.8163  0.6814 -0.0736
  105OSM   C17F10705   1.707   2.179   4.342 -0.4604  0.2611  0.3421
  105OSM   H17F10706   1.746   2.097   4.278  1.4058  0.5227  1.0835
  105OSM   H17G10707   1.790   2.194   4.414  1.1001 -1.8336 -0.8775
  105OSM   C18F10708   1.696   2.305   4.256 -0.0329  1.2789  0.2298
  105OSM   H18F10709   1.674   2.391   4.323 -2.5616  1.2487 -0.4465
  105OSM   H18G10710   1.613   2.308   4.181 -0.9548 -1.4279  1.0252
  105OSM   H18H10711   1.792   2.323   4.204  0.3087  1.6372  0.9809
  106OSM      N10712   0.579   6.821   6.601  0.5945 -0.0833  0.0177
  106OSM    C1510713   0.639   6.959   6.574  0.0549  0.2737 -0.8656
  106OSM   H15A10714   0.610   6.998   6.477  1.1389 -0.4364 -1.5050
  106OSM   H15B10715   0.745   6.964   6.591  0.1913 -0.7707 -1.3150
  106OSM   H15C10716   0.601   7.028   6.647 -0.7121  1.5948 -2.4423
  106OSM    C1410717   0.646   6.718   6.507 -0.4888  0.3653  0.4560
  106OSM   H14A10718   0.634   6.744   6.403 -0.3839 -0.3252  0.2694
  106OSM   H14B10719   0.602   6.619   6.516 -0.1551  0.2558  0.8995
  106OSM   H14C10720   0.751   6.721   6.530 -0.0231  1.1715 -1.6006
  106OSM    C1310721   0.609   6.779   6.743 -0.2443  0.7437 -0.0221
  106OSM   H13A10722   0.581   6.677   6.766  2.6415  0.0079  0.5772
  106OSM   H13B10723   0.556   6.840   6.815 -1.8771 -1.0665  0.3981
  106OSM   H13C10724   0.715   6.792   6.758 -0.2052  3.7556 -2.0760
  106OSM    C1210725   0.429   6.822   6.574  1.0793 -0.0994  0.4411
  106OSM   H12A10726   0.382   6.887   6.647  1.6811  0.3924  0.4009
  106OSM   H12B10727   0.390   6.724   6.594 -0.2534  0.2306 -0.3889
  106OSM    C1110728   0.383   6.857   6.430 -0.1345  0.3790 -0.2291
  106OSM   H11A10729   0.277   6.825   6.419  0.4353 -1.6373 -0.1996
  106OSM   H11B10730   0.438   6.803   6.350 -3.7106 -0.5814 -2.2677
  106OSM      P10731   0.285   7.102   6.442 -0.0305 -0.0036  0.0721
  106OSM    O1310732   0.208   7.056   6.556 -0.5853 -0.0008 -0.4950
  106OSM    O1410733   0.342   7.238   6.446 -0.0787 -0.4121  0.3230
  106OSM    O1110734   0.187   7.089   6.316  0.0227 -0.5168 -0.4809
  106OSM    O1210735   0.404   6.998   6.411 -0.1688  0.0888 -0.4507
  106OSM    C1S10736   0.227   7.153   6.188  0.9283  0.1142 -0.2135
  106OSM    H1S10737   0.332   7.190   6.187  0.9155  0.1463 -0.8918
  106OSM    H1T10738   0.163   7.244   6.178  0.1832 -0.1460  1.7093
  106OSM     NF10739   0.269   7.095   5.952 -0.6617  0.7453 -0.3220
  106OSM    HNF10740   0.210   7.099   5.872  1.3294  0.9085 -1.8567
  106OSM    C2S10741   0.203   7.052   6.076 -0.2397 -0.2202 -0.0341
  106OSM    H2S10742   0.251   6.959   6.112  1.7459  0.8695  0.2328
  106OSM    C3S10743   0.046   7.020   6.056 -0.3222  0.3023  0.0126
  106OSM    H3S10744   0.004   7.114   6.013  1.0760  1.1303  0.3944
  106OSM     O310745  -0.031   7.003   6.181 -0.5388 -0.4130 -0.0763
  106OSM    HO310746   0.032   7.040   6.243  2.7557 -2.4333 -1.9135
  106OSM    C4S10747   0.032   6.901   5.970 -0.2039 -0.0041 -0.3818
  106OSM    H4S10748   0.044   6.930   5.864  0.3679 -1.3779 -0.7124
  106OSM    C5S10749   0.020   6.768   6.000  0.0770 -0.0862 -0.1981
  106OSM    H5S10750   0.007   6.738   6.105 -0.2500 -0.6810 -0.4035
  106OSM    C6S10751   0.028   6.644   5.913  0.5511 -0.4758  0.1726
  106OSM    H6S10752  -0.075   6.603   5.902  0.7486 -0.3510 -2.9779
  106OSM    H6T10753   0.098   6.565   5.950  0.4946 -0.1961  0.8953
  106OSM    C7S10754   0.071   6.676   5.769  1.0888  0.0301  0.3587
  106OSM    H7S10755   0.164   6.736   5.771  1.7490 -0.8300  4.3582
  106OSM    H7T10756  -0.003   6.743   5.719 -0.5125 -1.5096  0.5586
  106OSM    C8S10757   0.097   6.553   5.679  0.5629  0.3339  0.2361
  106OSM    H8S10758   0.000   6.505   5.651  1.1673 -0.8541  0.1298
  106OSM    H8T10759   0.152   6.482   5.744  0.2464 -0.6398 -0.5377
  106OSM    C9S10760   0.173   6.591   5.551  0.6361 -0.6130 -0.0561
  106OSM    H9S10761   0.278   6.618   5.576 -0.1491  1.6252  1.1970
  106OSM    H9T10762   0.136   6.687   5.508 -0.3671 -1.7132 -1.7509
  106OSM   C10S10763   0.173   6.476   5.450  0.1209 -0.1096 -0.9431
  106OSM   H10S10764   0.074   6.432   5.424  0.4306 -1.1919 -0.3352
  106OSM   H10T10765   0.222   6.393   5.504 -0.5484  0.1143  0.0333
  106OSM   C11S10766   0.260   6.518   5.331  0.3466 -0.1813 -0.5495
  106OSM   H11S10767   0.362   6.545   5.367 -0.1363 -1.0620  1.6873
  106OSM   H11T10768   0.223   6.600   5.266  1.5543 -0.7050 -1.9422
  106OSM   C12S10769   0.274   6.394   5.234 -0.1090 -0.4717  0.1183
  106OSM   H12S10770   0.178   6.343   5.209  0.8967 -1.0958 -2.7619
  106OSM   H12T10771   0.337   6.313   5.277  2.5838  0.9258 -0.9719
  106OSM   C13S10772   0.339   6.444   5.107  0.2552 -0.2197  0.5834
  106OSM   H13S10773   0.444   6.473   5.128  0.8141 -1.6645 -0.0807
  106OSM   H13T10774   0.275   6.531   5.078 -0.7417 -0.6964  1.2877
  106OSM   C14S10775   0.341   6.351   4.982  0.1522 -0.1035 -1.2271
  106OSM   H14S10776   0.233   6.323   4.974  0.5205 -2.0253  0.0058
  106OSM   H14T10777   0.393   6.256   5.006 -1.4378 -0.7852 -0.3051
  106OSM   C15S10778   0.390   6.409   4.853 -0.0108 -0.1063 -0.6018
  106OSM   H15S10779   0.493   6.450   4.865 -0.8562  1.5858  1.6606
  106OSM   H15T10780   0.315   6.484   4.821  0.9381  2.2485  2.2058
  106OSM   C16S10781   0.378   6.316   4.734 -0.3516  0.5031  0.1253
  106OSM   H16S10782   0.274   6.278   4.737 -0.0341 -0.3308  0.9982
  106OSM   H16T10783   0.448   6.233   4.758 -3.4507 -2.5464 -0.6275
  106OSM   C17S10784   0.404   6.388   4.601 -0.3160 -0.3100 -0.7213
  106OSM   H17S10785   0.514   6.376   4.593 -0.5104 -3.3722  0.0712
  106OSM   H17T10786   0.379   6.495   4.618  1.3147 -0.1881  1.3015
  106OSM   C18S10787   0.340   6.335   4.472  0.0786  0.5509  0.0273
  106OSM   H18S10788   0.389   6.242   4.435 -0.4767  0.4635 -0.5011
  106OSM   H18T10789   0.333   6.410   4.391  0.1015 -0.3800 -0.8587
  106OSM   H18U10790   0.236   6.300   4.490  0.1291  0.8676  0.9629
  106OSM    C1F10791   0.402   7.114   5.948  0.5829  0.2550 -0.4906
  106OSM     OF10792   0.479   7.091   6.042 -0.6240 -0.2849  0.0683
  106OSM    C2F10793   0.460   7.169   5.821  0.2631  1.0156  0.0976
  106OSM    H2F10794   0.449   7.279   5.830 -0.2667  0.9481  0.3182
  106OSM    H2G10795   0.399   7.135   5.734 -1.5352 -0.9395  2.0007
  106OSM    C3F10796   0.606   7.130   5.797  0.4325 -0.4635 -0.2675
  106OSM    H3F10797   0.612   7.019   5.795  4.4771 -0.3982 -1.6433
  106OSM    H3G10798   0.656   7.158   5.892  2.4582 -1.4671 -0.9647
  106OSM    C4F10799   0.662   7.186   5.664  0.0591 -0.0503 -0.2038
  106OSM    H4F10800   0.593   7.145   5.587  1.0824  2.3814 -2.5804
  106OSM    H4G10801   0.765   7.148   5.650 -0.3723 -1.2129 -0.3810
  106OSM    C5F10802   0.645   7.336   5.643 -0.0992 -0.0096  0.4898
  106OSM    H5F10803   0.709   7.393   5.714 -0.0999 -0.1444  0.5990
  106OSM    H5G10804   0.540   7.357   5.673  0.4768 -1.7324  4.2147
  106OSM    C6F10805   0.671   7.377   5.491  0.0126 -0.4970 -0.2532
  106OSM    H6F10806   0.604   7.321   5.422  1.1218 -1.9292 -0.2341
  106OSM    H6G10807   0.778   7.349   5.476 -0.2834 -0.2812 -3.7589
  106OSM    C7F10808   0.667   7.531   5.472 -0.3592  0.0654  0.5416
  106OSM    H7F10809   0.725   7.590   5.546  0.9483  1.7885 -1.7291
  106OSM    H7G10810   0.567   7.570   5.446  1.1763  1.8198 -3.4464
  106OSM    C8F10811   0.738   7.571   5.336 -0.0721  0.2238 -0.3606
  106OSM    H8F10812   0.711   7.497   5.257 -1.3996 -1.4253  1.5360
  106OSM    H8G10813   0.846   7.574   5.359 -0.4213  1.3447  1.2910
  106OSM    C9F10814   0.702   7.714   5.287  0.8749 -0.5157 -0.3377
  106OSM    H9F10815   0.711   7.798   5.357 -3.3677  0.0712 -0.2616
  106OSM   C10F10816   0.650   7.759   5.167 -0.4938  0.6765 -0.2341
  106OSM   H10F10817   0.640   7.865   5.142  0.6940  1.2650  1.6569
  106OSM   C11F10818   0.630   7.671   5.049  0.7968 -0.2381  0.6789
  106OSM   H11F10819   0.533   7.696   5.001  2.5029  1.7016 -2.0696
  106OSM   H11G10820   0.635   7.564   5.078  2.4105 -0.4149 -0.1529
  106OSM   C12F10821   0.722   7.703   4.933 -0.1655 -0.1634 -0.6986
  106OSM   H12F10822   0.827   7.698   4.969 -0.2250 -0.7602 -0.6089
  106OSM   H12G10823   0.707   7.806   4.893 -1.9900 -0.9111 -2.1118
  106OSM   C13F10824   0.696   7.620   4.812 -0.3094  0.6778  0.8559
  106OSM   H13F10825   0.757   7.663   4.730  1.9632  1.1807  2.7185
  106OSM   H13G10826   0.587   7.613   4.791 -0.8285  0.7360  3.2057
  106OSM   C14F10827   0.749   7.475   4.825  0.3642  0.0384 -0.2757
  106OSM   H14F10828   0.708   7.419   4.911 -1.4297 -1.0754 -1.7857
  106OSM   H14G10829   0.860   7.482   4.836  0.3381 -0.6763  0.5100
  106OSM   C15F10830   0.714   7.404   4.693 -0.3935  0.6630 -0.3111
  106OSM   H15F10831   0.774   7.443   4.607 -0.0876  1.6512  0.3337
  106OSM   H15G10832   0.610   7.433   4.667 -0.6129 -1.6498 -2.4109
  106OSM   C16F10833   0.736   7.255   4.711 -0.2608  0.7833 -0.1750
  106OSM   H16F10834   0.699   7.207   4.618 -0.7400  0.2768  0.2617
  106OSM   H16G10835   0.676   7.222   4.799  0.1683 -1.0984 -0.5351
  106OSM   C17F10836   0.888   7.220   4.721 -0.0884 -0.5326 -0.7725
  106OSM   H17F10837   0.902   7.113   4.745  0.4330 -0.0599  1.2226
  106OSM   H17G10838   0.932   7.274   4.807 -0.6621 -1.0848 -0.1230
  106OSM   C18F10839   0.965   7.253   4.591 -0.8893  0.4960  0.8297
  106OSM   H18F10840   0.960   7.358   4.557  0.9292 -0.4965 -2.9876
  106OSM   H18G10841   0.920   7.183   4.518  1.2747 -0.4287  0.2894
  106OSM   H18H10842   1.075   7.238   4.603 -0.6704  1.1424 -0.2553
  107OSM      N10843   5.707   5.337   6.934  0.4663 -0.3970  1.2854
  107OSM    C1510844   5.689   5.211   7.013  1.0941 -0.5454  0.2202
  107OSM   H15A10845   5.596   5.221   7.068  1.1971  1.1583  0.1264
  107OSM   H15B10846   5.777   5.212   7.076  2.5902  0.0778 -1.8048
  107OSM   H15C10847   5.688   5.127   6.945  1.5102  0.4662 -1.0580
  107OSM    C1410848   5.781   5.317   6.813 -0.6765 -0.7189  0.3220
  107OSM   H14A10849   5.725   5.268   6.734  0.8573 -3.3928  0.7423
  107OSM   H14B10850   5.864   5.248   6.820 -1.7620 -2.0336  0.8337
  107OSM   H14C10851   5.817   5.407   6.767  0.1367 -1.2727 -0.1546
  107OSM    C1310852   5.572   5.370   6.882  0.2344 -0.3307 -0.2111
  107OSM   H13A10853   5.571   5.469   6.839  0.5861  0.3844  1.3613
  107OSM   H13B10854   5.502   5.369   6.964 -0.0662 -0.5507 -0.4656
  107OSM   H13C10855   5.535   5.299   6.810 -1.3115 -2.3505  2.3927
  107OSM    C1210856   5.772   5.449   7.014  0.2519  0.1006 -0.0770
  107OSM   H12A10857   5.879   5.436   7.007  0.4974  2.0476 -0.4502
  107OSM   H12B10858   5.743   5.425   7.116  0.4042 -1.1148 -0.3105
  107OSM    C1110859   5.740   5.596   6.983  0.3115  0.4284  0.4856
  107OSM   H11A10860   5.787   5.661   7.060  1.6896 -0.7484  0.6788
  107OSM   H11B10861   5.632   5.615   6.997 -0.4619 -2.0391 -1.3953
  107OSM      P10862   5.932   5.678   6.824 -0.0033 -0.2972  0.7238
  107OSM    O1310863   5.933   5.827   6.840 -0.2457 -0.4333 -0.0030
  107OSM    O1410864   6.035   5.589   6.884 -0.2597 -0.0881  0.0455
  107OSM    O1110865   5.927   5.659   6.670  0.6189  0.2142  0.3261
  107OSM    O1210866   5.790   5.624   6.858  0.8641  0.1080  0.5977
  107OSM    C1S10867   5.813   5.612   6.597 -0.1053  0.3948  0.4881
  107OSM    H1S10868   5.739   5.693   6.584 -2.6875 -1.8127  0.6875
  107OSM    H1T10869   5.761   5.528   6.647  0.2664 -1.1919 -1.6387
  107OSM     NF10870   5.748   5.535   6.361 -0.4089 -0.8602  0.4622
  107OSM    HNF10871   5.680   5.465   6.384 -0.3196 -0.9874  0.3347
  107OSM    C2S10872   5.852   5.552   6.455 -0.6678  0.2252 -0.2529
  107OSM    H2S10873   5.925   5.622   6.408  0.8390 -1.3322 -0.3154
  107OSM    C3S10874   5.933   5.416   6.466 -0.4213 -0.4275 -0.5395
  107OSM    H3S10875   5.858   5.338   6.492  0.5624 -0.9538  0.8015
  107OSM     O310876   6.023   5.424   6.578 -0.7261  0.0311  0.0733
  107OSM    HO310877   5.990   5.499   6.627 -0.2432  0.6471 -0.5325
  107OSM    C4S10878   5.999   5.374   6.342  0.0337 -0.4224 -0.6952
  107OSM    H4S10879   6.068   5.442   6.291  1.2333 -1.6109 -0.7292
  107OSM    C5S10880   5.992   5.248   6.297 -0.4069 -0.0845 -0.0514
  107OSM    H5S10881   5.933   5.174   6.354 -1.1694 -0.1354 -0.8987
  107OSM    C6S10882   6.062   5.210   6.170  0.2911  0.0864  0.1554
  107OSM    H6S10883   6.110   5.110   6.174  0.7623  0.0532 -3.0996
  107OSM    H6T10884   6.145   5.280   6.144  1.3562 -0.8587  0.8706
  107OSM    C7S10885   5.972   5.189   6.042  0.1502  0.4304  0.6065
  107OSM    H7S10886   5.907   5.278   6.026  2.0668  1.2795 -3.4752
  107OSM    H7T10887   5.894   5.112   6.062  0.1208  0.4563  0.5923
  107OSM    C8S10888   6.050   5.152   5.919 -0.5906  0.1674 -0.1424
  107OSM    H8S10889   6.084   5.047   5.914 -1.9976 -0.2533 -3.3986
  107OSM    H8T10890   6.147   5.208   5.923  0.8428 -2.2069  0.2130
  107OSM    C9S10891   5.980   5.171   5.778 -0.1696  0.1533  0.1503
  107OSM    H9S10892   6.057   5.146   5.702  0.3966 -2.4228  1.4540
  107OSM    H9T10893   5.954   5.279   5.768  2.5848  0.7726 -1.4434
  107OSM   C10S10894   5.863   5.079   5.752  0.5466 -0.4017  0.2809
  107OSM   H10S10895   5.793   5.110   5.832 -0.3181 -0.3809 -0.4689
  107OSM   H10T10896   5.887   4.971   5.764 -2.6818 -1.2560 -0.0582
  107OSM   C11S10897   5.796   5.116   5.620 -0.0523 -0.1294  0.2697
  107OSM   H11S10898   5.870   5.124   5.538  0.2330 -0.8982  0.4431
  107OSM   H11T10899   5.745   5.214   5.633  1.7294  0.9477 -0.5146
  107OSM   C12S10900   5.682   5.020   5.579 -0.4855  0.6486 -0.2063
  107OSM   H12S10901   5.707   4.916   5.610  1.6741  1.0969 -0.2881
  107OSM   H12T10902   5.686   5.013   5.468  1.3065 -0.9105 -0.1044
  107OSM   C13S10903   5.542   5.076   5.611 -0.4777 -0.7424  1.3375
  107OSM   H13S10904   5.477   5.014   5.546  0.1648  1.0139 -1.1072
  107OSM   H13T10905   5.533   5.185   5.591  0.1309 -0.5301  2.1369
  107OSM   C14S10906   5.514   5.080   5.764  0.2614 -0.0392  1.3713
  107OSM   H14S10907   5.594   5.142   5.809  0.6509  0.1187  0.4907
  107OSM   H14T10908   5.523   4.974   5.799  1.5252  0.1050  1.5374
  107OSM   C15S10909   5.381   5.145   5.797  0.6705  0.0869 -0.5093
  107OSM   H15S10910   5.302   5.100   5.734 -0.8161  1.9539 -0.0374
  107OSM   H15T10911   5.400   5.250   5.766  2.9526 -0.3395 -0.7423
  107OSM   C16S10912   5.346   5.114   5.942 -0.0513  0.4058 -0.6954
  107OSM   H16S10913   5.383   5.013   5.968 -0.3310  0.6076  0.5816
  107OSM   H16T10914   5.235   5.118   5.946 -0.0572 -0.6649  1.1171
  107OSM   C17S10915   5.393   5.223   6.040  0.3787 -0.7143 -0.0324
  107OSM   H17S10916   5.325   5.249   6.124  0.3926  0.5005 -0.3725
  107OSM   H17T10917   5.394   5.314   5.976  0.1226  1.3087  2.6419
  107OSM   C18S10918   5.527   5.190   6.112  0.1918  0.2539 -0.1291
  107OSM   H18S10919   5.537   5.257   6.200 -0.9551  0.3892 -0.0884
  107OSM   H18T10920   5.617   5.190   6.047  1.3663 -3.4659  1.2545
  107OSM   H18U10921   5.513   5.084   6.142 -2.0587  0.4471 -0.3302
  107OSM    C1F10922   5.698   5.626   6.273  0.5617  0.2231 -0.3250
  107OSM     OF10923   5.735   5.739   6.278 -0.3442 -0.2433  0.4436
  107OSM    C2F10924   5.581   5.577   6.196  0.5521 -0.2551 -0.2644
  107OSM    H2F10925   5.492   5.630   6.235 -0.3866 -0.3448 -2.1674
  107OSM    H2G10926   5.554   5.471   6.217  2.1333 -0.3605  1.4583
  107OSM    C3F10927   5.591   5.610   6.043 -0.4525  0.0738 -0.0139
  107OSM    H3F10928   5.632   5.714   6.041  1.2309 -0.5078  1.7319
  107OSM    H3G10929   5.490   5.613   5.996 -0.3261  4.2053 -0.3873
  107OSM    C4F10930   5.684   5.510   5.973 -0.1836 -0.1485 -0.1246
  107OSM    H4F10931   5.626   5.415   5.973 -0.3677 -0.0374  0.1019
  107OSM    H4G10932   5.780   5.504   6.029 -0.5563 -3.0394  0.3493
  107OSM    C5F10933   5.728   5.541   5.830  0.1266 -0.8017  0.0939
  107OSM    H5F10934   5.790   5.463   5.781  1.1402  0.8486 -1.3611
  107OSM    H5G10935   5.782   5.638   5.829 -0.7369 -0.3043 -0.6152
  107OSM    C6F10936   5.613   5.568   5.730  0.1030 -0.5695 -0.1708
  107OSM    H6F10937   5.538   5.632   5.782  1.1290  1.0821 -0.6607
  107OSM    H6G10938   5.556   5.480   5.695 -1.2339  1.2663 -2.9751
  107OSM    C7F10939   5.658   5.645   5.609 -0.3494 -1.3519  0.2886
  107OSM    H7F10940   5.699   5.742   5.646  0.5039 -2.0706  1.2694
  107OSM    H7G10941   5.557   5.666   5.569  0.4247 -1.1378 -1.7073
  107OSM    C8F10942   5.736   5.572   5.501  0.8056  1.0235  0.2469
  107OSM    H8F10943   5.710   5.622   5.405 -1.1418  0.1569  0.2934
  107OSM    H8G10944   5.689   5.473   5.489  2.3823  0.0060  1.9070
  107OSM    C9F10945   5.882   5.586   5.519  0.6909  0.5445  0.2031
  107OSM    H9F10946   5.917   5.618   5.618  1.8820  2.4378 -0.7827
  107OSM   C10F10947   5.983   5.573   5.432  0.9286 -1.2079 -0.1931
  107OSM   H10F10948   6.083   5.587   5.475  0.8809  2.3324 -0.9100
  107OSM   C11F10949   5.982   5.534   5.291 -0.1811 -0.6838 -0.5568
  107OSM   H11F10950   6.074   5.575   5.246  1.0787 -1.1125  1.4681
  107OSM   H11G10951   5.896   5.576   5.235 -1.2669  0.4089  1.7562
  107OSM   C12F10952   5.970   5.379   5.281  0.6702  0.3356  0.1936
  107OSM   H12F10953   5.870   5.344   5.317 -0.0175  0.4352 -1.5444
  107OSM   H12G10954   6.051   5.326   5.336  0.6846 -0.8142 -0.9044
  107OSM   C13F10955   5.986   5.324   5.140  0.1819  0.1236 -0.0968
  107OSM   H13F10956   6.085   5.354   5.099 -0.1844 -0.7364 -1.7010
  107OSM   H13G10957   5.908   5.363   5.071  0.5681  0.2941 -0.4444
  107OSM   C14F10958   5.977   5.177   5.123  1.0548 -0.3779  0.5635
  107OSM   H14F10959   5.869   5.150   5.135  0.3548  2.5686  1.6579
  107OSM   H14G10960   6.019   5.125   5.211  0.1578 -0.0978  1.1711
  107OSM   C15F10961   6.035   5.112   4.996 -0.4722 -0.4592  0.2535
  107OSM   H15F10962   6.042   5.003   5.017 -0.2330 -0.5234 -0.1508
  107OSM   H15G10963   6.139   5.149   4.978 -1.5852  2.7066 -0.3046
  107OSM   C16F10964   5.956   5.138   4.864 -0.3624  0.4281 -0.0645
  107OSM   H16F10965   5.958   5.246   4.840  3.3718  0.2855 -1.0619
  107OSM   H16G10966   5.854   5.101   4.888  0.5796 -1.4123  1.4380
  107OSM   C17F10967   6.027   5.054   4.751  0.0585  0.0620 -0.1427
  107OSM   H17F10968   6.136   5.077   4.752  0.0638  0.2790 -1.9893
  107OSM   H17G10969   6.003   5.085   4.647  1.3674 -1.7308 -1.0412
  107OSM   C18F10970   6.001   4.905   4.754  0.3152 -0.2029 -0.2389
  107OSM   H18F10971   6.039   4.863   4.659 -0.7028 -0.9868 -0.3186
  107OSM   H18G10972   5.890   4.895   4.755  0.0925  1.6880  1.3700
  107OSM   H18H10973   6.043   4.847   4.839  0.8142 -0.8147 -0.8959
  108OSM      N10974   2.968   5.075   7.213 -1.6915 -0.0608 -0.2224
  108OSM    C1510975   3.031   4.972   7.302  0.3502  0.2162 -0.2351
  108OSM   H15A10976   3.036   4.877   7.251  1.1422 -0.7575  1.5667
  108OSM   H15B10977   2.966   4.962   7.387 -0.1365  0.7728 -0.5313
  108OSM   H15C10978   3.136   4.988   7.323  0.5287 -1.9268  0.7990
  108OSM    C1410979   2.830   5.038   7.177  0.2650  0.7750 -0.6998
  108OSM   H14A10980   2.831   4.933   7.149  0.7268  0.6727 -0.3043
  108OSM   H14B10981   2.798   5.099   7.094 -1.6519  0.8491  0.0399
  108OSM   H14C10982   2.765   5.037   7.263  1.3765 -2.1485  0.2411
  108OSM    C1310983   2.963   5.205   7.287  0.1563  0.2350  0.6777
  108OSM   H13A10984   3.061   5.242   7.310  2.5131 -1.8735 -4.4625
  108OSM   H13B10985   2.896   5.199   7.372 -1.2531  0.9982 -0.3207
  108OSM   H13C10986   2.926   5.285   7.224  1.3280  1.9451  2.0735
  108OSM    C1210987   3.050   5.086   7.087  0.4797 -0.1063 -0.1542
  108OSM   H12A10988   3.069   4.988   7.046  1.0916 -0.2007  0.3417
  108OSM   H12B10989   3.145   5.118   7.126  0.1853  0.9098 -0.2311
  108OSM    C1110990   3.004   5.187   6.983 -0.3015 -0.7895  0.2742
  108OSM   H11A10991   2.897   5.174   6.958 -0.5722  2.5278 -0.8369
  108OSM   H11B10992   3.062   5.169   6.889  2.3254  0.4218  1.5657
  108OSM      P10993   3.150   5.388   7.030  0.0706 -0.1414  0.1383
  108OSM    O1310994   3.130   5.533   7.067  0.2127  0.2915  0.2050
  108OSM    O1410995   3.235   5.312   7.114 -0.3196 -0.0815 -0.4418
  108OSM    O1110996   3.207   5.386   6.872 -0.3120  0.3865 -0.8527
  108OSM    O1210997   3.009   5.327   7.021 -0.3256 -0.6108 -0.5067
  108OSM    C1S10998   3.132   5.465   6.780  0.7532 -0.4858  0.3578
  108OSM    H1S10999   3.148   5.572   6.804 -2.0839 -0.1034  0.8652
  108OSM    H1T11000   3.022   5.458   6.796  0.5765  0.7335 -0.2503
  108OSM     NF11001   3.062   5.492   6.539  0.4284 -0.2631 -0.6433
  108OSM    HNF11002   3.013   5.431   6.477 -1.8381 -1.7433  2.3452
  108OSM    C2S11003   3.157   5.427   6.631 -0.0326  0.4203  0.3040
  108OSM    H2S11004   3.261   5.462   6.612  0.4973 -1.3564 -0.2006
  108OSM    C3S11005   3.169   5.265   6.610  0.2111 -0.4431 -0.3728
  108OSM    H3S11006   3.068   5.221   6.620 -0.6015  1.7191  2.0790
  108OSM     O311007   3.268   5.193   6.681  0.4114  0.8182  0.0730
  108OSM    HO311008   3.281   5.254   6.754 -0.6532  0.2047  0.7946
  108OSM    C4S11009   3.189   5.245   6.461 -0.1160 -0.2154 -0.5197
  108OSM    H4S11010   3.094   5.219   6.413  0.7518  0.2387 -2.6245
  108OSM    C5S11011   3.308   5.256   6.392  0.6708  0.1607  0.2229
  108OSM    H5S11012   3.402   5.270   6.446  2.5053 -1.9293 -2.1624
  108OSM    C6S11013   3.315   5.246   6.241 -0.1433 -0.0105 -0.3866
  108OSM    H6S11014   3.373   5.333   6.203 -0.8007  0.6621  0.1082
  108OSM    H6T11015   3.210   5.232   6.209 -0.4807 -3.0610  1.6929
  108OSM    C7S11016   3.385   5.122   6.186  0.1862  0.2728  0.0528
  108OSM    H7S11017   3.332   5.026   6.201 -0.7424  0.8974  0.9564
  108OSM    H7T11018   3.485   5.130   6.235 -0.0510  0.9129  0.4595
  108OSM    C8S11019   3.406   5.134   6.029 -0.6196 -0.1465  0.0135
  108OSM    H8S11020   3.468   5.048   5.996  0.0687  0.4553 -0.2896
  108OSM    H8T11021   3.466   5.226   6.010  0.0651 -0.5304  0.2848
  108OSM    C9S11022   3.281   5.119   5.952  0.1783 -0.2115  0.1021
  108OSM    H9S11023   3.217   5.209   5.970  1.1162  0.0506  2.5731
  108OSM    H9T11024   3.223   5.031   5.988 -2.0010  0.8090 -0.7328
  108OSM   C10S11025   3.300   5.122   5.792  1.0393 -0.1039 -0.0002
  108OSM   H10S11026   3.333   5.019   5.768  2.3107  0.2343  0.2035
  108OSM   H10T11027   3.379   5.195   5.763 -1.4408  2.2911 -1.2492
  108OSM   C11S11028   3.165   5.152   5.723 -0.1670 -0.2580  0.2826
  108OSM   H11S11029   3.145   5.261   5.731 -0.9893 -0.3413 -0.4364
  108OSM   H11T11030   3.078   5.098   5.767 -0.1393  0.8801  1.8221
  108OSM   C12S11031   3.186   5.116   5.573 -0.9641  0.9405  0.2413
  108OSM   H12S11032   3.286   5.149   5.539 -0.4490 -1.7667 -1.1173
  108OSM   H12T11033   3.101   5.170   5.525  0.2455  1.4266 -1.4636
  108OSM   C13S11034   3.176   4.966   5.530 -0.5266 -0.0201 -0.6487
  108OSM   H13S11035   3.074   4.943   5.567 -0.2445  2.3718  1.9330
  108OSM   H13T11036   3.256   4.910   5.584  1.6658  2.8908 -0.6572
  108OSM   C14S11037   3.212   4.948   5.384 -0.3762  0.1731 -0.3429
  108OSM   H14S11038   3.300   5.009   5.356 -0.7116  0.4623 -0.8040
  108OSM   H14T11039   3.128   4.979   5.317 -1.5482 -1.9150  0.0854
  108OSM   C15S11040   3.228   4.800   5.347  0.4573 -0.4896 -0.1093
  108OSM   H15S11041   3.123   4.765   5.343 -0.7072  2.7636 -1.9067
  108OSM   H15T11042   3.284   4.732   5.415 -2.6291  0.2866  3.5818
  108OSM   C16S11043   3.285   4.781   5.205 -0.1197  0.2947  0.8340
  108OSM   H16S11044   3.390   4.818   5.213 -0.2198  0.1947  3.2864
  108OSM   H16T11045   3.242   4.846   5.126 -0.5294 -3.2361 -2.1137
  108OSM   C17S11046   3.266   4.637   5.149  0.0845  0.2479  0.4828
  108OSM   H17S11047   3.162   4.603   5.170 -0.6506  1.4050 -1.0889
  108OSM   H17T11048   3.334   4.571   5.206  1.4395  0.9660 -0.2480
  108OSM   C18S11049   3.298   4.635   4.998  0.2478 -0.2389 -0.4069
  108OSM   H18S11050   3.232   4.704   4.941  2.8426  4.3926  1.5870
  108OSM   H18T11051   3.282   4.529   4.968  1.3398 -0.7943  0.8547
  108OSM   H18U11052   3.403   4.665   4.979  0.9530 -0.0618  3.1556
  108OSM    C1F11053   3.041   5.622   6.534 -0.2591 -0.3268  1.0541
  108OSM     OF11054   3.118   5.705   6.584 -0.7416 -0.4182  0.3014
  108OSM    C2F11055   2.910   5.666   6.476  0.0696 -0.6958 -0.0302
  108OSM    H2F11056   2.825   5.612   6.524  0.6097 -1.9646 -0.4596
  108OSM    H2G11057   2.894   5.627   6.374  0.0562 -0.1004 -0.2574
  108OSM    C3F11058   2.884   5.818   6.471  0.8092 -0.2751 -0.2455
  108OSM    H3F11059   2.908   5.862   6.570 -0.2625  1.0202 -0.5302
  108OSM    H3G11060   2.775   5.835   6.461  0.7822 -0.5082 -0.3443
  108OSM    C4F11061   2.953   5.887   6.355 -0.2263  0.3541  0.3607
  108OSM    H4F11062   3.055   5.843   6.361 -0.0594  0.8059  1.0737
  108OSM    H4G11063   2.972   5.995   6.373  0.8711  0.2000  0.1828
  108OSM    C5F11064   2.885   5.862   6.223  0.4325  0.3435 -0.0816
  108OSM    H5F11065   2.776   5.876   6.243  0.3032 -2.3092  1.5395
  108OSM    H5G11066   2.896   5.758   6.187 -0.6751  0.7875 -1.8425
  108OSM    C6F11067   2.921   5.964   6.112  1.2681 -0.6658 -0.1190
  108OSM    H6F11068   3.026   5.951   6.079  1.0977 -1.4165 -0.3816
  108OSM    H6G11069   2.911   6.065   6.158  1.2544 -0.6246 -0.2131
  108OSM    C7F11070   2.825   5.958   5.992  0.1209  0.1816  0.3779
  108OSM    H7F11071   2.722   5.955   6.033  0.6480  2.8094  2.1621
  108OSM    H7G11072   2.848   5.862   5.941 -2.4953 -0.0930 -0.4357
  108OSM    C8F11073   2.842   6.070   5.879 -0.0726  0.4965 -0.4513
  108OSM    H8F11074   2.946   6.077   5.841  0.1349  3.0629  0.4096
  108OSM    H8G11075   2.826   6.169   5.928 -0.2683  0.9493 -1.4050
  108OSM    C9F11076   2.750   6.033   5.767 -0.8477 -0.3515  0.7141
  108OSM    H9F11077   2.708   5.931   5.768 -1.4585 -0.1081  1.5115
  108OSM   C10F11078   2.691   6.118   5.682 -0.5041 -0.0497  0.2919
  108OSM   H10F11079   2.615   6.087   5.609  0.2409 -2.8385  0.5764
  108OSM   C11F11080   2.736   6.265   5.684  0.0315 -0.3671 -0.0844
  108OSM   H11F11081   2.821   6.286   5.753  1.1039  1.3881 -1.8202
  108OSM   H11G11082   2.641   6.310   5.722 -1.0490 -2.5814 -0.0216
  108OSM   C12F11083   2.769   6.325   5.542  0.3610 -0.0907 -0.0074
  108OSM   H12F11084   2.787   6.434   5.559 -0.7179  0.1657 -0.4103
  108OSM   H12G11085   2.678   6.310   5.480 -0.2568 -1.5119  1.1808
  108OSM   C13F11086   2.894   6.260   5.469 -0.3174  0.1126 -0.7626
  108OSM   H13F11087   2.895   6.149   5.483  1.6992  0.2337  0.4262
  108OSM   H13G11088   2.974   6.299   5.536  0.1423 -0.2158 -1.1139
  108OSM   C14F11089   2.901   6.299   5.325 -0.2648 -0.3451  0.5669
  108OSM   H14F11090   2.874   6.406   5.308  0.6951 -0.2879 -0.8412
  108OSM   H14G11091   2.819   6.238   5.281 -0.8015  0.3231  0.6195
  108OSM   C15F11092   3.031   6.283   5.244 -0.3700  0.3616  0.6095
  108OSM   H15F11093   3.085   6.189   5.268 -0.4955  0.6805  2.2039
  108OSM   H15G11094   3.108   6.360   5.267 -0.9186  0.5897  1.6966
  108OSM   C16F11095   3.002   6.284   5.092  0.5442 -0.0864  0.7278
  108OSM   H16F11096   2.909   6.228   5.070 -0.8711  2.3955 -0.0445
  108OSM   H16G11097   3.091   6.230   5.051 -1.4183 -2.8601 -0.1442
  108OSM   C17F11098   2.998   6.414   5.019  0.5254 -0.1352  0.8533
  108OSM   H17F11099   3.072   6.490   5.053 -0.3773  1.0071  0.3206
  108OSM   H17G11100   2.900   6.452   5.054  0.7290  0.5884  0.6551
  108OSM   C18F11101   3.005   6.403   4.865  0.5877 -0.0209 -0.1523
  108OSM   H18F11102   2.959   6.304   4.842 -0.8444 -0.2098  2.9432
  108OSM   H18G11103   3.110   6.395   4.829  0.3227  0.3790 -1.0479
  108OSM   H18H11104   2.956   6.481   4.803  1.1610  0.8183  0.4371
  109OSM      N11105   6.780   0.485   6.513 -0.7797  0.6882  0.3408
  109OSM    C1511106   6.820   0.423   6.389 -0.3805 -0.5069 -0.1043
  109OSM   H15A11107   6.734   0.392   6.331  0.1621  0.6173 -1.5900
  109OSM   H15B11108   6.887   0.339   6.400  0.9009  0.6158  0.9215
  109OSM   H15C11109   6.873   0.496   6.331 -2.1646  0.4107 -0.6513
  109OSM    C1411110   6.703   0.393   6.605 -0.3528  0.2286  0.5873
  109OSM   H14A11111   6.775   0.318   6.634  0.7907  0.9344 -0.3162
  109OSM   H14B11112   6.616   0.347   6.562 -1.0118 -1.2622  3.3365
  109OSM   H14C11113   6.687   0.452   6.694  2.6947  0.8769  0.8117
  109OSM    C1311114   6.905   0.521   6.591  0.1843 -0.5435  0.0825
  109OSM   H13A11115   6.965   0.591   6.536 -0.1955 -1.6974 -1.9170
  109OSM   H13B11116   6.966   0.434   6.610 -1.1167 -1.9607 -1.7751
  109OSM   H13C11117   6.877   0.567   6.684 -1.9786  0.6112 -1.0695
  109OSM    C1211118   6.716   0.619   6.492  0.2564  0.7082 -0.2917
  109OSM   H12A11119   6.681   0.653   6.588  1.6077  1.8815 -0.1799
  109OSM   H12B11120   6.625   0.610   6.435  0.4661  1.1118 -0.6894
  109OSM    C1111121   6.798   0.731   6.425 -0.5441 -0.9936 -0.8760
  109OSM   H11A11122   6.721   0.774   6.357 -0.1490  1.1112 -0.0459
  109OSM   H11B11123   6.882   0.706   6.356 -0.9086 -0.7806 -1.3983
  109OSM      P11124   6.750   0.940   6.580  0.1495 -0.2431 -0.3732
  109OSM    O1311125   6.628   0.893   6.645  0.3420 -0.1977  0.2432
  109OSM    O1411126   6.840   1.028   6.658 -0.4357  0.2213 -0.0445
  109OSM    O1111127   6.700   1.012   6.448 -0.3734  0.2706  0.0390
  109OSM    O1211128   6.841   0.822   6.524 -0.3992  0.5345 -0.0403
  109OSM    C1S11129   6.790   1.053   6.344  0.0644  0.5337 -0.3185
  109OSM    H1S11130   6.885   0.997   6.338 -0.8982 -1.1131 -0.7197
  109OSM    H1T11131   6.833   1.155   6.360  0.9069  0.0815  0.3472
  109OSM     NF11132   6.808   1.067   6.096 -0.5552  0.0779  0.3690
  109OSM    HNF11133   6.802   1.150   6.040  0.9086 -0.1639 -0.1742
  109OSM    C2S11134   6.718   1.044   6.203  0.8379  0.5445 -0.5010
  109OSM    H2S11135   6.675   0.941   6.201  0.6073  0.5971 -3.8730
  109OSM    C3S11136   6.594   1.144   6.190  0.0181  0.2204  0.0726
  109OSM    H3S11137   6.625   1.251   6.191 -0.3516  0.3706  2.4981
  109OSM     O311138   6.496   1.146   6.299  0.0463  0.2486  0.1008
  109OSM    HO311139   6.538   1.079   6.353 -0.0664  0.6724  0.7215
  109OSM    C4S11140   6.529   1.133   6.049 -0.3978 -0.0663 -0.2981
  109OSM    H4S11141   6.584   1.198   5.979  0.0211 -1.2667 -1.1061
  109OSM    C5S11142   6.425   1.059   6.016  0.6028  0.4404  0.2022
  109OSM    H5S11143   6.385   0.998   6.099  1.6908  0.1662  0.5379
  109OSM    C6S11144   6.371   1.041   5.876  0.0256  0.3815 -0.1897
  109OSM    H6S11145   6.267   1.075   5.857  0.8052  1.9215 -1.9970
  109OSM    H6T11146   6.380   0.931   5.859 -2.3636 -0.0034  0.6284
  109OSM    C7S11147   6.450   1.117   5.767  0.0356  0.1148  0.8218
  109OSM    H7S11148   6.553   1.076   5.769  0.1311 -0.1974 -2.7503
  109OSM    H7T11149   6.455   1.228   5.776  0.6182  0.0514  1.3119
  109OSM    C8S11150   6.386   1.106   5.632  0.2162 -0.2830  0.8791
  109OSM    H8S11151   6.285   1.154   5.636 -0.4708 -1.7363  1.5770
  109OSM    H8T11152   6.371   0.999   5.607  1.9559 -0.8598  2.1800
  109OSM    C9S11153   6.464   1.181   5.517  0.5987 -0.1527 -0.1271
  109OSM    H9S11154   6.567   1.139   5.505  0.9177  0.3854  0.6252
  109OSM    H9T11155   6.486   1.285   5.550 -1.3925  0.1184  0.4519
  109OSM   C10S11156   6.389   1.171   5.384  0.5057 -0.3166 -0.3843
  109OSM   H10S11157   6.282   1.193   5.404  0.0854 -0.5655 -2.1307
  109OSM   H10T11158   6.403   1.067   5.349  0.0684 -0.5672  0.1728
  109OSM   C11S11159   6.420   1.274   5.281 -0.5805  0.5232  0.6040
  109OSM   H11S11160   6.531   1.269   5.269 -0.8115 -0.8699 -1.5223
  109OSM   H11T11161   6.385   1.371   5.323 -1.0877  1.6749 -2.2462
  109OSM   C12S11162   6.359   1.260   5.141 -0.0863  0.3040 -0.8329
  109OSM   H12S11163   6.261   1.312   5.133  0.9632  2.5292  0.0076
  109OSM   H12T11164   6.332   1.153   5.125  1.5772 -0.1863 -0.5837
  109OSM   C13S11165   6.451   1.303   5.022  0.3945  0.3695  0.5255
  109OSM   H13S11166   6.547   1.249   5.017 -0.5205 -1.2164 -0.8545
  109OSM   H13T11167   6.471   1.411   5.035 -2.3069  0.7481  2.4556
  109OSM   C14S11168   6.384   1.280   4.889  0.0592  0.0879  0.0833
  109OSM   H14S11169   6.279   1.314   4.886 -0.2251 -0.8138 -1.0704
  109OSM   H14T11170   6.381   1.171   4.865  0.2000  0.3752 -1.3247
  109OSM   C15S11171   6.447   1.352   4.772  0.1105 -0.1449 -0.2547
  109OSM   H15S11172   6.555   1.351   4.796  0.0975  0.4072 -0.1608
  109OSM   H15T11173   6.401   1.452   4.752  0.5575 -0.1446 -1.3761
  109OSM   C16S11174   6.427   1.286   4.637 -0.5328 -0.1536  0.8361
  109OSM   H16S11175   6.318   1.277   4.615 -0.6462  0.2882  1.2022
  109OSM   H16T11176   6.470   1.185   4.622  3.3585  1.7581 -2.8130
  109OSM   C17S11177   6.498   1.367   4.531 -0.7517  0.7916 -0.2879
  109OSM   H17S11178   6.607   1.350   4.548 -0.3125  3.6129  0.1827
  109OSM   H17T11179   6.474   1.475   4.544 -0.8524  0.6034  1.1653
  109OSM   C18S11180   6.466   1.317   4.384  0.3064  0.3822  0.3749
  109OSM   H18S11181   6.370   1.363   4.354 -1.2485 -2.2118  1.1054
  109OSM   H18T11182   6.451   1.208   4.374 -1.0315  0.5809 -0.0085
  109OSM   H18U11183   6.543   1.338   4.306 -0.0658 -0.1672 -0.1457
  109OSM    C1F11184   6.896   0.978   6.063  0.2767  0.3014 -0.3475
  109OSM     OF11185   6.880   0.866   6.112 -0.8648  0.1573 -0.1058
  109OSM    C2F11186   7.001   1.009   5.959 -0.4880 -0.5527  0.2666
  109OSM    H2F11187   7.098   1.049   5.995  1.2648 -0.1769 -4.2233
  109OSM    H2G11188   6.964   1.087   5.889  0.9431  0.8566  1.0178
  109OSM    C3F11189   7.027   0.877   5.887 -0.0739  0.5067  0.0215
  109OSM    H3F11190   6.943   0.804   5.890 -0.4937  1.0218  1.5451
  109OSM    H3G11191   7.118   0.826   5.926 -1.4153 -0.6264  1.8582
  109OSM    C4F11192   7.054   0.904   5.740  0.3037 -0.1555 -0.0048
  109OSM    H4F11193   7.146   0.967   5.739  1.5588 -1.8046  2.2945
  109OSM    H4G11194   6.983   0.968   5.684  0.4011 -0.0995 -0.0656
  109OSM    C5F11195   7.090   0.776   5.666 -0.3897  1.0015  0.7806
  109OSM    H5F11196   7.004   0.708   5.647 -0.3281  1.2033 -0.2911
  109OSM    H5G11197   7.155   0.698   5.712 -3.6294 -2.1728  0.4397
  109OSM    C6F11198   7.162   0.800   5.533 -0.5878  0.1169  0.1719
  109OSM    H6F11199   7.190   0.702   5.489  0.4872  0.3224  0.3850
  109OSM    H6G11200   7.257   0.854   5.554  0.1547 -1.9530  2.6118
  109OSM    C7F11201   7.086   0.892   5.437 -0.3048 -0.0025 -0.1444
  109OSM    H7F11202   7.080   0.994   5.479 -1.9300 -0.6577  1.3461
  109OSM    H7G11203   6.981   0.856   5.433 -0.7049  0.9697  0.9314
  109OSM    C8F11204   7.159   0.899   5.306 -0.4460 -0.3395 -0.1851
  109OSM    H8F11205   7.147   0.798   5.261  1.7554 -1.7395  2.0901
  109OSM    H8G11206   7.268   0.907   5.328 -0.4889  1.2925 -0.4528
  109OSM    C9F11207   7.101   1.002   5.222 -0.1564 -0.0191  0.0676
  109OSM    H9F11208   7.128   1.099   5.265  0.0438 -1.1314  2.6823
  109OSM   C10F11209   7.036   0.994   5.101  0.1212  0.2352  0.1379
  109OSM   H10F11210   7.030   1.086   5.041 -0.3103  0.5005  0.5794
  109OSM   C11F11211   6.996   0.870   5.028  0.1136  0.0496  0.1475
  109OSM   H11F11212   6.900   0.882   4.973  1.4397 -0.2850 -2.3375
  109OSM   H11G11213   6.967   0.786   5.096  1.4230 -0.0358  0.6261
  109OSM   C12F11214   7.093   0.841   4.918  0.5392 -0.3579  0.1452
  109OSM   H12F11215   7.078   0.738   4.879  0.9694 -0.3383 -0.0764
  109OSM   H12G11216   7.198   0.838   4.956  1.0023 -1.4402 -1.1243
  109OSM   C13F11217   7.083   0.928   4.789 -0.1730 -0.2946  0.5457
  109OSM   H13F11218   7.104   1.033   4.818  4.2135 -1.5114  2.5796
  109OSM   H13G11219   6.982   0.914   4.746 -0.4616  1.8695  0.4394
  109OSM   C14F11220   7.192   0.893   4.689 -0.4408  0.5208  0.0592
  109OSM   H14F11221   7.187   0.787   4.657  3.3962  0.5338 -1.1272
  109OSM   H14G11222   7.289   0.916   4.737  0.0626  1.3532 -1.2778
  109OSM   C15F11223   7.180   0.968   4.561  0.5150  0.4018  0.1216
  109OSM   H15F11224   7.078   1.006   4.541  0.1293 -0.9857 -0.7103
  109OSM   H15G11225   7.213   0.902   4.478  2.8887  1.5983  0.0139
  109OSM   C16F11226   7.257   1.104   4.536  0.1527 -0.1793  0.7760
  109OSM   H16F11227   7.221   1.163   4.623 -0.9789 -0.0021  0.2006
  109OSM   H16G11228   7.225   1.148   4.440  1.2143 -0.7308  0.1478
  109OSM   C17F11229   7.413   1.090   4.527 -0.4021 -0.1158  0.4772
  109OSM   H17F11230   7.428   1.041   4.428 -2.1833 -0.3525  0.2898
  109OSM   H17G11231   7.447   1.014   4.601  0.3500 -2.5930 -2.2071
  109OSM   C18F11232   7.486   1.226   4.525 -0.3095  0.3760 -0.6516
  109OSM   H18F11233   7.480   1.280   4.622  2.3625 -0.4759  0.0785
  109OSM   H18G11234   7.443   1.290   4.445  0.7692  2.1096  0.0768
  109OSM   H18H11235   7.594   1.215   4.498 -0.1444 -0.0071  0.1363
  110OSM      N11236   0.601   2.092   6.613  0.3103 -0.5857  0.2778
  110OSM    C1511237   0.602   1.942   6.619  0.1148  0.7235 -0.1538
  110OSM   H15A11238   0.698   1.895   6.598  0.4806  1.7127 -0.7918
  110OSM   H15B11239   0.520   1.910   6.557 -0.4464  0.9601  0.4551
  110OSM   H15C11240   0.577   1.911   6.719  1.3770 -1.1094 -0.3478
  110OSM    C1411241   0.730   2.142   6.670  0.1234 -0.5168 -0.0735
  110OSM   H14A11242   0.814   2.108   6.611 -0.6596  0.3268 -1.7278
  110OSM   H14B11243   0.729   2.108   6.772 -1.1742 -0.6101 -0.1030
  110OSM   H14C11244   0.744   2.249   6.668 -1.1925 -0.2601  2.1875
  110OSM    C1311245   0.593   2.138   6.469  0.4210  0.0234 -0.0102
  110OSM   H13A11246   0.496   2.116   6.428 -0.9552 -0.1788  3.0412
  110OSM   H13B11247   0.662   2.083   6.407  1.4649  0.0358  1.1050
  110OSM   H13C11248   0.602   2.246   6.462  1.0833 -0.1530 -2.4865
  110OSM    C1211249   0.488   2.144   6.694 -0.0230  0.3391 -0.6117
  110OSM   H12A11250   0.392   2.135   6.645  0.6422  0.9158 -2.0782
  110OSM   H12B11251   0.494   2.252   6.699  1.0596  0.2438  0.7000
  110OSM    C1111252   0.489   2.098   6.843  0.1476 -0.7292 -0.0564
  110OSM   H11A11253   0.429   2.175   6.895  0.3738 -0.1625 -0.6145
  110OSM   H11B11254   0.592   2.108   6.885 -0.3598 -0.2402  1.1023
  110OSM      P11255   0.289   1.946   6.841  0.1777 -0.0966  0.0939
  110OSM    O1311256   0.273   1.806   6.887  0.5425  0.2142  0.5475
  110OSM    O1411257   0.222   2.050   6.927 -0.1323 -0.0592  0.1849
  110OSM    O1111258   0.251   1.969   6.689  0.4506 -0.0785  0.3222
  110OSM    O1211259   0.442   1.966   6.851 -0.1607  0.5910  0.3234
  110OSM    C1S11260   0.130   1.897   6.638 -0.2347 -0.2964  0.4649
  110OSM    H1S11261   0.047   1.918   6.709 -1.3107  2.9358 -1.5435
  110OSM    H1T11262   0.159   1.791   6.622  0.6046  0.2516 -2.1914
  110OSM     NF11263  -0.055   1.878   6.462  0.1882  0.2341 -0.4148
  110OSM    HNF11264  -0.053   1.791   6.414  1.0311 -0.0237  0.0740
  110OSM    C2S11265   0.071   1.940   6.497 -0.1462 -0.5529 -0.2972
  110OSM    H2S11266   0.058   2.050   6.507  1.9576 -0.2936  0.1372
  110OSM    C3S11267   0.187   1.926   6.387 -0.6313  0.0131 -0.1235
  110OSM    H3S11268   0.205   1.817   6.375 -0.5803  0.1082 -0.9931
  110OSM     O311269   0.311   1.986   6.429  0.2502  0.0561  0.1703
  110OSM    HO311270   0.301   1.991   6.525  0.7547 -4.4052  0.6721
  110OSM    C4S11271   0.134   1.983   6.258 -0.2050 -0.1215  0.1815
  110OSM    H4S11272   0.062   1.913   6.213 -0.2434  0.0915 -0.0853
  110OSM    C5S11273   0.144   2.102   6.203  0.2774 -0.2833 -0.1550
  110OSM    H5S11274   0.196   2.181   6.258  1.4843 -1.7606  0.8993
  110OSM    C6S11275   0.067   2.144   6.076 -0.3884  0.2256 -0.2442
  110OSM    H6S11276   0.131   2.211   6.014  0.1552  0.3822  0.4795
  110OSM    H6T11277  -0.014   2.209   6.115 -1.6496 -2.4092  1.8335
  110OSM    C7S11278   0.016   2.031   5.981  0.2905  0.1941 -0.7552
  110OSM    H7S11279  -0.032   1.947   6.035 -2.1651 -0.3302 -3.4987
  110OSM    H7T11280   0.106   1.995   5.929  0.2195  0.1513 -0.8480
  110OSM    C8S11281  -0.093   2.086   5.887 -0.5949 -0.0199  0.1089
  110OSM    H8S11282  -0.030   2.126   5.805 -0.8696 -0.1682 -0.1759
  110OSM    H8T11283  -0.158   2.163   5.934  1.8730  1.0411  2.0406
  110OSM    C9S11284  -0.179   1.972   5.830  0.4647  0.2723  0.6868
  110OSM    H9S11285  -0.242   2.019   5.752 -0.1075 -1.4833  0.0235
  110OSM    H9T11286  -0.242   1.947   5.918 -1.6757  1.8539 -0.3226
  110OSM   C10S11287  -0.116   1.839   5.782 -0.7520  1.3711 -0.1955
  110OSM   H10S11288  -0.197   1.767   5.756 -0.2860  0.3808  1.0188
  110OSM   H10T11289  -0.071   1.786   5.868 -2.3084  3.2267  1.8667
  110OSM   C11S11290  -0.025   1.853   5.662  0.7084  0.5716 -0.0188
  110OSM   H11S11291   0.052   1.931   5.678 -0.2163  2.4085 -3.5648
  110OSM   H11T11292  -0.077   1.886   5.570  1.5364 -0.8839 -1.0543
  110OSM   C12S11293   0.030   1.711   5.629  0.4840 -0.1354  0.0193
  110OSM   H12S11294  -0.053   1.639   5.612  0.3421 -0.0114  0.1896
  110OSM   H12T11295   0.080   1.682   5.724 -0.9057 -1.1432  0.4695
  110OSM   C13S11296   0.145   1.716   5.533  0.6909  0.1729  0.0345
  110OSM   H13S11297   0.179   1.611   5.523  2.0501  0.8376 -5.6853
  110OSM   H13T11298   0.227   1.776   5.577  1.5141 -2.2016  1.9244
  110OSM   C14S11299   0.125   1.759   5.385 -0.2382 -0.0985  0.2939
  110OSM   H14S11300   0.092   1.865   5.381  1.6283  0.5099 -0.1001
  110OSM   H14T11301   0.041   1.697   5.348  1.4663 -2.4855  0.1920
  110OSM   C15S11302   0.247   1.742   5.294 -0.2077  0.2160  0.7744
  110OSM   H15S11303   0.265   1.633   5.279  1.5340  0.7369 -1.5964
  110OSM   H15T11304   0.340   1.788   5.334  0.9109 -0.8951 -0.4207
  110OSM   C16S11305   0.231   1.793   5.150  0.7164 -0.8715  0.4212
  110OSM   H16S11306   0.246   1.902   5.138 -1.3412 -0.5769  0.0641
  110OSM   H16T11307   0.132   1.761   5.111  0.6227  0.0883 -0.1514
  110OSM   C17S11308   0.347   1.742   5.064  0.5171  0.1553 -0.0467
  110OSM   H17S11309   0.353   1.631   5.059 -1.2205  0.0743 -1.0194
  110OSM   H17T11310   0.439   1.775   5.117  0.5528 -0.2288  0.1315
  110OSM   C18S11311   0.355   1.800   4.921 -0.4600 -0.2946 -0.0469
  110OSM   H18S11312   0.260   1.785   4.865 -1.5652 -0.6936  1.8416
  110OSM   H18T11313   0.442   1.755   4.870 -2.3130 -1.2029 -2.5799
  110OSM   H18U11314   0.388   1.905   4.907  0.8091 -0.6913 -0.1277
  110OSM    C1F11315  -0.161   1.913   6.529 -0.1768 -0.0842 -0.4800
  110OSM     OF11316  -0.163   2.013   6.594  0.3875  0.1192  0.2175
  110OSM    C2F11317  -0.266   1.807   6.525 -0.1989 -0.5240  0.1200
  110OSM    H2F11318  -0.283   1.761   6.624 -0.9238  0.7648  0.6220
  110OSM    H2G11319  -0.235   1.732   6.449 -2.0203 -0.3501 -0.8751
  110OSM    C3F11320  -0.386   1.884   6.464  0.2580  0.0187  0.7527
  110OSM    H3F11321  -0.406   1.982   6.511  0.7129  1.0476 -1.0863
  110OSM    H3G11322  -0.468   1.812   6.482 -0.1270  0.8367  2.4938
  110OSM    C4F11323  -0.383   1.900   6.309  0.6685 -0.4150  0.5428
  110OSM    H4F11324  -0.365   1.804   6.256  2.5877  0.5987 -0.7686
  110OSM    H4G11325  -0.299   1.967   6.282 -0.7768  1.3328  0.1967
  110OSM    C5F11326  -0.508   1.953   6.248 -0.1035  0.3437 -0.5731
  110OSM    H5F11327  -0.514   2.052   6.298 -3.0644  0.3458 -0.7085
  110OSM    H5G11328  -0.598   1.894   6.275  0.2810  0.2550  0.5744
  110OSM    C6F11329  -0.492   1.979   6.101 -0.3949  0.1247 -0.3570
  110OSM    H6F11330  -0.505   1.883   6.047  0.5527  0.7295 -1.7236
  110OSM    H6G11331  -0.389   2.015   6.080  0.0474 -1.4911 -1.1315
  110OSM    C7F11332  -0.591   2.076   6.050  0.4950 -0.2007  0.1986
  110OSM    H7F11333  -0.560   2.106   5.948  2.4805  1.6100  1.2359
  110OSM    H7G11334  -0.587   2.167   6.113  0.4046  0.6815 -1.0399
  110OSM    C8F11335  -0.734   2.014   6.055  0.0165  0.5175 -0.2484
  110OSM    H8F11336  -0.750   1.991   6.162  0.5648 -0.2647 -0.3280
  110OSM    H8G11337  -0.729   1.912   6.009  1.6777  0.9632 -1.1296
  110OSM    C9F11338  -0.844   2.096   5.987  0.0433 -0.3454  0.3297
  110OSM    H9F11339  -0.918   2.141   6.055  1.4507  0.7451  1.1992
  110OSM   C10F11340  -0.845   2.119   5.853  0.0738 -0.3020  0.6012
  110OSM   H10F11341  -0.921   2.184   5.808 -0.8724 -1.3291  0.6891
  110OSM   C11F11342  -0.751   2.062   5.758 -0.4222 -0.2344 -0.2250
  110OSM   H11F11343  -0.670   1.998   5.799 -2.9543 -2.4513  1.6170
  110OSM   H11G11344  -0.691   2.145   5.714  1.3273 -0.8148  0.9493
  110OSM   C12F11345  -0.818   1.985   5.643  0.1517  0.2004 -0.9486
  110OSM   H12F11346  -0.899   2.053   5.610 -1.4254 -0.8398  0.5799
  110OSM   H12G11347  -0.882   1.904   5.684  1.7356 -0.2399  0.8369
  110OSM   C13F11348  -0.731   1.923   5.532  0.1870  0.0032  0.4044
  110OSM   H13F11349  -0.641   1.871   5.572  0.3309 -0.2551 -0.2460
  110OSM   H13G11350  -0.702   2.022   5.489 -1.3271  0.1150 -0.4083
  110OSM   C14F11351  -0.813   1.860   5.420  0.0884 -0.2501  0.0096
  110OSM   H14F11352  -0.903   1.917   5.388  1.1530  0.7921 -1.2257
  110OSM   H14G11353  -0.856   1.761   5.444  1.8665 -1.1826 -0.5111
  110OSM   C15F11354  -0.730   1.840   5.293 -0.3288  0.2075 -0.2208
  110OSM   H15F11355  -0.623   1.832   5.324 -0.1766  0.8786 -0.5676
  110OSM   H15G11356  -0.733   1.927   5.224 -1.4127 -0.9045 -1.6353
  110OSM   C16F11357  -0.768   1.712   5.202  0.1658  0.0488 -0.0179
  110OSM   H16F11358  -0.873   1.727   5.170 -0.2371  2.0773  1.9740
  110OSM   H16G11359  -0.765   1.613   5.252  2.2003 -0.9892 -2.0096
  110OSM   C17F11360  -0.673   1.695   5.084 -0.2325 -0.2448 -0.3146
  110OSM   H17F11361  -0.571   1.673   5.121 -0.3153  0.0682  0.1012
  110OSM   H17G11362  -0.668   1.796   5.038  0.4793  0.0060  0.3138
  110OSM   C18F11363  -0.723   1.598   4.978 -0.2395  0.1148  0.4162
  110OSM   H18F11364  -0.815   1.633   4.927  0.3835  2.6689  0.8970
  110OSM   H18G11365  -0.732   1.494   5.016  1.7048 -0.3021 -0.1247
  110OSM   H18H11366  -0.644   1.593   4.900 -0.8158  3.3159 -0.5009
  111OSM      N11367   2.666   1.156   6.498  0.1791  0.1567 -0.4255
  111OSM    C1511368   2.727   1.277   6.437  0.4262  0.0375  0.3874
  111OSM   H15A11369   2.653   1.356   6.434  1.3512  0.9065 -1.0973
  111OSM   H15B11370   2.752   1.270   6.332  0.5121 -0.5140  0.4439
  111OSM   H15C11371   2.814   1.315   6.488  1.0020  0.7716 -1.0672
  111OSM    C1411372   2.762   1.039   6.504 -0.6631 -0.2275  0.5729
  111OSM   H14A11373   2.716   0.950   6.545  1.9121 -3.1538 -2.2947
  111OSM   H14B11374   2.846   1.070   6.564 -1.6289  1.5145  1.0970
  111OSM   H14C11375   2.792   1.000   6.408 -0.2867 -2.4155  1.5144
  111OSM    C1311376   2.608   1.188   6.631 -0.5342  0.5426 -0.0627
  111OSM   H13A11377   2.677   1.205   6.712 -2.1337 -2.8227  2.2158
  111OSM   H13B11378   2.548   1.103   6.659  0.5446 -0.9658 -2.0949
  111OSM   H13C11379   2.540   1.271   6.617 -0.5989  0.6726  0.9353
  111OSM    C1211380   2.546   1.113   6.418  0.4869  0.2890  1.0113
  111OSM   H12A11381   2.511   1.025   6.469 -2.7969  0.6682 -0.3283
  111OSM   H12B11382   2.589   1.072   6.328  1.0166  2.8430  0.0187
  111OSM    C1111383   2.427   1.200   6.383  0.6769 -0.4015  0.4473
  111OSM   H11A11384   2.357   1.154   6.310 -1.7473  1.4785  1.4136
  111OSM   H11B11385   2.456   1.292   6.327  2.2098  0.0034  1.8170
  111OSM      P11386   2.249   1.143   6.564 -0.1649  0.2347 -0.0814
  111OSM    O1311387   2.311   1.018   6.616 -0.3402  0.3192  0.9083
  111OSM    O1411388   2.159   1.207   6.655  0.7759 -0.4083  0.4287
  111OSM    O1111389   2.175   1.089   6.436  0.2904  0.3816  0.3399
  111OSM    O1211390   2.354   1.241   6.506 -0.0988 -0.5416  0.0697
  111OSM    C1S11391   2.094   1.183   6.367  0.5980 -0.8526 -0.1576
  111OSM    H1S11392   2.151   1.277   6.347  1.1383 -0.9303  0.9382
  111OSM    H1T11393   1.997   1.204   6.417 -0.0217  2.8804 -2.5072
  111OSM     NF11394   1.954   1.225   6.173 -0.0805  0.7886 -0.2069
  111OSM    HNF11395   1.861   1.194   6.191  0.8519 -2.1612  0.1584
  111OSM    C2S11396   2.054   1.128   6.222  0.0874  0.0005 -0.5676
  111OSM    H2S11397   2.146   1.143   6.162  0.2065 -0.2297 -0.4455
  111OSM    C3S11398   2.012   0.974   6.204 -0.0844 -0.1916 -1.2401
  111OSM    H3S11399   1.919   0.960   6.262  0.9701  1.1905  0.8876
  111OSM     O311400   2.112   0.881   6.254  0.1679  0.2899 -0.5894
  111OSM    HO311401   2.175   0.929   6.309 -0.5954  0.4281  0.2029
  111OSM    C4S11402   1.981   0.962   6.057  0.2290  0.3593  0.3805
  111OSM    H4S11403   1.874   0.945   6.038  0.2410 -2.1541  1.9798
  111OSM    C5S11404   2.064   0.932   5.956 -0.3770 -0.6983 -0.9095
  111OSM    H5S11405   2.171   0.923   5.982 -0.7977 -0.8444  0.9044
  111OSM    C6S11406   2.016   0.909   5.817 -0.1050  0.4456  0.0465
  111OSM    H6S11407   1.909   0.937   5.812 -0.8484 -1.8936  1.4044
  111OSM    H6T11408   2.031   0.801   5.792  0.8511  0.5378  0.1726
  111OSM    C7S11409   2.099   0.985   5.714  0.1168 -0.0280  0.0872
  111OSM    H7S11410   2.209   0.973   5.719  0.1009 -2.2212 -2.5012
  111OSM    H7T11411   2.075   1.093   5.718  3.2012  0.7184  3.2707
  111OSM    C8S11412   2.056   0.938   5.569  0.7317  0.1028 -0.2710
  111OSM    H8S11413   1.948   0.949   5.548  1.1141  2.0011 -1.5547
  111OSM    H8T11414   2.086   0.832   5.555 -0.2381 -0.1029 -0.8320
  111OSM    C9S11415   2.124   1.013   5.459  0.1038  0.4812  0.0771
  111OSM    H9S11416   2.235   1.009   5.464  0.0294 -2.1862  1.1682
  111OSM    H9T11417   2.086   1.116   5.473 -0.0489  0.8304 -2.4379
  111OSM   C10S11418   2.077   0.961   5.316 -0.5492 -0.2652  0.2016
  111OSM   H10S11419   1.967   0.943   5.319 -0.7869  1.2066  0.7785
  111OSM   H10T11420   2.138   0.872   5.291 -2.1575 -1.2763 -0.3110
  111OSM   C11S11421   2.098   1.075   5.220 -0.7097 -0.2095 -0.0179
  111OSM   H11S11422   2.208   1.091   5.219 -0.8256  0.6572  0.0643
  111OSM   H11T11423   2.039   1.160   5.262  0.6397  0.4506  0.5871
  111OSM   C12S11424   2.066   1.053   5.072 -0.1729  0.3959 -1.4164
  111OSM   H12S11425   1.955   1.048   5.062 -0.1891 -0.4451 -0.9313
  111OSM   H12T11426   2.118   0.960   5.043  0.6311  0.3921 -0.0569
  111OSM   C13S11427   2.103   1.175   4.988 -0.4677  0.2812  0.3492
  111OSM   H13S11428   2.203   1.219   5.010  0.1212 -0.4939 -0.7268
  111OSM   H13T11429   2.039   1.261   5.018  0.5164  0.6299  1.5403
  111OSM   C14S11430   2.094   1.138   4.842  0.3131 -0.1314  0.1259
  111OSM   H14S11431   1.996   1.089   4.826  0.0331  0.7178 -0.8551
  111OSM   H14T11432   2.180   1.069   4.824 -0.4254 -1.4323  1.3172
  111OSM   C15S11433   2.108   1.254   4.743 -0.2422  0.4858  0.7719
  111OSM   H15S11434   2.198   1.316   4.763 -0.4389  1.1043 -0.1783
  111OSM   H15T11435   2.032   1.333   4.762  1.2684  1.9225  1.1518
  111OSM   C16S11436   2.109   1.210   4.596 -0.2252  0.2760  0.0952
  111OSM   H16S11437   2.099   1.303   4.535  1.6611  1.5070  1.5542
  111OSM   H16T11438   2.015   1.160   4.566  1.2922 -1.8392 -1.3819
  111OSM   C17S11439   2.237   1.134   4.557  0.1535 -0.3796 -0.0275
  111OSM   H17S11440   2.252   1.050   4.629  1.2090 -1.7257 -1.7534
  111OSM   H17T11441   2.322   1.205   4.572  0.5312 -0.7646 -0.3412
  111OSM   C18S11442   2.248   1.085   4.415  0.1507 -0.3523 -0.3640
  111OSM   H18S11443   2.350   1.045   4.394  0.5487  0.6973 -0.4841
  111OSM   H18T11444   2.223   1.162   4.339  1.2061 -0.5559 -0.9452
  111OSM   H18U11445   2.188   0.992   4.403  0.4845 -1.0584  2.7622
  111OSM    C1F11446   1.982   1.355   6.144  0.2176 -0.2122 -0.9339
  111OSM     OF11447   2.103   1.389   6.139  0.6102  0.0422  0.4924
  111OSM    C2F11448   1.871   1.446   6.107  0.3305 -0.0383  0.9098
  111OSM    H2F11449   1.819   1.482   6.198 -1.5317  0.8234 -0.4458
  111OSM    H2G11450   1.799   1.385   6.048  1.6281  0.3656 -1.2069
  111OSM    C3F11451   1.903   1.564   6.009 -0.3355  0.0938 -1.0713
  111OSM    H3F11452   1.974   1.532   5.930  0.8060  2.3656 -1.0358
  111OSM    H3G11453   1.968   1.634   6.065 -3.2708  2.0594  0.1219
  111OSM    C4F11454   1.783   1.622   5.936 -0.0294 -0.0080 -0.3012
  111OSM    H4F11455   1.794   1.732   5.925 -2.2553  0.5389  1.9969
  111OSM    H4G11456   1.686   1.589   5.980  0.2589  0.4352  0.6883
  111OSM    C5F11457   1.767   1.570   5.787  0.5761 -0.7959 -0.7085
  111OSM    H5F11458   1.661   1.564   5.756  0.0053 -0.0237  0.9862
  111OSM    H5G11459   1.817   1.470   5.784 -0.8295 -1.5070 -1.2881
  111OSM    C6F11460   1.845   1.658   5.685 -0.4105 -0.6923 -0.1837
  111OSM    H6F11461   1.950   1.645   5.718 -0.3617 -3.4736 -1.2155
  111OSM    H6G11462   1.820   1.766   5.694  1.3159 -0.0949 -1.8368
  111OSM    C7F11463   1.840   1.609   5.539 -0.1348 -0.1509  0.5631
  111OSM    H7F11464   1.734   1.600   5.506 -0.1566 -1.3342  0.9217
  111OSM    H7G11465   1.880   1.506   5.529 -1.8267 -0.7490 -0.4299
  111OSM    C8F11466   1.928   1.689   5.443  0.1457 -0.1569  0.3045
  111OSM    H8F11467   1.955   1.620   5.360 -2.1781  0.2339 -0.8493
  111OSM    H8G11468   2.023   1.718   5.493  0.7761 -1.4778 -0.1004
  111OSM    C9F11469   1.855   1.811   5.386 -0.9240  0.1528 -0.8053
  111OSM    H9F11470   1.843   1.899   5.452 -0.3869  0.9803 -1.7905
  111OSM   C10F11471   1.796   1.820   5.264  0.1389 -0.1707  0.0988
  111OSM   H10F11472   1.750   1.916   5.237 -1.4967 -0.5817  1.2264
  111OSM   C11F11473   1.801   1.729   5.149  0.1537  1.0498  0.2577
  111OSM   H11F11474   1.707   1.720   5.089  0.3634  1.1166 -0.0857
  111OSM   H11G11475   1.820   1.625   5.182  2.1066  0.1710 -3.1581
  111OSM   C12F11476   1.907   1.740   5.044 -0.1505 -0.0579  0.4590
  111OSM   H12F11477   2.009   1.738   5.088  0.1352  1.5449 -0.0652
  111OSM   H12G11478   1.908   1.838   4.992  2.3288 -0.7712 -1.0069
  111OSM   C13F11479   1.884   1.631   4.932 -0.2229 -0.6211 -0.8665
  111OSM   H13F11480   1.779   1.644   4.900 -0.8148 -0.3580  1.0756
  111OSM   H13G11481   1.895   1.531   4.979 -0.7736  0.1265  0.9560
  111OSM   C14F11482   1.980   1.630   4.809  0.1824  0.3483  1.2540
  111OSM   H14F11483   1.951   1.550   4.738  1.6934  0.2008  0.7678
  111OSM   H14G11484   2.084   1.608   4.841 -0.3340 -2.9452  0.9676
  111OSM   C15F11485   1.994   1.762   4.724 -0.5433 -0.2206 -0.1829
  111OSM   H15F11486   2.036   1.840   4.792 -0.5797 -0.9615  0.7047
  111OSM   H15G11487   1.900   1.799   4.678  0.5260  3.0044 -0.0594
  111OSM   C16F11488   2.101   1.739   4.611  0.5584  0.6388  0.5371
  111OSM   H16F11489   2.088   1.643   4.557 -3.1221  0.6266  1.1565
  111OSM   H16G11490   2.198   1.736   4.664  0.3058 -0.2948  0.9506
  111OSM   C17F11491   2.103   1.852   4.512 -0.2103 -0.8855 -0.2525
  111OSM   H17F11492   2.016   1.864   4.444  0.0265  3.8125 -0.0564
  111OSM   H17G11493   2.185   1.832   4.440  0.6127 -0.2754  0.4959
  111OSM   C18F11494   2.123   1.990   4.579  0.0323 -0.6753 -0.2495
  111OSM   H18F11495   2.133   2.063   4.496  3.2054  0.4113  0.9137
  111OSM   H18G11496   2.223   2.006   4.626 -1.0975  2.1330  1.4785
  111OSM   H18H11497   2.050   2.038   4.647  0.7871  0.8042 -0.4341
  112OSM      N11498   6.599   6.568   6.793  0.7019 -0.6072  0.1377
  112OSM    C1511499   6.495   6.638   6.878 -0.3215 -0.3046 -0.6639
  112OSM   H15A11500   6.479   6.738   6.839  2.0392 -0.3569 -1.9554
  112OSM   H15B11501   6.525   6.635   6.982  0.0555 -0.1400 -0.7640
  112OSM   H15C11502   6.403   6.582   6.872 -0.3579 -0.4133  0.6176
  112OSM    C1411503   6.730   6.632   6.807 -0.4611 -0.5446  0.3948
  112OSM   H14A11504   6.774   6.608   6.902  0.9569 -0.3955 -0.2092
  112OSM   H14B11505   6.737   6.740   6.804  0.4835 -0.6188 -0.4192
  112OSM   H14C11506   6.793   6.591   6.730 -1.9059 -0.6697 -0.7766
  112OSM    C1311507   6.613   6.420   6.833 -0.3882 -0.2855  0.0002
  112OSM   H13A11508   6.514   6.379   6.823 -0.8392  0.8236 -0.2683
  112OSM   H13B11509   6.659   6.416   6.930  1.6986  2.8908 -0.7161
  112OSM   H13C11510   6.686   6.376   6.768 -1.3535  0.2860 -1.5248
  112OSM    C1211511   6.553   6.566   6.649 -0.1095 -0.1223 -0.1088
  112OSM   H12A11512   6.634   6.534   6.585 -1.2713 -0.9827 -1.1926
  112OSM   H12B11513   6.550   6.671   6.624  1.1350  0.3322  1.4897
  112OSM    C1111514   6.424   6.484   6.618  0.1958 -0.1109 -0.4732
  112OSM   H11A11515   6.432   6.382   6.661  0.7465 -0.3180 -1.0538
  112OSM   H11B11516   6.415   6.467   6.509 -1.0908 -0.1968 -0.3652
  112OSM      P11517   6.243   6.672   6.594  0.2591 -0.1006  0.2460
  112OSM    O1311518   6.122   6.707   6.662  0.0535  0.0987 -0.2699
  112OSM    O1411519   6.347   6.781   6.585 -0.4702 -0.2967 -0.1033
  112OSM    O1111520   6.212   6.624   6.451 -0.3499 -0.2127  0.0065
  112OSM    O1211521   6.295   6.542   6.670  0.3813  0.2098 -0.1378
  112OSM    C1S11522   6.150   6.501   6.439 -0.1261  0.7272 -0.6394
  112OSM    H1S11523   6.048   6.501   6.482 -0.0478 -0.1469 -0.4358
  112OSM    H1T11524   6.207   6.412   6.475 -0.6778  0.9816  0.9511
  112OSM     NF11525   6.052   6.350   6.280 -0.6880 -0.3280  0.0876
  112OSM    HNF11526   6.094   6.260   6.270 -0.4359 -0.1350 -0.5981
  112OSM    C2S11527   6.144   6.467   6.290  0.1830  0.4747  0.6868
  112OSM    H2S11528   6.098   6.554   6.239  0.7784 -0.4118 -1.4716
  112OSM    C3S11529   6.293   6.444   6.236  1.1889  0.0237 -0.1958
  112OSM    H3S11530   6.325   6.351   6.287 -3.4255 -1.3620  0.6137
  112OSM     O311531   6.378   6.549   6.271  0.2503  0.1851 -0.6340
  112OSM    HO311532   6.331   6.587   6.346  0.2819  1.4966 -1.2584
  112OSM    C4S11533   6.300   6.439   6.084  0.0861 -0.2261 -0.4608
  112OSM    H4S11534   6.240   6.508   6.024  1.3021  0.4553 -0.9317
  112OSM    C5S11535   6.381   6.357   6.013 -0.3602  0.3333  0.5333
  112OSM    H5S11536   6.437   6.273   6.057 -3.1076 -1.8420  0.1438
  112OSM    C6S11537   6.402   6.343   5.867 -0.1314  0.3223  0.6061
  112OSM    H6S11538   6.386   6.238   5.835  0.1833 -0.6825  3.4570
  112OSM    H6T11539   6.508   6.351   5.835 -0.0715 -1.7956  0.0998
  112OSM    C7S11540   6.320   6.435   5.777  0.5211 -0.2923 -0.0456
  112OSM    H7S11541   6.340   6.543   5.795 -0.9460 -0.1344  0.8189
  112OSM    H7T11542   6.214   6.419   5.808  0.7494 -1.5168  0.1511
  112OSM    C8S11543   6.311   6.408   5.626  0.1599  0.3241  0.5866
  112OSM    H8S11544   6.230   6.473   5.586 -0.3757 -0.6601  0.0374
  112OSM    H8T11545   6.278   6.307   5.594 -0.0648  0.1987  1.2065
  112OSM    C9S11546   6.445   6.436   5.558 -0.0363 -0.5401  0.7718
  112OSM    H9S11547   6.516   6.355   5.584  1.3197 -0.0125 -1.0880
  112OSM    H9T11548   6.472   6.533   5.605  2.4636 -0.2057 -1.1568
  112OSM   C10S11549   6.440   6.430   5.405 -0.7200 -0.1198 -0.4460
  112OSM   H10S11550   6.355   6.498   5.382 -0.9341  0.4057  1.6865
  112OSM   H10T11551   6.415   6.333   5.356 -0.3940  0.6254 -2.1674
  112OSM   C11S11552   6.571   6.494   5.341 -0.0845  0.4355 -0.1003
  112OSM   H11S11553   6.657   6.430   5.369 -0.9307 -1.7583 -2.2043
  112OSM   H11T11554   6.585   6.594   5.388 -1.5016  1.0160 -0.8446
  112OSM   C12S11555   6.563   6.506   5.191 -0.0927 -0.9448 -0.4018
  112OSM   H12S11556   6.473   6.568   5.169 -0.5067 -1.5365 -0.3976
  112OSM   H12T11557   6.540   6.406   5.148 -0.7277 -0.6444 -0.7725
  112OSM   C13S11558   6.689   6.575   5.128  0.0230  0.2360 -0.5319
  112OSM   H13S11559   6.776   6.509   5.145 -0.1715 -0.0254 -0.5451
  112OSM   H13T11560   6.708   6.666   5.188  2.2427 -0.4939 -0.0185
  112OSM   C14S11561   6.682   6.595   4.976 -0.0907 -0.3989  0.8748
  112OSM   H14S11562   6.769   6.656   4.944  1.3606 -2.7466  0.0575
  112OSM   H14T11563   6.583   6.640   4.958  0.5071  1.1670  1.3405
  112OSM   C15S11564   6.700   6.462   4.896 -0.0935  0.4982 -0.1216
  112OSM   H15S11565   6.617   6.395   4.927  2.3252 -1.2949  3.1138
  112OSM   H15T11566   6.796   6.412   4.921  1.1449  1.4586 -2.6249
  112OSM   C16S11567   6.717   6.486   4.748  0.1348  0.7286  0.2769
  112OSM   H16S11568   6.783   6.572   4.725  1.6440 -0.5553 -0.4376
  112OSM   H16T11569   6.618   6.508   4.703  0.0016  2.2387  1.2498
  112OSM   C17S11570   6.776   6.363   4.681 -0.3381  0.4414  0.2680
  112OSM   H17S11571   6.715   6.276   4.714  0.1113 -0.6371 -1.6190
  112OSM   H17T11572   6.883   6.363   4.709  0.3504  0.3391 -2.1681
  112OSM   C18S11573   6.767   6.353   4.530 -0.3633  0.5330 -0.0009
  112OSM   H18S11574   6.662   6.364   4.494 -1.6519 -1.6766  2.6743
  112OSM   H18T11575   6.815   6.262   4.490  1.7402  2.4354 -2.1175
  112OSM   H18U11576   6.818   6.435   4.475  0.5309  0.4614  0.7003
  112OSM    C1F11577   5.923   6.360   6.297 -0.6487  0.2049 -0.8204
  112OSM     OF11578   5.871   6.471   6.305 -0.3876  0.7146  0.1044
  112OSM    C2F11579   5.843   6.233   6.310 -0.6535 -0.2257  0.4408
  112OSM    H2F11580   5.736   6.263   6.307 -0.6927 -0.0118  2.5614
  112OSM    H2G11581   5.841   6.180   6.408  0.8622  0.4827  0.8898
  112OSM    C3F11582   5.875   6.125   6.206 -0.6729 -0.0530 -0.0757
  112OSM    H3F11583   5.797   6.047   6.215 -2.2471  1.5155  0.5553
  112OSM    H3G11584   5.980   6.095   6.230 -0.8844  0.5680  1.8496
  112OSM    C4F11585   5.872   6.175   6.061  0.1125  0.1401  0.1585
  112OSM    H4F11586   5.944   6.259   6.052  0.8688 -0.2847  1.9561
  112OSM    H4G11587   5.774   6.218   6.032 -0.9093 -2.6486 -0.8345
  112OSM    C5F11588   5.918   6.074   5.964 -0.3792 -0.7154 -0.2269
  112OSM    H5F11589   5.843   5.993   5.974 -1.2153  0.0658 -0.0448
  112OSM    H5G11590   6.022   6.037   5.972  1.1520  2.7263 -1.8191
  112OSM    C6F11591   5.916   6.133   5.818  0.5908 -0.4401 -0.7010
  112OSM    H6F11592   6.020   6.172   5.811  1.6203 -1.8854  3.5405
  112OSM    H6G11593   5.838   6.212   5.811  2.0239  0.9899 -1.2430
  112OSM    C7F11594   5.889   6.026   5.708 -0.2229 -0.5107 -0.1465
  112OSM    H7F11595   5.783   5.996   5.701 -1.2649  2.9367 -0.8889
  112OSM    H7G11596   5.946   5.935   5.736  1.1341 -0.0901 -1.3970
  112OSM    C8F11597   5.933   6.077   5.571 -0.3361 -0.3185 -0.6492
  112OSM    H8F11598   5.897   6.182   5.567 -2.6053 -0.8905  1.7289
  112OSM    H8G11599   5.873   6.029   5.490 -1.5126 -0.3195  0.1830
  112OSM    C9F11600   6.084   6.076   5.547 -0.6299  0.3588 -0.0174
  112OSM    H9F11601   6.141   6.133   5.622 -0.2499 -1.2947  0.9999
  112OSM   C10F11602   6.147   6.013   5.444 -0.0011  0.0357 -0.8548
  112OSM   H10F11603   6.257   6.019   5.448  0.1604 -2.2880  0.2989
  112OSM   C11F11604   6.087   5.926   5.343 -0.5901 -0.9146  0.8484
  112OSM   H11F11605   5.996   5.870   5.370  0.0299 -1.4057  2.0065
  112OSM   H11G11606   6.162   5.851   5.309 -0.6288 -0.6423  0.1431
  112OSM   C12F11607   6.051   6.005   5.216 -0.1657 -0.4533 -0.1897
  112OSM   H12F11608   5.969   6.080   5.222  2.4233  2.5833 -0.1640
  112OSM   H12G11609   6.031   5.923   5.143  3.0538 -1.5014 -0.0571
  112OSM   C13F11610   6.174   6.074   5.156 -0.0933 -0.0254  0.3358
  112OSM   H13F11611   6.269   6.016   5.153  0.7404  1.2395  1.1922
  112OSM   H13G11612   6.195   6.156   5.228 -1.1201 -1.2644  2.1234
  112OSM   C14F11613   6.144   6.132   5.015 -0.4402 -0.7955 -0.0013
  112OSM   H14F11614   6.224   6.206   4.990  0.1078 -1.2808  0.3037
  112OSM   H14G11615   6.054   6.197   5.019 -0.3656 -0.7054  0.2383
  112OSM   C15F11616   6.140   6.036   4.895  0.5066 -0.0534  0.6303
  112OSM   H15F11617   6.067   5.960   4.929 -0.3263  1.1013  1.5096
  112OSM   H15G11618   6.239   5.987   4.882  0.6382 -0.9535  4.0137
  112OSM   C16F11619   6.080   6.098   4.771 -0.2439 -0.4447  0.7494
  112OSM   H16F11620   6.148   6.182   4.745  0.1838 -0.5827  1.3913
  112OSM   H16G11621   5.982   6.142   4.800 -0.1534  0.0115  0.3840
  112OSM   C17F11622   6.069   5.993   4.652  0.6727 -0.4200 -0.4296
  112OSM   H17F11623   6.172   5.952   4.642 -0.7178 -5.1976  1.6023
  112OSM   H17G11624   6.043   6.039   4.555  0.1304  0.2601  0.0284
  112OSM   C18F11625   5.979   5.879   4.687 -0.3389  0.0862  0.1286
  112OSM   H18F11626   5.871   5.905   4.695 -0.8889 -1.4890 -1.4495
  112OSM   H18G11627   6.016   5.816   4.770  0.0731  1.8549  1.3545
  112OSM   H18H11628   5.987   5.812   4.598 -1.5098  0.4464 -0.2683
  113OSM      N11629   4.486   5.535   6.522 -0.5664 -0.3369  0.3172
  113OSM    C1511630   4.611   5.602   6.460  0.8770 -0.4249 -0.5553
  113OSM   H15A11631   4.646   5.531   6.386  1.3690  0.5509 -1.2857
  113OSM   H15B11632   4.694   5.644   6.516  1.0098  0.1563 -1.1762
  113OSM   H15C11633   4.569   5.689   6.412 -0.7362 -0.1430  1.2446
  113OSM    C1411634   4.530   5.407   6.592  0.1361 -0.7132 -0.2658
  113OSM   H14A11635   4.446   5.339   6.597 -0.4930  0.1262  0.7077
  113OSM   H14B11636   4.574   5.426   6.688  2.9586  0.3720 -1.6520
  113OSM   H14C11637   4.605   5.348   6.541 -1.1513 -2.2409 -0.4787
  113OSM    C1311638   4.411   5.624   6.618  0.0164  0.0077  0.6184
  113OSM   H13A11639   4.321   5.576   6.654 -1.5863  1.2296 -1.4910
  113OSM   H13B11640   4.366   5.701   6.557 -3.8370 -1.7113  0.9645
  113OSM   H13C11641   4.470   5.667   6.698  0.1812 -1.2334  1.1890
  113OSM    C1211642   4.386   5.501   6.417 -0.0560 -0.9621  0.0079
  113OSM   H12A11643   4.296   5.464   6.464  0.9548 -1.4238  1.6448
  113OSM   H12B11644   4.430   5.426   6.353 -1.1007  0.3913 -2.4213
  113OSM    C1111645   4.346   5.620   6.324 -0.5665  0.3039  0.3912
  113OSM   H11A11646   4.290   5.575   6.239  0.1360  0.9613 -0.4363
  113OSM   H11B11647   4.430   5.677   6.278 -1.6185  1.4898 -0.1299
  113OSM      P11648   4.106   5.688   6.397  0.4144 -0.3995 -0.0725
  113OSM    O1311649   4.087   5.544   6.428 -0.0825  0.8117 -0.4084
  113OSM    O1411650   4.039   5.778   6.497 -0.4148 -0.3942 -0.2673
  113OSM    O1111651   4.058   5.724   6.252  0.4386 -0.6119 -0.5896
  113OSM    O1211652   4.262   5.721   6.389 -0.2275 -0.0956 -0.4035
  113OSM    C1S11653   4.019   5.632   6.155  0.0067 -0.0347  0.4832
  113OSM    H1S11654   3.920   5.591   6.187  0.3330 -1.7320 -0.5474
  113OSM    H1T11655   4.088   5.545   6.151  1.0994  0.8528 -0.9646
  113OSM     NF11656   3.941   5.602   5.917 -0.0430  0.2139 -0.1922
  113OSM    HNF11657   3.987   5.566   5.836  0.8484 -0.9133  0.7745
  113OSM    C2S11658   4.012   5.693   6.015 -0.0295 -0.1624  0.3034
  113OSM    H2S11659   3.950   5.785   6.024  0.8821  0.5315 -0.2570
  113OSM    C3S11660   4.152   5.757   5.972  0.0559 -0.2247 -0.1895
  113OSM    H3S11661   4.221   5.672   5.953  1.2973  0.6176  0.4502
  113OSM     O311662   4.216   5.839   6.073 -0.1246  0.1102  0.0409
  113OSM    HO311663   4.185   5.804   6.156  2.1118 -1.7201  0.2235
  113OSM    C4S11664   4.136   5.837   5.851 -0.0369 -0.5661 -0.2236
  113OSM    H4S11665   4.156   5.790   5.754 -3.4028  0.3385 -1.4679
  113OSM    C5S11666   4.097   5.964   5.851 -0.7193  0.0000 -0.4496
  113OSM    H5S11667   4.093   6.016   5.948 -1.8692  1.5345 -1.2644
  113OSM    C6S11668   4.064   6.059   5.735 -0.0254 -0.1833  0.1642
  113OSM    H6S11669   4.143   6.136   5.723  0.1334 -0.3229  0.3284
  113OSM    H6T11670   3.975   6.117   5.768 -1.0434  0.1311 -2.7673
  113OSM    C7S11671   4.027   5.991   5.601  0.1417 -0.5209  0.2966
  113OSM    H7S11672   3.938   5.924   5.611  0.9349 -1.5117  0.9284
  113OSM    H7T11673   4.120   5.935   5.580 -1.1682 -3.0985  0.9557
  113OSM    C8S11674   3.984   6.091   5.487  0.5127 -0.4180  0.0346
  113OSM    H8S11675   4.066   6.165   5.471  1.0633 -1.1574 -0.6592
  113OSM    H8T11676   3.892   6.146   5.515 -0.4918 -1.3842 -1.2496
  113OSM    C9S11677   3.965   6.024   5.348  0.2488 -0.4237 -0.1886
  113OSM    H9S11678   3.871   5.968   5.364  0.9023 -1.3290  0.6102
  113OSM    H9T11679   4.049   5.953   5.333 -0.5622 -1.0796 -1.7757
  113OSM   C10S11680   3.926   6.115   5.227 -0.5050  0.2353  0.6995
  113OSM   H10S11681   4.017   6.176   5.209 -0.7502  0.5164  0.3970
  113OSM   H10T11682   3.835   6.176   5.248 -0.0903  1.3864 -0.6773
  113OSM   C11S11683   3.876   6.039   5.103 -0.5149 -0.8471 -0.0728
  113OSM   H11S11684   3.778   5.993   5.131 -0.3211 -1.0580  0.2738
  113OSM   H11T11685   3.934   5.945   5.089  1.2055  0.2356 -0.5156
  113OSM   C12S11686   3.881   6.116   4.977 -0.0046  0.0795 -0.4944
  113OSM   H12S11687   3.990   6.121   4.956  0.3202  1.2671  1.1871
  113OSM   H12T11688   3.833   6.216   4.973 -0.3748 -0.0578  0.3688
  113OSM   C13S11689   3.822   6.037   4.868 -0.0339  0.5309  0.3870
  113OSM   H13S11690   3.712   6.022   4.880  0.2099 -1.4858  0.5327
  113OSM   H13T11691   3.867   5.937   4.848 -1.6318 -0.0566 -0.4617
  113OSM   C14S11692   3.845   6.109   4.730  0.2525 -0.0965  0.1080
  113OSM   H14S11693   3.944   6.157   4.722 -1.5241  4.1440  0.9185
  113OSM   H14T11694   3.773   6.193   4.721 -1.0667 -1.3072 -1.3590
  113OSM   C15S11695   3.839   6.021   4.601  0.2530  0.1651  0.4693
  113OSM   H15S11696   3.919   5.943   4.595 -0.4970 -0.5684 -0.1817
  113OSM   H15T11697   3.841   6.088   4.513 -3.0596 -0.8604 -0.5361
  113OSM   C16S11698   3.703   5.954   4.585  0.1398 -0.0480 -0.5423
  113OSM   H16S11699   3.675   5.909   4.683  3.5453  1.1003  1.1431
  113OSM   H16T11700   3.716   5.877   4.506  3.6501  0.5101 -0.6681
  113OSM   C17S11701   3.592   6.045   4.531  0.3524  0.1563 -1.2373
  113OSM   H17S11702   3.615   6.080   4.428 -0.6642 -0.7077 -1.7748
  113OSM   H17T11703   3.581   6.133   4.598 -1.1055 -1.7340  1.1173
  113OSM   C18S11704   3.460   5.977   4.521 -0.1023 -0.4115 -0.1546
  113OSM   H18S11705   3.373   6.040   4.495 -0.3752 -0.4425  0.6721
  113OSM   H18T11706   3.441   5.924   4.617  5.6498 -0.3427  1.4221
  113OSM   H18U11707   3.462   5.889   4.453 -2.2012 -0.6156 -0.0273
  113OSM    C1F11708   3.807   5.576   5.933 -0.3855 -0.7057 -0.4295
  113OSM     OF11709   3.750   5.628   6.028  0.1509 -0.6104  0.3278
  113OSM    C2F11710   3.740   5.518   5.812  0.1428  0.4264  0.1637
  113OSM    H2F11711   3.780   5.420   5.779  0.1102  0.3147  0.4544
  113OSM    H2G11712   3.749   5.588   5.726  1.7676 -3.0804 -2.7768
  113OSM    C3F11713   3.588   5.503   5.841  0.6520  0.3736 -0.3084
  113OSM    H3F11714   3.547   5.606   5.848  0.6765  0.3472  0.2701
  113OSM    H3G11715   3.566   5.445   5.933 -0.9065  0.7176 -0.4362
  113OSM    C4F11716   3.510   5.447   5.720  0.1805  0.2821  0.5921
  113OSM    H4F11717   3.405   5.422   5.745  0.0071 -0.3680 -0.6709
  113OSM    H4G11718   3.533   5.342   5.693 -1.5506  0.3787 -1.5648
  113OSM    C5F11719   3.516   5.529   5.588  0.4467  0.5310 -0.6712
  113OSM    H5F11720   3.623   5.548   5.567  0.5610  0.6433  0.0025
  113OSM    H5G11721   3.475   5.631   5.604 -0.2582  0.5155 -2.1520
  113OSM    C6F11722   3.449   5.457   5.467 -0.0380 -0.4105 -0.4212
  113OSM    H6F11723   3.428   5.529   5.385 -0.0116  0.3988  0.2663
  113OSM    H6G11724   3.352   5.418   5.505  0.0630 -1.9807 -1.6566
  113OSM    C7F11725   3.531   5.348   5.411 -0.4223  0.9719  0.0552
  113OSM    H7F11726   3.529   5.274   5.494 -1.5465  1.4776  0.5120
  113OSM    H7G11727   3.636   5.376   5.391 -0.4305  0.5745 -0.5600
  113OSM    C8F11728   3.475   5.288   5.288 -0.3766  0.1952  0.4824
  113OSM    H8F11729   3.470   5.362   5.204 -2.7966 -1.6842 -1.1603
  113OSM    H8G11730   3.369   5.262   5.306 -0.3677  0.0613  0.3418
  113OSM    C9F11731   3.552   5.155   5.260  0.2469  0.1032  0.1406
  113OSM    H9F11732   3.624   5.137   5.342  0.6872  0.2752 -0.2031
  113OSM   C10F11733   3.547   5.070   5.160  0.1199  0.1669 -0.3972
  113OSM   H10F11734   3.603   4.976   5.165  0.6738  0.5780  3.0003
  113OSM   C11F11735   3.458   5.087   5.040  0.2843 -0.4911 -0.6970
  113OSM   H11F11736   3.371   5.155   5.056 -0.2543 -0.3815 -3.5073
  113OSM   H11G11737   3.416   4.991   5.004  0.2633 -1.0223  0.7062
  113OSM   C12F11738   3.533   5.142   4.915  0.0649 -0.6618 -0.6294
  113OSM   H12F11739   3.622   5.076   4.903 -0.5568 -1.1332 -3.4940
  113OSM   H12G11740   3.571   5.246   4.922  1.1988 -0.8231 -3.2542
  113OSM   C13F11741   3.455   5.141   4.785 -0.6000 -0.0492  0.1874
  113OSM   H13F11742   3.362   5.202   4.788  0.7793  2.1422  1.5174
  113OSM   H13G11743   3.433   5.034   4.766 -2.1548  0.0899  1.0964
  113OSM   C14F11744   3.546   5.188   4.667 -0.0507 -0.4227 -0.0434
  113OSM   H14F11745   3.492   5.165   4.572 -1.4354  2.1692  0.0193
  113OSM   H14G11746   3.650   5.150   4.671  0.4815  0.8151 -1.2536
  113OSM   C15F11747   3.555   5.341   4.664 -0.2818  0.1466 -0.1515
  113OSM   H15F11748   3.640   5.367   4.730  0.1325 -3.5093  1.0058
  113OSM   H15G11749   3.459   5.378   4.705 -0.0633 -0.7020  1.2061
  113OSM   C16F11750   3.587   5.391   4.521 -0.4930 -0.2612  0.1725
  113OSM   H16F11751   3.589   5.502   4.529 -1.6987 -0.3095  1.4870
  113OSM   H16G11752   3.506   5.360   4.452  0.3607  2.0318 -2.0242
  113OSM   C17F11753   3.722   5.353   4.459 -0.2477 -0.4088 -0.2399
  113OSM   H17F11754   3.729   5.242   4.454 -0.0157 -0.3910 -0.3175
  113OSM   H17G11755   3.799   5.386   4.532 -1.8218 -1.2574  1.9082
  113OSM   C18F11756   3.754   5.408   4.321  0.0752  0.5423  0.3355
  113OSM   H18F11757   3.748   5.328   4.244  0.8172 -1.0760  1.8813
  113OSM   H18G11758   3.856   5.448   4.304 -0.5682  1.3535 -2.0115
  113OSM   H18H11759   3.682   5.489   4.295 -1.4253 -0.3416  1.5493
  114OSM      N11760   0.619   4.597   7.105 -0.5633  0.5797 -0.8165
  114OSM    C1511761   0.552   4.581   6.974  0.5638 -0.5741  0.1526
  114OSM   H15A11762   0.558   4.664   6.906 -0.4885 -0.2000  0.4891
  114OSM   H15B11763   0.448   4.552   6.970  0.7261 -0.9822 -2.5460
  114OSM   H15C11764   0.603   4.504   6.919  0.7861 -2.2000  2.4525
  114OSM    C1411765   0.539   4.690   7.193 -0.1844  0.6821 -0.3081
  114OSM   H14A11766   0.542   4.791   7.152  0.2297  1.5262  1.7004
  114OSM   H14B11767   0.585   4.697   7.290 -0.8269 -0.9796  0.1455
  114OSM   H14C11768   0.437   4.656   7.197 -0.3328  1.0517 -0.8410
  114OSM    C1311769   0.627   4.461   7.183 -0.4020  0.2291  0.0561
  114OSM   H13A11770   0.678   4.384   7.126 -2.6174 -1.0548 -0.2771
  114OSM   H13B11771   0.531   4.433   7.222 -0.2994 -1.2056 -0.6546
  114OSM   H13C11772   0.695   4.476   7.265  0.1215  2.0059 -0.6529
  114OSM    C1211773   0.762   4.658   7.079 -0.5514 -0.0377 -0.1463
  114OSM   H12A11774   0.815   4.646   7.172  1.0489 -0.0198 -1.0114
  114OSM   H12B11775   0.756   4.763   7.058 -1.8029  0.0223  0.4539
  114OSM    C1111776   0.849   4.598   6.965 -0.2571  0.2718 -0.3154
  114OSM   H11A11777   0.844   4.490   6.991 -0.7863 -0.5445 -3.4333
  114OSM   H11B11778   0.957   4.625   6.974 -0.2260  0.2554 -0.6133
  114OSM      P11779   0.793   4.772   6.770  0.3673  0.0456  0.4101
  114OSM    O1311780   0.665   4.839   6.806  0.5834 -0.1781  0.0929
  114OSM    O1411781   0.919   4.841   6.809  0.1474  0.0327  0.2404
  114OSM    O1111782   0.796   4.741   6.613  0.3375 -0.0888 -0.7327
  114OSM    O1211783   0.789   4.622   6.835 -0.2054  0.5294 -0.0761
  114OSM    C1S11784   0.768   4.859   6.533 -0.3899 -1.1173  0.0930
  114OSM    H1S11785   0.848   4.935   6.546 -0.2391 -1.5913  2.3268
  114OSM    H1T11786   0.667   4.899   6.553 -1.0970 -2.3628 -0.8406
  114OSM     NF11787   0.702   4.935   6.297 -0.7362 -1.2012 -0.0550
  114OSM    HNF11788   0.623   4.911   6.241 -2.1050  0.8577  0.8520
  114OSM    C2S11789   0.754   4.822   6.373  0.4317 -0.0764 -1.2312
  114OSM    H2S11790   0.860   4.796   6.351  0.9047  0.1849  0.5527
  114OSM    C3S11791   0.662   4.695   6.350 -0.6486  0.0235  0.2113
  114OSM    H3S11792   0.557   4.729   6.361 -0.2281  0.7606  2.3612
  114OSM     O311793   0.683   4.585   6.440 -0.1146 -0.3301 -0.3016
  114OSM    HO311794   0.719   4.618   6.522 -1.6830 -1.9847  1.1327
  114OSM    C4S11795   0.669   4.658   6.202  0.2830 -0.0751  0.5474
  114OSM    H4S11796   0.594   4.716   6.148 -0.1826 -1.4214 -0.2988
  114OSM    C5S11797   0.725   4.552   6.142 -0.8110 -0.6699 -0.1665
  114OSM    H5S11798   0.779   4.483   6.208  0.0194  0.7644  0.7204
  114OSM    C6S11799   0.711   4.506   6.002 -0.1694 -0.1402  0.0009
  114OSM    H6S11800   0.681   4.399   6.009 -0.1069 -0.0591  2.4636
  114OSM    H6T11801   0.810   4.515   5.952  0.1598  1.9146  0.9205
  114OSM    C7S11802   0.609   4.592   5.921  0.2769  0.0050 -0.0890
  114OSM    H7S11803   0.630   4.699   5.944  2.6122 -0.2929 -0.6320
  114OSM    H7T11804   0.505   4.561   5.942  0.6556 -0.9248  0.4833
  114OSM    C8S11805   0.631   4.600   5.775 -0.1055  0.0510  0.3611
  114OSM    H8S11806   0.727   4.648   5.747 -0.3346  0.3151  0.0284
  114OSM    H8T11807   0.550   4.654   5.722  1.0091 -0.0696 -1.5648
  114OSM    C9S11808   0.641   4.459   5.708  0.1362  0.5172 -0.3942
  114OSM    H9S11809   0.555   4.392   5.727  0.7488 -0.7422 -1.8917
  114OSM    H9T11810   0.726   4.401   5.750 -0.5976 -3.2186 -3.5391
  114OSM   C10S11811   0.664   4.474   5.556 -0.3572 -1.0660 -0.0794
  114OSM   H10S11812   0.589   4.535   5.501  0.4016  0.4045  0.4621
  114OSM   H10T11813   0.658   4.372   5.514  0.4462 -1.2191  0.1485
  114OSM   C11S11814   0.805   4.522   5.523 -0.4949 -0.0300 -0.0868
  114OSM   H11S11815   0.872   4.486   5.604 -0.1562 -1.0971 -0.8176
  114OSM   H11T11816   0.829   4.630   5.521  0.5747 -0.2329  0.5499
  114OSM   C12S11817   0.844   4.463   5.383 -0.6037  0.7328  0.3191
  114OSM   H12S11818   0.849   4.352   5.374  1.1140  0.9269 -2.1057
  114OSM   H12T11819   0.948   4.497   5.369 -0.3713  0.1967  0.7151
  114OSM   C13S11820   0.772   4.522   5.263 -0.6096  0.2562 -0.4167
  114OSM   H13S11821   0.767   4.633   5.266  1.3296  0.3457  0.4814
  114OSM   H13T11822   0.669   4.483   5.277  0.1547 -1.4049  0.9958
  114OSM   C14S11823   0.827   4.455   5.141  0.1389  0.5301  0.4718
  114OSM   H14S11824   0.747   4.470   5.065 -1.1893 -1.1688  1.4332
  114OSM   H14T11825   0.837   4.345   5.155  0.5137  0.7609  2.2107
  114OSM   C15S11826   0.966   4.509   5.097  0.1791  0.3460 -0.4659
  114OSM   H15S11827   1.037   4.497   5.182  0.8979  1.2284 -0.9170
  114OSM   H15T11828   0.950   4.618   5.088  0.4205  0.4598  0.3925
  114OSM   C16S11829   1.014   4.448   4.966  0.5032 -0.3735  0.3305
  114OSM   H16S11830   0.938   4.437   4.886  4.0294 -0.3563 -3.3492
  114OSM   H16T11831   1.050   4.343   4.976 -0.5440 -0.6094  1.9606
  114OSM   C17S11832   1.133   4.530   4.911  0.7953 -1.3206  0.3891
  114OSM   H17S11833   1.213   4.545   4.986  1.0412  0.0557 -0.1090
  114OSM   H17T11834   1.092   4.632   4.892  1.7171 -1.0421 -0.1555
  114OSM   C18S11835   1.186   4.469   4.776  0.1970 -0.9204  0.1246
  114OSM   H18S11836   1.105   4.446   4.703 -0.6641 -2.4805  1.5006
  114OSM   H18T11837   1.239   4.376   4.804  0.3615 -0.1429  2.7292
  114OSM   H18U11838   1.259   4.540   4.731  0.2920 -0.8035  0.4607
  114OSM    C1F11839   0.780   5.048   6.271 -0.2756 -0.3447  0.1222
  114OSM     OF11840   0.888   5.059   6.327 -0.1424  0.3923  0.9721
  114OSM    C2F11841   0.731   5.153   6.167  0.3049 -0.4632  0.0135
  114OSM    H2F11842   0.692   5.244   6.217  0.3893  0.2055 -1.0955
  114OSM    H2G11843   0.650   5.107   6.107  0.7542  0.1970 -1.1352
  114OSM    C3F11844   0.847   5.189   6.070  0.0584 -0.2287 -0.7758
  114OSM    H3F11845   0.869   5.088   6.029  1.0277 -0.2751 -0.1614
  114OSM    H3G11846   0.931   5.231   6.128 -0.4169 -1.8203  1.1773
  114OSM    C4F11847   0.830   5.296   5.962  0.1549 -0.4094 -0.2668
  114OSM    H4F11848   0.806   5.399   5.998  0.7467 -0.8747  1.5697
  114OSM    H4G11849   0.741   5.263   5.905  1.2579 -1.8451 -1.2227
  114OSM    C5F11850   0.950   5.288   5.868  0.5861 -0.2842 -0.2341
  114OSM    H5F11851   0.975   5.183   5.842  1.6281  0.5015 -2.7387
  114OSM    H5G11852   1.037   5.332   5.920 -1.6197  3.5928  0.5593
  114OSM    C6F11853   0.910   5.361   5.734 -0.1383  0.0999 -0.6582
  114OSM    H6F11854   1.005   5.375   5.680  0.9052 -0.6185  0.9032
  114OSM    H6G11855   0.879   5.465   5.759  2.4771  0.3373  2.2030
  114OSM    C7F11856   0.805   5.292   5.649 -0.7188 -0.7443  0.4268
  114OSM    H7F11857   0.701   5.305   5.686 -1.4421 -2.3730 -0.8838
  114OSM    H7G11858   0.821   5.183   5.664 -0.2372 -1.0361 -1.8818
  114OSM    C8F11859   0.820   5.339   5.507  0.3697 -0.8018  0.3393
  114OSM    H8F11860   0.846   5.447   5.508 -1.0467 -0.4204 -0.8425
  114OSM    H8G11861   0.721   5.318   5.460  0.6410 -4.4259  1.0864
  114OSM    C9F11862   0.925   5.267   5.426  0.4372 -0.6881  0.5337
  114OSM    H9F11863   0.969   5.175   5.466  1.3587  0.7563  3.0138
  114OSM   C10F11864   0.963   5.302   5.303  0.2203 -0.1010 -0.8788
  114OSM   H10F11865   1.041   5.236   5.262  1.8359  0.2145  1.4442
  114OSM   C11F11866   0.940   5.424   5.226 -0.1330 -0.1725 -0.0633
  114OSM   H11F11867   1.038   5.470   5.201 -0.1799 -0.6405 -1.2056
  114OSM   H11G11868   0.886   5.498   5.287  1.4931  1.3665 -0.4058
  114OSM   C12F11869   0.851   5.406   5.102 -0.4724  0.2767 -0.5461
  114OSM   H12F11870   0.827   5.508   5.068 -0.9173 -0.2051 -1.7283
  114OSM   H12G11871   0.760   5.357   5.142  0.6245 -2.9078 -1.5886
  114OSM   C13F11872   0.907   5.320   4.996 -0.0554  0.7581 -0.0900
  114OSM   H13F11873   0.903   5.215   5.033 -1.8861  1.1020  0.8185
  114OSM   H13G11874   1.015   5.341   4.983 -0.0563 -0.7800 -4.0019
  114OSM   C14F11875   0.809   5.333   4.873  0.1996 -0.2270  0.6073
  114OSM   H14F11876   0.708   5.310   4.914 -1.6063  2.0469 -2.1734
  114OSM   H14G11877   0.838   5.267   4.788 -0.5848 -1.4714  1.2632
  114OSM   C15F11878   0.824   5.473   4.804  0.1669 -0.6494  0.0333
  114OSM   H15F11879   0.841   5.551   4.881 -0.0083  1.1040 -1.6291
  114OSM   H15G11880   0.731   5.500   4.749  0.3185 -0.1607  0.0115
  114OSM   C16F11881   0.936   5.482   4.699  0.3741  0.0224 -0.2067
  114OSM   H16F11882   0.913   5.419   4.610  0.9420 -1.8818  0.9411
  114OSM   H16G11883   1.030   5.454   4.751 -0.6554 -0.8787  1.2404
  114OSM   C17F11884   0.957   5.619   4.629 -0.6493  0.1217 -0.1304
  114OSM   H17F11885   0.859   5.658   4.593 -0.5359  1.1439  0.6124
  114OSM   H17G11886   1.018   5.607   4.537 -0.2997 -0.0902  0.1279
  114OSM   C18F11887   1.023   5.725   4.725  0.0335  1.0041 -0.1427
  114OSM   H18F11888   1.097   5.679   4.794  0.0391  2.1082  0.6203
  114OSM   H18G11889   0.948   5.773   4.791  0.2647  0.2184  0.7147
  114OSM   H18H11890   1.078   5.806   4.672  1.5011 -1.0177 -1.8754
  115OSM      N11891   1.522   2.207   6.765  0.4699  0.1198 -0.4072
  115OSM    C1511892   1.587   2.136   6.880 -1.0949  0.5907 -0.4691
  115OSM   H15A11893   1.638   2.204   6.947 -1.1253  0.6521 -0.5092
  115OSM   H15B11894   1.661   2.065   6.847 -1.4912  0.2239 -0.5843
  115OSM   H15C11895   1.516   2.078   6.938  0.3617 -0.4482  0.3818
  115OSM    C1411896   1.400   2.279   6.825  0.1025  0.1604 -0.4588
  115OSM   H14A11897   1.331   2.329   6.759 -0.0347  0.2275 -0.2682
  115OSM   H14B11898   1.442   2.343   6.902  2.2707 -3.5413  1.7504
  115OSM   H14C11899   1.349   2.202   6.882 -0.4355  1.9753  1.6593
  115OSM    C1311900   1.612   2.314   6.705 -0.1290 -0.6768 -0.1223
  115OSM   H13A11901   1.554   2.366   6.630 -1.1249 -0.1923  0.9676
  115OSM   H13B11902   1.691   2.256   6.659 -0.8161 -2.2105  0.5689
  115OSM   H13C11903   1.653   2.388   6.772  1.0207  1.8794 -3.3427
  115OSM    C1211904   1.483   2.104   6.658  1.0796  0.1990 -0.3868
  115OSM   H12A11905   1.427   2.026   6.709 -0.2199  0.3535 -1.5189
  115OSM   H12B11906   1.578   2.072   6.618  1.9941  1.3146  0.8311
  115OSM    C1111907   1.390   2.154   6.545  0.2027  0.0980  0.3830
  115OSM   H11A11908   1.390   2.077   6.465  0.9606 -0.0536  0.5284
  115OSM   H11B11909   1.436   2.252   6.518 -1.2299  0.3685 -1.2936
  115OSM      P11910   1.160   2.064   6.652  0.0258 -0.0131  0.1269
  115OSM    O1311911   1.230   1.984   6.752 -0.1135 -0.2294 -0.2069
  115OSM    O1411912   1.029   2.125   6.690 -0.1121  0.1463 -0.2975
  115OSM    O1111913   1.131   1.953   6.543 -0.3392 -0.4988  0.1816
  115OSM    O1211914   1.251   2.173   6.583  0.0729 -0.3086  0.3400
  115OSM    C1S11915   1.080   1.999   6.418  0.0053  0.3496 -0.7392
  115OSM    H1S11916   1.161   2.039   6.353  0.5778 -0.0150 -0.2545
  115OSM    H1T11917   1.006   2.082   6.416 -1.4238 -0.8824 -1.4099
  115OSM     NF11918   0.970   1.931   6.203  0.0353 -0.1604  0.2224
  115OSM    HNF11919   0.874   1.953   6.192  0.3115  2.4674  2.2198
  115OSM    C2S11920   1.012   1.887   6.330  0.0167  0.8489 -0.1855
  115OSM    H2S11921   1.092   1.811   6.318 -1.7673 -0.9478 -1.4737
  115OSM    C3S11922   0.893   1.815   6.407 -0.0433  0.2290  0.3797
  115OSM    H3S11923   0.811   1.891   6.410  0.7947  1.1546  0.2123
  115OSM     O311924   0.911   1.792   6.547  0.2794  0.5328 -0.2408
  115OSM    HO311925   0.981   1.847   6.582  0.1027 -0.2546  1.4767
  115OSM    C4S11926   0.841   1.698   6.317 -0.1803 -0.0316 -0.6222
  115OSM    H4S11927   0.742   1.722   6.276 -0.6157  0.6508  0.7682
  115OSM    C5S11928   0.893   1.575   6.316  0.3549  0.3036  0.5838
  115OSM    H5S11929   0.975   1.556   6.387  0.5961 -1.0015 -0.0325
  115OSM    C6S11930   0.821   1.461   6.250  0.0934  0.1236  0.1197
  115OSM    H6S11931   0.716   1.494   6.238  0.0302 -0.1330 -0.0445
  115OSM    H6T11932   0.833   1.378   6.323 -1.7091 -2.0813 -1.9111
  115OSM    C7S11933   0.868   1.431   6.105 -0.0220 -0.0186  0.6938
  115OSM    H7S11934   0.813   1.339   6.079 -1.9881  1.0206  1.0060
  115OSM    H7T11935   0.977   1.407   6.107 -0.0701 -0.6651 -1.8100
  115OSM    C8S11936   0.829   1.533   5.999 -1.0322 -0.0695  0.4892
  115OSM    H8S11937   0.888   1.623   6.024  0.6197 -1.3980  1.6396
  115OSM    H8T11938   0.721   1.559   5.996 -1.0107  0.7077  3.5278
  115OSM    C9S11939   0.872   1.481   5.862  0.2744 -0.6800  0.7065
  115OSM    H9S11940   0.822   1.391   5.822 -0.6520 -0.4555  1.3151
  115OSM    H9T11941   0.980   1.456   5.866  0.5039  0.2364  0.4828
  115OSM   C10S11942   0.853   1.582   5.747  0.3770  0.3361 -0.5314
  115OSM   H10S11943   0.900   1.681   5.769 -0.1200  0.6627 -0.9043
  115OSM   H10T11944   0.744   1.602   5.751  0.6701  2.0426  0.3418
  115OSM   C11S11945   0.876   1.533   5.608  0.1422 -0.0314  0.7921
  115OSM   H11S11946   0.803   1.449   5.602 -0.2692  0.2865  1.2147
  115OSM   H11T11947   0.980   1.496   5.599 -0.1610 -0.5822 -0.8047
  115OSM   C12S11948   0.855   1.644   5.501  0.2959 -0.1904 -0.1334
  115OSM   H12S11949   0.913   1.735   5.526  0.1792 -0.6175  1.8240
  115OSM   H12T11950   0.746   1.664   5.505  0.7333  2.1811  1.2257
  115OSM   C13S11951   0.897   1.604   5.353 -0.5223  0.0584 -0.2287
  115OSM   H13S11952   0.862   1.499   5.341  0.5727 -0.5686  1.6971
  115OSM   H13T11953   1.008   1.603   5.352 -0.4013  1.5904  2.2197
  115OSM   C14S11954   0.834   1.698   5.248  0.5601 -0.5448 -0.4438
  115OSM   H14S11955   0.867   1.802   5.267 -2.7325  0.0684  3.4563
  115OSM   H14T11956   0.723   1.699   5.257  0.5714 -1.2451 -0.1895
  115OSM   C15S11957   0.867   1.650   5.102 -0.0075  0.1859 -0.2187
  115OSM   H15S11958   0.816   1.717   5.030 -0.4647  1.0971  0.9310
  115OSM   H15T11959   0.830   1.547   5.083 -1.0461  0.6109 -0.5702
  115OSM   C16S11960   1.014   1.633   5.067  0.0258  0.2057 -0.2561
  115OSM   H16S11961   1.073   1.551   5.113  1.0732  0.3335 -1.3040
  115OSM   H16T11962   1.065   1.722   5.111 -2.3988  0.0990  3.1829
  115OSM   C17S11963   1.039   1.637   4.914 -0.2646 -0.3333  0.4794
  115OSM   H17S11964   0.983   1.560   4.858 -0.0063 -1.1586  1.3355
  115OSM   H17T11965   1.149   1.626   4.902 -0.2763  0.1130 -0.0885
  115OSM   C18S11966   1.001   1.772   4.849  0.0853 -1.0378  0.6857
  115OSM   H18S11967   1.033   1.774   4.743  0.9184  0.3110  0.9244
  115OSM   H18T11968   1.051   1.857   4.902 -1.4740 -0.3000  1.0151
  115OSM   H18U11969   0.892   1.792   4.849  0.4957  1.7222  0.8946
  115OSM    C1F11970   1.063   1.950   6.110  0.6191  0.0537 -0.6782
  115OSM     OF11971   1.184   1.947   6.124  0.4106 -0.5280 -0.1913
  115OSM    C2F11972   1.009   2.002   5.984  0.4871 -0.2506 -0.2073
  115OSM    H2F11973   0.915   2.055   6.011  0.2193 -0.3128 -1.0082
  115OSM    H2G11974   0.985   1.913   5.922  0.0440  0.8586 -1.6616
  115OSM    C3F11975   1.095   2.100   5.916 -0.5357 -0.3854  0.2458
  115OSM    H3F11976   1.201   2.069   5.914 -0.3053  0.1581  1.9465
  115OSM    H3G11977   1.092   2.196   5.973  1.7728 -1.5837  2.6077
  115OSM    C4F11978   1.050   2.135   5.772  1.2823  0.6656 -0.0200
  115OSM    H4F11979   0.946   2.171   5.778  1.3371  0.9254 -0.5795
  115OSM    H4G11980   1.051   2.047   5.704  2.7213  1.9830 -1.8333
  115OSM    C5F11981   1.140   2.244   5.721  0.3443 -1.1183  0.8924
  115OSM    H5F11982   1.247   2.219   5.734  0.8105 -1.7661 -2.8392
  115OSM    H5G11983   1.123   2.331   5.788  2.1670  0.9658 -1.1776
  115OSM    C6F11984   1.113   2.297   5.573  0.2399  0.0590 -0.1785
  115OSM    H6F11985   1.188   2.374   5.549  0.7702 -0.8591 -1.6158
  115OSM    H6G11986   1.015   2.349   5.573 -0.3625 -1.0089  0.8949
  115OSM    C7F11987   1.117   2.184   5.472  0.5539 -0.2672  0.8848
  115OSM    H7F11988   1.049   2.100   5.499  0.2591  0.1439  1.4641
  115OSM    H7G11989   1.217   2.137   5.472  0.0996 -1.4627 -2.5796
  115OSM    C8F11990   1.077   2.232   5.324 -0.7337 -0.3146 -0.3062
  115OSM    H8F11991   1.168   2.291   5.298 -1.0675  0.7243  0.7846
  115OSM    H8G11992   0.990   2.300   5.334  0.0075  0.4341  1.5324
  115OSM    C9F11993   1.055   2.130   5.211  0.1497 -0.3331 -0.6899
  115OSM    H9F11994   1.009   2.037   5.248 -1.0982  0.9341  1.1205
  115OSM   C10F11995   1.090   2.137   5.080 -0.3367  0.2608 -0.1298
  115OSM   H10F11996   1.074   2.042   5.027 -1.2563  0.0515  0.4876
  115OSM   C11F11997   1.150   2.252   5.003  0.0150 -0.1147 -0.8359
  115OSM   H11F11998   1.241   2.209   4.954  0.2635 -1.1248  0.4602
  115OSM   H11G11999   1.194   2.327   5.072  0.2213 -0.2285 -0.8407
  115OSM   C12F12000   1.059   2.321   4.901 -0.6262  0.2027 -0.3883
  115OSM   H12F12001   1.095   2.420   4.865  0.5329  1.1184  2.9320
  115OSM   H12G12002   0.972   2.359   4.959 -1.0998  1.9356 -2.1059
  115OSM   C13F12003   1.014   2.233   4.790  0.0210 -0.1126  0.2892
  115OSM   H13F12004   0.929   2.170   4.824  0.2185  0.9195  2.9928
  115OSM   H13G12005   1.092   2.158   4.762 -1.9404 -1.7577 -1.0291
  115OSM   C14F12006   0.986   2.309   4.661  0.7425  0.2296  0.2222
  115OSM   H14F12007   1.080   2.367   4.649  1.8129 -1.0721  1.7522
  115OSM   H14G12008   0.900   2.377   4.679  0.5918  0.5653 -1.5592
  115OSM   C15F12009   0.954   2.220   4.539  0.2629 -0.8722  0.0296
  115OSM   H15F12010   0.930   2.298   4.465  0.8674 -0.4236  0.3005
  115OSM   H15G12011   0.859   2.164   4.548 -0.9672  1.2855  1.2415
  115OSM   C16F12012   1.068   2.129   4.485 -0.1846 -0.7144 -1.1423
  115OSM   H16F12013   1.107   2.061   4.564 -1.8870 -0.5094 -0.0817
  115OSM   H16G12014   1.163   2.181   4.457  1.9810 -1.8393  3.1916
  115OSM   C17F12015   1.026   2.050   4.364  0.1842  0.2204  0.2723
  115OSM   H17F12016   1.003   2.117   4.279 -1.0442 -0.5452 -0.0174
  115OSM   H17G12017   0.941   1.981   4.380  1.4555 -1.6200 -0.5635
  115OSM   C18F12018   1.134   1.949   4.321 -0.2243 -0.2544  0.6784
  115OSM   H18F12019   1.218   1.998   4.267  0.3426 -2.2958 -0.3708
  115OSM   H18G12020   1.105   1.866   4.254  1.9437 -1.1281  0.7409
  115OSM   H18H12021   1.187   1.907   4.409 -1.8455 -0.6246  1.5152
  116OSM      N12022   3.605   5.249   6.905 -0.0539 -0.3605  0.0179
  116OSM    C1512023   3.581   5.236   6.761 -0.5517  0.0118  0.2673
  116OSM   H15A12024   3.623   5.319   6.707 -0.4208 -0.5415 -0.4916
  116OSM   H15B12025   3.482   5.215   6.725 -0.1484 -0.6784 -0.4638
  116OSM   H15C12026   3.635   5.147   6.733 -1.6740 -1.0887  1.4314
  116OSM    C1412027   3.588   5.117   6.978  0.6469 -0.3259  0.6746
  116OSM   H14A12028   3.641   5.120   7.071  2.2170 -0.5995 -0.1807
  116OSM   H14B12029   3.623   5.037   6.916 -0.0884  1.6949 -2.6326
  116OSM   H14C12030   3.484   5.093   6.994 -0.1553  0.8328 -2.0827
  116OSM    C1312031   3.747   5.295   6.920 -0.0594  0.2884  0.3286
  116OSM   H13A12032   3.761   5.336   7.019 -0.5811  2.5367 -0.4670
  116OSM   H13B12033   3.756   5.386   6.863  0.3330 -0.2363 -0.4598
  116OSM   H13C12034   3.821   5.221   6.893 -1.8484 -1.7924  0.8859
  116OSM    C1212035   3.513   5.354   6.949 -0.1003 -0.0422  0.3072
  116OSM   H12A12036   3.516   5.377   7.055 -0.7048 -2.1068  0.8236
  116OSM   H12B12037   3.410   5.326   6.937 -0.2292 -0.6361  2.3888
  116OSM    C1112038   3.518   5.492   6.869 -0.3139  0.6488 -0.2053
  116OSM   H11A12039   3.446   5.563   6.914  1.1121  1.1590  1.3826
  116OSM   H11B12040   3.479   5.467   6.768 -1.9231  0.1173  0.5138
  116OSM      P12041   3.726   5.603   6.758  0.1252  0.0341 -0.0313
  116OSM    O1312042   3.726   5.751   6.767 -0.1006 -0.1541  0.1573
  116OSM    O1412043   3.860   5.537   6.757 -0.0632 -0.4368  0.4260
  116OSM    O1112044   3.637   5.563   6.636 -0.2938  0.3822  0.1014
  116OSM    O1212045   3.643   5.557   6.885  0.2002 -0.0531  0.7619
  116OSM    C1S12046   3.695   5.530   6.511 -0.0607 -0.2193  0.7636
  116OSM    H1S12047   3.732   5.425   6.517 -2.3717 -1.0835  0.7522
  116OSM    H1T12048   3.783   5.592   6.483  0.0459 -0.7547 -0.1425
  116OSM     NF12049   3.650   5.467   6.278  0.0002  0.5722 -0.5245
  116OSM    HNF12050   3.677   5.522   6.200 -2.7624  2.3583 -0.3833
  116OSM    C2S12051   3.591   5.536   6.393  0.5256  0.2087 -0.1633
  116OSM    H2S12052   3.507   5.470   6.426  1.2040 -0.3077  0.5653
  116OSM    C3S12053   3.548   5.682   6.371  0.1400  0.0856 -0.3856
  116OSM    H3S12054   3.637   5.746   6.349  0.5932 -0.4818 -0.2244
  116OSM     O312055   3.476   5.744   6.483 -0.1188  0.0210  0.1196
  116OSM    HO312056   3.476   5.674   6.548 -2.4979  1.1290  1.4533
  116OSM    C4S12057   3.463   5.683   6.245  0.4125  0.0016 -0.4022
  116OSM    H4S12058   3.525   5.695   6.155 -2.7434 -0.4905 -2.8315
  116OSM    C5S12059   3.327   5.677   6.238 -0.0465  0.2065  0.4825
  116OSM    H5S12060   3.272   5.662   6.331  1.5268  1.8623  1.7446
  116OSM    C6S12061   3.256   5.674   6.105  0.6810  0.1735 -0.0456
  116OSM    H6S12062   3.331   5.707   6.030  0.7556  2.3327  0.9189
  116OSM    H6T12063   3.184   5.758   6.104  2.4617  1.8069 -2.3245
  116OSM    C7S12064   3.185   5.543   6.075 -0.2128  0.2989 -0.3676
  116OSM    H7S12065   3.107   5.521   6.152 -1.0535  1.1042 -0.9562
  116OSM    H7T12066   3.252   5.455   6.077 -1.2057 -0.5026 -1.2616
  116OSM    C8S12067   3.115   5.532   5.942  0.3240 -0.5442  0.1929
  116OSM    H8S12068   3.103   5.427   5.908 -0.1436 -0.3648 -0.2066
  116OSM    H8T12069   3.178   5.562   5.856  1.5162  1.1203  1.5736
  116OSM    C9S12070   2.978   5.605   5.934  0.0459 -0.2819  0.2844
  116OSM    H9S12071   3.009   5.711   5.940  0.4106 -0.4576  2.4532
  116OSM    H9T12072   2.916   5.582   6.024  0.7137  1.4369  1.2387
  116OSM   C10S12073   2.893   5.557   5.817  0.1984  0.0655  0.5172
  116OSM   H10S12074   2.851   5.457   5.840  1.2468 -0.4489  0.2691
  116OSM   H10T12075   2.959   5.539   5.730 -0.6850  0.4898 -0.2531
  116OSM   C11S12076   2.776   5.653   5.793 -0.4088  0.1531 -0.3140
  116OSM   H11S12077   2.810   5.750   5.750  2.4458 -0.2972  0.6928
  116OSM   H11T12078   2.733   5.680   5.892 -0.9321  1.3102 -0.8341
  116OSM   C12S12079   2.657   5.610   5.710  0.4433  0.4337  0.0170
  116OSM   H12S12080   2.614   5.514   5.745 -2.3713  0.4565 -2.8896
  116OSM   H12T12081   2.685   5.602   5.603  0.2730  2.3297 -0.2006
  116OSM   C13S12082   2.548   5.722   5.707  0.2185  0.1106 -0.1406
  116OSM   H13S12083   2.457   5.683   5.658 -0.1223 -1.6447  1.7599
  116OSM   H13T12084   2.581   5.813   5.652 -2.7660  0.4541 -1.5215
  116OSM   C14S12085   2.497   5.765   5.847 -0.6751  0.1749  0.6638
  116OSM   H14S12086   2.415   5.838   5.834 -0.8064 -0.4077 -2.6275
  116OSM   H14T12087   2.581   5.809   5.906 -1.1231  0.3504  1.1737
  116OSM   C15S12088   2.435   5.651   5.930 -0.6501 -0.5044 -0.2271
  116OSM   H15S12089   2.513   5.579   5.961 -0.8834 -0.2237  1.0666
  116OSM   H15T12090   2.360   5.594   5.872  0.6164 -1.6383 -0.7959
  116OSM   C16S12091   2.358   5.701   6.052  0.3600 -0.3794  0.4918
  116OSM   H16S12092   2.269   5.760   6.022  0.6736  0.2313  0.7403
  116OSM   H16T12093   2.408   5.761   6.131  0.2163 -1.4059  1.3880
  116OSM   C17S12094   2.314   5.578   6.137 -0.0136  0.1790 -0.0765
  116OSM   H17S12095   2.399   5.525   6.187 -0.7103  0.4436  1.4508
  116OSM   H17T12096   2.248   5.506   6.085 -2.3767  0.4514  2.3306
  116OSM   C18S12097   2.235   5.630   6.263  0.0180  0.4620 -0.7973
  116OSM   H18S12098   2.178   5.549   6.313 -0.7237  1.1052 -0.5804
  116OSM   H18T12099   2.151   5.693   6.227 -2.4888 -0.8633  2.2519
  116OSM   H18U12100   2.289   5.689   6.340 -1.0562 -0.0778  0.4106
  116OSM    C1F12101   3.684   5.340   6.282  0.0656  0.6256  0.2118
  116OSM     OF12102   3.664   5.263   6.373  0.0298 -0.5394 -0.3591
  116OSM    C2F12103   3.743   5.282   6.157  0.0190 -0.2709 -0.5185
  116OSM    H2F12104   3.818   5.357   6.125 -1.4379  2.3738  1.8609
  116OSM    H2G12105   3.665   5.279   6.077 -1.9939  1.6585  1.2278
  116OSM    C3F12106   3.813   5.147   6.164 -0.2650  0.8831  0.5826
  116OSM    H3F12107   3.743   5.066   6.194  3.0069 -1.4539  2.6368
  116OSM    H3G12108   3.900   5.143   6.234  0.7419 -1.4597 -0.6706
  116OSM    C4F12109   3.872   5.107   6.026  0.0910  0.2893  0.6145
  116OSM    H4F12110   3.926   5.010   6.032  0.7721  0.4268 -1.8650
  116OSM    H4G12111   3.952   5.182   6.005 -0.5781  0.8789  0.1286
  116OSM    C5F12112   3.775   5.104   5.911  0.0177 -0.0358  1.0699
  116OSM    H5F12113   3.738   5.207   5.890 -1.7306 -0.9597 -0.6933
  116OSM    H5G12114   3.689   5.044   5.947  0.1293 -0.2671  0.9463
  116OSM    C6F12115   3.823   5.039   5.779  0.0545 -0.5621 -0.1990
  116OSM    H6F12116   3.879   4.945   5.797 -0.7870 -0.6558  2.2921
  116OSM    H6G12117   3.896   5.104   5.727 -0.2142  0.3805  0.5812
  116OSM    C7F12118   3.697   5.021   5.690 -0.6107  0.0801  0.5097
  116OSM    H7F12119   3.620   5.101   5.691 -0.8221 -0.1246  1.1511
  116OSM    H7G12120   3.639   4.942   5.741  2.3509 -1.5373  1.6234
  116OSM    C8F12121   3.731   4.992   5.544 -0.6849  0.9745 -0.7813
  116OSM    H8F12122   3.791   5.075   5.502  1.8782  1.0556  2.5955
  116OSM    H8G12123   3.634   4.977   5.491 -1.1050 -0.4973  0.3301
  116OSM    C9F12124   3.808   4.861   5.533  0.3515  0.1965 -0.1883
  116OSM    H9F12125   3.816   4.804   5.627  1.1771 -0.1706 -0.4718
  116OSM   C10F12126   3.890   4.822   5.434  0.8585 -0.5885  0.3702
  116OSM   H10F12127   3.944   4.727   5.445 -2.4976 -2.6191  0.8358
  116OSM   C11F12128   3.900   4.911   5.311  0.1211  0.4576 -0.3625
  116OSM   H11F12129   4.001   4.956   5.304  0.4087 -0.3844 -2.2108
  116OSM   H11G12130   3.827   4.994   5.319 -0.3726 -0.1558  2.8783
  116OSM   C12F12131   3.878   4.835   5.184 -0.5018 -0.6481  0.5414
  116OSM   H12F12132   3.772   4.803   5.174 -0.5770 -0.1523 -0.4451
  116OSM   H12G12133   3.938   4.744   5.165 -0.4991 -0.1964 -2.0331
  116OSM   C13F12134   3.913   4.932   5.069 -0.0789  0.4044  0.8413
  116OSM   H13F12135   4.016   4.970   5.079 -0.6852  1.9678  1.4984
  116OSM   H13G12136   3.846   5.020   5.084 -0.8933  0.0686 -0.5994
  116OSM   C14F12137   3.898   4.862   4.931  0.0857 -0.5670 -0.0097
  116OSM   H14F12138   3.802   4.807   4.930 -0.5432  0.3965  1.9894
  116OSM   H14G12139   3.973   4.781   4.920  2.4432  1.5177 -0.4110
  116OSM   C15F12140   3.914   4.964   4.818  0.4405  0.3969 -0.5008
  116OSM   H15F12141   3.994   5.039   4.832 -0.2105  0.9161  0.5962
  116OSM   H15G12142   3.819   5.019   4.835 -0.7617 -2.2240  2.2566
  116OSM   C16F12143   3.909   4.901   4.674 -0.3251 -0.4721 -0.3035
  116OSM   H16F12144   3.809   4.857   4.655 -1.6250  0.6852  3.1584
  116OSM   H16G12145   3.989   4.824   4.667 -1.1779 -1.3657 -0.4920
  116OSM   C17F12146   3.917   5.011   4.567 -0.4651 -0.6488 -0.3174
  116OSM   H17F12147   4.019   5.054   4.577  0.2705 -2.4936  0.4510
  116OSM   H17G12148   3.846   5.085   4.608 -0.3597 -0.5012 -0.4004
  116OSM   C18F12149   3.893   4.973   4.425  0.3904 -0.1750 -0.9953
  116OSM   H18F12150   3.982   4.924   4.380  0.2608 -1.4402  0.0754
  116OSM   H18G12151   3.874   5.063   4.362 -1.2254  1.2013  1.2911
  116OSM   H18H12152   3.806   4.904   4.417  0.1228  0.0391 -0.0785
  117OSM      N12153   1.341   2.970   6.831  0.1349 -0.3369  0.5854
  117OSM    C1512154   1.441   3.019   6.930  0.1011  0.4969  0.2181
  117OSM   H15A12155   1.541   3.020   6.889  0.0756 -1.3438  0.0369
  117OSM   H15B12156   1.446   2.962   7.021  2.9843  0.5068  0.1668
  117OSM   H15C12157   1.435   3.123   6.957 -0.2820  0.4547  0.2963
  117OSM    C1412158   1.201   2.961   6.899 -0.4417 -0.4561 -0.2856
  117OSM   H14A12159   1.170   3.057   6.937  0.8501 -0.3467  0.5481
  117OSM   H14B12160   1.220   2.901   6.987 -1.2388  0.9972  0.9216
  117OSM   H14C12161   1.123   2.923   6.835 -1.1284  0.3554  0.0493
  117OSM    C1312162   1.322   3.075   6.731  0.2156 -0.7043  0.3280
  117OSM   H13A12163   1.409   3.089   6.669  0.7770  1.1752  1.4541
  117OSM   H13B12164   1.310   3.167   6.787  2.1287 -0.1483 -0.1265
  117OSM   H13C12165   1.245   3.050   6.660  0.4622  1.4636 -0.7600
  117OSM    C1212166   1.397   2.834   6.781 -0.4609  0.3276  0.6162
  117OSM   H12A12167   1.322   2.787   6.720  0.4089  0.4373 -0.5841
  117OSM   H12B12168   1.432   2.771   6.862  1.8697 -1.6193 -1.6954
  117OSM    C1112169   1.516   2.850   6.677  0.0880 -0.1138  0.0289
  117OSM   H11A12170   1.474   2.902   6.588  2.3476  2.2150  0.1977
  117OSM   H11B12171   1.543   2.743   6.664 -3.0746 -0.8249 -1.8731
  117OSM      P12172   1.769   2.883   6.684  0.2046  0.5776 -0.3064
  117OSM    O1312173   1.868   2.965   6.758 -0.9929 -0.3192 -0.2635
  117OSM    O1412174   1.793   2.734   6.696  0.2591 -0.5469 -0.0470
  117OSM    O1112175   1.772   2.920   6.528  0.4121  0.0511 -0.2953
  117OSM    O1212176   1.623   2.925   6.733 -0.0235 -0.2220  0.1486
  117OSM    C1S12177   1.721   2.829   6.431 -0.0632  0.3830 -0.4837
  117OSM    H1S12178   1.613   2.814   6.451 -0.3669  3.8742  1.3469
  117OSM    H1T12179   1.767   2.729   6.445 -1.0833  0.0119  0.3950
  117OSM     NF12180   1.700   2.785   6.199  0.0307 -0.0326  0.7051
  117OSM    HNF12181   1.769   2.758   6.132  1.2203 -2.0737  2.6218
  117OSM    C2S12182   1.735   2.885   6.291 -0.5531 -1.0598 -0.0875
  117OSM    H2S12183   1.670   2.972   6.270 -1.1299 -1.8041 -1.5919
  117OSM    C3S12184   1.878   2.937   6.253  0.0529 -0.0155  0.4778
  117OSM    H3S12185   1.942   2.848   6.233  1.9129  0.9648  1.7057
  117OSM     O312186   1.955   3.008   6.349 -0.0467 -0.1959  0.3911
  117OSM    HO312187   1.893   3.000   6.422 -0.9140 -2.3187 -0.5192
  117OSM    C4S12188   1.877   3.005   6.121 -0.0738 -0.2571  0.1571
  117OSM    H4S12189   1.787   3.063   6.094 -0.7203 -1.5311 -0.4976
  117OSM    C5S12190   1.987   3.008   6.043  0.7750 -0.0461  0.6758
  117OSM    H5S12191   2.077   2.964   6.087  2.2262  1.6434 -0.4553
  117OSM    C6S12192   1.984   3.066   5.905  0.4405  0.6135 -0.3178
  117OSM    H6S12193   2.047   2.993   5.849  1.6707  2.2022 -1.0942
  117OSM    H6T12194   2.050   3.155   5.899 -2.1419  2.5803 -1.1963
  117OSM    C7S12195   1.851   3.093   5.836 -0.0621 -0.1123  0.3222
  117OSM    H7S12196   1.814   3.181   5.893  1.1763  0.7825 -0.2252
  117OSM    H7T12197   1.785   3.004   5.843  1.5330 -1.2390  1.8161
  117OSM    C8S12198   1.860   3.131   5.692 -0.6894  0.0815  0.7442
  117OSM    H8S12199   1.925   3.060   5.636  2.0985  2.7983  0.2984
  117OSM    H8T12200   1.917   3.226   5.692  1.1792 -0.9899  1.9945
  117OSM    C9S12201   1.725   3.155   5.626  0.1521  0.0191 -0.6303
  117OSM    H9S12202   1.673   3.231   5.689  0.6368 -1.4464  1.6674
  117OSM    H9T12203   1.665   3.062   5.629  3.3394 -2.1637  0.2811
  117OSM   C10S12204   1.737   3.213   5.482  0.0841 -0.0146  0.2005
  117OSM   H10S12205   1.778   3.138   5.412  0.4627 -1.3138  1.7355
  117OSM   H10T12206   1.826   3.278   5.478 -0.5617  0.7901 -2.5627
  117OSM   C11S12207   1.619   3.274   5.405  0.7351  0.0134  0.2388
  117OSM   H11S12208   1.658   3.313   5.309  0.0989  0.5827  0.2043
  117OSM   H11T12209   1.579   3.363   5.459 -0.7665 -1.5692  1.8991
  117OSM   C12S12210   1.511   3.173   5.369  0.3389  0.5593  0.2147
  117OSM   H12S12211   1.452   3.129   5.453  0.4602 -3.0226 -1.3969
  117OSM   H12T12212   1.566   3.091   5.319 -0.1972  0.7758 -0.7591
  117OSM   C13S12213   1.404   3.230   5.271 -0.0768 -0.2227  0.3483
  117OSM   H13S12214   1.465   3.292   5.202 -1.0489 -1.4282 -1.6809
  117OSM   H13T12215   1.328   3.296   5.319 -0.2510 -0.6811  0.7123
  117OSM   C14S12216   1.328   3.120   5.190 -0.0175  0.1655 -0.2201
  117OSM   H14S12217   1.272   3.057   5.262 -1.6140  3.6280  1.8273
  117OSM   H14T12218   1.396   3.049   5.138 -1.4496 -1.3642 -0.1135
  117OSM   C15S12219   1.216   3.170   5.104 -0.0651 -0.2190  1.1546
  117OSM   H15S12220   1.162   3.251   5.158 -0.6389 -0.6230  1.1958
  117OSM   H15T12221   1.147   3.085   5.086 -1.0972  0.3428  2.2635
  117OSM   C16S12222   1.268   3.235   4.976  0.0283 -0.2667  0.2428
  117OSM   H16S12223   1.364   3.286   4.997 -0.2189  0.5093 -0.4742
  117OSM   H16T12224   1.201   3.313   4.934  2.0416  0.3990 -1.9247
  117OSM   C17S12225   1.270   3.138   4.860  0.2441  0.7876  0.4170
  117OSM   H17S12226   1.165   3.117   4.832 -0.0355  0.0774  1.9509
  117OSM   H17T12227   1.326   3.045   4.880  1.6041  1.4295 -0.2405
  117OSM   C18S12228   1.338   3.206   4.740 -0.0388  0.3814 -0.6004
  117OSM   H18S12229   1.446   3.229   4.754 -0.5702  2.8589 -0.0462
  117OSM   H18T12230   1.278   3.298   4.721 -0.9442  0.2650  1.4358
  117OSM   H18U12231   1.326   3.153   4.644  0.1444  1.0092 -0.9718
  117OSM    C1F12232   1.580   2.741   6.185  0.9451  0.1582 -0.5330
  117OSM     OF12233   1.476   2.788   6.238 -0.2073 -0.1765 -0.2566
  117OSM    C2F12234   1.572   2.633   6.086  0.4299 -0.2431  0.1846
  117OSM    H2F12235   1.638   2.552   6.123  1.9974  0.9566  0.1191
  117OSM    H2G12236   1.599   2.678   5.988 -1.3869  3.8002  1.3356
  117OSM    C3F12237   1.427   2.581   6.076  0.2303  0.0714 -0.6012
  117OSM    H3F12238   1.370   2.660   6.025  0.6978  0.5716 -0.3574
  117OSM    H3G12239   1.389   2.580   6.181 -2.2948  1.3756 -1.4369
  117OSM    C4F12240   1.406   2.452   5.992  0.6977 -0.0572 -0.2792
  117OSM    H4F12241   1.296   2.440   5.982  0.7497  0.0808 -1.0366
  117OSM    H4G12242   1.438   2.363   6.049  0.0893 -1.9128 -2.6896
  117OSM    C5F12243   1.451   2.448   5.851 -0.1771  0.5079  0.1562
  117OSM    H5F12244   1.427   2.351   5.803  1.0338  0.8292 -1.1757
  117OSM    H5G12245   1.562   2.446   5.848 -0.1596 -2.1435 -1.8914
  117OSM    C6F12246   1.402   2.564   5.766 -0.5774 -0.6565 -0.2821
  117OSM    H6F12247   1.422   2.656   5.825 -0.3598 -0.6777 -0.3218
  117OSM    H6G12248   1.291   2.550   5.768 -0.8466  1.1253  2.0564
  117OSM    C7F12249   1.449   2.573   5.620 -0.6558  0.3040  1.0439
  117OSM    H7F12250   1.485   2.476   5.580  0.0133  1.1530 -0.4653
  117OSM    H7G12251   1.536   2.642   5.614 -0.8558  0.4173 -1.6951
  117OSM    C8F12252   1.351   2.649   5.528 -0.9815  0.0824 -0.2412
  117OSM    H8F12253   1.316   2.741   5.579  2.6455  0.9666  0.8820
  117OSM    H8G12254   1.257   2.591   5.510 -1.0113 -0.0337  0.2832
  117OSM    C9F12255   1.406   2.699   5.397 -0.7193 -0.4942  0.2958
  117OSM    H9F12256   1.503   2.751   5.405 -1.3846  0.6181  1.7227
  117OSM   C10F12257   1.368   2.663   5.276  0.0744 -0.9502  0.3005
  117OSM   H10F12258   1.416   2.709   5.188  1.4169  0.1105  1.5411
  117OSM   C11F12259   1.261   2.557   5.243 -0.2907 -0.2039  0.0690
  117OSM   H11F12260   1.195   2.538   5.330  0.2006 -2.1830  0.0530
  117OSM   H11G12261   1.306   2.458   5.220 -0.9893 -0.2097 -1.4219
  117OSM   C12F12262   1.171   2.603   5.126  0.5600 -0.2657 -0.1481
  117OSM   H12F12263   1.086   2.532   5.126  1.1375 -0.9697 -0.6251
  117OSM   H12G12264   1.212   2.600   5.023 -1.9551  0.0313 -1.2294
  117OSM   C13F12265   1.107   2.744   5.147 -0.4186  0.2753 -0.6036
  117OSM   H13F12266   1.181   2.826   5.159  0.7630 -1.1228  3.3164
  117OSM   H13G12267   1.064   2.734   5.249 -1.3971 -1.0341 -1.1140
  117OSM   C14F12268   0.998   2.771   5.037 -0.3571  0.1614 -0.6245
  117OSM   H14F12269   1.048   2.772   4.938  0.6544  2.8496 -0.1677
  117OSM   H14G12270   0.958   2.873   5.052  0.6311  0.3967  0.5910
  117OSM   C15F12271   0.880   2.669   5.036 -0.0438  0.8865 -0.0534
  117OSM   H15F12272   0.815   2.689   5.124 -0.3159  0.1545 -0.0769
  117OSM   H15G12273   0.912   2.563   5.047 -1.7938  0.2921 -0.3694
  117OSM   C16F12274   0.779   2.673   4.917 -0.1849 -0.7260  0.6399
  117OSM   H16F12275   0.838   2.665   4.823 -0.5130  0.5750  0.3009
  117OSM   H16G12276   0.724   2.769   4.922 -2.0599 -1.7313  0.2490
  117OSM   C17F12277   0.675   2.561   4.915  0.4367  0.3502 -0.1008
  117OSM   H17F12278   0.641   2.564   5.021  0.8556  2.7304  0.0199
  117OSM   H17G12279   0.713   2.457   4.909  2.2678  0.7174  2.8312
  117OSM   C18F12280   0.559   2.594   4.812 -0.3460 -0.1571 -0.2681
  117OSM   H18F12281   0.501   2.685   4.839 -1.8151 -0.9507 -0.6276
  117OSM   H18G12282   0.482   2.514   4.819 -0.5177  0.0724  0.7360
  117OSM   H18H12283   0.598   2.595   4.709 -1.7571 -0.8062 -0.8347
  118OSM      N12284   4.022   5.970   7.011 -0.3856 -0.1562  0.0554
  118OSM    C1512285   4.032   6.067   7.115 -0.5169  0.3875 -0.1507
  118OSM   H15A12286   4.036   6.008   7.206 -1.8397 -0.6033 -0.7049
  118OSM   H15B12287   3.946   6.132   7.118 -1.7227 -1.1301  2.1644
  118OSM   H15C12288   4.130   6.110   7.104 -0.4010 -0.2023 -1.6255
  118OSM    C1412289   4.126   5.861   7.034 -0.5093  0.3267 -0.5543
  118OSM   H14A12290   4.227   5.878   7.001  0.0948 -0.3694  0.8418
  118OSM   H14B12291   4.091   5.773   6.983 -3.7376  1.3381 -0.3005
  118OSM   H14C12292   4.127   5.832   7.138 -2.1315  1.5720 -0.1596
  118OSM    C1312293   3.894   5.899   7.015 -0.3698 -0.2049  0.5390
  118OSM   H13A12294   3.885   5.828   6.934  2.5852  0.3887 -0.4369
  118OSM   H13B12295   3.807   5.958   6.992 -0.1947 -0.6102 -1.3088
  118OSM   H13C12296   3.876   5.836   7.100 -3.9025 -0.1607 -0.0430
  118OSM    C1212297   4.038   6.050   6.876 -0.7310 -0.0387 -0.6563
  118OSM   H12A12298   3.960   6.125   6.886 -0.9271  0.0951 -2.6440
  118OSM   H12B12299   3.996   5.994   6.793  2.1973 -2.8029 -0.4755
  118OSM    C1112300   4.175   6.108   6.834  0.1717 -0.4217  0.4102
  118OSM   H11A12301   4.219   6.179   6.907  1.0763  0.0868 -0.6014
  118OSM   H11B12302   4.158   6.163   6.739 -0.2401 -2.1765 -0.5791
  118OSM      P12303   4.412   6.042   6.760 -0.1247  0.0248  0.5753
  118OSM    O1312304   4.463   6.156   6.844  0.1063  0.0277  0.0379
  118OSM    O1412305   4.485   5.913   6.751  0.1910 -0.5931 -0.9201
  118OSM    O1112306   4.392   6.104   6.619  0.2325 -0.0642  0.1998
  118OSM    O1212307   4.261   6.003   6.798  0.1625 -0.6375  0.1077
  118OSM    C1S12308   4.304   6.034   6.527  0.7257  0.2633  0.0818
  118OSM    H1S12309   4.197   6.036   6.557  0.8401 -1.9853  0.8638
  118OSM    H1T12310   4.328   5.927   6.508  1.0959  0.5095 -0.8795
  118OSM     NF12311   4.194   6.055   6.308  0.0506 -0.2461  0.0776
  118OSM    HNF12312   4.203   5.982   6.241  1.3633 -0.0981  0.0698
  118OSM    C2S12313   4.311   6.099   6.383 -0.2756  0.1976  0.5213
  118OSM    H2S12314   4.303   6.209   6.397 -0.2049  0.4532 -1.2654
  118OSM    C3S12315   4.445   6.074   6.323  0.1190  0.5546 -0.1544
  118OSM    H3S12316   4.463   5.966   6.307  1.1223  0.5466  0.9061
  118OSM     O312317   4.550   6.121   6.409  0.5500 -0.1509 -0.6699
  118OSM    HO312318   4.509   6.138   6.494  1.6564  0.3680 -0.2222
  118OSM    C4S12319   4.449   6.148   6.188 -0.0827  0.4115 -0.0331
  118OSM    H4S12320   4.439   6.257   6.202  0.6776  0.3794  0.8426
  118OSM    C5S12321   4.444   6.080   6.068 -0.6476 -0.2590 -0.9129
  118OSM    H5S12322   4.441   5.971   6.054  0.3898 -0.7500  2.0289
  118OSM    C6S12323   4.409   6.153   5.937 -0.0529 -0.4407 -0.2732
  118OSM    H6S12324   4.309   6.115   5.907  0.6218 -2.0473 -0.6182
  118OSM    H6T12325   4.478   6.119   5.856  0.4426 -0.3484  0.1082
  118OSM    C7S12326   4.400   6.307   5.934  0.5812 -0.0928 -0.1834
  118OSM    H7S12327   4.494   6.357   5.964  1.3707 -1.4270 -0.3456
  118OSM    H7T12328   4.327   6.336   6.012  0.0528 -0.0095 -0.7037
  118OSM    C8S12329   4.341   6.372   5.802  0.0043 -0.1214 -0.2428
  118OSM    H8S12330   4.325   6.480   5.822  1.9992  0.0131  0.8688
  118OSM    H8T12331   4.241   6.339   5.767 -1.2558  1.4574  1.6678
  118OSM    C9S12332   4.438   6.371   5.686 -0.2604  0.1883  1.4664
  118OSM    H9S12333   4.459   6.273   5.637 -1.2914  0.9182 -0.5418
  118OSM    H9T12334   4.533   6.413   5.725  1.0685 -1.9312  0.6805
  118OSM   C10S12335   4.409   6.462   5.561 -0.1613  0.0915  0.3055
  118OSM   H10S12336   4.508   6.475   5.513  0.6742 -0.2865  1.8474
  118OSM   H10T12337   4.389   6.562   5.604  0.6952 -0.2790  1.6167
  118OSM   C11S12338   4.315   6.421   5.454 -0.0832 -0.9999 -0.4445
  118OSM   H11S12339   4.304   6.501   5.377  2.2469  0.0399  0.1879
  118OSM   H11T12340   4.212   6.402   5.490 -0.6994  1.9045 -0.4523
  118OSM   C12S12341   4.373   6.301   5.376 -0.0516 -0.0578  0.1815
  118OSM   H12S12342   4.374   6.225   5.457 -1.7331  0.8560  1.1154
  118OSM   H12T12343   4.473   6.340   5.346 -0.2889 -0.3961 -1.1032
  118OSM   C13S12344   4.280   6.257   5.262 -0.3943 -0.1390 -0.6459
  118OSM   H13S12345   4.252   6.339   5.192 -1.3966 -0.9836 -1.2532
  118OSM   H13T12346   4.189   6.222   5.314  0.0990  0.3083  0.5674
  118OSM   C14S12347   4.345   6.146   5.176  0.4141 -0.9684 -0.1386
  118OSM   H14S12348   4.355   6.053   5.236  0.3394 -0.6303  0.4021
  118OSM   H14T12349   4.447   6.181   5.148 -1.0507  2.3093 -1.9749
  118OSM   C15S12350   4.276   6.139   5.040  0.2401  0.4030 -0.3936
  118OSM   H15S12351   4.263   6.241   4.997  0.4525 -0.4469 -2.6445
  118OSM   H15T12352   4.177   6.096   5.066 -0.0381  2.0280  1.4160
  118OSM   C16S12353   4.333   6.039   4.939 -1.1990 -0.0094 -0.7379
  118OSM   H16S12354   4.356   5.944   4.991  0.6671  0.9498  0.3028
  118OSM   H16T12355   4.433   6.083   4.918 -0.0917 -1.2749  1.5682
  118OSM   C17S12356   4.249   6.022   4.812  0.0270 -0.0763 -0.2788
  118OSM   H17S12357   4.230   6.116   4.756  0.3738 -0.7931 -1.6330
  118OSM   H17T12358   4.155   5.986   4.860  1.1425 -2.0075  0.5668
  118OSM   C18S12359   4.315   5.924   4.714 -0.9904 -0.2942 -0.1020
  118OSM   H18S12360   4.332   5.830   4.770  2.2636  0.2223 -0.0372
  118OSM   H18T12361   4.415   5.960   4.681 -1.5092  0.6297 -0.7353
  118OSM   H18U12362   4.257   5.908   4.620 -0.0895 -2.0568 -0.4183
  118OSM    C1F12363   4.075   6.104   6.339 -0.2812  0.1346 -0.3518
  118OSM     OF12364   4.062   6.203   6.412  0.3590 -0.3650 -0.3613
  118OSM    C2F12365   3.957   6.030   6.287  0.3723  0.2455 -0.2318
  118OSM    H2F12366   3.940   5.952   6.365  1.9102  0.8239  0.7381
  118OSM    H2G12367   3.981   5.977   6.192 -2.1236 -0.5565 -0.4712
  118OSM    C3F12368   3.835   6.118   6.281 -0.1121  0.1737 -0.9889
  118OSM    H3F12369   3.859   6.193   6.203  2.5108 -1.1629 -1.5690
  118OSM    H3G12370   3.823   6.172   6.377 -0.0917  1.4886 -1.7113
  118OSM    C4F12371   3.708   6.033   6.269 -0.4995 -0.0920  0.2467
  118OSM    H4F12372   3.623   6.104   6.277 -0.7938 -0.3561 -0.4663
  118OSM    H4G12373   3.684   5.970   6.356  1.2769  0.0183  0.8513
  118OSM    C5F12374   3.684   5.954   6.131 -0.9623  1.1069  0.4755
  118OSM    H5F12375   3.582   5.912   6.146  0.1927 -1.6585  1.3619
  118OSM    H5G12376   3.753   5.869   6.110 -2.9165 -0.0940 -1.5495
  118OSM    C6F12377   3.695   6.042   6.003  0.0774  0.2295  0.0655
  118OSM    H6F12378   3.798   6.084   6.001  0.8880 -1.5114  1.8681
  118OSM    H6G12379   3.627   6.130   6.006  2.3303  2.1278 -1.1451
  118OSM    C7F12380   3.672   5.952   5.876  0.0089 -0.2010 -0.0393
  118OSM    H7F12381   3.667   5.843   5.900  1.8295 -0.3096 -0.0048
  118OSM    H7G12382   3.760   5.973   5.812  0.1397 -0.4961  0.0394
  118OSM    C8F12383   3.542   6.004   5.810  0.6502 -0.7787  0.0321
  118OSM    H8F12384   3.537   5.978   5.702  0.3094  3.2971 -1.0912
  118OSM    H8G12385   3.558   6.113   5.821  2.5085 -1.0080 -0.0779
  118OSM    C9F12386   3.419   5.973   5.896 -0.3703  0.2112 -0.5635
  118OSM    H9F12387   3.410   6.023   5.993 -0.1394  0.8592 -0.8714
  118OSM   C10F12388   3.307   5.913   5.849 -0.7683  0.3641 -0.2336
  118OSM   H10F12389   3.224   5.900   5.920 -0.3470  1.3576  0.4499
  118OSM   C11F12390   3.283   5.845   5.723 -0.1297  0.6697  0.7503
  118OSM   H11F12391   3.295   5.736   5.738  2.3432  0.5225 -1.4605
  118OSM   H11G12392   3.363   5.863   5.647  0.5163 -1.5594  0.8120
  118OSM   C12F12393   3.154   5.903   5.658  0.8706  0.7894 -0.1902
  118OSM   H12F12394   3.174   6.007   5.625  0.0854  0.7987 -0.6473
  118OSM   H12G12395   3.076   5.914   5.736  2.6845 -0.3507  1.8952
  118OSM   C13F12396   3.123   5.819   5.527  0.8924 -0.0203 -0.2190
  118OSM   H13F12397   3.091   5.717   5.558  0.6504 -0.0486 -0.5523
  118OSM   H13G12398   3.219   5.814   5.470  1.2608 -1.6935  0.4931
  118OSM   C14F12399   3.004   5.879   5.456 -0.1209  0.3563  0.9520
  118OSM   H14F12400   3.010   5.986   5.426 -4.7027  0.1083 -1.8029
  118OSM   H14G12401   2.915   5.873   5.523 -1.8756  3.1741 -0.9158
  118OSM   C15F12402   2.973   5.813   5.316  0.3024  0.4734 -0.8188
  118OSM   H15F12403   2.868   5.831   5.285 -0.2636 -0.9446  0.1579
  118OSM   H15G12404   2.993   5.704   5.320 -0.9514  0.2570  0.1932
  118OSM   C16F12405   3.055   5.876   5.198 -0.0318  0.3168  0.2007
  118OSM   H16F12406   3.157   5.832   5.204 -0.3160 -0.4164 -0.2186
  118OSM   H16G12407   3.058   5.985   5.220 -0.0312  0.2841  0.3649
  118OSM   C17F12408   3.015   5.847   5.059  0.2084  0.0781 -0.4344
  118OSM   H17F12409   2.917   5.891   5.032 -0.9160 -2.7885 -1.3978
  118OSM   H17G12410   2.998   5.738   5.045 -0.0411 -0.1385  1.3254
  118OSM   C18F12411   3.108   5.897   4.957 -0.5098 -0.0164 -0.0058
  118OSM   H18F12412   3.070   5.914   4.854  0.6208  1.9837 -0.1428
  118OSM   H18G12413   3.197   5.829   4.957 -0.0772  0.4801 -2.0542
  118OSM   H18H12414   3.148   5.997   4.985 -1.9472  0.4407  0.4575
  119OSM      N12415   5.160   4.723   7.015 -0.3669 -0.3913  0.0327
  119OSM    C1512416   5.111   4.666   6.884  0.0077 -0.0399 -0.5199
  119OSM   H15A12417   5.005   4.646   6.890  0.3470 -1.6639  0.6557
  119OSM   H15B12418   5.174   4.581   6.864 -0.8356 -0.1211 -3.1565
  119OSM   H15C12419   5.122   4.733   6.800  0.6248 -0.2956 -0.6514
  119OSM    C1412420   5.087   4.851   7.029 -0.1567 -0.0023 -0.1436
  119OSM   H14A12421   5.103   4.904   7.122  1.7579 -0.4722 -0.1687
  119OSM   H14B12422   4.983   4.825   7.024 -0.2294  0.0599  0.8733
  119OSM   H14C12423   5.128   4.917   6.954  1.5218 -1.3580 -0.4950
  119OSM    C1312424   5.134   4.635   7.128  0.2787  0.3691 -0.8450
  119OSM   H13A12425   5.161   4.678   7.223  2.1698 -1.4243 -0.4907
  119OSM   H13B12426   5.200   4.550   7.119 -1.1537 -0.9235  0.3940
  119OSM   H13C12427   5.037   4.589   7.134  0.3560  0.4244  1.4965
  119OSM    C1212428   5.307   4.757   6.995  0.8139 -0.2869 -0.3072
  119OSM   H12A12429   5.349   4.804   7.082  3.5845 -0.2285 -1.5865
  119OSM   H12B12430   5.328   4.821   6.911  0.3682 -0.6245 -0.6826
  119OSM    C1112431   5.401   4.633   6.978  0.0672 -0.0465 -0.0611
  119OSM   H11A12432   5.375   4.552   7.049  0.8942  0.4538  0.8463
  119OSM   H11B12433   5.500   4.660   7.021  1.4899  1.2892 -3.7188
  119OSM      P12434   5.471   4.682   6.727  0.1166  0.3406  0.1854
  119OSM    O1312435   5.512   4.810   6.786  0.2699  0.3668 -0.0803
  119OSM    O1412436   5.578   4.600   6.659 -0.0953  0.4943 -0.2103
  119OSM    O1112437   5.338   4.683   6.648  0.0607  0.0575  0.0944
  119OSM    O1212438   5.412   4.593   6.840 -0.5695 -0.1832 -0.9362
  119OSM    C1S12439   5.320   4.581   6.550  0.0950 -0.3270 -0.3223
  119OSM    H1S12440   5.292   4.486   6.601  1.9005 -0.4780  0.4605
  119OSM    H1T12441   5.409   4.547   6.494 -0.0672  0.3192 -0.9833
  119OSM     NF12442   5.162   4.532   6.373  0.3084  0.5702 -0.5358
  119OSM    HNF12443   5.197   4.530   6.280 -0.5300  2.1004 -0.9128
  119OSM    C2S12444   5.211   4.642   6.457  0.3110  0.4901  0.1709
  119OSM    H2S12445   5.128   4.687   6.516  0.8965  1.5573  0.2252
  119OSM    C3S12446   5.269   4.768   6.377  0.6786  0.5702  0.5512
  119OSM    H3S12447   5.358   4.725   6.327 -0.0364 -0.1413 -0.1428
  119OSM     O312448   5.305   4.878   6.453  0.1361  0.0745  0.5302
  119OSM    HO312449   5.325   4.834   6.537  2.2620 -0.8921 -0.3964
  119OSM    C4S12450   5.179   4.806   6.262  0.6441 -0.5777  0.0178
  119OSM    H4S12451   5.217   4.765   6.167  1.8609 -2.2280  1.1696
  119OSM    C5S12452   5.067   4.886   6.259 -0.7525  0.6861 -0.1575
  119OSM    H5S12453   5.044   4.931   6.358 -0.8996  0.2013  0.0297
  119OSM    C6S12454   4.990   4.931   6.133 -0.0958 -0.2361 -0.2132
  119OSM    H6S12455   4.986   5.042   6.124 -0.4018 -0.3294 -1.3782
  119OSM    H6T12456   4.884   4.902   6.142  0.2291 -1.8634 -1.3437
  119OSM    C7S12457   5.050   4.879   6.005  0.1601 -0.8770 -0.5162
  119OSM    H7S12458   5.077   4.771   6.003 -0.3558 -0.9982 -1.3929
  119OSM    H7T12459   5.146   4.928   5.981  0.0833 -1.7491 -2.8890
  119OSM    C8S12460   4.964   4.909   5.882 -0.5359 -0.4200 -0.3346
  119OSM    H8S12461   4.923   5.012   5.880 -1.8824 -0.9543 -1.3312
  119OSM    H8T12462   4.873   4.846   5.881 -0.5837 -0.3627 -2.1085
  119OSM    C9S12463   5.042   4.880   5.752 -0.3371  0.1904  0.1681
  119OSM    H9S12464   5.078   4.776   5.749  1.0626  0.6120  1.3290
  119OSM    H9T12465   5.136   4.939   5.752 -1.3336  1.8763 -0.8156
  119OSM   C10S12466   4.960   4.930   5.631 -0.4164 -0.2313 -0.2369
  119OSM   H10S12467   4.965   5.041   5.620 -2.0365  0.1571  2.2410
  119OSM   H10T12468   4.851   4.913   5.642 -0.7959  1.1903 -1.4412
  119OSM   C11S12469   5.002   4.879   5.493  0.3946 -0.2964 -1.5041
  119OSM   H11S12470   5.108   4.900   5.467  0.9359  0.1616  0.8861
  119OSM   H11T12471   4.929   4.923   5.422  0.1836 -0.6863 -1.5330
  119OSM   C12S12472   4.976   4.727   5.488 -0.9739  0.1751  0.0358
  119OSM   H12S12473   4.896   4.708   5.563  2.1857 -0.5485  3.5572
  119OSM   H12T12474   5.070   4.681   5.526 -1.9842 -2.1367 -0.1179
  119OSM   C13S12475   4.944   4.675   5.346  0.4089  0.2839 -0.5109
  119OSM   H13S12476   4.841   4.709   5.323  0.7657  1.1479 -0.8621
  119OSM   H13T12477   4.941   4.564   5.342  0.7870  0.3201 -2.2250
  119OSM   C14S12478   5.032   4.723   5.230  0.0987 -0.8329 -0.1829
  119OSM   H14S12479   5.137   4.705   5.264 -0.5875  0.1389  2.8431
  119OSM   H14T12480   5.013   4.831   5.214 -0.2162 -0.5706  1.6458
  119OSM   C15S12481   5.010   4.643   5.105 -0.1902 -0.8877 -0.2215
  119OSM   H15S12482   5.028   4.534   5.119 -0.1150 -0.8806 -0.2664
  119OSM   H15T12483   5.077   4.680   5.025  2.3974 -1.4080  1.5736
  119OSM   C16S12484   4.870   4.654   5.048  0.8636 -0.1472 -0.1630
  119OSM   H16S12485   4.821   4.753   5.044 -1.0900 -0.9444  1.5415
  119OSM   H16T12486   4.802   4.589   5.109  0.0905  1.5114  0.8068
  119OSM   C17S12487   4.863   4.587   4.913  0.5386  0.3109 -0.1193
  119OSM   H17S12488   4.894   4.480   4.921  0.0550  0.1513 -0.3016
  119OSM   H17T12489   4.944   4.639   4.859  0.0592  0.5542 -0.6146
  119OSM   C18S12490   4.726   4.601   4.855 -0.4120  0.4587 -0.0151
  119OSM   H18S12491   4.661   4.514   4.879 -0.6009  0.0601 -1.7968
  119OSM   H18T12492   4.733   4.603   4.744  3.5124 -0.6485  0.0744
  119OSM   H18U12493   4.678   4.688   4.905  0.3711  0.0766  1.4480
  119OSM    C1F12494   5.080   4.442   6.417  0.0877  0.2631  0.4402
  119OSM     OF12495   5.050   4.436   6.536  0.0171  0.0784  0.1011
  119OSM    C2F12496   5.027   4.348   6.308 -0.0761  0.3448 -0.1219
  119OSM    H2F12497   5.110   4.278   6.281  0.6992  0.3636  2.0336
  119OSM    H2G12498   5.013   4.416   6.221  0.5539  1.1876  0.4166
  119OSM    C3F12499   4.887   4.277   6.331 -0.2387  0.5331 -0.4820
  119OSM    H3F12500   4.807   4.351   6.348  0.1632  0.6817  0.8567
  119OSM    H3G12501   4.912   4.228   6.427  0.4329  1.1085 -0.3518
  119OSM    C4F12502   4.858   4.176   6.217 -0.4471 -0.2943 -0.5928
  119OSM    H4F12503   4.781   4.108   6.259  1.1025 -0.9753  1.3278
  119OSM    H4G12504   4.952   4.120   6.201  0.2836  0.7734 -0.1978
  119OSM    C5F12505   4.801   4.249   6.101 -0.3164  0.0124 -0.0083
  119OSM    H5F12506   4.871   4.326   6.062 -1.1868  0.2682 -1.1287
  119OSM    H5G12507   4.706   4.299   6.132 -0.6838 -1.2715  1.0267
  119OSM    C6F12508   4.760   4.148   5.998  0.3863  0.3253  0.8159
  119OSM    H6F12509   4.672   4.096   6.041  0.5783  0.5412  1.4800
  119OSM    H6G12510   4.842   4.075   5.980 -0.8605 -1.4129  1.9713
  119OSM    C7F12511   4.723   4.214   5.865 -0.8615 -0.7985 -0.3245
  119OSM    H7F12512   4.815   4.259   5.822 -0.9304 -1.0174 -0.7068
  119OSM    H7G12513   4.643   4.291   5.873 -0.1518 -0.0089 -0.5961
  119OSM    C8F12514   4.687   4.109   5.766 -0.5166  0.8805  0.7403
  119OSM    H8F12515   4.600   4.060   5.816  0.0998 -0.7252  0.3133
  119OSM    H8G12516   4.768   4.033   5.772 -0.7944  0.3930 -1.1191
  119OSM    C9F12517   4.679   4.164   5.627  0.5834 -0.2320 -0.2190
  119OSM    H9F12518   4.741   4.251   5.601 -0.9835  0.5522 -1.5681
  119OSM   C10F12519   4.615   4.098   5.531 -0.0917  0.2686  0.6224
  119OSM   H10F12520   4.613   4.148   5.433 -0.2433  3.5147  2.1441
  119OSM   C11F12521   4.558   3.958   5.555 -0.6433  0.2328  0.2387
  119OSM   H11F12522   4.482   3.964   5.635 -2.1740  1.4692 -1.2481
  119OSM   H11G12523   4.644   3.891   5.581  0.7827  1.0976 -1.9179
  119OSM   C12F12524   4.503   3.892   5.427 -0.0992  0.1490 -0.5144
  119OSM   H12F12525   4.455   3.979   5.376 -1.8099 -0.9918 -0.9177
  119OSM   H12G12526   4.426   3.816   5.451  0.9760 -0.6882  0.3334
  119OSM   C13F12527   4.612   3.834   5.335  0.5402  0.0427  1.3548
  119OSM   H13F12528   4.690   3.780   5.392  1.6443  0.9258  0.7356
  119OSM   H13G12529   4.653   3.918   5.275 -0.1376 -0.7786 -0.3112
  119OSM   C14F12530   4.564   3.744   5.224  0.5183 -0.5865 -0.4682
  119OSM   H14F12531   4.478   3.790   5.172  1.8694  1.0028 -1.3879
  119OSM   H14G12532   4.529   3.651   5.273 -1.8740  1.3132  1.7294
  119OSM   C15F12533   4.674   3.712   5.127  0.0879  0.0897  0.1939
  119OSM   H15F12534   4.752   3.671   5.195  2.3425  0.1120 -2.2371
  119OSM   H15G12535   4.706   3.802   5.070 -1.0601  1.1006  1.0934
  119OSM   C16F12536   4.630   3.609   5.017 -1.1175  0.3981 -0.7749
  119OSM   H16F12537   4.564   3.531   5.059 -0.0947 -0.1560 -0.1503
  119OSM   H16G12538   4.720   3.550   4.989 -0.2099  1.6452 -0.5874
  119OSM   C17F12539   4.557   3.664   4.892  0.4903  0.0766  0.1166
  119OSM   H17F12540   4.626   3.741   4.850  0.4713 -0.4919 -0.9679
  119OSM   H17G12541   4.469   3.727   4.919  0.2208 -0.5538  0.7399
  119OSM   C18F12542   4.512   3.568   4.787  0.3582  0.5030  0.0990
  119OSM   H18F12543   4.417   3.516   4.811  1.1815 -0.5073  1.3201
  119OSM   H18G12544   4.587   3.496   4.748 -1.9304 -1.1653 -1.4724
  119OSM   H18H12545   4.482   3.623   4.696  0.7266  2.4255  1.0887
  120OSM      N12546   5.213   3.512   7.376 -0.3548  0.0076 -0.4126
  120OSM    C1512547   5.230   3.441   7.508 -0.5096 -0.5352  0.5962
  120OSM   H15A12548   5.199   3.496   7.596  1.1222  2.4920 -0.5704
  120OSM   H15B12549   5.330   3.402   7.517 -1.0239 -2.1554 -0.3782
  120OSM   H15C12550   5.158   3.361   7.516 -1.9021  0.7994  2.1293
  120OSM    C1412551   5.068   3.558   7.367  0.4891  0.5229 -0.0115
  120OSM   H14A12552   5.003   3.472   7.374 -1.7259  2.0509 -0.5971
  120OSM   H14B12553   5.051   3.607   7.273  0.5095 -0.0178 -0.2998
  120OSM   H14C12554   5.042   3.632   7.441  1.5113  1.4418 -0.5537
  120OSM    C1312555   5.307   3.631   7.374 -0.1852 -0.2056 -0.2628
  120OSM   H13A12556   5.311   3.691   7.463  0.5485  0.0638 -0.4657
  120OSM   H13B12557   5.286   3.688   7.284 -1.0522  0.1358  0.1444
  120OSM   H13C12558   5.408   3.599   7.353  0.2784  0.5303  0.7540
  120OSM    C1212559   5.251   3.410   7.270 -0.1470 -0.7155 -0.3408
  120OSM   H12A12560   5.186   3.324   7.284  1.6641 -2.3807 -1.5578
  120OSM   H12B12561   5.353   3.376   7.281 -0.4113 -2.1198 -1.7786
  120OSM    C1112562   5.242   3.462   7.124  0.0717  0.3337  0.5378
  120OSM   H11A12563   5.281   3.385   7.053 -0.8379  0.5427 -0.2074
  120OSM   H11B12564   5.309   3.551   7.119  0.7376 -0.2148 -1.9208
  120OSM      P12565   5.000   3.398   7.052  0.0046 -0.0811  0.0064
  120OSM    O1312566   5.043   3.259   7.073 -0.1741  0.3765  0.4245
  120OSM    O1412567   4.879   3.435   7.123  0.0661 -0.5910 -0.4052
  120OSM    O1112568   4.986   3.423   6.897 -0.4395  0.1742 -0.1207
  120OSM    O1212569   5.112   3.504   7.084  0.6526  0.0208 -0.0653
  120OSM    C1S12570   5.108   3.409   6.815 -0.1501 -0.3172 -0.6471
  120OSM    H1S12571   5.140   3.303   6.801 -0.4925 -0.6465  0.8963
  120OSM    H1T12572   5.197   3.464   6.851  0.4029 -1.0644 -0.8429
  120OSM     NF12573   5.194   3.438   6.579  0.1725  0.8375 -0.3931
  120OSM    HNF12574   5.283   3.482   6.570  1.7987 -2.4378 -2.1588
  120OSM    C2S12575   5.085   3.473   6.671 -0.1667  0.6173 -0.0093
  120OSM    H2S12576   4.996   3.421   6.630 -0.0883  1.4380 -1.2612
  120OSM    C3S12577   5.059   3.624   6.676  1.0421 -0.2044  0.1422
  120OSM    H3S12578   5.143   3.685   6.716 -0.2023  2.7972 -1.4600
  120OSM     O312579   4.958   3.667   6.764  0.1948  0.1913 -0.1279
  120OSM    HO312580   4.934   3.583   6.806  0.2459 -0.3754 -1.2045
  120OSM    C4S12581   5.012   3.673   6.544 -0.0297  0.0095  0.4151
  120OSM    H4S12582   4.922   3.627   6.503  0.5265 -0.2896 -0.4846
  120OSM    C5S12583   5.070   3.772   6.481 -0.2963  0.0369  0.5948
  120OSM    H5S12584   5.165   3.808   6.523  0.2814 -0.5324 -0.1769
  120OSM    C6S12585   5.042   3.837   6.350 -0.0907 -0.1375  0.4403
  120OSM    H6S12586   5.130   3.888   6.306  0.7524  0.6321  2.8725
  120OSM    H6T12587   4.973   3.924   6.353 -0.6446 -0.5696  0.4058
  120OSM    C7S12588   4.981   3.731   6.250 -0.5235 -0.0702 -0.1337
  120OSM    H7S12589   4.885   3.697   6.294 -1.4997  2.1328 -0.3846
  120OSM    H7T12590   5.040   3.638   6.240  0.2583  0.2664  1.0902
  120OSM    C8S12591   4.946   3.791   6.107 -0.2955 -0.5686 -0.3967
  120OSM    H8S12592   5.028   3.860   6.077 -1.1456  1.4847  1.7019
  120OSM    H8T12593   4.846   3.839   6.106 -0.1027 -0.1593  0.0525
  120OSM    C9S12594   4.946   3.677   6.001  0.0662 -0.8781 -0.5572
  120OSM    H9S12595   4.847   3.628   6.009 -0.6084  0.5401  0.0804
  120OSM    H9T12596   5.023   3.598   6.014 -1.2016 -1.8399  1.5576
  120OSM   C10S12597   4.947   3.727   5.860 -0.6315  0.0468  0.2844
  120OSM   H10S12598   5.042   3.777   5.832  0.4356 -1.1902  1.5181
  120OSM   H10T12599   4.855   3.787   5.847  0.1058  1.2656  0.5580
  120OSM   C11S12600   4.948   3.602   5.769  0.4373  0.0605 -0.0895
  120OSM   H11S12601   4.886   3.514   5.800  1.7080 -0.3611  1.4035
  120OSM   H11T12602   5.051   3.561   5.777 -0.1085 -1.2066  0.8640
  120OSM   C12S12603   4.914   3.631   5.625 -0.1722  1.0121  0.0862
  120OSM   H12S12604   4.973   3.721   5.595  0.9496  0.4591  0.5774
  120OSM   H12T12605   4.807   3.651   5.606 -0.0706 -0.2549 -2.0282
  120OSM   C13S12606   4.949   3.513   5.531  0.0665 -0.4460  0.3544
  120OSM   H13S12607   4.883   3.435   5.573 -0.6403 -0.5458 -0.8874
  120OSM   H13T12608   5.055   3.484   5.544  0.3899  0.9197  0.9493
  120OSM   C14S12609   4.923   3.539   5.379  0.3501  0.0613  1.1299
  120OSM   H14S12610   4.993   3.619   5.347 -0.3768 -0.5230 -2.3676
  120OSM   H14T12611   4.818   3.570   5.360  0.6394  0.3607 -0.0538
  120OSM   C15S12612   4.954   3.419   5.292 -0.0708  0.5820 -0.2017
  120OSM   H15S12613   5.041   3.365   5.335 -1.0788  0.1576  1.3909
  120OSM   H15T12614   4.993   3.457   5.195 -0.0371  0.7494 -0.1226
  120OSM   C16S12615   4.839   3.321   5.273  0.0364  0.4400  0.3405
  120OSM   H16S12616   4.759   3.374   5.216  1.6548  1.8278 -0.7338
  120OSM   H16T12617   4.801   3.306   5.377  0.5010  0.8609  0.5757
  120OSM   C17S12618   4.875   3.195   5.192  0.3543 -0.2647  0.3442
  120OSM   H17S12619   4.777   3.143   5.182 -1.3088  2.9332 -1.7721
  120OSM   H17T12620   4.955   3.133   5.238  1.8441  0.9683 -0.5158
  120OSM   C18S12621   4.914   3.219   5.044 -0.3713 -0.2806  0.3449
  120OSM   H18S12622   4.828   3.250   4.981 -0.8246 -0.7641  0.7114
  120OSM   H18T12623   4.963   3.137   4.986  1.0894 -0.0343  1.1895
  120OSM   H18U12624   4.989   3.300   5.035 -1.3577  0.6821  0.6609
  120OSM    C1F12625   5.218   3.314   6.549 -0.3878 -1.1138 -0.2544
  120OSM     OF12626   5.140   3.225   6.566  0.1998 -0.7072  0.5887
  120OSM    C2F12627   5.354   3.297   6.497  0.9476 -0.6729 -0.1395
  120OSM    H2F12628   5.418   3.295   6.588 -1.5869 -0.5874  1.7790
  120OSM    H2G12629   5.390   3.379   6.430 -0.1487  0.5515  0.7141
  120OSM    C3F12630   5.371   3.173   6.405 -0.6374  0.0900 -0.4534
  120OSM    H3F12631   5.301   3.186   6.320 -1.3269 -1.2634 -0.1117
  120OSM    H3G12632   5.351   3.079   6.460 -0.6401  0.6040  0.4534
  120OSM    C4F12633   5.511   3.171   6.339 -0.6617  0.4068 -1.4702
  120OSM    H4F12634   5.581   3.177   6.426 -0.7651  0.1868 -1.3695
  120OSM    H4G12635   5.519   3.260   6.274 -0.6152  0.7781 -0.9598
  120OSM    C5F12636   5.541   3.042   6.260 -0.8906  0.0460  0.1873
  120OSM    H5F12637   5.470   3.023   6.177 -0.6229 -1.4441  0.2709
  120OSM    H5G12638   5.532   2.953   6.325  1.3128 -0.5940 -0.2999
  120OSM    C6F12639   5.685   3.034   6.206  0.8754 -0.5889  0.4420
  120OSM    H6F12640   5.759   3.036   6.289 -0.0505 -0.8334  1.3018
  120OSM    H6G12641   5.695   3.132   6.155 -0.2217 -1.3110 -1.2448
  120OSM    C7F12642   5.703   2.918   6.113 -0.0688 -0.1845  0.0258
  120OSM    H7F12643   5.624   2.904   6.036 -1.4116  0.6025  1.2026
  120OSM    H7G12644   5.712   2.832   6.184  1.2402 -1.7778 -1.9429
  120OSM    C8F12645   5.829   2.927   6.029 -0.5684  0.4844  0.4606
  120OSM    H8F12646   5.825   3.022   5.972 -3.8789  0.1871  0.0270
  120OSM    H8G12647   5.816   2.846   5.954  2.4584 -0.9069  1.2680
  120OSM    C9F12648   5.969   2.895   6.090 -0.4279 -0.5842  0.0139
  120OSM    H9F12649   5.976   2.793   6.132  0.1586 -0.2697  0.6877
  120OSM   C10F12650   6.076   2.978   6.099  0.4039 -0.2435 -0.0593
  120OSM   H10F12651   6.174   2.936   6.127 -0.1063 -1.7490 -0.4285
  120OSM   C11F12652   6.074   3.118   6.046  0.5543  0.4043 -0.1618
  120OSM   H11F12653   6.122   3.198   6.107 -0.7723  1.4132 -0.4060
  120OSM   H11G12654   5.967   3.142   6.027  0.7931  1.0182 -0.7631
  120OSM   C12F12655   6.138   3.123   5.900  0.2179  1.1200 -1.1186
  120OSM   H12F12656   6.093   3.219   5.865 -0.9696  0.2133 -2.1866
  120OSM   H12G12657   6.082   3.050   5.838  1.6771  0.5517 -1.8092
  120OSM   C13F12658   6.285   3.135   5.895 -0.8639 -0.3280  0.0910
  120OSM   H13F12659   6.347   3.047   5.922  0.9030  0.8009 -0.1267
  120OSM   H13G12660   6.316   3.221   5.958  0.0336 -0.5737 -0.0019
  120OSM   C14F12661   6.337   3.150   5.749  1.5317  0.2072  0.5247
  120OSM   H14F12662   6.295   3.066   5.689  2.2327  0.0933  0.1796
  120OSM   H14G12663   6.447   3.134   5.748  1.8189  1.9739 -0.2984
  120OSM   C15F12664   6.319   3.284   5.673 -0.5219 -0.6323 -0.1322
  120OSM   H15F12665   6.381   3.365   5.716 -1.5080  0.4288 -0.6374
  120OSM   H15G12666   6.212   3.313   5.683 -0.0996  2.3872 -2.7396
  120OSM   C16F12667   6.361   3.265   5.527 -0.4920 -0.3632 -0.4765
  120OSM   H16F12668   6.324   3.170   5.481  0.0672 -1.8034  1.8825
  120OSM   H16G12669   6.472   3.268   5.522 -0.4339 -0.5322  0.5388
  120OSM   C17F12670   6.318   3.378   5.436  0.7191  0.1431 -0.4861
  120OSM   H17F12671   6.375   3.466   5.474 -0.6621  1.2526 -0.9277
  120OSM   H17G12672   6.208   3.382   5.443  0.7830  1.6374 -0.0319
  120OSM   C18F12673   6.348   3.351   5.288 -0.4428 -0.1036  0.3738
  120OSM   H18F12674   6.458   3.357   5.269  0.1227 -0.5462  3.0659
  120OSM   H18G12675   6.304   3.429   5.223  0.9794  0.8761  0.5371
  120OSM   H18H12676   6.310   3.250   5.260 -1.0450  0.8371 -2.5244
  121OSM      N12677   2.548   6.200   7.128  0.8979  0.4149 -0.7011
  121OSM    C1512678   2.656   6.269   7.211  0.0348  0.2830 -0.3006
  121OSM   H15A12679   2.708   6.331   7.140  0.2540  1.3516  0.7664
  121OSM   H15B12680   2.720   6.189   7.245  0.6599 -0.5362 -3.1377
  121OSM   H15C12681   2.607   6.330   7.286 -0.8630  1.4658 -1.8037
  121OSM    C1412682   2.497   6.081   7.203 -0.3091  0.6956  0.5123
  121OSM   H14A12683   2.401   6.046   7.169 -0.6766  1.1534  1.0537
  121OSM   H14B12684   2.487   6.103   7.309 -0.2363  0.2656  0.6111
  121OSM   H14C12685   2.568   6.000   7.205 -1.5942 -0.4776  2.3072
  121OSM    C1312686   2.432   6.288   7.105 -0.7229 -0.6957  0.0116
  121OSM   H13A12687   2.357   6.238   7.045 -1.8648 -0.2407  1.0122
  121OSM   H13B12688   2.467   6.380   7.061 -1.0056  0.3479  1.8204
  121OSM   H13C12689   2.393   6.315   7.203  2.4825  1.8102  0.7490
  121OSM    C1212690   2.604   6.167   6.989 -0.0119 -0.0501  0.1381
  121OSM   H12A12691   2.521   6.122   6.936  0.0102  1.5243 -1.3328
  121OSM   H12B12692   2.677   6.087   6.993  0.3233  0.0983 -1.9145
  121OSM    C1112693   2.665   6.290   6.911 -0.2479 -0.5338  0.0352
  121OSM   H11A12694   2.604   6.382   6.929 -1.5598 -0.9064 -2.0867
  121OSM   H11B12695   2.666   6.276   6.801  0.5620  1.8667 -0.3187
  121OSM      P12696   2.910   6.221   6.883 -0.1637 -0.0744 -0.2192
  121OSM    O1312697   3.037   6.260   6.948 -0.3439  0.0888  0.4498
  121OSM    O1412698   2.882   6.083   6.892  0.7215  0.7597 -0.9024
  121OSM    O1112699   2.906   6.261   6.733  0.1396  0.5507  0.0041
  121OSM    O1212700   2.801   6.313   6.953  0.2721  0.4552 -0.9921
  121OSM    C1S12701   3.008   6.337   6.671 -0.4020  0.1793  0.6326
  121OSM    H1S12702   3.107   6.309   6.713 -0.0397  0.3090 -0.1199
  121OSM    H1T12703   3.000   6.445   6.693 -0.1290  0.3145  0.0949
  121OSM     NF12704   3.124   6.394   6.452  0.0928  1.1545 -0.2274
  121OSM    HNF12705   3.121   6.485   6.413  1.0217  0.5511 -1.8225
  121OSM    C2S12706   3.006   6.333   6.513 -0.6547 -0.1688  0.5472
  121OSM    H2S12707   2.992   6.228   6.479  1.1603 -1.1666  2.6549
  121OSM    C3S12708   2.868   6.397   6.471 -0.4187  0.4733  0.0591
  121OSM    H3S12709   2.856   6.502   6.507  0.8176 -0.1056  2.4006
  121OSM     O312710   2.760   6.331   6.524  0.3804  0.3024 -0.1111
  121OSM    HO312711   2.811   6.293   6.596  1.0255 -0.2547 -0.8428
  121OSM    C4S12712   2.853   6.384   6.325  0.1431 -0.3033 -0.2161
  121OSM    H4S12713   2.886   6.290   6.279 -1.5274 -0.5984 -0.8883
  121OSM    C5S12714   2.800   6.481   6.254 -0.2782 -0.1154 -0.5177
  121OSM    H5S12715   2.766   6.576   6.298 -1.8134  0.0408 -1.9650
  121OSM    C6S12716   2.778   6.465   6.103 -0.3756 -0.4699  0.2750
  121OSM    H6S12717   2.765   6.360   6.069 -0.8478 -0.2572 -0.1999
  121OSM    H6T12718   2.870   6.501   6.053  0.2350 -1.5214  0.6043
  121OSM    C7S12719   2.666   6.554   6.055 -0.6776 -0.0213  0.1385
  121OSM    H7S12720   2.704   6.658   6.068 -0.3276  0.0162 -1.0412
  121OSM    H7T12721   2.562   6.534   6.091 -1.4097 -0.7145 -2.1659
  121OSM    C8S12722   2.649   6.539   5.904  0.1080 -0.2725  0.7495
  121OSM    H8S12723   2.644   6.430   5.882 -0.7902  0.4195 -3.1819
  121OSM    H8T12724   2.744   6.570   5.856 -0.6846 -0.0571 -0.7340
  121OSM    C9S12725   2.532   6.614   5.842 -0.6730 -0.2675  0.0897
  121OSM    H9S12726   2.535   6.714   5.892  1.7862 -0.4017  0.3441
  121OSM    H9T12727   2.441   6.558   5.873  0.1948 -1.1408  1.1496
  121OSM   C10S12728   2.544   6.624   5.691 -0.0640  0.1301  0.1607
  121OSM   H10S12729   2.537   6.520   5.653 -1.9485  0.3873 -0.2779
  121OSM   H10T12730   2.641   6.674   5.667  1.5983 -2.7861  0.3634
  121OSM   C11S12731   2.445   6.723   5.631 -0.2624 -0.3723  0.7259
  121OSM   H11S12732   2.462   6.807   5.702  0.7501 -0.7769  0.9843
  121OSM   H11T12733   2.344   6.678   5.636 -1.1707  1.4421 -0.3842
  121OSM   C12S12734   2.479   6.756   5.487 -0.4376 -0.2542 -0.1616
  121OSM   H12S12735   2.588   6.773   5.472  0.2266 -2.9696  1.1678
  121OSM   H12T12736   2.438   6.859   5.472  2.5902  1.2492  0.9512
  121OSM   C13S12737   2.428   6.649   5.386 -0.7940  0.3646  0.0369
  121OSM   H13S12738   2.319   6.655   5.369 -0.7794 -1.3811 -0.9066
  121OSM   H13T12739   2.452   6.548   5.427 -1.3688 -0.1615 -0.8813
  121OSM   C14S12740   2.492   6.663   5.248  0.0680 -0.6632  0.6457
  121OSM   H14S12741   2.601   6.677   5.263  0.3608 -0.1963 -1.5938
  121OSM   H14T12742   2.459   6.751   5.189 -0.2095 -1.9319 -1.1713
  121OSM   C15S12743   2.471   6.529   5.176 -0.1838  0.0897  0.2415
  121OSM   H15S12744   2.360   6.527   5.184 -0.1973  0.9553  0.3596
  121OSM   H15T12745   2.510   6.447   5.240 -0.7193 -0.3670  0.0014
  121OSM   C16S12746   2.527   6.509   5.036  1.2351 -0.4239 -0.3698
  121OSM   H16S12747   2.494   6.414   4.991 -1.2385 -0.8550  2.0945
  121OSM   H16T12748   2.636   6.504   5.059  1.1811 -2.7833 -0.4199
  121OSM   C17S12749   2.490   6.633   4.939 -0.8878  0.3345 -0.2580
  121OSM   H17S12750   2.538   6.725   4.978 -2.9949  1.3652  0.0573
  121OSM   H17T12751   2.380   6.648   4.936 -1.0533 -0.6946  0.2557
  121OSM   C18S12752   2.530   6.608   4.791  0.6747  0.1868  0.9789
  121OSM   H18S12753   2.496   6.693   4.730  2.5074  1.1651  1.2392
  121OSM   H18T12754   2.490   6.510   4.756  2.0239 -0.9331  2.3699
  121OSM   H18U12755   2.641   6.603   4.781  0.5529 -2.6827 -0.1466
  121OSM    C1F12756   3.231   6.315   6.450 -0.0278  0.5844 -0.2160
  121OSM     OF12757   3.224   6.198   6.496  0.1040 -0.9047 -0.5069
  121OSM    C2F12758   3.357   6.397   6.416 -0.1435  0.0162 -0.3312
  121OSM    H2F12759   3.390   6.444   6.511 -2.0511 -0.9312  0.8581
  121OSM    H2G12760   3.324   6.484   6.356  1.1583  1.3340  0.8087
  121OSM    C3F12761   3.456   6.305   6.341  0.2267 -0.0606  0.1997
  121OSM    H3F12762   3.480   6.206   6.385 -0.1503 -1.9171 -3.3415
  121OSM    H3G12763   3.548   6.363   6.322 -0.6881  1.2912 -0.2755
  121OSM    C4F12764   3.401   6.251   6.198 -0.2391 -0.0726  0.0462
  121OSM    H4F12765   3.336   6.162   6.211  0.3513 -0.7534 -1.3737
  121OSM    H4G12766   3.479   6.216   6.127 -0.0191  0.5696 -0.0440
  121OSM    C5F12767   3.321   6.359   6.118 -0.1453 -0.7017  0.0989
  121OSM    H5F12768   3.380   6.452   6.104 -2.2583  0.6728 -0.0333
  121OSM    H5G12769   3.239   6.395   6.184  0.4800  1.4398 -0.2221
  121OSM    C6F12770   3.286   6.300   5.976  0.6302 -0.3329 -0.4345
  121OSM    H6F12771   3.211   6.218   5.978  0.2981 -0.0230  0.8673
  121OSM    H6G12772   3.379   6.266   5.926  0.9125  0.2634 -0.3214
  121OSM    C7F12773   3.212   6.412   5.896 -0.4154  1.1736 -0.1144
  121OSM    H7F12774   3.237   6.518   5.919 -1.2859  1.3089  0.2620
  121OSM    H7G12775   3.103   6.398   5.912 -0.2417 -1.4025 -0.8762
  121OSM    C8F12776   3.224   6.381   5.741 -0.0219 -0.3057  0.0184
  121OSM    H8F12777   3.161   6.448   5.679 -2.0506 -2.1066 -0.0128
  121OSM    H8G12778   3.179   6.280   5.726 -1.1802  0.1938  0.0110
  121OSM    C9F12779   3.365   6.402   5.701  0.0924 -0.1842  0.3342
  121OSM    H9F12780   3.422   6.477   5.758 -0.6682 -0.5486  1.6237
  121OSM   C10F12781   3.418   6.351   5.585 -0.3010 -0.4813 -0.1797
  121OSM   H10F12782   3.524   6.373   5.568 -0.2809  0.1143  0.6261
  121OSM   C11F12783   3.346   6.266   5.490 -0.1435 -0.4695 -0.8856
  121OSM   H11F12784   3.326   6.321   5.395  2.3377 -0.8103 -1.7019
  121OSM   H11G12785   3.250   6.238   5.537  0.9262 -2.4787  0.2311
  121OSM   C12F12786   3.401   6.129   5.454  0.4843 -0.3394 -0.6749
  121OSM   H12F12787   3.321   6.074   5.400 -0.2222 -0.5623  0.5515
  121OSM   H12G12788   3.428   6.074   5.547 -1.5879 -1.4631 -0.6769
  121OSM   C13F12789   3.520   6.121   5.358  0.0873  0.3311  0.5484
  121OSM   H13F12790   3.601   6.059   5.402 -1.2954 -1.5463  0.5548
  121OSM   H13G12791   3.558   6.223   5.335 -0.9712  0.2938 -1.5619
  121OSM   C14F12792   3.487   6.052   5.222 -0.4729  0.1612  0.3518
  121OSM   H14F12793   3.549   6.102   5.143  0.8353  0.7996  1.7274
  121OSM   H14G12794   3.389   6.090   5.186 -0.4805  2.1407  2.2697
  121OSM   C15F12795   3.516   5.899   5.229 -0.0294 -0.0571  0.0674
  121OSM   H15F12796   3.441   5.865   5.304 -0.4653  0.1287 -0.2874
  121OSM   H15G12797   3.618   5.886   5.273 -0.8422 -1.8002  1.5815
  121OSM   C16F12798   3.496   5.829   5.091 -0.0133 -0.1364 -0.5306
  121OSM   H16F12799   3.569   5.859   5.014  1.9449  0.0518  1.2924
  121OSM   H16G12800   3.395   5.856   5.055 -2.0979 -2.1519  3.1386
  121OSM   C17F12801   3.519   5.685   5.107  0.2089  0.2985 -0.2636
  121OSM   H17F12802   3.454   5.628   5.176 -1.7008  1.3326 -1.1441
  121OSM   H17G12803   3.621   5.678   5.151 -0.4000  0.3512  1.1854
  121OSM   C18F12804   3.530   5.621   4.976 -0.0751 -0.8899 -0.5674
  121OSM   H18F12805   3.475   5.525   4.984 -0.6369 -0.7619 -2.3673
  121OSM   H18G12806   3.635   5.609   4.944  0.1401 -0.9303  0.1524
  121OSM   H18H12807   3.481   5.686   4.900  1.6296 -0.5062 -1.3698
  122OSM      N12808   6.334   3.191   6.849  0.6545  0.1740  0.3005
  122OSM    C1512809   6.326   3.059   6.761  0.0051 -0.1555 -0.7514
  122OSM   H15A12810   6.230   3.042   6.715  0.3515  1.5819 -2.1865
  122OSM   H15B12811   6.359   2.977   6.823  0.3148  0.4411 -0.1114
  122OSM   H15C12812   6.391   3.086   6.679  0.3876  2.2621  0.2533
  122OSM    C1412813   6.271   3.312   6.775 -0.2196  0.0515  0.2936
  122OSM   H14A12814   6.340   3.336   6.696  0.2219  0.1462  0.7064
  122OSM   H14B12815   6.256   3.402   6.833  3.0210  0.3905  0.7542
  122OSM   H14C12816   6.178   3.283   6.728 -0.3855  1.0250  0.0015
  122OSM    C1312817   6.243   3.164   6.969  0.2381 -0.3231  0.4541
  122OSM   H13A12818   6.147   3.138   6.929  0.2419  2.7610 -1.9926
  122OSM   H13B12819   6.230   3.256   7.025  0.7661 -0.4781  0.8416
  122OSM   H13C12820   6.285   3.081   7.023  1.3396  1.6515  2.8945
  122OSM    C1212821   6.469   3.219   6.901 -0.1677 -0.4789 -0.5436
  122OSM   H12A12822   6.468   3.319   6.942  0.5881 -0.2557 -1.0454
  122OSM   H12B12823   6.546   3.220   6.825  0.5763  2.2422  0.1236
  122OSM    C1112824   6.527   3.129   7.006 -0.1183  0.4948 -0.0487
  122OSM   H11A12825   6.454   3.117   7.088  0.2253  1.2112  0.3644
  122OSM   H11B12826   6.618   3.164   7.059 -0.3386  0.4604  0.3576
  122OSM      P12827   6.676   2.974   6.852  0.5413  0.1861 -0.1013
  122OSM    O1312828   6.808   2.995   6.918  0.3595 -0.1441  0.2925
  122OSM    O1412829   6.660   2.840   6.793  0.2422  0.7196  0.4116
  122OSM    O1112830   6.655   3.089   6.749  0.2614 -0.2334 -0.1788
  122OSM    O1212831   6.562   3.002   6.953 -0.5331  0.0894 -1.0467
  122OSM    C1S12832   6.760   3.137   6.669 -0.2284 -0.0732 -0.1904
  122OSM    H1S12833   6.847   3.170   6.731  0.1099 -1.8826  0.3564
  122OSM    H1T12834   6.731   3.238   6.634 -2.3308 -0.3078  0.7237
  122OSM     NF12835   6.937   3.077   6.499 -0.5290  0.6362  0.0906
  122OSM    HNF12836   6.946   3.118   6.409 -2.8864 -0.6058 -0.7983
  122OSM    C2S12837   6.805   3.044   6.549 -0.2128 -0.3817 -0.3901
  122OSM    H2S12838   6.805   2.938   6.584 -3.1105  0.4274  2.4801
  122OSM    C3S12839   6.692   3.045   6.443  0.3779 -0.1020  0.2336
  122OSM    H3S12840   6.655   3.148   6.422  0.2177  0.2661  2.1571
  122OSM     O312841   6.582   2.972   6.480  0.3669 -0.1811 -0.3363
  122OSM    HO312842   6.576   2.972   6.576 -1.0183  0.5973 -0.3949
  122OSM    C4S12843   6.733   2.993   6.308 -0.0166  0.2474 -0.0987
  122OSM    H4S12844   6.770   3.073   6.242 -1.6413  0.2761 -1.0243
  122OSM    C5S12845   6.742   2.873   6.258 -0.9008 -0.0483  0.0617
  122OSM    H5S12846   6.717   2.785   6.319  0.8319 -2.0676 -1.9603
  122OSM    C6S12847   6.790   2.846   6.118  0.1010 -0.1368  0.1752
  122OSM    H6S12848   6.822   2.740   6.107 -1.2096 -0.5710  0.3599
  122OSM    H6T12849   6.868   2.917   6.083  0.8061 -0.3316  1.2939
  122OSM    C7S12850   6.676   2.862   6.013 -0.4377 -0.8734 -0.1771
  122OSM    H7S12851   6.656   2.971   6.008 -1.2723 -1.0072 -0.0131
  122OSM    H7T12852   6.584   2.807   6.043 -1.0443  0.0950 -0.2154
  122OSM    C8S12853   6.708   2.813   5.869 -0.5259 -0.6531  0.1864
  122OSM    H8S12854   6.622   2.753   5.830  0.2403  0.0526 -2.8539
  122OSM    H8T12855   6.802   2.755   5.867  1.0523  1.5171  3.4324
  122OSM    C9S12856   6.722   2.934   5.762  0.1050  0.2156 -0.1638
  122OSM    H9S12857   6.815   2.987   5.790 -0.1712  0.9032 -0.5128
  122OSM    H9T12858   6.641   3.008   5.784 -0.9487 -0.6049 -1.1759
  122OSM   C10S12859   6.709   2.909   5.613  0.3371 -0.1736  0.0295
  122OSM   H10S12860   6.614   2.854   5.595 -0.0275  0.1450  0.9369
  122OSM   H10T12861   6.793   2.849   5.571 -1.1127 -0.7871 -2.1947
  122OSM   C11S12862   6.694   3.041   5.533 -0.1104 -0.3898  0.4164
  122OSM   H11S12863   6.778   3.108   5.557  0.4946 -0.7712 -0.5740
  122OSM   H11T12864   6.597   3.093   5.548  0.7153  1.8290 -1.3662
  122OSM   C12S12865   6.700   3.021   5.380  0.5305 -0.2401 -0.0153
  122OSM   H12S12866   6.637   2.931   5.360  0.9126 -0.7202  0.8537
  122OSM   H12T12867   6.805   2.995   5.353  0.8559  1.2303 -0.2296
  122OSM   C13S12868   6.667   3.144   5.292 -0.3730 -0.2186 -0.3785
  122OSM   H13S12869   6.715   3.236   5.331 -1.4835  0.3878 -0.3732
  122OSM   H13T12870   6.556   3.144   5.303 -0.3861 -0.3486 -0.5099
  122OSM   C14S12871   6.690   3.128   5.135 -0.9085  0.1674  0.1284
  122OSM   H14S12872   6.713   3.020   5.125 -3.3767 -0.3834 -0.3823
  122OSM   H14T12873   6.779   3.185   5.101 -1.1431 -0.4227 -1.5937
  122OSM   C15S12874   6.562   3.160   5.048 -0.0519 -0.2484 -0.2398
  122OSM   H15S12875   6.528   3.265   5.063  2.6768  1.0902 -2.3712
  122OSM   H15T12876   6.474   3.096   5.069 -0.6994  0.1763 -1.5312
  122OSM   C16S12877   6.574   3.151   4.896 -0.6611 -0.4062  0.1827
  122OSM   H16S12878   6.612   3.048   4.880  0.7144  0.0261  0.4516
  122OSM   H16T12879   6.657   3.212   4.853 -0.5847 -0.5953  0.0626
  122OSM   C17S12880   6.444   3.166   4.823  0.5236  0.2021  0.8541
  122OSM   H17S12881   6.388   3.260   4.845  1.4518  0.9758  0.0397
  122OSM   H17T12882   6.383   3.079   4.854  2.7387 -1.0123  2.0391
  122OSM   C18S12883   6.464   3.152   4.674  0.1537  0.7851  0.2729
  122OSM   H18S12884   6.517   3.057   4.649  0.4921  0.7499  1.0866
  122OSM   H18T12885   6.518   3.241   4.636  0.6925 -0.3943 -1.8572
  122OSM   H18U12886   6.365   3.161   4.624  0.3702 -0.6499 -0.4731
  122OSM    C1F12887   7.047   3.076   6.578 -0.7268  1.1131  0.0452
  122OSM     OF12888   7.054   3.010   6.681 -0.3114 -0.0763  0.2413
  122OSM    C2F12889   7.162   3.160   6.543  0.6746 -0.3154 -0.0811
  122OSM    H2F12890   7.207   3.201   6.636 -1.2216  0.5700  0.5088
  122OSM    H2G12891   7.137   3.244   6.475  0.2808 -1.1501 -0.9871
  122OSM    C3F12892   7.259   3.072   6.470 -0.8833  0.1921  0.1995
  122OSM    H3F12893   7.219   3.010   6.386  0.8966 -2.1231  0.9683
  122OSM    H3G12894   7.307   3.005   6.544  0.1212  2.0788  1.3314
  122OSM    C4F12895   7.390   3.140   6.422  0.0674 -0.9347 -0.9137
  122OSM    H4F12896   7.422   3.215   6.498  1.3806 -0.4202 -1.9274
  122OSM    H4G12897   7.377   3.201   6.330  1.7883  1.1205  0.1064
  122OSM    C5F12898   7.502   3.039   6.391  0.0039  0.3204  0.4123
  122OSM    H5F12899   7.505   2.983   6.487 -0.6192 -0.1350  0.1689
  122OSM    H5G12900   7.601   3.089   6.380  0.0846 -0.0755 -0.7948
  122OSM    C6F12901   7.479   2.955   6.265  0.5376  0.3748 -0.0401
  122OSM    H6F12902   7.380   2.908   6.283  0.4101  0.9936  0.9184
  122OSM    H6G12903   7.542   2.864   6.266 -1.3590 -0.9921 -0.0387
  122OSM    C7F12904   7.493   3.019   6.131 -0.2110 -0.1378 -1.1028
  122OSM    H7F12905   7.600   3.036   6.103  0.3239 -0.0571  0.8539
  122OSM    H7G12906   7.453   3.123   6.131 -1.2393 -0.5090  0.4203
  122OSM    C8F12907   7.427   2.939   6.018 -0.4391 -1.1491 -0.3899
  122OSM    H8F12908   7.472   2.838   6.010 -1.1150 -1.4529 -0.4017
  122OSM    H8G12909   7.442   3.000   5.926 -0.6074  0.7315  0.7708
  122OSM    C9F12910   7.275   2.924   6.043 -0.1594 -0.2380 -0.6144
  122OSM    H9F12911   7.231   3.012   6.092  1.9806 -0.5600  2.1080
  122OSM   C10F12912   7.194   2.821   6.032  0.4542  0.4387 -0.4859
  122OSM   H10F12913   7.086   2.827   6.054  0.9139  1.8220  1.6345
  122OSM   C11F12914   7.246   2.688   5.990 -0.5069  0.3288 -0.3610
  122OSM   H11F12915   7.187   2.605   6.037  1.1821 -0.1775  0.9705
  122OSM   H11G12916   7.353   2.683   6.020 -0.9341  1.9282  1.6731
  122OSM   C12F12917   7.234   2.664   5.836 -0.8393  0.1105 -0.1048
  122OSM   H12F12918   7.295   2.577   5.802  0.6120  0.2976  1.8183
  122OSM   H12G12919   7.283   2.745   5.778  0.6568 -2.7451 -3.1727
  122OSM   C13F12920   7.090   2.644   5.792 -0.5047 -0.0590 -0.7944
  122OSM   H13F12921   7.017   2.722   5.822 -1.5807 -0.7713 -1.4517
  122OSM   H13G12922   7.049   2.552   5.841 -0.6707  0.5535  0.2367
  122OSM   C14F12923   7.077   2.626   5.644  0.4367 -0.4041 -0.2186
  122OSM   H14F12924   7.146   2.546   5.607  1.2230  0.3647 -0.4539
  122OSM   H14G12925   7.097   2.720   5.588  2.5995  0.0068  1.1343
  122OSM   C15F12926   6.934   2.582   5.598 -0.6317 -0.1412  0.3781
  122OSM   H15F12927   6.853   2.641   5.646  1.6217  3.9477 -0.4283
  122OSM   H15G12928   6.913   2.473   5.609 -0.3131 -0.1456  0.9772
  122OSM   C16F12929   6.918   2.603   5.446 -0.5380  0.5536 -0.1899
  122OSM   H16F12930   6.986   2.531   5.396 -0.4329  1.6333 -1.6874
  122OSM   H16G12931   6.930   2.705   5.403  1.6698 -0.0352 -1.1019
  122OSM   C17F12932   6.774   2.568   5.396 -0.2090  0.2509  0.0679
  122OSM   H17F12933   6.695   2.622   5.452 -0.5600 -0.5320  0.3349
  122OSM   H17G12934   6.760   2.461   5.422  1.6001 -0.7949 -2.7293
  122OSM   C18F12935   6.752   2.577   5.250 -0.5579 -0.0331  0.1537
  122OSM   H18F12936   6.776   2.680   5.215 -2.6265  0.9486  1.4582
  122OSM   H18G12937   6.655   2.552   5.202  0.2420 -1.7167 -0.6925
  122OSM   H18H12938   6.820   2.505   5.200  1.0696  0.7602  1.1343
  123OSM      N12939   3.973   1.423   2.089 -0.2061  0.2106 -0.3824
  123OSM    C1512940   3.902   1.540   2.029  0.0653  0.0655 -0.1722
  123OSM   H15A12941   3.942   1.544   1.929  0.5795 -3.6124 -0.2293
  123OSM   H15B12942   3.903   1.630   2.089 -0.8789  0.5210 -0.8117
  123OSM   H15C12943   3.798   1.510   2.023 -0.0068  0.0253  1.1093
  123OSM    C1412944   3.894   1.385   2.211  0.2872 -0.0975 -0.3180
  123OSM   H14A12945   3.956   1.323   2.274  0.6865  1.6012  1.0388
  123OSM   H14B12946   3.805   1.328   2.190  0.1021  0.1428 -0.1852
  123OSM   H14C12947   3.850   1.460   2.275 -0.5601 -0.2142 -0.7604
  123OSM    C1312948   3.986   1.311   1.993  0.0123  0.1384  0.5738
  123OSM   H13A12949   4.030   1.221   2.032  0.3082  0.1300  0.2236
  123OSM   H13B12950   4.049   1.342   1.911 -1.1157  1.7540  0.2603
  123OSM   H13C12951   3.886   1.283   1.963  0.2342  0.5561 -0.5946
  123OSM    C1212952   4.115   1.451   2.138 -0.2769 -0.1754  0.6090
  123OSM   H12A12953   4.164   1.487   2.049 -1.0945  0.5589  0.4357
  123OSM   H12B12954   4.169   1.360   2.159  2.4487  1.2419  0.1790
  123OSM    C1112955   4.139   1.533   2.263  0.5175 -0.6023 -0.0423
  123OSM   H11A12956   4.243   1.500   2.284  0.3805 -0.3777  1.0676
  123OSM   H11B12957   4.067   1.494   2.338 -1.3321 -0.3197 -1.6087
  123OSM      P12958   4.195   1.773   2.156  0.4883 -0.2353  0.4493
  123OSM    O1312959   4.264   1.703   2.041  0.0283 -0.1270  0.0311
  123OSM    O1412960   4.113   1.891   2.115 -0.1020  0.0702 -0.5866
  123OSM    O1112961   4.299   1.824   2.261  0.2477  0.0763 -0.3064
  123OSM    O1212962   4.110   1.676   2.236  0.2784 -0.6435 -0.1787
  123OSM    C1S12963   4.267   1.892   2.386 -0.2510  0.0497  0.5423
  123OSM    H1S12964   4.160   1.919   2.377  0.1170  1.0886 -1.1370
  123OSM    H1T12965   4.324   1.986   2.369 -1.1054  0.5346  0.2852
  123OSM     NF12966   4.274   1.908   2.623 -0.1936  0.2061 -0.0136
  123OSM    HNF12967   4.354   1.943   2.671 -1.3368 -0.4353  2.5172
  123OSM    C2S12968   4.304   1.817   2.516  0.5102  0.4372  0.4470
  123OSM    H2S12969   4.229   1.735   2.516 -1.1104  1.8036  1.7784
  123OSM    C3S12970   4.450   1.765   2.512  0.2400 -0.3198 -0.9375
  123OSM    H3S12971   4.519   1.848   2.539  1.1824 -1.3622 -0.0490
  123OSM     O312972   4.503   1.722   2.381  0.1584  0.0936 -0.2972
  123OSM    HO312973   4.440   1.748   2.312  0.3442 -0.2957 -0.6194
  123OSM    C4S12974   4.468   1.667   2.623  0.6180 -0.0113  0.5534
  123OSM    H4S12975   4.477   1.724   2.716 -0.7930  2.2020 -0.5809
  123OSM    C5S12976   4.484   1.531   2.620  0.1288  0.3444  0.1599
  123OSM    H5S12977   4.481   1.480   2.522 -0.3657 -0.3137  0.5120
  123OSM    C6S12978   4.502   1.438   2.735  0.5842 -0.2035 -0.5029
  123OSM    H6S12979   4.584   1.366   2.715 -1.6017 -2.9475 -0.2497
  123OSM    H6T12980   4.416   1.370   2.750  0.3238  0.4987  1.5746
  123OSM    C7S12981   4.514   1.500   2.884  0.0689 -0.3641 -0.0750
  123OSM    H7S12982   4.417   1.542   2.918 -1.1052 -1.4766 -1.8641
  123OSM    H7T12983   4.588   1.583   2.890  2.6822 -2.5349 -0.5711
  123OSM    C8S12984   4.559   1.394   2.983 -0.3672 -0.0520  0.3283
  123OSM    H8S12985   4.661   1.363   2.953 -0.1264  0.3915  0.6650
  123OSM    H8T12986   4.499   1.306   2.954 -0.8433  0.5554 -0.5894
  123OSM    C9S12987   4.549   1.441   3.126  0.2163 -0.1053 -0.4507
  123OSM    H9S12988   4.449   1.473   3.162  0.7021  1.9582 -0.8118
  123OSM    H9T12989   4.630   1.517   3.139  0.5049 -0.0786 -2.1268
  123OSM   C10S12990   4.579   1.329   3.222  0.6446 -0.0855  0.4848
  123OSM   H10S12991   4.677   1.289   3.188  1.2062  0.7098  1.1516
  123OSM   H10T12992   4.516   1.237   3.218  2.1785 -1.1513 -2.4809
  123OSM   C11S12993   4.588   1.370   3.365 -0.4560  0.4748 -0.5686
  123OSM   H11S12994   4.489   1.410   3.394  0.4659  0.4455  2.9605
  123OSM   H11T12995   4.673   1.441   3.368 -0.1009  0.0594 -0.5586
  123OSM   C12S12996   4.611   1.250   3.454 -0.4187 -0.2880  0.1242
  123OSM   H12S12997   4.702   1.199   3.417  0.9469  1.2123  1.2917
  123OSM   H12T12998   4.526   1.178   3.447  1.8823 -3.2899  1.0459
  123OSM   C13S12999   4.631   1.286   3.607 -0.0034 -0.3597 -0.2344
  123OSM   H13S13000   4.537   1.329   3.649  1.4001  0.0022  2.8418
  123OSM   H13T13001   4.701   1.373   3.601 -0.2660 -0.0676  0.7683
  123OSM   C14S13002   4.682   1.175   3.706 -0.5093 -0.3460 -0.1897
  123OSM   H14S13003   4.787   1.149   3.682  0.0281 -0.3241  1.9665
  123OSM   H14T13004   4.631   1.077   3.693  1.1689 -1.0490 -1.8732
  123OSM   C15S13005   4.676   1.215   3.860  0.4028 -0.2449 -0.6085
  123OSM   H15S13006   4.735   1.304   3.893 -0.7851  0.9851 -1.6957
  123OSM   H15T13007   4.724   1.127   3.907 -1.7865 -0.8142  0.6834
  123OSM   C16S13008   4.539   1.230   3.923  0.8209  0.3398 -0.8111
  123OSM   H16S13009   4.480   1.303   3.864 -1.6029 -0.6890  0.1692
  123OSM   H16T13010   4.556   1.264   4.028  1.7736  0.0729 -0.8686
  123OSM   C17S13011   4.461   1.100   3.938 -0.7097  0.3906  0.0964
  123OSM   H17S13012   4.515   1.028   4.004 -2.7039 -0.1157  1.2554
  123OSM   H17T13013   4.438   1.063   3.835  0.6559  0.3084 -0.2097
  123OSM   C18S13014   4.335   1.120   4.021  0.0254 -0.4054  1.0367
  123OSM   H18S13015   4.287   1.215   3.991 -1.8524 -0.8752  2.3753
  123OSM   H18T13016   4.360   1.137   4.128 -0.4922  1.9237  0.8310
  123OSM   H18U13017   4.268   1.033   4.004  0.6385 -0.6919 -0.0186
  123OSM    C1F13018   4.152   1.959   2.650  0.1067 -0.2328  0.6360
  123OSM     OF13019   4.051   1.902   2.603  0.2574 -0.3820 -0.4287
  123OSM    C2F13020   4.144   2.083   2.731  0.4058 -0.6646 -0.4617
  123OSM    H2F13021   4.101   2.172   2.681  1.7979  0.2828 -0.0242
  123OSM    H2G13022   4.250   2.100   2.759  0.6998  1.0100 -2.4113
  123OSM    C3F13023   4.057   2.055   2.863  0.4233 -0.4128 -0.8465
  123OSM    H3F13024   4.103   1.960   2.897  0.9992  0.1468 -0.0333
  123OSM    H3G13025   3.955   2.035   2.823  0.1114 -1.6884  0.5228
  123OSM    C4F13026   4.062   2.166   2.968  1.1255  0.4745  0.2970
  123OSM    H4F13027   4.007   2.251   2.921  1.6145  1.0140  0.6872
  123OSM    H4G13028   4.166   2.195   2.991  1.8397 -0.5122 -1.4958
  123OSM    C5F13029   3.977   2.128   3.098 -0.0605  0.8402 -0.1327
  123OSM    H5F13030   4.025   2.036   3.139 -1.2754  0.4503  0.4527
  123OSM    H5G13031   3.875   2.094   3.069 -0.9690 -0.0010  3.5227
  123OSM    C6F13032   3.960   2.232   3.205 -0.2489 -0.0776 -0.0640
  123OSM    H6F13033   3.914   2.325   3.167 -0.2833 -0.1745 -0.2620
  123OSM    H6G13034   4.064   2.259   3.235  0.5950 -3.1177  0.0535
  123OSM    C7F13035   3.876   2.179   3.323  0.2959 -0.2470 -0.0816
  123OSM    H7F13036   3.945   2.115   3.383  0.5859  0.8318  0.7783
  123OSM    H7G13037   3.801   2.108   3.283  0.5743 -0.2929 -0.5340
  123OSM    C8F13038   3.813   2.291   3.402 -0.0285  0.5516 -0.3323
  123OSM    H8F13039   3.725   2.248   3.455  1.7671 -0.2454  2.2318
  123OSM    H8G13040   3.775   2.376   3.341 -0.4863  1.2049  0.8086
  123OSM    C9F13041   3.898   2.347   3.514 -0.8213  0.3156  0.0760
  123OSM    H9F13042   3.987   2.407   3.490 -1.1590  1.2927  1.1572
  123OSM   C10F13043   3.896   2.302   3.641 -0.5830 -0.1629 -0.7301
  123OSM   H10F13044   3.966   2.342   3.715  1.2742  2.4977 -3.6334
  123OSM   C11F13045   3.799   2.205   3.706 -0.0651 -0.1255 -0.0620
  123OSM   H11F13046   3.852   2.149   3.786 -0.2862 -0.0951  0.1064
  123OSM   H11G13047   3.755   2.137   3.630  1.3075  1.0845 -2.0210
  123OSM   C12F13048   3.678   2.269   3.781  0.5085 -0.4805  0.1086
  123OSM   H12F13049   3.717   2.342   3.854 -0.1294  2.1107 -1.9934
  123OSM   H12G13050   3.643   2.173   3.826  0.6222 -0.7451 -0.3575
  123OSM   C13F13051   3.566   2.338   3.700  0.0574  0.6294  0.1632
  123OSM   H13F13052   3.543   2.275   3.611  0.4768  2.4635 -1.2985
  123OSM   H13G13053   3.621   2.428   3.665  0.3204  0.5832  0.4499
  123OSM   C14F13054   3.438   2.389   3.771 -0.2521  0.4457  0.0024
  123OSM   H14F13055   3.470   2.460   3.851  3.0384 -2.0833  1.1633
  123OSM   H14G13056   3.398   2.302   3.827  3.0165 -0.9022  0.4559
  123OSM   C15F13057   3.332   2.449   3.684 -1.0132  0.2146  0.1272
  123OSM   H15F13058   3.321   2.381   3.598 -0.8898 -0.1113  0.3680
  123OSM   H15G13059   3.358   2.547   3.639  3.1865 -1.0666 -0.6442
  123OSM   C16F13060   3.190   2.451   3.745  0.1606  0.4104  0.3431
  123OSM   H16F13061   3.147   2.547   3.709 -0.4112  0.3657  0.8954
  123OSM   H16G13062   3.215   2.464   3.853  2.0844  1.2617 -0.1587
  123OSM   C17F13063   3.116   2.328   3.709  0.4315  0.4869  0.0600
  123OSM   H17F13064   3.169   2.236   3.742 -1.7486 -0.3435  1.4426
  123OSM   H17G13065   3.108   2.317   3.599 -0.4947  0.8197  0.0891
  123OSM   C18F13066   2.973   2.320   3.769  0.0773  0.7716  0.0653
  123OSM   H18F13067   2.971   2.353   3.875 -2.6835  1.5011 -0.1342
  123OSM   H18G13068   2.919   2.225   3.750  0.7808  0.0182  1.6660
  123OSM   H18H13069   2.911   2.400   3.722 -2.3155  0.5301  2.5468
  124OSM      N13070   0.106   3.334   2.156 -0.6150  0.9295  0.2454
  124OSM    C1513071  -0.011   3.409   2.115 -0.0209  0.2088 -0.7660
  124OSM   H15A13072  -0.035   3.393   2.010  1.3878  4.5668 -1.9649
  124OSM   H15B13073   0.003   3.516   2.118 -2.6422  0.7253 -2.6506
  124OSM   H15C13074  -0.100   3.377   2.167  0.8961 -1.5979 -0.2488
  124OSM    C1413075   0.220   3.344   2.051  0.3463  0.0018 -0.3130
  124OSM   H14A13076   0.196   3.301   1.954  2.6632 -0.4894 -0.7210
  124OSM   H14B13077   0.305   3.298   2.098 -1.2008 -1.5094  1.1649
  124OSM   H14C13078   0.248   3.447   2.038  0.1249 -0.1026 -1.7745
  124OSM    C1313079   0.156   3.394   2.288 -0.3128 -0.2775 -0.5649
  124OSM   H13A13080   0.157   3.502   2.279 -1.0118 -0.1013  1.1985
  124OSM   H13B13081   0.247   3.349   2.324  0.1299  0.2683 -0.9871
  124OSM   H13C13082   0.079   3.372   2.361  0.1878 -0.3453 -0.0529
  124OSM    C1213083   0.069   3.185   2.162 -0.2956  0.9883 -1.0828
  124OSM   H12A13084   0.059   3.140   2.064  2.9807  0.8683 -1.4925
  124OSM   H12B13085  -0.032   3.193   2.200  0.0254  4.8191 -0.6413
  124OSM    C1113086   0.152   3.078   2.238 -0.0739 -0.7096 -0.2509
  124OSM   H11A13087   0.102   2.979   2.237 -0.6106 -0.4477 -1.6670
  124OSM   H11B13088   0.168   3.119   2.340  1.0995  0.9821 -1.0661
  124OSM      P13089   0.415   3.035   2.247 -0.2713  0.0622 -0.2735
  124OSM    O1313090   0.465   2.911   2.196 -0.6264  0.5221 -0.0132
  124OSM    O1413091   0.514   3.149   2.239 -0.2046  0.2894  0.2683
  124OSM    O1113092   0.380   3.015   2.398  0.2206  0.5097 -0.3929
  124OSM    O1213093   0.275   3.064   2.176  0.5214 -0.1179  0.3886
  124OSM    C1S13094   0.455   3.079   2.504  0.5320 -0.2206  0.4212
  124OSM    H1S13095   0.417   3.183   2.510 -0.4562 -0.3518 -2.1098
  124OSM    H1T13096   0.561   3.085   2.474  0.4415 -0.6704 -0.0053
  124OSM     NF13097   0.550   3.074   2.724  0.4146 -0.5897 -0.5065
  124OSM    HNF13098   0.632   3.031   2.762 -0.1263 -0.8050  0.4205
  124OSM    C2S13099   0.453   3.000   2.641 -0.3662  0.0965  0.0832
  124OSM    H2S13100   0.349   3.007   2.679 -1.9023 -1.2643 -3.4408
  124OSM    C3S13101   0.473   2.848   2.617  0.0195 -0.1295 -0.4960
  124OSM    H3S13102   0.579   2.822   2.601  0.7734  3.3533 -2.1981
  124OSM     O313103   0.407   2.788   2.508 -0.1341 -0.5110 -0.0201
  124OSM    HO313104   0.366   2.864   2.466 -1.3852 -0.8766  0.4681
  124OSM    C4S13105   0.428   2.779   2.754 -0.5875 -0.3181 -0.5415
  124OSM    H4S13106   0.489   2.824   2.834 -1.4387  0.9887 -0.5899
  124OSM    C5S13107   0.331   2.688   2.775 -0.2793  0.5449  0.2947
  124OSM    H5S13108   0.259   2.657   2.698 -0.3261  0.6230  0.3080
  124OSM    C6S13109   0.299   2.628   2.908  0.4245  0.1286 -0.6265
  124OSM    H6S13110   0.309   2.517   2.903  1.3406  0.2503 -2.7289
  124OSM    H6T13111   0.191   2.640   2.930  0.2122 -1.1139 -0.9195
  124OSM    C7S13112   0.372   2.677   3.028 -0.0607  0.5529 -0.5989
  124OSM    H7S13113   0.364   2.787   3.040  0.4519  0.5079  0.2174
  124OSM    H7T13114   0.478   2.645   3.024  0.1401  0.6440  2.3418
  124OSM    C8S13115   0.326   2.607   3.154 -0.0676  0.4891 -0.1295
  124OSM    H8S13116   0.404   2.634   3.228  0.5636  2.7318 -1.5095
  124OSM    H8T13117   0.332   2.498   3.130  1.1527  0.8202 -1.4799
  124OSM    C9S13118   0.186   2.646   3.201  1.0245  0.5704 -0.1522
  124OSM    H9S13119   0.109   2.598   3.137 -1.5016  4.3938 -0.2558
  124OSM    H9T13120   0.180   2.755   3.185 -0.2185  0.6738  0.9055
  124OSM   C10S13121   0.156   2.618   3.348  0.3053  0.6734 -0.0625
  124OSM   H10S13122   0.141   2.509   3.364 -0.1881  0.2472 -2.8505
  124OSM   H10T13123   0.062   2.671   3.376  0.7338  1.4272 -0.0140
  124OSM   C11S13124   0.262   2.662   3.448 -0.3364  0.4844  0.8649
  124OSM   H11S13125   0.281   2.769   3.425  0.6562  0.3187  0.8567
  124OSM   H11T13126   0.361   2.613   3.435 -0.4685  0.3307  0.4273
  124OSM   C12S13127   0.207   2.649   3.592 -0.7706 -0.4303  0.5599
  124OSM   H12S13128   0.167   2.546   3.594 -0.4101 -0.6061 -0.6066
  124OSM   H12T13129   0.129   2.726   3.607 -0.7153 -0.0513 -0.8994
  124OSM   C13S13130   0.319   2.681   3.693  0.6739  0.4932  0.2332
  124OSM   H13S13131   0.376   2.776   3.684  2.0849 -0.1135  2.1100
  124OSM   H13T13132   0.401   2.610   3.672  0.1169  0.3856 -1.8050
  124OSM   C14S13133   0.265   2.668   3.836  0.9885  0.3187  0.2288
  124OSM   H14S13134   0.230   2.564   3.852  1.3893 -0.0248 -1.0763
  124OSM   H14T13135   0.174   2.732   3.842  0.4213 -0.3636 -0.8955
  124OSM   C15S13136   0.368   2.704   3.937  0.3390  0.2174  0.4614
  124OSM   H15S13137   0.422   2.798   3.911  0.8750 -0.7900 -2.4613
  124OSM   H15T13138   0.454   2.635   3.934  1.4082  1.4519 -3.4629
  124OSM   C16S13139   0.307   2.705   4.076 -0.5719 -0.1374 -0.2707
  124OSM   H16S13140   0.298   2.598   4.103  1.2846  0.0326  1.2941
  124OSM   H16T13141   0.209   2.757   4.081 -0.0089  0.9133  0.2662
  124OSM   C17S13142   0.402   2.763   4.188 -0.2612 -0.2875 -0.2279
  124OSM   H17S13143   0.432   2.866   4.158  1.9209 -0.8218 -0.0520
  124OSM   H17T13144   0.501   2.712   4.189 -0.0180  0.1165  2.6301
  124OSM   C18S13145   0.347   2.746   4.332  0.6731 -0.1183  0.3331
  124OSM   H18S13146   0.257   2.808   4.350  0.5025 -0.9635  2.8223
  124OSM   H18T13147   0.416   2.783   4.411  0.3581  1.8371 -0.2574
  124OSM   H18U13148   0.321   2.639   4.349 -1.1439  0.3141  0.4765
  124OSM    C1F13149   0.536   3.205   2.751 -0.5204 -0.0400 -0.0499
  124OSM     OF13150   0.427   3.259   2.736 -0.1273  0.1298  0.0907
  124OSM    C2F13151   0.645   3.270   2.841  0.4811  0.1168  0.8097
  124OSM    H2F13152   0.740   3.215   2.830  1.1624  1.5442 -1.0488
  124OSM    H2G13153   0.607   3.248   2.943 -3.0563  1.0120 -0.1581
  124OSM    C3F13154   0.675   3.422   2.807  0.8706  0.6326  0.7364
  124OSM    H3F13155   0.574   3.463   2.826 -0.0393 -0.4738 -1.4376
  124OSM    H3G13156   0.706   3.432   2.701  0.0522 -0.4337  0.3948
  124OSM    C4F13157   0.774   3.487   2.895  0.3002  0.0527  0.9597
  124OSM    H4F13158   0.842   3.557   2.842 -0.0591 -0.6118 -0.4247
  124OSM    H4G13159   0.843   3.408   2.933  1.1810  0.6273  0.5824
  124OSM    C5F13160   0.716   3.574   2.996 -0.7688  0.2824 -0.8818
  124OSM    H5F13161   0.649   3.655   2.961 -0.4792  0.8106 -0.2313
  124OSM    H5G13162   0.805   3.628   3.035 -0.4505 -1.4300  0.9442
  124OSM    C6F13163   0.646   3.509   3.114  0.1306  0.6132  1.1374
  124OSM    H6F13164   0.714   3.427   3.144  0.5893  1.0095  1.2000
  124OSM    H6G13165   0.553   3.466   3.071 -0.2548 -0.0074  2.5149
  124OSM    C7F13166   0.606   3.601   3.223  0.6732 -0.5687  0.0810
  124OSM    H7F13167   0.530   3.660   3.168  0.0650 -2.3560 -1.1099
  124OSM    H7G13168   0.683   3.676   3.251 -1.0973  0.9305  1.1445
  124OSM    C8F13169   0.537   3.542   3.352  0.3615  0.2212  0.2400
  124OSM    H8F13170   0.457   3.470   3.326  0.5253  0.7981 -2.0057
  124OSM    H8G13171   0.472   3.617   3.403 -0.2810  0.0712 -0.3401
  124OSM    C9F13172   0.643   3.472   3.437  0.2110 -0.4769  0.3539
  124OSM    H9F13173   0.670   3.376   3.391 -2.8630 -0.4318 -1.7981
  124OSM   C10F13174   0.693   3.515   3.556 -0.2312  0.0426  0.2029
  124OSM   H10F13175   0.760   3.446   3.610 -1.3017 -0.1066  1.3882
  124OSM   C11F13176   0.656   3.641   3.632  0.1480  0.2333  0.1635
  124OSM   H11F13177   0.591   3.703   3.567  0.6796  0.9837  0.3383
  124OSM   H11G13178   0.752   3.686   3.666 -0.3107  1.9080 -0.6626
  124OSM   C12F13179   0.572   3.617   3.759  0.3747 -0.4915 -0.2752
  124OSM   H12F13180   0.478   3.573   3.721  1.0451  0.2644 -2.9933
  124OSM   H12G13181   0.550   3.714   3.810 -1.7987 -0.2592 -1.5581
  124OSM   C13F13182   0.636   3.519   3.858  0.3067 -0.3815  0.5034
  124OSM   H13F13183   0.739   3.543   3.892  0.4280 -0.4343  0.1717
  124OSM   H13G13184   0.643   3.426   3.798 -0.0308  0.9956 -1.7962
  124OSM   C14F13185   0.546   3.486   3.980 -0.0632 -0.2518 -0.0883
  124OSM   H14F13186   0.466   3.412   3.958 -0.0278 -0.6415  1.0215
  124OSM   H14G13187   0.507   3.584   4.014  0.7231 -0.5364  1.7726
  124OSM   C15F13188   0.638   3.435   4.092  0.6923 -0.5371  0.6628
  124OSM   H15F13189   0.708   3.517   4.117 -0.6046  0.3458  1.5507
  124OSM   H15G13190   0.694   3.354   4.042  0.0921  1.1363 -3.0428
  124OSM   C16F13191   0.566   3.383   4.220 -0.2120  0.0372  0.6388
  124OSM   H16F13192   0.529   3.468   4.282 -1.1542  0.2402 -0.1742
  124OSM   H16G13193   0.649   3.333   4.274 -0.1713 -1.7126 -0.9213
  124OSM   C17F13194   0.451   3.284   4.194  0.2243 -0.3168 -0.0729
  124OSM   H17F13195   0.371   3.336   4.136  0.9342  1.5257  0.5270
  124OSM   H17G13196   0.402   3.256   4.289 -1.0812  2.2660  0.0958
  124OSM   C18F13197   0.504   3.157   4.126 -0.6019 -0.0003  0.2248
  124OSM   H18F13198   0.570   3.096   4.191  0.3515  2.5298  1.7685
  124OSM   H18G13199   0.559   3.179   4.032  1.1203 -0.3600  1.1119
  124OSM   H18H13200   0.412   3.095   4.115 -1.5606  1.4322 -0.1547
  125OSM      N13201   6.223   0.266   2.275 -0.2189  0.6995  1.0154
  125OSM    C1513202   6.356   0.231   2.338 -0.6066 -0.3180  0.2280
  125OSM   H15A13203   6.341   0.193   2.438 -2.3823 -3.5518 -1.1103
  125OSM   H15B13204   6.429   0.310   2.332  1.0460 -1.6828  1.4750
  125OSM   H15C13205   6.402   0.147   2.287 -1.3610 -0.1778 -0.7085
  125OSM    C1413206   6.160   0.379   2.360  0.6211 -0.4115  0.0975
  125OSM   H14A13207   6.057   0.392   2.328  1.1579  1.5072 -0.9505
  125OSM   H14B13208   6.217   0.469   2.343 -0.0585  0.0745  0.3382
  125OSM   H14C13209   6.151   0.355   2.465  0.8858 -1.1329 -0.0387
  125OSM    C1313210   6.271   0.328   2.143  0.3278 -1.3872  0.6642
  125OSM   H13A13211   6.332   0.259   2.087 -1.7611 -1.4296 -1.7060
  125OSM   H13B13212   6.333   0.413   2.167  0.0670 -0.9049 -0.3336
  125OSM   H13C13213   6.186   0.356   2.084 -1.0498 -1.1344  2.6491
  125OSM    C1213214   6.133   0.149   2.250 -0.6054 -0.2170  0.4095
  125OSM   H12A13215   6.186   0.081   2.185 -0.8617  2.3606 -2.7496
  125OSM   H12B13216   6.054   0.185   2.186 -0.1129  1.2939  0.5945
  125OSM    C1113217   6.075   0.081   2.368  0.3824  0.1276  0.4790
  125OSM   H11A13218   5.994   0.137   2.421 -0.2693 -0.5222  0.1821
  125OSM   H11B13219   6.156   0.054   2.440 -1.0881 -1.4869  1.6305
  125OSM      P13220   6.092  -0.175   2.345 -0.1507 -0.2551  0.1442
  125OSM    O1313221   6.015  -0.282   2.282  0.0789 -0.6198  0.4827
  125OSM    O1413222   6.234  -0.162   2.309 -0.7793  0.3488  0.0118
  125OSM    O1113223   6.085  -0.196   2.497 -0.2341  0.0156 -0.7984
  125OSM    O1213224   6.020  -0.040   2.310  0.4118 -0.0264  0.3189
  125OSM    C1S13225   5.985  -0.154   2.588 -0.3431 -0.0135  0.1050
  125OSM    H1S13226   5.898  -0.219   2.564  0.3979 -1.8956  2.1942
  125OSM    H1T13227   5.953  -0.049   2.571 -0.4058  0.0885  0.8342
  125OSM     NF13228   5.920  -0.156   2.837 -0.1409  0.6514 -0.1321
  125OSM    HNF13229   5.915  -0.066   2.879 -0.8769 -0.3395  2.0217
  125OSM    C2S13230   6.029  -0.174   2.744  0.6294  0.0114  0.7407
  125OSM    H2S13231   6.050  -0.282   2.751 -2.4375 -0.6123  1.8775
  125OSM    C3S13232   6.148  -0.082   2.779 -0.9536  0.7731 -0.0419
  125OSM    H3S13233   6.091   0.012   2.769 -1.1678  0.7144  0.5865
  125OSM     O313234   6.237  -0.060   2.668  0.2217  0.1194  0.3230
  125OSM    HO313235   6.191  -0.107   2.599  0.4908 -0.5740  0.5993
  125OSM    C4S13236   6.215  -0.095   2.916  0.0466  0.0939 -0.6401
  125OSM    H4S13237   6.167  -0.034   2.994  1.4625  0.2836  0.1126
  125OSM    C5S13238   6.322  -0.183   2.944  0.9387 -0.3188  0.3571
  125OSM    H5S13239   6.358  -0.246   2.861  0.3810  0.0943 -0.2117
  125OSM    C6S13240   6.373  -0.219   3.083 -0.1335 -0.2943 -0.3257
  125OSM    H6S13241   6.479  -0.186   3.074 -0.1483  0.1307  0.8763
  125OSM    H6T13242   6.365  -0.327   3.110 -0.7352 -0.8381 -2.4706
  125OSM    C7S13243   6.330  -0.137   3.208 -0.1612  0.1753 -0.6311
  125OSM    H7S13244   6.227  -0.164   3.239 -0.3843  0.1262 -1.3852
  125OSM    H7T13245   6.321  -0.030   3.179  1.2428  0.1781 -1.1125
  125OSM    C8S13246   6.420  -0.168   3.334  0.6445  0.0465 -0.0749
  125OSM    H8S13247   6.528  -0.151   3.311  0.4748  1.0447 -0.2176
  125OSM    H8T13248   6.408  -0.276   3.356 -0.5937 -0.0150 -0.9500
  125OSM    C9S13249   6.377  -0.081   3.457  0.1636  0.0332 -0.3343
  125OSM    H9S13250   6.276  -0.102   3.499  0.6381  0.9394  1.3525
  125OSM    H9T13251   6.394   0.027   3.435 -2.0129  0.3351 -0.7120
  125OSM   C10S13252   6.484  -0.113   3.562 -0.0376  0.5176 -0.8983
  125OSM   H10S13253   6.581  -0.107   3.509  1.4940 -4.1817  0.8349
  125OSM   H10T13254   6.482  -0.221   3.588 -0.3579  1.2262  2.4978
  125OSM   C11S13255   6.485  -0.027   3.687 -0.0414  0.8908  0.2419
  125OSM   H11S13256   6.524  -0.091   3.769 -0.8909 -1.4381 -1.0829
  125OSM   H11T13257   6.383   0.008   3.712 -0.5507 -0.8492  0.7391
  125OSM   C12S13258   6.570   0.097   3.680 -0.2702  0.3862 -0.1500
  125OSM   H12S13259   6.542   0.172   3.603 -1.8663 -0.1086 -0.0963
  125OSM   H12T13260   6.674   0.069   3.651  0.7550  1.0498  2.6399
  125OSM   C13S13261   6.594   0.158   3.817 -0.3953  0.1889  0.0114
  125OSM   H13S13262   6.632   0.073   3.877  0.3424  0.4591 -0.0535
  125OSM   H13T13263   6.497   0.187   3.863 -0.7112 -1.5243  0.4794
  125OSM   C14S13264   6.696   0.272   3.805 -0.5960 -0.5990 -0.8641
  125OSM   H14S13265   6.783   0.236   3.745  0.4408 -1.1777  0.9154
  125OSM   H14T13266   6.717   0.300   3.910  0.4147  1.0563 -1.4766
  125OSM   C15S13267   6.646   0.401   3.741  0.5757 -0.1653 -0.2771
  125OSM   H15S13268   6.545   0.429   3.779  0.6558  0.3731 -0.4517
  125OSM   H15T13269   6.628   0.393   3.631 -0.2887 -3.2096 -0.0103
  125OSM   C16S13270   6.742   0.519   3.758 -0.6071 -0.4038 -0.3605
  125OSM   H16S13271   6.760   0.550   3.863  2.5727  1.0766 -1.2066
  125OSM   H16T13272   6.694   0.603   3.702  1.6203 -0.4957 -2.6156
  125OSM   C17S13273   6.874   0.501   3.692  0.4273  0.5818  0.6399
  125OSM   H17S13274   6.866   0.465   3.587 -3.2340 -3.2378  1.9529
  125OSM   H17T13275   6.924   0.413   3.737  1.3752 -0.8879 -2.9308
  125OSM   C18S13276   6.947   0.631   3.692  0.8022 -0.0171 -0.5474
  125OSM   H18S13277   7.038   0.614   3.631 -0.4524 -1.2398 -2.1731
  125OSM   H18T13278   6.973   0.656   3.797 -2.5954 -1.3397  0.7716
  125OSM   H18U13279   6.886   0.719   3.661  1.6652 -0.2844 -3.2587
  125OSM    C1F13280   5.815  -0.241   2.846  0.1662  0.3566 -0.9518
  125OSM     OF13281   5.808  -0.338   2.774  0.1426  0.5175 -0.3062
  125OSM    C2F13282   5.700  -0.207   2.935 -0.1675 -0.2523  1.3927
  125OSM    H2F13283   5.643  -0.115   2.911 -0.4534 -0.7764  0.0141
  125OSM    H2G13284   5.732  -0.204   3.042  1.4330  2.5268  0.9496
  125OSM    C3F13285   5.598  -0.320   2.927  0.0876 -0.0034 -0.6236
  125OSM    H3F13286   5.640  -0.412   2.973  0.6762  1.0443  1.0157
  125OSM    H3G13287   5.556  -0.341   2.826  0.1031 -1.5866 -0.3341
  125OSM    C4F13288   5.474  -0.287   3.017 -0.2131  0.1006  0.8353
  125OSM    H4F13289   5.400  -0.370   3.011 -0.1786  0.1419 -0.4063
  125OSM    H4G13290   5.415  -0.203   2.976  1.9813  2.0450  1.4801
  125OSM    C5F13291   5.509  -0.244   3.162  1.1234 -0.3390  0.2370
  125OSM    H5F13292   5.563  -0.147   3.157 -0.3074  0.5103  0.8381
  125OSM    H5G13293   5.572  -0.326   3.203 -0.8990 -1.6196  0.9417
  125OSM    C6F13294   5.384  -0.230   3.251 -0.3620 -0.2104  0.4851
  125OSM    H6F13295   5.353  -0.336   3.267 -0.5004 -0.1636  0.5287
  125OSM    H6G13296   5.306  -0.175   3.195  2.2488  0.7732 -2.4945
  125OSM    C7F13297   5.411  -0.154   3.386 -0.6974 -0.2705  0.3859
  125OSM    H7F13298   5.464  -0.058   3.369 -0.3010 -0.2944  1.4178
  125OSM    H7G13299   5.489  -0.206   3.446  0.3655  1.6095  0.7096
  125OSM    C8F13300   5.281  -0.123   3.464 -0.5899 -0.3335  0.5571
  125OSM    H8F13301   5.216  -0.070   3.392 -0.8486 -1.0333  0.2618
  125OSM    H8G13302   5.297  -0.042   3.538 -0.7004  1.5558 -1.3825
  125OSM    C9F13303   5.213  -0.235   3.528 -0.6906  1.0589  0.3468
  125OSM    H9F13304   5.156  -0.300   3.460 -1.9037  1.2351  1.1540
  125OSM   C10F13305   5.212  -0.269   3.665 -0.6187  0.0778 -0.2188
  125OSM   H10F13306   5.158  -0.358   3.702  1.0616 -1.1708 -0.6191
  125OSM   C11F13307   5.285  -0.195   3.771 -0.3831 -0.2257  0.6678
  125OSM   H11F13308   5.219  -0.158   3.852 -1.9979 -2.4697  0.4827
  125OSM   H11G13309   5.355  -0.120   3.728  2.7261 -1.6830  2.8274
  125OSM   C12F13310   5.381  -0.288   3.855 -0.5348 -0.4886  0.1186
  125OSM   H12F13311   5.437  -0.220   3.924  1.0350 -1.7879  0.1888
  125OSM   H12G13312   5.452  -0.335   3.783 -0.7085 -1.0929  0.3434
  125OSM   C13F13313   5.307  -0.385   3.948 -0.5985  0.2781  0.2152
  125OSM   H13F13314   5.268  -0.463   3.880  1.5029  0.0281 -0.7692
  125OSM   H13G13315   5.223  -0.327   3.994 -1.2235 -0.4498  0.0014
  125OSM   C14F13316   5.384  -0.449   4.062  0.3346  0.2891 -0.1009
  125OSM   H14F13317   5.479  -0.497   4.032  1.5019  0.6764  2.6378
  125OSM   H14G13318   5.311  -0.522   4.105 -2.2404  2.5276 -0.3866
  125OSM   C15F13319   5.414  -0.340   4.164 -0.7344 -0.4653 -0.3215
  125OSM   H15F13320   5.318  -0.288   4.187 -0.1821  0.2127  0.4784
  125OSM   H15G13321   5.481  -0.258   4.131 -0.7153 -0.5728 -0.5511
  125OSM   C16F13322   5.476  -0.403   4.294 -0.1925  0.1456 -0.1489
  125OSM   H16F13323   5.584  -0.423   4.275  0.2328 -0.6026  2.6131
  125OSM   H16G13324   5.429  -0.499   4.321  0.6202  0.0039  0.8280
  125OSM   C17F13325   5.473  -0.304   4.413 -0.3505  0.2482 -0.2442
  125OSM   H17F13326   5.513  -0.205   4.382  1.2107  0.3102  1.7268
  125OSM   H17G13327   5.542  -0.326   4.497 -0.6686  1.6719  0.4348
  125OSM   C18F13328   5.327  -0.286   4.473 -0.3903  0.2403 -0.4807
  125OSM   H18F13329   5.279  -0.381   4.507 -0.4431  0.4435  0.0272
  125OSM   H18G13330   5.274  -0.243   4.385  1.3487 -0.0426 -1.7082
  125OSM   H18H13331   5.322  -0.203   4.547  1.3865  1.6934 -1.9164
  126OSM      N13332   5.532   6.796   2.375  0.4659  0.1124 -0.2830
  126OSM    C1513333   5.508   6.898   2.264  0.4439  0.5197  0.2572
  126OSM   H15A13334   5.513   7.003   2.290 -3.3683  2.4087 -4.8885
  126OSM   H15B13335   5.407   6.882   2.231  1.2236 -1.5567 -1.3356
  126OSM   H15C13336   5.576   6.884   2.181 -0.2027  1.4979 -0.4660
  126OSM    C1413337   5.525   6.661   2.325  0.1552  0.2581 -0.4482
  126OSM   H14A13338   5.557   6.588   2.397  2.0502  0.0499 -1.4337
  126OSM   H14B13339   5.598   6.646   2.246 -0.4987  2.5221 -1.5646
  126OSM   H14C13340   5.427   6.639   2.285  0.1525  3.3626 -2.5385
  126OSM    C1313341   5.679   6.816   2.424  0.0600 -0.3736 -0.1254
  126OSM   H13A13342   5.699   6.733   2.491  0.3286 -0.2816 -0.0899
  126OSM   H13B13343   5.707   6.908   2.474 -1.7999 -0.6098  1.4830
  126OSM   H13C13344   5.754   6.798   2.349  0.1342  1.7179 -0.6184
  126OSM    C1213345   5.440   6.816   2.500  0.8138  0.3018 -0.1455
  126OSM   H12A13346   5.453   6.919   2.531  0.7889  0.1848  0.2639
  126OSM   H12B13347   5.477   6.752   2.579  0.9640 -1.5220 -1.6296
  126OSM    C1113348   5.288   6.791   2.483 -0.1605 -0.3386 -0.7236
  126OSM   H11A13349   5.242   6.806   2.583  0.7550 -0.8736 -0.2037
  126OSM   H11B13350   5.263   6.688   2.447 -1.3499 -0.2132 -0.3192
  126OSM      P13351   5.143   7.010   2.426  0.6656 -0.0601 -0.2904
  126OSM    O1313352   5.155   7.110   2.319  0.2859  0.3132  0.1511
  126OSM    O1413353   5.009   6.954   2.458  0.6685 -0.4975 -0.3221
  126OSM    O1113354   5.190   7.086   2.558  0.5135 -0.1985 -0.6898
  126OSM    O1213355   5.242   6.888   2.390  0.3591 -1.1450 -0.6769
  126OSM    C1S13356   5.143   7.055   2.688 -0.3945  0.1437 -0.1895
  126OSM    H1S13357   5.208   6.975   2.728  2.3244  1.6969 -1.2536
  126OSM    H1T13358   5.035   7.030   2.681 -0.3432 -0.0469 -0.2813
  126OSM     NF13359   5.075   7.159   2.898  0.5064  0.4999 -0.3635
  126OSM    HNF13360   4.981   7.189   2.913 -0.2651 -1.4409 -1.0395
  126OSM    C2S13361   5.140   7.188   2.772 -0.6429  0.0194  0.2052
  126OSM    H2S13362   5.247   7.213   2.788 -0.7420  1.5415 -1.2025
  126OSM    C3S13363   5.087   7.324   2.700 -0.4840  0.8762  0.7393
  126OSM    H3S13364   4.976   7.312   2.691 -0.5867  1.0536  1.7169
  126OSM     O313365   5.125   7.339   2.562 -0.2915  0.0584  0.4029
  126OSM    HO313366   5.163   7.256   2.533 -0.4283  0.8069 -2.1449
  126OSM    C4S13367   5.111   7.448   2.770  0.6220 -0.3591 -0.5535
  126OSM    H4S13368   5.216   7.458   2.801  1.2086 -1.1085 -2.2235
  126OSM    C5S13369   5.014   7.529   2.807  0.5253 -0.1448 -0.1529
  126OSM    H5S13370   4.911   7.519   2.770  0.0417  2.1180  0.4239
  126OSM    C6S13371   5.038   7.658   2.883 -0.4124  0.2078  0.3120
  126OSM    H6S13372   4.940   7.701   2.914 -0.7591 -0.8303  0.7087
  126OSM    H6T13373   5.086   7.737   2.821  0.5751  2.7748  4.0475
  126OSM    C7S13374   5.123   7.634   3.015 -0.0663  0.1535  0.4445
  126OSM    H7S13375   5.126   7.738   3.054 -1.3992  0.4848 -0.2627
  126OSM    H7T13376   5.226   7.599   2.996 -0.1083  0.3591 -0.1728
  126OSM    C8S13377   5.060   7.532   3.112  0.0786 -0.1403  0.3813
  126OSM    H8S13378   5.074   7.434   3.062 -1.3468 -0.7742  1.1330
  126OSM    H8T13379   4.952   7.557   3.116 -0.2418 -0.8139 -2.2419
  126OSM    C9S13380   5.126   7.525   3.252 -0.4550  0.2949  0.5679
  126OSM    H9S13381   5.196   7.612   3.253  1.7438 -1.3803 -0.3385
  126OSM    H9T13382   5.191   7.435   3.254 -0.0394  0.5832  3.3530
  126OSM   C10S13383   5.035   7.498   3.375 -0.4626  0.2199  0.3411
  126OSM   H10S13384   4.972   7.410   3.351  2.5392 -2.3369  1.0939
  126OSM   H10T13385   4.960   7.577   3.392 -0.7175  0.0958 -0.1863
  126OSM   C11S13386   5.099   7.460   3.505  0.0530  0.8948 -0.6764
  126OSM   H11S13387   5.150   7.364   3.484 -1.3325  0.1645 -0.8374
  126OSM   H11T13388   5.025   7.433   3.583  0.4492  0.9200 -0.2864
  126OSM   C12S13389   5.199   7.561   3.562  0.5998 -0.2480 -0.3591
  126OSM   H12S13390   5.152   7.659   3.540 -1.2508 -1.1931 -0.7985
  126OSM   H12T13391   5.298   7.570   3.511  0.5723  1.2909 -0.1893
  126OSM   C13S13392   5.209   7.553   3.719  0.0637  0.6568 -0.9369
  126OSM   H13S13393   5.253   7.451   3.728  0.0982  0.2837 -4.1382
  126OSM   H13T13394   5.106   7.554   3.762  0.3773  0.6444 -0.1817
  126OSM   C14S13395   5.297   7.664   3.775  0.0538 -0.2635 -0.0031
  126OSM   H14S13396   5.255   7.763   3.746  0.0414 -0.4899 -0.7642
  126OSM   H14T13397   5.393   7.652   3.722  1.6336  0.5887  2.4768
  126OSM   C15S13398   5.328   7.639   3.928  0.8598 -0.6476  0.3996
  126OSM   H15S13399   5.422   7.694   3.945  2.5599 -3.3521  0.3038
  126OSM   H15T13400   5.353   7.531   3.929  0.8914 -0.6386  0.6966
  126OSM   C16S13401   5.208   7.678   4.011  0.3163 -0.3958 -0.1875
  126OSM   H16S13402   5.227   7.660   4.119 -0.0668 -0.3696 -0.1150
  126OSM   H16T13403   5.127   7.603   3.995 -0.4882  0.8211 -2.1602
  126OSM   C17S13404   5.162   7.828   4.009  0.2427  0.2722  0.5674
  126OSM   H17S13405   5.129   7.851   3.906 -0.7750  2.3139  1.2773
  126OSM   H17T13406   5.255   7.884   4.034  0.7630  0.1829 -1.0573
  126OSM   C18S13407   5.032   7.854   4.089  0.3329  0.2905  0.2931
  126OSM   H18S13408   5.052   7.855   4.198  0.6865 -1.0379  0.2518
  126OSM   H18T13409   4.946   7.787   4.067  0.0302  1.1940 -1.5026
  126OSM   H18U13410   4.989   7.954   4.066 -2.2609 -1.2896 -2.3978
  126OSM    C1F13411   5.132   7.090   2.997  0.7659  0.3339  0.3098
  126OSM     OF13412   5.247   7.047   2.987 -0.2635  0.1163 -0.8361
  126OSM    C2F13413   5.048   7.070   3.116  0.2458  0.2489  0.5904
  126OSM    H2F13414   4.939   7.076   3.095 -0.0813 -2.5021  1.0971
  126OSM    H2G13415   5.092   7.139   3.191  4.1263 -0.6185 -0.6619
  126OSM    C3F13416   5.061   6.924   3.172 -0.4367 -0.9760 -0.3436
  126OSM    H3F13417   5.167   6.904   3.197 -0.7847 -0.8439  1.3755
  126OSM    H3G13418   5.021   6.852   3.098  0.3142 -1.2754 -0.4579
  126OSM    C4F13419   4.991   6.907   3.304  0.1741  0.0894  0.5574
  126OSM    H4F13420   4.988   6.802   3.342 -0.1410  0.0865  0.5299
  126OSM    H4G13421   4.887   6.947   3.297  0.9542  2.5344  1.7941
  126OSM    C5F13422   5.052   6.999   3.409  0.3323  0.7893 -0.5678
  126OSM    H5F13423   5.020   7.103   3.388 -0.3475  0.2992 -2.1026
  126OSM    H5G13424   5.163   6.991   3.404  0.5287 -0.1726  2.8573
  126OSM    C6F13425   5.032   6.959   3.560  0.3076 -0.2646  0.1458
  126OSM    H6F13426   5.129   6.986   3.609  0.1746  3.4245 -1.2846
  126OSM    H6G13427   5.022   6.849   3.565  0.1446 -0.3184 -1.1502
  126OSM    C7F13428   4.914   7.039   3.622 -0.3054 -0.8716  0.0207
  126OSM    H7F13429   4.818   7.027   3.567  0.3692  0.1182 -1.4424
  126OSM    H7G13430   4.948   7.145   3.622  0.0417 -0.9681  1.1992
  126OSM    C8F13431   4.894   6.995   3.771 -0.2892  0.2653 -0.0642
  126OSM    H8F13432   4.993   6.986   3.819  0.1589  1.7605 -0.6310
  126OSM    H8G13433   4.852   6.892   3.767  1.7558 -0.6038 -0.1333
  126OSM    C9F13434   4.815   7.089   3.855 -0.6329 -0.3201 -0.4374
  126OSM    H9F13435   4.709   7.062   3.863 -0.5942 -0.1860  0.7358
  126OSM   C10F13436   4.853   7.203   3.918 -0.7372 -0.1511  0.4701
  126OSM   H10F13437   4.775   7.260   3.971 -0.8074 -0.8094  1.0950
  126OSM   C11F13438   4.994   7.251   3.933 -0.0109  0.1936  0.6177
  126OSM   H11F13439   4.982   7.361   3.925  0.0199  0.0726 -2.4524
  126OSM   H11G13440   5.057   7.235   3.843  1.2568  1.6013  1.2080
  126OSM   C12F13441   5.058   7.203   4.070 -0.1533 -0.0926 -0.0889
  126OSM   H12F13442   5.164   7.235   4.070  0.0268 -0.6539  0.7698
  126OSM   H12G13443   5.062   7.092   4.075 -3.6029 -0.3130  0.4726
  126OSM   C13F13444   4.981   7.251   4.191 -0.8162  0.0380 -0.4191
  126OSM   H13F13445   4.888   7.192   4.204  0.6599 -2.5921 -1.1069
  126OSM   H13G13446   4.945   7.353   4.167  0.0213  1.3436  3.2084
  126OSM   C14F13447   5.059   7.269   4.323 -0.7730  0.0351 -0.4168
  126OSM   H14F13448   5.167   7.295   4.313 -1.1375  2.4717  1.3017
  126OSM   H14G13449   5.054   7.170   4.374  1.3786  0.2892  0.3952
  126OSM   C15F13450   4.997   7.370   4.418  0.0864 -0.1386  0.3974
  126OSM   H15F13451   4.893   7.337   4.435  0.9315 -5.3180 -2.4829
  126OSM   H15G13452   5.004   7.476   4.385 -1.1196 -0.6948 -1.8250
  126OSM   C16F13453   5.066   7.379   4.559  0.5780 -0.1191  0.3197
  126OSM   H16F13454   5.055   7.278   4.605 -1.7809 -0.2143 -0.3091
  126OSM   H16G13455   5.021   7.455   4.625  1.9209  0.4963  0.5622
  126OSM   C17F13456   5.216   7.402   4.547 -0.4141 -0.9322  0.3616
  126OSM   H17F13457   5.239   7.502   4.503  1.3938 -1.4846 -0.0359
  126OSM   H17G13458   5.265   7.323   4.486 -2.6650 -0.9206 -1.5932
  126OSM   C18F13459   5.280   7.415   4.690  0.0888  0.0077  0.6071
  126OSM   H18F13460   5.388   7.437   4.676 -0.2825  1.3136 -0.4721
  126OSM   H18G13461   5.271   7.321   4.748  2.3765  0.3501  1.6261
  126OSM   H18H13462   5.234   7.499   4.748  0.4923 -0.5782  1.8125
  127OSM      N13463   4.728   1.993   2.152 -0.1562 -0.5647 -0.2351
  127OSM    C1513464   4.806   2.105   2.085  0.4074  0.1053 -0.1228
  127OSM   H15A13465   4.757   2.195   2.116 -3.1028 -2.0724  1.2868
  127OSM   H15B13466   4.804   2.105   1.977  2.5053  0.3542 -0.1973
  127OSM   H15C13467   4.910   2.097   2.112  0.2610 -2.0231  0.0109
  127OSM    C1413468   4.750   2.000   2.291  0.3307 -0.8399 -0.4360
  127OSM   H14A13469   4.696   1.922   2.342 -0.2781 -0.2115 -0.0916
  127OSM   H14B13470   4.705   2.085   2.341  2.3154  0.8470 -1.3810
  127OSM   H14C13471   4.854   2.009   2.319 -0.7468 -1.5546  4.9066
  127OSM    C1313472   4.580   2.003   2.125  0.2953  0.8299  0.2017
  127OSM   H13A13473   4.534   2.087   2.175 -1.9714  0.0336 -0.4121
  127OSM   H13B13474   4.526   1.912   2.147 -0.1034  0.9622 -0.2057
  127OSM   H13C13475   4.562   2.021   2.020 -1.9129  0.1471  0.3987
  127OSM    C1213476   4.788   1.865   2.094  0.0801  0.0300 -0.4772
  127OSM   H12A13477   4.788   1.878   1.987  0.6631 -1.3973 -0.6751
  127OSM   H12B13478   4.724   1.784   2.126 -0.1083  0.9524  1.7130
  127OSM    C1113479   4.929   1.809   2.145  0.7850 -0.4464 -1.1434
  127OSM   H11A13480   4.934   1.708   2.099 -0.1854 -0.5091 -1.1306
  127OSM   H11B13481   4.945   1.783   2.252  0.9087 -1.1973 -1.3402
  127OSM      P13482   5.148   1.950   2.172 -0.1419  0.1372 -0.4351
  127OSM    O1313483   5.281   1.932   2.118 -0.1380  0.2316  0.2931
  127OSM    O1413484   5.108   2.087   2.205  0.0779  0.1647 -0.4135
  127OSM    O1113485   5.154   1.861   2.310  0.2673 -0.1377  0.9168
  127OSM    O1213486   5.032   1.882   2.086 -0.2892  0.3945  0.7211
  127OSM    C1S13487   5.202   1.913   2.437  0.2330 -0.1952  0.4127
  127OSM    H1S13488   5.129   1.988   2.475  2.6928  0.9738  3.2791
  127OSM    H1T13489   5.296   1.970   2.419 -0.5155  1.1546  0.6519
  127OSM     NF13490   5.247   1.859   2.667 -0.1951 -0.2921 -0.0315
  127OSM    HNF13491   5.334   1.898   2.696  0.3878 -1.4006 -0.2234
  127OSM    C2S13492   5.240   1.791   2.534  0.0275  0.2712 -0.4481
  127OSM    H2S13493   5.157   1.717   2.540 -0.5128  0.9162  0.4658
  127OSM    C3S13494   5.360   1.721   2.477 -0.6834 -0.2582 -0.4922
  127OSM    H3S13495   5.438   1.796   2.455 -1.2204  0.9389  1.4264
  127OSM     O313496   5.338   1.668   2.348 -0.0421  0.6069 -0.1910
  127OSM    HO313497   5.254   1.706   2.322 -0.8160  1.1155  2.6690
  127OSM    C4S13498   5.416   1.625   2.574 -0.3535 -0.1375 -0.5178
  127OSM    H4S13499   5.364   1.528   2.583  0.5389 -0.9921 -3.5115
  127OSM    C5S13500   5.520   1.653   2.649 -0.4522 -0.1511  0.3560
  127OSM    H5S13501   5.558   1.755   2.641  3.0792 -1.4661 -1.6466
  127OSM    C6S13502   5.573   1.562   2.755 -0.2593 -0.6723  0.3060
  127OSM    H6S13503   5.681   1.542   2.738 -0.2199 -1.9619  1.8183
  127OSM    H6T13504   5.526   1.461   2.750  0.6489 -1.0552 -1.1236
  127OSM    C7S13505   5.556   1.619   2.900  0.4283 -0.2494  0.3892
  127OSM    H7S13506   5.452   1.600   2.932  0.8205 -0.0729  1.8350
  127OSM    H7T13507   5.573   1.729   2.900 -0.0909 -0.1597 -0.9478
  127OSM    C8S13508   5.653   1.550   3.001  0.0147 -0.1155 -0.0150
  127OSM    H8S13509   5.758   1.576   2.974  0.3093 -0.1676  1.0473
  127OSM    H8T13510   5.629   1.443   3.018 -1.6344  0.4127  1.2530
  127OSM    C9S13511   5.640   1.615   3.138 -0.4923  0.7569 -0.0893
  127OSM    H9S13512   5.540   1.585   3.176 -0.1030 -1.0683 -0.3931
  127OSM    H9T13513   5.638   1.725   3.121  1.4995  0.4801 -2.8190
  127OSM   C10S13514   5.753   1.579   3.245  0.4577  0.1855 -0.7775
  127OSM   H10S13515   5.844   1.630   3.209  1.2097  0.3916  1.2594
  127OSM   H10T13516   5.755   1.468   3.255  1.4555  0.2864  0.3245
  127OSM   C11S13517   5.736   1.637   3.383 -0.3014 -0.5729 -0.0213
  127OSM   H11S13518   5.706   1.744   3.376 -1.0776 -0.8366 -0.8020
  127OSM   H11T13519   5.836   1.642   3.431 -0.4598  2.2844  0.2033
  127OSM   C12S13520   5.647   1.544   3.467 -0.4930  0.3618  0.4016
  127OSM   H12S13521   5.696   1.444   3.467  0.1692  0.6736 -0.2507
  127OSM   H12T13522   5.553   1.528   3.411 -1.0955 -1.2674  1.7959
  127OSM   C13S13523   5.615   1.588   3.603  0.0178  0.2236  0.4423
  127OSM   H13S13524   5.709   1.558   3.654  0.2746  1.0326  0.4563
  127OSM   H13T13525   5.536   1.525   3.649 -1.6431  3.1166  1.7604
  127OSM   C14S13526   5.580   1.739   3.620 -0.3400  0.2564  0.2011
  127OSM   H14S13527   5.482   1.745   3.568 -0.1293 -0.8382 -0.3342
  127OSM   H14T13528   5.656   1.798   3.565 -0.5540 -1.7972 -2.4672
  127OSM   C15S13529   5.574   1.794   3.770  0.3244  0.3311 -0.6040
  127OSM   H15S13530   5.676   1.807   3.813  0.5358 -0.2357 -0.9350
  127OSM   H15T13531   5.527   1.715   3.832  0.3376  1.7615  1.3240
  127OSM   C16S13532   5.507   1.932   3.786 -0.5519  0.8799 -0.5785
  127OSM   H16S13533   5.407   1.922   3.738 -1.5122  1.3845  1.2348
  127OSM   H16T13534   5.567   1.998   3.720 -0.0317  0.2423 -0.7552
  127OSM   C17S13535   5.500   1.974   3.936  0.2125  0.4076  0.1229
  127OSM   H17S13536   5.478   2.082   3.947  1.2787  0.4633  2.1794
  127OSM   H17T13537   5.602   1.968   3.980  0.0874  0.7393  0.4591
  127OSM   C18S13538   5.421   1.879   4.030  0.4270 -0.2231  0.3383
  127OSM   H18S13539   5.473   1.781   4.034  0.3386 -0.2606  0.5600
  127OSM   H18T13540   5.313   1.877   4.004  0.7235 -0.8424 -0.9427
  127OSM   H18U13541   5.416   1.919   4.134 -1.1226 -1.0416  0.6125
  127OSM    C1F13542   5.141   1.900   2.746 -0.1532  0.0412  0.1243
  127OSM     OF13543   5.022   1.875   2.716 -0.0792  0.6362 -0.1660
  127OSM    C2F13544   5.169   1.986   2.861 -0.3086  0.5638 -0.4359
  127OSM    H2F13545   5.073   2.035   2.887 -1.1935 -0.2535 -2.0356
  127OSM    H2G13546   5.259   2.048   2.839  1.1354 -0.9418  0.9748
  127OSM    C3F13547   5.194   1.907   2.988 -0.6024  0.6266 -0.4505
  127OSM    H3F13548   5.282   1.843   2.968 -1.0503  0.1858 -1.0770
  127OSM    H3G13549   5.110   1.839   3.014 -1.3000  2.0562  1.2536
  127OSM    C4F13550   5.221   1.999   3.106 -0.6787 -0.1653 -1.1706
  127OSM    H4F13551   5.131   2.063   3.119 -0.0259  0.2111  2.6082
  127OSM    H4G13552   5.301   2.075   3.089  1.1247 -0.9838  2.5045
  127OSM    C5F13553   5.263   1.922   3.224  0.0164  0.2564 -0.0516
  127OSM    H5F13554   5.342   1.847   3.200 -0.3375  0.0019 -0.4360
  127OSM    H5G13555   5.177   1.863   3.262  0.1677  0.5746  0.8136
  127OSM    C6F13556   5.323   2.020   3.326  0.4245  0.2855 -0.1501
  127OSM    H6F13557   5.374   2.103   3.272 -0.1992  1.1645  0.5911
  127OSM    H6G13558   5.409   1.966   3.371 -0.5275 -1.6367 -0.5160
  127OSM    C7F13559   5.211   2.066   3.413  0.3066  0.2277 -0.1559
  127OSM    H7F13560   5.165   1.973   3.452  0.0539  1.2320  2.0717
  127OSM    H7G13561   5.127   2.116   3.359  0.1963 -0.6052 -0.7707
  127OSM    C8F13562   5.259   2.139   3.540  0.3405 -0.1513  0.2975
  127OSM    H8F13563   5.356   2.097   3.574  1.4104 -0.5171 -2.8209
  127OSM    H8G13564   5.181   2.136   3.618 -0.6553  0.3679 -0.6498
  127OSM    C9F13565   5.304   2.276   3.505 -0.2322  0.6793 -0.4703
  127OSM    H9F13566   5.357   2.280   3.408  1.0014  1.9085  0.2154
  127OSM   C10F13567   5.296   2.378   3.590  0.1529 -0.3290  0.3993
  127OSM   H10F13568   5.323   2.478   3.553  0.4180 -0.9706 -1.2538
  127OSM   C11F13569   5.267   2.375   3.742 -0.6865 -0.0732  0.0091
  127OSM   H11F13570   5.215   2.282   3.771 -1.6811  0.4399 -0.0584
  127OSM   H11G13571   5.192   2.450   3.775 -0.4707  1.4284 -2.6183
  127OSM   C12F13572   5.399   2.397   3.831  0.0383  0.0654 -0.1442
  127OSM   H12F13573   5.430   2.501   3.809  0.4061  0.7244  3.0353
  127OSM   H12G13574   5.479   2.332   3.789  0.0031 -0.4971  0.6319
  127OSM   C13F13575   5.370   2.398   3.979 -0.0729 -0.9294 -0.0388
  127OSM   H13F13576   5.317   2.302   4.000  1.2707 -1.5949  0.4728
  127OSM   H13G13577   5.305   2.486   3.997  3.2829  1.1500  3.4008
  127OSM   C14F13578   5.496   2.405   4.065 -0.0272 -0.3746 -0.0034
  127OSM   H14F13579   5.552   2.491   4.020 -1.0388  0.3556  0.0888
  127OSM   H14G13580   5.551   2.310   4.049  1.4868  0.7774 -2.2074
  127OSM   C15F13581   5.473   2.426   4.216  0.4635 -0.1592 -0.0340
  127OSM   H15F13582   5.415   2.516   4.245 -0.7996 -0.9242 -0.1380
  127OSM   H15G13583   5.573   2.434   4.265  0.5184 -2.6884  0.4266
  127OSM   C16F13584   5.401   2.309   4.281 -0.2665 -0.0159 -0.5948
  127OSM   H16F13585   5.310   2.274   4.227 -1.9474  1.7242  0.9615
  127OSM   H16G13586   5.374   2.336   4.385 -1.6138  1.1447 -1.2247
  127OSM   C17F13587   5.489   2.182   4.307  0.0248 -0.1371  1.0986
  127OSM   H17F13588   5.581   2.214   4.361  0.9703  2.9196 -1.9493
  127OSM   H17G13589   5.521   2.144   4.208  2.6197  1.1222  1.3760
  127OSM   C18F13590   5.414   2.067   4.374  0.5059 -0.0677  0.2554
  127OSM   H18F13591   5.380   2.098   4.476  3.6086  0.1700  1.3427
  127OSM   H18G13592   5.480   1.980   4.390  0.1796 -0.1892  0.9952
  127OSM   H18H13593   5.338   2.029   4.303 -0.9884  2.3085  0.4553
  128OSM      N13594   4.600   0.910   1.837  0.1595 -0.0272 -0.4518
  128OSM    C1513595   4.735   0.972   1.873  0.0462 -0.3172 -0.1960
  128OSM   H15A13596   4.734   0.999   1.978 -0.9275  0.7862 -0.4751
  128OSM   H15B13597   4.747   1.060   1.812 -1.1615  1.0737  1.4570
  128OSM   H15C13598   4.817   0.905   1.853 -0.5525 -0.7740 -1.1707
  128OSM    C1413599   4.499   1.021   1.841  0.2263  0.4608 -0.9147
  128OSM   H14A13600   4.515   1.099   1.769 -2.6708  1.1103 -0.9682
  128OSM   H14B13601   4.503   1.062   1.941  0.3938  0.3098 -0.8567
  128OSM   H14C13602   4.399   0.980   1.838  0.5778 -0.4786 -0.4922
  128OSM    C1313603   4.598   0.849   1.700  0.2840  0.2933  0.6600
  128OSM   H13A13604   4.657   0.902   1.627 -1.3624  0.1287 -0.8857
  128OSM   H13B13605   4.497   0.832   1.666  0.7026 -0.9088 -0.0650
  128OSM   H13C13606   4.649   0.754   1.706 -2.5617 -1.3306  0.8970
  128OSM    C1213607   4.554   0.798   1.936  0.1609 -0.4067  0.0988
  128OSM   H12A13608   4.631   0.723   1.928  0.1802 -0.2509 -1.6180
  128OSM   H12B13609   4.470   0.744   1.895  1.0747 -2.2111  0.5037
  128OSM    C1113610   4.524   0.838   2.078 -1.0793  0.5890 -0.4779
  128OSM   H11A13611   4.511   0.747   2.140  1.0205  2.0186  2.2445
  128OSM   H11B13612   4.424   0.887   2.079 -1.2829  0.1689  0.9578
  128OSM      P13613   4.597   1.047   2.222 -0.0875 -0.3396 -0.4866
  128OSM    O1313614   4.701   1.056   2.329 -0.2429 -0.3222  0.1064
  128OSM    O1413615   4.566   1.169   2.143  0.1572  0.7696 -0.5547
  128OSM    O1113616   4.462   1.008   2.292  0.1675 -0.1320 -0.0067
  128OSM    O1213617   4.630   0.925   2.132  0.1317  0.1791 -0.2994
  128OSM    C1S13618   4.453   1.008   2.437 -0.0755  0.0645  0.1873
  128OSM    H1S13619   4.553   0.992   2.482  1.0622 -0.1450 -2.2692
  128OSM    H1T13620   4.371   0.936   2.457 -0.3965  0.2083 -0.5728
  128OSM     NF13621   4.368   1.108   2.638 -0.4884 -0.1490  0.3742
  128OSM    HNF13622   4.275   1.091   2.668 -0.0960 -1.7356  0.7878
  128OSM    C2S13623   4.386   1.138   2.499 -0.3348 -0.3794  0.3748
  128OSM    H2S13624   4.469   1.211   2.492 -2.2479  1.8355 -0.3341
  128OSM    C3S13625   4.266   1.192   2.431  0.4965 -0.5278  0.1455
  128OSM    H3S13626   4.196   1.114   2.394 -0.3626  0.3522 -0.1311
  128OSM     O313627   4.296   1.258   2.312  0.6610 -0.2131  0.6905
  128OSM    HO313628   4.391   1.251   2.302  0.6386  0.8065 -0.6547
  128OSM    C4S13629   4.176   1.287   2.517  0.8304 -0.1925 -0.0239
  128OSM    H4S13630   4.223   1.383   2.544 -0.0124  1.4257 -3.6213
  128OSM    C5S13631   4.041   1.270   2.529 -0.4108 -0.7169 -0.4434
  128OSM    H5S13632   3.982   1.187   2.487 -1.4417 -1.9080  2.9526
  128OSM    C6S13633   3.947   1.364   2.595 -0.0928 -0.7497 -0.0873
  128OSM    H6S13634   3.890   1.318   2.678  0.3531 -0.0250  0.6386
  128OSM    H6T13635   3.874   1.391   2.515 -0.7171  1.6283  1.1957
  128OSM    C7S13636   4.007   1.496   2.651  1.2417  0.4718  0.8150
  128OSM    H7S13637   3.927   1.570   2.673  1.8347  0.3453  3.7351
  128OSM    H7T13638   4.081   1.542   2.582  0.4863 -2.5578 -2.3044
  128OSM    C8S13639   4.072   1.474   2.793 -0.0299 -0.4019 -0.3121
  128OSM    H8S13640   4.161   1.410   2.777  0.3192  0.1236 -0.4779
  128OSM    H8T13641   4.008   1.401   2.848  1.9155 -2.2903 -0.4236
  128OSM    C9S13642   4.103   1.594   2.884  0.3682 -0.3266  0.8320
  128OSM    H9S13643   4.043   1.679   2.846 -1.4447 -0.4541  3.1828
  128OSM    H9T13644   4.210   1.621   2.865  0.2657 -0.2906  0.2901
  128OSM   C10S13645   4.075   1.579   3.029 -0.8020 -0.6142 -0.0725
  128OSM   H10S13646   4.129   1.493   3.073 -0.5058 -0.3896  0.0058
  128OSM   H10T13647   3.969   1.559   3.056 -0.0244 -1.1340  2.9195
  128OSM   C11S13648   4.129   1.700   3.099  0.1584 -0.5162 -1.0534
  128OSM   H11S13649   4.076   1.795   3.075 -0.4244 -0.6410 -0.3154
  128OSM   H11T13650   4.237   1.713   3.079  0.7575 -1.3854  1.3759
  128OSM   C12S13651   4.117   1.687   3.256  0.3869  0.3759  0.4380
  128OSM   H12S13652   4.205   1.627   3.286 -0.0070 -0.9557 -0.9137
  128OSM   H12T13653   4.018   1.643   3.281  1.1152 -0.8928  1.2059
  128OSM   C13S13654   4.141   1.817   3.334  0.0431 -0.0460 -0.7658
  128OSM   H13S13655   4.063   1.892   3.308 -1.9629 -0.8982  2.3079
  128OSM   H13T13656   4.235   1.873   3.312  1.1014 -0.3015  2.5810
  128OSM   C14S13657   4.137   1.800   3.487 -0.7172  0.1798 -0.7303
  128OSM   H14S13658   4.215   1.735   3.532 -0.7919  0.8499  0.4196
  128OSM   H14T13659   4.042   1.749   3.517 -0.2637  0.0768  0.5975
  128OSM   C15S13660   4.153   1.936   3.553 -0.6058  0.5974 -0.5883
  128OSM   H15S13661   4.112   1.936   3.656  0.9022 -0.8063  0.0533
  128OSM   H15T13662   4.084   1.999   3.493 -0.9312  0.4892 -0.3324
  128OSM   C16S13663   4.290   1.993   3.557 -0.5478 -0.6800 -0.0309
  128OSM   H16S13664   4.339   2.001   3.457 -1.6936 -0.3556 -0.5818
  128OSM   H16T13665   4.359   1.930   3.616 -1.9652 -0.6175  1.7768
  128OSM   C17S13666   4.296   2.137   3.611  0.1510 -0.5731  0.5567
  128OSM   H17S13667   4.218   2.195   3.557 -1.6721 -1.7953  1.7472
  128OSM   H17T13668   4.398   2.178   3.595 -0.1329  0.1814  0.6613
  128OSM   C18S13669   4.273   2.141   3.759 -0.6695 -0.6661  0.9472
  128OSM   H18S13670   4.339   2.062   3.801  0.3580 -1.9439 -2.6916
  128OSM   H18T13671   4.169   2.113   3.785 -0.9204 -1.6215 -0.9158
  128OSM   H18U13672   4.311   2.232   3.809 -0.4018 -0.2169 -0.0419
  128OSM    C1F13673   4.466   1.087   2.723 -0.5336  0.5354 -0.3303
  128OSM     OF13674   4.585   1.109   2.694 -0.0098 -0.3069  0.1150
  128OSM    C2F13675   4.422   1.023   2.854 -0.4748  0.4184 -0.3293
  128OSM    H2F13676   4.381   0.925   2.822 -0.9108  1.0471 -1.8118
  128OSM    H2G13677   4.337   1.073   2.907 -0.4947 -2.8378  3.1409
  128OSM    C3F13678   4.535   0.993   2.953 -0.7594 -0.2765  0.3338
  128OSM    H3F13679   4.584   1.091   2.977 -0.3761  0.0010 -1.4481
  128OSM    H3G13680   4.623   0.939   2.912 -0.2142 -0.1253  1.2743
  128OSM    C4F13681   4.492   0.930   3.081 -0.1369 -0.2615 -0.2685
  128OSM    H4F13682   4.466   0.822   3.080  0.1511 -0.3604  1.1375
  128OSM    H4G13683   4.415   0.977   3.144  1.6761  1.9032  0.4752
  128OSM    C5F13684   4.615   0.931   3.176  0.4831  0.0515 -1.1874
  128OSM    H5F13685   4.655   1.034   3.183 -0.1693  0.2556 -0.3827
  128OSM    H5G13686   4.695   0.864   3.136  1.2504 -0.0131  0.3952
  128OSM    C6F13687   4.577   0.877   3.321 -0.4319 -0.3063 -0.2086
  128OSM    H6F13688   4.517   0.783   3.321 -2.1599  0.7348  1.0326
  128OSM    H6G13689   4.506   0.948   3.369 -0.8916 -0.8178 -0.1154
  128OSM    C7F13690   4.705   0.861   3.404  0.2205 -0.2382  0.1976
  128OSM    H7F13691   4.761   0.957   3.401 -0.7397  0.3748  1.4065
  128OSM    H7G13692   4.783   0.800   3.353  0.8983  1.1974 -0.5504
  128OSM    C8F13693   4.689   0.808   3.541 -0.2905 -0.1459 -0.6357
  128OSM    H8F13694   4.651   0.703   3.537 -0.7693  0.0033 -0.1778
  128OSM    H8G13695   4.607   0.867   3.586  0.0053 -2.2257  3.0343
  128OSM    C9F13696   4.812   0.818   3.628  0.6752 -0.0027 -0.3675
  128OSM    H9F13697   4.904   0.830   3.569 -0.1984 -4.7168 -3.1810
  128OSM   C10F13698   4.804   0.846   3.762  0.6410 -1.2842  0.8037
  128OSM   H10F13699   4.896   0.863   3.821  0.5240  1.0505  0.4251
  128OSM   C11F13700   4.682   0.831   3.855  0.4061  0.3447 -0.1220
  128OSM   H11F13701   4.589   0.806   3.799  0.5676 -0.1126 -0.1901
  128OSM   H11G13702   4.663   0.935   3.890 -0.8258  1.4916 -3.7123
  128OSM   C12F13703   4.695   0.739   3.975 -0.1361  0.1582  0.3559
  128OSM   H12F13704   4.773   0.757   4.051 -0.4102 -2.6387  1.4070
  128OSM   H12G13705   4.698   0.634   3.939 -2.3543  0.7154 -1.7699
  128OSM   C13F13706   4.565   0.743   4.053 -0.0365  0.0822  0.1759
  128OSM   H13F13707   4.479   0.727   3.986 -0.8872  5.4499 -0.5188
  128OSM   H13G13708   4.551   0.846   4.093 -0.2553 -0.0353  0.4062
  128OSM   C14F13709   4.553   0.651   4.175  0.2258  0.3780  0.6331
  128OSM   H14F13710   4.619   0.690   4.256  0.6497 -0.6202  0.7892
  128OSM   H14G13711   4.593   0.553   4.142 -0.6908  0.5332 -0.9976
  128OSM   C15F13712   4.409   0.638   4.221  0.3543 -0.3313 -0.3878
  128OSM   H15F13713   4.410   0.552   4.291 -0.4334  1.3544  1.7935
  128OSM   H15G13714   4.354   0.623   4.125  1.3666 -2.4442 -0.7004
  128OSM   C16F13715   4.350   0.762   4.301 -0.1644  0.0264  0.2097
  128OSM   H16F13716   4.360   0.850   4.233 -1.0602 -0.2130 -0.2550
  128OSM   H16G13717   4.431   0.770   4.376 -1.0188 -1.3469  1.3307
  128OSM   C17F13718   4.215   0.749   4.370 -0.2435  0.0111  0.3521
  128OSM   H17F13719   4.228   0.755   4.481  1.3056 -1.5392  0.3089
  128OSM   H17G13720   4.167   0.649   4.358  0.9171 -0.4797 -0.3836
  128OSM   C18F13721   4.118   0.858   4.321  0.3316  0.1963 -0.4138
  128OSM   H18F13722   4.096   0.858   4.212 -0.4113 -0.5643 -0.2731
  128OSM   H18G13723   4.171   0.955   4.333  0.6260 -0.0844  0.7170
  128OSM   H18H13724   4.020   0.851   4.373 -0.6376  2.1360 -1.8312
  129OSM      N13725   4.759   4.681   1.859  0.4093  0.6409  0.9726
  129OSM    C1513726   4.718   4.825   1.824  0.7131 -0.2002 -0.9787
  129OSM   H15A13727   4.610   4.832   1.825  0.6311 -1.3046  1.0764
  129OSM   H15B13728   4.756   4.849   1.725  3.9246  2.5454  0.7099
  129OSM   H15C13729   4.753   4.898   1.896 -2.0578 -1.8214  2.2399
  129OSM    C1413730   4.706   4.577   1.759  0.0998  0.6732  0.2901
  129OSM   H14A13731   4.601   4.561   1.778  0.6650 -1.6069  1.9257
  129OSM   H14B13732   4.757   4.483   1.774 -1.0497 -0.1676 -0.8284
  129OSM   H14C13733   4.709   4.613   1.657 -1.1409 -1.0899 -0.4322
  129OSM    C1313734   4.908   4.679   1.843  0.5752  0.4195 -0.1391
  129OSM   H13A13735   4.962   4.590   1.871 -0.0391  0.0617 -0.0665
  129OSM   H13B13736   4.943   4.764   1.900 -2.2912  1.8053 -0.2705
  129OSM   H13C13737   4.936   4.682   1.739  0.3367 -0.4795 -0.2408
  129OSM    C1213738   4.704   4.633   1.998  0.1006  0.2779  0.5362
  129OSM   H12A13739   4.739   4.532   2.013 -1.5797 -0.2703  1.0865
  129OSM   H12B13740   4.598   4.626   1.977  0.5991 -1.3819 -1.8494
  129OSM    C1113741   4.738   4.706   2.130 -0.4004  0.1073  0.4910
  129OSM   H11A13742   4.846   4.686   2.147 -0.7296 -2.1772  0.2290
  129OSM   H11B13743   4.670   4.650   2.198 -0.0525 -2.7522 -1.3392
  129OSM      P13744   4.563   4.907   2.178 -0.1843 -0.2607  0.1442
  129OSM    O1313745   4.586   5.048   2.214  0.5888 -0.3447 -0.5588
  129OSM    O1413746   4.456   4.866   2.077 -0.3869  0.1085 -0.3568
  129OSM    O1113747   4.544   4.816   2.307 -0.0269  0.0931 -0.5014
  129OSM    O1213748   4.707   4.854   2.123  0.1281 -0.1741  0.1980
  129OSM    C1S13749   4.613   4.833   2.426  0.5195  0.3159  0.3489
  129OSM    H1S13750   4.714   4.874   2.403  0.1841  1.0914  0.2118
  129OSM    H1T13751   4.639   4.731   2.461  0.3167 -0.1495 -0.8283
  129OSM     NF13752   4.624   4.950   2.647  0.6305  0.2522 -1.1283
  129OSM    HNF13753   4.586   4.939   2.738 -3.0634  0.0958 -2.5358
  129OSM    C2S13754   4.539   4.919   2.537 -0.0351  0.3895 -0.1002
  129OSM    H2S13755   4.520   5.015   2.485 -1.4179  0.4408  0.4630
  129OSM    C3S13756   4.397   4.874   2.575 -1.3648  0.7913  0.6646
  129OSM    H3S13757   4.415   4.780   2.632  1.5312  0.1334 -1.1238
  129OSM     O313758   4.322   4.843   2.462  0.3887 -0.7838 -1.1331
  129OSM    HO313759   4.387   4.834   2.391 -1.6593  0.7613 -3.3303
  129OSM    C4S13760   4.328   4.958   2.678  0.3360  0.4313 -0.4374
  129OSM    H4S13761   4.378   4.947   2.775  1.1098  1.3348 -0.7165
  129OSM    C5S13762   4.224   5.045   2.667  0.1321  0.1722  0.8041
  129OSM    H5S13763   4.174   5.064   2.571  0.5077  3.4488  1.1393
  129OSM    C6S13764   4.177   5.139   2.771 -0.0935 -0.0170  0.6583
  129OSM    H6S13765   4.071   5.113   2.791 -0.0463 -0.7587  0.0038
  129OSM    H6T13766   4.183   5.241   2.726 -1.3092 -1.2128 -2.4937
  129OSM    C7S13767   4.240   5.154   2.908 -0.3779  0.2943  0.2620
  129OSM    H7S13768   4.333   5.214   2.898 -1.6723  2.2562 -0.8262
  129OSM    H7T13769   4.264   5.055   2.952 -0.4265  0.2007  0.0793
  129OSM    C8S13770   4.144   5.235   2.991 -0.3567 -0.0403  1.0654
  129OSM    H8S13771   4.055   5.168   2.995  0.2180 -0.8036  1.0757
  129OSM    H8T13772   4.108   5.318   2.925  1.1469  0.1951  0.5177
  129OSM    C9S13773   4.193   5.287   3.124 -1.5394  0.4419  0.0835
  129OSM    H9S13774   4.143   5.385   3.136 -2.5373 -0.0681  0.1715
  129OSM    H9T13775   4.301   5.315   3.124 -1.1968 -0.8407  0.0924
  129OSM   C10S13776   4.168   5.202   3.246  0.1013  1.0527 -0.4830
  129OSM   H10S13777   4.234   5.113   3.245 -1.4120 -0.1367  0.8425
  129OSM   H10T13778   4.065   5.161   3.253  0.5247 -0.4712 -2.2378
  129OSM   C11S13779   4.191   5.282   3.373 -0.6638 -0.8616 -0.1126
  129OSM   H11S13780   4.122   5.368   3.375  2.8982  2.2246 -0.2105
  129OSM   H11T13781   4.295   5.320   3.362 -0.6288 -1.2292 -1.1836
  129OSM   C12S13782   4.190   5.206   3.507  0.2521  0.5273 -0.2523
  129OSM   H12S13783   4.098   5.145   3.499  0.4773  0.3888 -2.8382
  129OSM   H12T13784   4.193   5.269   3.598 -0.5554  0.9657 -0.5164
  129OSM   C13S13785   4.301   5.109   3.521  0.4035 -0.2203  0.1592
  129OSM   H13S13786   4.390   5.167   3.490 -1.0283  1.7001 -0.5027
  129OSM   H13T13787   4.296   5.029   3.444  1.0313  0.2353 -0.3665
  129OSM   C14S13788   4.305   5.042   3.658  0.2558  0.0672 -0.7368
  129OSM   H14S13789   4.203   5.035   3.700  0.0517  0.9328 -1.0655
  129OSM   H14T13790   4.361   5.104   3.731  0.2583  0.8841 -1.4144
  129OSM   C15S13791   4.375   4.906   3.653  0.2229 -0.0668  0.1794
  129OSM   H15S13792   4.473   4.920   3.603  0.9161 -0.9113  1.2520
  129OSM   H15T13793   4.307   4.831   3.606 -1.8175  1.6313  0.2416
  129OSM   C16S13794   4.401   4.857   3.791 -0.0718  0.5431 -0.2462
  129OSM   H16S13795   4.309   4.871   3.851 -0.6541  0.0074 -1.0017
  129OSM   H16T13796   4.475   4.920   3.846 -0.9075 -0.3098  2.0021
  129OSM   C17S13797   4.448   4.716   3.805  0.2716  0.3715  0.2015
  129OSM   H17S13798   4.545   4.701   3.752 -0.0262  0.5208 -0.3964
  129OSM   H17T13799   4.375   4.650   3.752 -1.2663  1.2574  1.1536
  129OSM   C18S13800   4.444   4.667   3.947  0.0859  0.2235 -0.3501
  129OSM   H18S13801   4.537   4.693   4.004 -1.8706  0.0244  3.2149
  129OSM   H18T13802   4.433   4.557   3.957 -1.2490  0.3909  0.1476
  129OSM   H18U13803   4.359   4.711   4.004  0.8108 -0.3183  1.2234
  129OSM    C1F13804   4.721   5.034   2.627 -0.2069 -0.2246  0.2573
  129OSM     OF13805   4.754   5.070   2.516  0.2531 -0.2773 -0.5021
  129OSM    C2F13806   4.783   5.099   2.750 -0.1435  0.0323  0.7883
  129OSM    H2F13807   4.845   5.186   2.720 -0.3603  1.0602  3.0632
  129OSM    H2G13808   4.854   5.018   2.779 -0.8911 -1.8513 -2.2020
  129OSM    C3F13809   4.688   5.138   2.860  0.2408  0.1094  0.5527
  129OSM    H3F13810   4.610   5.066   2.889 -0.2991  0.8385  0.9366
  129OSM    H3G13811   4.632   5.224   2.817  2.0312  1.1526  0.1798
  129OSM    C4F13812   4.752   5.201   2.986  0.2547 -0.3855 -0.3351
  129OSM    H4F13813   4.827   5.277   2.956 -2.7356  1.8327 -2.8923
  129OSM    H4G13814   4.801   5.117   3.041  0.0431  0.9822  2.0966
  129OSM    C5F13815   4.647   5.276   3.074  0.4642 -0.0569  0.3544
  129OSM    H5F13816   4.571   5.196   3.087 -0.5312  0.8602  0.3339
  129OSM    H5G13817   4.610   5.371   3.030 -1.3969 -0.6132  0.6079
  129OSM    C6F13818   4.710   5.309   3.210  0.7024  0.4584 -0.4809
  129OSM    H6F13819   4.810   5.354   3.190  0.5042  0.6707 -1.0034
  129OSM    H6G13820   4.733   5.219   3.272 -0.2743  0.4753 -0.0790
  129OSM    C7F13821   4.635   5.425   3.281 -0.0941 -0.0918 -0.0207
  129OSM    H7F13822   4.529   5.400   3.303 -0.7621  2.5836  0.1229
  129OSM    H7G13823   4.644   5.515   3.217  0.4702  0.7792  1.2622
  129OSM    C8F13824   4.701   5.460   3.411  0.0729  0.4712 -0.5937
  129OSM    H8F13825   4.645   5.543   3.459 -1.8563 -1.2805  0.3652
  129OSM    H8G13826   4.801   5.507   3.402  0.7365 -0.4402  1.3456
  129OSM    C9F13827   4.705   5.346   3.510  0.5041 -0.2106  0.5074
  129OSM    H9F13828   4.774   5.266   3.477  1.2346  0.6405 -0.0548
  129OSM   C10F13829   4.631   5.325   3.623 -0.0077  0.2129  0.4613
  129OSM   H10F13830   4.640   5.230   3.678  1.7017 -0.2525 -0.5431
  129OSM   C11F13831   4.538   5.421   3.689  0.1768  0.7339  1.0362
  129OSM   H11F13832   4.435   5.380   3.684 -0.0025  1.3502 -1.1393
  129OSM   H11G13833   4.538   5.526   3.654 -0.0684  0.0594 -1.1547
  129OSM   C12F13834   4.583   5.432   3.837  0.4175  0.1582 -0.3450
  129OSM   H12F13835   4.569   5.337   3.892 -2.1769 -0.5670 -2.0775
  129OSM   H12G13836   4.510   5.499   3.887 -1.9268 -2.5500  0.0827
  129OSM   C13F13837   4.726   5.488   3.868  0.0426 -0.5518 -0.0780
  129OSM   H13F13838   4.729   5.593   3.832  1.0319 -0.4877  0.1594
  129OSM   H13G13839   4.798   5.437   3.800  1.4752  0.5063  0.6085
  129OSM   C14F13840   4.778   5.472   4.006 -0.1842 -0.5643  0.3779
  129OSM   H14F13841   4.800   5.363   4.020  0.7055 -0.6776 -1.5639
  129OSM   H14G13842   4.712   5.510   4.086  1.6801  1.0953  1.2227
  129OSM   C15F13843   4.918   5.544   4.019 -0.0306 -0.0101 -0.0028
  129OSM   H15F13844   4.896   5.653   4.020 -0.9861 -0.1877  1.3940
  129OSM   H15G13845   4.987   5.502   3.942 -1.2700 -0.0024 -1.1630
  129OSM   C16F13846   4.985   5.531   4.157  0.4516  1.4105 -0.4216
  129OSM   H16F13847   5.088   5.574   4.161  1.1281 -0.2236  1.2829
  129OSM   H16G13848   4.996   5.423   4.182 -0.9967  0.8345 -2.0809
  129OSM   C17F13849   4.894   5.587   4.270 -1.5318  0.7357 -0.0827
  129OSM   H17F13850   4.798   5.534   4.286 -1.8635  1.6599  1.2446
  129OSM   H17G13851   4.870   5.690   4.236 -0.1688  0.8998 -0.5980
  129OSM   C18F13852   4.975   5.616   4.397 -0.2173 -0.5097 -0.5269
  129OSM   H18F13853   5.026   5.526   4.435 -1.3636 -0.5590  0.9894
  129OSM   H18G13854   4.896   5.649   4.468  0.1907  0.5276 -0.5315
  129OSM   H18H13855   5.054   5.694   4.388  0.7516 -1.6153 -1.8703
  130OSM      N13856   0.311   2.341   1.667  0.3817  0.8329 -0.0938
  130OSM    C1513857   0.357   2.393   1.534 -0.4276 -0.2322  0.0154
  130OSM   H15A13858   0.423   2.321   1.488 -0.3298  1.3194 -2.4605
  130OSM   H15B13859   0.410   2.487   1.536  2.0523 -1.5197 -0.6857
  130OSM   H15C13860   0.270   2.400   1.471 -0.4850  2.9215  0.2915
  130OSM    C1413861   0.180   2.404   1.704 -0.1451  0.0028  0.4141
  130OSM   H14A13862   0.203   2.507   1.727  1.9419 -0.5518  1.0349
  130OSM   H14B13863   0.153   2.360   1.798  0.5874 -0.3218  0.4767
  130OSM   H14C13864   0.097   2.390   1.636  1.4451  0.9104 -1.8330
  130OSM    C1313865   0.303   2.191   1.661  0.2443 -0.1830  0.9104
  130OSM   H13A13866   0.400   2.149   1.639  0.0878 -0.0747 -0.0137
  130OSM   H13B13867   0.234   2.174   1.580  0.1918 -0.8542  1.0878
  130OSM   H13C13868   0.258   2.153   1.752 -3.6122  2.5333  0.3786
  130OSM    C1213869   0.409   2.380   1.777  0.7298  0.1221  0.0263
  130OSM   H12A13870   0.442   2.482   1.768 -1.0789  0.8352  0.8643
  130OSM   H12B13871   0.502   2.328   1.761  0.6305 -0.2310  0.5762
  130OSM    C1113872   0.375   2.366   1.931 -0.2670 -0.4676  0.5224
  130OSM   H11A13873   0.295   2.442   1.944 -0.1596 -0.2140 -0.2503
  130OSM   H11B13874   0.459   2.398   1.996 -0.5276 -0.5553  0.9031
  130OSM      P13875   0.411   2.119   1.994  0.0065 -0.2020  0.2472
  130OSM    O1313876   0.380   2.002   1.908 -0.1918 -0.7383  0.2379
  130OSM    O1413877   0.551   2.160   2.004 -0.3066 -0.5717  0.4317
  130OSM    O1113878   0.351   2.075   2.139  0.1044  0.3213  0.1206
  130OSM    O1213879   0.323   2.241   1.959 -0.5528 -0.1780  0.1839
  130OSM    C1S13880   0.218   2.097   2.173 -0.0151  0.5905 -0.5833
  130OSM    H1S13881   0.150   2.031   2.117  1.3067 -1.4309  0.0741
  130OSM    H1T13882   0.188   2.204   2.167 -1.2492  0.2795 -0.2331
  130OSM     NF13883   0.055   2.066   2.357  0.5568 -0.6754  0.3311
  130OSM    HNF13884   0.006   2.140   2.404 -2.7340 -0.5476 -2.8299
  130OSM    C2S13885   0.195   2.078   2.331  0.8118  0.3855  0.1031
  130OSM    H2S13886   0.247   1.981   2.349 -1.9238 -1.2869 -0.4966
  130OSM    C3S13887   0.261   2.191   2.423 -0.6623  0.9306  0.3171
  130OSM    H3S13888   0.188   2.276   2.427 -1.6182  0.1117  0.6070
  130OSM     O313889   0.391   2.235   2.378 -0.2866  0.2909  0.0613
  130OSM    HO313890   0.397   2.189   2.294  0.2085 -0.9022  0.7314
  130OSM    C4S13891   0.267   2.155   2.571 -0.6368 -0.0869 -0.0909
  130OSM    H4S13892   0.175   2.193   2.617 -0.9735 -1.6607  0.5931
  130OSM    C5S13893   0.364   2.098   2.645 -0.3128  0.7810  0.0838
  130OSM    H5S13894   0.464   2.079   2.603 -0.2961 -1.2673  0.9173
  130OSM    C6S13895   0.370   2.076   2.791 -0.1448  0.2268 -1.0881
  130OSM    H6S13896   0.464   2.125   2.826 -0.1201 -1.1736  1.0037
  130OSM    H6T13897   0.376   1.966   2.802 -0.9026  0.2423 -0.4036
  130OSM    C7S13898   0.264   2.145   2.887 -0.7092 -0.2890 -0.2111
  130OSM    H7S13899   0.166   2.094   2.884 -1.0198  0.3315 -2.5160
  130OSM    H7T13900   0.254   2.251   2.856 -0.4793 -0.2123 -0.0254
  130OSM    C8S13901   0.301   2.140   3.030  0.3413  0.1370  0.0434
  130OSM    H8S13902   0.391   2.204   3.038  0.2386  0.1339  1.4334
  130OSM    H8T13903   0.319   2.033   3.053 -0.9349 -0.5234 -1.7869
  130OSM    C9S13904   0.196   2.208   3.119 -0.3195  0.5750  0.1805
  130OSM    H9S13905   0.092   2.168   3.116 -0.0711 -0.0337 -1.5961
  130OSM    H9T13906   0.201   2.312   3.081  0.6460 -0.7610 -3.8545
  130OSM   C10S13907   0.249   2.218   3.263 -0.0448 -0.2392 -0.5171
  130OSM   H10S13908   0.162   2.264   3.315  0.0660  0.1875 -0.7038
  130OSM   H10T13909   0.326   2.297   3.271 -2.8198  2.7698 -1.1078
  130OSM   C11S13910   0.272   2.086   3.334  0.2291  0.4768 -0.1229
  130OSM   H11S13911   0.377   2.049   3.332  0.0067 -0.1381 -0.4916
  130OSM   H11T13912   0.214   2.005   3.285  2.2055 -0.5631 -0.8230
  130OSM   C12S13913   0.236   2.099   3.484 -0.5138  0.1135 -0.9672
  130OSM   H12S13914   0.287   2.013   3.532 -1.5349 -0.2969 -0.5973
  130OSM   H12T13915   0.132   2.071   3.508  0.1069 -1.4961 -0.0477
  130OSM   C13S13916   0.266   2.235   3.555 -0.6294  0.3743 -0.0902
  130OSM   H13S13917   0.176   2.299   3.550 -0.9228 -0.0195  0.1074
  130OSM   H13T13918   0.344   2.296   3.503  0.1633 -1.1379 -0.7417
  130OSM   C14S13919   0.308   2.226   3.706  0.0573 -0.3526 -0.3209
  130OSM   H14S13920   0.391   2.298   3.720  1.1491 -1.3793 -1.3041
  130OSM   H14T13921   0.357   2.127   3.718 -0.0648 -0.9917 -3.8903
  130OSM   C15S13922   0.198   2.244   3.814  1.0218  0.1271  0.6820
  130OSM   H15S13923   0.117   2.171   3.790  1.5924 -0.2577 -0.1097
  130OSM   H15T13924   0.153   2.345   3.800 -2.1155 -1.0322  1.4454
  130OSM   C16S13925   0.243   2.224   3.963  0.5649  0.5012  0.8476
  130OSM   H16S13926   0.257   2.115   3.976 -0.4192  0.3965  1.0845
  130OSM   H16T13927   0.148   2.243   4.018 -0.2072  0.8482 -0.5379
  130OSM   C17S13928   0.361   2.302   4.012 -0.5820 -0.9779  0.5014
  130OSM   H17S13929   0.343   2.407   3.982  1.9251 -0.4432  0.6253
  130OSM   H17T13930   0.458   2.278   3.962 -0.3139  1.8863 -0.5473
  130OSM   C18S13931   0.374   2.289   4.165  0.9480 -0.2382  0.3465
  130OSM   H18S13932   0.269   2.291   4.200  1.4956 -0.9572  2.0987
  130OSM   H18T13933   0.432   2.375   4.206  0.2190  1.4760 -1.9868
  130OSM   H18U13934   0.408   2.187   4.191  0.2153 -0.9429 -1.2846
  130OSM    C1F13935  -0.022   1.963   2.307 -0.2096 -0.5380  0.0265
  130OSM     OF13936   0.028   1.860   2.267 -0.0154 -0.0115 -0.6615
  130OSM    C2F13937  -0.174   1.973   2.305 -0.0448  0.1489 -0.1857
  130OSM    H2F13938  -0.211   1.870   2.284 -2.0614  0.8530 -0.2927
  130OSM    H2G13939  -0.202   2.043   2.223 -1.1439  3.6181  2.8854
  130OSM    C3F13940  -0.228   2.020   2.445 -0.6905 -0.4286  0.9370
  130OSM    H3F13941  -0.338   2.010   2.439 -0.5898 -1.2309  0.1503
  130OSM    H3G13942  -0.203   2.128   2.455 -0.0159 -0.3939 -0.6400
  130OSM    C4F13943  -0.181   1.955   2.570 -0.3680 -0.0367 -0.0361
  130OSM    H4F13944  -0.216   2.024   2.650 -1.2528  0.8529 -1.1501
  130OSM    H4G13945  -0.071   1.935   2.572 -0.4190 -0.6590 -1.6378
  130OSM    C5F13946  -0.248   1.827   2.596  0.1238  0.5368  0.2538
  130OSM    H5F13947  -0.227   1.769   2.503 -1.0152  1.2245 -0.4607
  130OSM    H5G13948  -0.358   1.827   2.613  0.2849 -1.6366  1.5365
  130OSM    C6F13949  -0.189   1.756   2.723  0.1311 -0.4202 -0.5164
  130OSM    H6F13950  -0.080   1.747   2.705  0.7929 -0.5323  2.7893
  130OSM    H6G13951  -0.237   1.660   2.752  1.6352 -0.9747  0.2552
  130OSM    C7F13952  -0.207   1.833   2.852  0.2068  0.5055  0.0460
  130OSM    H7F13953  -0.316   1.834   2.875  0.3465  0.9282  0.7100
  130OSM    H7G13954  -0.164   1.933   2.828 -1.2609  1.1017 -0.1959
  130OSM    C8F13955  -0.123   1.776   2.962 -0.0709  0.4618  0.3707
  130OSM    H8F13956  -0.025   1.741   2.922 -0.4287  1.5614 -1.6038
  130OSM    H8G13957  -0.174   1.684   2.997  0.6743 -0.6354 -1.2985
  130OSM    C9F13958  -0.079   1.879   3.058 -0.3758 -0.1445  0.5688
  130OSM    H9F13959   0.010   1.928   3.017 -0.4430 -0.3045  0.2273
  130OSM   C10F13960  -0.113   1.894   3.187 -0.4670  0.4125  0.2029
  130OSM   H10F13961  -0.069   1.973   3.250 -0.7086  0.0066  0.8816
  130OSM   C11F13962  -0.216   1.814   3.259  0.1558  0.0158 -0.3306
  130OSM   H11F13963  -0.275   1.742   3.198 -0.7166 -0.5710  1.1564
  130OSM   H11G13964  -0.301   1.867   3.307 -0.5272  0.6868 -2.1919
  130OSM   C12F13965  -0.146   1.723   3.369 -0.1316 -0.1984  0.2851
  130OSM   H12F13966  -0.055   1.685   3.319  1.0188  2.2207  0.4059
  130OSM   H12G13967  -0.209   1.640   3.409 -1.1007  0.5466  0.3254
  130OSM   C13F13968  -0.088   1.790   3.496  0.0184 -0.2885 -0.0093
  130OSM   H13F13969  -0.168   1.835   3.558 -2.1622 -2.2697 -1.2390
  130OSM   H13G13970  -0.014   1.869   3.470 -0.5093  0.0664 -0.4445
  130OSM   C14F13971  -0.009   1.693   3.584 -0.3176 -0.3348  0.9207
  130OSM   H14F13972   0.062   1.640   3.516 -1.1589  0.3839 -0.5835
  130OSM   H14G13973  -0.086   1.619   3.616 -1.6348  0.4098 -0.3717
  130OSM   C15F13974   0.056   1.755   3.712  0.3030 -0.3914  0.4601
  130OSM   H15F13975  -0.012   1.819   3.773  0.6315  0.6198 -0.2174
  130OSM   H15G13976   0.125   1.828   3.665 -0.5879  1.5426  2.0096
  130OSM   C16F13977   0.137   1.652   3.795 -0.2917  0.5609 -0.1507
  130OSM   H16F13978   0.208   1.593   3.733  1.3488 -0.4301  2.5121
  130OSM   H16G13979   0.069   1.587   3.853  0.6686  0.0228  0.3940
  130OSM   C17F13980   0.227   1.723   3.900  0.0733 -0.2544 -0.1810
  130OSM   H17F13981   0.166   1.786   3.968  2.5805  0.3274  1.6640
  130OSM   H17G13982   0.295   1.797   3.853 -2.1178  0.3579 -2.5702
  130OSM   C18F13983   0.314   1.633   3.985 -0.1852  0.9155 -0.3806
  130OSM   H18F13984   0.374   1.572   3.914 -1.3672 -1.0431  0.1989
  130OSM   H18G13985   0.258   1.549   4.032 -0.2066  0.8217 -0.5696
  130OSM   H18H13986   0.388   1.682   4.051 -1.5891 -0.5806  2.4975
  131OSM      N13987   2.751   1.373   2.006 -0.2783  0.2296 -0.1645
  131OSM    C1513988   2.708   1.235   2.037  0.0752  0.3022 -0.1604
  131OSM   H15A13989   2.772   1.158   1.995 -0.8746 -1.3084  1.2020
  131OSM   H15B13990   2.612   1.211   1.995  1.4921 -0.7724 -3.0705
  131OSM   H15C13991   2.707   1.230   2.145  1.0555  1.3862 -0.0740
  131OSM    C1413992   2.739   1.392   1.856  0.1573 -0.8807 -0.0534
  131OSM   H14A13993   2.798   1.326   1.793  2.3147 -0.1299  1.0706
  131OSM   H14B13994   2.774   1.490   1.828 -2.1765 -0.5295 -2.1037
  131OSM   H14C13995   2.633   1.388   1.836 -0.5837  0.3708  2.9678
  131OSM    C1313996   2.665   1.476   2.069  0.2988 -0.0070 -0.0951
  131OSM   H13A13997   2.659   1.466   2.177 -0.8847 -0.6969 -0.2110
  131OSM   H13B13998   2.561   1.469   2.041  0.1760 -2.0805  0.6940
  131OSM   H13C13999   2.704   1.573   2.042 -0.1744  0.2972  0.3095
  131OSM    C1214000   2.892   1.380   2.046 -0.3484 -0.9097 -0.1547
  131OSM   H12A14001   2.927   1.473   2.003 -1.5431 -0.4163 -0.1062
  131OSM   H12B14002   2.936   1.294   1.999 -0.6080 -0.0969 -1.9704
  131OSM    C1114003   2.924   1.393   2.197 -0.2272  0.4774  1.3818
  131OSM   H11A14004   3.031   1.371   2.215 -1.0010 -3.1374  2.5473
  131OSM   H11B14005   2.866   1.317   2.254 -2.3593 -0.4963 -1.7998
  131OSM      P14006   2.983   1.648   2.230  0.4837 -0.3055 -0.2736
  131OSM    O1314007   3.035   1.656   2.095  0.8568  0.3555  0.1140
  131OSM    O1414008   2.911   1.766   2.281  0.2431  0.3254  0.3807
  131OSM    O1114009   3.107   1.618   2.323 -0.1262  0.7277 -0.0677
  131OSM    O1214010   2.888   1.522   2.245 -0.1674  0.2708  0.1553
  131OSM    C1S14011   3.103   1.641   2.465 -0.4159 -0.6235  0.0213
  131OSM    H1S14012   3.019   1.706   2.498  0.5707  0.4462  0.4526
  131OSM    H1T14013   3.198   1.691   2.490 -0.0509  0.9992 -3.8661
  131OSM     NF14014   3.065   1.529   2.691 -0.4970  0.4270 -0.3453
  131OSM    HNF14015   3.136   1.523   2.760 -1.4242 -1.0020  0.5503
  131OSM    C2S14016   3.099   1.508   2.550 -0.3397  0.2502  0.7908
  131OSM    H2S14017   3.023   1.435   2.515  0.5465 -1.3059  2.0018
  131OSM    C3S14018   3.227   1.428   2.527 -0.0835  0.1858 -0.2344
  131OSM    H3S14019   3.311   1.483   2.575  0.1703  0.5474 -1.0896
  131OSM     O314020   3.260   1.410   2.391  0.0038  0.5428 -0.0413
  131OSM    HO314021   3.198   1.457   2.335  0.5931  0.2680 -0.9432
  131OSM    C4S14022   3.225   1.287   2.590  0.7254  0.0082 -1.0507
  131OSM    H4S14023   3.185   1.207   2.525 -1.6575  1.1329 -1.0735
  131OSM    C5S14024   3.251   1.248   2.715  0.1666  0.1984  0.1038
  131OSM    H5S14025   3.258   1.324   2.795  0.1682 -1.4281  1.7304
  131OSM    C6S14026   3.248   1.105   2.756  0.7917 -0.0069  0.3979
  131OSM    H6S14027   3.224   1.044   2.666  0.0657 -0.5672  0.9554
  131OSM    H6T14028   3.166   1.098   2.831  0.8314 -1.4527  0.3401
  131OSM    C7S14029   3.361   1.043   2.834  0.0019  0.0737  0.1495
  131OSM    H7S14030   3.452   1.092   2.793  1.5470 -1.9919  0.9557
  131OSM    H7T14031   3.381   0.935   2.817  0.3488 -0.0872  1.4909
  131OSM    C8S14032   3.356   1.087   2.980 -0.3778  0.5689  0.2246
  131OSM    H8S14033   3.265   1.045   3.029 -0.3627 -0.4972 -0.6066
  131OSM    H8T14034   3.351   1.197   2.993  0.0398  0.6078  0.0555
  131OSM    C9S14035   3.481   1.025   3.047 -0.9938  0.2709 -0.1994
  131OSM    H9S14036   3.571   1.072   3.001 -0.8300  0.7836  0.6332
  131OSM    H9T14037   3.478   0.921   3.009 -0.8196  0.3420 -0.4132
  131OSM   C10S14038   3.483   1.033   3.201 -0.0971 -0.7423 -0.4619
  131OSM   H10S14039   3.390   0.995   3.249  0.1637 -0.3568  0.3454
  131OSM   H10T14040   3.487   1.139   3.233  1.7761 -0.8469 -0.2676
  131OSM   C11S14041   3.609   0.966   3.266 -0.2458 -0.3373 -0.1375
  131OSM   H11S14042   3.700   1.000   3.212 -0.9067 -1.3007 -1.9433
  131OSM   H11T14043   3.611   0.856   3.254 -0.8655 -0.7515  2.8118
  131OSM   C12S14044   3.610   0.994   3.422 -0.6076  0.2169 -0.8034
  131OSM   H12S14045   3.518   0.975   3.481 -0.7090 -0.6466 -1.2304
  131OSM   H12T14046   3.625   1.104   3.431 -2.3535  0.3369  1.3467
  131OSM   C13S14047   3.723   0.911   3.484 -0.1726  0.5072  0.4970
  131OSM   H13S14048   3.818   0.950   3.442  0.0025 -1.3240 -0.9348
  131OSM   H13T14049   3.716   0.803   3.461 -2.3578  1.0924 -2.0410
  131OSM   C14S14050   3.730   0.935   3.631  0.3525  0.1347 -0.6486
  131OSM   H14S14051   3.715   1.045   3.641 -1.8343 -0.1496 -0.2393
  131OSM   H14T14052   3.834   0.912   3.662  0.2543 -0.0684 -0.4703
  131OSM   C15S14053   3.627   0.855   3.711  0.5334  0.5411 -0.4022
  131OSM   H15S14054   3.632   0.744   3.711  0.9825  0.5556 -0.9554
  131OSM   H15T14055   3.525   0.856   3.667 -0.9392  1.8809  2.6886
  131OSM   C16S14056   3.618   0.900   3.857  0.0965 -0.3779 -0.2259
  131OSM   H16S14057   3.539   0.843   3.910  0.0829 -0.9825 -0.8764
  131OSM   H16T14058   3.581   1.004   3.849 -0.3947 -0.6698 -2.8800
  131OSM   C17S14059   3.743   0.902   3.943  0.1723  0.7055 -0.0937
  131OSM   H17S14060   3.826   0.951   3.887  2.0827 -0.9298  1.1245
  131OSM   H17T14061   3.776   0.797   3.964 -0.3847  0.7684  1.1524
  131OSM   C18S14062   3.705   0.977   4.067  0.3647 -0.2128  0.1058
  131OSM   H18S14063   3.679   1.083   4.048 -0.0944 -0.4443 -0.5838
  131OSM   H18T14064   3.788   0.986   4.141  2.0124  0.2922 -1.7275
  131OSM   H18U14065   3.618   0.929   4.117 -2.4096  3.6426 -0.6776
  131OSM    C1F14066   2.938   1.576   2.725 -1.1512 -0.2751 -0.0286
  131OSM     OF14067   2.845   1.579   2.641 -0.5629  0.1672  0.5537
  131OSM    C2F14068   2.921   1.626   2.861  0.5288 -0.2670  0.2914
  131OSM    H2F14069   3.017   1.644   2.914 -0.1661 -3.2131  2.8273
  131OSM    H2G14070   2.873   1.551   2.928  1.6087 -1.3706 -0.1352
  131OSM    C3F14071   2.849   1.759   2.858  0.1568 -0.2781 -0.8427
  131OSM    H3F14072   2.754   1.763   2.800  0.1856  1.6125 -0.8231
  131OSM    H3G14073   2.919   1.834   2.814  1.9968 -1.2764  0.2597
  131OSM    C4F14074   2.815   1.814   3.002 -0.1743 -0.3756  0.2375
  131OSM    H4F14075   2.838   1.923   2.996  0.9288 -0.4475  2.2708
  131OSM    H4G14076   2.894   1.783   3.073  0.4778  2.9027  1.1238
  131OSM    C5F14077   2.679   1.778   3.051 -0.7543 -1.4041  0.4167
  131OSM    H5F14078   2.662   1.677   3.007  0.1691 -0.8822 -1.2173
  131OSM    H5G14079   2.597   1.828   2.996  1.3340  1.3472 -0.4544
  131OSM    C6F14080   2.660   1.796   3.197  0.2733  0.5484 -0.1619
  131OSM    H6F14081   2.564   1.750   3.229  0.0873  0.8869 -0.2199
  131OSM    H6G14082   2.646   1.904   3.219  1.0398  0.7827 -0.7864
  131OSM    C7F14083   2.766   1.745   3.297  0.1345  0.0852  0.3158
  131OSM    H7F14084   2.859   1.806   3.291 -0.7064  1.2902 -0.9677
  131OSM    H7G14085   2.798   1.642   3.270  3.2272  1.1210 -0.4583
  131OSM    C8F14086   2.719   1.735   3.439  0.5451 -0.0730 -0.5828
  131OSM    H8F14087   2.790   1.682   3.507 -0.6057  1.4853  2.0006
  131OSM    H8G14088   2.637   1.659   3.443 -0.9863  1.3876 -2.3649
  131OSM    C9F14089   2.691   1.863   3.498  0.3247 -0.2513  0.0911
  131OSM    H9F14090   2.587   1.890   3.477  0.6367  0.2264 -0.9012
  131OSM   C10F14091   2.770   1.943   3.584 -0.0896 -0.4572  0.3252
  131OSM   H10F14092   2.719   2.034   3.618  0.0784  0.2595 -1.2230
  131OSM   C11F14093   2.906   1.906   3.635 -0.0461  0.8130 -0.6916
  131OSM   H11F14094   2.968   1.995   3.661  0.7217 -0.6996  3.5480
  131OSM   H11G14095   2.968   1.849   3.563 -1.7192 -2.4625  0.2618
  131OSM   C12F14096   2.896   1.819   3.768 -0.5804 -0.0492  0.0387
  131OSM   H12F14097   2.994   1.802   3.818 -0.0254  0.8668 -0.6905
  131OSM   H12G14098   2.854   1.718   3.749 -0.0037 -0.6651  1.8052
  131OSM   C13F14099   2.799   1.875   3.879  0.1070  0.1035 -1.4650
  131OSM   H13F14100   2.694   1.843   3.860 -0.5902  0.9942  0.6169
  131OSM   H13G14101   2.803   1.986   3.878 -2.4375  0.2947 -3.7391
  131OSM   C14F14102   2.831   1.830   4.023 -0.1096  0.3777  0.6455
  131OSM   H14F14103   2.764   1.874   4.101 -1.9833  1.3902 -1.4241
  131OSM   H14G14104   2.936   1.853   4.051  0.2321 -1.7589  1.2419
  131OSM   C15F14105   2.835   1.679   4.028  0.1463  0.2848 -0.2061
  131OSM   H15F14106   2.896   1.640   3.943 -0.2351  0.9264 -0.7855
  131OSM   H15G14107   2.732   1.641   4.007  0.9416 -1.4781 -1.0910
  131OSM   C16F14108   2.889   1.619   4.165 -0.0633 -0.0348  0.3738
  131OSM   H16F14109   2.853   1.690   4.243  2.0743  0.2585  1.1608
  131OSM   H16G14110   2.999   1.630   4.174  0.0077 -1.7491  2.5806
  131OSM   C17F14111   2.843   1.473   4.189  0.6043 -0.0703  0.0173
  131OSM   H17F14112   2.747   1.475   4.134 -0.1736 -0.9448  1.2791
  131OSM   H17G14113   2.840   1.469   4.300 -2.5012  1.9125  0.1320
  131OSM   C18F14114   2.938   1.377   4.129 -0.2805  0.6176 -0.2810
  131OSM   H18F14115   3.031   1.367   4.189 -0.6306 -0.8821  0.0807
  131OSM   H18G14116   2.957   1.398   4.022 -1.3711 -0.0606 -0.6327
  131OSM   H18H14117   2.899   1.273   4.138 -3.3437  1.5690 -1.3414
  132OSM      N14118   1.502   1.898   1.891 -0.1899  0.4468 -0.0249
  132OSM    C1514119   1.370   1.837   1.909  0.1049  1.0689 -0.2893
  132OSM   H15A14120   1.316   1.857   1.818 -0.0803  1.8444 -0.0101
  132OSM   H15B14121   1.314   1.881   1.990  0.6927  1.3857 -0.0487
  132OSM   H15C14122   1.379   1.729   1.909 -0.2677  1.0375  0.3941
  132OSM    C1414123   1.572   1.834   1.769 -0.4445 -0.4167 -0.8493
  132OSM   H14A14124   1.503   1.852   1.687 -0.2986  3.5196 -0.3125
  132OSM   H14B14125   1.594   1.729   1.782  0.1452 -0.2672 -0.6226
  132OSM   H14C14126   1.660   1.894   1.753 -0.8164  1.1616  2.1993
  132OSM    C1314127   1.485   2.051   1.873  0.0457  0.2892 -0.3943
  132OSM   H13A14128   1.399   2.062   1.808 -0.1978 -3.1749 -0.8426
  132OSM   H13B14129   1.571   2.095   1.824 -0.2423  3.0189  1.3209
  132OSM   H13C14130   1.466   2.104   1.965 -0.2952 -1.0249  0.3124
  132OSM    C1214131   1.593   1.878   2.017  0.7561  0.5987  0.3848
  132OSM   H12A14132   1.604   1.771   2.025  2.7095  0.4569 -2.7509
  132OSM   H12B14133   1.537   1.900   2.108  0.3255  0.1898  0.2243
  132OSM    C1114134   1.736   1.932   2.019 -0.0063 -0.9482 -0.0207
  132OSM   H11A14135   1.782   1.907   1.921  1.2208  2.5725 -0.4924
  132OSM   H11B14136   1.787   1.866   2.093  2.8594 -0.7665 -1.6565
  132OSM      P14137   1.721   2.154   2.161 -0.0990  0.3178 -0.1746
  132OSM    O1314138   1.831   2.242   2.204  0.0404 -0.2872 -0.4266
  132OSM    O1414139   1.590   2.215   2.137  0.2838  0.6588  0.3669
  132OSM    O1114140   1.708   2.039   2.270  0.1459  0.0593  0.4048
  132OSM    O1214141   1.764   2.074   2.032  0.5157  0.3670 -0.2903
  132OSM    C1S14142   1.810   1.968   2.339  0.6320  0.0348  1.5127
  132OSM    H1S14143   1.912   2.007   2.317 -0.2552  3.0333  2.2366
  132OSM    H1T14144   1.803   1.861   2.310  0.4225  0.4626 -0.1497
  132OSM     NF14145   1.907   1.887   2.542 -0.3584 -0.0893 -0.2831
  132OSM    HNF14146   1.900   1.788   2.545  1.2696 -0.2246  0.9969
  132OSM    C2S14147   1.797   1.956   2.490 -0.4624 -0.4976  0.8896
  132OSM    H2S14148   1.790   2.055   2.540 -1.2613 -0.0339 -0.1076
  132OSM    C3S14149   1.663   1.891   2.523  0.9171  0.0094  0.1938
  132OSM    H3S14150   1.650   1.803   2.456 -0.6917 -1.7618  2.6857
  132OSM     O314151   1.558   1.982   2.513  0.1600  0.2248 -0.3131
  132OSM    HO314152   1.584   2.036   2.438  1.6724  0.7919  0.5767
  132OSM    C4S14153   1.659   1.860   2.670 -0.6779 -0.2520 -0.2398
  132OSM    H4S14154   1.635   1.952   2.726  1.0122  1.8203 -2.6881
  132OSM    C5S14155   1.679   1.741   2.719  0.2490 -0.5533  0.5397
  132OSM    H5S14156   1.679   1.653   2.653 -2.1861  0.4856 -0.9888
  132OSM    C6S14157   1.683   1.712   2.867 -0.4584  0.4241 -0.4082
  132OSM    H6S14158   1.788   1.685   2.892 -0.6745  1.3033  1.6384
  132OSM    H6T14159   1.623   1.620   2.886  0.3705  0.5179  3.4218
  132OSM    C7S14160   1.644   1.818   2.972  0.1992 -0.5903 -0.0384
  132OSM    H7S14161   1.551   1.866   2.936  0.4141  0.5175  0.8278
  132OSM    H7T14162   1.731   1.886   2.968  0.0432 -0.4202 -0.5235
  132OSM    C8S14163   1.636   1.753   3.113 -0.2234 -0.9138 -0.1237
  132OSM    H8S14164   1.732   1.699   3.123  1.7523  1.6360 -3.0410
  132OSM    H8T14165   1.557   1.675   3.107 -1.9102  0.8031 -2.4931
  132OSM    C9S14166   1.622   1.856   3.224 -1.0346 -0.3075 -0.2432
  132OSM    H9S14167   1.525   1.906   3.203 -1.6676 -1.3539  0.1504
  132OSM    H9T14168   1.702   1.930   3.202 -1.9477  1.8850  3.1094
  132OSM   C10S14169   1.642   1.799   3.365 -0.2792  0.9657 -0.8723
  132OSM   H10S14170   1.629   1.883   3.437 -1.0380 -0.0848  0.2380
  132OSM   H10T14171   1.748   1.767   3.380 -0.5640 -1.6561 -3.4929
  132OSM   C11S14172   1.544   1.694   3.418  0.2263  0.7157  0.4805
  132OSM   H11S14173   1.530   1.605   3.352 -1.7568 -0.5386  2.4455
  132OSM   H11T14174   1.442   1.737   3.427 -1.3437 -2.0837 -1.9340
  132OSM   C12S14175   1.576   1.638   3.554 -0.1847 -0.6432 -0.1555
  132OSM   H12S14176   1.644   1.552   3.538 -0.6493 -1.4703  1.9729
  132OSM   H12T14177   1.485   1.590   3.597 -0.5416 -0.1752 -0.3703
  132OSM   C13S14178   1.636   1.732   3.664  0.0073  0.0540 -0.3600
  132OSM   H13S14179   1.568   1.815   3.692  0.0918  0.2942 -0.8631
  132OSM   H13T14180   1.718   1.788   3.613 -0.4022  0.3108 -0.7375
  132OSM   C14S14181   1.700   1.667   3.788  0.2490 -0.0554  0.3626
  132OSM   H14S14182   1.761   1.737   3.849  1.2937 -0.0644 -0.6529
  132OSM   H14T14183   1.781   1.601   3.752  1.0145  1.6823 -1.2899
  132OSM   C15S14184   1.609   1.585   3.878  0.7765  1.0147 -0.2203
  132OSM   H15S14185   1.673   1.534   3.953  3.1550  1.2228 -2.0058
  132OSM   H15T14186   1.551   1.511   3.818 -1.5758  0.4772  2.4732
  132OSM   C16S14187   1.492   1.653   3.938 -0.2685 -0.0849 -0.0819
  132OSM   H16S14188   1.409   1.587   3.972 -2.0379  1.4237 -1.2779
  132OSM   H16T14189   1.463   1.730   3.864  1.6721  0.5233 -0.2518
  132OSM   C17S14190   1.513   1.743   4.058 -0.1004 -0.4939  0.8209
  132OSM   H17S14191   1.418   1.780   4.102  1.4642  3.5845  1.2376
  132OSM   H17T14192   1.560   1.837   4.022 -1.2750 -0.2413 -0.1467
  132OSM   C18S14193   1.590   1.684   4.168 -0.5485  0.0965 -0.4859
  132OSM   H18S14194   1.539   1.597   4.213  0.0875 -0.1667 -0.2645
  132OSM   H18T14195   1.603   1.753   4.254 -1.9192 -0.3338  0.0925
  132OSM   H18U14196   1.693   1.661   4.133 -0.0547 -0.6439  1.3186
  132OSM    C1F14197   2.028   1.946   2.553  0.4131  0.4119  0.8764
  132OSM     OF14198   2.040   2.069   2.539  0.3031 -0.1379  0.5732
  132OSM    C2F14199   2.153   1.858   2.556 -0.4717  0.1477 -0.5464
  132OSM    H2F14200   2.230   1.884   2.481  1.2332 -0.5005  0.9067
  132OSM    H2G14201   2.125   1.752   2.539 -1.4818  0.1043  1.1860
  132OSM    C3F14202   2.223   1.853   2.699 -0.1108 -0.1432 -0.8237
  132OSM    H3F14203   2.135   1.855   2.768 -1.2417  0.2409 -2.2363
  132OSM    H3G14204   2.284   1.946   2.706 -0.7099  0.1598  0.7586
  132OSM    C4F14205   2.322   1.740   2.717 -1.2142  0.0205 -0.1537
  132OSM    H4F14206   2.416   1.765   2.662 -1.4735  0.0934 -0.5697
  132OSM    H4G14207   2.270   1.653   2.672 -1.3689 -1.4799  2.6923
  132OSM    C5F14208   2.383   1.707   2.863 -0.6156 -0.7435  0.4976
  132OSM    H5F14209   2.434   1.798   2.902 -0.6111  0.4119 -2.0312
  132OSM    H5G14210   2.457   1.626   2.848  0.0285  0.3986 -3.5361
  132OSM    C6F14211   2.287   1.643   2.976 -0.1578 -0.4185  0.4022
  132OSM    H6F14212   2.206   1.719   2.978  0.6369  0.9956 -4.8392
  132OSM    H6G14213   2.335   1.636   3.076 -2.9792 -3.3314  1.7248
  132OSM    C7F14214   2.212   1.510   2.939  0.7243 -0.3868 -0.7790
  132OSM    H7F14215   2.277   1.425   2.909 -2.2227 -3.2061  0.1778
  132OSM    H7G14216   2.150   1.532   2.850  0.6942 -1.3310 -1.0008
  132OSM    C8F14217   2.100   1.459   3.035  0.3891  0.1360 -0.3200
  132OSM    H8F14218   2.014   1.424   2.974  0.2317 -1.1343  0.5830
  132OSM    H8G14219   2.038   1.541   3.077 -0.8180 -0.1108 -1.5199
  132OSM    C9F14220   2.148   1.352   3.136  0.3100  0.1431 -0.1088
  132OSM    H9F14221   2.167   1.248   3.105 -0.0095 -0.8061  2.6074
  132OSM   C10F14222   2.198   1.382   3.255  0.4638 -0.3152 -0.5099
  132OSM   H10F14223   2.229   1.296   3.317 -0.0469  0.9381  1.5658
  132OSM   C11F14224   2.219   1.513   3.321 -0.4647  0.6873  0.1676
  132OSM   H11F14225   2.182   1.590   3.250 -1.8601  0.5695  0.7334
  132OSM   H11G14226   2.326   1.531   3.344 -0.3904 -0.5092  0.8272
  132OSM   C12F14227   2.143   1.510   3.449 -0.3870 -0.2699 -0.9430
  132OSM   H12F14228   2.038   1.480   3.426 -1.1056  1.3143  0.0620
  132OSM   H12G14229   2.136   1.612   3.493  0.5331 -1.3633  1.9336
  132OSM   C13F14230   2.195   1.410   3.557  0.1204 -0.8115 -0.6319
  132OSM   H13F14231   2.300   1.441   3.571 -0.6488  1.3347  0.9524
  132OSM   H13G14232   2.182   1.303   3.531 -0.6732 -0.5763 -1.2572
  132OSM   C14F14233   2.130   1.429   3.692  0.0547  0.1143  0.6496
  132OSM   H14F14234   2.145   1.340   3.757 -1.9706 -0.6038  0.2230
  132OSM   H14G14235   2.023   1.420   3.664  0.6968 -0.8249 -1.8235
  132OSM   C15F14236   2.160   1.563   3.765  0.0944  0.3761 -0.1250
  132OSM   H15F14237   2.092   1.572   3.852  0.5247  0.1626  0.2370
  132OSM   H15G14238   2.139   1.643   3.691  2.2923  0.3005 -0.8956
  132OSM   C16F14239   2.302   1.583   3.814  0.2289  0.6672 -0.2478
  132OSM   H16F14240   2.310   1.687   3.854 -0.0079  0.7306 -0.3659
  132OSM   H16G14241   2.375   1.575   3.730  0.2290 -0.4887 -0.1481
  132OSM   C17F14242   2.326   1.490   3.923 -0.1084  0.2626 -1.1399
  132OSM   H17F14243   2.355   1.389   3.886  0.2179  0.0748 -0.3911
  132OSM   H17G14244   2.226   1.484   3.971  0.1501  2.2719 -0.2446
  132OSM   C18F14245   2.417   1.548   4.027  0.2546  0.1069 -0.8871
  132OSM   H18F14246   2.368   1.643   4.058 -0.7969 -0.0263 -2.0494
  132OSM   H18G14247   2.521   1.561   3.988  0.5768 -0.9320 -0.4168
  132OSM   H18H14248   2.424   1.481   4.115  1.2461  2.6970  1.1208
  133OSM      N14249   0.745   0.248   2.127  0.2351  0.2415 -0.0957
  133OSM    C1514250   0.620   0.253   2.206 -0.3044 -0.4214  0.1796
  133OSM   H15A14251   0.647   0.298   2.300 -0.2457 -1.9226  0.9110
  133OSM   H15B14252   0.573   0.158   2.227 -0.0764 -0.5080  0.2936
  133OSM   H15C14253   0.540   0.309   2.158 -1.4382 -0.1286  2.2973
  133OSM    C1414254   0.845   0.177   2.204  0.5187  0.1608 -0.4087
  133OSM   H14A14255   0.872   0.231   2.294 -0.5340  1.0918 -0.6292
  133OSM   H14B14256   0.929   0.150   2.143 -0.3419 -1.6158 -0.8846
  133OSM   H14C14257   0.797   0.088   2.242  0.0016  0.3143 -0.6890
  133OSM    C1314258   0.706   0.173   2.002 -0.2779  0.3687  0.6301
  133OSM   H13A14259   0.797   0.138   1.955 -0.2164 -0.5129  1.3808
  133OSM   H13B14260   0.649   0.243   1.942  0.5267  1.2622  0.8918
  133OSM   H13C14261   0.654   0.080   2.020 -3.5892  1.8636 -0.3714
  133OSM    C1214262   0.801   0.386   2.087 -0.3255 -0.0978  1.1638
  133OSM   H12A14263   0.716   0.434   2.040  0.0363 -0.5006  0.0643
  133OSM   H12B14264   0.879   0.368   2.014 -0.7311 -1.1105  0.9693
  133OSM    C1114265   0.859   0.474   2.199 -0.1798 -0.3931 -0.3303
  133OSM   H11A14266   0.784   0.514   2.270  0.6317  0.8143 -0.1104
  133OSM   H11B14267   0.892   0.566   2.145 -0.1201  1.1686  2.2162
  133OSM      P14268   1.105   0.435   2.214 -0.2362  0.2217 -0.0415
  133OSM    O1314269   1.106   0.391   2.069  0.2061  0.0793  0.3033
  133OSM    O1414270   1.156   0.570   2.250 -0.5285  0.3088  0.1919
  133OSM    O1114271   1.182   0.333   2.301 -0.0992 -0.4605 -0.2390
  133OSM    O1214272   0.964   0.412   2.275  0.1590 -0.9613 -0.2953
  133OSM    C1S14273   1.237   0.375   2.425  0.2149 -0.1703 -1.3375
  133OSM    H1S14274   1.151   0.377   2.496 -0.9570 -0.9010 -2.6835
  133OSM    H1T14275   1.284   0.475   2.428  0.0778 -0.1223 -0.0209
  133OSM     NF14276   1.399   0.325   2.602 -0.2083  0.2952  0.2195
  133OSM    HNF14277   1.473   0.392   2.600  0.6582 -0.6379 -1.5455
  133OSM    C2S14278   1.350   0.279   2.474  0.5170 -0.2911  0.5126
  133OSM    H2S14279   1.307   0.178   2.486 -0.0332  0.0788  1.8207
  133OSM    C3S14280   1.457   0.267   2.364 -0.9224 -0.0855  0.8977
  133OSM    H3S14281   1.501   0.368   2.350 -2.0933  0.1537 -1.7654
  133OSM     O314282   1.421   0.216   2.238 -0.2824  0.5327  0.0309
  133OSM    HO314283   1.325   0.225   2.239 -0.3590  0.4306 -2.2851
  133OSM    C4S14284   1.574   0.191   2.417  0.5187  0.1471 -0.5327
  133OSM    H4S14285   1.669   0.247   2.424  0.0520  0.8902 -0.0890
  133OSM    C5S14286   1.572   0.062   2.453  0.2387 -0.1343  0.2012
  133OSM    H5S14287   1.478   0.007   2.440 -0.3242  0.9968 -0.7586
  133OSM    C6S14288   1.695  -0.013   2.502  0.0596  0.9360  0.1480
  133OSM    H6S14289   1.781   0.056   2.503 -0.5991  2.0057 -3.3499
  133OSM    H6T14290   1.723  -0.104   2.445  1.2414  0.6525  1.1313
  133OSM    C7S14291   1.686  -0.080   2.649  0.3006  0.0112 -0.6321
  133OSM    H7S14292   1.786  -0.128   2.656 -0.5285 -1.7199 -0.0727
  133OSM    H7T14293   1.612  -0.160   2.668 -0.1827  0.2655 -1.4228
  133OSM    C8S14294   1.675   0.028   2.760 -0.4448  0.5458  0.2112
  133OSM    H8S14295   1.570   0.063   2.759 -1.4505 -2.2484 -0.9470
  133OSM    H8T14296   1.747   0.112   2.748  1.2764 -0.8846 -0.0661
  133OSM    C9S14297   1.699  -0.040   2.900 -0.1795 -0.4095  0.5786
  133OSM    H9S14298   1.806  -0.067   2.907 -0.2530 -0.4646  1.5680
  133OSM    H9T14299   1.642  -0.136   2.909  1.8238 -1.6285  0.7788
  133OSM   C10S14300   1.663   0.061   3.008  0.2347  0.1408  0.2441
  133OSM   H10S14301   1.555   0.089   3.000 -0.8497 -2.9879  2.0984
  133OSM   H10T14302   1.731   0.148   2.996 -0.0406  0.3580  0.2518
  133OSM   C11S14303   1.668  -0.005   3.141  0.2406  0.0474  0.1272
  133OSM   H11S14304   1.771  -0.047   3.147 -0.1327 -0.9822 -0.5962
  133OSM   H11T14305   1.611  -0.099   3.153  1.4669 -0.6167  1.0725
  133OSM   C12S14306   1.647   0.087   3.261 -0.2397 -0.1465 -0.5182
  133OSM   H12S14307   1.542   0.121   3.270 -0.0553  1.0264 -2.1972
  133OSM   H12T14308   1.713   0.177   3.257 -0.3097 -0.1434 -2.3472
  133OSM   C13S14309   1.674   0.012   3.390  0.0689  0.2627 -0.0192
  133OSM   H13S14310   1.782  -0.013   3.389 -0.2655 -1.4565  1.3428
  133OSM   H13T14311   1.605  -0.076   3.396  0.4756  0.0265  1.5352
  133OSM   C14S14312   1.662   0.114   3.512  0.5759  0.3479  0.1461
  133OSM   H14S14313   1.557   0.144   3.529 -0.1785 -2.1888  0.2935
  133OSM   H14T14314   1.717   0.207   3.485  1.1910  0.0140  0.2276
  133OSM   C15S14315   1.722   0.064   3.639 -0.1597  0.5065 -0.4905
  133OSM   H15S14316   1.824   0.026   3.619  0.4505  1.8775 -0.1096
  133OSM   H15T14317   1.664  -0.020   3.682  0.0935  1.0608  1.0086
  133OSM   C16S14318   1.720   0.169   3.751  0.1577  0.0729 -0.4844
  133OSM   H16S14319   1.709   0.111   3.845  0.4978 -0.1627 -0.5862
  133OSM   H16T14320   1.630   0.233   3.741  0.3142  0.6995  1.7237
  133OSM   C17S14321   1.843   0.258   3.739 -0.1989  0.2372  0.5982
  133OSM   H17S14322   1.834   0.329   3.654  3.1721 -1.4063 -1.3661
  133OSM   H17T14323   1.936   0.198   3.729 -0.7911 -0.8158  1.2467
  133OSM   C18S14324   1.860   0.347   3.860 -0.6723  0.4438  0.0079
  133OSM   H18S14325   1.768   0.409   3.870 -0.5981  0.5905 -0.2317
  133OSM   H18T14326   1.952   0.409   3.860 -1.5335  1.7872 -0.7931
  133OSM   H18U14327   1.851   0.283   3.951 -0.7446  1.5370  0.7874
  133OSM    C1F14328   1.338   0.296   2.718  0.0529  0.1168 -0.2685
  133OSM     OF14329   1.240   0.217   2.723 -0.4353 -0.4449  0.8110
  133OSM    C2F14330   1.394   0.380   2.834  0.1570  0.7743  0.7131
  133OSM    H2F14331   1.348   0.481   2.826 -0.7439  0.3591  0.4561
  133OSM    H2G14332   1.505   0.388   2.829  0.3315 -1.7691 -1.0262
  133OSM    C3F14333   1.350   0.316   2.971  0.3180 -0.2336  0.8265
  133OSM    H3F14334   1.373   0.208   2.967  3.1694  0.1005  3.8567
  133OSM    H3G14335   1.241   0.319   2.991 -0.1205 -1.0171 -1.2102
  133OSM    C4F14336   1.427   0.372   3.091  0.1075  0.1543 -0.7067
  133OSM    H4F14337   1.444   0.482   3.090 -2.3407  0.5945 -0.4142
  133OSM    H4G14338   1.527   0.326   3.105 -0.6611 -0.7822  2.6655
  133OSM    C5F14339   1.355   0.330   3.222 -0.3161  0.7533 -0.3427
  133OSM    H5F14340   1.350   0.220   3.229  1.5696  0.7437  2.4060
  133OSM    H5G14341   1.249   0.361   3.213 -0.2800  1.1900  0.6682
  133OSM    C6F14342   1.406   0.387   3.359 -0.2814  0.3647 -0.4167
  133OSM    H6F14343   1.397   0.496   3.342  1.4526  0.5556 -0.2235
  133OSM    H6G14344   1.514   0.364   3.371  0.0469  2.3799  0.8765
  133OSM    C7F14345   1.317   0.331   3.478 -0.2021  0.1186 -0.5302
  133OSM    H7F14346   1.317   0.220   3.472  0.9024 -0.1722  2.7739
  133OSM    H7G14347   1.214   0.372   3.465  0.0985  0.4090 -2.2990
  133OSM    C8F14348   1.372   0.361   3.615 -0.3978 -0.5001 -0.5638
  133OSM    H8F14349   1.393   0.470   3.615  0.4113 -0.6490  0.1884
  133OSM    H8G14350   1.467   0.305   3.606  0.2157  0.3152  0.6250
  133OSM    C9F14351   1.276   0.323   3.730 -0.7427 -0.4111 -0.1485
  133OSM    H9F14352   1.226   0.225   3.718 -0.2816 -0.4639 -1.9982
  133OSM   C10F14353   1.261   0.388   3.844 -0.9724  0.3334  0.5642
  133OSM   H10F14354   1.194   0.348   3.921  1.2766 -2.9779  1.0263
  133OSM   C11F14355   1.329   0.515   3.883 -0.2784  0.6902  0.0774
  133OSM   H11F14356   1.270   0.608   3.866  0.4719  1.5277  1.7810
  133OSM   H11G14357   1.423   0.515   3.824  0.7819 -0.9870  1.6826
  133OSM   C12F14358   1.378   0.518   4.028 -0.4374 -0.7187  0.3271
  133OSM   H12F14359   1.295   0.489   4.095 -2.9865  0.4094 -2.1451
  133OSM   H12G14360   1.401   0.622   4.060  0.8192 -1.5682  2.4315
  133OSM   C13F14361   1.506   0.439   4.053 -0.7130 -0.3095  0.5417
  133OSM   H13F14362   1.580   0.483   3.983 -0.8156 -3.1497 -1.5163
  133OSM   H13G14363   1.498   0.329   4.041 -0.3970 -0.1654 -1.2401
  133OSM   C14F14364   1.554   0.456   4.203  0.0980  0.0161 -0.6864
  133OSM   H14F14365   1.473   0.415   4.267  0.4001  1.5163  0.7582
  133OSM   H14G14366   1.565   0.563   4.233 -0.2064 -0.1248 -0.0509
  133OSM   C15F14367   1.694   0.394   4.213 -0.5679  0.5654 -0.6162
  133OSM   H15F14368   1.771   0.442   4.148 -0.4390  1.9214  0.4926
  133OSM   H15G14369   1.679   0.286   4.193  2.7522  0.0209 -0.6365
  133OSM   C16F14370   1.752   0.418   4.354 -0.3891 -0.0102 -0.3342
  133OSM   H16F14371   1.679   0.406   4.438  0.8480 -1.0175  0.6337
  133OSM   H16G14372   1.785   0.524   4.355 -0.9982  0.2042  1.3030
  133OSM   C17F14373   1.891   0.356   4.384 -0.1245 -0.6469 -0.7947
  133OSM   H17F14374   1.964   0.395   4.310 -1.0441 -0.2866 -1.5310
  133OSM   H17G14375   1.881   0.247   4.366  1.1574 -0.6881 -1.3852
  133OSM   C18F14376   1.930   0.381   4.532 -0.0637 -0.0657 -0.2483
  133OSM   H18F14377   1.921   0.490   4.553 -0.8209  0.4407 -2.8282
  133OSM   H18G14378   2.037   0.355   4.549  0.1005  0.6912 -0.0550
  133OSM   H18H14379   1.871   0.325   4.608  0.4781 -3.6452 -2.2742
  134OSM      N14380   1.447   4.856   1.602 -0.8432 -0.2561  0.1670
  134OSM    C1514381   1.394   4.721   1.564 -0.4541 -0.9673 -0.2931
  134OSM   H15A14382   1.326   4.682   1.639  1.0743 -0.2496  1.5365
  134OSM   H15B14383   1.478   4.654   1.554 -0.1787 -0.5062 -1.2402
  134OSM   H15C14384   1.354   4.734   1.464  1.6267  0.4385 -1.0040
  134OSM    C1414385   1.552   4.901   1.512 -0.5857 -0.3304  0.9090
  134OSM   H14A14386   1.639   4.838   1.511 -1.5519 -1.7478 -1.2617
  134OSM   H14B14387   1.593   4.998   1.535  1.1860 -0.7474 -0.2548
  134OSM   H14C14388   1.523   4.895   1.407 -0.1836  0.7040  0.7307
  134OSM    C1314389   1.334   4.947   1.591  0.5374 -0.2661 -0.4011
  134OSM   H13A14390   1.297   4.952   1.490  2.6637  0.9699 -1.1818
  134OSM   H13B14391   1.366   5.046   1.618  1.7253 -0.8969  0.6223
  134OSM   H13C14392   1.253   4.913   1.654  2.7177 -0.2905  2.5938
  134OSM    C1214393   1.502   4.852   1.745 -0.6518 -0.4195  0.3058
  134OSM   H12A14394   1.567   4.938   1.755  0.5820 -1.0525 -1.7234
  134OSM   H12B14395   1.564   4.769   1.772 -0.0569  0.9076  3.3747
  134OSM    C1114396   1.397   4.870   1.858  0.1363  0.3633  0.6012
  134OSM   H11A14397   1.447   4.830   1.948  0.1554  1.4649  1.1003
  134OSM   H11B14398   1.310   4.810   1.823  1.7171 -0.7520 -1.6059
  134OSM      P14399   1.220   5.052   1.916  0.0639 -0.2183  0.0893
  134OSM    O1314400   1.227   5.193   1.939 -0.2652  0.3896  0.9840
  134OSM    O1414401   1.117   5.011   1.815  0.4337  0.2792 -0.2323
  134OSM    O1114402   1.187   4.984   2.051  0.1020  1.0311 -0.1753
  134OSM    O1214403   1.368   5.011   1.872 -0.6219 -0.3806  0.0266
  134OSM    C1S14404   1.279   4.954   2.155 -0.1155  0.1150  0.1265
  134OSM    H1S14405   1.377   5.004   2.136 -0.6829  0.2792 -2.8890
  134OSM    H1T14406   1.299   4.845   2.160  1.5705  0.4477  1.8850
  134OSM     NF14407   1.314   4.997   2.408  0.3080  0.0118  0.1820
  134OSM    HNF14408   1.298   4.918   2.466 -1.6002 -0.3717 -0.8219
  134OSM    C2S14409   1.221   4.990   2.296  0.0341  0.5090 -0.0171
  134OSM    H2S14410   1.176   5.090   2.281 -0.3970  0.5160  1.1750
  134OSM    C3S14411   1.098   4.896   2.316  0.4213  0.9263  0.2831
  134OSM    H3S14412   1.136   4.792   2.317  1.1094  1.1748  1.5190
  134OSM     O314413   0.996   4.908   2.216  0.0623  0.4138  0.1784
  134OSM    HO314414   1.039   4.926   2.132 -4.2889 -0.2923 -2.5057
  134OSM    C4S14415   1.037   4.921   2.449  0.2944  0.0682  0.6516
  134OSM    H4S14416   0.982   5.016   2.450  0.5260  0.2961 -1.7901
  134OSM    C5S14417   1.039   4.841   2.557  0.5542  0.1344 -0.3141
  134OSM    H5S14418   1.096   4.748   2.569  1.5064  0.7141 -0.2861
  134OSM    C6S14419   0.977   4.864   2.693 -0.2871 -0.9076  0.4019
  134OSM    H6S14420   0.902   4.784   2.709 -0.1762 -0.8363  1.3104
  134OSM    H6T14421   0.920   4.960   2.695  1.0065 -0.0710 -0.8208
  134OSM    C7S14422   1.082   4.866   2.807  0.2230 -0.0784  0.8737
  134OSM    H7S14423   1.171   4.914   2.762 -0.2900 -1.0109 -1.2429
  134OSM    H7T14424   1.102   4.759   2.831  1.5630  0.3034  1.5638
  134OSM    C8S14425   1.041   4.937   2.943  0.0123  0.6945 -0.5139
  134OSM    H8S14426   0.947   4.888   2.976  0.7042 -0.3498 -0.0198
  134OSM    H8T14427   1.030   5.047   2.933 -0.8205  0.5945 -0.8091
  134OSM    C9S14428   1.139   4.903   3.059  0.4543 -0.1823 -0.3071
  134OSM    H9S14429   1.158   4.796   3.077 -1.0470  0.0181  3.3686
  134OSM    H9T14430   1.106   4.941   3.158  1.1227 -0.4308  0.0141
  134OSM   C10S14431   1.269   4.964   3.036 -0.7355  0.5030 -0.1712
  134OSM   H10S14432   1.261   5.065   2.991 -3.5262  0.3819 -0.1188
  134OSM   H10T14433   1.320   4.891   2.968  0.1802 -0.6262  1.6404
  134OSM   C11S14434   1.370   4.967   3.149  0.0967  0.1285 -0.2709
  134OSM   H11S14435   1.464   5.008   3.106 -0.7264  0.8735 -1.4081
  134OSM   H11T14436   1.393   4.867   3.192  0.2589  1.0924  2.0551
  134OSM   C12S14437   1.330   5.046   3.277 -0.2425  0.7892 -0.4457
  134OSM   H12S14438   1.224   5.023   3.302 -0.4458  0.4019 -1.6064
  134OSM   H12T14439   1.340   5.153   3.250  0.3638  0.7293 -0.4694
  134OSM   C13S14440   1.423   5.002   3.392  0.4679 -0.8651  0.2032
  134OSM   H13S14441   1.529   5.014   3.360 -0.5491 -0.5687 -3.5704
  134OSM   H13T14442   1.404   4.893   3.402 -1.5627 -1.0549 -3.7686
  134OSM   C14S14443   1.389   5.083   3.521 -0.2434 -0.1808 -0.0357
  134OSM   H14S14444   1.281   5.073   3.546  0.0956 -1.8392  0.8677
  134OSM   H14T14445   1.404   5.191   3.497 -2.3734 -0.4553 -3.0772
  134OSM   C15S14446   1.480   5.036   3.643 -0.1554 -0.7408 -0.3410
  134OSM   H15S14447   1.587   5.023   3.620  0.3469  0.9278  0.8803
  134OSM   H15T14448   1.438   4.938   3.676  0.1831 -1.0998 -0.9612
  134OSM   C16S14449   1.469   5.136   3.762 -0.4099  0.1995 -0.1499
  134OSM   H16S14450   1.363   5.171   3.761 -0.2400  0.7326 -1.1235
  134OSM   H16T14451   1.527   5.228   3.740  0.7681 -0.1859  1.1568
  134OSM   C17S14452   1.514   5.090   3.900  0.0461  0.0103 -0.4236
  134OSM   H17S14453   1.625   5.092   3.904  0.4110 -2.1894 -4.0823
  134OSM   H17T14454   1.490   4.981   3.904 -1.0551  0.2722  1.2155
  134OSM   C18S14455   1.462   5.173   4.009 -0.4730  0.4081  0.6195
  134OSM   H18S14456   1.355   5.165   4.036 -0.4397  0.1654  0.6861
  134OSM   H18T14457   1.475   5.280   3.985 -0.2240  0.1258 -0.5698
  134OSM   H18U14458   1.521   5.146   4.100 -1.5591 -1.0024  0.9417
  134OSM    C1F14459   1.397   5.096   2.426 -0.3298  0.6798  0.0079
  134OSM     OF14460   1.404   5.183   2.343  0.5295  0.1552  0.3273
  134OSM    C2F14461   1.478   5.090   2.549  0.1659 -0.7007  0.3009
  134OSM    H2F14462   1.564   5.021   2.533 -0.4850 -0.8850 -3.1102
  134OSM    H2G14463   1.411   5.036   2.620  0.6237 -3.3078 -1.1321
  134OSM    C3F14464   1.513   5.243   2.582  0.2295  0.0124 -0.3642
  134OSM    H3F14465   1.415   5.291   2.605  0.9639  1.9477 -1.0462
  134OSM    H3G14466   1.559   5.288   2.491 -1.5770 -3.1738 -3.0816
  134OSM    C4F14467   1.594   5.244   2.718  0.4327  0.2319  0.3290
  134OSM    H4F14468   1.700   5.229   2.686 -0.3650 -0.1049 -2.3445
  134OSM    H4G14469   1.564   5.150   2.770  0.2835 -0.8954 -1.6828
  134OSM    C5F14470   1.569   5.362   2.805  0.2225 -0.0213 -0.7680
  134OSM    H5F14471   1.473   5.350   2.860 -0.4096 -2.2896 -2.2478
  134OSM    H5G14472   1.552   5.457   2.750  1.3470  0.7211  0.1136
  134OSM    C6F14473   1.690   5.391   2.904 -1.1043  0.9642  0.3000
  134OSM    H6F14474   1.685   5.494   2.946  0.8675  2.6317 -3.1313
  134OSM    H6G14475   1.781   5.397   2.840 -2.2632  1.8736 -1.3364
  134OSM    C7F14476   1.688   5.286   3.016  0.4949 -0.1227  0.2082
  134OSM    H7F14477   1.671   5.183   2.978 -3.2160  0.2443  0.4748
  134OSM    H7G14478   1.588   5.303   3.063 -0.3998 -3.1757 -0.3625
  134OSM    C8F14479   1.814   5.300   3.114 -0.3453  0.6348 -0.1707
  134OSM    H8F14480   1.798   5.401   3.158 -0.9130  0.0422  1.0435
  134OSM    H8G14481   1.901   5.302   3.046  0.6508  0.5680  1.0743
  134OSM    C9F14482   1.812   5.203   3.229  0.2390 -0.2443 -0.3673
  134OSM    H9F14483   1.815   5.100   3.189 -0.4750 -0.3703 -0.1097
  134OSM   C10F14484   1.822   5.229   3.363 -0.2840 -0.2965  0.3735
  134OSM   H10F14485   1.803   5.148   3.435 -2.8763 -0.1483 -0.0507
  134OSM   C11F14486   1.818   5.368   3.419 -0.2328 -0.2537  0.5149
  134OSM   H11F14487   1.812   5.439   3.334 -1.0232 -3.3243 -2.2044
  134OSM   H11G14488   1.905   5.407   3.477 -0.0807  0.8149 -0.3888
  134OSM   C12F14489   1.696   5.386   3.513 -0.6894  0.2584 -0.3231
  134OSM   H12F14490   1.707   5.315   3.597  0.4282 -0.9759 -1.4779
  134OSM   H12G14491   1.603   5.373   3.454 -1.8521 -0.3177  1.5614
  134OSM   C13F14492   1.703   5.523   3.591 -0.7403  0.6778  0.0712
  134OSM   H13F14493   1.722   5.612   3.528  1.7124  0.2791  0.1757
  134OSM   H13G14494   1.783   5.522   3.668 -0.7357  0.6718  0.0663
  134OSM   C14F14495   1.574   5.540   3.663  0.7843  0.5887  0.2226
  134OSM   H14F14496   1.542   5.438   3.693  2.0808  0.2201  0.4025
  134OSM   H14G14497   1.508   5.580   3.583  0.6080 -1.4216 -0.6838
  134OSM   C15F14498   1.586   5.628   3.791 -0.2011  0.0093 -0.3356
  134OSM   H15F14499   1.637   5.721   3.755 -0.8672 -0.1798 -1.8284
  134OSM   H15G14500   1.665   5.587   3.858 -0.9740  0.8974  1.1732
  134OSM   C16F14501   1.457   5.664   3.864  0.1988 -0.3442 -0.6162
  134OSM   H16F14502   1.407   5.566   3.882  1.5434 -0.6671  1.7167
  134OSM   H16G14503   1.397   5.719   3.788  1.4774 -0.3831 -1.6867
  134OSM   C17F14504   1.454   5.745   3.991 -0.5381  0.0194  0.6023
  134OSM   H17F14505   1.367   5.707   4.050 -0.5498  0.0543  0.6078
  134OSM   H17G14506   1.438   5.853   3.969  3.1590  0.8784  1.4596
  134OSM   C18F14507   1.579   5.730   4.080  0.3049 -0.7273  0.5990
  134OSM   H18F14508   1.668   5.748   4.016  0.9946 -1.9985  1.1484
  134OSM   H18G14509   1.594   5.626   4.118  3.8072 -0.4419  0.3516
  134OSM   H18H14510   1.572   5.807   4.160 -0.7534 -0.7936  0.5767
  135OSM      N14511   3.059   2.357   1.959  0.1465 -0.2283 -0.0051
  135OSM    C1514512   3.152   2.258   1.895 -0.2091 -0.4052  0.8313
  135OSM   H15A14513   3.182   2.301   1.801  1.1351 -2.2854  0.3457
  135OSM   H15B14514   3.116   2.158   1.876 -0.3920 -0.4511  1.4216
  135OSM   H15C14515   3.243   2.249   1.951  2.0711  0.4402 -2.4663
  135OSM    C1414516   3.065   2.347   2.108  0.2011  0.3636 -0.2024
  135OSM   H14A14517   2.996   2.407   2.164 -0.4224 -0.2958 -0.2495
  135OSM   H14B14518   3.165   2.364   2.146  0.8543  0.1182 -1.7194
  135OSM   H14C14519   3.047   2.244   2.135  1.6685  0.0252 -0.4115
  135OSM    C1314520   3.112   2.492   1.921 -0.8322 -0.7566  0.0243
  135OSM   H13A14521   3.218   2.504   1.940 -0.5688  0.8398 -2.0655
  135OSM   H13B14522   3.065   2.564   1.986 -3.0001 -1.1926 -0.9694
  135OSM   H13C14523   3.084   2.522   1.821 -0.6016  0.0801  0.2013
  135OSM    C1214524   2.917   2.337   1.915  0.4684 -0.1435 -0.2371
  135OSM   H12A14525   2.883   2.248   1.965 -0.4437  0.1015 -0.3870
  135OSM   H12B14526   2.910   2.330   1.807  1.5031 -0.8521 -0.2735
  135OSM    C1114527   2.807   2.445   1.963  0.0699  0.0930  0.0501
  135OSM   H11A14528   2.803   2.451   2.074  1.4671 -3.2152  0.3837
  135OSM   H11B14529   2.708   2.413   1.923  0.3324 -1.2512  0.4128
  135OSM      P14530   2.751   2.690   1.957 -0.1064  0.0498  0.1827
  135OSM    O1314531   2.812   2.816   1.898 -0.2707  0.1400  0.4447
  135OSM    O1414532   2.609   2.660   1.934 -0.0637  0.1152 -0.3763
  135OSM    O1114533   2.781   2.694   2.116 -0.3252  0.6253  0.1709
  135OSM    O1214534   2.831   2.568   1.902 -0.2498 -0.3190  0.1324
  135OSM    C1S14535   2.885   2.761   2.185 -0.5428 -0.0072 -0.0280
  135OSM    H1S14536   2.886   2.868   2.157  0.0192 -0.6947 -2.9778
  135OSM    H1T14537   2.988   2.720   2.178  1.2916  4.0542  0.6590
  135OSM     NF14538   2.968   2.797   2.411  0.0492 -0.7427 -0.1030
  135OSM    HNF14539   3.041   2.731   2.426  1.2779  0.8119  0.9410
  135OSM    C2S14540   2.855   2.739   2.335 -0.5938 -0.0707 -0.4430
  135OSM    H2S14541   2.768   2.805   2.354  0.9916  1.9790  0.0957
  135OSM    C3S14542   2.833   2.591   2.383  0.1943 -0.0857  0.0480
  135OSM    H3S14543   2.924   2.531   2.363  1.1375  1.6998 -1.3310
  135OSM     O314544   2.725   2.523   2.311  0.1315 -0.1361 -0.0152
  135OSM    HO314545   2.697   2.584   2.242 -2.2633  0.1777  1.1210
  135OSM    C4S14546   2.806   2.595   2.526 -0.2021 -0.0523 -0.0148
  135OSM    H4S14547   2.707   2.636   2.552 -1.2258 -1.4682 -1.4472
  135OSM    C5S14548   2.894   2.558   2.617  0.2615  0.0779 -0.4001
  135OSM    H5S14549   2.994   2.520   2.591  0.3668 -0.9696  1.3619
  135OSM    C6S14550   2.870   2.570   2.767  0.6817 -0.3619  0.2759
  135OSM    H6S14551   2.953   2.609   2.830  1.5640 -3.1123  0.9710
  135OSM    H6T14552   2.863   2.469   2.813 -0.2826 -0.4457 -0.0394
  135OSM    C7S14553   2.753   2.658   2.810  0.6250 -0.2097 -0.1836
  135OSM    H7S14554   2.656   2.628   2.764  1.0933  1.0019 -2.0637
  135OSM    H7T14555   2.765   2.765   2.786  0.9590  0.0264  0.9602
  135OSM    C8S14556   2.739   2.650   2.963  0.7388  0.2025  0.9023
  135OSM    H8S14557   2.826   2.704   3.007  1.1006 -0.3833  0.9185
  135OSM    H8T14558   2.759   2.546   2.995  2.7458  0.5242  0.8153
  135OSM    C9S14559   2.609   2.709   3.020 -0.1936  0.1906  0.3198
  135OSM    H9S14560   2.527   2.654   2.969  0.0271 -0.1210  0.2981
  135OSM    H9T14561   2.603   2.814   2.983  0.6020  0.9392  2.1896
  135OSM   C10S14562   2.592   2.715   3.178  0.1036 -0.4435 -0.3481
  135OSM   H10S14563   2.680   2.763   3.226 -0.9496  1.7522 -0.4499
  135OSM   H10T14564   2.578   2.610   3.209 -1.5965 -0.6426 -1.6520
  135OSM   C11S14565   2.470   2.804   3.222  0.3186 -0.0422  1.1305
  135OSM   H11S14566   2.396   2.770   3.146  0.7565  1.3851  0.0313
  135OSM   H11T14567   2.490   2.911   3.201 -2.6915  0.4723  0.3839
  135OSM   C12S14568   2.429   2.780   3.363  0.2451 -0.5270 -0.5895
  135OSM   H12S14569   2.427   2.671   3.383  1.6161 -0.8302 -1.8777
  135OSM   H12T14570   2.323   2.813   3.364  0.6243  0.7834  0.9564
  135OSM   C13S14571   2.510   2.837   3.487 -0.2111 -0.3993 -0.0744
  135OSM   H13S14572   2.526   2.946   3.474  1.7836 -0.6652 -0.2987
  135OSM   H13T14573   2.614   2.797   3.484  0.6918  1.8332 -0.1360
  135OSM   C14S14574   2.436   2.821   3.619  0.0978  0.4990  0.2117
  135OSM   H14S14575   2.401   2.719   3.643 -0.8168  0.7681  0.0642
  135OSM   H14T14576   2.340   2.876   3.618  0.2505  0.7869 -1.2420
  135OSM   C15S14577   2.528   2.860   3.743 -0.0313 -0.8765  0.2541
  135OSM   H15S14578   2.569   2.957   3.709 -1.8478 -0.0020  0.4486
  135OSM   H15T14579   2.615   2.793   3.758  0.0470 -0.9196 -0.3503
  135OSM   C16S14580   2.446   2.857   3.869 -0.4003  0.6334 -0.0765
  135OSM   H16S14581   2.376   2.943   3.876 -0.1627  0.8226 -0.0287
  135OSM   H16T14582   2.510   2.862   3.960  0.8409 -1.1668 -0.7945
  135OSM   C17S14583   2.356   2.732   3.886 -0.2348 -0.2117  0.3222
  135OSM   H17S14584   2.427   2.646   3.887 -0.7113 -0.6193  1.4471
  135OSM   H17T14585   2.281   2.727   3.805  0.9347 -0.6152 -0.7636
  135OSM   C18S14586   2.290   2.713   4.025 -0.2366 -0.8690  0.2709
  135OSM   H18S14587   2.366   2.708   4.106  0.6597 -1.1849 -0.5725
  135OSM   H18T14588   2.239   2.615   4.018  0.4320 -1.2620  0.8118
  135OSM   H18U14589   2.222   2.798   4.047 -2.0255 -2.4753  1.1533
  135OSM    C1F14590   2.983   2.924   2.431 -0.6273 -0.4063  0.6787
  135OSM     OF14591   2.898   3.005   2.391 -0.0416  0.6125 -0.2190
  135OSM    C2F14592   3.112   2.967   2.499 -0.8522  0.1634 -0.1785
  135OSM    H2F14593   3.179   3.019   2.427  0.7787 -3.1271 -1.2319
  135OSM    H2G14594   3.178   2.881   2.524  0.9160  1.5351  0.1448
  135OSM    C3F14595   3.089   3.049   2.629 -0.0537 -0.1604  0.1685
  135OSM    H3F14596   3.009   3.125   2.622 -0.8060 -0.8536  0.9664
  135OSM    H3G14597   3.188   3.093   2.653 -0.5919  1.4787 -0.4900
  135OSM    C4F14598   3.060   2.962   2.752 -0.8294  0.5057  0.1255
  135OSM    H4F14599   3.134   2.880   2.763 -1.1169  0.1684 -0.4264
  135OSM    H4G14600   2.965   2.906   2.743  1.2751 -3.1255 -1.6638
  135OSM    C5F14601   3.062   3.038   2.887 -0.4148  0.0726 -0.4450
  135OSM    H5F14602   2.977   3.109   2.881  0.2701  1.1205  1.3106
  135OSM    H5G14603   3.155   3.099   2.880 -0.2668 -0.1154 -0.1319
  135OSM    C6F14604   3.048   2.953   3.019  0.8943 -0.0139 -0.0093
  135OSM    H6F14605   2.972   2.874   3.002 -0.0524  0.8053  0.2555
  135OSM    H6G14606   3.000   3.010   3.102 -0.6436 -1.0420 -0.1501
  135OSM    C7F14607   3.192   2.919   3.068  0.5036  0.3784  0.2133
  135OSM    H7F14608   3.250   3.012   3.054  0.1271  0.3649 -1.5933
  135OSM    H7G14609   3.229   2.838   3.002 -2.8036  0.2618 -1.7015
  135OSM    C8F14610   3.206   2.875   3.212  0.3474  0.9069 -0.3004
  135OSM    H8F14611   3.154   2.950   3.275 -1.2129 -0.3409 -0.0289
  135OSM    H8G14612   3.313   2.871   3.241 -0.5270 -0.7182  3.2662
  135OSM    C9F14613   3.132   2.744   3.231  0.7667 -0.3661 -0.3985
  135OSM    H9F14614   3.130   2.677   3.143 -1.8420 -1.2696  0.2524
  135OSM   C10F14615   3.060   2.694   3.337  0.3638  0.1856  0.0893
  135OSM   H10F14616   3.022   2.591   3.338  0.4008  0.1662 -0.4240
  135OSM   C11F14617   3.048   2.770   3.464  0.1220  0.0492  0.1759
  135OSM   H11F14618   3.102   2.866   3.450 -3.0855  1.6707 -2.3264
  135OSM   H11G14619   3.104   2.720   3.546 -2.3328  1.0180  2.6100
  135OSM   C12F14620   2.908   2.795   3.520  0.8030 -0.4236 -0.4297
  135OSM   H12F14621   2.869   2.693   3.540  1.0741 -0.4654 -0.1158
  135OSM   H12G14622   2.843   2.846   3.445 -0.2222 -0.7645  0.2044
  135OSM   C13F14623   2.911   2.898   3.634 -0.3075 -0.8670  0.0135
  135OSM   H13F14624   2.805   2.923   3.657 -0.5890  0.0194 -2.0985
  135OSM   H13G14625   2.954   2.991   3.591 -2.2926  0.0097 -0.1964
  135OSM   C14F14626   2.996   2.862   3.767 -0.6478 -0.0190  0.5281
  135OSM   H14F14627   2.977   2.954   3.826 -0.2390  1.0986 -1.0389
  135OSM   H14G14628   3.101   2.862   3.733 -0.9362 -0.3012 -0.4050
  135OSM   C15F14629   2.937   2.734   3.824  0.2219  0.4287 -0.9743
  135OSM   H15F14630   2.961   2.672   3.734 -1.6873  1.5153 -2.3047
  135OSM   H15G14631   2.826   2.740   3.832  0.4387  2.8796  3.0165
  135OSM   C16F14632   2.999   2.691   3.960 -0.1330 -0.7116 -0.0271
  135OSM   H16F14633   3.108   2.689   3.943  0.1863  0.5495  1.6423
  135OSM   H16G14634   2.969   2.586   3.981  0.5589 -0.5855  1.7631
  135OSM   C17F14635   2.962   2.785   4.076 -0.3633  0.0579  0.0651
  135OSM   H17F14636   2.999   2.886   4.049 -2.9063  1.0576  0.0351
  135OSM   H17G14637   3.023   2.758   4.165  1.9543  1.2856 -1.0752
  135OSM   C18F14638   2.815   2.782   4.113 -0.3233 -0.2244 -0.5083
  135OSM   H18F14639   2.792   2.674   4.129 -1.3765  0.0405 -0.1655
  135OSM   H18G14640   2.746   2.825   4.038 -0.2057 -0.1799 -0.5904
  135OSM   H18H14641   2.803   2.855   4.196  0.9505  2.6960 -2.7538
  136OSM      N14642   5.512   4.061   2.239 -0.2331 -0.0678 -0.6778
  136OSM    C1514643   5.401   4.149   2.284  0.3525  0.2069  0.1867
  136OSM   H15A14644   5.434   4.233   2.343  0.3529  1.5401 -1.6414
  136OSM   H15B14645   5.344   4.088   2.352  0.1333 -0.3726 -0.5062
  136OSM   H15C14646   5.346   4.182   2.198  1.5138  1.2105 -0.1913
  136OSM    C1414647   5.463   3.943   2.150 -0.6876  0.1717 -1.0796
  136OSM   H14A14648   5.420   3.979   2.057  2.5408 -1.3356 -3.3563
  136OSM   H14B14649   5.396   3.879   2.205  0.1322  1.6596  1.8132
  136OSM   H14C14650   5.553   3.890   2.121  0.7460  1.2854  1.0338
  136OSM    C1314651   5.598   4.150   2.164  0.1041  0.0065  0.1248
  136OSM   H13A14652   5.683   4.093   2.131  0.0387 -0.2946  0.4624
  136OSM   H13B14653   5.634   4.239   2.214  2.9298 -0.8941 -0.1503
  136OSM   H13C14654   5.547   4.187   2.077 -0.3642 -0.5521  0.1584
  136OSM    C1214655   5.593   4.009   2.359 -0.7001  0.1695 -0.1639
  136OSM   H12A14656   5.684   3.963   2.321  0.7689  1.0235  2.1291
  136OSM   H12B14657   5.541   3.924   2.400  1.6950 -1.2260  0.1680
  136OSM    C1114658   5.632   4.122   2.459 -0.1122  0.0919 -0.0236
  136OSM   H11A14659   5.689   4.070   2.539 -3.2423 -0.8173  1.7768
  136OSM   H11B14660   5.535   4.157   2.499 -0.0538  1.4909 -1.0073
  136OSM      P14661   5.700   4.370   2.490  0.1066 -0.1056 -0.1373
  136OSM    O1314662   5.803   4.470   2.449  0.1723 -0.7946  0.4730
  136OSM    O1414663   5.560   4.417   2.482 -0.0099  0.0280 -0.0694
  136OSM    O1114664   5.735   4.311   2.631 -0.2576 -0.6427 -0.1906
  136OSM    O1214665   5.705   4.233   2.398  0.0251 -0.0456 -0.2633
  136OSM    C1S14666   5.833   4.374   2.715 -0.7386 -0.0241 -0.1577
  136OSM    H1S14667   5.882   4.466   2.675  0.3044 -1.0721 -1.3966
  136OSM    H1T14668   5.912   4.299   2.736  0.8275  1.1020 -1.7298
  136OSM     NF14669   5.870   4.479   2.929  0.0231 -0.4780 -0.7147
  136OSM    HNF14670   5.936   4.428   2.984  1.3627 -0.6990 -2.4292
  136OSM    C2S14671   5.774   4.409   2.850  0.0956  0.0728  0.2116
  136OSM    H2S14672   5.678   4.460   2.827  1.5850  1.0545 -5.2831
  136OSM    C3S14673   5.722   4.282   2.924  0.1542 -0.8950  0.4409
  136OSM    H3S14674   5.816   4.233   2.959  0.7239  0.2709  0.5822
  136OSM     O314675   5.649   4.189   2.840  0.1346  0.0037  0.0048
  136OSM    HO314676   5.689   4.194   2.753 -1.6902  2.2706 -0.7933
  136OSM    C4S14677   5.646   4.325   3.041 -0.1778 -0.0102 -0.4335
  136OSM    H4S14678   5.711   4.314   3.129 -0.9157 -2.4508 -0.1142
  136OSM    C5S14679   5.520   4.370   3.051 -0.7969 -0.0655 -0.7159
  136OSM    H5S14680   5.455   4.363   2.962 -1.0692  1.6671 -0.6774
  136OSM    C6S14681   5.447   4.429   3.174  0.1925  0.4195  0.0570
  136OSM    H6S14682   5.341   4.394   3.179  0.5761 -0.7621  0.3169
  136OSM    H6T14683   5.457   4.539   3.182  1.8027  0.1732  2.3653
  136OSM    C7S14684   5.501   4.386   3.310 -0.0640 -0.1779  0.1945
  136OSM    H7S14685   5.610   4.411   3.311 -0.1522  0.2774 -0.9077
  136OSM    H7T14686   5.499   4.275   3.304  0.0425 -0.1768  0.1487
  136OSM    C8S14687   5.429   4.435   3.437 -0.3035  0.5936 -0.1103
  136OSM    H8S14688   5.332   4.381   3.444 -1.0291  1.8212 -0.3597
  136OSM    H8T14689   5.417   4.543   3.412 -1.4503  0.8736  1.4751
  136OSM    C9S14690   5.512   4.418   3.567  0.2383  0.5471  0.4404
  136OSM    H9S14691   5.613   4.458   3.544  0.8847 -1.2598  0.0043
  136OSM    H9T14692   5.524   4.312   3.598  0.8265  0.4721 -0.0135
  136OSM   C10S14693   5.463   4.497   3.686 -0.2962 -0.6567 -0.0199
  136OSM   H10S14694   5.518   4.458   3.774  0.0608 -0.6978 -0.2574
  136OSM   H10T14695   5.355   4.471   3.692 -1.4497  2.9255 -1.7790
  136OSM   C11S14696   5.482   4.650   3.679 -0.7217  0.5637 -0.4055
  136OSM   H11S14697   5.417   4.700   3.754  1.4351  3.2276 -0.1420
  136OSM   H11T14698   5.451   4.682   3.577 -0.3208  1.0051 -0.3924
  136OSM   C12S14699   5.621   4.692   3.720  0.4149  0.0564 -0.0234
  136OSM   H12S14700   5.696   4.655   3.648  1.3378 -0.8155  1.3424
  136OSM   H12T14701   5.642   4.644   3.818  1.7366 -0.1956 -0.4250
  136OSM   C13S14702   5.642   4.842   3.734 -0.4991 -0.0168 -0.1165
  136OSM   H13S14703   5.572   4.879   3.812 -1.1590 -0.1984 -0.6075
  136OSM   H13T14704   5.611   4.889   3.638 -3.0628 -0.5268  0.3920
  136OSM   C14S14705   5.787   4.870   3.786 -0.3444 -0.0276 -0.3940
  136OSM   H14S14706   5.852   4.833   3.704 -0.8318 -1.5450 -0.1121
  136OSM   H14T14707   5.803   4.798   3.869  0.7847  0.7806  0.1232
  136OSM   C15S14708   5.818   5.019   3.808 -0.4779  0.1600 -0.1221
  136OSM   H15S14709   5.897   5.027   3.885  0.1098 -1.0172 -0.5877
  136OSM   H15T14710   5.726   5.070   3.845  0.9188  2.6394  0.1609
  136OSM   C16S14711   5.868   5.099   3.681  0.1212  0.0679 -0.5762
  136OSM   H16S14712   5.870   5.207   3.705  0.8293 -0.0706  0.0566
  136OSM   H16T14713   5.795   5.089   3.598  0.2082 -1.3760 -0.5143
  136OSM   C17S14714   6.012   5.057   3.642  0.0211  0.3529 -0.5030
  136OSM   H17S14715   6.026   4.947   3.637 -0.2500  0.2837  0.1968
  136OSM   H17T14716   6.079   5.079   3.727  0.4629  1.6853 -1.1590
  136OSM   C18S14717   6.053   5.133   3.514  0.4631 -0.2985  0.0441
  136OSM   H18S14718   6.002   5.084   3.428  0.2827  0.3399 -0.2185
  136OSM   H18T14719   6.163   5.135   3.496  0.8291 -1.1792  1.9767
  136OSM   H18U14720   6.008   5.234   3.512  1.9033  0.7090  4.8931
  136OSM    C1F14721   5.896   4.608   2.905  0.2664  0.1023  0.0216
  136OSM     OF14722   5.841   4.668   2.812 -0.7750 -0.4293  0.6403
  136OSM    C2F14723   6.000   4.672   3.004  0.3656 -0.0599 -0.1415
  136OSM    H2F14724   6.097   4.686   2.952  1.1435  0.5998  1.4084
  136OSM    H2G14725   6.033   4.584   3.063 -3.1239 -0.8224  0.9461
  136OSM    C3F14726   5.953   4.785   3.094 -0.4024 -0.1795 -0.3454
  136OSM    H3F14727   5.958   4.878   3.033  2.1084 -1.7583 -2.8541
  136OSM    H3G14728   6.026   4.811   3.173  0.7327 -1.7779 -0.7918
  136OSM    C4F14729   5.816   4.757   3.147 -0.2850 -0.4739 -0.2152
  136OSM    H4F14730   5.776   4.657   3.122 -0.3297 -0.6353  0.4766
  136OSM    H4G14731   5.744   4.828   3.103 -0.8342 -0.5943  0.4801
  136OSM    C5F14732   5.799   4.757   3.305 -0.7694  0.8672  0.2982
  136OSM    H5F14733   5.690   4.737   3.317 -0.5578  0.5984  1.9275
  136OSM    H5G14734   5.815   4.865   3.326  0.9224  0.6676  0.1270
  136OSM    C6F14735   5.898   4.674   3.383  0.4107 -0.2137 -0.5318
  136OSM    H6F14736   5.886   4.703   3.490 -1.5271 -1.5380 -0.3305
  136OSM    H6G14737   6.001   4.701   3.351 -0.4239  1.1154 -2.2499
  136OSM    C7F14738   5.868   4.524   3.368  0.2284 -0.0528 -0.6038
  136OSM    H7F14739   5.865   4.495   3.261 -0.9506  1.5228 -1.0214
  136OSM    H7G14740   5.762   4.511   3.397  0.3963 -0.4787 -0.1592
  136OSM    C8F14741   5.971   4.433   3.446  0.3714 -0.4747 -0.2365
  136OSM    H8F14742   5.967   4.474   3.549  2.7282  3.3619 -1.4505
  136OSM    H8G14743   6.076   4.451   3.412  1.2133  0.1560  2.4384
  136OSM    C9F14744   5.924   4.287   3.439 -0.1274  0.7671  0.5503
  136OSM    H9F14745   5.875   4.267   3.343  0.3649  1.8913  0.0441
  136OSM   C10F14746   5.913   4.192   3.530 -0.2009 -0.7781 -0.4123
  136OSM   H10F14747   5.874   4.096   3.492  1.7722 -1.2814 -1.3387
  136OSM   C11F14748   5.952   4.208   3.679  0.1443 -0.0827  0.7758
  136OSM   H11F14749   6.038   4.278   3.688  0.6081 -0.4012 -0.9113
  136OSM   H11G14750   5.985   4.112   3.724  0.0995  0.1587  1.3355
  136OSM   C12F14751   5.838   4.258   3.765 -0.5994  1.2043 -0.5288
  136OSM   H12F14752   5.745   4.209   3.732 -0.9972  1.7591 -0.2449
  136OSM   H12G14753   5.833   4.367   3.746 -0.5457  1.5414  1.1697
  136OSM   C13F14754   5.871   4.231   3.917 -0.5128  0.6269  0.0068
  136OSM   H13F14755   5.951   4.299   3.954  0.8740 -0.4298 -0.9439
  136OSM   H13G14756   5.912   4.129   3.934 -2.4817  0.2675  3.7567
  136OSM   C14F14757   5.761   4.253   4.016 -0.0705  0.8092  0.7566
  136OSM   H14F14758   5.679   4.179   4.001 -1.0378  1.8617  0.7799
  136OSM   H14G14759   5.724   4.356   3.999 -1.1454  0.3127 -0.0378
  136OSM   C15F14760   5.813   4.237   4.159 -0.0718 -0.3465  0.3961
  136OSM   H15F14761   5.891   4.312   4.182 -0.7125  1.2041 -2.1097
  136OSM   H15G14762   5.873   4.145   4.178  1.8588  1.0745  1.5263
  136OSM   C16F14763   5.702   4.252   4.268 -0.2256  0.9264 -1.0182
  136OSM   H16F14764   5.660   4.149   4.277  1.7084  0.2658  1.6294
  136OSM   H16G14765   5.637   4.331   4.225 -0.3642  0.1958 -2.2044
  136OSM   C17F14766   5.760   4.302   4.404  0.2425 -0.0101 -0.0272
  136OSM   H17F14767   5.780   4.408   4.379  0.8816 -0.5965 -2.1695
  136OSM   H17G14768   5.857   4.251   4.420  0.8524  1.1809  0.1209
  136OSM   C18F14769   5.673   4.291   4.525  0.2779  0.3319  0.2743
  136OSM   H18F14770   5.703   4.364   4.603  0.4688  2.0524 -1.3557
  136OSM   H18G14771   5.666   4.184   4.556 -1.6849 -0.1110 -1.4451
  136OSM   H18H14772   5.574   4.328   4.493  1.4439  2.3841 -1.1376
  137OSM      N14773   4.782   3.227   2.188  0.4000 -0.2291  0.0599
  137OSM    C1514774   4.840   3.107   2.247  0.0843 -0.1066 -0.0932
  137OSM   H15A14775   4.853   3.110   2.354  0.6938  0.7946 -0.1907
  137OSM   H15B14776   4.932   3.088   2.195  0.4489  0.6390  0.2792
  137OSM   H15C14777   4.774   3.024   2.222  0.5288  0.0657 -1.9575
  137OSM    C1414778   4.735   3.185   2.047  0.5325 -1.1489  0.0423
  137OSM   H14A14779   4.644   3.128   2.060  0.6185 -1.4032 -0.4419
  137OSM   H14B14780   4.809   3.118   2.005  0.3188 -1.4344  0.1162
  137OSM   H14C14781   4.728   3.277   1.991 -0.6397 -1.0543  0.3213
  137OSM    C1314782   4.678   3.291   2.275 -0.3025  0.7880 -0.4648
  137OSM   H13A14783   4.639   3.377   2.222 -0.5469 -1.1780 -3.7404
  137OSM   H13B14784   4.715   3.316   2.373 -0.7086  0.6696 -0.2765
  137OSM   H13C14785   4.588   3.233   2.289 -0.1386  1.0191  2.1565
  137OSM    C1214786   4.900   3.331   2.172  0.5083  0.0436  0.5474
  137OSM   H12A14787   4.853   3.416   2.124  0.2389  0.1184  0.9334
  137OSM   H12B14788   4.975   3.282   2.113 -1.4114 -0.8733 -1.2815
  137OSM    C1114789   4.966   3.377   2.306  0.4281 -0.1545 -0.9160
  137OSM   H11A14790   5.067   3.422   2.296  0.3809  0.8180  2.0353
  137OSM   H11B14791   4.994   3.278   2.347  1.6338  0.7210  0.5024
  137OSM      P14792   4.868   3.609   2.386 -0.3034 -0.3450  0.3795
  137OSM    O1314793   4.995   3.676   2.350 -0.4149  0.5424 -0.3617
  137OSM    O1414794   4.752   3.630   2.294 -0.2530 -0.2198 -0.2078
  137OSM    O1114795   4.829   3.647   2.532 -0.7911 -0.0947 -0.2337
  137OSM    O1214796   4.885   3.453   2.399 -0.0236 -0.1507 -0.0548
  137OSM    C1S14797   4.774   3.548   2.622  0.2447  0.2479  0.3397
  137OSM    H1S14798   4.849   3.471   2.650 -1.0415 -0.6028  1.6172
  137OSM    H1T14799   4.690   3.485   2.585  1.5145 -2.1420  1.3016
  137OSM     NF14800   4.676   3.505   2.846 -0.0969  0.2968  0.8126
  137OSM    HNF14801   4.576   3.502   2.842 -0.0775 -0.8121  0.9324
  137OSM    C2S14802   4.731   3.610   2.761 -0.7841  0.4590  0.0996
  137OSM    H2S14803   4.822   3.660   2.800 -1.1613  0.9265  0.3767
  137OSM    C3S14804   4.633   3.732   2.731 -0.4021 -0.0133  0.3641
  137OSM    H3S14805   4.535   3.694   2.692  0.4467 -0.4835 -1.4369
  137OSM     O314806   4.664   3.824   2.632  0.3073  0.0585 -0.0383
  137OSM    HO314807   4.749   3.789   2.605  1.7390  0.6495  3.1511
  137OSM    C4S14808   4.590   3.805   2.867 -0.0612  0.6003  0.5590
  137OSM    H4S14809   4.533   3.740   2.934  0.7373 -0.9761 -0.2375
  137OSM    C5S14810   4.633   3.921   2.913 -0.4595 -0.2607 -0.9193
  137OSM    H5S14811   4.699   3.978   2.845 -0.2042  0.1263 -0.3561
  137OSM    C6S14812   4.609   3.978   3.055 -0.2249  0.6063 -0.1489
  137OSM    H6S14813   4.501   4.005   3.061  0.0285  2.1305 -1.8105
  137OSM    H6T14814   4.649   4.080   3.074 -0.9694  1.0345 -0.8085
  137OSM    C7S14815   4.619   3.880   3.183 -0.1825  0.4282  0.4300
  137OSM    H7S14816   4.725   3.850   3.191  0.1347  1.9543  3.2193
  137OSM    H7T14817   4.560   3.787   3.168  0.5194 -0.4596  2.8055
  137OSM    C8S14818   4.572   3.942   3.309  0.0149  0.6516 -0.4775
  137OSM    H8S14819   4.463   3.962   3.307 -0.9480 -3.7161 -1.8765
  137OSM    H8T14820   4.631   4.035   3.324  1.1432  0.2270 -2.0352
  137OSM    C9S14821   4.597   3.844   3.425  0.4868  0.3546  0.3042
  137OSM    H9S14822   4.696   3.795   3.430  0.9503  1.3776  3.0140
  137OSM    H9T14823   4.519   3.765   3.415  0.2195  0.8930 -3.1057
  137OSM   C10S14824   4.575   3.899   3.563  0.2231 -0.1300 -0.5407
  137OSM   H10S14825   4.478   3.952   3.570  0.2838 -0.1759  0.9566
  137OSM   H10T14826   4.642   3.978   3.603 -1.6821  1.2409  0.0524
  137OSM   C11S14827   4.562   3.791   3.667  0.1385 -0.3680 -0.3260
  137OSM   H11S14828   4.651   3.726   3.657 -1.8731 -3.3237 -0.3104
  137OSM   H11T14829   4.483   3.720   3.633  1.0662 -1.6506  0.1410
  137OSM   C12S14830   4.560   3.833   3.813 -0.0560  0.4716  0.4785
  137OSM   H12S14831   4.469   3.893   3.832 -1.8449 -1.7495 -0.5716
  137OSM   H12T14832   4.648   3.900   3.823 -0.9456  1.8480 -0.5310
  137OSM   C13S14833   4.562   3.719   3.917 -0.1958 -0.0870  0.0803
  137OSM   H13S14834   4.658   3.663   3.916 -0.4269 -0.5967  1.9407
  137OSM   H13T14835   4.478   3.655   3.883 -0.7136  1.9191 -2.8163
  137OSM   C14S14836   4.543   3.776   4.056 -0.0557 -0.4341 -1.0089
  137OSM   H14S14837   4.448   3.833   4.051 -1.6574 -3.0007 -2.4771
  137OSM   H14T14838   4.626   3.849   4.065  2.0068 -2.7339 -0.3216
  137OSM   C15S14839   4.513   3.669   4.168 -0.4042 -0.5727  0.0367
  137OSM   H15S14840   4.607   3.618   4.200  0.6895  0.4903 -1.3126
  137OSM   H15T14841   4.439   3.590   4.144 -1.9833  0.3044  1.7768
  137OSM   C16S14842   4.474   3.731   4.303 -0.4297 -0.3962 -0.1488
  137OSM   H16S14843   4.538   3.821   4.314  0.5906 -0.8830 -1.6782
  137OSM   H16T14844   4.496   3.659   4.384  1.2175 -0.2868 -0.4688
  137OSM   C17S14845   4.328   3.776   4.320  0.0150 -0.0295  0.7349
  137OSM   H17S14846   4.260   3.700   4.275  0.7424 -0.4353  0.2977
  137OSM   H17T14847   4.326   3.869   4.260 -1.4170 -1.0395 -0.8857
  137OSM   C18S14848   4.304   3.808   4.467 -0.3591  0.2019  1.0479
  137OSM   H18S14849   4.288   3.720   4.533 -0.7846 -2.0418 -1.8331
  137OSM   H18T14850   4.220   3.879   4.483  0.0730  1.2085 -0.9079
  137OSM   H18U14851   4.385   3.872   4.508 -2.1229  2.8227  0.7208
  137OSM    C1F14852   4.746   3.399   2.892  0.4373 -0.5552 -0.6379
  137OSM     OF14853   4.867   3.400   2.904 -0.1732  0.2596  0.3870
  137OSM    C2F14854   4.666   3.277   2.919  0.3898 -0.2661 -0.1785
  137OSM    H2F14855   4.722   3.193   2.874  0.6715 -0.3334  0.2947
  137OSM    H2G14856   4.566   3.295   2.873  0.3773 -0.7886 -0.3580
  137OSM    C3F14857   4.641   3.247   3.068  0.2045 -0.0020 -0.0068
  137OSM    H3F14858   4.738   3.213   3.110 -1.3507 -1.7294  2.4226
  137OSM    H3G14859   4.560   3.172   3.071 -1.8187  2.0498 -0.0571
  137OSM    C4F14860   4.596   3.368   3.156  0.3801  0.1109 -0.0527
  137OSM    H4F14861   4.517   3.430   3.109  1.7491  0.6141 -1.8203
  137OSM    H4G14862   4.686   3.424   3.187  0.1802  1.3544 -1.5616
  137OSM    C5F14863   4.536   3.309   3.289  0.3387 -0.3771 -0.4471
  137OSM    H5F14864   4.621   3.253   3.334  1.2078  2.0470  1.1276
  137OSM    H5G14865   4.446   3.245   3.280 -0.7971  1.1835 -0.4826
  137OSM    C6F14866   4.496   3.418   3.398 -0.8408  0.1985 -0.1337
  137OSM    H6F14867   4.406   3.478   3.372 -0.7729  1.2155  1.7995
  137OSM    H6G14868   4.584   3.486   3.406 -0.0012 -0.8575 -0.2554
  137OSM    C7F14869   4.465   3.355   3.533 -0.2708  0.4910 -0.2707
  137OSM    H7F14870   4.536   3.271   3.546 -0.3216  0.4266 -0.4071
  137OSM    H7G14871   4.363   3.316   3.516  0.7098 -0.7790 -4.3389
  137OSM    C8F14872   4.476   3.451   3.652 -0.2837 -0.0214  0.4464
  137OSM    H8F14873   4.396   3.528   3.640 -0.9736 -0.6872  0.7147
  137OSM    H8G14874   4.574   3.502   3.645  0.8951 -1.8050  2.5862
  137OSM    C9F14875   4.454   3.391   3.785 -0.3236  0.4958 -0.2318
  137OSM    H9F14876   4.355   3.402   3.831  0.0520  0.7358  0.5305
  137OSM   C10F14877   4.549   3.320   3.849  0.4439 -0.2563 -0.2200
  137OSM   H10F14878   4.526   3.282   3.950 -0.0980  0.3080 -0.1215
  137OSM   C11F14879   4.689   3.294   3.796  0.1750 -0.1724  0.0376
  137OSM   H11F14880   4.690   3.272   3.687  1.3902  2.6258 -0.6049
  137OSM   H11G14881   4.737   3.206   3.844 -0.2430 -0.3054  0.2201
  137OSM   C12F14882   4.791   3.403   3.808  0.2306 -0.0508 -0.2189
  137OSM   H12F14883   4.750   3.497   3.767  0.6678 -0.1568 -0.9205
  137OSM   H12G14884   4.882   3.388   3.746  0.5486  1.1309 -0.0592
  137OSM   C13F14885   4.834   3.411   3.955  0.4659  0.3810 -0.2284
  137OSM   H13F14886   4.742   3.418   4.018 -0.8253  0.4717 -2.0323
  137OSM   H13G14887   4.890   3.506   3.967  1.4684 -0.0165 -1.5231
  137OSM   C14F14888   4.923   3.304   4.011  0.6566 -0.1428  0.2515
  137OSM   H14F14889   4.990   3.258   3.936 -0.4828 -1.5079  0.0359
  137OSM   H14G14890   4.859   3.221   4.049  2.0876 -0.2645  2.6315
  137OSM   C15F14891   5.007   3.351   4.128  0.7115 -0.3615  0.3362
  137OSM   H15F14892   5.077   3.427   4.087  0.9555  0.0610  1.5120
  137OSM   H15G14893   5.068   3.265   4.162  0.6975 -0.0104  1.2769
  137OSM   C16F14894   4.935   3.409   4.248 -0.3368 -0.6639  0.2858
  137OSM   H16F14895   4.855   3.345   4.292 -0.9008 -0.7337 -0.8070
  137OSM   H16G14896   4.867   3.493   4.223 -2.8234 -1.7507  2.7918
  137OSM   C17F14897   5.028   3.464   4.359  0.3316 -0.4015  0.3611
  137OSM   H17F14898   5.111   3.391   4.366  2.5030  2.0451  1.9951
  137OSM   H17G14899   4.976   3.464   4.457  0.5517  0.4104  0.4881
  137OSM   C18F14900   5.092   3.602   4.325  0.7108  0.0183 -0.5669
  137OSM   H18F14901   5.011   3.677   4.335  0.5966 -0.2243  0.4769
  137OSM   H18G14902   5.126   3.600   4.219 -2.9659  0.7542 -1.8968
  137OSM   H18H14903   5.167   3.626   4.403 -0.3926 -1.3804  0.9979
  138OSM      N14904   2.488   4.540   2.317  0.0221 -0.2555  0.0248
  138OSM    C1514905   2.444   4.521   2.462  0.0540  0.3500  0.0025
  138OSM   H15A14906   2.499   4.586   2.528  1.0392  1.5572 -1.9408
  138OSM   H15B14907   2.464   4.419   2.492 -1.6103  0.5174  1.9317
  138OSM   H15C14908   2.338   4.540   2.470 -0.0836 -0.6151  0.7715
  138OSM    C1414909   2.642   4.527   2.320 -0.4967 -0.0899  0.8593
  138OSM   H14A14910   2.663   4.427   2.353 -1.1150 -0.4549  0.1659
  138OSM   H14B14911   2.685   4.592   2.395 -0.0038  2.3468 -1.3857
  138OSM   H14C14912   2.691   4.544   2.225  1.8193  0.0888  1.9933
  138OSM    C1314913   2.430   4.444   2.233  0.1871 -0.0073  1.0621
  138OSM   H13A14914   2.454   4.470   2.131 -0.4254  0.8242  1.1214
  138OSM   H13B14915   2.322   4.445   2.238  0.0497  0.4038 -0.9745
  138OSM   H13C14916   2.462   4.345   2.261  0.5808 -0.4178 -0.7169
  138OSM    C1214917   2.450   4.678   2.266 -0.7646 -0.7661 -0.9499
  138OSM   H12A14918   2.488   4.687   2.165 -2.3551  1.8754 -1.4223
  138OSM   H12B14919   2.490   4.755   2.330 -2.8096  1.3464 -2.0303
  138OSM    C1114920   2.302   4.711   2.257 -0.7407 -0.5430 -0.4549
  138OSM   H11A14921   2.263   4.649   2.174 -0.9466 -0.7948 -0.1755
  138OSM   H11B14922   2.292   4.816   2.224 -1.5135 -1.3616 -3.0140
  138OSM      P14923   2.068   4.695   2.366 -0.6279  0.2102  0.0731
  138OSM    O1314924   2.019   4.829   2.321  0.8913 -0.7316  0.5413
  138OSM    O1414925   2.020   4.572   2.297 -0.0665 -0.1687  0.5249
  138OSM    O1114926   2.029   4.687   2.518 -0.0165 -0.1789  0.0181
  138OSM    O1214927   2.230   4.693   2.379 -0.5612 -0.1703 -0.2362
  138OSM    C1S14928   2.088   4.787   2.599  0.8243 -0.3630 -0.6976
  138OSM    H1S14929   2.021   4.876   2.601 -0.7864 -1.4764  2.8617
  138OSM    H1T14930   2.193   4.810   2.573  1.2245  0.2674  1.2828
  138OSM     NF14931   2.135   4.857   2.826 -0.1830 -0.5177 -0.0723
  138OSM    HNF14932   2.234   4.859   2.826 -0.1658 -1.1881 -0.4332
  138OSM    C2S14933   2.085   4.746   2.750 -0.2728  0.3238 -0.5551
  138OSM    H2S14934   1.977   4.731   2.771 -0.4166 -0.3850 -1.7682
  138OSM    C3S14935   2.153   4.610   2.767  0.1116 -0.0925 -0.9337
  138OSM    H3S14936   2.254   4.621   2.722  0.2442  0.6197 -0.4769
  138OSM     O314937   2.093   4.504   2.695 -0.6111 -0.2018  0.0968
  138OSM    HO314938   2.041   4.550   2.628 -3.6327 -3.0750  0.2464
  138OSM    C4S14939   2.152   4.587   2.915 -0.1007  0.5614  0.4440
  138OSM    H4S14940   2.248   4.614   2.961 -0.8817  4.6532  0.1032
  138OSM    C5S14941   2.048   4.523   2.975  0.3107 -0.2579 -0.8405
  138OSM    H5S14942   1.962   4.499   2.910 -2.3609  2.9978  1.1991
  138OSM    C6S14943   2.040   4.488   3.124 -0.2671  0.3477  0.0840
  138OSM    H6S14944   2.074   4.384   3.144  0.7571  0.1097 -2.4776
  138OSM    H6T14945   1.934   4.494   3.155  0.3483  1.9225  2.1405
  138OSM    C7S14946   2.135   4.565   3.215  0.0523  0.7211 -0.0413
  138OSM    H7S14947   2.103   4.671   3.221  2.5569  1.5350  0.2464
  138OSM    H7T14948   2.239   4.572   3.176 -0.9568  1.4788 -2.8722
  138OSM    C8S14949   2.141   4.494   3.347 -0.8402 -0.1096 -0.0062
  138OSM    H8S14950   2.161   4.385   3.340  0.3145  0.1868 -2.2814
  138OSM    H8T14951   2.043   4.496   3.399 -0.0473  0.4665  1.5373
  138OSM    C9S14952   2.252   4.548   3.441  0.2670  0.5013  0.7743
  138OSM    H9S14953   2.241   4.659   3.442 -2.6759  0.3503 -1.5780
  138OSM    H9T14954   2.357   4.516   3.423  0.4983  0.5422  1.9348
  138OSM   C10S14955   2.228   4.501   3.586  0.1178  0.4076 -0.0477
  138OSM   H10S14956   2.225   4.391   3.603 -0.4023  0.8388  3.3058
  138OSM   H10T14957   2.130   4.545   3.614  0.5712  0.5410  1.4009
  138OSM   C11S14958   2.317   4.557   3.697 -0.7413 -1.0162 -0.4936
  138OSM   H11S14959   2.312   4.666   3.674 -0.5326 -0.7407  0.7044
  138OSM   H11T14960   2.421   4.518   3.692 -0.6879 -1.2559  1.6466
  138OSM   C12S14961   2.256   4.545   3.835  0.0983 -0.1216  0.3353
  138OSM   H12S14962   2.280   4.440   3.861 -1.4133 -0.7273 -0.5570
  138OSM   H12T14963   2.145   4.538   3.822  0.3213 -1.7488 -0.9423
  138OSM   C13S14964   2.303   4.648   3.939 -0.3594 -0.5904  0.4151
  138OSM   H13S14965   2.242   4.741   3.934  1.3887  0.5468 -2.3061
  138OSM   H13T14966   2.407   4.675   3.911 -0.4990  0.1255  0.5793
  138OSM   C14S14967   2.299   4.592   4.078  0.1296  0.5888  0.3196
  138OSM   H14S14968   2.360   4.499   4.080 -0.2087  0.3605  0.0827
  138OSM   H14T14969   2.197   4.555   4.099  0.2753 -1.7605 -2.4528
  138OSM   C15S14970   2.334   4.687   4.187  0.6374  0.5169 -0.3430
  138OSM   H15S14971   2.279   4.782   4.172  1.1138  0.7800 -0.4517
  138OSM   H15T14972   2.441   4.718   4.175  0.7230  0.2893 -0.1721
  138OSM   C16S14973   2.326   4.626   4.326  0.3964 -0.2642  0.4598
  138OSM   H16S14974   2.231   4.570   4.331 -0.3515  0.9579  0.3287
  138OSM   H16T14975   2.325   4.713   4.395 -3.0668 -0.4899  0.8693
  138OSM   C17S14976   2.464   4.558   4.375  0.7656  0.0036  0.4507
  138OSM   H17S14977   2.531   4.646   4.368  0.1266  0.6447  1.8671
  138OSM   H17T14978   2.491   4.474   4.307  2.9796  1.1736 -0.2040
  138OSM   C18S14979   2.444   4.522   4.518  0.1452 -0.3942  0.6953
  138OSM   H18S14980   2.545   4.507   4.561 -0.0379  0.5375  1.4778
  138OSM   H18T14981   2.387   4.429   4.540 -0.0826 -0.0098  1.7714
  138OSM   H18U14982   2.404   4.607   4.577  2.5931  0.3114  1.4729
  138OSM    C1F14983   2.076   4.970   2.854  0.1239  0.5449  0.3078
  138OSM     OF14984   1.955   4.977   2.856  0.3220 -0.1464  0.4704
  138OSM    C2F14985   2.165   5.086   2.877  0.3720 -0.2460 -0.0772
  138OSM    H2F14986   2.102   5.179   2.877  0.4292 -0.2034  0.4466
  138OSM    H2G14987   2.223   5.115   2.787 -2.1338  0.8176 -1.4615
  138OSM    C3F14988   2.251   5.070   3.010  0.5094  0.4791 -0.0571
  138OSM    H3F14989   2.321   5.157   3.008  0.3864  0.5715 -1.6301
  138OSM    H3G14990   2.305   4.974   3.004 -0.6528 -0.3372  1.7056
  138OSM    C4F14991   2.168   5.059   3.132  0.3942 -0.5305  0.4093
  138OSM    H4F14992   2.106   4.967   3.117  0.6646 -0.8117  0.9591
  138OSM    H4G14993   2.102   5.148   3.128  3.0970  1.5512 -0.1565
  138OSM    C5F14994   2.250   5.051   3.259 -0.0085 -0.2099 -0.0829
  138OSM    H5F14995   2.189   5.067   3.350  2.1576 -1.1152  1.6064
  138OSM    H5G14996   2.318   5.139   3.248 -0.4410  0.3035  1.1460
  138OSM    C6F14997   2.336   4.921   3.282  0.1936  0.0096  0.2491
  138OSM    H6F14998   2.432   4.952   3.234  1.1181 -3.2551 -0.2559
  138OSM    H6G14999   2.298   4.837   3.220  2.4772 -0.6678 -0.3371
  138OSM    C7F15000   2.353   4.877   3.425  0.0168 -0.4509  0.7029
  138OSM    H7F15001   2.405   4.780   3.407 -0.1385  0.0707 -3.8004
  138OSM    H7G15002   2.260   4.855   3.482 -1.0474  1.0563 -0.3939
  138OSM    C8F15003   2.444   4.973   3.510  0.1113  0.0555 -0.3559
  138OSM    H8F15004   2.389   5.063   3.545 -0.3243 -0.7085  0.9735
  138OSM    H8G15005   2.522   5.008   3.439 -0.4631  0.6628 -0.6957
  138OSM    C9F15006   2.509   4.886   3.619 -0.5488 -0.1988 -0.0482
  138OSM    H9F15007   2.574   4.808   3.576 -0.5484 -0.4384  0.3811
  138OSM   C10F15008   2.495   4.906   3.747 -0.0646 -0.7385 -0.0711
  138OSM   H10F15009   2.550   4.838   3.814 -1.3577 -0.4680  1.3373
  138OSM   C11F15010   2.418   5.013   3.817  0.1918 -0.0789  0.7760
  138OSM   H11F15011   2.315   5.000   3.778  0.2544 -3.2628  1.3647
  138OSM   H11G15012   2.466   5.112   3.799 -2.3998  1.6022  2.4770
  138OSM   C12F15013   2.427   4.994   3.972 -0.4597 -0.0041 -0.0554
  138OSM   H12F15014   2.386   4.893   3.994 -0.1905 -0.5064 -1.7199
  138OSM   H12G15015   2.363   5.076   4.010 -1.4743 -0.8025  0.0013
  138OSM   C13F15016   2.572   5.006   4.017  0.1078  0.3461 -0.2206
  138OSM   H13F15017   2.617   5.082   3.950 -3.0348  1.1178 -1.6209
  138OSM   H13G15018   2.628   4.910   4.019  1.9441  1.3759 -0.1147
  138OSM   C14F15019   2.604   5.064   4.158  0.3602  0.6745 -0.3830
  138OSM   H14F15020   2.550   5.161   4.168 -0.9025 -0.2447  2.5692
  138OSM   H14G15021   2.714   5.079   4.170  0.5985 -1.8695  1.3048
  138OSM   C15F15022   2.561   4.968   4.273  0.2596 -0.6156  0.3990
  138OSM   H15F15023   2.603   4.866   4.255 -0.7763 -0.7455 -1.6033
  138OSM   H15G15024   2.452   4.951   4.261  0.3406  0.1287 -2.0589
  138OSM   C16F15025   2.597   5.019   4.412  0.6140  0.4251 -0.0232
  138OSM   H16F15026   2.527   5.093   4.455 -1.3053 -1.6715  0.6457
  138OSM   H16G15027   2.693   5.075   4.417  0.7292  0.2248  0.0012
  138OSM   C17F15028   2.612   4.908   4.517  0.1175  0.3847  0.4182
  138OSM   H17F15029   2.683   4.835   4.472 -0.2275  0.7192 -0.6829
  138OSM   H17G15030   2.514   4.858   4.526  0.5386 -2.0279 -4.7681
  138OSM   C18F15031   2.653   4.959   4.654  0.0283 -0.1428  0.4485
  138OSM   H18F15032   2.757   4.998   4.654 -0.2600  0.8422  3.2286
  138OSM   H18G15033   2.660   4.874   4.725  0.8218 -0.9547 -0.5638
  138OSM   H18H15034   2.600   5.048   4.693  0.4818 -0.6730  2.3599
  139OSM      N15035   5.505   2.277   2.279  0.5467 -0.2612 -0.5996
  139OSM    C1515036   5.361   2.320   2.279 -0.9697 -0.1703  0.2189
  139OSM   H15A15037   5.292   2.292   2.200 -1.8954  2.1454  0.1172
  139OSM   H15B15038   5.351   2.427   2.271  0.7342 -0.0335 -0.6509
  139OSM   H15C15039   5.333   2.279   2.375  1.0798 -2.9419 -0.2301
  139OSM    C1415040   5.510   2.124   2.292 -0.4318 -1.3500 -0.2058
  139OSM   H14A15041   5.481   2.101   2.394 -1.4434 -2.1068 -0.6456
  139OSM   H14B15042   5.606   2.083   2.265  0.0656 -0.6657  0.4699
  139OSM   H14C15043   5.433   2.073   2.235 -0.4091 -1.2352 -0.3382
  139OSM    C1315044   5.568   2.325   2.156 -0.1180 -0.0936  0.0226
  139OSM   H13A15045   5.543   2.430   2.166 -0.3467 -0.2873  1.6277
  139OSM   H13B15046   5.520   2.305   2.061  0.2985 -1.4417  0.0825
  139OSM   H13C15047   5.676   2.317   2.158 -0.0015 -1.6255 -3.7054
  139OSM    C1215048   5.573   2.341   2.412 -1.0463 -0.3438  0.6232
  139OSM   H12A15049   5.677   2.318   2.394 -0.7226  2.0248 -0.9595
  139OSM   H12B15050   5.524   2.289   2.494 -0.6501 -1.4136  0.1986
  139OSM    C1115051   5.569   2.492   2.428  0.6128 -0.2896  0.0639
  139OSM   H11A15052   5.614   2.512   2.528  1.2707 -0.8674 -0.1151
  139OSM   H11B15053   5.462   2.521   2.423  0.6559 -0.3531 -3.7682
  139OSM      P15054   5.640   2.715   2.330  0.4137  0.1713  0.3712
  139OSM    O1315055   5.727   2.757   2.218 -0.4086  0.0574 -0.1009
  139OSM    O1415056   5.499   2.758   2.323  0.2595 -0.4672  0.8191
  139OSM    O1115057   5.709   2.760   2.463  0.3868 -0.2772 -0.5727
  139OSM    O1215058   5.644   2.554   2.329  0.0219  0.5337  0.0299
  139OSM    C1S15059   5.824   2.686   2.516  0.1848 -0.4451  0.4633
  139OSM    H1S15060   5.914   2.712   2.457 -1.0603 -0.9544 -1.7849
  139OSM    H1T15061   5.811   2.576   2.502  1.1428 -0.5609  0.4353
  139OSM     NF15062   5.977   2.647   2.711  0.0921  0.4426  0.2370
  139OSM    HNF15063   5.967   2.552   2.739 -0.1181  0.0911 -0.9934
  139OSM    C2S15064   5.852   2.714   2.665 -0.3313 -0.2892 -0.1040
  139OSM    H2S15065   5.864   2.824   2.677  0.8200 -0.3578 -0.4351
  139OSM    C3S15066   5.723   2.679   2.742 -0.1220 -0.4965 -0.0247
  139OSM    H3S15067   5.694   2.574   2.723 -1.5799  0.1522 -1.6609
  139OSM     O315068   5.617   2.775   2.723  0.0203  0.2672  0.4024
  139OSM    HO315069   5.633   2.811   2.635  0.5720 -0.6069  0.1423
  139OSM    C4S15070   5.762   2.698   2.886  0.3970  0.0878 -0.4881
  139OSM    H4S15071   5.797   2.800   2.907  0.5715 -0.0379 -0.1665
  139OSM    C5S15072   5.762   2.616   2.991 -0.2680 -0.2784  0.7031
  139OSM    H5S15073   5.728   2.512   2.979  0.9164 -0.4535 -1.6648
  139OSM    C6S15074   5.816   2.656   3.130 -0.0430 -0.1643  0.4988
  139OSM    H6S15075   5.879   2.746   3.114 -2.7083  1.5156 -1.3952
  139OSM    H6T15076   5.895   2.580   3.151  1.4076 -0.2324 -4.0630
  139OSM    C7S15077   5.706   2.676   3.242  0.3618  0.1436 -0.1222
  139OSM    H7S15078   5.635   2.591   3.246  2.9433 -2.1546 -0.1606
  139OSM    H7T15079   5.649   2.768   3.215  0.8663  0.5835  0.2902
  139OSM    C8S15080   5.779   2.691   3.373 -0.6426  0.3158 -0.4671
  139OSM    H8S15081   5.830   2.790   3.378  0.2266 -0.1591  0.7729
  139OSM    H8T15082   5.867   2.622   3.374 -0.9770 -0.1166  0.0922
  139OSM    C9S15083   5.704   2.660   3.504  0.2418 -0.7600 -0.0200
  139OSM    H9S15084   5.764   2.685   3.594 -1.7451  1.4576  0.7941
  139OSM    H9T15085   5.679   2.552   3.507  0.5593 -0.8199  1.8021
  139OSM   C10S15086   5.572   2.738   3.510  0.4623  0.1463 -0.0058
  139OSM   H10S15087   5.513   2.715   3.601 -1.4094  1.4047 -0.8385
  139OSM   H10T15088   5.504   2.723   3.424  0.8384  1.8662 -0.6598
  139OSM   C11S15089   5.591   2.886   3.555  0.0045 -0.0943 -0.1345
  139OSM   H11S15090   5.632   2.928   3.461  1.4585  1.2206  1.0080
  139OSM   H11T15091   5.666   2.899   3.636 -1.5684  2.5108  1.0582
  139OSM   C12S15092   5.462   2.944   3.606  0.0934 -0.2015  0.0745
  139OSM   H12S15093   5.427   2.865   3.675 -0.3984  0.0793  0.1559
  139OSM   H12T15094   5.389   2.957   3.523  0.4389 -0.9769 -0.3533
  139OSM   C13S15095   5.478   3.089   3.673  0.0968  0.2674  0.0921
  139OSM   H13S15096   5.534   3.151   3.600  0.0476  0.4080  0.1723
  139OSM   H13T15097   5.547   3.095   3.760  2.9999 -4.4064 -1.5367
  139OSM   C14S15098   5.347   3.146   3.720  0.0271 -0.0325  1.0691
  139OSM   H14S15099   5.309   3.099   3.814 -0.6355  2.7073  2.2649
  139OSM   H14T15100   5.277   3.119   3.638 -2.4773  0.9571  2.7575
  139OSM   C15S15101   5.332   3.300   3.729 -0.0675  0.0555 -0.4067
  139OSM   H15S15102   5.238   3.341   3.687  0.7084  1.0535 -1.2529
  139OSM   H15T15103   5.420   3.340   3.673 -0.6545  0.5476 -0.9991
  139OSM   C16S15104   5.356   3.366   3.863 -0.6020  0.5185  0.1898
  139OSM   H16S15105   5.458   3.337   3.894  0.3293  1.3727 -1.9178
  139OSM   H16T15106   5.280   3.347   3.942 -1.0729  1.5500  0.0017
  139OSM   C17S15107   5.351   3.519   3.854 -0.7113  0.1353  0.2308
  139OSM   H17S15108   5.243   3.540   3.840 -0.8710  2.3027  3.5176
  139OSM   H17T15109   5.393   3.568   3.764 -1.1885 -0.4258 -0.3134
  139OSM   C18S15110   5.382   3.580   3.991 -0.7776 -0.2905  0.6381
  139OSM   H18S15111   5.334   3.527   4.077  0.4152 -1.4910  0.5878
  139OSM   H18T15112   5.344   3.685   3.991 -2.4052 -0.8258 -0.9362
  139OSM   H18U15113   5.492   3.574   4.005 -0.2329 -1.2876 -3.1835
  139OSM    C1F15114   6.095   2.688   2.678 -0.2111 -0.0237 -0.4616
  139OSM     OF15115   6.111   2.801   2.637  0.7283 -0.1021 -0.2227
  139OSM    C2F15116   6.205   2.594   2.706  0.8628  0.1849 -0.0900
  139OSM    H2F15117   6.277   2.593   2.620  1.1733  1.0920  0.1457
  139OSM    H2G15118   6.173   2.488   2.704  3.4382 -0.6655 -0.6006
  139OSM    C3F15119   6.284   2.626   2.837  0.4333 -1.0427 -0.6377
  139OSM    H3F15120   6.320   2.730   2.827 -4.9007  0.9255 -2.5471
  139OSM    H3G15121   6.380   2.570   2.848  0.7043 -0.5891 -0.6853
  139OSM    C4F15122   6.209   2.617   2.969  0.5931  0.0723  0.2198
  139OSM    H4F15123   6.165   2.515   2.978  0.9442 -0.0689  0.3603
  139OSM    H4G15124   6.122   2.685   2.970  0.2427 -0.3702  1.0882
  139OSM    C5F15125   6.295   2.651   3.090 -0.2960  0.1821 -0.3764
  139OSM    H5F15126   6.319   2.759   3.088  3.0344 -0.2968  2.6778
  139OSM    H5G15127   6.390   2.594   3.081 -0.4133 -0.2580  0.8365
  139OSM    C6F15128   6.238   2.625   3.234  0.0390 -0.4089  0.1604
  139OSM    H6F15129   6.144   2.681   3.254 -0.5139 -1.7064  1.3489
  139OSM    H6G15130   6.309   2.670   3.308  2.3165 -1.4995 -1.2504
  139OSM    C7F15131   6.209   2.479   3.269 -0.0678  0.0029 -0.3576
  139OSM    H7F15132   6.300   2.424   3.237  0.8451 -0.4014  2.6206
  139OSM    H7G15133   6.123   2.439   3.213 -0.4585 -1.7010  1.3487
  139OSM    C8F15134   6.172   2.445   3.419 -0.3982  0.6867 -0.4960
  139OSM    H8F15135   6.159   2.335   3.427 -1.6557  0.9341  1.3965
  139OSM    H8G15136   6.078   2.496   3.449 -0.0682 -0.3250  2.7349
  139OSM    C9F15137   6.296   2.493   3.506  0.2568  1.1140 -0.3356
  139OSM    H9F15138   6.386   2.479   3.445  0.4038  0.6321 -0.0139
  139OSM   C10F15139   6.285   2.549   3.631  0.1021 -0.7364  0.0890
  139OSM   H10F15140   6.376   2.576   3.686 -0.8639 -0.0132  1.3914
  139OSM   C11F15141   6.165   2.560   3.712 -0.5051  0.1078  0.4337
  139OSM   H11F15142   6.101   2.473   3.688  2.3090 -2.4283  1.5582
  139OSM   H11G15143   6.112   2.656   3.692  1.8296  1.0458 -1.9479
  139OSM   C12F15144   6.214   2.543   3.854  0.5887  0.3449 -1.1161
  139OSM   H12F15145   6.125   2.531   3.919 -0.5147  0.7205 -2.4887
  139OSM   H12G15146   6.272   2.624   3.901  1.0468 -0.8579  0.4644
  139OSM   C13F15147   6.303   2.423   3.876  0.5843  0.3268  0.9346
  139OSM   H13F15148   6.405   2.452   3.844  0.3301 -0.6189 -0.8148
  139OSM   H13G15149   6.277   2.336   3.813 -0.3681  0.6855  0.8182
  139OSM   C14F15150   6.306   2.389   4.020 -0.4243  1.0434 -0.6403
  139OSM   H14F15151   6.199   2.375   4.047  0.2939  0.7774  2.4184
  139OSM   H14G15152   6.344   2.471   4.085 -2.3353  1.8675 -0.5027
  139OSM   C15F15153   6.377   2.252   4.051 -0.0979 -0.0780  0.7787
  139OSM   H15F15154   6.486   2.246   4.032  0.2748  0.6627  2.4533
  139OSM   H15G15155   6.332   2.174   3.985  0.7438 -0.4352  0.6171
  139OSM   C16F15156   6.346   2.210   4.196  0.1461 -0.3692 -0.0251
  139OSM   H16F15157   6.393   2.109   4.200 -2.3362 -1.5714  1.1463
  139OSM   H16G15158   6.236   2.204   4.207 -0.0885 -0.7990 -2.1414
  139OSM   C17F15159   6.408   2.310   4.298  0.7333 -0.5276  1.1172
  139OSM   H17F15160   6.357   2.408   4.291  0.7983 -0.5466  0.3132
  139OSM   H17G15161   6.517   2.322   4.281  0.9153 -0.6324  2.1143
  139OSM   C18F15162   6.401   2.259   4.440 -0.7357 -0.1102  0.4448
  139OSM   H18F15163   6.302   2.210   4.454 -1.3620  0.2248 -2.3677
  139OSM   H18G15164   6.439   2.322   4.524  1.0487 -0.0609 -0.3443
  139OSM   H18H15165   6.474   2.176   4.440 -0.2141  0.3354  1.0005
  140OSM      N15166   1.170   6.277   2.010 -0.1377 -0.0812 -0.0640
  140OSM    C1515167   1.229   6.389   1.933 -0.3746  0.2628  0.8643
  140OSM   H15A15168   1.337   6.385   1.937 -0.3904 -1.6727  0.3626
  140OSM   H15B15169   1.190   6.482   1.972 -0.5374  1.0972 -1.1889
  140OSM   H15C15170   1.192   6.384   1.832  0.4589 -1.5015  0.6112
  140OSM    C1415171   1.015   6.272   1.976 -0.0115  0.3689  0.8083
  140OSM   H14A15172   0.966   6.368   1.982  1.0127  0.9070  0.7354
  140OSM   H14B15173   0.960   6.211   2.046 -1.7537 -0.4850 -1.1797
  140OSM   H14C15174   1.000   6.242   1.873  0.4939  4.3425 -0.5724
  140OSM    C1315175   1.225   6.140   1.958 -0.6931  0.3540  0.7649
  140OSM   H13A15176   1.333   6.147   1.964 -0.5889 -0.7813  0.4798
  140OSM   H13B15177   1.190   6.120   1.858 -2.4567  0.5522  1.3055
  140OSM   H13C15178   1.185   6.065   2.025  0.2998  2.0004  3.3507
  140OSM    C1215179   1.194   6.291   2.158 -0.0462  0.4125 -0.1404
  140OSM   H12A15180   1.299   6.272   2.172  0.4438  3.7489  1.4972
  140OSM   H12B15181   1.140   6.214   2.211  1.2096 -1.8484 -1.9426
  140OSM    C1115182   1.178   6.427   2.228  0.2016 -0.8051 -0.1139
  140OSM   H11A15183   1.259   6.499   2.206 -0.7111  0.3449  0.2098
  140OSM   H11B15184   1.174   6.420   2.339  2.2944  0.6753  0.1179
  140OSM      P15185   1.042   6.644   2.184 -0.2559  0.0327 -0.0794
  140OSM    O1315186   1.137   6.702   2.085 -0.1793  0.2514 -0.3576
  140OSM    O1415187   0.898   6.680   2.173 -0.0837 -0.0643  0.0159
  140OSM    O1115188   1.099   6.678   2.332 -0.3902  0.2677 -0.1848
  140OSM    O1215189   1.054   6.491   2.188 -0.7446  0.2037  0.4669
  140OSM    C1S15190   1.078   6.811   2.376  0.2429 -0.9125 -1.1625
  140OSM    H1S15191   0.982   6.855   2.342 -1.1526 -1.8018  1.3500
  140OSM    H1T15192   1.158   6.875   2.332 -0.7281  0.8159 -0.4868
  140OSM     NF15193   1.049   6.932   2.580  0.3774  0.2083  0.5084
  140OSM    HNF15194   1.120   6.998   2.601  0.4087 -0.0736  1.3111
  140OSM    C2S15195   1.082   6.802   2.534 -0.2987 -0.2988 -1.0078
  140OSM    H2S15196   1.002   6.729   2.557 -0.7552  0.8922  1.3798
  140OSM    C3S15197   1.220   6.753   2.589  0.0764 -0.7046  0.4240
  140OSM    H3S15198   1.286   6.836   2.560 -0.9482 -0.1331 -0.3283
  140OSM     O315199   1.274   6.640   2.528  0.0582  0.4055  0.0332
  140OSM    HO315200   1.216   6.620   2.454 -1.6067  1.2934  1.0432
  140OSM    C4S15201   1.236   6.738   2.730  0.2435 -0.4086  0.1940
  140OSM    H4S15202   1.291   6.823   2.772  1.5665 -0.6792 -0.9108
  140OSM    C5S15203   1.218   6.632   2.815 -0.1920 -0.0779 -0.0783
  140OSM    H5S15204   1.177   6.535   2.783 -3.8758  1.2212  0.2074
  140OSM    C6S15205   1.239   6.634   2.963  0.2072  0.6018  0.4654
  140OSM    H6S15206   1.295   6.541   2.983 -0.2044  0.0443 -0.8424
  140OSM    H6T15207   1.140   6.622   3.012 -0.7788  1.0518 -1.3121
  140OSM    C7S15208   1.307   6.753   3.029 -0.1675  0.3357 -0.2064
  140OSM    H7S15209   1.247   6.846   3.028 -1.3184 -0.3842 -1.4329
  140OSM    H7T15210   1.391   6.776   2.959 -1.2868 -0.0921 -1.7436
  140OSM    C8S15211   1.341   6.730   3.183  0.1505 -0.2158 -0.3516
  140OSM    H8S15212   1.404   6.812   3.224  1.5003 -0.6452 -1.4913
  140OSM    H8T15213   1.388   6.630   3.191 -0.5116 -1.0064 -4.2426
  140OSM    C9S15214   1.215   6.720   3.270 -0.2453  0.3971  0.4861
  140OSM    H9S15215   1.159   6.631   3.234 -2.3519  0.9773  2.1349
  140OSM    H9T15216   1.146   6.805   3.286  0.1265  0.4754  1.8075
  140OSM   C10S15217   1.251   6.679   3.414  0.0517 -0.1817 -0.0602
  140OSM   H10S15218   1.305   6.582   3.402  0.5496  0.1715 -0.7661
  140OSM   H10T15219   1.151   6.657   3.457 -1.1403 -0.3097 -2.6558
  140OSM   C11S15220   1.318   6.780   3.494  0.5373 -1.1777 -0.5741
  140OSM   H11S15221   1.237   6.848   3.529  1.5307 -1.2032  1.9455
  140OSM   H11T15222   1.386   6.842   3.432  0.9836 -0.5798  0.4916
  140OSM   C12S15223   1.389   6.723   3.610  0.2243 -0.0901  0.1326
  140OSM   H12S15224   1.499   6.726   3.599  0.0720  0.8301 -1.4472
  140OSM   H12T15225   1.363   6.615   3.606 -2.4442  0.4507  0.6877
  140OSM   C13S15226   1.331   6.790   3.737 -0.5110  0.2509  0.0599
  140OSM   H13S15227   1.220   6.783   3.741 -0.4613 -0.0298  1.3402
  140OSM   H13T15228   1.353   6.899   3.734 -0.3073  0.1850 -1.6352
  140OSM   C14S15229   1.409   6.730   3.861 -0.5903  0.2120  0.7451
  140OSM   H14S15230   1.516   6.720   3.834 -1.1810 -3.2028 -0.8284
  140OSM   H14T15231   1.371   6.626   3.876 -0.8327  0.3143  0.8363
  140OSM   C15S15232   1.375   6.815   3.984  0.3171  1.3109  0.0531
  140OSM   H15S15233   1.269   6.795   4.012  0.7506  0.1140  0.9163
  140OSM   H15T15234   1.392   6.923   3.961 -1.8468  1.1741 -2.6869
  140OSM   C16S15235   1.466   6.782   4.103 -0.4017  0.2282  0.2034
  140OSM   H16S15236   1.426   6.832   4.194 -0.4511  1.2687 -0.3681
  140OSM   H16T15237   1.569   6.822   4.091 -0.8489  1.2308 -0.4778
  140OSM   C17S15238   1.474   6.629   4.135 -0.2645 -0.0386  0.0192
  140OSM   H17S15239   1.553   6.577   4.077 -1.6355 -2.0794 -0.0880
  140OSM   H17T15240   1.376   6.595   4.096  0.0358 -0.8455 -0.0506
  140OSM   C18S15241   1.477   6.602   4.284  0.2499 -0.4159  0.0158
  140OSM   H18S15242   1.478   6.493   4.304  1.0781 -0.3089  0.6690
  140OSM   H18T15243   1.387   6.641   4.336  0.1335 -0.0141 -0.4818
  140OSM   H18U15244   1.567   6.643   4.337  0.4204 -1.7098  0.7649
  140OSM    C1F15245   0.924   6.969   2.582  0.3828 -0.6307  0.2560
  140OSM     OF15246   0.826   6.900   2.544 -0.1848 -0.0129  0.1821
  140OSM    C2F15247   0.908   7.109   2.614  0.5320  0.3566 -0.4747
  140OSM    H2F15248   0.874   7.157   2.520 -0.5849 -1.4111 -1.0076
  140OSM    H2G15249   1.001   7.155   2.655  1.4616 -2.2217  0.4874
  140OSM    C3F15250   0.797   7.127   2.721 -0.0046  0.3392  0.7864
  140OSM    H3F15251   0.699   7.105   2.672 -0.4299  1.0468  1.2987
  140OSM    H3G15252   0.792   7.234   2.750  2.5939  0.6003  0.4596
  140OSM    C4F15253   0.813   7.043   2.856  0.3593  0.1669 -0.1251
  140OSM    H4F15254   0.793   6.935   2.841  0.8815 -0.1475  1.2936
  140OSM    H4G15255   0.733   7.084   2.923  0.8432  1.8234 -0.5060
  140OSM    C5F15256   0.948   7.062   2.918 -0.5632 -0.0872 -0.0138
  140OSM    H5F15257   0.971   7.168   2.940  0.9459 -0.0625 -1.4333
  140OSM    H5G15258   1.023   7.034   2.840 -1.2541 -1.1321 -0.3235
  140OSM    C6F15259   0.957   6.974   3.041  0.2726 -0.0693  0.1592
  140OSM    H6F15260   1.052   6.989   3.098 -0.6118 -1.0758  2.0030
  140OSM    H6G15261   0.952   6.870   3.003 -0.8402 -0.1525  0.5035
  140OSM    C7F15262   0.834   6.976   3.141 -0.5209  0.0682  0.2257
  140OSM    H7F15263   0.752   6.923   3.089  0.6682  1.5440 -3.4925
  140OSM    H7G15264   0.821   7.081   3.175  3.3009  0.9827 -0.5779
  140OSM    C8F15265   0.863   6.904   3.274 -0.6703  0.1774  0.0140
  140OSM    H8F15266   0.935   6.962   3.335 -0.7292  0.1211  0.1358
  140OSM    H8G15267   0.912   6.806   3.258  0.7191  0.3320  2.8543
  140OSM    C9F15268   0.736   6.879   3.354 -0.4858  0.6521 -1.1790
  140OSM    H9F15269   0.649   6.901   3.291 -1.1455 -1.6484 -1.1529
  140OSM   C10F15270   0.727   6.815   3.475  0.3996 -0.4617  0.6913
  140OSM   H10F15271   0.630   6.810   3.526  1.6739  0.9232  3.4729
  140OSM   C11F15272   0.843   6.759   3.551  0.3104 -0.2755  0.4477
  140OSM   H11F15273   0.935   6.770   3.490 -1.1837  2.1492 -1.5184
  140OSM   H11G15274   0.819   6.651   3.559  0.4994 -0.3842 -0.4153
  140OSM   C12F15275   0.861   6.828   3.689  0.1342 -0.2543  0.4089
  140OSM   H12F15276   0.908   6.751   3.754  3.0959  1.2403  0.2375
  140OSM   H12G15277   0.765   6.840   3.744  0.5199 -1.4428  1.4006
  140OSM   C13F15278   0.940   6.959   3.672  0.4188 -0.3812 -0.2550
  140OSM   H13F15279   0.889   7.030   3.604  1.7113  1.8971  1.0404
  140OSM   H13G15280   1.039   6.932   3.630 -0.3686 -2.1514 -1.0936
  140OSM   C14F15281   0.948   7.036   3.809 -0.1135 -0.4551 -0.2941
  140OSM   H14F15282   0.846   7.077   3.828  0.4427  1.0023 -0.2863
  140OSM   H14G15283   1.013   7.123   3.786  1.3645 -1.2245  0.8420
  140OSM   C15F15284   1.030   6.956   3.911  0.2442  0.6936 -0.1939
  140OSM   H15F15285   1.137   6.979   3.895 -0.2461  2.1597 -1.7368
  140OSM   H15G15286   1.001   6.850   3.900 -0.0671  0.7444  0.1260
  140OSM   C16F15287   0.989   6.979   4.056 -0.2083 -0.7107  0.1474
  140OSM   H16F15288   1.041   6.910   4.126  2.8312  1.3835  0.1413
  140OSM   H16G15289   0.883   6.947   4.060 -0.7836  0.4136 -3.3314
  140OSM   C17F15290   0.999   7.124   4.105 -0.4150 -0.5524  1.1018
  140OSM   H17F15291   0.934   7.187   4.041 -1.6213 -1.1027  1.7524
  140OSM   H17G15292   1.103   7.164   4.107 -0.0753 -0.9062 -2.7606
  140OSM   C18F15293   0.941   7.142   4.245  0.0153 -0.1760  0.1873
  140OSM   H18F15294   0.954   7.249   4.272 -1.3847 -0.0340  0.4047
  140OSM   H18G15295   1.006   7.083   4.313  0.2122  0.3667  0.4725
  140OSM   H18H15296   0.833   7.113   4.244 -0.2643  0.8156  0.2756
  141OSM      N15297   6.212   3.809   2.245 -0.0495  0.0559  0.1236
  141OSM    C1515298   6.286   3.924   2.209  0.2635  0.1664 -0.4603
  141OSM   H15A15299   6.371   3.932   2.275  0.7647 -1.9082 -0.7963
  141OSM   H15B15300   6.232   4.015   2.234  1.6581  0.8050  0.3138
  141OSM   H15C15301   6.309   3.931   2.104 -2.7087 -1.1267 -1.3049
  141OSM    C1415302   6.115   3.767   2.136 -0.1870  0.1753  0.6436
  141OSM   H14A15303   6.067   3.673   2.159 -0.2875  0.4327  1.5183
  141OSM   H14B15304   6.170   3.760   2.043  1.8906  1.0847  1.7222
  141OSM   H14C15305   6.035   3.838   2.124  1.1654  1.8393  1.1502
  141OSM    C1315306   6.305   3.690   2.256  0.7211 -0.3242  0.2096
  141OSM   H13A15307   6.328   3.642   2.162 -0.1548 -1.3386  0.4848
  141OSM   H13B15308   6.265   3.606   2.312  3.0248 -1.9159 -0.3621
  141OSM   H13C15309   6.395   3.717   2.309  1.8814 -0.6316 -1.5434
  141OSM    C1215310   6.129   3.816   2.373 -0.7817  0.8029 -0.5305
  141OSM   H12A15311   6.047   3.886   2.362  0.3250  2.0305 -1.2942
  141OSM   H12B15312   6.192   3.863   2.447 -0.1303  0.4458 -0.8507
  141OSM    C1115313   6.090   3.675   2.438 -0.1489 -0.5280  0.9280
  141OSM   H11A15314   6.021   3.696   2.522 -0.8429  0.4875  0.1148
  141OSM   H11B15315   6.176   3.624   2.487  2.1823  1.1071 -1.2303
  141OSM      P15316   6.022   3.444   2.339  0.1015  0.0253 -0.0533
  141OSM    O1315317   5.909   3.388   2.265  0.1576 -0.5483  0.1842
  141OSM    O1415318   6.153   3.418   2.278  0.1517  0.6404 -0.1523
  141OSM    O1115319   6.013   3.399   2.488 -0.7492 -0.9752 -1.0219
  141OSM    O1215320   6.006   3.604   2.349  0.0785 -0.5753  0.2673
  141OSM    C1S15321   5.880   3.395   2.552 -0.1130 -0.6710 -0.2046
  141OSM    H1S15322   5.825   3.313   2.502 -1.4822 -0.3809  0.7509
  141OSM    H1T15323   5.823   3.491   2.546  0.6976 -0.2766 -2.3485
  141OSM     NF15324   5.762   3.312   2.755  0.2705 -0.2177  0.3766
  141OSM    HNF15325   5.711   3.361   2.825  2.4383  1.5790  0.8090
  141OSM    C2S15326   5.888   3.362   2.702  0.0288 -0.3815  0.0794
  141OSM    H2S15327   5.962   3.281   2.721  0.4819 -0.4949 -1.9030
  141OSM    C3S15328   5.936   3.490   2.778 -0.0052  0.1668 -0.4355
  141OSM    H3S15329   5.868   3.577   2.762 -1.3858 -0.6575  0.6892
  141OSM     O315330   6.058   3.544   2.720  0.3612 -0.4873  0.1143
  141OSM    HO315331   6.067   3.485   2.646  0.8895 -1.1770  0.7079
  141OSM    C4S15332   5.945   3.482   2.930 -0.3725 -0.3703  0.1105
  141OSM    H4S15333   5.850   3.515   2.976  0.4977  0.8136  1.1245
  141OSM    C5S15334   6.049   3.467   3.019 -0.0693 -0.2827  0.2080
  141OSM    H5S15335   6.157   3.462   2.994 -0.0495 -0.3318  0.3041
  141OSM    C6S15336   6.024   3.479   3.164 -0.5799  0.1740 -0.0399
  141OSM    H6S15337   5.925   3.517   3.195 -0.4561 -0.6916  1.4886
  141OSM    H6T15338   6.104   3.542   3.207 -0.7159  0.4767 -0.2258
  141OSM    C7S15339   6.046   3.344   3.236 -0.1081  0.0591  0.1483
  141OSM    H7S15340   6.150   3.316   3.211 -0.1640  2.1144 -2.9500
  141OSM    H7T15341   5.982   3.262   3.197  0.0260 -0.0779  0.2136
  141OSM    C8S15342   6.041   3.348   3.387  0.2490 -0.1815 -0.0949
  141OSM    H8S15343   6.093   3.434   3.434  0.0934  1.4826 -2.7639
  141OSM    H8T15344   6.108   3.269   3.429 -1.6093 -1.9673 -0.3507
  141OSM    C9S15345   5.906   3.337   3.453 -0.6491 -0.0240  0.1998
  141OSM    H9S15346   5.865   3.234   3.461  1.2063 -1.0296 -1.9452
  141OSM    H9T15347   5.852   3.392   3.372  2.4093  0.5720 -1.5874
  141OSM   C10S15348   5.899   3.395   3.597 -0.6105  0.0351  0.3352
  141OSM   H10S15349   5.933   3.501   3.594 -2.0317  0.5147 -2.0327
  141OSM   H10T15350   5.981   3.344   3.652 -0.2881  0.5295  0.3288
  141OSM   C11S15351   5.765   3.372   3.665  0.2791  0.3100  0.2245
  141OSM   H11S15352   5.742   3.265   3.681 -1.1526  0.2667 -1.7676
  141OSM   H11T15353   5.687   3.409   3.594 -1.3444  0.5035  2.0340
  141OSM   C12S15354   5.741   3.451   3.794 -0.6223 -0.8659  0.0172
  141OSM   H12S15355   5.636   3.431   3.825 -0.1134 -0.6175  2.0906
  141OSM   H12T15356   5.745   3.558   3.765 -0.1118 -0.3654  1.7774
  141OSM   C13S15357   5.844   3.416   3.899 -0.1271  0.4748 -0.2653
  141OSM   H13S15358   5.935   3.478   3.886 -1.5497  2.3036 -2.0380
  141OSM   H13T15359   5.872   3.309   3.885 -0.3130  0.5975 -1.7851
  141OSM   C14S15360   5.802   3.422   4.045 -0.1441 -0.1848 -0.0485
  141OSM   H14S15361   5.761   3.521   4.075  0.0478 -0.1940  0.2509
  141OSM   H14T15362   5.896   3.423   4.104 -1.3486  0.2335  1.9926
  141OSM   C15S15363   5.705   3.315   4.093  0.0270  0.2143 -0.0009
  141OSM   H15S15364   5.750   3.214   4.087  1.8328  1.0068 -0.8805
  141OSM   H15T15365   5.619   3.312   4.023 -0.0437  1.2251  0.0285
  141OSM   C16S15366   5.649   3.333   4.233  0.0868  0.5313  0.1837
  141OSM   H16S15367   5.580   3.420   4.239 -2.0241 -1.0375 -0.1402
  141OSM   H16T15368   5.734   3.347   4.303  0.4185 -1.5911  0.2632
  141OSM   C17S15369   5.568   3.216   4.279 -0.5890 -0.0675 -0.7523
  141OSM   H17S15370   5.560   3.220   4.390 -1.8265  0.2292 -0.8361
  141OSM   H17T15371   5.624   3.123   4.256  0.3995  0.6961 -1.4847
  141OSM   C18S15372   5.422   3.207   4.226  0.5626 -0.0768 -0.2483
  141OSM   H18S15373   5.356   3.290   4.260 -0.5833 -0.9443 -0.2941
  141OSM   H18T15374   5.367   3.114   4.250 -2.1089  1.1392 -1.3014
  141OSM   H18U15375   5.429   3.214   4.115 -0.9661 -1.8178 -0.4892
  141OSM    C1F15376   5.708   3.203   2.710 -0.4157  0.3289  1.0407
  141OSM     OF15377   5.774   3.118   2.646 -0.4858  0.0711  0.0458
  141OSM    C2F15378   5.559   3.193   2.748 -0.1806  0.5377  0.4788
  141OSM    H2F15379   5.503   3.181   2.653  0.3955 -1.7547  0.3748
  141OSM    H2G15380   5.523   3.289   2.792  2.9080  0.3093  4.0407
  141OSM    C3F15381   5.529   3.077   2.844 -1.1415 -0.4428 -0.1962
  141OSM    H3F15382   5.572   2.986   2.799  0.4401  0.4984 -0.6664
  141OSM    H3G15383   5.420   3.059   2.860 -0.8531 -1.9273  0.1922
  141OSM    C4F15384   5.604   3.105   2.976  0.4261  0.6787  0.5251
  141OSM    H4F15385   5.711   3.130   2.959  0.4131  0.2387 -0.2290
  141OSM    H4G15386   5.609   3.003   3.019 -0.3058  0.1243 -0.6512
  141OSM    C5F15387   5.535   3.190   3.070  0.0153  0.2907  0.2450
  141OSM    H5F15388   5.500   3.282   3.019  1.2173 -0.7630 -2.7184
  141OSM    H5G15389   5.607   3.230   3.145 -1.2081  0.7904  1.1865
  141OSM    C6F15390   5.422   3.132   3.152  0.7083  0.4809  0.0727
  141OSM    H6F15391   5.450   3.044   3.214 -0.1273  1.2860  1.6427
  141OSM    H6G15392   5.348   3.087   3.082  1.4014 -0.7631  0.1087
  141OSM    C7F15393   5.360   3.230   3.254  0.0025 -0.4576  0.3025
  141OSM    H7F15394   5.316   3.315   3.198 -0.9172 -0.8798  0.3625
  141OSM    H7G15395   5.448   3.264   3.313  0.7378  0.0327 -1.0122
  141OSM    C8F15396   5.249   3.169   3.342 -0.5908  0.3318  0.4408
  141OSM    H8F15397   5.264   3.231   3.433  1.8560  2.1775 -1.0815
  141OSM    H8G15398   5.262   3.060   3.355  0.3272  0.3567 -0.1435
  141OSM    C9F15399   5.110   3.193   3.300  0.7646  0.2424  0.7015
  141OSM    H9F15400   5.064   3.117   3.234  1.6897  0.3303 -0.0655
  141OSM   C10F15401   5.034   3.312   3.311  0.3169  0.5299 -0.6356
  141OSM   H10F15402   4.927   3.302   3.286 -0.4480  2.1915  1.6181
  141OSM   C11F15403   5.070   3.437   3.392  0.4108  0.2950  0.3494
  141OSM   H11F15404   5.177   3.453   3.417  0.9250  2.2348 -2.5710
  141OSM   H11G15405   5.030   3.434   3.496 -1.7407 -1.6085 -0.4377
  141OSM   C12F15406   5.036   3.576   3.337 -0.0314  0.4586  0.4292
  141OSM   H12F15407   4.933   3.611   3.360 -0.9670  1.1598 -3.9708
  141OSM   H12G15408   5.039   3.574   3.226  1.5083 -1.1358  0.4657
  141OSM   C13F15409   5.135   3.685   3.397 -0.0508 -0.4561  0.2700
  141OSM   H13F15410   5.108   3.783   3.353 -0.8655 -0.0446  1.6347
  141OSM   H13G15411   5.240   3.654   3.380 -0.0332  0.2756 -1.1018
  141OSM   C14F15412   5.112   3.708   3.545  0.4031 -0.0654 -0.2746
  141OSM   H14F15413   5.190   3.779   3.579  2.2196 -2.0674 -0.0463
  141OSM   H14G15414   5.134   3.611   3.595  2.7401 -0.4483 -1.9118
  141OSM   C15F15415   4.970   3.745   3.597 -0.4530 -0.0613 -0.3184
  141OSM   H15F15416   4.901   3.659   3.613  1.1252 -1.2300  0.5209
  141OSM   H15G15417   4.926   3.823   3.533 -3.0520  0.4699  1.9371
  141OSM   C16F15418   4.989   3.818   3.729 -0.3001 -0.3434  0.0396
  141OSM   H16F15419   4.886   3.851   3.757 -1.0167 -0.8441 -1.8507
  141OSM   H16G15420   5.050   3.910   3.719  1.5197 -1.0834  3.0554
  141OSM   C17F15421   5.042   3.738   3.847  0.1505  0.4481  0.1923
  141OSM   H17F15422   5.150   3.715   3.842 -0.2495 -1.5942  0.2444
  141OSM   H17G15423   5.005   3.636   3.824  3.8325 -1.2335  0.9809
  141OSM   C18F15424   5.000   3.766   3.990 -0.6888  0.3450  0.1737
  141OSM   H18F15425   5.001   3.875   4.010 -0.0935  0.4344 -0.3180
  141OSM   H18G15426   5.067   3.711   4.060  0.1519 -0.0415 -0.8922
  141OSM   H18H15427   4.900   3.726   4.016  0.3645 -0.5427  3.3203
  142OSM      N15428   5.508   3.229   2.267 -0.1799  0.3468 -0.5149
  142OSM    C1515429   5.380   3.282   2.213 -0.5950  0.1988  0.5290
  142OSM   H15A15430   5.321   3.201   2.174 -0.5700  0.2407  0.4027
  142OSM   H15B15431   5.387   3.355   2.134 -3.2828 -1.2939 -1.2445
  142OSM   H15C15432   5.323   3.339   2.285  1.8874  0.3404  2.5408
  142OSM    C1415433   5.473   3.110   2.349  0.0464 -0.5743 -0.1159
  142OSM   H14A15434   5.415   3.038   2.294 -0.0387 -0.5096 -0.1106
  142OSM   H14B15435   5.413   3.141   2.433  1.7076 -2.5058  1.9359
  142OSM   H14C15436   5.564   3.064   2.386  1.0053 -0.9853 -2.7329
  142OSM    C1315437   5.590   3.173   2.160 -0.3884 -0.1055  0.2630
  142OSM   H13A15438   5.637   3.247   2.096 -0.3030 -1.0206 -0.7542
  142OSM   H13B15439   5.540   3.107   2.091 -2.5831 -0.8929  2.4654
  142OSM   H13C15440   5.675   3.117   2.197 -0.0096  0.9289  1.0148
  142OSM    C1215441   5.584   3.335   2.341  0.2751 -0.1472 -0.3948
  142OSM   H12A15442   5.608   3.416   2.274 -1.1541  0.6123 -0.0399
  142OSM   H12B15443   5.679   3.288   2.364  1.2097  1.0537 -1.6425
  142OSM    C1115444   5.525   3.403   2.461 -0.3129  0.3152 -0.6217
  142OSM   H11A15445   5.602   3.434   2.535 -0.4437  0.8463 -0.7075
  142OSM   H11B15446   5.465   3.323   2.509  1.0824  0.5056  1.5772
  142OSM      P15447   5.502   3.652   2.383 -0.0159  0.1296  0.2160
  142OSM    O1315448   5.600   3.627   2.275  0.7674  0.0743 -0.5150
  142OSM    O1415449   5.385   3.737   2.356 -0.3531  0.5588 -0.9056
  142OSM    O1115450   5.578   3.704   2.510 -0.1220  0.1907  0.0740
  142OSM    O1215451   5.436   3.508   2.423  0.2895  0.5672  0.0988
  142OSM    C1S15452   5.510   3.691   2.639  0.5182  0.0771 -0.4499
  142OSM    H1S15453   5.464   3.591   2.653 -0.0284  0.2944 -0.6543
  142OSM    H1T15454   5.423   3.759   2.654  0.0283 -0.9039  1.4231
  142OSM     NF15455   5.525   3.730   2.880 -0.5560  0.1955  0.4272
  142OSM    HNF15456   5.488   3.814   2.919  1.4882  1.7489 -0.7531
  142OSM    C2S15457   5.607   3.723   2.760 -0.3977 -0.0839 -0.6209
  142OSM    H2S15458   5.678   3.639   2.771  2.1588  2.1781  1.8569
  142OSM    C3S15459   5.693   3.853   2.733 -0.8465  0.5551  0.8464
  142OSM    H3S15460   5.629   3.938   2.703 -0.8866  0.1645 -0.1986
  142OSM     O315461   5.791   3.846   2.623  0.3401 -0.2371 -0.1978
  142OSM    HO315462   5.748   3.787   2.561 -0.1374 -1.8492  1.5749
  142OSM    C4S15463   5.762   3.882   2.866 -0.0362 -0.0006  0.4553
  142OSM    H4S15464   5.700   3.917   2.950 -0.7764  0.3957 -0.2442
  142OSM    C5S15465   5.888   3.850   2.896 -0.3803 -0.2699  0.3301
  142OSM    H5S15466   5.957   3.808   2.821 -0.1073  0.5508  0.1223
  142OSM    C6S15467   5.943   3.859   3.036  0.5186 -0.0031  0.3260
  142OSM    H6S15468   5.985   3.959   3.057 -3.2713  1.2333  2.9361
  142OSM    H6T15469   6.027   3.786   3.042  3.5944  3.2554 -0.1172
  142OSM    C7S15470   5.855   3.827   3.151 -0.6044 -0.8121 -0.7381
  142OSM    H7S15471   5.817   3.723   3.145 -1.3712 -0.5109 -1.3082
  142OSM    H7T15472   5.768   3.894   3.171 -0.0050  0.2591 -1.6143
  142OSM    C8S15473   5.937   3.835   3.284 -0.1563 -0.1640  0.2558
  142OSM    H8S15474   5.979   3.938   3.286  0.3363 -0.0680 -4.2778
  142OSM    H8T15475   6.021   3.764   3.279 -0.7724 -0.9334  0.6517
  142OSM    C9S15476   5.842   3.808   3.402  0.3973 -0.1554 -0.3660
  142OSM    H9S15477   5.783   3.714   3.390  1.0503 -0.5963 -0.1460
  142OSM    H9T15478   5.771   3.893   3.394  1.4158  1.0478  2.3463
  142OSM   C10S15479   5.916   3.805   3.536 -0.3196 -0.3294  0.1359
  142OSM   H10S15480   5.997   3.881   3.531 -0.1365 -0.6399 -2.8803
  142OSM   H10T15481   5.969   3.708   3.544 -2.3117 -1.7631 -2.5561
  142OSM   C11S15482   5.826   3.845   3.658  0.2222  0.6713  0.2457
  142OSM   H11S15483   5.744   3.772   3.667  0.1497  0.7056 -0.1292
  142OSM   H11T15484   5.783   3.945   3.634 -0.5868  0.0674 -0.8635
  142OSM   C12S15485   5.899   3.835   3.783  0.3461 -0.6084 -0.0518
  142OSM   H12S15486   5.999   3.882   3.779  1.8160 -3.4566  0.6234
  142OSM   H12T15487   5.920   3.728   3.802 -1.9695 -1.1359 -0.0691
  142OSM   C13S15488   5.811   3.881   3.902  0.6083  0.9359 -0.4854
  142OSM   H13S15489   5.717   3.824   3.885 -0.2565  1.5058  1.9589
  142OSM   H13T15490   5.792   3.990   3.904 -1.1813  0.6630  1.6752
  142OSM   C14S15491   5.863   3.850   4.043  0.0778  1.0177 -0.1187
  142OSM   H14S15492   5.941   3.921   4.078  0.5098  1.3414 -1.6668
  142OSM   H14T15493   5.915   3.753   4.027 -1.8035  0.2962 -2.3421
  142OSM   C15S15494   5.762   3.836   4.157  0.3074 -0.3418  0.0978
  142OSM   H15S15495   5.692   3.754   4.128  0.0681 -0.0250 -0.2319
  142OSM   H15T15496   5.698   3.927   4.163  1.1950  0.4869 -2.1337
  142OSM   C16S15497   5.807   3.800   4.301 -0.8622  0.6536  0.5999
  142OSM   H16S15498   5.710   3.787   4.353  0.0266 -0.8785  1.9366
  142OSM   H16T15499   5.851   3.889   4.352  1.2680 -0.2671  0.4302
  142OSM   C17S15500   5.899   3.681   4.305  0.5026  0.2339 -0.1909
  142OSM   H17S15501   6.002   3.696   4.265  1.8955 -3.3996  1.4885
  142OSM   H17T15502   5.841   3.604   4.249 -1.3339  1.4677 -0.0584
  142OSM   C18S15503   5.925   3.622   4.444  0.0167 -0.4701  0.4415
  142OSM   H18S15504   5.991   3.533   4.438 -0.2130 -0.5557 -1.1281
  142OSM   H18T15505   5.840   3.607   4.513 -1.5358  1.1520 -1.0244
  142OSM   H18U15506   5.984   3.700   4.496 -2.5938  1.1541  1.1544
  142OSM    C1F15507   5.463   3.619   2.927 -0.2899  0.3204  0.3109
  142OSM     OF15508   5.499   3.509   2.881  0.5578 -0.2639  0.5539
  142OSM    C2F15509   5.354   3.642   3.030 -0.2116  0.7716  0.2109
  142OSM    H2F15510   5.386   3.591   3.123  0.2567  1.0303  0.1933
  142OSM    H2G15511   5.262   3.589   2.998  0.6177 -1.3957  1.2001
  142OSM    C3F15512   5.333   3.783   3.072 -0.4429 -0.2564 -0.1428
  142OSM    H3F15513   5.238   3.780   3.128 -0.1081 -1.4313  0.3900
  142OSM    H3G15514   5.313   3.845   2.982 -0.7107 -0.6759 -0.3795
  142OSM    C4F15515   5.433   3.832   3.169  0.8849  0.4835  0.0827
  142OSM    H4F15516   5.538   3.839   3.133 -0.1471  1.2517 -3.1209
  142OSM    H4G15517   5.435   3.751   3.245  1.6289 -0.9245 -1.3506
  142OSM    C5F15518   5.384   3.967   3.239 -0.1792  0.9217 -0.0896
  142OSM    H5F15519   5.276   3.949   3.259 -0.5945  0.7708 -2.2237
  142OSM    H5G15520   5.383   4.058   3.175 -1.2473  0.2401 -1.0776
  142OSM    C6F15521   5.465   3.992   3.369  1.1044  0.2650  0.0265
  142OSM    H6F15522   5.468   4.102   3.384 -0.2291  0.7174 -2.3353
  142OSM    H6G15523   5.572   3.964   3.357  1.3629  1.1102  0.2999
  142OSM    C7F15524   5.410   3.937   3.497  0.1162 -0.0201  0.7645
  142OSM    H7F15525   5.443   3.832   3.508  2.1018  0.0673 -2.8871
  142OSM    H7G15526   5.300   3.939   3.482  0.2500  1.9419 -0.3472
  142OSM    C8F15527   5.456   4.013   3.625 -0.2389 -0.6958  0.4910
  142OSM    H8F15528   5.449   4.124   3.621  0.7331 -0.5578  1.7382
  142OSM    H8G15529   5.564   3.992   3.638  0.3086  1.5848  0.0499
  142OSM    C9F15530   5.377   3.949   3.729 -0.0337 -0.4531 -0.0611
  142OSM    H9F15531   5.354   3.845   3.701  1.0845 -0.6819 -0.1604
  142OSM   C10F15532   5.356   3.985   3.857 -0.4480 -0.2605  0.1694
  142OSM   H10F15533   5.295   3.917   3.919  0.1544 -0.3233  0.7009
  142OSM   C11F15534   5.397   4.122   3.913  0.0222  0.9518 -0.4424
  142OSM   H11F15535   5.473   4.177   3.854  1.0886 -0.3960 -0.3579
  142OSM   H11G15536   5.422   4.110   4.021 -1.8976  0.4069 -0.0185
  142OSM   C12F15537   5.278   4.222   3.915  0.2289 -0.5841 -0.1986
  142OSM   H12F15538   5.198   4.165   3.965 -0.6775 -0.4324 -1.4385
  142OSM   H12G15539   5.247   4.237   3.809 -1.4566  0.0955  0.3525
  142OSM   C13F15540   5.307   4.346   4.002 -0.0146  0.7295 -0.2216
  142OSM   H13F15541   5.391   4.403   3.957  0.4180  0.3743  0.1244
  142OSM   H13G15542   5.340   4.317   4.104  0.5318  0.4239 -0.4792
  142OSM   C14F15543   5.200   4.449   4.028  0.2481  0.6584 -0.3165
  142OSM   H14F15544   5.129   4.391   4.092  1.1370  1.2622  1.2764
  142OSM   H14G15545   5.151   4.469   3.931  1.9422  0.8338 -1.1739
  142OSM   C15F15546   5.249   4.572   4.101  0.3904 -0.8598  0.2390
  142OSM   H15F15547   5.277   4.540   4.203 -2.0935 -1.8794  0.6796
  142OSM   H15G15548   5.167   4.648   4.101  1.4160  0.2757  0.7193
  142OSM   C16F15549   5.364   4.648   4.039 -0.0865  0.1428  0.2326
  142OSM   H16F15550   5.351   4.657   3.929  0.0331 -2.6651 -0.0874
  142OSM   H16G15551   5.453   4.584   4.055 -1.8412 -3.0452 -1.8190
  142OSM   C17F15552   5.398   4.776   4.113  0.6097  0.0814 -0.0807
  142OSM   H17F15553   5.304   4.833   4.127 -0.1362 -1.0132 -0.5636
  142OSM   H17G15554   5.464   4.828   4.040 -0.7764 -0.6989 -1.9716
  142OSM   C18F15555   5.474   4.751   4.243 -0.1093  0.6159  0.2376
  142OSM   H18F15556   5.572   4.715   4.206 -1.4938  0.1426 -3.4607
  142OSM   H18G15557   5.427   4.683   4.317  0.1962  1.7535  1.5203
  142OSM   H18H15558   5.497   4.848   4.291  0.9262  0.5271 -0.0586
  143OSM      N15559   3.489   4.960   1.713 -0.1876  0.1940 -0.0308
  143OSM    C1515560   3.351   4.922   1.761 -0.0175 -0.1257 -0.1019
  143OSM   H15A15561   3.355   4.835   1.824  2.5623  0.0494  0.0990
  143OSM   H15B15562   3.296   4.891   1.674 -1.8014 -0.4338  1.0755
  143OSM   H15C15563   3.306   5.005   1.814  0.8453 -1.2303  2.5554
  143OSM    C1415564   3.570   4.842   1.655  0.1994 -0.1069  0.6814
  143OSM   H14A15565   3.603   4.772   1.730 -0.5770 -0.4748  0.6953
  143OSM   H14B15566   3.663   4.868   1.608 -0.8444  0.1113 -1.4129
  143OSM   H14C15567   3.514   4.784   1.583 -0.3795 -1.5956  2.2597
  143OSM    C1315568   3.482   5.071   1.615 -0.0153 -0.5333 -0.0264
  143OSM   H13A15569   3.575   5.086   1.563  0.0055  1.3220  0.4621
  143OSM   H13B15570   3.447   5.165   1.656  0.3620 -0.3461 -0.1212
  143OSM   H13C15571   3.403   5.047   1.546  0.8771 -4.1197  0.0204
  143OSM    C1215572   3.572   5.009   1.837 -0.5276  0.3298 -0.1563
  143OSM   H12A15573   3.533   5.099   1.882  1.5141  1.0755  0.2242
  143OSM   H12B15574   3.666   5.046   1.800 -0.0833 -1.9990 -1.6185
  143OSM    C1115575   3.615   4.908   1.947  0.4600  0.3947  0.3212
  143OSM   H11A15576   3.685   4.964   2.012 -0.7982  0.3853  1.7486
  143OSM   H11B15577   3.667   4.825   1.894 -1.7159 -1.2329  0.5688
  143OSM      P15578   3.415   4.921   2.124 -0.2852  0.1732 -0.3416
  143OSM    O1315579   3.421   5.062   2.084  0.1885 -0.6607  0.0325
  143OSM    O1415580   3.287   4.854   2.130  0.1937 -0.2193  0.4186
  143OSM    O1115581   3.500   4.906   2.255 -0.3816  0.2885 -0.2007
  143OSM    O1215582   3.503   4.849   2.019 -0.1482  0.0767 -0.3684
  143OSM    C1S15583   3.579   4.787   2.289 -0.1007 -0.2780 -0.1214
  143OSM    H1S15584   3.670   4.785   2.226 -0.7080 -0.6873 -1.0087
  143OSM    H1T15585   3.522   4.693   2.273 -1.0177  0.5395 -1.9690
  143OSM     NF15586   3.695   4.671   2.465 -0.2396  0.0697 -0.5974
  143OSM    HNF15587   3.657   4.588   2.505  0.7384  1.5906  4.1343
  143OSM    C2S15588   3.612   4.787   2.441 -0.2427 -0.2226 -0.0204
  143OSM    H2S15589   3.670   4.881   2.458 -0.2582  0.7351 -4.1942
  143OSM    C3S15590   3.482   4.798   2.526  0.4914  0.3380 -0.3595
  143OSM    H3S15591   3.404   4.723   2.502  0.0835  0.4174  0.6522
  143OSM     O315592   3.405   4.915   2.496  0.0506 -0.2151 -0.0409
  143OSM    HO315593   3.435   4.949   2.411 -3.0332  1.2239 -0.6862
  143OSM    C4S15594   3.521   4.800   2.670  0.1404 -0.1387  0.0977
  143OSM    H4S15595   3.550   4.902   2.701  0.6863 -0.3847  0.4167
  143OSM    C5S15596   3.486   4.706   2.761  0.6182  0.1206  0.3972
  143OSM    H5S15597   3.425   4.621   2.728  1.4852  0.5153 -2.4429
  143OSM    C6S15598   3.495   4.718   2.909  0.6520  0.0254  0.6401
  143OSM    H6S15599   3.592   4.682   2.951  0.3403  1.3657  2.6544
  143OSM    H6T15600   3.416   4.659   2.959  0.3708 -0.1701 -0.0244
  143OSM    C7S15601   3.474   4.863   2.965 -0.6057  0.0040  0.3317
  143OSM    H7S15602   3.391   4.914   2.913 -1.5552 -1.7857  0.0111
  143OSM    H7T15603   3.564   4.925   2.942 -1.8457  1.9455  0.4796
  143OSM    C8S15604   3.430   4.855   3.116  0.6396 -0.4668  0.1543
  143OSM    H8S15605   3.494   4.775   3.157 -0.7195 -2.3303 -1.1488
  143OSM    H8T15606   3.324   4.829   3.137  0.5814 -0.0516  0.3755
  143OSM    C9S15607   3.436   4.997   3.177 -0.4683 -0.3682  0.0694
  143OSM    H9S15608   3.376   5.068   3.116  1.2236  1.3192  0.2888
  143OSM    H9T15609   3.544   5.021   3.166 -0.5966 -0.2257 -0.9236
  143OSM   C10S15610   3.390   5.001   3.325  0.1222 -0.9672  0.3857
  143OSM   H10S15611   3.419   4.903   3.369  1.1168 -0.4622  0.8789
  143OSM   H10T15612   3.280   5.021   3.324  0.3417  0.3208  1.1668
  143OSM   C11S15613   3.475   5.117   3.392  0.0444  0.0396 -0.2564
  143OSM   H11S15614   3.485   5.206   3.326  3.2404  0.2296  0.3334
  143OSM   H11T15615   3.580   5.083   3.406 -0.6774 -2.9181 -1.3366
  143OSM   C12S15616   3.428   5.152   3.531  0.3452  0.7365 -0.9987
  143OSM   H12S15617   3.326   5.196   3.528  0.2003  0.5457  0.2945
  143OSM   H12T15618   3.498   5.226   3.575  0.0079  2.0474 -2.5631
  143OSM   C13S15619   3.413   5.032   3.631 -0.8508 -0.0292  0.2420
  143OSM   H13S15620   3.510   4.978   3.630 -0.4923  0.6067  0.3342
  143OSM   H13T15621   3.335   4.959   3.600 -0.5508 -0.0283 -0.5231
  143OSM   C14S15622   3.383   5.075   3.779 -0.3099  0.0275  0.4533
  143OSM   H14S15623   3.325   4.990   3.820 -2.0576  0.5174 -0.8743
  143OSM   H14T15624   3.315   5.162   3.769 -2.7503 -1.7460  0.6241
  143OSM   C15S15625   3.498   5.101   3.867 -0.1497  0.5067 -0.0775
  143OSM   H15S15626   3.536   5.205   3.854  3.1223 -0.8196 -2.4208
  143OSM   H15T15627   3.579   5.028   3.847 -0.0332  0.4264  0.6549
  143OSM   C16S15628   3.453   5.086   4.019 -0.3378  0.0970  1.5645
  143OSM   H16S15629   3.422   4.980   4.030 -1.4531  0.2556  0.1747
  143OSM   H16T15630   3.367   5.152   4.040 -1.1142 -1.0796  2.1968
  143OSM   C17S15631   3.572   5.116   4.102 -0.3106 -0.4057 -0.6369
  143OSM   H17S15632   3.616   5.217   4.087 -1.1563  0.3566  1.5578
  143OSM   H17T15633   3.649   5.041   4.076 -0.0019 -0.4972  0.4710
  143OSM   C18S15634   3.541   5.085   4.248  0.6685  0.2844  1.0325
  143OSM   H18S15635   3.499   5.177   4.295 -1.8872  2.1501 -4.2030
  143OSM   H18T15636   3.639   5.061   4.296  1.3480  1.0593  0.0593
  143OSM   H18U15637   3.464   5.007   4.265  0.3263  0.5506  0.7227
  143OSM    C1F15638   3.818   4.666   2.426  0.3668  1.2269 -0.6327
  143OSM     OF15639   3.876   4.751   2.362 -0.0984  0.4357 -0.2220
  143OSM    C2F15640   3.898   4.548   2.472 -0.0360 -0.2091  0.0433
  143OSM    H2F15641   3.940   4.490   2.387  0.7697 -0.3774  0.5425
  143OSM    H2G15642   3.839   4.491   2.548  0.2510  0.7300  0.9832
  143OSM    C3F15643   4.034   4.586   2.546  0.7161  0.0263  0.5503
  143OSM    H3F15644   4.104   4.634   2.475 -0.1440  1.9085  0.9022
  143OSM    H3G15645   4.076   4.490   2.582 -0.6020 -1.4925 -1.6734
  143OSM    C4F15646   4.003   4.661   2.673 -0.7255 -0.4024 -0.0180
  143OSM    H4F15647   3.972   4.766   2.653 -1.0361 -0.2215  1.3363
  143OSM    H4G15648   4.104   4.670   2.718 -1.1095 -1.2100  1.0403
  143OSM    C5F15649   3.907   4.599   2.765  0.2985 -0.0757 -0.2514
  143OSM    H5F15650   3.918   4.488   2.769 -0.9010 -0.2415 -1.1517
  143OSM    H5G15651   3.803   4.628   2.740  0.5134  1.1339  0.2038
  143OSM    C6F15652   3.912   4.658   2.907 -0.6100  0.1402 -0.8618
  143OSM    H6F15653   4.005   4.607   2.940 -0.7765  0.5211  0.2107
  143OSM    H6G15654   3.830   4.604   2.959 -0.8847  1.4515  0.1090
  143OSM    C7F15655   3.918   4.809   2.922 -0.4004 -0.0262 -0.6776
  143OSM    H7F15656   3.822   4.856   2.891 -0.9380 -0.4471  0.3107
  143OSM    H7G15657   3.999   4.843   2.854  0.3026  2.3553  1.1940
  143OSM    C8F15658   3.945   4.853   3.071 -0.5088 -0.3483 -0.6444
  143OSM    H8F15659   3.967   4.961   3.080  0.5576 -0.6884  1.3452
  143OSM    H8G15660   4.036   4.792   3.091 -0.6794 -0.3734  0.0854
  143OSM    C9F15661   3.828   4.839   3.166 -0.4035  0.8053  0.1991
  143OSM    H9F15662   3.728   4.830   3.120  0.2849 -1.7041 -0.9526
  143OSM   C10F15663   3.840   4.809   3.300 -0.4375 -0.1199  0.7899
  143OSM   H10F15664   3.747   4.788   3.353 -0.2889 -1.0604  0.6950
  143OSM   C11F15665   3.960   4.825   3.388  0.2039  0.5457  0.3026
  143OSM   H11F15666   4.025   4.904   3.344  1.8466  0.5199  2.4958
  143OSM   H11G15667   4.019   4.731   3.399  0.6919  1.1194  3.6450
  143OSM   C12F15668   3.921   4.889   3.519  0.1774  0.1826  0.2215
  143OSM   H12F15669   3.855   4.978   3.507  0.4396  0.4618  0.8002
  143OSM   H12G15670   4.015   4.917   3.572  0.3264 -0.8034  0.4864
  143OSM   C13F15671   3.845   4.791   3.608  0.1770 -0.2462  0.1603
  143OSM   H13F15672   3.759   4.740   3.560 -0.4961  0.8650  0.1558
  143OSM   H13G15673   3.783   4.842   3.685  1.5560  0.3777  0.8875
  143OSM   C14F15674   3.934   4.687   3.674  0.0054  0.4508  0.0730
  143OSM   H14F15675   4.032   4.737   3.690  0.5138 -0.0262 -1.3624
  143OSM   H14G15676   3.956   4.620   3.589 -0.1050 -0.0165  0.4128
  143OSM   C15F15677   3.872   4.619   3.798  0.3121 -1.0921  0.2411
  143OSM   H15F15678   3.785   4.559   3.764  1.3080 -1.1314 -2.5135
  143OSM   H15G15679   3.844   4.691   3.878  1.9413 -0.6935  0.4869
  143OSM   C16F15680   3.966   4.507   3.852 -0.4220  0.1572 -0.7427
  143OSM   H16F15681   4.061   4.549   3.892 -0.0285 -0.2856 -1.1952
  143OSM   H16G15682   4.004   4.448   3.765 -2.6197  1.2028 -2.5205
  143OSM   C17F15683   3.904   4.405   3.960 -0.1882 -0.1989 -1.0174
  143OSM   H17F15684   3.817   4.353   3.915 -1.9573  1.0768  0.7272
  143OSM   H17G15685   3.849   4.472   4.030 -1.8436 -2.6140  0.1327
  143OSM   C18F15686   4.007   4.325   4.036  0.0634  0.1023 -0.1344
  143OSM   H18F15687   4.009   4.223   3.993 -0.2989 -0.0575  0.2218
  143OSM   H18G15688   3.992   4.306   4.145  0.3878  0.7885  0.0412
  143OSM   H18H15689   4.107   4.373   4.022  0.8501 -1.6785 -0.9086
  144OSM      N15690   3.241   5.990   2.134  0.1469 -0.1413  0.0504
  144OSM    C1515691   3.232   6.142   2.127  0.4703  0.8378 -0.0239
  144OSM   H15A15692   3.134   6.181   2.148  1.1258  2.3697  0.3537
  144OSM   H15B15693   3.269   6.177   2.032 -0.4954  0.9819 -0.3517
  144OSM   H15C15694   3.298   6.182   2.203  0.4121  2.6255 -0.8660
  144OSM    C1415695   3.161   5.941   2.017  0.1192  0.4219  0.4504
  144OSM   H14A15696   3.158   5.834   2.004 -0.7002  0.5649 -0.7190
  144OSM   H14B15697   3.192   5.982   1.922  0.2529 -0.2874  0.1835
  144OSM   H14C15698   3.057   5.961   2.040  0.3619  1.8584  0.3703
  144OSM    C1315699   3.382   5.949   2.105 -0.0179 -0.5568  0.2723
  144OSM   H13A15700   3.422   6.000   2.018  3.6837 -1.0253  1.4908
  144OSM   H13B15701   3.392   5.842   2.093 -0.4945 -0.6090  0.3321
  144OSM   H13C15702   3.455   5.992   2.172 -0.5534 -0.5844  0.8726
  144OSM    C1215703   3.207   5.931   2.268  0.7656  0.1278 -0.2437
  144OSM   H12A15704   3.289   5.959   2.333  1.3162  0.0282 -0.8823
  144OSM   H12B15705   3.212   5.823   2.260 -0.8370 -0.0877  1.2188
  144OSM    C1115706   3.073   5.965   2.322  0.2347  0.3208 -0.0762
  144OSM   H11A15707   3.066   6.075   2.336  3.5093  0.2771  3.9226
  144OSM   H11B15708   3.064   5.924   2.425 -3.6283 -1.5593 -0.9716
  144OSM      P15709   2.920   5.769   2.224  0.0637 -0.1458  0.3819
  144OSM    O1315710   2.890   5.743   2.081  0.1631 -0.2942 -0.3085
  144OSM    O1415711   3.025   5.683   2.283  0.0397  0.0075 -0.0850
  144OSM    O1115712   2.786   5.764   2.308  0.0596  0.4658 -0.1837
  144OSM    O1215713   2.966   5.917   2.234 -0.8976 -0.2686 -0.0166
  144OSM    C1S15714   2.780   5.753   2.453 -0.4664 -0.3567 -0.0580
  144OSM    H1S15715   2.854   5.679   2.490 -0.2540 -0.2849 -0.3320
  144OSM    H1T15716   2.678   5.725   2.486 -0.2727 -1.0106 -0.0081
  144OSM     NF15717   2.818   5.855   2.675  1.1048 -0.3891 -0.2960
  144OSM    HNF15718   2.744   5.876   2.739 -0.3035 -0.2817 -1.8664
  144OSM    C2S15719   2.802   5.883   2.538  0.1682 -0.1267  0.3381
  144OSM    H2S15720   2.893   5.938   2.506 -0.9970  0.7966 -1.5636
  144OSM    C3S15721   2.687   5.989   2.525 -0.3329 -0.2398  0.0828
  144OSM    H3S15722   2.591   5.953   2.568  0.6485 -1.8939  1.0006
  144OSM     O315723   2.662   6.016   2.386 -0.2176  0.0520  0.2016
  144OSM    HO315724   2.721   5.953   2.344  1.9209 -0.3773  3.4899
  144OSM    C4S15725   2.722   6.115   2.592  0.0815  0.0776  0.2412
  144OSM    H4S15726   2.828   6.145   2.583  0.0205  1.0222  2.1411
  144OSM    C5S15727   2.633   6.198   2.653 -0.1844  0.1107 -0.3877
  144OSM    H5S15728   2.529   6.166   2.667  0.4910 -2.5158 -0.9225
  144OSM    C6S15729   2.672   6.327   2.733  0.0768  0.1523 -0.1827
  144OSM    H6S15730   2.639   6.415   2.673 -3.0144 -0.7366  0.0568
  144OSM    H6T15731   2.782   6.329   2.750 -0.0634  0.6868  0.7581
  144OSM    C7S15732   2.616   6.342   2.873 -0.0988  0.4257 -0.4630
  144OSM    H7S15733   2.588   6.238   2.903 -1.3339  1.3026  1.6309
  144OSM    H7T15734   2.521   6.399   2.881  0.1422  0.6201  1.5309
  144OSM    C8S15735   2.715   6.380   2.978  0.7925  0.1082 -0.4908
  144OSM    H8S15736   2.755   6.483   2.974 -0.6835  0.7086 -0.0997
  144OSM    H8T15737   2.808   6.320   2.960  0.3896 -1.0423  1.0048
  144OSM    C9S15738   2.650   6.344   3.117 -0.6917  0.5200  0.2475
  144OSM    H9S15739   2.606   6.244   3.100  1.0954 -0.5177  1.2913
  144OSM    H9T15740   2.574   6.425   3.119 -1.0719  0.1541  1.3894
  144OSM   C10S15741   2.745   6.339   3.239  0.4155 -0.3301  0.1632
  144OSM   H10S15742   2.776   6.445   3.250  0.3261 -0.5088  2.8475
  144OSM   H10T15743   2.826   6.266   3.217 -1.3114 -2.4486  0.4609
  144OSM   C11S15744   2.667   6.279   3.363 -0.1268 -0.1324  0.0094
  144OSM   H11S15745   2.637   6.172   3.363 -0.9679  0.0646  1.8195
  144OSM   H11T15746   2.569   6.331   3.367 -1.3097 -2.0955 -1.6701
  144OSM   C12S15747   2.746   6.299   3.491 -0.8466 -1.0996 -0.4283
  144OSM   H12S15748   2.778   6.405   3.498 -0.9267 -0.9605 -1.8872
  144OSM   H12T15749   2.836   6.235   3.481 -1.7994 -2.3672 -1.2452
  144OSM   C13S15750   2.689   6.258   3.624  0.7744  0.2124  0.3813
  144OSM   H13S15751   2.667   6.149   3.616 -2.3723  0.7066  0.7676
  144OSM   H13T15752   2.588   6.302   3.637  0.5178 -0.3877  0.4728
  144OSM   C14S15753   2.773   6.279   3.741 -0.5460 -0.2222  0.2986
  144OSM   H14S15754   2.795   6.388   3.738 -3.9334  0.5335 -2.2752
  144OSM   H14T15755   2.874   6.235   3.727 -0.5014  0.4968 -2.0029
  144OSM   C15S15756   2.717   6.250   3.871 -0.0310  0.0752  0.0460
  144OSM   H15S15757   2.704   6.140   3.886  3.1763 -0.3391  0.5255
  144OSM   H15T15758   2.615   6.294   3.864 -0.6379 -1.2768  0.0708
  144OSM   C16S15759   2.794   6.319   3.990 -0.8034  0.1146 -0.4615
  144OSM   H16S15760   2.805   6.423   3.953  0.5773  0.0187 -0.3796
  144OSM   H16T15761   2.894   6.270   3.993 -0.3404  1.0790  0.7126
  144OSM   C17S15762   2.719   6.307   4.121  0.3391 -0.5048  0.0041
  144OSM   H17S15763   2.615   6.341   4.101  1.0380  2.2385  0.6187
  144OSM   H17T15764   2.757   6.373   4.202 -2.7576  0.5213  0.7690
  144OSM   C18S15765   2.702   6.160   4.174 -0.3315 -0.2690  0.5481
  144OSM   H18S15766   2.804   6.120   4.190  0.0154 -1.1186 -2.9746
  144OSM   H18T15767   2.654   6.091   4.101  0.8557 -3.4412  2.5598
  144OSM   H18U15768   2.650   6.163   4.272  0.8876 -2.1302  1.3086
  144OSM    C1F15769   2.924   5.793   2.716  0.5947  0.3618  0.6388
  144OSM     OF15770   3.016   5.777   2.639 -0.0236  0.4916  0.1869
  144OSM    C2F15771   2.924   5.740   2.853 -0.1154  0.3736 -0.3029
  144OSM    H2F15772   3.005   5.665   2.867 -1.4288 -0.9637  0.3942
  144OSM    H2G15773   2.829   5.690   2.882 -0.4434  1.1291 -0.0377
  144OSM    C3F15774   2.959   5.861   2.947 -0.2220 -0.5689 -0.4243
  144OSM    H3F15775   2.884   5.938   2.920  1.1249  0.7133 -0.6197
  144OSM    H3G15776   3.053   5.911   2.915 -0.3135 -0.8112 -1.1065
  144OSM    C4F15777   2.944   5.833   3.094  0.0416  0.5831  0.6950
  144OSM    H4F15778   3.028   5.764   3.114  1.2656  1.2652 -1.7426
  144OSM    H4G15779   2.849   5.780   3.118  2.1440 -3.9069 -0.0041
  144OSM    C5F15780   2.938   5.962   3.182 -0.7785  0.7759  0.1978
  144OSM    H5F15781   2.834   6.001   3.176 -1.5725 -1.3523 -0.6581
  144OSM    H5G15782   3.007   6.036   3.136  1.5153 -0.3747  1.5858
  144OSM    C6F15783   2.965   5.932   3.331  0.6805  0.0175  0.1765
  144OSM    H6F15784   2.998   6.026   3.380  1.2058 -0.1755  0.2080
  144OSM    H6G15785   3.039   5.849   3.329 -1.7124 -2.2861  1.4350
  144OSM    C7F15786   2.838   5.883   3.407 -0.8178 -1.2077  0.3586
  144OSM    H7F15787   2.786   5.805   3.346 -0.2335 -1.5882  0.3404
  144OSM    H7G15788   2.769   5.970   3.407  2.6075  1.7849  2.4701
  144OSM    C8F15789   2.878   5.827   3.550  0.6205 -0.0431  0.8729
  144OSM    H8F15790   2.973   5.774   3.527 -0.9771 -2.2823 -0.9809
  144OSM    H8G15791   2.798   5.754   3.576  0.1872  0.2706  0.4300
  144OSM    C9F15792   2.904   5.929   3.659  0.5482 -0.4859 -0.5899
  144OSM    H9F15793   2.867   6.031   3.639 -1.7214 -1.0343  0.4263
  144OSM   C10F15794   2.940   5.904   3.781 -0.7360 -0.0388 -0.6556
  144OSM   H10F15795   2.932   5.985   3.855 -0.8267 -0.2669 -0.4125
  144OSM   C11F15796   2.994   5.775   3.836 -0.0702 -0.3330 -0.1930
  144OSM   H11F15797   3.104   5.793   3.833 -0.1943  0.8552  1.1736
  144OSM   H11G15798   2.956   5.682   3.790 -0.0686 -0.5561  0.2470
  144OSM   C12F15799   2.950   5.770   3.985  0.6762 -0.0710  0.1974
  144OSM   H12F15800   2.974   5.668   4.021  0.7230 -0.0685  0.1733
  144OSM   H12G15801   2.839   5.778   3.988  0.4930 -0.7942 -2.5964
  144OSM   C13F15802   3.017   5.849   4.087 -0.4127 -0.2509 -0.9824
  144OSM   H13F15803   3.003   5.958   4.071  1.8044  0.4241  1.1405
  144OSM   H13G15804   3.126   5.834   4.076 -0.1465  1.0256 -0.1963
  144OSM   C14F15805   2.972   5.814   4.233 -0.3316 -0.6150 -0.4229
  144OSM   H14F15806   2.972   5.704   4.249  2.6419 -0.5464  0.7117
  144OSM   H14G15807   2.869   5.851   4.254  0.1195 -0.6123  2.2283
  144OSM   C15F15808   3.056   5.884   4.340 -0.0376  0.1267  0.0276
  144OSM   H15F15809   3.165   5.868   4.321  0.3215 -0.2168  2.1259
  144OSM   H15G15810   3.031   5.830   4.434 -1.5605  1.3059  0.3278
  144OSM   C16F15811   3.013   6.026   4.366  0.1412 -0.4503  0.1161
  144OSM   H16F15812   2.916   6.026   4.420  0.2997  0.3819  0.4182
  144OSM   H16G15813   3.001   6.078   4.268  1.6474 -1.7565 -0.8058
  144OSM   C17F15814   3.116   6.111   4.446  0.0075  0.6898 -0.0398
  144OSM   H17F15815   3.211   6.117   4.388  0.7636  0.3799  1.1358
  144OSM   H17G15816   3.126   6.049   4.538 -0.8366  0.3987 -0.1372
  144OSM   C18F15817   3.064   6.245   4.496  0.1526 -0.7238  0.8287
  144OSM   H18F15818   3.051   6.327   4.421  1.3872 -3.3110 -2.4656
  144OSM   H18G15819   3.134   6.282   4.573  0.4491 -0.9335  0.6615
  144OSM   H18H15820   2.962   6.238   4.540 -2.7449 -0.9482 -4.9310
  145SAPE     N15821   5.279   5.182   6.530  0.4934 -0.2494 -0.2654
  145SAPE   HN115822   5.208   5.206   6.602  2.0129  0.5959  1.0346
  145SAPE   HN215823   5.284   5.078   6.536  0.7984 -0.3029 -1.2640
  145SAPE   HN315824   5.371   5.210   6.569  0.2770 -2.2479  1.9713
  145SAPE   C1215825   5.226   5.224   6.395 -0.6130 -0.2158 -0.6970
  145SAPE  H12A15826   5.221   5.129   6.336 -2.4839 -0.5133 -0.1262
  145SAPE  H12B15827   5.299   5.290   6.344 -0.7711 -0.6700 -1.5407
  145SAPE   C1115828   5.081   5.291   6.408 -0.4867 -0.3624  0.5464
  145SAPE  H11A15829   5.030   5.311   6.311 -1.8119  3.8491  1.9355
  145SAPE  H11B15830   5.095   5.380   6.473  0.6717 -0.9117  1.0889
  145SAPE     P15831   4.862   5.236   6.540 -0.2348 -0.3921  0.2612
  145SAPE   O1315832   4.789   5.121   6.601 -0.1677 -0.2713 -0.8978
  145SAPE   O1415833   4.886   5.358   6.620 -0.1094 -0.0319 -0.2519
  145SAPE   O1215834   5.004   5.192   6.476  0.0986 -0.2107 -0.7011
  145SAPE   O1115835   4.778   5.295   6.415 -0.1405 -0.5233  0.4155
  145SAPE    C115836   4.757   5.192   6.316 -0.0259  0.3782 -0.7799
  145SAPE    HA15837   4.849   5.135   6.291  0.6864  1.5772 -0.9744
  145SAPE    HB15838   4.669   5.132   6.347  0.0509  0.8962  0.4723
  145SAPE    C215839   4.711   5.264   6.183  0.5296  0.4278  0.1223
  145SAPE    HS15840   4.615   5.316   6.206 -0.7771 -2.2403  1.1694
  145SAPE   O2115841   4.682   5.162   6.085  0.3364 -0.8901  0.3320
  145SAPE   C2115842   4.586   5.195   6.004 -0.1856  0.2157 -0.7790
  145SAPE   O2215843   4.523   5.296   6.002  0.6409  0.2680 -0.3213
  145SAPE   C2215844   4.580   5.087   5.898 -0.5602  0.8235  0.5491
  145SAPE   H2R15845   4.626   4.997   5.945 -2.5220 -1.0848 -0.9345
  145SAPE   H2S15846   4.472   5.061   5.887 -0.0053 -1.7444  0.5360
  145SAPE    C315847   4.818   5.364   6.119  0.0205 -0.1718  0.0055
  145SAPE    HX15848   4.909   5.304   6.094  0.3095 -0.0713  0.7868
  145SAPE    HY15849   4.845   5.438   6.198 -1.8069  0.8605 -0.2941
  145SAPE   O3115850   4.768   5.425   6.000 -0.8213  0.0864  0.4743
  145SAPE   C3115851   4.699   5.542   6.028  0.7529 -0.2524  0.2755
  145SAPE   O3215852   4.676   5.590   6.138  0.2167 -0.0829 -0.0433
  145SAPE   C3215853   4.637   5.597   5.905 -0.5839 -0.0548  0.4784
  145SAPE   H2X15854   4.578   5.516   5.857 -2.5869  0.7190  1.5146
  145SAPE   H2Y15855   4.727   5.619   5.844  0.5116  0.8437  2.3364
  145SAPE   C2315856   4.650   5.108   5.760 -1.0794  1.0862  0.1012
  145SAPE   H3R15857   4.663   5.012   5.706 -0.3083  0.3264  1.5711
  145SAPE   H3S15858   4.754   5.142   5.783 -1.4950  1.9282  0.7772
  145SAPE   C2415859   4.583   5.211   5.673  0.1309  0.8010 -0.4106
  145SAPE   H4R15860   4.544   5.297   5.730  0.1508 -0.1023  1.0082
  145SAPE   H4S15861   4.487   5.174   5.629 -0.1886  2.1890 -0.9255
  145SAPE   C2515862   4.692   5.257   5.578  0.1277  0.5659 -0.3475
  145SAPE   H5R15863   4.795   5.264   5.616  1.9267 -0.5455 -4.4135
  145SAPE   C2615864   4.681   5.287   5.448 -0.4257 -1.1784 -0.7582
  145SAPE   H6R15865   4.770   5.323   5.394 -0.2982  0.0326  0.2329
  145SAPE   C2715866   4.555   5.265   5.363 -0.1329  0.3935 -0.2513
  145SAPE   H7R15867   4.484   5.332   5.415 -1.2206 -2.7829  2.7608
  145SAPE   H7S15868   4.512   5.165   5.385 -0.8185  1.1384  1.9683
  145SAPE   C2815869   4.553   5.281   5.213 -0.4248  0.3079  0.7608
  145SAPE   H8R15870   4.483   5.360   5.181 -0.5063 -0.0305  0.0842
  145SAPE   C2915871   4.634   5.212   5.124 -0.4479 -0.2578  0.5831
  145SAPE   H9R15872   4.618   5.229   5.016 -0.1236  0.3877  0.6296
  145SAPE  C21015873   4.720   5.094   5.160 -0.3090 -0.1420  0.5166
  145SAPE  H10R15874   4.667   5.022   5.227 -0.0798  0.5355  1.4466
  145SAPE  H10S15875   4.805   5.137   5.218 -1.9762  2.6591  1.0524
  145SAPE  C21115876   4.771   5.017   5.037  0.6396  0.2793 -0.5285
  145SAPE  H11R15877   4.698   4.941   5.006  0.2360 -0.5457  2.1797
  145SAPE  C21215878   4.872   5.035   4.954 -0.4725 -0.4298 -0.4381
  145SAPE  H12R15879   4.896   4.968   4.871  0.1472 -0.0295 -0.5900
  145SAPE  C21315880   4.976   5.143   4.980  0.4451 -0.6558 -0.1224
  145SAPE  H13R15881   4.943   5.220   5.052  0.2926  0.8627 -1.7623
  145SAPE  H13S15882   4.992   5.212   4.894 -0.7339  0.0834  0.2345
  145SAPE  C21415883   5.101   5.074   5.022 -0.0988 -0.1480  0.6342
  145SAPE  H14R15884   5.108   5.041   5.127  0.0412 -1.8215  0.1239
  145SAPE  C21515885   5.201   5.022   4.947  0.7211 -0.1917 -0.2893
  145SAPE  H15R15886   5.272   4.953   4.995  0.2601 -0.8536 -0.5475
  145SAPE  C21615887   5.214   5.016   4.799  0.5153 -0.2243  0.1494
  145SAPE  H16R15888   5.304   5.073   4.770 -0.3925  1.7418  1.0290
  145SAPE  H16S15889   5.121   5.046   4.746  1.2244  1.6819 -0.0704
  145SAPE  C21715890   5.238   4.871   4.758  0.3527  0.0899  0.4304
  145SAPE  H17R15891   5.177   4.802   4.820  1.1829 -0.0815  1.0700
  145SAPE  H17S15892   5.346   4.855   4.781  0.6157 -2.0105 -1.9060
  145SAPE  C21815893   5.218   4.834   4.610 -0.4033  0.1796 -0.2327
  145SAPE  H18R15894   5.307   4.874   4.558  0.4537  0.8310  1.6540
  145SAPE  H18S15895   5.121   4.874   4.573  0.2622  1.9682 -0.1476
  145SAPE  C21915896   5.221   4.680   4.582  0.0080 -0.1377 -0.4465
  145SAPE  H19R15897   5.188   4.668   4.477 -4.4525 -3.4012  1.0095
  145SAPE  H19S15898   5.145   4.623   4.639  0.2148  0.2985  0.2884
  145SAPE  C22015899   5.359   4.617   4.609  0.4098  0.9712  1.0523
  145SAPE  H20R15900   5.436   4.673   4.551  0.1305 -0.1786 -0.4843
  145SAPE  H20S15901   5.353   4.512   4.574  0.6634  1.2557  0.1320
  145SAPE  H20T15902   5.370   4.622   4.720 -0.4225  2.0662  1.1100
  145SAPE   C3315903   4.540   5.714   5.925 -0.4251 -0.1466 -0.0737
  145SAPE   H3X15904   4.581   5.783   6.003  0.9860 -2.3443  1.2558
  145SAPE   H3Y15905   4.449   5.670   5.971 -0.2653 -0.4498 -0.0461
  145SAPE   C3415906   4.495   5.788   5.798 -0.9011 -0.1582  0.2993
  145SAPE   H4X15907   4.574   5.861   5.769 -1.7782  0.7358  0.0926
  145SAPE   H4Y15908   4.400   5.844   5.815  0.2109  1.9673 -0.1133
  145SAPE   C3515909   4.467   5.701   5.676 -0.0136  0.6267  0.1788
  145SAPE   H5X15910   4.418   5.608   5.711  1.8274  0.0622  1.4330
  145SAPE   H5Y15911   4.563   5.653   5.645 -0.8867 -1.7869  0.9957
  145SAPE   C3615912   4.396   5.769   5.560 -0.0291 -0.2820 -0.5109
  145SAPE   H6X15913   4.334   5.850   5.602 -1.1034 -0.9559 -0.7528
  145SAPE   H6Y15914   4.327   5.703   5.504 -0.9593 -1.8972  2.3138
  145SAPE   C3715915   4.489   5.836   5.460  0.1879  0.9132  0.2105
  145SAPE   H7X15916   4.553   5.901   5.524  0.8024 -0.5598  1.1348
  145SAPE   H7Y15917   4.434   5.903   5.391  1.1475  0.4851 -0.9930
  145SAPE   C3815918   4.553   5.744   5.356 -0.4555  0.0796 -0.2006
  145SAPE   H8X15919   4.539   5.641   5.398  0.8264  0.3435  0.9624
  145SAPE   H8Y15920   4.663   5.761   5.351 -0.4299 -0.3460 -1.4122
  145SAPE   C3915921   4.495   5.744   5.218  0.9738  0.2563  0.3397
  145SAPE   H9X15922   4.495   5.846   5.172 -0.7621 -0.9686 -2.7191
  145SAPE   H9Y15923   4.387   5.722   5.204  0.8912  1.0327 -0.3354
  145SAPE  C31015924   4.579   5.656   5.126  0.7714  0.5013 -0.1146
  145SAPE  H10X15925   4.598   5.566   5.189 -0.5130 -0.2556 -0.7539
  145SAPE  H10Y15926   4.669   5.714   5.099 -0.1383  1.5174 -1.0699
  145SAPE  C31115927   4.513   5.619   4.991 -0.4667 -0.0703 -0.5576
  145SAPE  H11X15928   4.485   5.719   4.951  0.1615  0.1604 -0.4298
  145SAPE  H11Y15929   4.421   5.557   5.003 -0.6725 -0.2647 -2.7240
  145SAPE  C31215930   4.608   5.551   4.891  0.9066  0.3707  0.1527
  145SAPE  H12X15931   4.631   5.452   4.937 -2.7290 -1.1389 -0.9198
  145SAPE  H12Y15932   4.705   5.602   4.874  2.3401 -2.3600 -0.4552
  145SAPE  C31315933   4.538   5.530   4.748  0.0316  0.5478 -0.5563
  145SAPE  H13X15934   4.585   5.607   4.684  1.6049 -0.2856 -0.4548
  145SAPE  H13Y15935   4.429   5.539   4.768  0.5774 -0.3364  3.9924
  145SAPE  C31415936   4.558   5.388   4.695  0.0887 -1.0398 -0.0928
  145SAPE  H14X15937   4.497   5.378   4.603 -0.4386 -1.4681  0.3003
  145SAPE  H14Y15938   4.522   5.311   4.766 -1.0371 -1.2762 -0.9070
  145SAPE  C31515939   4.704   5.363   4.656  0.6388 -0.3124 -0.5504
  145SAPE  H15X15940   4.770   5.387   4.741  0.1816  1.9435 -0.7567
  145SAPE  H15Y15941   4.732   5.438   4.578 -0.6387  0.5019 -0.2695
  145SAPE  C31615942   4.704   5.216   4.615  0.4374  0.1865 -0.4106
  145SAPE  H16X15943   4.639   5.208   4.525 -2.2283 -1.2434  1.4934
  145SAPE  H16Y15944   4.666   5.151   4.697 -0.2372 -0.9032 -1.5510
  145SAPE  C31715945   4.844   5.178   4.564  0.1441  0.0603  1.3348
  145SAPE  H17X15946   4.927   5.209   4.631  2.4943  0.5811 -1.6381
  145SAPE  H17Y15947   4.863   5.225   4.466 -0.4710  1.2117  1.7509
  145SAPE  C31815948   4.868   5.023   4.554  0.1165 -0.3709 -0.4451
  145SAPE  H18X15949   4.791   4.973   4.492  0.6862  1.1813 -2.4905
  145SAPE  H18Y15950   4.872   4.981   4.657 -1.3453 -0.9975 -0.6228
  145SAPE  H18Z15951   4.967   5.008   4.507  0.3792 -3.7388  0.8739
  146SAPE     N15952   0.370   5.092   6.632 -0.5599 -0.0318 -0.0031
  146SAPE   HN115953   0.415   5.059   6.720  0.2406 -0.6012 -0.6039
  146SAPE   HN215954   0.291   5.152   6.661 -0.7962 -0.8518  1.1117
  146SAPE   HN315955   0.324   5.016   6.577 -2.0625 -0.0008  1.1603
  146SAPE   C1215956   0.471   5.170   6.554  1.3561 -0.5375 -0.1198
  146SAPE  H12A15957   0.549   5.113   6.500 -0.2386 -1.0920 -1.9082
  146SAPE  H12B15958   0.522   5.237   6.627  0.9361  1.3542 -1.4933
  146SAPE   C1115959   0.410   5.264   6.444  0.1863  0.3589 -0.6215
  146SAPE  H11A15960   0.361   5.194   6.372  0.2445 -3.4124  2.6407
  146SAPE  H11B15961   0.491   5.318   6.391  0.0507  0.2365 -0.9585
  146SAPE     P15962   0.318   5.506   6.507  0.1375 -0.1687  0.3789
  146SAPE   O1315963   0.189   5.551   6.562 -0.2017 -0.3061  0.3660
  146SAPE   O1415964   0.437   5.561   6.564 -0.1392  0.5190 -0.1586
  146SAPE   O1215965   0.325   5.349   6.515  0.6645 -0.2467 -0.5606
  146SAPE   O1115966   0.313   5.532   6.354 -0.4232 -0.0537  0.1469
  146SAPE    C115967   0.414   5.543   6.254 -0.0259  0.7274 -0.5115
  146SAPE    HA15968   0.510   5.512   6.300 -0.0758 -1.6504 -1.8909
  146SAPE    HB15969   0.391   5.466   6.178  1.5760  2.7207 -3.1788
  146SAPE    C215970   0.413   5.691   6.206 -0.2623 -0.6799 -0.0136
  146SAPE    HS15971   0.415   5.759   6.294 -0.0075  1.3962 -1.5584
  146SAPE   O2115972   0.293   5.709   6.123  0.5549 -0.6128  0.2520
  146SAPE   C2115973   0.202   5.785   6.177  0.4607  0.6508  0.3420
  146SAPE   O2215974   0.203   5.822   6.295  0.2405  0.4764 -0.0469
  146SAPE   C2215975   0.119   5.837   6.072  0.1737 -0.9064  0.8165
  146SAPE   H2R15976   0.181   5.871   5.986  2.1436  1.3035  2.9453
  146SAPE   H2S15977   0.052   5.757   6.035 -2.8663  0.0614  3.6772
  146SAPE    C315978   0.536   5.723   6.126 -0.3554 -0.5684  0.5474
  146SAPE    HX15979   0.616   5.715   6.202  1.0576 -0.3873 -0.8505
  146SAPE    HY15980   0.538   5.831   6.100 -3.1615 -0.8696 -1.3539
  146SAPE   O3115981   0.550   5.643   6.013  0.1556  0.6672 -0.0589
  146SAPE   C3115982   0.514   5.697   5.899  0.0624 -0.3556  0.0787
  146SAPE   O3215983   0.473   5.813   5.883  0.2633  0.0476  0.1395
  146SAPE   C3215984   0.512   5.603   5.778 -0.0853  0.6610 -0.3445
  146SAPE   H2X15985   0.430   5.530   5.796  0.7314 -1.0351 -2.9212
  146SAPE   H2Y15986   0.609   5.548   5.780 -0.0114  0.8010  0.4172
  146SAPE   C2315987   0.029   5.953   6.120  0.3062  0.0823  0.6423
  146SAPE   H3R15988   0.090   6.032   6.169 -0.2511  0.9353 -0.0005
  146SAPE   H3S15989  -0.043   5.903   6.188 -3.2755  1.0855 -2.0832
  146SAPE   C2415990  -0.056   6.008   6.011  0.7801  0.0510 -0.6746
  146SAPE   H4R15991  -0.155   6.042   6.051  0.6429 -2.4389  1.3687
  146SAPE   H4S15992  -0.065   5.921   5.943 -0.0878 -0.8597  0.5409
  146SAPE   C2515993   0.006   6.124   5.945  0.1310 -0.3368  0.0940
  146SAPE   H5R15994   0.044   6.198   6.017 -0.0016 -0.4415  0.2708
  146SAPE   C2615995   0.012   6.152   5.814  0.1870 -0.3486  0.6858
  146SAPE   H6R15996   0.065   6.243   5.784 -1.7370  0.6185  0.0528
  146SAPE   C2715997  -0.021   6.048   5.708 -0.2045 -0.2915 -0.2050
  146SAPE   H7R15998  -0.067   6.104   5.623  1.4530 -2.1435 -2.4681
  146SAPE   H7S15999  -0.090   5.968   5.743 -1.0250  0.9490  1.1018
  146SAPE   C2816000   0.110   5.987   5.658 -0.3147  0.0693 -0.2641
  146SAPE   H8R16001   0.176   5.943   5.735 -0.5633 -0.4067 -0.3184
  146SAPE   C2916002   0.152   5.992   5.529 -0.3426  0.1158  0.0408
  146SAPE   H9R16003   0.255   5.958   5.513  0.2475  0.8453  1.9654
  146SAPE  C21016004   0.066   6.048   5.414 -0.0854 -0.0074  0.1034
  146SAPE  H10R16005   0.037   6.155   5.416 -1.3599 -0.3414  1.2398
  146SAPE  H10S16006  -0.034   6.000   5.413 -0.1427 -0.0725 -3.4557
  146SAPE  C21116007   0.129   6.013   5.283  0.0453  0.0045  0.0808
  146SAPE  H11R16008   0.222   5.956   5.293 -1.0338 -1.5820  1.8686
  146SAPE  C21216009   0.076   6.050   5.167 -0.5195 -0.1181  0.0705
  146SAPE  H12R16010   0.130   6.014   5.078 -1.0585 -0.1071 -0.2646
  146SAPE  C21316011  -0.050   6.128   5.139 -0.4841  0.4956 -0.8375
  146SAPE  H13R16012  -0.034   6.206   5.063  1.5279  0.8881 -0.0519
  146SAPE  H13S16013  -0.084   6.188   5.226 -1.8036 -0.6011 -0.5450
  146SAPE  C21416014  -0.163   6.040   5.093 -0.0347  0.2734  0.4864
  146SAPE  H14R16015  -0.155   6.003   4.990  0.7709 -1.4926  1.1536
  146SAPE  C21516016  -0.281   6.020   5.156  0.4824 -0.6828  0.0330
  146SAPE  H15R16017  -0.354   5.960   5.099 -0.4141  3.3189 -3.5282
  146SAPE  C21616018  -0.314   6.071   5.296 -0.0906 -0.1041 -0.2285
  146SAPE  H16R16019  -0.405   6.135   5.297  0.0195  0.1341 -2.0145
  146SAPE  H16S16020  -0.224   6.119   5.340  0.6111 -3.9945  3.2081
  146SAPE  C21716021  -0.349   5.965   5.394 -0.1076  0.1706  0.8641
  146SAPE  H17R16022  -0.264   5.893   5.400 -0.3470 -0.3665 -1.2336
  146SAPE  H17S16023  -0.441   5.910   5.365  0.2039 -0.3396  0.8222
  146SAPE  C21816024  -0.373   6.023   5.535 -0.0387 -0.1362 -0.3707
  146SAPE  H18R16025  -0.448   6.104   5.527  0.4008  0.5451  1.7464
  146SAPE  H18S16026  -0.276   6.069   5.564 -0.1918  0.5731 -0.9473
  146SAPE  C21916027  -0.408   5.909   5.623 -0.1852  0.6310 -0.3085
  146SAPE  H19R16028  -0.322   5.840   5.633 -0.5997  0.3355  1.6887
  146SAPE  H19S16029  -0.475   5.836   5.573  0.8375 -1.8279  1.6614
  146SAPE  C22016030  -0.445   5.949   5.758 -0.5604  0.7561 -0.5888
  146SAPE  H20R16031  -0.374   6.027   5.792  1.5446 -0.7291 -1.4283
  146SAPE  H20S16032  -0.438   5.859   5.822 -1.6173  2.6436  2.4033
  146SAPE  H20T16033  -0.547   5.993   5.754 -1.3087 -0.9554 -1.2541
  146SAPE   C3316034   0.483   5.675   5.643 -0.9449 -0.6314 -0.0247
  146SAPE   H3X16035   0.543   5.769   5.636 -2.0682  0.0391 -0.8420
  146SAPE   H3Y16036   0.374   5.692   5.628 -0.9416 -0.5700  0.0191
  146SAPE   C3416037   0.557   5.594   5.530 -0.3891 -0.5431 -0.0788
  146SAPE   H4X16038   0.547   5.486   5.554  0.0612 -1.0285 -1.9060
  146SAPE   H4Y16039   0.667   5.610   5.525 -0.3111 -1.1439 -0.4515
  146SAPE   C3516040   0.486   5.630   5.396 -0.4595  0.1825 -0.1430
  146SAPE   H5X16041   0.489   5.741   5.390 -1.1311  0.3327  1.5757
  146SAPE   H5Y16042   0.379   5.597   5.393 -1.5172  3.2740  0.0001
  146SAPE   C3616043   0.568   5.564   5.282 -0.1659  0.0989 -0.0638
  146SAPE   H6X16044   0.589   5.458   5.307  0.5201  0.3295  0.3800
  146SAPE   H6Y16045   0.666   5.618   5.280 -0.8857  1.4373 -1.0203
  146SAPE   C3716046   0.510   5.600   5.143 -0.0343  0.8711 -0.0550
  146SAPE   H7X16047   0.406   5.569   5.119  0.8180  0.3009 -3.5814
  146SAPE   H7Y16048   0.571   5.542   5.069 -0.7311 -1.5400  1.1598
  146SAPE   C3816049   0.536   5.748   5.106  0.5327 -0.2860  0.4144
  146SAPE   H8X16050   0.639   5.781   5.129 -0.5845  2.8045  1.5211
  146SAPE   H8Y16051   0.472   5.820   5.162  0.5122  0.0035  0.0157
  146SAPE   C3916052   0.521   5.771   4.958  0.0912 -0.9117 -0.0032
  146SAPE   H9X16053   0.418   5.805   4.938  0.4604  1.3004  1.5492
  146SAPE   H9Y16054   0.545   5.680   4.898  2.0469  0.5906 -1.6439
  146SAPE  C31016055   0.624   5.871   4.903  0.0025 -0.7353  0.2247
  146SAPE  H10X16056   0.727   5.841   4.932  0.3498 -0.4274 -0.6406
  146SAPE  H10Y16057   0.605   5.972   4.946  1.4740 -0.6710  0.7931
  146SAPE  C31116058   0.628   5.874   4.746  0.3999 -0.3984  0.2623
  146SAPE  H11X16059   0.637   5.769   4.710  0.3645 -0.7640  1.3112
  146SAPE  H11Y16060   0.727   5.916   4.720  1.4843 -2.4862  0.8150
  146SAPE  C31216061   0.520   5.957   4.674 -0.6067  0.0155 -0.2117
  146SAPE  H12X16062   0.525   6.062   4.710 -1.4618 -0.1686  0.5019
  146SAPE  H12Y16063   0.426   5.910   4.713  0.8546 -2.1020  0.9793
  146SAPE  C31316064   0.515   5.959   4.516 -0.2715 -0.2479 -0.5805
  146SAPE  H13X16065   0.415   5.999   4.487  0.3605  1.2723 -0.7549
  146SAPE  H13Y16066   0.526   5.855   4.479  0.9639 -0.0595 -0.7610
  146SAPE  C31416067   0.647   6.025   4.468  0.3392 -0.2435  0.6050
  146SAPE  H14X16068   0.732   5.969   4.514 -0.8774 -0.7421  2.3490
  146SAPE  H14Y16069   0.659   6.128   4.507 -0.5383 -0.0425  0.3479
  146SAPE  C31516070   0.669   6.040   4.315  0.2730 -0.0282  0.5430
  146SAPE  H15X16071   0.676   5.939   4.269 -1.9675  0.5591 -1.2510
  146SAPE  H15Y16072   0.769   6.087   4.297  0.6306 -0.3865  1.5136
  146SAPE  C31616073   0.558   6.120   4.249 -0.4336  0.1020  0.5966
  146SAPE  H16X16074   0.565   6.222   4.294  1.4067  0.9920 -1.4903
  146SAPE  H16Y16075   0.458   6.073   4.260 -0.7335  0.3464 -0.8010
  146SAPE  C31716076   0.581   6.129   4.098 -0.2058  0.5712  0.1349
  146SAPE  H17X16077   0.573   6.024   4.062 -0.1495  0.4421  0.4903
  146SAPE  H17Y16078   0.688   6.152   4.077 -0.1909  0.3807  0.0026
  146SAPE  C31816079   0.485   6.208   4.019  0.0335 -0.2300  0.3618
  146SAPE  H18X16080   0.492   6.312   4.055 -2.2741  1.1030 -2.5568
  146SAPE  H18Y16081   0.381   6.169   4.021  0.6697 -2.0555  2.3285
  146SAPE  H18Z16082   0.519   6.219   3.914 -0.7480 -2.9305 -0.2712
  147SAPE     N16083   4.629   3.122   6.898  0.3969  0.8266 -0.6483
  147SAPE   HN116084   4.549   3.094   6.838 -1.2064  1.3541  1.1374
  147SAPE   HN216085   4.627   3.051   6.973 -2.1727  1.5605  0.0998
  147SAPE   HN316086   4.622   3.214   6.946 -0.0970  2.6762 -3.9408
  147SAPE   C1216087   4.752   3.096   6.821 -0.7046  0.1551 -0.4427
  147SAPE  H12A16088   4.751   2.989   6.792 -1.4814 -0.6406  2.2728
  147SAPE  H12B16089   4.835   3.124   6.889 -1.1184  0.3837 -0.0264
  147SAPE   C1116090   4.766   3.190   6.698 -0.3821 -0.1222 -0.7913
  147SAPE  H11A16091   4.867   3.177   6.653  0.3582  1.5100  0.2792
  147SAPE  H11B16092   4.750   3.294   6.733 -0.9717  0.1700 -1.9015
  147SAPE     P16093   4.666   3.042   6.502 -0.0284 -0.2610  0.0396
  147SAPE   O1316094   4.677   2.918   6.580  0.4453 -0.3632  0.1842
  147SAPE   O1416095   4.556   3.052   6.411  0.2837 -0.2503  0.1782
  147SAPE   O1216096   4.663   3.164   6.603 -0.3721 -0.1962  0.0677
  147SAPE   O1116097   4.796   3.050   6.416 -0.5076  0.1764 -0.2207
  147SAPE    C116098   4.843   3.169   6.360  0.4401 -0.8303 -0.5514
  147SAPE    HA16099   4.825   3.257   6.425 -0.5818 -0.9708 -0.6206
  147SAPE    HB16100   4.953   3.159   6.345  0.4946 -0.9154 -0.1025
  147SAPE    C216101   4.775   3.190   6.223  0.2563 -0.4212 -0.9448
  147SAPE    HS16102   4.665   3.179   6.232  0.4311 -1.4327  0.2491
  147SAPE   O2116103   4.833   3.090   6.129  0.6673  0.1609 -0.7666
  147SAPE   C2116104   4.753   3.079   6.023  0.0715  0.3237  0.0238
  147SAPE   O2216105   4.642   3.131   6.012  0.0695  0.5552 -0.0557
  147SAPE   C2216106   4.823   2.977   5.925  0.4878 -0.3472 -0.7128
  147SAPE   H2R16107   4.930   3.006   5.918  0.8102 -1.3153 -0.0333
  147SAPE   H2S16108   4.821   2.875   5.970 -0.3379  0.1795  0.4785
  147SAPE    C316109   4.803   3.335   6.179 -0.3061 -0.1287 -0.3406
  147SAPE    HX16110   4.748   3.392   6.258 -0.2660 -0.3016 -0.1856
  147SAPE    HY16111   4.757   3.350   6.079 -1.0777  0.7161  0.1193
  147SAPE   O3116112   4.945   3.370   6.173  0.5332  0.6439 -0.1322
  147SAPE   C3116113   5.012   3.328   6.070 -0.2698  0.3839  0.1124
  147SAPE   O3216114   4.966   3.288   5.965  0.7254  0.5918  0.1675
  147SAPE   C3216115   5.162   3.347   6.097 -0.1990  0.8925 -0.6653
  147SAPE   H2X16116   5.179   3.259   6.163 -0.5550  1.1975 -0.1644
  147SAPE   H2Y16117   5.179   3.444   6.150 -1.7346 -0.0267  1.6582
  147SAPE   C2316118   4.750   2.973   5.786 -0.6893  0.3815 -0.3938
  147SAPE   H3R16119   4.641   2.957   5.804 -0.2111 -0.6661  1.9249
  147SAPE   H3S16120   4.778   2.875   5.742  1.8488  0.8479  0.0719
  147SAPE   C2416121   4.785   3.090   5.696  0.0896  0.2391 -0.0843
  147SAPE   H4R16122   4.735   3.177   5.743 -0.7805 -0.0092 -0.5386
  147SAPE   H4S16123   4.727   3.069   5.604  2.0788  0.2646 -1.4008
  147SAPE   C2516124   4.932   3.102   5.681 -0.9022  0.2723 -0.1710
  147SAPE   H5R16125   4.991   3.166   5.748  0.5919 -1.1273 -0.0848
  147SAPE   C2616126   5.006   3.031   5.592 -0.2315  0.1134 -0.4225
  147SAPE   H6R16127   5.116   3.041   5.593  0.1030 -2.7981  0.9731
  147SAPE   C2716128   4.954   2.936   5.491 -0.3720 -0.2598  0.1646
  147SAPE   H7R16129   4.968   2.986   5.393  1.1099  0.5931  0.7751
  147SAPE   H7S16130   4.845   2.923   5.511 -0.7784  1.5904 -0.6404
  147SAPE   C2816131   5.023   2.802   5.507 -0.0643  1.1071 -0.2001
  147SAPE   H8R16132   5.041   2.763   5.608 -0.2210  1.8610  0.1276
  147SAPE   C2916133   5.065   2.728   5.403 -0.5768 -0.2245  0.3189
  147SAPE   H9R16134   5.105   2.627   5.421 -0.5896 -0.1871  0.5567
  147SAPE  C21016135   5.057   2.776   5.260  0.3738 -0.6023  0.3409
  147SAPE  H10R16136   4.961   2.834   5.259  0.1486 -0.9192 -2.1263
  147SAPE  H10S16137   5.037   2.694   5.189 -1.1909 -0.0167  0.0596
  147SAPE  C21116138   5.171   2.874   5.231 -0.2635 -0.2198 -0.2216
  147SAPE  H11R16139   5.190   2.955   5.303  1.2316  1.6896 -2.6093
  147SAPE  C21216140   5.252   2.882   5.125 -0.1926  0.2293 -0.2251
  147SAPE  H12R16141   5.343   2.943   5.127  1.2635 -1.6484 -2.9224
  147SAPE  C21316142   5.253   2.780   5.016  0.1039 -0.1701 -0.1646
  147SAPE  H13R16143   5.152   2.786   4.971 -0.8483 -0.8051  1.7741
  147SAPE  H13S16144   5.277   2.682   5.062 -0.7049 -0.1711  0.2637
  147SAPE  C21416145   5.368   2.780   4.920 -0.1360 -0.1853 -0.3487
  147SAPE  H14R16146   5.455   2.714   4.928 -1.6682 -2.2428  0.1105
  147SAPE  C21516147   5.382   2.872   4.826  0.3201 -0.4414 -0.1785
  147SAPE  H15R16148   5.476   2.871   4.769  0.4773  1.7296 -0.0475
  147SAPE  C21616149   5.285   2.986   4.797  0.3190  0.4537 -0.1073
  147SAPE  H16R16150   5.324   3.081   4.837 -4.0306  1.8655  1.3930
  147SAPE  H16S16151   5.185   2.959   4.837  0.1631  1.6585  0.3275
  147SAPE  C21716152   5.265   3.007   4.650 -0.0207 -0.1119 -0.2787
  147SAPE  H17R16153   5.261   2.908   4.601  4.4700 -0.7387  0.2013
  147SAPE  H17S16154   5.349   3.061   4.600  0.4017 -1.7940 -1.5008
  147SAPE  C21816155   5.144   3.090   4.617  0.3541 -1.3757  0.2482
  147SAPE  H18R16156   5.137   3.085   4.506 -1.0169 -0.4221  0.2690
  147SAPE  H18S16157   5.176   3.194   4.641  0.4517 -0.9144 -1.7168
  147SAPE  C21916158   5.004   3.052   4.674 -0.6755 -0.1314  0.5081
  147SAPE  H19R16159   5.002   3.048   4.785 -4.8449 -1.3241  0.5564
  147SAPE  H19S16160   4.988   2.952   4.629 -4.8841  0.4404  0.3006
  147SAPE  C22016161   4.893   3.138   4.634 -0.4491 -0.4154  0.1633
  147SAPE  H20R16162   4.825   3.125   4.721  2.1680 -0.7015  2.3016
  147SAPE  H20S16163   4.849   3.114   4.535 -0.6369 -0.6358  0.2991
  147SAPE  H20T16164   4.926   3.244   4.629  1.9745 -1.1326 -0.7231
  147SAPE   C3316165   5.248   3.346   5.972  0.2736  0.0678 -0.0121
  147SAPE   H3X16166   5.238   3.442   5.918 -0.7204 -2.0027 -3.8194
  147SAPE   H3Y16167   5.209   3.267   5.905  1.2279 -1.2348  0.9161
  147SAPE   C3416168   5.397   3.307   5.987 -0.2253  0.0015 -0.5245
  147SAPE   H4X16169   5.409   3.202   6.022  1.6254 -0.2799 -1.8770
  147SAPE   H4Y16170   5.441   3.372   6.065 -1.1358 -1.6941  1.5093
  147SAPE   C3516171   5.485   3.326   5.867  0.0092  0.1039 -0.2866
  147SAPE   H5X16172   5.487   3.436   5.853 -0.3785 -0.0862 -2.0411
  147SAPE   H5Y16173   5.427   3.284   5.782 -1.6331 -1.5530  1.5260
  147SAPE   C3616174   5.622   3.259   5.880  0.5117 -0.2321  0.0447
  147SAPE   H6X16175   5.610   3.157   5.921 -0.9982  0.9884  2.9247
  147SAPE   H6Y16176   5.684   3.306   5.960  1.4924 -1.8092  0.2633
  147SAPE   C3716177   5.701   3.259   5.744  0.4862  0.1080 -0.1653
  147SAPE   H7X16178   5.681   3.360   5.705  0.2183  0.2890  0.4277
  147SAPE   H7Y16179   5.657   3.189   5.670 -0.4519  0.8853 -0.3562
  147SAPE   C3816180   5.856   3.232   5.750 -0.3217  0.4986  0.1947
  147SAPE   H8X16181   5.875   3.128   5.785  1.2666  1.2080  1.5621
  147SAPE   H8Y16182   5.915   3.306   5.809  1.6976  1.2320 -2.5143
  147SAPE   C3916183   5.923   3.233   5.607 -0.0274 -0.9755 -0.4420
  147SAPE   H9X16184   6.033   3.242   5.619  0.1652 -2.6336 -0.7505
  147SAPE   H9Y16185   5.873   3.322   5.563  0.3404 -0.5256  0.0455
  147SAPE  C31016186   5.906   3.116   5.519 -0.2751  0.1452 -0.1262
  147SAPE  H10X16187   5.801   3.086   5.497  0.3849 -2.6244  0.0740
  147SAPE  H10Y16188   5.949   3.025   5.566 -0.2947  1.1895  2.0292
  147SAPE  C31116189   5.977   3.120   5.381 -0.1671  0.0500 -0.3181
  147SAPE  H11X16190   5.973   3.018   5.339  1.5207 -0.0023 -0.4233
  147SAPE  H11Y16191   6.085   3.142   5.397 -0.1304 -0.0351 -0.4499
  147SAPE  C31216192   5.930   3.241   5.292  0.0064 -0.3288 -0.2117
  147SAPE  H12X16193   5.923   3.335   5.350  2.8099 -1.6576  2.5506
  147SAPE  H12Y16194   5.824   3.223   5.262 -0.1083 -0.1079  0.0591
  147SAPE  C31316195   6.005   3.259   5.155  0.0644  0.4211 -0.0564
  147SAPE  H13X16196   6.104   3.303   5.179  0.8654 -0.5680 -1.3776
  147SAPE  H13Y16197   5.947   3.328   5.090  0.5586 -0.6889 -1.7548
  147SAPE  C31416198   6.024   3.134   5.073  0.2386 -0.3544  0.0115
  147SAPE  H14X16199   5.934   3.070   5.060  0.9224 -1.3767  0.1731
  147SAPE  H14Y16200   6.100   3.063   5.112  0.2680 -1.4891 -1.9455
  147SAPE  C31516201   6.082   3.168   4.926 -0.1170 -0.2834  0.1912
  147SAPE  H15X16202   6.122   3.078   4.874 -0.2193 -0.3700  0.2625
  147SAPE  H15Y16203   6.168   3.239   4.923  0.0163 -0.1423  3.6192
  147SAPE  C31616204   5.968   3.232   4.842 -0.1773 -0.0458  0.5811
  147SAPE  H16X16205   5.914   3.319   4.884  0.1188  1.0782 -1.2190
  147SAPE  H16Y16206   5.898   3.146   4.837 -1.7356  1.1978  0.2195
  147SAPE  C31716207   6.009   3.266   4.692 -0.3454  0.3138  0.2070
  147SAPE  H17X16208   6.049   3.171   4.650 -2.1486 -0.3101 -0.1573
  147SAPE  H17Y16209   6.085   3.347   4.689 -0.2944  0.2526 -1.0291
  147SAPE  C31816210   5.888   3.322   4.614 -1.1473  0.4317  0.3413
  147SAPE  H18X16211   5.850   3.424   4.637  1.7425  1.5696  0.4464
  147SAPE  H18Y16212   5.798   3.263   4.643 -0.5004 -0.9966 -0.4440
  147SAPE  H18Z16213   5.897   3.312   4.504  1.8249  0.9210  0.4786
  148SAPE     N16214   3.932   2.868   6.685  0.5861 -0.3052 -0.1773
  148SAPE   HN116215   3.889   2.831   6.598  1.1093 -3.0921  0.6453
  148SAPE   HN216216   4.016   2.807   6.696  0.4539 -0.4507  0.0315
  148SAPE   HN316217   3.869   2.853   6.766  3.0344 -0.0910  1.8825
  148SAPE   C1216218   3.948   3.015   6.673 -0.4288 -0.4915  0.0680
  148SAPE  H12A16219   3.947   3.056   6.777 -1.7704 -3.6071  1.4057
  148SAPE  H12B16220   3.854   3.051   6.626  0.6446 -0.2397 -1.9839
  148SAPE   C1116221   4.064   3.071   6.585 -0.0747  0.1737 -0.3297
  148SAPE  H11A16222   4.055   3.180   6.566  0.5809  0.0889 -1.1555
  148SAPE  H11B16223   4.054   3.021   6.486  0.3009 -1.3714  0.3890
  148SAPE     P16224   4.278   3.135   6.717 -0.2352 -0.4450 -0.4626
  148SAPE   O1316225   4.192   3.216   6.803  0.0064  0.2306 -0.5293
  148SAPE   O1416226   4.384   3.054   6.787 -0.1377 -0.1458  0.0818
  148SAPE   O1216227   4.187   3.033   6.643  0.2066 -0.3308 -0.1877
  148SAPE   O1116228   4.345   3.215   6.599  0.5331  0.1270 -0.1232
  148SAPE    C116229   4.340   3.354   6.599  0.0192 -0.2387 -0.0741
  148SAPE    HA16230   4.329   3.398   6.700 -1.1267 -1.6056  0.4229
  148SAPE    HB16231   4.434   3.391   6.552 -1.2676 -0.0897 -2.7175
  148SAPE    C216232   4.221   3.413   6.507 -0.0221 -0.4235 -0.6739
  148SAPE    HS16233   4.132   3.383   6.567  0.4432  0.4810  0.5280
  148SAPE   O2116234   4.226   3.346   6.378  0.5881 -0.0753 -0.5690
  148SAPE   C2116235   4.103   3.329   6.330  0.3537 -0.3608  0.0778
  148SAPE   O2216236   3.999   3.354   6.386 -0.1422 -0.0219  0.0149
  148SAPE   C2216237   4.110   3.287   6.185 -0.2072 -0.4219 -0.1297
  148SAPE   H2R16238   4.208   3.319   6.144 -0.6933  1.6236  0.1995
  148SAPE   H2S16239   4.095   3.177   6.181 -1.1373 -0.2786 -1.8263
  148SAPE    C316240   4.231   3.566   6.492  0.1124  0.3275  0.2434
  148SAPE    HX16241   4.199   3.596   6.595 -0.5483  0.0566  0.1252
  148SAPE    HY16242   4.166   3.611   6.414 -0.5797  2.3955  1.8914
  148SAPE   O3116243   4.364   3.612   6.465  0.1932 -0.2654 -0.0030
  148SAPE   C3116244   4.372   3.744   6.445  0.0585  0.4024  0.4777
  148SAPE   O3216245   4.287   3.827   6.461  0.3104 -0.1250  0.2410
  148SAPE   C3216246   4.518   3.770   6.390 -0.4142 -0.2322  0.4654
  148SAPE   H2X16247   4.565   3.671   6.371 -0.4534 -0.6770  2.4564
  148SAPE   H2Y16248   4.578   3.824   6.468 -1.2481  0.0982  0.8878
  148SAPE   C2316249   3.996   3.345   6.097  0.6758 -0.6040 -0.6602
  148SAPE   H3R16250   3.997   3.456   6.094 -2.1637 -0.4287  1.1492
  148SAPE   H3S16251   3.899   3.328   6.151  0.2297  2.6803 -0.2148
  148SAPE   C2416252   3.986   3.301   5.949  0.3964  0.4217 -0.5949
  148SAPE   H4R16253   3.891   3.336   5.903 -0.8086 -3.0174 -0.9931
  148SAPE   H4S16254   3.991   3.190   5.957  3.3096  0.5683  0.8924
  148SAPE   C2516255   4.103   3.351   5.872 -0.5930  0.5250  1.0766
  148SAPE   H5R16256   4.159   3.431   5.922  0.4641  0.2435  0.3820
  148SAPE   C2616257   4.150   3.308   5.748  0.3586 -0.1781  0.2929
  148SAPE   H6R16258   4.239   3.354   5.704 -0.6455 -0.4479 -2.1891
  148SAPE   C2716259   4.102   3.194   5.663 -0.0085 -0.0883 -0.2253
  148SAPE   H7R16260   4.062   3.112   5.727 -2.6196  0.3069 -1.2228
  148SAPE   H7S16261   4.177   3.129   5.612 -1.3670 -0.7353 -1.4644
  148SAPE   C2816262   3.989   3.246   5.571 -0.6736  0.0367  1.2642
  148SAPE   H8R16263   3.943   3.337   5.612 -1.6469 -1.1278  2.8451
  148SAPE   C2916264   3.938   3.194   5.457 -0.5530  0.0086 -0.1187
  148SAPE   H9R16265   3.851   3.241   5.408  0.7934  1.5382 -1.1358
  148SAPE  C21016266   4.000   3.086   5.379 -0.0886 -0.2420 -0.2419
  148SAPE  H10R16267   4.085   3.043   5.436 -0.0097  0.9264  0.5743
  148SAPE  H10S16268   4.056   3.129   5.293  0.0109  2.8164  1.1872
  148SAPE  C21116269   3.908   2.970   5.335 -0.0845 -0.1635  0.7270
  148SAPE  H11R16270   3.902   2.879   5.396 -1.0055 -0.3874  0.3196
  148SAPE  C21216271   3.831   2.976   5.221 -0.0172 -0.1243 -0.1372
  148SAPE  H12R16272   3.775   2.888   5.187 -0.0712  0.1281 -0.6993
  148SAPE  C21316273   3.810   3.087   5.121 -0.0886  0.5743 -0.3736
  148SAPE  H13R16274   3.800   3.183   5.176 -0.3735  1.3351 -1.7116
  148SAPE  H13S16275   3.708   3.069   5.082  0.4463 -2.3370 -0.6702
  148SAPE  C21416276   3.921   3.086   5.015  0.5036 -1.0597  0.3319
  148SAPE  H14R16277   4.015   3.101   5.070 -1.0283  2.2026  2.3956
  148SAPE  C21516278   3.903   3.091   4.882  0.6717 -0.5623  0.4973
  148SAPE  H15R16279   3.990   3.092   4.815  0.1973  3.2397 -0.2523
  148SAPE  C21616280   3.773   3.088   4.806  1.0515  0.6535 -0.1097
  148SAPE  H16R16281   3.690   3.143   4.855 -1.3269 -2.3760 -0.4630
  148SAPE  H16S16282   3.737   2.986   4.781 -0.2947  1.6326 -2.4347
  148SAPE  C21716283   3.771   3.166   4.674 -0.0361 -0.5701  0.4007
  148SAPE  H17R16284   3.790   3.274   4.690  1.0547 -0.6932  0.0252
  148SAPE  H17S16285   3.669   3.151   4.632  0.1250  0.2141 -0.2902
  148SAPE  C21816286   3.869   3.129   4.567 -0.1201 -0.7219 -0.3558
  148SAPE  H18R16287   3.974   3.140   4.600  0.3302  0.1865 -1.9859
  148SAPE  H18S16288   3.864   3.195   4.478 -1.3443  1.0829  0.9773
  148SAPE  C21916289   3.857   2.984   4.514 -0.2162 -0.3711 -0.1349
  148SAPE  H19R16290   3.874   2.914   4.598  0.0384  0.1486  0.2504
  148SAPE  H19S16291   3.945   2.963   4.450  0.4128 -1.2001  0.9678
  148SAPE  C22016292   3.725   2.955   4.447  0.2979  0.2124  0.4090
  148SAPE  H20R16293   3.735   2.873   4.373 -0.2720 -0.3047  0.8937
  148SAPE  H20S16294   3.693   3.035   4.376  0.0935 -1.1027 -1.0240
  148SAPE  H20T16295   3.646   2.927   4.519 -1.6739  1.2179 -1.2489
  148SAPE   C3316296   4.506   3.838   6.259 -0.9579  0.7961 -0.4479
  148SAPE   H3X16297   4.610   3.842   6.219 -0.8425  0.9575 -0.1406
  148SAPE   H3Y16298   4.480   3.944   6.279  2.0992  1.6258 -0.3165
  148SAPE   C3416299   4.426   3.771   6.149  0.3232  0.1658 -0.5116
  148SAPE   H4X16300   4.319   3.771   6.177  0.5153 -0.2908  0.2315
  148SAPE   H4Y16301   4.472   3.670   6.150  1.7154  0.6536 -3.5555
  148SAPE   C3516302   4.463   3.829   6.017 -0.1400  0.0895 -0.0521
  148SAPE   H5X16303   4.569   3.801   6.001 -0.5029 -0.9276 -0.8150
  148SAPE   H5Y16304   4.451   3.940   6.018 -0.2786  0.0962  1.8328
  148SAPE   C3616305   4.388   3.776   5.893  0.4424 -0.0722 -0.2172
  148SAPE   H6X16306   4.377   3.860   5.821  0.4563 -0.5576 -0.8003
  148SAPE   H6Y16307   4.290   3.738   5.929  0.6780 -0.2021  0.3020
  148SAPE   C3716308   4.458   3.656   5.829  0.2999  0.3180  0.3804
  148SAPE   H7X16309   4.453   3.577   5.907  0.3815  0.9028  0.9906
  148SAPE   H7Y16310   4.567   3.668   5.811  0.6646 -3.3838 -0.8055
  148SAPE   C3816311   4.396   3.620   5.690  0.5531  0.0683  0.1563
  148SAPE   H8X16312   4.386   3.721   5.644  1.8239  1.0782  2.0109
  148SAPE   H8Y16313   4.287   3.601   5.699  0.3279  1.3440  0.4192
  148SAPE   C3916314   4.475   3.518   5.605  0.6484  0.0918 -0.3804
  148SAPE   H9X16315   4.501   3.432   5.670  2.8325  1.3055  0.4412
  148SAPE   H9Y16316   4.564   3.580   5.581  0.6929  0.7915  1.4184
  148SAPE  C31016317   4.393   3.486   5.477 -0.5811  0.5532  0.1658
  148SAPE  H10X16318   4.373   3.582   5.423 -1.3626  0.9006  1.0437
  148SAPE  H10Y16319   4.304   3.426   5.505  0.3140  0.1098  2.2132
  148SAPE  C31116320   4.459   3.391   5.371  0.0647  0.1791 -0.2553
  148SAPE  H11X16321   4.508   3.305   5.423  3.9814  2.5319  0.4076
  148SAPE  H11Y16322   4.542   3.450   5.326  0.6778  0.2699  0.9519
  148SAPE  C31216323   4.367   3.340   5.266  0.9820  0.0402  0.9412
  148SAPE  H12X16324   4.331   3.423   5.201 -0.0678  0.0398  1.4940
  148SAPE  H12Y16325   4.277   3.297   5.317 -0.2634  2.1581  0.6801
  148SAPE  C31316326   4.446   3.235   5.184 -0.3372 -0.9914  0.0622
  148SAPE  H13X16327   4.489   3.158   5.251  1.7662 -0.4144 -0.5611
  148SAPE  H13Y16328   4.537   3.285   5.146  0.6776 -2.0002  1.0819
  148SAPE  C31416329   4.359   3.167   5.074 -0.1758  0.0958 -0.2702
  148SAPE  H14X16330   4.336   3.244   4.997 -0.9767  1.1186  0.9362
  148SAPE  H14Y16331   4.261   3.133   5.115 -0.8237 -0.7985 -2.4546
  148SAPE  C31516332   4.436   3.044   5.016 -0.3026 -0.7052 -0.9229
  148SAPE  H15X16333   4.364   2.965   4.988 -1.2508  0.8133 -3.0596
  148SAPE  H15Y16334   4.498   3.001   5.097 -1.7855 -0.0010  0.6415
  148SAPE  C31616335   4.520   3.099   4.899 -0.0122  1.4093 -1.2117
  148SAPE  H16X16336   4.616   3.141   4.937  0.9016  0.1543 -2.0567
  148SAPE  H16Y16337   4.471   3.186   4.850 -4.3701 -0.1866 -0.2096
  148SAPE  C31716338   4.545   2.991   4.791 -0.0307  0.3343  0.0341
  148SAPE  H17X16339   4.599   3.032   4.703  0.4302  1.8317  0.9985
  148SAPE  H17Y16340   4.448   2.964   4.744  0.5633 -1.4074 -0.2977
  148SAPE  C31816341   4.615   2.863   4.849  0.4186 -0.0563 -0.0422
  148SAPE  H18X16342   4.615   2.786   4.769 -1.1905 -1.3888  1.1571
  148SAPE  H18Y16343   4.559   2.818   4.934 -3.0482 -0.7828 -2.4825
  148SAPE  H18Z16344   4.718   2.883   4.885  0.1420 -0.9513  1.3082
  149SAPE     N16345   4.338   0.580   7.277  0.3169 -0.0116 -0.3871
  149SAPE   HN116346   4.275   0.500   7.257  2.5374 -1.6292 -1.2724
  149SAPE   HN216347   4.309   0.603   7.374  2.3925  0.8471  0.0674
  149SAPE   HN316348   4.308   0.659   7.215  0.0164 -0.7603 -1.2249
  149SAPE   C1216349   4.481   0.552   7.263 -0.1130  0.3498 -0.0096
  149SAPE  H12A16350   4.510   0.477   7.339 -2.3062 -1.7566 -1.1065
  149SAPE  H12B16351   4.544   0.642   7.283 -1.5103  1.5969 -0.9732
  149SAPE   C1116352   4.515   0.491   7.122  0.0402 -0.5435 -0.0917
  149SAPE  H11A16353   4.484   0.559   7.039  0.7176 -0.1350 -0.0163
  149SAPE  H11B16354   4.466   0.392   7.107 -2.2873  0.7786 -2.0844
  149SAPE     P16355   4.725   0.432   6.994 -0.1919 -0.4487  0.2506
  149SAPE   O1316356   4.824   0.537   6.952  0.1518 -0.6002  0.1473
  149SAPE   O1416357   4.780   0.295   7.003 -0.1523  0.6770  0.0038
  149SAPE   O1216358   4.654   0.488   7.123 -0.1428 -0.5940 -0.4738
  149SAPE   O1116359   4.623   0.444   6.880  0.5631 -0.0750 -0.0325
  149SAPE    C116360   4.563   0.328   6.819  0.8990 -0.0593 -1.3550
  149SAPE    HA16361   4.588   0.226   6.856 -2.3518  0.2681  2.4317
  149SAPE    HB16362   4.453   0.329   6.833  1.0941 -2.9963  1.4958
  149SAPE    C216363   4.582   0.327   6.668 -0.8409  0.4662 -0.1172
  149SAPE    HS16364   4.538   0.232   6.632  0.5483 -1.0444  1.9122
  149SAPE   O2116365   4.724   0.332   6.648  0.5471  0.3178  0.3671
  149SAPE   C2116366   4.799   0.217   6.656  0.3567 -0.1554  0.4612
  149SAPE   O2216367   4.750   0.108   6.675  0.3058  0.4113 -0.4159
  149SAPE   C2216368   4.947   0.256   6.635  0.3051 -0.4627  1.0023
  149SAPE   H2R16369   4.945   0.334   6.555  1.6789  0.0342  1.4236
  149SAPE   H2S16370   4.970   0.311   6.729 -0.7267  0.9131  0.4756
  149SAPE    C316371   4.503   0.442   6.604  0.6779  0.5343 -0.0632
  149SAPE    HX16372   4.545   0.541   6.630 -4.0742  2.0470  3.3560
  149SAPE    HY16373   4.402   0.441   6.651  1.5311  0.4580  1.8781
  149SAPE   O3116374   4.483   0.419   6.463 -0.6361  0.4089 -0.8194
  149SAPE   C3116375   4.546   0.499   6.384 -0.0752 -0.2918 -0.4884
  149SAPE   O3216376   4.606   0.600   6.414  0.1315 -0.7019  0.1027
  149SAPE   C3216377   4.506   0.452   6.244 -0.1070 -0.5398  0.1850
  149SAPE   H2X16378   4.397   0.429   6.248 -0.1585 -0.2434  0.5250
  149SAPE   H2Y16379   4.547   0.351   6.223 -2.2139 -1.3147 -0.4433
  149SAPE   C2316380   5.045   0.143   6.621 -0.3453 -0.1817  0.3384
  149SAPE   H3R16381   5.022   0.058   6.689 -1.2127 -0.6846 -0.5546
  149SAPE   H3S16382   5.146   0.186   6.640 -1.1143  1.7619  0.2132
  149SAPE   C2416383   5.028   0.087   6.470  0.5267  0.4800 -0.5537
  149SAPE   H4R16384   5.121   0.028   6.460  1.4906  1.1036  3.1058
  149SAPE   H4S16385   5.037   0.170   6.397  0.3024  0.7542 -0.2729
  149SAPE   C2516386   4.903   0.002   6.438 -1.0451  0.7410  0.4503
  149SAPE   H5R16387   4.890  -0.069   6.521  3.5889 -0.8371  0.1098
  149SAPE   C2616388   4.809   0.013   6.343 -0.3584 -0.1859  0.9942
  149SAPE   H6R16389   4.730  -0.063   6.352  0.6660 -1.3277  0.6339
  149SAPE   C2716390   4.803   0.102   6.219 -0.7408 -0.3231 -0.1379
  149SAPE   H7R16391   4.701   0.098   6.176  0.0873  0.2200 -2.2933
  149SAPE   H7S16392   4.859   0.052   6.137 -0.0607 -1.4017  0.9352
  149SAPE   C2816393   4.844   0.249   6.231  0.1979 -0.4262 -0.5178
  149SAPE   H8R16394   4.849   0.277   6.337 -0.1122  1.8798 -1.0740
  149SAPE   C2916395   4.896   0.315   6.123  0.3305 -0.0688  0.2050
  149SAPE   H9R16396   4.926   0.420   6.136 -1.2571  0.7198 -1.9727
  149SAPE  C21016397   4.902   0.267   5.984 -0.2206  0.2427  0.8528
  149SAPE  H10R16398   4.874   0.351   5.917  1.5105  0.5581  0.4668
  149SAPE  H10S16399   4.827   0.187   5.966  1.1397 -0.6673 -1.2928
  149SAPE  C21116400   5.039   0.225   5.940  0.0456 -0.3499  0.6149
  149SAPE  H11R16401   5.118   0.205   6.014  1.0139 -0.0568 -0.3217
  149SAPE  C21216402   5.077   0.214   5.812  0.0314 -0.2577  0.4963
  149SAPE  H12R16403   5.172   0.164   5.791 -0.1069 -0.5535  0.5680
  149SAPE  C21316404   4.979   0.242   5.696  0.7800 -0.7283 -0.2125
  149SAPE  H13R16405   4.942   0.345   5.710 -1.1114 -1.6621  2.5100
  149SAPE  H13S16406   4.889   0.179   5.713  0.7089 -0.6538 -0.3172
  149SAPE  C21416407   5.017   0.204   5.554 -0.3069  0.2967 -0.0901
  149SAPE  H14R16408   5.042   0.097   5.545 -0.3390  0.1968  0.9337
  149SAPE  C21516409   4.998   0.274   5.439 -0.2371  0.1965 -0.7451
  149SAPE  H15R16410   5.006   0.220   5.344 -3.0288 -2.8676  0.5472
  149SAPE  C21616411   4.918   0.400   5.435 -0.0634  0.5950  0.5977
  149SAPE  H16R16412   4.928   0.467   5.524  1.7296  0.6965  0.3545
  149SAPE  H16S16413   4.813   0.378   5.405  0.0547  1.6195 -0.6232
  149SAPE  C21716414   4.982   0.494   5.334  0.0551 -0.4762 -0.2121
  149SAPE  H17R16415   5.092   0.490   5.344  0.0672 -0.0987 -0.1963
  149SAPE  H17S16416   4.944   0.596   5.356 -1.5710 -1.2434  0.7522
  149SAPE  C21816417   4.938   0.469   5.193 -0.3737  0.4934 -0.1950
  149SAPE  H18R16418   4.827   0.471   5.191 -0.4183  0.5411  1.3631
  149SAPE  H18S16419   4.986   0.369   5.177 -1.9351 -1.0763  3.7296
  149SAPE  C21916420   5.000   0.573   5.094  0.4618  0.1622  0.4267
  149SAPE  H19R16421   5.110   0.589   5.104  0.6182  0.7303 -1.7779
  149SAPE  H19S16422   4.947   0.667   5.119 -2.5081 -1.3941  0.4446
  149SAPE  C22016423   4.967   0.558   4.945 -0.9931 -0.1194  0.5776
  149SAPE  H20R16424   4.858   0.539   4.929 -1.4785  3.5974 -1.6909
  149SAPE  H20S16425   5.026   0.482   4.889 -2.2810  0.1821 -1.3179
  149SAPE  H20T16426   4.985   0.656   4.897  1.5029 -1.5380 -1.6985
  149SAPE   C3316427   4.522   0.559   6.127 -0.5037 -0.2127  0.2423
  149SAPE   H3X16428   4.632   0.549   6.112 -0.2732 -0.7229  2.0170
  149SAPE   H3Y16429   4.515   0.657   6.178 -0.5276  0.1226 -0.3961
  149SAPE   C3416430   4.428   0.544   6.009  0.6250 -0.2531 -0.4401
  149SAPE   H4X16431   4.437   0.635   5.946  0.3405  1.6330  2.0677
  149SAPE   H4Y16432   4.325   0.524   6.045  0.4045 -0.3748 -1.1237
  149SAPE   C3516433   4.479   0.433   5.905 -0.0818 -0.0705 -0.1755
  149SAPE   H5X16434   4.451   0.339   5.957 -0.5790  0.5966  0.7979
  149SAPE   H5Y16435   4.590   0.432   5.907 -0.0627 -2.0215  0.0566
  149SAPE   C3616436   4.425   0.453   5.765 -0.1914 -0.0701  0.4357
  149SAPE   H6X16437   4.418   0.560   5.735 -0.4486 -0.9322 -2.9875
  149SAPE   H6Y16438   4.320   0.415   5.766 -0.5300  0.8204  1.8804
  149SAPE   C3716439   4.509   0.373   5.658 -0.1566  0.0429 -0.6053
  149SAPE   H7X16440   4.486   0.264   5.666 -2.7203  0.5774  0.1073
  149SAPE   H7Y16441   4.619   0.390   5.662 -0.2166  0.2632  2.3168
  149SAPE   C3816442   4.445   0.400   5.520 -0.6956  0.0657  0.2720
  149SAPE   H8X16443   4.469   0.502   5.484  1.2499 -0.0081  1.2515
  149SAPE   H8Y16444   4.335   0.387   5.530 -0.4135 -1.2704  2.1939
  149SAPE   C3916445   4.494   0.297   5.420 -0.0688  0.1321 -0.0459
  149SAPE   H9X16446   4.456   0.195   5.444 -1.4120  0.5389 -0.3793
  149SAPE   H9Y16447   4.603   0.286   5.438 -0.2171 -2.4434 -0.2694
  149SAPE  C31016448   4.470   0.330   5.268 -0.2786  0.0331 -0.1352
  149SAPE  H10X16449   4.525   0.425   5.252 -2.5117  1.0527 -2.4817
  149SAPE  H10Y16450   4.360   0.347   5.264 -0.8150 -2.4040  1.5377
  149SAPE  C31116451   4.515   0.235   5.160 -0.0860 -0.0425  0.3675
  149SAPE  H11X16452   4.467   0.136   5.175  0.4039 -0.5243 -1.0415
  149SAPE  H11Y16453   4.625   0.215   5.166 -0.2002 -0.3145  2.0328
  149SAPE  C31216454   4.474   0.268   5.013  0.3905 -0.4996 -0.5559
  149SAPE  H12X16455   4.490   0.376   4.991  0.5834  0.0876  2.1145
  149SAPE  H12Y16456   4.368   0.234   5.007  0.3863 -0.2446 -2.5560
  149SAPE  C31316457   4.530   0.167   4.907 -0.1202 -0.2707  0.0370
  149SAPE  H13X16458   4.475   0.194   4.814  0.9187  0.2113 -0.4606
  149SAPE  H13Y16459   4.500   0.065   4.937 -0.3766 -0.5839 -1.2131
  149SAPE  C31416460   4.685   0.193   4.888 -0.2137  0.1583  0.6823
  149SAPE  H14X16461   4.747   0.170   4.978  0.9795  1.3041  0.1761
  149SAPE  H14Y16462   4.697   0.303   4.882 -0.0376  0.1992  1.6137
  149SAPE  C31516463   4.757   0.129   4.771 -0.4129  0.5863  0.5599
  149SAPE  H15X16464   4.686   0.147   4.686 -2.2676 -0.5066  1.7988
  149SAPE  H15Y16465   4.748   0.019   4.783 -0.5023  0.1320 -2.7321
  149SAPE  C31616466   4.907   0.157   4.754 -0.2900  0.0884  0.4645
  149SAPE  H16X16467   4.923   0.266   4.770 -1.5623  0.3236  0.1866
  149SAPE  H16Y16468   4.933   0.141   4.648 -2.8411  1.7471 -0.4979
  149SAPE  C31716469   4.996   0.088   4.858 -0.1441  0.6353  0.7618
  149SAPE  H17X16470   4.992  -0.017   4.823 -0.9501  0.9720 -0.2249
  149SAPE  H17Y16471   4.951   0.095   4.959  2.8265 -1.6224  2.4042
  149SAPE  C31816472   5.138   0.149   4.850  0.4748 -0.1360  0.2484
  149SAPE  H18X16473   5.118   0.258   4.847 -2.2541 -0.5387  0.5851
  149SAPE  H18Y16474   5.173   0.119   4.749  1.1730 -0.3371  0.5467
  149SAPE  H18Z16475   5.192   0.119   4.943 -2.1015 -1.4390  1.4308
  150SAPE     N16476   4.883   1.509   6.995  0.1965  0.0763  0.4537
  150SAPE   HN116477   4.930   1.421   7.023 -1.5677 -0.5321  1.7157
  150SAPE   HN216478   4.879   1.567   7.081 -2.0344  0.4556  0.1654
  150SAPE   HN316479   4.784   1.477   6.989 -0.6851  1.5950  4.0664
  150SAPE   C1216480   4.932   1.553   6.857 -0.1894  0.1282 -0.1467
  150SAPE  H12A16481   5.035   1.587   6.881 -0.4863 -1.6658  4.8098
  150SAPE  H12B16482   4.867   1.633   6.815 -0.8415 -1.5797 -2.6116
  150SAPE   C1116483   4.922   1.429   6.764  0.2055  0.3039  0.2140
  150SAPE  H11A16484   4.968   1.451   6.666 -2.1894 -1.2627 -1.3877
  150SAPE  H11B16485   4.817   1.407   6.733  1.2925 -0.3859 -3.5089
  150SAPE     P16486   5.137   1.276   6.828  0.1004 -0.2729 -0.0132
  150SAPE   O1316487   5.209   1.405   6.846 -0.0172 -0.0059 -0.4944
  150SAPE   O1416488   5.161   1.173   6.928 -0.3828 -0.1189  0.1410
  150SAPE   O1216489   4.981   1.313   6.830  0.2411 -0.5846 -0.6523
  150SAPE   O1116490   5.161   1.214   6.686  0.1071  0.0793 -0.0487
  150SAPE    C116491   5.071   1.138   6.612 -0.0494 -0.4477  0.1395
  150SAPE    HA16492   5.091   1.033   6.643  0.5605 -0.3733  0.0002
  150SAPE    HB16493   4.968   1.151   6.653  0.3461 -3.5069  2.4357
  150SAPE    C216494   5.086   1.149   6.455  0.0531 -0.2086 -0.3608
  150SAPE    HS16495   5.178   1.102   6.414 -0.2669 -2.0219  0.9213
  150SAPE   O2116496   5.092   1.292   6.422  0.4943 -0.0668 -0.0302
  150SAPE   C2116497   5.203   1.359   6.441 -0.3125  0.6448 -0.0189
  150SAPE   O2216498   5.313   1.311   6.457 -0.5760 -0.2099  0.6596
  150SAPE   C2216499   5.179   1.510   6.445  0.0753 -0.3322 -0.8821
  150SAPE   H2R16500   5.069   1.528   6.442  0.2420  0.7938 -0.9112
  150SAPE   H2S16501   5.222   1.551   6.539  3.7082 -0.9329 -2.1339
  150SAPE    C316502   4.967   1.088   6.387  0.5611 -0.2132 -0.0717
  150SAPE    HX16503   4.871   1.130   6.423 -0.7010  0.2068 -3.4982
  150SAPE    HY16504   4.965   0.978   6.402  2.4221 -0.2775 -0.1078
  150SAPE   O3116505   4.976   1.101   6.242  0.5760 -0.1854  0.5571
  150SAPE   C3116506   4.893   1.176   6.177  0.3112  0.3907 -0.5472
  150SAPE   O3216507   4.810   1.251   6.220  0.8342  0.2936  0.4337
  150SAPE   C3216508   4.921   1.153   6.029  0.1288  0.1537  0.3710
  150SAPE   H2X16509   4.869   1.061   5.995  1.0105 -0.4021  0.4996
  150SAPE   H2Y16510   5.031   1.144   6.015  0.0380  1.0857 -1.1167
  150SAPE   C2316511   5.246   1.580   6.328  0.3456 -0.1092  0.6169
  150SAPE   H3R16512   5.355   1.565   6.344  0.2997 -1.3684 -0.1032
  150SAPE   H3S16513   5.227   1.687   6.351 -0.0428 -0.4340  1.8874
  150SAPE   C2416514   5.177   1.539   6.196 -0.1361  0.2952  0.3452
  150SAPE   H4R16515   5.161   1.432   6.171  0.8118  0.2653 -0.1695
  150SAPE   H4S16516   5.251   1.566   6.117  0.1945  2.0656  1.2164
  150SAPE   C2516517   5.056   1.619   6.157  0.3787 -0.4368  0.0400
  150SAPE   H5R16518   4.974   1.614   6.230 -0.4450  0.6578 -0.7995
  150SAPE   C2616519   5.040   1.698   6.054 -0.0849 -0.5082  0.1316
  150SAPE   H6R16520   4.941   1.747   6.047  0.6344  0.8750 -0.6558
  150SAPE   C2716521   5.139   1.716   5.948  0.2862  0.4218 -0.7051
  150SAPE   H7R16522   5.239   1.729   5.994 -0.8989  3.8856  1.2140
  150SAPE   H7S16523   5.130   1.811   5.892 -0.0454 -0.3089 -1.9533
  150SAPE   C2816524   5.129   1.596   5.858 -0.3151 -0.0926  0.7452
  150SAPE   H8R16525   5.103   1.502   5.909  2.0492 -1.3660 -0.2316
  150SAPE   C2916526   5.134   1.607   5.722  0.8229  0.1595  0.4682
  150SAPE   H9R16527   5.121   1.519   5.658  2.7065 -1.4108  2.1148
  150SAPE  C21016528   5.156   1.737   5.645  0.0514  0.1925 -0.0670
  150SAPE  H10R16529   5.121   1.829   5.696  3.9796  0.8834  1.7696
  150SAPE  H10S16530   5.102   1.741   5.547  1.1494  1.4216 -0.6586
  150SAPE  C21116531   5.306   1.745   5.631 -0.0787  0.0497  0.2543
  150SAPE  H11R16532   5.364   1.675   5.692 -0.4811 -0.7973 -0.3203
  150SAPE  C21216533   5.368   1.805   5.526  0.3906 -0.1297 -0.1824
  150SAPE  H12R16534   5.478   1.817   5.528  0.2315  1.4843  2.0438
  150SAPE  C21316535   5.292   1.870   5.415  0.0756 -0.6220 -0.2124
  150SAPE  H13R16536   5.348   1.960   5.382 -0.8181  2.3147  5.1000
  150SAPE  H13S16537   5.197   1.913   5.455  0.0266 -1.1572  0.2662
  150SAPE  C21416538   5.271   1.778   5.295  0.0227 -0.7550 -0.2819
  150SAPE  H14R16539   5.245   1.675   5.322  0.1228 -1.3556 -2.2965
  150SAPE  C21516540   5.250   1.820   5.162  0.6834  0.3920  0.0733
  150SAPE  H15R16541   5.209   1.751   5.086 -3.1649  1.9547  0.4937
  150SAPE  C21616542   5.254   1.970   5.122  0.7261  0.0552  0.2248
  150SAPE  H16R16543   5.354   1.992   5.079 -0.7322  2.9162 -2.0535
  150SAPE  H16S16544   5.245   2.041   5.206  0.3403 -0.1212  0.3323
  150SAPE  C21716545   5.150   2.016   5.021  0.3262  0.4715  1.1213
  150SAPE  H17R16546   5.168   2.122   4.992 -0.2168  0.0188 -1.0483
  150SAPE  H17S16547   5.044   2.014   5.054 -0.0187 -0.8050  0.0292
  150SAPE  C21816548   5.162   1.938   4.887  0.8641 -0.6920 -0.1608
  150SAPE  H18R16549   5.102   1.844   4.877 -1.1059  0.2345  2.1136
  150SAPE  H18S16550   5.267   1.905   4.877  0.8926 -1.4145  2.0951
  150SAPE  C21916551   5.123   2.015   4.756 -0.6177 -0.1413  0.1305
  150SAPE  H19R16552   5.184   2.108   4.759 -1.1731  0.2489 -0.2743
  150SAPE  H19S16553   5.017   2.050   4.754 -0.3822  0.7034  1.4155
  150SAPE  C22016554   5.142   1.929   4.633 -0.0050  0.1261  0.1694
  150SAPE  H20R16555   5.119   1.984   4.539 -1.4112  1.6701  1.3504
  150SAPE  H20S16556   5.090   1.831   4.623 -1.3170  0.8538 -0.5625
  150SAPE  H20T16557   5.250   1.908   4.620 -0.0317  0.1917 -0.1665
  150SAPE   C3316558   4.880   1.275   5.950 -0.3950  0.6305  0.4499
  150SAPE   H3X16559   4.947   1.282   5.861 -0.6952  0.7619  0.2335
  150SAPE   H3Y16560   4.890   1.370   6.007 -0.6294 -0.0189  1.5858
  150SAPE   C3416561   4.733   1.271   5.889 -0.2275  0.5166  0.1620
  150SAPE   H4X16562   4.661   1.248   5.970 -0.5971 -0.2593 -0.3687
  150SAPE   H4Y16563   4.724   1.185   5.819 -2.9116  2.2017 -1.7917
  150SAPE   C3516564   4.684   1.392   5.810 -0.1284 -0.3310  0.0186
  150SAPE   H5X16565   4.682   1.473   5.886  1.2416 -0.9854  0.7920
  150SAPE   H5Y16566   4.577   1.372   5.789  0.0123 -2.5954  1.1792
  150SAPE   C3616567   4.751   1.437   5.674 -0.2979 -0.0974 -1.1888
  150SAPE   H6X16568   4.845   1.490   5.703 -1.1249  0.0782  1.4089
  150SAPE   H6Y16569   4.676   1.507   5.631 -0.7465  0.4351  0.3941
  150SAPE   C3716570   4.787   1.333   5.564 -0.1351 -0.0778 -0.5132
  150SAPE   H7X16571   4.718   1.247   5.580  2.4080 -1.7051  2.9215
  150SAPE   H7Y16572   4.892   1.302   5.581  0.9616  4.0731  1.7132
  150SAPE   C3816573   4.770   1.380   5.416  0.8829 -0.3872  0.1319
  150SAPE   H8X16574   4.786   1.291   5.352  0.5975 -0.8053  0.6318
  150SAPE   H8Y16575   4.842   1.461   5.392  1.0039 -0.6778 -0.5177
  150SAPE   C3916576   4.632   1.447   5.391 -0.2879 -0.0165 -0.4046
  150SAPE   H9X16577   4.625   1.549   5.433 -3.6478  0.9147 -2.8209
  150SAPE   H9Y16578   4.552   1.386   5.438  0.3736 -1.4404 -1.0642
  150SAPE  C31016579   4.623   1.466   5.237  0.5768  0.0661  0.5533
  150SAPE  H10X16580   4.719   1.492   5.188  0.5919  0.2191  0.6655
  150SAPE  H10Y16581   4.551   1.549   5.218 -0.1084 -0.7097 -0.3642
  150SAPE  C31116582   4.563   1.341   5.166 -0.6593 -0.3316  1.2445
  150SAPE  H11X16583   4.464   1.320   5.211 -0.6520  1.4150  2.1496
  150SAPE  H11Y16584   4.626   1.251   5.183 -2.3077 -1.8251 -0.1536
  150SAPE  C31216585   4.551   1.362   5.016  0.5371  0.9324  0.2264
  150SAPE  H12X16586   4.484   1.450   5.005  0.9387  1.8637  3.8685
  150SAPE  H12Y16587   4.504   1.270   4.975  0.8078  1.7541 -2.0564
  150SAPE  C31316588   4.688   1.364   4.941  0.2078  0.5800  0.6366
  150SAPE  H13X16589   4.749   1.274   4.961 -1.5210 -1.0348 -0.9556
  150SAPE  H13Y16590   4.743   1.453   4.978  0.1414  0.2394  1.5984
  150SAPE  C31416591   4.676   1.380   4.793  0.3417 -0.5079 -0.1948
  150SAPE  H14X16592   4.768   1.414   4.741  0.3515 -0.5995 -0.2385
  150SAPE  H14Y16593   4.599   1.457   4.771 -0.1547 -0.0886  2.6869
  150SAPE  C31516594   4.644   1.246   4.717 -0.3402 -0.3510  1.3990
  150SAPE  H15X16595   4.550   1.199   4.755 -0.9316 -0.3717 -0.0415
  150SAPE  H15Y16596   4.726   1.171   4.715 -0.4051 -0.4148  1.1588
  150SAPE  C31616597   4.617   1.279   4.565 -0.5793  0.1250 -0.1770
  150SAPE  H16X16598   4.702   1.347   4.542 -0.0053 -0.9900 -1.4997
  150SAPE  H16Y16599   4.520   1.331   4.550 -0.2711  0.8454  0.2873
  150SAPE  C31716600   4.627   1.152   4.471 -0.0479 -0.3798  0.1418
  150SAPE  H17X16601   4.529   1.100   4.479 -1.3113  1.8757  0.1336
  150SAPE  H17Y16602   4.711   1.094   4.513  0.4747 -1.3776 -2.1223
  150SAPE  C31816603   4.643   1.184   4.324  0.2526  0.9205 -0.3088
  150SAPE  H18X16604   4.730   1.253   4.318 -0.8460  2.9639  3.5624
  150SAPE  H18Y16605   4.557   1.245   4.290 -0.3030 -0.8712 -2.2641
  150SAPE  H18Z16606   4.640   1.092   4.263 -1.0374  1.5242 -1.1750
  151SAPE     N16607   0.890   4.394   6.756  0.6174  0.1601  0.4111
  151SAPE   HN116608   0.966   4.376   6.825  1.7041  2.2023 -0.1602
  151SAPE   HN216609   0.924   4.393   6.657 -1.6146 -0.7370 -0.4181
  151SAPE   HN316610   0.847   4.487   6.771 -1.8662 -0.6623 -0.9251
  151SAPE   C1216611   0.785   4.289   6.766 -0.3492  0.4577 -0.2437
  151SAPE  H12A16612   0.693   4.336   6.726 -0.5219 -0.4170 -0.9213
  151SAPE  H12B16613   0.778   4.269   6.875  1.1411 -0.5420 -0.2985
  151SAPE   C1116614   0.821   4.159   6.681  0.3474 -0.9382  0.2370
  151SAPE  H11A16615   0.839   4.199   6.578 -0.3917  0.3293  0.5761
  151SAPE  H11B16616   0.730   4.096   6.685  0.8937 -1.8390 -0.9548
  151SAPE     P16617   0.927   3.972   6.824 -0.0038 -0.5041 -0.3763
  151SAPE   O1316618   1.067   3.927   6.853  0.4518 -0.0857 -0.0907
  151SAPE   O1416619   0.835   4.007   6.928 -0.0481 -0.5916 -0.3907
  151SAPE   O1216620   0.940   4.095   6.726 -0.3009 -0.4640  0.2442
  151SAPE   O1116621   0.856   3.861   6.737 -0.4408 -0.1130  0.1371
  151SAPE    C116622   0.933   3.775   6.651  0.4172  0.2873  0.0880
  151SAPE    HA16623   1.042   3.791   6.659  0.7850 -1.7018 -0.4411
  151SAPE    HB16624   0.928   3.670   6.687  0.4984  0.0549 -0.5627
  151SAPE    C216625   0.883   3.783   6.505  0.1481 -0.3446 -0.1243
  151SAPE    HS16626   0.924   3.699   6.445  1.7285 -0.1802  0.6814
  151SAPE   O2116627   0.917   3.902   6.436  0.2022 -0.0789  0.0827
  151SAPE   C2116628   1.048   3.915   6.414 -0.3298 -0.9254  0.0907
  151SAPE   O2216629   1.131   3.824   6.424  0.1067 -0.2826 -0.4716
  151SAPE   C2216630   1.085   4.064   6.390 -0.8174 -0.5884  0.0892
  151SAPE   H2R16631   0.985   4.110   6.374 -1.3655 -1.9597 -0.5965
  151SAPE   H2S16632   1.132   4.113   6.478 -1.6728  1.2884 -0.4336
  151SAPE    C316633   0.726   3.768   6.511 -0.3405 -0.0936  0.2423
  151SAPE    HX16634   0.690   3.871   6.532 -1.4832 -0.7089  1.4590
  151SAPE    HY16635   0.689   3.704   6.594  3.2671 -1.0682  1.2866
  151SAPE   O3116636   0.665   3.715   6.387 -0.2705  0.7936 -0.1651
  151SAPE   C3116637   0.654   3.580   6.377 -0.6909  0.2053 -0.2850
  151SAPE   O3216638   0.705   3.503   6.454  0.1572  0.3362  0.3905
  151SAPE   C3216639   0.591   3.541   6.249 -0.5493  0.1262 -0.2428
  151SAPE   H2X16640   0.502   3.606   6.235  0.3404  1.1559 -1.3105
  151SAPE   H2Y16641   0.563   3.436   6.270 -0.2757  0.3781  1.6125
  151SAPE   C2316642   1.159   4.071   6.259  0.0124 -0.1756 -0.6492
  151SAPE   H3R16643   1.094   4.031   6.178 -0.6848 -2.4640  0.9397
  151SAPE   H3S16644   1.253   4.014   6.269 -0.2112 -0.1539  3.1900
  151SAPE   C2416645   1.198   4.216   6.201  0.6506  0.0370 -0.5211
  151SAPE   H4R16646   1.282   4.191   6.133  1.7451 -2.1040  1.4633
  151SAPE   H4S16647   1.236   4.277   6.286  0.1706  0.1504 -0.3841
  151SAPE   C2516648   1.083   4.295   6.146  0.1178  0.0134  0.2968
  151SAPE   H5R16649   0.998   4.308   6.214 -0.3700  0.3325 -0.3681
  151SAPE   C2616650   1.060   4.333   6.014  0.5691  0.1835 -0.2356
  151SAPE   H6R16651   0.962   4.382   6.003  0.7882  1.2168  1.7766
  151SAPE   C2716652   1.149   4.319   5.897 -0.2546  0.4751  0.6942
  151SAPE   H7R16653   1.118   4.241   5.825 -0.9466  0.9419  0.4774
  151SAPE   H7S16654   1.242   4.276   5.942  0.1072  0.2620 -0.2421
  151SAPE   C2816655   1.181   4.449   5.824 -0.3331  0.2895 -0.5124
  151SAPE   H8R16656   1.217   4.527   5.893  0.1070 -0.5104  0.1835
  151SAPE   C2916657   1.181   4.470   5.691  0.6998 -0.1191 -0.6300
  151SAPE   H9R16658   1.176   4.574   5.656  2.9861  0.9331  1.7381
  151SAPE  C21016659   1.151   4.373   5.579 -0.0589  0.0735  0.3069
  151SAPE  H10R16660   1.144   4.433   5.486  1.9293  2.3563  1.5247
  151SAPE  H10S16661   1.060   4.314   5.603  0.9393 -0.7420  2.2623
  151SAPE  C21116662   1.242   4.256   5.555 -0.2587  0.2479 -0.1759
  151SAPE  H11R16663   1.331   4.252   5.619 -0.1055  1.2515 -0.3172
  151SAPE  C21216664   1.234   4.169   5.449  0.2571 -0.5026 -0.3398
  151SAPE  H12R16665   1.300   4.082   5.447  0.4070 -0.3825 -2.2864
  151SAPE  C21316666   1.153   4.171   5.330  0.6116  0.3641  0.3306
  151SAPE  H13R16667   1.212   4.194   5.239  0.5681  2.7661  0.8589
  151SAPE  H13S16668   1.075   4.249   5.335  0.4799  0.2366  0.2791
  151SAPE  C21416669   1.073   4.047   5.318  0.2550 -0.2353 -0.8344
  151SAPE  H14R16670   1.056   4.011   5.421  1.4395  0.5279 -0.3565
  151SAPE  C21516671   1.013   3.995   5.205 -0.1328  0.4114 -0.1545
  151SAPE  H15R16672   0.961   3.901   5.228  1.5097 -0.8425 -1.2580
  151SAPE  C21616673   1.017   4.051   5.064 -0.6370  0.6681  0.3186
  151SAPE  H16R16674   1.025   4.161   5.072  2.1087  0.4266  2.3276
  151SAPE  H16S16675   0.920   4.023   5.017 -0.0529 -2.1835  0.6244
  151SAPE  C21716676   1.134   4.001   4.967 -0.0997 -1.1309 -0.2081
  151SAPE  H17R16677   1.125   4.059   4.873 -1.7003 -0.4532  0.3355
  151SAPE  H17S16678   1.120   3.893   4.944 -2.0087 -0.7222 -1.1773
  151SAPE  C21816679   1.274   4.042   5.009  0.1676 -0.0930 -0.4413
  151SAPE  H18R16680   1.311   3.979   5.093  2.1746  1.6643  0.0870
  151SAPE  H18S16681   1.270   4.142   5.058 -0.6962 -0.9920  1.4346
  151SAPE  C21916682   1.384   4.050   4.902 -0.2297  0.3426  0.7113
  151SAPE  H19R16683   1.362   4.142   4.843 -0.7569  1.1125  2.0550
  151SAPE  H19S16684   1.379   3.968   4.827 -2.9204  0.5341  0.5899
  151SAPE  C22016685   1.521   4.063   4.969 -0.4006  0.2202  0.5505
  151SAPE  H20R16686   1.514   4.132   5.056 -1.3577 -0.2300  0.8467
  151SAPE  H20S16687   1.602   4.088   4.897  1.6828  1.2421  3.0696
  151SAPE  H20T16688   1.544   3.969   5.023  1.4018  0.0277 -0.5020
  151SAPE   C3316689   0.680   3.552   6.124  0.3229 -0.3072  0.3914
  151SAPE   H3X16690   0.766   3.482   6.131  0.9133  0.4735  1.0271
  151SAPE   H3Y16691   0.727   3.652   6.116  0.5628 -0.3339  1.3731
  151SAPE   C3416692   0.609   3.523   5.989 -0.3217 -0.3626  0.3506
  151SAPE   H4X16693   0.540   3.609   5.975  0.2851 -0.0081 -0.6699
  151SAPE   H4Y16694   0.557   3.428   6.012  0.7981 -0.9100  0.7177
  151SAPE   C3516695   0.707   3.522   5.867 -0.5519 -0.0446 -0.2652
  151SAPE   H5X16696   0.747   3.419   5.876 -1.4529 -0.3363  0.6142
  151SAPE   H5Y16697   0.787   3.597   5.882  0.0213 -0.3699 -1.6229
  151SAPE   C3616698   0.645   3.535   5.729 -0.5350 -0.3833 -0.7240
  151SAPE   H6X16699   0.713   3.560   5.645  0.1484  1.5962  0.3693
  151SAPE   H6Y16700   0.583   3.627   5.730  1.2490  0.9058  1.8482
  151SAPE   C3716701   0.562   3.408   5.698  0.8124  0.0001 -0.2302
  151SAPE   H7X16702   0.517   3.366   5.791  1.0984  0.2568  0.0287
  151SAPE   H7Y16703   0.628   3.327   5.659  1.5334 -0.2770  1.4602
  151SAPE   C3816704   0.437   3.434   5.617  0.0364 -0.3992  0.2146
  151SAPE   H8X16705   0.357   3.479   5.679  1.3472  2.4849 -0.0338
  151SAPE   H8Y16706   0.402   3.332   5.589  0.7316 -0.9968  1.3973
  151SAPE   C3916707   0.462   3.518   5.487 -0.1895 -0.0415  0.2155
  151SAPE   H9X16708   0.545   3.477   5.426  0.3027  1.2431 -0.0116
  151SAPE   H9Y16709   0.471   3.627   5.508 -1.7817  0.6429 -2.1613
  151SAPE  C31016710   0.331   3.524   5.410  0.1419 -0.1917 -0.3337
  151SAPE  H10X16711   0.247   3.547   5.479 -0.0451  1.1681 -0.9774
  151SAPE  H10Y16712   0.309   3.424   5.369  0.6284  0.3661 -2.0737
  151SAPE  C31116713   0.325   3.622   5.293  0.2711  0.2655  0.3616
  151SAPE  H11X16714   0.360   3.725   5.315  1.3048  1.1670 -4.3605
  151SAPE  H11Y16715   0.219   3.636   5.263  0.3767 -0.7695 -0.5431
  151SAPE  C31216716   0.389   3.580   5.162  0.9596  0.3525 -0.2712
  151SAPE  H12X16717   0.314   3.599   5.082  1.6834  0.3059 -0.9648
  151SAPE  H12Y16718   0.391   3.469   5.169  0.3344  0.4296  1.8567
  151SAPE  C31316719   0.513   3.642   5.125 -0.3406  0.9303 -0.6603
  151SAPE  H13X16720   0.581   3.622   5.210 -1.5300 -1.7115 -0.2516
  151SAPE  H13Y16721   0.514   3.752   5.106 -3.5175  1.0287 -0.6517
  151SAPE  C31416722   0.573   3.569   5.006  0.9287 -0.1923 -0.5567
  151SAPE  H14X16723   0.492   3.567   4.930 -0.5270  0.0825  0.9310
  151SAPE  H14Y16724   0.594   3.461   5.024 -0.7856 -0.8243 -1.9838
  151SAPE  C31516725   0.694   3.647   4.945  0.0900  0.2680 -0.3125
  151SAPE  H15X16726   0.662   3.744   4.902 -2.0564  0.1231  0.8341
  151SAPE  H15Y16727   0.738   3.600   4.855  3.4187  1.1453  0.7123
  151SAPE  C31616728   0.807   3.680   5.046 -0.7043  0.2282  0.2312
  151SAPE  H16X16729   0.764   3.733   5.133  3.3518 -1.1099  3.3507
  151SAPE  H16Y16730   0.879   3.755   5.006 -0.9411  0.0655 -0.5255
  151SAPE  C31716731   0.886   3.553   5.087  0.0122 -0.4684 -0.8996
  151SAPE  H17X16732   0.948   3.513   5.003 -0.8932 -1.2764 -1.2024
  151SAPE  H17Y16733   0.806   3.483   5.118 -1.1425  1.0570 -0.3292
  151SAPE  C31816734   0.966   3.582   5.217  0.6222 -0.1471 -0.1256
  151SAPE  H18X16735   1.043   3.506   5.242  0.5290 -0.8404 -1.8463
  151SAPE  H18Y16736   0.895   3.577   5.302  0.2877 -0.9060 -0.4446
  151SAPE  H18Z16737   1.010   3.684   5.210 -0.4841  0.6247  2.7455
  152SAPE     N16738   3.499   0.488   7.152 -0.7136 -0.5230 -0.2539
  152SAPE   HN116739   3.474   0.420   7.077 -1.6646 -1.1023  0.5613
  152SAPE   HN216740   3.584   0.455   7.203  0.0323  1.1762 -0.3373
  152SAPE   HN316741   3.413   0.495   7.210 -0.4258 -1.2978  0.2857
  152SAPE   C1216742   3.539   0.621   7.103  0.2023  0.5764 -0.0050
  152SAPE  H12A16743   3.527   0.697   7.183 -3.1724 -0.2329  0.4297
  152SAPE  H12B16744   3.457   0.638   7.029  0.4668 -2.5523 -1.1485
  152SAPE   C1116745   3.673   0.621   7.027 -0.3355  0.0243 -0.3209
  152SAPE  H11A16746   3.750   0.599   7.104 -0.3271 -2.3453 -0.9308
  152SAPE  H11B16747   3.684   0.720   6.978  0.5893 -0.2463 -0.6905
  152SAPE     P16748   3.659   0.534   6.773 -0.2966  0.2643 -0.1886
  152SAPE   O1316749   3.512   0.548   6.754 -0.3373 -1.0020 -0.2715
  152SAPE   O1416750   3.747   0.648   6.739 -0.4670 -0.1816 -0.4812
  152SAPE   O1216751   3.686   0.512   6.928 -0.3283 -0.2896 -0.2888
  152SAPE   O1116752   3.717   0.397   6.710 -0.1805  0.4744 -0.4678
  152SAPE    C116753   3.847   0.386   6.658  0.8386 -0.1077  0.0438
  152SAPE    HA16754   3.887   0.478   6.612 -0.6185  0.0284 -1.0314
  152SAPE    HB16755   3.916   0.344   6.734 -0.0705 -0.1216  0.8843
  152SAPE    C216756   3.845   0.264   6.545 -0.2994 -0.2691 -0.3574
  152SAPE    HS16757   3.942   0.244   6.496  0.2670  0.1590  0.5467
  152SAPE   O2116758   3.750   0.286   6.441  0.5001  0.0328 -0.5382
  152SAPE   C2116759   3.785   0.382   6.360  0.6284 -0.2062 -0.9527
  152SAPE   O2216760   3.891   0.442   6.357  0.0052 -0.3161 -0.8331
  152SAPE   C2216761   3.667   0.409   6.262  0.5685  0.6001  0.1235
  152SAPE   H2R16762   3.585   0.458   6.318 -0.4165  0.5212 -1.1972
  152SAPE   H2S16763   3.711   0.481   6.189  1.4399  0.0333  0.0693
  152SAPE    C316764   3.814   0.133   6.615 -0.0387 -0.5139 -0.3967
  152SAPE    HX16765   3.709   0.141   6.649 -0.1800 -0.0265 -0.9286
  152SAPE    HY16766   3.880   0.115   6.703 -1.4210 -0.0820  0.7620
  152SAPE   O3116767   3.842   0.032   6.515 -0.2623  0.3416 -0.2813
  152SAPE   C3116768   3.777  -0.085   6.523  0.2407 -0.1154  0.5127
  152SAPE   O3216769   3.697  -0.120   6.610 -0.2807  0.4129 -0.1055
  152SAPE   C3216770   3.802  -0.163   6.390  0.1860  0.6312 -0.0764
  152SAPE   H2X16771   3.900  -0.129   6.350  0.2432  0.4782 -0.0694
  152SAPE   H2Y16772   3.723  -0.149   6.314 -1.2794  1.0102  1.4518
  152SAPE   C2316773   3.615   0.288   6.182 -0.5697  0.4585  0.5973
  152SAPE   H3R16774   3.528   0.312   6.116  0.1759  2.8626  0.3694
  152SAPE   H3S16775   3.558   0.217   6.246 -2.8308  0.4992 -1.2527
  152SAPE   C2416776   3.717   0.215   6.101 -0.1740 -0.1735  0.0890
  152SAPE   H4R16777   3.816   0.233   6.148 -0.7347 -0.3018  1.3408
  152SAPE   H4S16778   3.718   0.253   5.996 -0.8903 -0.2441  0.0536
  152SAPE   C2516779   3.697   0.069   6.100  0.0648  0.2588  0.1843
  152SAPE   H5R16780   3.634   0.030   6.182  1.5938  0.4679  1.5183
  152SAPE   C2616781   3.747  -0.018   6.006  0.3716  0.6425 -0.0319
  152SAPE   H6R16782   3.722  -0.122   6.033  0.0049  1.5320  3.5331
  152SAPE   C2716783   3.831   0.007   5.882  0.0653  0.9057  0.6825
  152SAPE   H7R16784   3.932  -0.033   5.902 -0.9625 -2.1938  0.1815
  152SAPE   H7S16785   3.840   0.113   5.849 -1.6347  0.8998  0.0670
  152SAPE   C2816786   3.783  -0.086   5.776  0.5089  0.0501  0.7303
  152SAPE   H8R16787   3.757  -0.191   5.794 -1.8488  0.2889 -0.8275
  152SAPE   C2916788   3.769  -0.053   5.646  0.1743 -0.1993 -0.0321
  152SAPE   H9R16789   3.734  -0.133   5.580  1.3504  0.9083 -2.0996
  152SAPE  C21016790   3.783   0.078   5.571  0.1830 -0.3695 -0.2898
  152SAPE  H10R16791   3.864   0.067   5.497 -0.3835 -1.6550 -0.7648
  152SAPE  H10S16792   3.826   0.156   5.637  0.1885 -0.8806  0.3233
  152SAPE  C21116793   3.657   0.149   5.514 -0.7889  0.6932  0.3098
  152SAPE  H11R16794   3.578   0.169   5.588 -0.8626  1.0579  0.1346
  152SAPE  C21216795   3.624   0.166   5.388  0.1752 -0.7432 -0.2135
  152SAPE  H12R16796   3.534   0.224   5.369  1.1109  1.2300  1.0453
  152SAPE  C21316797   3.698   0.116   5.262  1.0848  0.4717  0.0185
  152SAPE  H13R16798   3.624   0.048   5.215  2.0266 -1.5861  1.4046
  152SAPE  H13S16799   3.776   0.041   5.281  1.3440 -0.5522 -4.0752
  152SAPE  C21416800   3.750   0.229   5.177  0.1956  0.6170  0.3289
  152SAPE  H14R16801   3.855   0.247   5.205  0.2685  0.3603  0.2235
  152SAPE  C21516802   3.695   0.297   5.071  0.4532  0.3124  0.5440
  152SAPE  H15R16803   3.754   0.373   5.019  0.2643  0.7792  0.9961
  152SAPE  C21616804   3.550   0.282   5.023 -0.0741  0.5613 -0.5435
  152SAPE  H16R16805   3.505   0.382   5.011  1.8097  1.4487 -0.5032
  152SAPE  H16S16806   3.488   0.225   5.096  0.6759 -0.3558 -0.6042
  152SAPE  C21716807   3.542   0.205   4.890 -0.3124  0.2790 -0.4406
  152SAPE  H17R16808   3.614   0.242   4.814  2.8787 -2.6222  0.8918
  152SAPE  H17S16809   3.436   0.198   4.858  0.1716  1.7019 -2.5483
  152SAPE  C21816810   3.588   0.057   4.906  0.2737 -0.3809  0.5416
  152SAPE  H18R16811   3.523   0.012   4.984  0.2929 -1.2471  0.0776
  152SAPE  H18S16812   3.694   0.064   4.938  1.0835  1.5988 -2.1685
  152SAPE  C21916813   3.578  -0.020   4.773 -0.1335  0.0059 -0.0747
  152SAPE  H19R16814   3.632  -0.117   4.777  1.6462  0.9763  0.4772
  152SAPE  H19S16815   3.638   0.041   4.702  1.4917  0.2310  1.4229
  152SAPE  C22016816   3.434  -0.041   4.717  0.0789 -0.1322  0.8705
  152SAPE  H20R16817   3.399   0.061   4.693  2.9828  0.4681 -1.3425
  152SAPE  H20S16818   3.377  -0.084   4.803  0.0176 -1.8338  0.0165
  152SAPE  H20T16819   3.437  -0.101   4.623  1.5444 -0.4160  1.0827
  152SAPE   C3316820   3.817  -0.320   6.407 -0.3443 -0.2199  0.4680
  152SAPE   H3X16821   3.729  -0.383   6.382  0.6654 -1.8927  0.9828
  152SAPE   H3Y16822   3.847  -0.338   6.512  3.8506  0.7926 -0.3669
  152SAPE   C3416823   3.938  -0.380   6.331  0.0484  0.4648 -0.2214
  152SAPE   H4X16824   3.919  -0.487   6.354 -0.2138  0.5028 -0.2578
  152SAPE   H4Y16825   4.035  -0.348   6.376  0.6634 -0.0799 -1.1439
  152SAPE   C3516826   3.934  -0.356   6.179 -0.0959  0.9229 -0.2232
  152SAPE   H5X16827   3.948  -0.252   6.143 -0.8383  1.0994 -0.0120
  152SAPE   H5Y16828   3.831  -0.379   6.146 -0.4426  0.0258  1.3843
  152SAPE   C3616829   4.033  -0.459   6.120 -0.3782  0.4999 -0.3509
  152SAPE   H6X16830   4.032  -0.547   6.188 -0.8322  0.5328 -0.3163
  152SAPE   H6Y16831   4.130  -0.405   6.107  0.1288 -0.0960  0.8500
  152SAPE   C3716832   3.989  -0.521   5.986 -0.6193  0.1759  0.3199
  152SAPE   H7X16833   3.886  -0.561   5.996 -0.2487 -1.5115 -1.7671
  152SAPE   H7Y16834   4.063  -0.598   5.954 -1.5209  0.4413 -2.6668
  152SAPE   C3816835   3.980  -0.420   5.877  0.1549 -0.1507 -0.3445
  152SAPE   H8X16836   4.078  -0.393   5.832  0.9203 -3.3481 -0.7837
  152SAPE   H8Y16837   3.947  -0.323   5.921 -3.5682 -1.2691 -0.3672
  152SAPE   C3916838   3.886  -0.465   5.765  0.2357 -0.3780 -0.3478
  152SAPE   H9X16839   3.795  -0.437   5.822  2.2168  2.7331  1.6076
  152SAPE   H9Y16840   3.902  -0.574   5.756 -0.0839 -0.4557  0.0168
  152SAPE  C31016841   3.923  -0.400   5.624  0.3946 -0.3423 -0.0500
  152SAPE  H10X16842   4.022  -0.438   5.591  0.9272 -0.5760  1.7109
  152SAPE  H10Y16843   3.933  -0.290   5.631  0.7457 -0.3121 -0.9058
  152SAPE  C31116844   3.810  -0.421   5.522  0.3852  0.0679 -0.9823
  152SAPE  H11X16845   3.721  -0.364   5.557 -0.8575 -2.9643  1.2534
  152SAPE  H11Y16846   3.787  -0.530   5.519 -0.9963  0.3635 -3.0314
  152SAPE  C31216847   3.837  -0.382   5.378 -0.9339 -0.2844 -0.3994
  152SAPE  H12X16848   3.910  -0.450   5.329  0.2031  1.7416 -1.6350
  152SAPE  H12Y16849   3.884  -0.282   5.390 -0.5450 -0.5296  0.1824
  152SAPE  C31316850   3.720  -0.381   5.289  0.2603 -0.0574 -0.6473
  152SAPE  H13X16851   3.678  -0.484   5.289  0.9988 -0.3607 -0.3951
  152SAPE  H13Y16852   3.768  -0.369   5.190 -2.0296  1.4609 -1.6576
  152SAPE  C31416853   3.609  -0.288   5.320  0.4820 -0.1800 -0.0641
  152SAPE  H14X16854   3.651  -0.197   5.369 -2.0620  0.5024  1.0069
  152SAPE  H14Y16855   3.525  -0.324   5.384  0.4697  1.5957  1.0136
  152SAPE  C31516856   3.549  -0.250   5.186 -0.0455 -0.0449 -0.0962
  152SAPE  H15X16857   3.626  -0.192   5.131 -0.8942  0.5175 -0.7005
  152SAPE  H15Y16858   3.458  -0.189   5.204 -0.6240 -0.8142 -0.3487
  152SAPE  C31616859   3.502  -0.369   5.096 -0.2946 -0.0531 -0.1219
  152SAPE  H16X16860   3.427  -0.434   5.146  0.0371 -2.9119 -3.0287
  152SAPE  H16Y16861   3.590  -0.434   5.074 -1.5357 -1.6076 -0.7172
  152SAPE  C31716862   3.433  -0.324   4.963 -0.5617  0.4850  0.7326
  152SAPE  H17X16863   3.489  -0.268   4.885 -1.1286  0.9682  0.6659
  152SAPE  H17Y16864   3.346  -0.261   4.993 -2.3531 -0.8551 -1.3106
  152SAPE  C31816865   3.398  -0.454   4.887 -0.0601  0.3367 -0.4897
  152SAPE  H18X16866   3.316  -0.514   4.933  0.7340 -2.4109 -2.4206
  152SAPE  H18Y16867   3.484  -0.522   4.871 -1.1875 -0.8443 -1.7875
  152SAPE  H18Z16868   3.366  -0.426   4.784 -2.1367  1.8212  0.4687
  153SAPE     N16869   0.952   5.105   6.896  0.2107  0.6846  0.4155
  153SAPE   HN116870   1.025   5.139   6.830 -0.3069  0.7755 -0.1211
  153SAPE   HN216871   0.988   5.076   6.989 -0.7533  2.0359  1.2339
  153SAPE   HN316872   0.916   5.016   6.855 -0.9191 -0.0650  2.8193
  153SAPE   C1216873   0.831   5.195   6.895 -0.0214 -0.6740  0.2509
  153SAPE  H12A16874   0.859   5.282   6.958  2.4090 -1.9726  1.1114
  153SAPE  H12B16875   0.749   5.136   6.941  0.8739 -0.5415  2.0733
  153SAPE   C1116876   0.796   5.231   6.747  0.1308  0.2129 -1.0242
  153SAPE  H11A16877   0.716   5.308   6.754 -0.5498 -0.6179  2.9200
  153SAPE  H11B16878   0.746   5.145   6.696 -0.5867 -0.1736  0.2801
  153SAPE     P16879   0.972   5.409   6.684 -0.0918  0.3741  0.2661
  153SAPE   O1316880   0.877   5.518   6.704 -0.2823 -0.1309 -0.1189
  153SAPE   O1416881   1.088   5.396   6.777  0.6348 -0.1625  0.4805
  153SAPE   O1216882   0.903   5.266   6.667  0.3418 -0.2124  0.0252
  153SAPE   O1116883   1.020   5.430   6.539 -0.2307 -0.4866  0.6909
  153SAPE    C116884   1.082   5.318   6.471 -0.2437  0.3274  0.2347
  153SAPE    HA16885   1.149   5.260   6.538 -2.7011 -1.5570  1.2430
  153SAPE    HB16886   1.009   5.237   6.450  0.0943  0.2578 -0.6957
  153SAPE    C216887   1.150   5.351   6.339  0.3524 -0.6423 -0.0252
  153SAPE    HS16888   1.244   5.407   6.357  0.6684 -0.8180 -1.0848
  153SAPE   O2116889   1.050   5.422   6.255 -0.3744 -0.5274  0.8298
  153SAPE   C2116890   1.099   5.516   6.180 -0.5843 -0.7808 -0.4801
  153SAPE   O2216891   1.214   5.552   6.179 -0.5618 -0.1720  0.0141
  153SAPE   C2216892   0.978   5.580   6.100  0.4688  0.5785  0.4605
  153SAPE   H2R16893   0.964   5.526   6.003  0.9419  0.9628  0.1769
  153SAPE   H2S16894   0.885   5.580   6.160 -1.5270  0.8184 -2.3923
  153SAPE    C316895   1.187   5.218   6.268 -0.2447  0.6348 -0.1584
  153SAPE    HX16896   1.085   5.175   6.258 -0.2458  0.1748  1.5310
  153SAPE    HY16897   1.243   5.147   6.332 -0.0732 -0.4551 -1.4642
  153SAPE   O3116898   1.238   5.234   6.134  0.5083  0.0114  0.0923
  153SAPE   C3116899   1.369   5.262   6.120  0.6086  0.7421 -0.2303
  153SAPE   O3216900   1.447   5.261   6.215 -0.5303 -0.1845 -0.1928
  153SAPE   C3216901   1.395   5.295   5.974 -0.3102 -0.6201  0.3253
  153SAPE   H2X16902   1.319   5.367   5.937  1.2025 -0.5060 -2.9284
  153SAPE   H2Y16903   1.381   5.204   5.912 -0.6751 -0.0550 -0.4461
  153SAPE   C2316904   1.006   5.730   6.069  0.8414  0.0961  0.5475
  153SAPE   H3R16905   1.085   5.738   5.991 -0.7099  0.5316 -1.0467
  153SAPE   H3S16906   1.046   5.783   6.158  2.6105 -0.1593 -0.0617
  153SAPE   C2416907   0.882   5.802   6.013 -0.6138  0.4767  0.0211
  153SAPE   H4R16908   0.812   5.804   6.099 -1.5871 -1.1618 -0.6816
  153SAPE   H4S16909   0.832   5.733   5.942 -1.8146 -1.0416  2.2258
  153SAPE   C2516910   0.907   5.927   5.943 -0.0182 -0.6255  0.0902
  153SAPE   H5R16911   0.899   6.014   6.010  0.0967 -0.5479  0.0030
  153SAPE   C2616912   0.943   5.937   5.816 -0.0598  0.1238 -0.1090
  153SAPE   H6R16913   0.959   6.040   5.780  0.6174 -0.4173 -1.4191
  153SAPE   C2716914   0.968   5.820   5.723 -1.0576 -0.3556  0.1571
  153SAPE   H7R16915   0.968   5.723   5.776 -0.4099 -0.3493  0.1774
  153SAPE   H7S16916   1.070   5.821   5.679 -1.2874  1.5491 -0.4508
  153SAPE   C2816917   0.863   5.812   5.619 -0.0751 -0.3865  0.0771
  153SAPE   H8R16918   0.757   5.825   5.647  0.0248 -1.1009  0.8307
  153SAPE   C2916919   0.892   5.805   5.485 -0.2800 -0.0801 -0.6976
  153SAPE   H9R16920   0.813   5.821   5.410 -0.4370  1.8710 -0.1690
  153SAPE  C21016921   1.022   5.783   5.422  0.2080 -0.9629 -0.2314
  153SAPE  H10R16922   0.999   5.715   5.338 -0.1592  1.1700 -1.9508
  153SAPE  H10S16923   1.091   5.727   5.489  1.4335 -0.2861 -0.8851
  153SAPE  C21116924   1.097   5.910   5.387  0.7340  0.0745 -0.5943
  153SAPE  H11R16925   1.128   5.980   5.465  0.4446  1.2767 -1.5345
  153SAPE  C21216926   1.133   5.939   5.262 -0.2103  0.3374 -0.0187
  153SAPE  H12R16927   1.172   6.041   5.251 -0.9527  0.7978  1.3597
  153SAPE  C21316928   1.102   5.858   5.139  0.9599  0.4956  0.1515
  153SAPE  H13R16929   1.045   5.764   5.156  1.7603 -0.0704 -0.2408
  153SAPE  H13S16930   1.193   5.817   5.090  0.5233 -0.7819  0.3501
  153SAPE  C21416931   1.018   5.934   5.046  0.6637 -1.0397 -0.3062
  153SAPE  H14R16932   0.910   5.939   5.064  1.0643  1.0112  2.1050
  153SAPE  C21516933   1.057   5.996   4.935 -0.4410 -0.1334  0.6366
  153SAPE  H15R16934   0.973   6.036   4.876 -0.9534  1.0241  2.0988
  153SAPE  C21616935   1.205   6.007   4.886  0.0353 -0.1607 -0.0084
  153SAPE  H16R16936   1.244   5.909   4.851  0.1341  0.4801 -1.7984
  153SAPE  H16S16937   1.265   6.045   4.972  0.4599 -0.8380  0.0077
  153SAPE  C21716938   1.241   6.095   4.767 -0.3404  0.1079 -0.1303
  153SAPE  H17R16939   1.206   6.199   4.785  1.1351  0.2865  2.1748
  153SAPE  H17S16940   1.195   6.056   4.674  2.7080 -2.5897 -0.7024
  153SAPE  C21816941   1.387   6.102   4.736 -0.2488  0.2716 -0.1060
  153SAPE  H18R16942   1.430   6.000   4.729 -0.6942 -0.2250  3.0260
  153SAPE  H18S16943   1.453   6.144   4.814  1.1687 -1.3532 -0.3737
  153SAPE  C21916944   1.422   6.170   4.599 -0.0779 -0.0828 -1.1742
  153SAPE  H19R16945   1.387   6.104   4.517 -0.4993 -2.0645  0.5179
  153SAPE  H19S16946   1.533   6.174   4.593 -0.1401  0.1329 -2.5089
  153SAPE  C22016947   1.363   6.313   4.574  0.2151  0.2187  0.6311
  153SAPE  H20R16948   1.382   6.373   4.666  1.8429  0.7276  0.0097
  153SAPE  H20S16949   1.255   6.296   4.556 -0.0182 -0.1457  2.2466
  153SAPE  H20T16950   1.405   6.375   4.492  1.2977  0.4974  1.3682
  153SAPE   C3316951   1.536   5.358   5.948  0.6256 -0.0920  0.0208
  153SAPE   H3X16952   1.616   5.295   5.993 -0.4468 -0.0680  2.0459
  153SAPE   H3Y16953   1.534   5.462   5.987 -1.9430  0.2112 -0.7091
  153SAPE   C3416954   1.573   5.349   5.798 -1.0030  0.4923 -0.3146
  153SAPE   H4X16955   1.576   5.246   5.756  0.7301  1.0477 -1.6720
  153SAPE   H4Y16956   1.677   5.385   5.781 -0.9845 -0.6763 -3.2765
  153SAPE   C3516957   1.489   5.442   5.711  0.3605 -0.0088 -0.8400
  153SAPE   H5X16958   1.491   5.537   5.768 -1.5415 -1.3608  1.6688
  153SAPE   H5Y16959   1.386   5.400   5.716  0.3232  0.1721  0.1087
  153SAPE   C3616960   1.543   5.456   5.567 -0.8618 -0.7992  0.0621
  153SAPE   H6X16961   1.519   5.360   5.516 -1.3688 -1.5847  1.6988
  153SAPE   H6Y16962   1.653   5.471   5.575 -1.0832 -0.0506  2.3125
  153SAPE   C3716963   1.489   5.580   5.492 -0.5870  0.1206 -0.2847
  153SAPE   H7X16964   1.536   5.583   5.391 -0.5288 -2.6400 -0.4149
  153SAPE   H7Y16965   1.521   5.673   5.544 -1.5970  0.1704  0.2645
  153SAPE   C3816966   1.338   5.583   5.479  0.6480 -0.6073 -0.0592
  153SAPE   H8X16967   1.320   5.681   5.431  3.5391  0.0071 -0.0254
  153SAPE   H8Y16968   1.289   5.564   5.577 -1.5082  2.0217 -0.5011
  153SAPE   C3916969   1.270   5.469   5.399  0.3189  0.3931  0.1079
  153SAPE   H9X16970   1.169   5.507   5.372 -0.4289 -2.1548 -0.9451
  153SAPE   H9Y16971   1.248   5.382   5.464 -0.8581  1.1599  0.7680
  153SAPE  C31016972   1.325   5.414   5.265 -0.5026 -0.0614 -0.1569
  153SAPE  H10X16973   1.254   5.341   5.221 -1.2829 -0.1543  1.1997
  153SAPE  H10Y16974   1.431   5.380   5.271 -0.6065 -0.2397  0.6869
  153SAPE  C31116975   1.333   5.529   5.161 -0.1605 -0.3375 -0.0495
  153SAPE  H11X16976   1.414   5.598   5.192  1.7409 -1.6587 -1.7870
  153SAPE  H11Y16977   1.232   5.574   5.165 -0.4029 -0.9500  1.3438
  153SAPE  C31216978   1.365   5.484   5.014 -0.1076 -0.0920  0.0492
  153SAPE  H12X16979   1.289   5.417   4.968 -0.1034  0.3291 -0.5947
  153SAPE  H12Y16980   1.461   5.427   5.017 -1.2081 -2.1855 -1.4562
  153SAPE  C31316981   1.361   5.604   4.916 -0.3266  0.3763  0.8236
  153SAPE  H13X16982   1.438   5.678   4.946 -0.7391  0.2667  2.2410
  153SAPE  H13Y16983   1.264   5.658   4.927 -0.8190 -0.3069 -0.0044
  153SAPE  C31416984   1.409   5.559   4.781 -0.2529  0.4666  0.3935
  153SAPE  H14X16985   1.342   5.472   4.764 -1.2551  0.9760  1.5665
  153SAPE  H14Y16986   1.514   5.525   4.795  0.1579  1.1997 -0.7767
  153SAPE  C31516987   1.401   5.674   4.673 -0.6671 -0.1981 -0.6803
  153SAPE  H15X16988   1.467   5.756   4.709 -0.5013 -0.1051 -1.1916
  153SAPE  H15Y16989   1.301   5.722   4.669  0.1038  1.3922 -3.2678
  153SAPE  C31616990   1.426   5.628   4.533  0.2573  0.3647 -0.2604
  153SAPE  H16X16991   1.353   5.547   4.511  0.3401  0.9037 -2.8536
  153SAPE  H16Y16992   1.531   5.594   4.528 -0.4136 -2.6653  2.5883
  153SAPE  C31716993   1.403   5.742   4.432  0.6854  0.1629 -0.7077
  153SAPE  H17X16994   1.452   5.720   4.335  0.4337 -1.6975 -0.4481
  153SAPE  H17Y16995   1.465   5.825   4.471  0.2735 -0.4087  1.2844
  153SAPE  C31816996   1.265   5.806   4.413  0.2827 -0.6911  0.2091
  153SAPE  H18X16997   1.267   5.888   4.338 -0.8047 -0.1234  0.7621
  153SAPE  H18Y16998   1.232   5.864   4.502  0.2461  0.0331 -0.2659
  153SAPE  H18Z16999   1.194   5.732   4.370  0.1033  0.8099 -2.2497
  154SAPE     N17000   6.264   5.613   7.038  0.4083  0.1788  0.4410
  154SAPE   HN117001   6.215   5.567   6.959  0.0891 -0.5732  1.0625
  154SAPE   HN217002   6.205   5.580   7.117  0.6016 -0.3201  0.3797
  154SAPE   HN317003   6.247   5.715   7.023 -0.3562 -0.0460 -0.2773
  154SAPE   C1217004   6.408   5.581   7.055  0.0231  0.7234 -0.9565
  154SAPE  H12A17005   6.415   5.473   7.083  0.0061  0.5355 -1.6627
  154SAPE  H12B17006   6.450   5.647   7.134 -0.8599  0.6586 -0.4178
  154SAPE   C1117007   6.473   5.595   6.925 -0.0596  0.3036  0.0319
  154SAPE  H11A17008   6.580   5.570   6.939  0.4704  1.7831 -1.0637
  154SAPE  H11B17009   6.475   5.700   6.888  0.0071  0.5054  0.6030
  154SAPE     P17010   6.492   5.495   6.689 -0.5317 -0.6645  0.2718
  154SAPE   O1317011   6.633   5.455   6.702  0.2146  0.3078 -0.4750
  154SAPE   O1417012   6.395   5.415   6.605  0.4916  0.4572  0.0601
  154SAPE   O1217013   6.431   5.498   6.828  0.2014 -0.2640 -0.8676
  154SAPE   O1117014   6.488   5.643   6.633 -0.4801 -0.5990 -0.6154
  154SAPE    C117015   6.373   5.714   6.618  0.5178 -0.0844 -0.8300
  154SAPE    HA17016   6.295   5.682   6.690  1.6240  1.8271  1.3623
  154SAPE    HB17017   6.399   5.821   6.630 -0.8013  0.0013  2.1472
  154SAPE    C217018   6.320   5.697   6.468 -0.0275 -0.7705 -0.1703
  154SAPE    HS17019   6.299   5.590   6.444  0.7175 -0.7198 -1.1236
  154SAPE   O2117020   6.427   5.759   6.390  0.0293  0.6361  0.4600
  154SAPE   C2117021   6.454   5.691   6.277 -0.0840 -0.0667 -0.2459
  154SAPE   O2217022   6.405   5.585   6.247 -0.1472  0.1145 -0.0262
  154SAPE   C2217023   6.579   5.755   6.219 -0.4602  0.4178 -0.1402
  154SAPE   H2R17024   6.558   5.858   6.184 -0.4367 -0.1971 -2.0873
  154SAPE   H2S17025   6.656   5.742   6.298  0.1653 -1.0148 -0.9328
  154SAPE    C317026   6.183   5.774   6.445 -0.0323  0.7920 -0.1658
  154SAPE    HX17027   6.202   5.883   6.448  1.5946  0.6088 -1.8979
  154SAPE    HY17028   6.120   5.747   6.533  0.4712 -0.3805 -0.1477
  154SAPE   O3117029   6.117   5.725   6.325 -0.0815 -0.1928  0.0862
  154SAPE   C3117030   6.120   5.792   6.223 -0.2218  0.3607  0.2288
  154SAPE   O3217031   6.186   5.889   6.188  0.8718  0.5881  0.6715
  154SAPE   C3217032   6.018   5.726   6.128  0.4217  0.6917 -0.1059
  154SAPE   H2X17033   5.925   5.788   6.129  0.4481  0.7336 -0.2327
  154SAPE   H2Y17034   5.997   5.621   6.156 -2.1282  0.4992 -2.2740
  154SAPE   C2317035   6.619   5.674   6.084  0.1326  0.2055  0.4537
  154SAPE   H3R17036   6.697   5.736   6.035 -0.2477  0.8807  0.6921
  154SAPE   H3S17037   6.532   5.677   6.014 -0.0482  0.0735  0.6713
  154SAPE   C2417038   6.668   5.528   6.110 -0.1841  0.0630 -0.4186
  154SAPE   H4R17039   6.671   5.484   6.008  1.4584 -1.1988  0.1326
  154SAPE   H4S17040   6.587   5.479   6.169 -0.1746  1.6762  1.0313
  154SAPE   C2517041   6.798   5.528   6.180 -0.4084 -0.3148 -0.2546
  154SAPE   H5R17042   6.806   5.593   6.269 -1.9321 -0.2137 -0.1596
  154SAPE   C2617043   6.912   5.477   6.140 -0.1960  0.8088 -0.2730
  154SAPE   H6R17044   6.999   5.473   6.207 -0.2794 -0.5013 -0.2110
  154SAPE   C2717045   6.940   5.399   6.021 -0.1077 -0.4482  0.2140
  154SAPE   H7R17046   6.846   5.361   5.975 -0.8218 -0.1642  1.3847
  154SAPE   H7S17047   6.988   5.303   6.049  0.2187 -0.9200 -1.8514
  154SAPE   C2817048   7.015   5.491   5.933 -0.5171  0.4225 -0.6352
  154SAPE   H8R17049   7.116   5.519   5.966 -0.1904 -0.5454 -0.7857
  154SAPE   C2917050   6.971   5.550   5.822  0.4060 -0.0659  0.7097
  154SAPE   H9R17051   7.036   5.630   5.785 -2.2076  1.4439 -0.8579
  154SAPE  C21017052   6.839   5.530   5.750  1.2666 -0.4054  0.3456
  154SAPE  H10R17053   6.760   5.501   5.822  0.8376 -1.2071 -0.4202
  154SAPE  H10S17054   6.853   5.454   5.670  0.4976 -0.2338  0.0426
  154SAPE  C21117055   6.786   5.652   5.684 -1.7582 -0.3300  0.0009
  154SAPE  H11R17056   6.719   5.712   5.748 -2.0151 -1.0467  0.4120
  154SAPE  C21217057   6.803   5.681   5.554 -0.4694  0.4420 -0.1441
  154SAPE  H12R17058   6.756   5.772   5.514  0.7283  1.1808  0.0884
  154SAPE  C21317059   6.889   5.611   5.456 -0.7242 -0.1792  0.6646
  154SAPE  H13R17060   6.977   5.567   5.508 -0.8929 -1.5382 -0.1494
  154SAPE  H13S17061   6.930   5.678   5.377 -2.4937  0.8327  0.5548
  154SAPE  C21417062   6.802   5.511   5.381 -0.5541  0.7610 -0.2978
  154SAPE  H14R17063   6.726   5.456   5.439  0.2106  0.6211  0.5942
  154SAPE  C21517064   6.838   5.457   5.264  0.0129  0.5772 -0.0170
  154SAPE  H15R17065   6.766   5.388   5.217  0.1751 -0.1489  0.7786
  154SAPE  C21617066   6.935   5.500   5.169 -0.1963 -0.5802 -0.8096
  154SAPE  H16R17067   6.981   5.421   5.107 -0.7335 -1.0452 -0.6225
  154SAPE  H16S17068   7.016   5.559   5.218  0.3079 -1.1917 -0.8953
  154SAPE  C21717069   6.872   5.601   5.072 -0.0609 -0.4155  0.2133
  154SAPE  H17R17070   6.813   5.683   5.118 -1.3858 -1.9013  1.2818
  154SAPE  H17S17071   6.801   5.547   5.006  0.8441 -0.8331 -0.4299
  154SAPE  C21817072   6.994   5.652   4.980  0.7515  0.2027  0.1988
  154SAPE  H18R17073   7.059   5.569   4.947 -0.2212 -0.3956 -0.2332
  154SAPE  H18S17074   7.061   5.713   5.045  2.2272 -0.5823 -0.5469
  154SAPE  C21917075   6.949   5.748   4.864  0.6493  0.1251 -0.3003
  154SAPE  H19R17076   6.864   5.809   4.901  0.7589  1.8092 -2.6497
  154SAPE  H19S17077   6.897   5.683   4.791 -0.1126  2.3512 -1.8406
  154SAPE  C22017078   7.052   5.843   4.801 -0.1326 -0.0909 -0.3726
  154SAPE  H20R17079   7.009   5.909   4.723 -2.2157 -0.9879 -0.0371
  154SAPE  H20S17080   7.139   5.781   4.768 -0.2670 -0.8173  0.5885
  154SAPE  H20T17081   7.086   5.901   4.889  0.0473 -0.8921  0.0951
  154SAPE   C3317082   6.061   5.720   5.977 -0.3658 -0.0717 -0.3511
  154SAPE   H3X17083   6.090   5.823   5.946 -0.8647  0.3788  0.6317
  154SAPE   H3Y17084   5.970   5.690   5.921 -0.0137 -0.1073 -0.9103
  154SAPE   C3417085   6.174   5.625   5.949  0.5097  0.6470  0.0838
  154SAPE   H4X17086   6.139   5.529   5.994  0.3677  0.8063  0.3111
  154SAPE   H4Y17087   6.272   5.647   5.998  1.3420 -1.7282 -0.3478
  154SAPE   C3517088   6.219   5.607   5.805  0.0070 -0.1745 -0.2195
  154SAPE   H5X17089   6.241   5.708   5.764 -0.1236  1.0861  2.5636
  154SAPE   H5Y17090   6.135   5.566   5.745 -0.9407 -0.2041  1.0611
  154SAPE   C3617091   6.336   5.512   5.791  0.2791 -0.5165  0.1198
  154SAPE   H6X17092   6.288   5.412   5.783 -0.2255 -0.2381 -0.3992
  154SAPE   H6Y17093   6.404   5.523   5.878 -0.9207  2.9709  0.7686
  154SAPE   C3717094   6.423   5.531   5.671 -0.5385  0.1533 -0.2793
  154SAPE   H7X17095   6.491   5.443   5.662 -0.2227  0.0159  2.4293
  154SAPE   H7Y17096   6.491   5.617   5.688  0.8523 -0.7085 -1.2402
  154SAPE   C3817097   6.349   5.539   5.530 -0.2148 -0.8026 -0.0470
  154SAPE   H8X17098   6.295   5.636   5.537 -0.1791 -0.7566 -0.4339
  154SAPE   H8Y17099   6.275   5.457   5.518 -0.3611 -0.4098 -2.1654
  154SAPE   C3917100   6.443   5.544   5.405 -0.2326 -0.0773 -0.6611
  154SAPE   H9X17101   6.493   5.446   5.391 -1.0670 -0.7998  1.0562
  154SAPE   H9Y17102   6.529   5.610   5.428 -0.2654  0.7164 -2.6351
  154SAPE  C31017103   6.374   5.587   5.274 -0.0313  0.3218 -0.2886
  154SAPE  H10X17104   6.357   5.695   5.289  1.6117  0.5475  0.1894
  154SAPE  H10Y17105   6.278   5.532   5.272 -0.2423  0.6624  0.4530
  154SAPE  C31117106   6.466   5.566   5.151 -0.6263 -0.3325 -0.6808
  154SAPE  H11X17107   6.512   5.466   5.164  2.2273  1.0226  0.6328
  154SAPE  H11Y17108   6.553   5.633   5.169  0.1377 -1.3143 -0.6442
  154SAPE  C31217109   6.402   5.581   5.016  0.8832  0.0793 -0.1944
  154SAPE  H12X17110   6.479   5.546   4.945  1.6024 -1.0299  1.1037
  154SAPE  H12Y17111   6.372   5.685   4.989 -0.9814 -0.5683 -0.8182
  154SAPE  C31317112   6.286   5.486   5.005 -0.0244 -0.3921 -0.6078
  154SAPE  H13X17113   6.206   5.513   5.077  0.8498  3.0758 -0.7567
  154SAPE  H13Y17114   6.317   5.383   5.033 -2.6954 -1.0250  0.3321
  154SAPE  C31417115   6.211   5.493   4.867 -0.3752 -0.2722 -0.8035
  154SAPE  H14X17116   6.130   5.568   4.879 -1.8876 -2.0645  0.9871
  154SAPE  H14Y17117   6.168   5.392   4.852 -0.4032 -0.1983 -1.2460
  154SAPE  C31517118   6.299   5.490   4.741 -0.0083  0.5022  0.6957
  154SAPE  H15X17119   6.368   5.403   4.743 -0.5755 -0.0198 -0.6070
  154SAPE  H15Y17120   6.372   5.574   4.735 -1.4670  1.7277 -3.0819
  154SAPE  C31617121   6.234   5.485   4.595  0.0497  0.1136 -0.4159
  154SAPE  H16X17122   6.174   5.579   4.590 -1.0308 -0.5525 -0.3162
  154SAPE  H16Y17123   6.164   5.399   4.599  0.1022  0.1108  2.2427
  154SAPE  C31717124   6.326   5.478   4.478 -0.2396 -0.0048  0.1158
  154SAPE  H17X17125   6.391   5.388   4.490  1.1693  1.1188  1.3834
  154SAPE  H17Y17126   6.390   5.569   4.476  0.7264 -0.6397  0.8671
  154SAPE  C31817127   6.245   5.480   4.348  0.2639  0.4657 -0.0709
  154SAPE  H18X17128   6.195   5.382   4.330  2.9957 -1.1537  0.5879
  154SAPE  H18Y17129   6.311   5.482   4.258 -3.6413  1.8266 -3.2097
  154SAPE  H18Z17130   6.184   5.573   4.343  0.2370  0.4173 -0.7072
  155SAPE     N17131   1.457   3.838   6.711 -0.6950  0.6041  0.4819
  155SAPE   HN117132   1.455   3.782   6.623  0.2585 -1.4428  1.6773
  155SAPE   HN217133   1.448   3.941   6.702 -0.8536  0.6032  0.6401
  155SAPE   HN317134   1.552   3.817   6.747 -1.5115 -1.2260  1.6753
  155SAPE   C1217135   1.351   3.780   6.793 -0.4801  0.6912  0.3918
  155SAPE  H12A17136   1.256   3.813   6.745  0.6866  2.6027 -0.7269
  155SAPE  H12B17137   1.343   3.822   6.895 -0.4808  1.2947  0.1498
  155SAPE   C1117138   1.362   3.622   6.793 -0.5328  0.4749  0.0145
  155SAPE  H11A17139   1.344   3.597   6.686  0.2673  1.2678 -0.3169
  155SAPE  H11B17140   1.277   3.577   6.850  1.2325 -0.6732  1.8685
  155SAPE     P17141   1.496   3.417   6.860 -0.4028  0.0272  0.1402
  155SAPE   O1317142   1.617   3.393   6.941  0.1331 -0.1888  0.1167
  155SAPE   O1417143   1.376   3.356   6.920  0.1424 -0.2179  0.1591
  155SAPE   O1217144   1.483   3.571   6.846 -0.5044 -0.1830  0.2537
  155SAPE   O1117145   1.521   3.353   6.720  0.2555 -0.1204 -0.8073
  155SAPE    C117146   1.637   3.278   6.692 -0.2233 -0.0608  0.2155
  155SAPE    HA17147   1.726   3.312   6.749  0.7257 -0.2781 -1.1202
  155SAPE    HB17148   1.618   3.170   6.705  0.3134 -0.1903 -0.0827
  155SAPE    C217149   1.689   3.295   6.548 -0.7533 -0.2971  0.0598
  155SAPE    HS17150   1.745   3.202   6.522  0.6283  0.4014  0.4286
  155SAPE   O2117151   1.773   3.411   6.547 -0.1660 -0.3721  0.3862
  155SAPE   C2117152   1.904   3.379   6.551 -0.1977  0.2459 -0.3963
  155SAPE   O2217153   1.945   3.276   6.599  0.1586  0.7511 -0.0805
  155SAPE   C2217154   1.976   3.495   6.497 -0.2028 -0.5121  0.8049
  155SAPE   H2R17155   1.913   3.579   6.461  1.4358  0.0304 -0.9962
  155SAPE   H2S17156   2.028   3.545   6.581 -0.2138 -0.1094  0.5721
  155SAPE    C317157   1.575   3.316   6.458  0.1068  0.2872  0.2746
  155SAPE    HX17158   1.506   3.396   6.494  1.0510  0.4310  1.8308
  155SAPE    HY17159   1.521   3.219   6.452  0.4903 -0.1640  2.8824
  155SAPE   O3117160   1.622   3.343   6.323  0.2340  0.3822  0.2466
  155SAPE   C3117161   1.628   3.469   6.280 -0.4491  0.7426 -0.0940
  155SAPE   O3217162   1.583   3.569   6.334 -0.5415 -0.0434 -0.1372
  155SAPE   C3217163   1.689   3.454   6.144 -0.0344 -0.0353  0.1344
  155SAPE   H2X17164   1.618   3.388   6.090  0.4215  0.1664 -0.7286
  155SAPE   H2Y17165   1.780   3.391   6.151  2.2627  3.0876  0.8817
  155SAPE   C2317166   2.086   3.460   6.391  0.0471 -0.4289  0.0315
  155SAPE   H3R17167   2.163   3.395   6.439 -0.4817 -0.0170  1.4885
  155SAPE   H3S17168   2.133   3.559   6.376 -1.5755  0.4977  0.8552
  155SAPE   C2417169   2.042   3.401   6.260 -0.0969 -0.0018  0.0390
  155SAPE   H4R17170   1.966   3.468   6.213  0.8277  1.1439  0.1237
  155SAPE   H4S17171   1.980   3.312   6.283  0.0468  0.2314  1.3823
  155SAPE   C2517172   2.159   3.356   6.177 -0.2000 -0.0220 -1.2093
  155SAPE   H5R17173   2.205   3.259   6.199 -1.6611 -0.7322 -1.1883
  155SAPE   C2617174   2.229   3.441   6.098  0.7513  0.3523  1.1864
  155SAPE   H6R17175   2.308   3.404   6.031  0.9421  0.4962  1.3276
  155SAPE   C2717176   2.213   3.588   6.094  0.0260 -0.2449 -0.7970
  155SAPE   H7R17177   2.312   3.625   6.059  1.3395 -1.2680  1.5996
  155SAPE   H7S17178   2.207   3.625   6.198  1.6560  1.3771 -1.2305
  155SAPE   C2817179   2.101   3.664   6.015 -0.0069  0.1606  0.1218
  155SAPE   H8R17180   2.020   3.600   5.975  1.3138 -1.3505 -0.2552
  155SAPE   C2917181   2.105   3.793   5.979  0.1804 -0.2688 -0.4161
  155SAPE   H9R17182   2.015   3.827   5.926 -0.0578  1.1473  0.8349
  155SAPE  C21017183   2.207   3.898   6.001  0.4328 -0.6375 -0.1668
  155SAPE  H10R17184   2.284   3.898   5.921  0.9555  1.3519  0.2597
  155SAPE  H10S17185   2.268   3.868   6.088  3.0532  1.4780 -1.1276
  155SAPE  C21117186   2.146   4.041   6.015 -0.4430  0.6206  0.1874
  155SAPE  H11R17187   2.080   4.048   6.102  0.8234 -3.8994  1.7674
  155SAPE  C21217188   2.159   4.148   5.933 -0.5987  1.2034 -0.8659
  155SAPE  H12R17189   2.106   4.240   5.960 -3.6757 -1.3605  2.9040
  155SAPE  C21317190   2.230   4.153   5.799 -0.5360 -0.3302 -0.7220
  155SAPE  H13R17191   2.303   4.070   5.792  0.6177  0.5372  0.4967
  155SAPE  H13S17192   2.283   4.248   5.777 -1.7655  0.1167 -1.9257
  155SAPE  C21417193   2.128   4.146   5.695  0.0588 -0.2002 -0.0030
  155SAPE  H14R17194   2.035   4.197   5.722  0.1434 -0.3370  0.5466
  155SAPE  C21517195   2.138   4.088   5.569 -0.1819  0.3482 -0.6452
  155SAPE  H15R17196   2.056   4.116   5.501 -0.1604  0.9919 -0.4085
  155SAPE  C21617197   2.256   3.999   5.529 -0.0659 -0.1720 -0.0397
  155SAPE  H16R17198   2.319   3.970   5.616 -0.9907  0.1502  0.7517
  155SAPE  H16S17199   2.312   4.071   5.466 -0.1253 -2.1923 -2.5643
  155SAPE  C21717200   2.214   3.875   5.442  0.0100  1.1662  1.3081
  155SAPE  H17R17201   2.305   3.839   5.389 -0.0060 -0.0369  2.0603
  155SAPE  H17S17202   2.150   3.912   5.359  0.1081  0.0522  0.7101
  155SAPE  C21817203   2.148   3.767   5.525  0.2453  0.0198 -0.5429
  155SAPE  H18R17204   2.088   3.704   5.456  0.0278  0.6909 -0.9815
  155SAPE  H18S17205   2.077   3.812   5.597 -0.7301  1.6189 -2.4264
  155SAPE  C21917206   2.249   3.682   5.599 -0.3260  0.3514 -0.3550
  155SAPE  H19R17207   2.294   3.750   5.674  0.1071 -1.6405  1.2703
  155SAPE  H19S17208   2.328   3.650   5.528 -1.0741 -0.2237 -0.9512
  155SAPE  C22017209   2.192   3.557   5.659  0.2878  0.0564 -0.1788
  155SAPE  H20R17210   2.146   3.484   5.589  1.8182 -1.9575  0.8224
  155SAPE  H20S17211   2.116   3.596   5.730  0.0491 -0.3162 -0.2275
  155SAPE  H20T17212   2.267   3.505   5.722  1.3959  2.2543  0.4088
  155SAPE   C3317213   1.704   3.582   6.060  0.0793 -1.0358 -0.0092
  155SAPE   H3X17214   1.776   3.652   6.107 -2.5436  1.6619  0.2838
  155SAPE   H3Y17215   1.606   3.634   6.055 -1.0410 -2.4447  3.8059
  155SAPE   C3417216   1.748   3.536   5.918 -0.6613 -0.3201 -0.0933
  155SAPE   H4X17217   1.666   3.465   5.895 -1.2477  0.7909 -1.6505
  155SAPE   H4Y17218   1.848   3.488   5.912  0.2923  1.7002 -1.9643
  155SAPE   C3517219   1.749   3.651   5.818 -0.1596 -0.7085 -0.0539
  155SAPE   H5X17220   1.803   3.742   5.853 -1.5006 -0.6469  2.0124
  155SAPE   H5Y17221   1.648   3.697   5.813 -0.0453 -0.2216  1.4548
  155SAPE   C3617222   1.785   3.605   5.675  0.2392 -0.6493  0.0814
  155SAPE   H6X17223   1.734   3.510   5.649 -2.7470  1.3786 -2.1820
  155SAPE   H6Y17224   1.894   3.588   5.669  0.4181  0.6242 -0.6692
  155SAPE   C3717225   1.731   3.708   5.570  0.3258 -0.1695  0.3057
  155SAPE   H7X17226   1.787   3.804   5.559  1.6425 -0.8902  0.4602
  155SAPE   H7Y17227   1.636   3.744   5.615  1.1115  1.3587  0.8193
  155SAPE   C3817228   1.720   3.647   5.432  0.2458  0.3451  0.1125
  155SAPE   H8X17229   1.629   3.695   5.390 -0.0446 -0.7350 -0.5480
  155SAPE   H8Y17230   1.675   3.547   5.444  1.2517 -0.0658  0.5731
  155SAPE   C3917231   1.846   3.654   5.347  0.0287 -0.1291  0.0642
  155SAPE   H9X17232   1.923   3.598   5.404  1.7060  0.4992 -1.4804
  155SAPE   H9Y17233   1.887   3.757   5.358  0.3594 -0.2188 -0.2994
  155SAPE  C31017234   1.840   3.607   5.201  0.1702 -0.7546 -0.0326
  155SAPE  H10X17235   1.766   3.677   5.156  1.6713  0.1693 -1.1799
  155SAPE  H10Y17236   1.809   3.502   5.187 -2.4561 -0.2681  1.4500
  155SAPE  C31117237   1.982   3.628   5.144  0.1102  0.1412 -0.1418
  155SAPE  H11X17238   2.041   3.717   5.176 -1.8212  1.1461  0.7484
  155SAPE  H11Y17239   1.965   3.636   5.035  3.3978 -1.7817 -0.9286
  155SAPE  C31217240   2.066   3.505   5.163  0.6400  0.1263 -0.8309
  155SAPE  H12X17241   2.023   3.410   5.124 -0.8381  0.7811 -0.8505
  155SAPE  H12Y17242   2.074   3.490   5.273 -0.4787  0.7772 -0.6458
  155SAPE  C31317243   2.206   3.538   5.114  0.5797 -0.1750 -0.1851
  155SAPE  H13X17244   2.281   3.465   5.152  0.2466  0.3996  1.6506
  155SAPE  H13Y17245   2.239   3.633   5.160 -0.8832  0.4172 -0.3058
  155SAPE  C31417246   2.230   3.549   4.958 -0.3544 -0.7677 -0.5975
  155SAPE  H14X17247   2.307   3.622   4.924  0.9253 -1.4148  0.7602
  155SAPE  H14Y17248   2.136   3.597   4.925 -0.3493  1.9920  2.8124
  155SAPE  C31517249   2.244   3.415   4.886 -0.2088 -0.7147  0.6971
  155SAPE  H15X17250   2.154   3.351   4.893 -0.2725 -0.6406  0.5565
  155SAPE  H15Y17251   2.333   3.358   4.921  0.4681  0.1457  0.4260
  155SAPE  C31617252   2.248   3.447   4.737  0.5328  0.0127  0.0052
  155SAPE  H16X17253   2.291   3.549   4.730  0.1063  0.1081 -1.6333
  155SAPE  H16Y17254   2.147   3.466   4.696  1.0975  2.3190 -0.4017
  155SAPE  C31717255   2.330   3.341   4.656 -0.1879  0.2328  0.0014
  155SAPE  H17X17256   2.259   3.323   4.573 -0.9166  2.3093  0.1311
  155SAPE  H17Y17257   2.348   3.251   4.719 -0.0643  0.9191  0.9739
  155SAPE  C31817258   2.466   3.388   4.592  1.4882 -0.1654 -0.5425
  155SAPE  H18X17259   2.524   3.441   4.671 -2.5255 -1.1126  3.3974
  155SAPE  H18Y17260   2.451   3.460   4.508 -1.9733  1.1139  0.9732
  155SAPE  H18Z17261   2.520   3.297   4.556 -1.0119 -1.5214 -1.0614
  156SAPE     N17262   1.715   6.317   6.946 -0.2026 -0.3323 -0.0401
  156SAPE   HN117263   1.624   6.304   6.995  0.6731  0.6121  1.9702
  156SAPE   HN217264   1.791   6.308   7.016 -1.3853 -0.2973  1.2973
  156SAPE   HN317265   1.715   6.420   6.928 -0.0211 -0.3023  0.1317
  156SAPE   C1217266   1.712   6.239   6.821  0.3149  0.0321 -0.7592
  156SAPE  H12A17267   1.700   6.310   6.737  0.1753  0.7146 -0.1686
  156SAPE  H12B17268   1.623   6.173   6.822  0.1695  0.1818  1.8576
  156SAPE   C1117269   1.838   6.153   6.798 -0.2777 -0.6996 -0.6874
  156SAPE  H11A17270   1.827   6.113   6.695  0.8205  1.9207 -1.9039
  156SAPE  H11B17271   1.842   6.074   6.876 -1.8508 -1.5504 -1.4150
  156SAPE     P17272   2.102   6.186   6.805  0.3504  0.1173  0.1052
  156SAPE   O1317273   2.194   6.297   6.764  0.4548 -0.0615  0.4387
  156SAPE   O1417274   2.130   6.112   6.929 -0.1889  0.0905  0.1774
  156SAPE   O1217275   1.952   6.237   6.801 -0.1283  0.2204 -0.8011
  156SAPE   O1117276   2.103   6.079   6.691  0.0688 -0.7551  0.4214
  156SAPE    C117277   2.070   5.941   6.709  0.0927 -0.3039  0.2736
  156SAPE    HA17278   2.155   5.896   6.765  0.0211  2.9624  3.4169
  156SAPE    HB17279   1.984   5.924   6.776  1.3542  2.3010  2.8088
  156SAPE    C217280   2.051   5.861   6.566 -0.0547  0.6404 -0.4203
  156SAPE    HS17281   2.057   5.752   6.590  1.7018  0.1697 -2.6354
  156SAPE   O2117282   2.139   5.902   6.460 -0.1374  0.6606  0.0018
  156SAPE   C2117283   2.268   5.920   6.482 -0.0166  0.1208 -0.0462
  156SAPE   O2217284   2.323   5.874   6.582  0.6050 -0.4736  0.1209
  156SAPE   C2217285   2.338   5.993   6.367  0.5654 -0.1453 -0.2323
  156SAPE   H2R17286   2.325   5.942   6.270  0.4595  0.7044 -0.6712
  156SAPE   H2S17287   2.274   6.083   6.358 -1.9813 -1.9032 -0.7173
  156SAPE    C317288   1.910   5.882   6.508  0.3492 -0.6315  0.1320
  156SAPE    HX17289   1.912   5.992   6.489  2.6574 -0.9931 -2.2136
  156SAPE    HY17290   1.834   5.860   6.586 -0.3334  0.6182 -0.1516
  156SAPE   O3117291   1.878   5.816   6.384 -0.0209  0.1713 -0.2619
  156SAPE   C3117292   1.839   5.696   6.380 -0.0522 -0.3653 -0.5019
  156SAPE   O3217293   1.826   5.624   6.477  0.4762  0.3884  0.1569
  156SAPE   C3217294   1.789   5.676   6.234  0.3857 -0.0658 -0.2295
  156SAPE   H2X17295   1.855   5.733   6.165 -1.4446  0.8659 -1.2945
  156SAPE   H2Y17296   1.691   5.727   6.244  0.1767 -0.1116 -1.8954
  156SAPE   C2317297   2.487   6.033   6.391  0.3199  0.6297  0.1673
  156SAPE   H3R17298   2.550   5.942   6.381 -0.7740 -0.0703 -0.5343
  156SAPE   H3S17299   2.492   6.064   6.498 -0.6869 -0.2236  0.4803
  156SAPE   C2417300   2.540   6.149   6.302 -1.0375  0.4530  0.5100
  156SAPE   H4R17301   2.533   6.112   6.198 -1.4080  2.7220 -0.3217
  156SAPE   H4S17302   2.647   6.163   6.330 -0.7129 -0.7214 -0.0942
  156SAPE   C2517303   2.468   6.279   6.317  0.5938  0.3918  0.0382
  156SAPE   H5R17304   2.483   6.326   6.416  0.3174 -1.4300  0.9924
  156SAPE   C2617305   2.396   6.340   6.222 -0.2215  0.3447  0.0399
  156SAPE   H6R17306   2.337   6.427   6.255 -2.7559 -1.4069  0.3657
  156SAPE   C2717307   2.373   6.299   6.079 -0.5970 -0.3352  0.8783
  156SAPE   H7R17308   2.367   6.189   6.063  0.6772 -0.0958 -1.6298
  156SAPE   H7S17309   2.465   6.328   6.024  0.1425 -0.3186  2.0846
  156SAPE   C2817310   2.258   6.360   6.005 -0.0568 -0.1751 -0.0757
  156SAPE   H8R17311   2.205   6.428   6.073  1.4188 -1.4507  2.5074
  156SAPE   C2917312   2.233   6.348   5.873 -0.8960 -0.8572  0.7095
  156SAPE   H9R17313   2.143   6.397   5.833 -1.0879  0.4914  2.6753
  156SAPE  C21017314   2.302   6.251   5.774  0.2991 -0.0100 -0.0366
  156SAPE  H10R17315   2.230   6.167   5.761  0.0003 -0.0166  1.4821
  156SAPE  H10S17316   2.397   6.212   5.814 -0.9622 -2.8657  0.4408
  156SAPE  C21117317   2.334   6.323   5.644 -0.1597  0.1284  0.2246
  156SAPE  H11R17318   2.371   6.426   5.650  0.0514  0.0285  0.7692
  156SAPE  C21217319   2.346   6.258   5.525 -0.0772  0.0263  0.4163
  156SAPE  H12R17320   2.352   6.325   5.438  1.3086  1.1709  1.3417
  156SAPE  C21317321   2.322   6.115   5.502  0.5626  0.3735 -0.3801
  156SAPE  H13R17322   2.300   6.061   5.597  1.1137  0.6900 -0.0713
  156SAPE  H13S17323   2.411   6.070   5.455  0.4642  1.2042 -1.3933
  156SAPE  C21417324   2.219   6.082   5.392 -0.1581  1.2983  0.3315
  156SAPE  H14R17325   2.114   6.089   5.422 -0.1640  0.3241  0.5805
  156SAPE  C21517326   2.230   6.063   5.257  0.6284 -0.2046  0.3644
  156SAPE  H15R17327   2.145   6.030   5.195  1.9705  0.4291 -1.9663
  156SAPE  C21617328   2.352   6.076   5.175  0.0480 -0.1842  0.7932
  156SAPE  H16R17329   2.440   6.113   5.232  0.2182 -1.5462  1.4670
  156SAPE  H16S17330   2.335   6.159   5.103 -0.6079 -2.6532 -2.0910
  156SAPE  C21717331   2.396   5.955   5.091  0.1464  0.1267  0.1933
  156SAPE  H17R17332   2.476   5.978   5.017  2.1829 -0.7761  2.0328
  156SAPE  H17S17333   2.305   5.919   5.037  0.4667  2.9345 -2.5091
  156SAPE  C21817334   2.459   5.857   5.195 -0.1416 -0.5302 -0.2347
  156SAPE  H18R17335   2.388   5.808   5.265 -1.5667 -1.7524 -2.4265
  156SAPE  H18S17336   2.532   5.911   5.260 -0.6946 -0.5519  0.4108
  156SAPE  C21917337   2.531   5.739   5.126  0.7699  0.1378  0.1422
  156SAPE  H19R17338   2.607   5.778   5.055  0.2965 -0.1294 -0.5226
  156SAPE  H19S17339   2.463   5.679   5.061 -0.9439 -1.5424  3.2105
  156SAPE  C22017340   2.601   5.642   5.215  0.4492 -0.1917 -0.3060
  156SAPE  H20R17341   2.678   5.694   5.275  0.9943  0.1915 -1.3016
  156SAPE  H20S17342   2.645   5.554   5.163 -0.2865 -2.6365  2.9095
  156SAPE  H20T17343   2.533   5.597   5.290  2.3497 -1.2324  0.8536
  156SAPE   C3317344   1.764   5.532   6.198  0.0852  0.0067 -0.1897
  156SAPE   H3X17345   1.674   5.532   6.132 -1.1377 -1.2630  1.3710
  156SAPE   H3Y17346   1.737   5.467   6.284 -2.3382 -0.9912 -1.5903
  156SAPE   C3417347   1.873   5.473   6.110 -1.1708  0.3110  0.2004
  156SAPE   H4X17348   1.831   5.373   6.087 -0.5181 -0.5696  2.5123
  156SAPE   H4Y17349   1.966   5.458   6.170 -0.4890 -0.5614 -1.0324
  156SAPE   C3517350   1.913   5.554   5.983  0.0009  0.7255  1.0609
  156SAPE   H5X17351   1.979   5.634   6.023  0.5619 -0.7835  3.3198
  156SAPE   H5Y17352   1.833   5.591   5.915 -0.2436 -1.7024 -0.0474
  156SAPE   C3617353   2.007   5.477   5.887  0.1062  0.5247  0.1540
  156SAPE   H6X17354   1.941   5.406   5.834 -0.2244  0.6111  0.4490
  156SAPE   H6Y17355   2.087   5.424   5.943 -0.0277  0.4301  0.2560
  156SAPE   C3717356   2.069   5.575   5.786  0.1079 -0.5808 -0.1959
  156SAPE   H7X17357   2.137   5.653   5.827 -0.5465  1.1119 -2.1335
  156SAPE   H7Y17358   1.985   5.623   5.732 -2.2207 -4.3935 -0.3038
  156SAPE   C3817359   2.155   5.498   5.680  0.1276 -0.0493 -0.0649
  156SAPE   H8X17360   2.093   5.417   5.637 -0.5521 -0.1693  1.0963
  156SAPE   H8Y17361   2.242   5.454   5.735 -0.1449 -3.7282 -2.2488
  156SAPE   C3917362   2.202   5.587   5.564  0.3674  0.3853 -0.0703
  156SAPE   H9X17363   2.249   5.677   5.609  1.9954 -0.3347 -0.2898
  156SAPE   H9Y17364   2.120   5.611   5.493  0.7007  0.8531 -0.2985
  156SAPE  C31017365   2.316   5.517   5.488 -0.3058 -0.5524 -0.7600
  156SAPE  H10X17366   2.384   5.473   5.565 -0.4914  1.1868  0.4554
  156SAPE  H10Y17367   2.381   5.590   5.435  1.0548  0.1859  1.7574
  156SAPE  C31117368   2.256   5.408   5.402 -0.0635  0.0285 -0.5172
  156SAPE  H11X17369   2.166   5.444   5.348  0.7363 -1.5178 -3.0508
  156SAPE  H11Y17370   2.231   5.323   5.469 -0.3414  0.5935  0.1022
  156SAPE  C31217371   2.342   5.360   5.291 -0.2853 -0.0007  0.4780
  156SAPE  H12X17372   2.432   5.326   5.346  0.3839 -0.7588 -1.0099
  156SAPE  H12Y17373   2.368   5.448   5.227 -2.9507  0.4082 -0.1418
  156SAPE  C31317374   2.273   5.250   5.212 -0.3314 -0.3208 -0.7564
  156SAPE  H13X17375   2.172   5.288   5.186  0.9602  1.1319 -4.1341
  156SAPE  H13Y17376   2.251   5.167   5.284 -1.3888  0.2084 -0.4374
  156SAPE  C31417377   2.351   5.207   5.089 -0.0962 -0.4495 -0.2930
  156SAPE  H14X17378   2.404   5.291   5.039  1.6922  0.2644  2.5718
  156SAPE  H14Y17379   2.286   5.153   5.017 -0.6272 -1.1819  0.7162
  156SAPE  C31517380   2.463   5.110   5.122 -0.1017  0.2430  0.1156
  156SAPE  H15X17381   2.430   5.004   5.113  1.1861 -0.0243 -3.0215
  156SAPE  H15Y17382   2.497   5.130   5.226 -2.0631  3.7182  0.2356
  156SAPE  C31617383   2.583   5.121   5.036 -0.2460 -0.5751  0.9281
  156SAPE  H16X17384   2.632   5.220   5.031 -0.9468 -0.2709 -0.6521
  156SAPE  H16Y17385   2.557   5.100   4.930 -0.1783  2.5053  0.2082
  156SAPE  C31717386   2.704   5.028   5.079 -0.0479 -0.3257  0.2964
  156SAPE  H17X17387   2.671   4.923   5.070 -1.5096  0.1815 -0.6315
  156SAPE  H17Y17388   2.725   5.058   5.184 -1.0021  1.4219  0.0388
  156SAPE  C31817389   2.832   5.046   4.991 -0.5900 -0.5516 -0.1902
  156SAPE  H18X17390   2.881   5.140   5.021  0.8178 -2.1524  2.9571
  156SAPE  H18Y17391   2.800   5.063   4.886  1.1743 -1.8969 -0.9948
  156SAPE  H18Z17392   2.892   4.952   4.991 -1.6928 -1.2955 -1.2471
  157SAPE     N17393   2.024   3.905   7.420 -0.7667 -0.1509 -0.3390
  157SAPE   HN117394   1.985   3.948   7.334  1.5825 -0.9840 -1.8885
  157SAPE   HN217395   1.959   3.828   7.446 -0.5256 -0.1695  0.2468
  157SAPE   HN317396   2.034   3.984   7.488  1.8239 -1.2520  0.6631
  157SAPE   C1217397   2.149   3.840   7.373 -0.8915 -0.2190  0.4520
  157SAPE  H12A17398   2.186   3.776   7.456 -0.3977 -1.5409 -0.7352
  157SAPE  H12B17399   2.224   3.918   7.351 -0.5975 -0.1321  1.7074
  157SAPE   C1117400   2.108   3.749   7.255  0.6224 -0.1275  0.1086
  157SAPE  H11A17401   2.019   3.689   7.283  0.4841  0.1197  0.2106
  157SAPE  H11B17402   2.180   3.668   7.233 -0.1625 -1.5514  2.4478
  157SAPE     P17403   2.197   3.888   7.052  0.1176 -0.3087  0.1440
  157SAPE   O1317404   2.205   4.035   7.075 -1.0183  0.7696 -0.2163
  157SAPE   O1417405   2.321   3.807   7.071  0.0323  1.1146 -0.3621
  157SAPE   O1217406   2.074   3.822   7.133 -0.1545  0.4834 -0.1073
  157SAPE   O1117407   2.144   3.867   6.904 -0.2713 -0.5117 -0.3971
  157SAPE    C117408   2.182   3.746   6.836 -0.3936  0.0570 -0.3140
  157SAPE    HA17409   2.258   3.683   6.887  0.6040  1.5497  0.1313
  157SAPE    HB17410   2.091   3.686   6.816 -0.1541 -0.2800 -0.3944
  157SAPE    C217411   2.234   3.773   6.694  0.3818  1.0165  0.1710
  157SAPE    HS17412   2.311   3.851   6.713 -0.9597  1.8504  2.5860
  157SAPE   O2117413   2.119   3.807   6.603  0.2299 -0.3631 -0.5373
  157SAPE   C2117414   2.124   3.927   6.550  0.7815 -0.1236 -0.9179
  157SAPE   O2217415   2.221   4.000   6.552 -0.0081 -0.1221 -0.2766
  157SAPE   C2217416   1.988   3.965   6.489 -0.3030 -0.0291 -0.5899
  157SAPE   H2R17417   1.915   3.881   6.491 -0.8224  0.2577  4.2548
  157SAPE   H2S17418   1.945   4.049   6.547 -1.0930  0.1206 -1.3687
  157SAPE    C317419   2.307   3.652   6.626  0.4302 -0.0342  0.0804
  157SAPE    HX17420   2.237   3.568   6.610 -0.6229  0.8793 -0.2013
  157SAPE    HY17421   2.388   3.621   6.696  0.6287  2.7694  1.2325
  157SAPE   O3117422   2.363   3.681   6.493 -0.4157  0.0672  0.1121
  157SAPE   C3117423   2.469   3.753   6.487 -0.0650  0.3044 -0.4054
  157SAPE   O3217424   2.519   3.808   6.587 -0.9191 -0.0221 -0.0650
  157SAPE   C3217425   2.518   3.744   6.342 -0.1866  0.2200 -0.6378
  157SAPE   H2X17426   2.440   3.692   6.283 -0.8076 -1.5503  1.6121
  157SAPE   H2Y17427   2.602   3.671   6.351 -0.6556 -0.4380 -1.4924
  157SAPE   C2317428   2.003   4.011   6.341  0.9267 -0.2973 -0.4425
  157SAPE   H3R17429   2.020   3.925   6.273 -1.6852 -0.6519 -0.7457
  157SAPE   H3S17430   2.091   4.079   6.340  1.2147 -0.6114  0.9323
  157SAPE   C2417431   1.873   4.084   6.288 -0.0755  0.2076 -0.5049
  157SAPE   H4R17432   1.888   4.115   6.183 -4.7852  1.8529 -0.9280
  157SAPE   H4S17433   1.864   4.176   6.349  1.5110  0.1620 -0.1447
  157SAPE   C2517434   1.747   4.004   6.305  0.3135 -0.0001 -0.8105
  157SAPE   H5R17435   1.731   3.971   6.408 -0.1270 -2.0049 -1.4808
  157SAPE   C2617436   1.657   3.968   6.206  0.5142 -0.2889 -0.0272
  157SAPE   H6R17437   1.577   3.897   6.233 -1.0993  1.4980  0.0633
  157SAPE   C2717438   1.661   3.993   6.060  0.2952  0.1269 -0.1426
  157SAPE   H7R17439   1.680   3.900   6.003  3.0508  0.9998 -0.8181
  157SAPE   H7S17440   1.752   4.052   6.038  0.5875 -0.8306 -1.6498
  157SAPE   C2817441   1.541   4.075   6.018  0.1318  1.1613  0.0905
  157SAPE   H8R17442   1.490   4.129   6.099 -0.9273  1.1125 -0.5142
  157SAPE   C2917443   1.499   4.084   5.889 -0.2335  0.2934 -0.2701
  157SAPE   H9R17444   1.421   4.155   5.861  0.1198  0.6705 -0.3078
  157SAPE  C21017445   1.583   4.021   5.775  0.1199  0.3197  0.1259
  157SAPE  H10R17446   1.524   4.027   5.682 -1.8110 -2.0178  1.0769
  157SAPE  H10S17447   1.623   3.922   5.807  0.7868 -0.3463 -2.5533
  157SAPE  C21117448   1.715   4.097   5.737  1.0702  0.2885  0.0316
  157SAPE  H11R17449   1.784   4.112   5.820 -0.5085  0.3697  1.3778
  157SAPE  C21217450   1.739   4.151   5.615  0.3151  0.3965  0.4150
  157SAPE  H12R17451   1.829   4.214   5.603  0.6937  0.0905  1.4897
  157SAPE  C21317452   1.651   4.137   5.490  0.5116 -0.0514  0.6064
  157SAPE  H13R17453   1.662   4.224   5.421  1.2644 -1.5931 -1.2985
  157SAPE  H13S17454   1.541   4.133   5.511  0.7381 -0.8529  1.7532
  157SAPE  C21417455   1.664   4.008   5.415  0.5062 -0.0149 -0.7060
  157SAPE  H14R17456   1.600   3.925   5.450 -0.6319 -0.5243 -3.7404
  157SAPE  C21517457   1.721   3.979   5.299 -0.5587 -0.2511  0.1392
  157SAPE  H15R17458   1.728   3.877   5.258  2.6341 -0.3144  0.6352
  157SAPE  C21617459   1.794   4.082   5.216 -0.3252 -0.0989 -0.2027
  157SAPE  H16R17460   1.775   4.182   5.261 -3.1902 -0.5979 -0.1311
  157SAPE  H16S17461   1.744   4.091   5.118 -1.2007  2.1075  0.3796
  157SAPE  C21717462   1.942   4.049   5.192 -0.8503  0.6600 -0.2145
  157SAPE  H17R17463   1.941   3.955   5.134 -2.7132  1.3002 -1.3366
  157SAPE  H17S17464   1.990   4.038   5.292 -0.3266 -0.9211 -0.6198
  157SAPE  C21817465   2.011   4.162   5.111 -0.5964  0.0577 -0.2929
  157SAPE  H18R17466   1.997   4.261   5.159  0.0022 -0.0465  0.0992
  157SAPE  H18S17467   1.957   4.157   5.014 -0.7018  1.0575 -0.2977
  157SAPE  C21917468   2.158   4.136   5.092 -0.2436  0.2917  0.4616
  157SAPE  H19R17469   2.173   4.031   5.060  2.2210  1.2031 -1.7600
  157SAPE  H19S17470   2.207   4.159   5.190 -0.1945  1.3018  0.2197
  157SAPE  C22017471   2.217   4.233   4.994 -0.2356  0.0281 -0.0134
  157SAPE  H20R17472   2.189   4.337   5.022  0.8445  0.5067 -0.6284
  157SAPE  H20S17473   2.169   4.205   4.898 -0.6632 -2.5119  0.8660
  157SAPE  H20T17474   2.328   4.225   4.983 -0.0328  1.4336  0.7761
  157SAPE   C3317475   2.556   3.884   6.289 -0.1004  0.4133 -0.1755
  157SAPE   H3X17476   2.609   3.949   6.362  3.3969 -0.6074 -1.6155
  157SAPE   H3Y17477   2.457   3.930   6.265 -0.1354  0.8797  0.8235
  157SAPE   C3417478   2.631   3.883   6.155  0.3256 -0.8172 -0.2625
  157SAPE   H4X17479   2.732   3.845   6.179  0.2309 -1.7720 -1.3013
  157SAPE   H4Y17480   2.649   3.986   6.117  0.0919 -1.0778 -1.0985
  157SAPE   C3517481   2.560   3.809   6.040  0.0065  0.3911 -0.6431
  157SAPE   H5X17482   2.467   3.860   6.009 -1.3759 -0.9916  0.9742
  157SAPE   H5Y17483   2.533   3.705   6.070  1.0197  0.6702  1.4001
  157SAPE   C3617484   2.661   3.788   5.918  0.4107 -0.4534 -0.2978
  157SAPE   H6X17485   2.740   3.716   5.945 -1.3387 -2.8147 -1.1762
  157SAPE   H6Y17486   2.717   3.883   5.901 -0.6264 -0.0756 -1.9801
  157SAPE   C3717487   2.582   3.730   5.803  0.0425  0.6128 -0.1931
  157SAPE   H7X17488   2.488   3.789   5.794  0.4807  1.6013  1.3140
  157SAPE   H7Y17489   2.560   3.626   5.835  1.9631  0.4554  0.8012
  157SAPE   C3817490   2.647   3.737   5.666 -0.4320 -0.5160 -0.3055
  157SAPE   H8X17491   2.579   3.682   5.597 -0.8737  0.0258 -0.3154
  157SAPE   H8Y17492   2.744   3.684   5.662 -0.0844  0.0917  0.0132
  157SAPE   C3917493   2.661   3.873   5.600 -0.2451  0.0294 -0.1835
  157SAPE   H9X17494   2.718   3.940   5.668 -0.7830 -1.0585  1.3798
  157SAPE   H9Y17495   2.557   3.912   5.587 -0.9692 -1.7249  0.0979
  157SAPE  C31017496   2.714   3.868   5.457 -0.3884  0.4767  0.5207
  157SAPE  H10X17497   2.802   3.802   5.441 -1.9553 -1.3163 -1.2382
  157SAPE  H10Y17498   2.741   3.972   5.429 -1.0165 -0.0428 -2.2152
  157SAPE  C31117499   2.610   3.813   5.346  0.2151  0.3151  0.0128
  157SAPE  H11X17500   2.511   3.848   5.384 -0.7382 -0.6561 -1.4691
  157SAPE  H11Y17501   2.615   3.703   5.334  0.0002  0.4535 -1.6393
  157SAPE  C31217502   2.619   3.882   5.212  0.0221  0.3034 -0.1383
  157SAPE  H12X17503   2.572   3.813   5.139 -0.6160  1.1793 -0.5684
  157SAPE  H12Y17504   2.729   3.887   5.193  0.3246 -0.6820  1.2229
  157SAPE  C31317505   2.553   4.024   5.210 -0.0657  0.2191  0.2325
  157SAPE  H13X17506   2.614   4.092   5.273 -0.3367  0.9421 -0.2728
  157SAPE  H13Y17507   2.447   4.021   5.244 -0.2011  1.2002 -0.0803
  157SAPE  C31417508   2.553   4.083   5.066  0.1312 -0.3327  0.6056
  157SAPE  H14X17509   2.657   4.081   5.028  0.0239  2.0901 -0.0276
  157SAPE  H14Y17510   2.511   4.186   5.067  0.6017 -0.1421  1.1118
  157SAPE  C31517511   2.490   3.998   4.956 -0.6117  0.1365  0.1314
  157SAPE  H15X17512   2.384   3.989   4.986  0.0495 -0.5620  2.4028
  157SAPE  H15Y17513   2.504   3.888   4.957 -1.5751  0.0150  0.5215
  157SAPE  C31617514   2.502   4.050   4.812 -0.2681 -0.0884  0.1211
  157SAPE  H16X17515   2.612   4.059   4.799  0.0335 -2.7619  0.4023
  157SAPE  H16Y17516   2.452   4.149   4.802 -1.8331 -0.6389  1.8981
  157SAPE  C31717517   2.450   3.944   4.713  1.4200  0.1389  0.3620
  157SAPE  H17X17518   2.430   3.988   4.613  1.2664  0.3821  0.4970
  157SAPE  H17Y17519   2.346   3.931   4.750 -0.4423  2.5984 -3.4164
  157SAPE  C31817520   2.526   3.808   4.702  0.7493 -0.1585  0.0610
  157SAPE  H18X17521   2.631   3.819   4.736  0.2158  0.7555  1.4752
  157SAPE  H18Y17522   2.543   3.791   4.593 -1.0391  5.1925 -1.4022
  157SAPE  H18Z17523   2.480   3.722   4.754 -0.9589  0.4707 -0.3558
  158SAPE     N17524   3.452   2.460   6.681  0.8039 -0.3718  0.1253
  158SAPE   HN117525   3.433   2.367   6.725 -1.2949  0.3164  0.8145
  158SAPE   HN217526   3.539   2.504   6.717  1.8102 -0.0213 -2.4896
  158SAPE   HN317527   3.369   2.516   6.708 -0.0588 -0.3615 -2.3427
  158SAPE   C1217528   3.453   2.453   6.530 -0.1502 -0.1975 -0.5573
  158SAPE  H12A17529   3.357   2.424   6.482 -0.3263  1.2804 -1.1649
  158SAPE  H12B17530   3.525   2.376   6.494  0.1806  0.0766 -0.4892
  158SAPE   C1117531   3.491   2.592   6.477 -0.2245  1.1099 -0.0525
  158SAPE  H11A17532   3.427   2.677   6.510 -0.5684  0.3543  1.3296
  158SAPE  H11B17533   3.472   2.591   6.368 -0.9825  5.3351 -0.1276
  158SAPE     P17534   3.696   2.736   6.422  0.2176 -0.4319  0.3924
  158SAPE   O1317535   3.601   2.850   6.433 -0.2043  0.2899  0.2568
  158SAPE   O1417536   3.838   2.755   6.472  0.1310  0.1737  0.5303
  158SAPE   O1217537   3.632   2.613   6.498 -0.0003 -0.1435 -0.1166
  158SAPE   O1117538   3.695   2.682   6.274  0.3147  0.4803  0.1125
  158SAPE    C117539   3.778   2.585   6.213  0.7829  0.3453  0.3716
  158SAPE    HA17540   3.823   2.616   6.117  1.9657 -1.5224  0.2655
  158SAPE    HB17541   3.858   2.548   6.280 -0.8323 -0.4385  1.9666
  158SAPE    C217542   3.685   2.468   6.167  0.3066  0.0691  0.2436
  158SAPE    HS17543   3.618   2.445   6.252 -1.7165  0.2275 -1.2342
  158SAPE   O2117544   3.774   2.361   6.123  0.1139  0.1864  0.0163
  158SAPE   C2117545   3.712   2.247   6.108 -0.0505  0.2374  0.5161
  158SAPE   O2217546   3.603   2.227   6.165  0.4262 -0.3728  0.4044
  158SAPE   C2217547   3.794   2.147   6.023  0.1265 -0.2898  0.0900
  158SAPE   H2R17548   3.852   2.209   5.952  0.6567 -2.2823 -1.2875
  158SAPE   H2S17549   3.863   2.091   6.091  0.1515 -2.5110 -1.6508
  158SAPE    C317550   3.593   2.536   6.060 -0.3398 -0.3294 -0.6006
  158SAPE    HX17551   3.656   2.566   5.974  0.3311 -2.6282 -0.9974
  158SAPE    HY17552   3.545   2.622   6.111  0.7314 -0.6397  1.0040
  158SAPE   O3117553   3.503   2.443   6.011 -0.7286  0.0664  0.2954
  158SAPE   C3117554   3.375   2.450   6.045  0.5543 -0.6279 -0.3333
  158SAPE   O3217555   3.327   2.532   6.124 -0.2310 -0.2183  0.6058
  158SAPE   C3217556   3.298   2.329   5.994  0.0898  0.1097 -0.3290
  158SAPE   H2X17557   3.274   2.277   6.089  0.3042 -1.7033 -1.2199
  158SAPE   H2Y17558   3.368   2.264   5.936  1.8387  2.0431 -0.5166
  158SAPE   C2317559   3.724   2.028   5.958 -0.0305  0.2560 -0.3041
  158SAPE   H3R17560   3.653   1.985   6.032  2.1398 -0.8598  1.2630
  158SAPE   H3S17561   3.799   1.950   5.932  0.0647 -0.1211  1.0120
  158SAPE   C2417562   3.657   2.066   5.821  0.4714 -0.1111  0.3993
  158SAPE   H4R17563   3.576   2.140   5.838 -0.5600 -0.5640 -2.1423
  158SAPE   H4S17564   3.593   1.983   5.782  0.5190  0.6970 -1.4837
  158SAPE   C2517565   3.755   2.117   5.713  0.1682 -0.4188 -0.2091
  158SAPE   H5R17566   3.819   2.199   5.747 -1.9760  0.8918  0.8363
  158SAPE   C2617567   3.762   2.063   5.589  0.3891 -0.0383 -0.6301
  158SAPE   H6R17568   3.847   2.088   5.524  0.4820 -0.7728 -0.8074
  158SAPE   C2717569   3.681   1.946   5.540  0.4301 -0.3816  0.8491
  158SAPE   H7R17570   3.632   1.886   5.620 -0.3544  1.1830  1.5946
  158SAPE   H7S17571   3.760   1.873   5.511  0.6646 -0.4755  1.6960
  158SAPE   C2817572   3.595   1.966   5.412 -0.4053  0.7677 -0.4761
  158SAPE   H8R17573   3.496   2.008   5.434  0.0398  0.9105  1.4628
  158SAPE   C2917574   3.642   1.961   5.282  0.5781 -0.6273 -0.1471
  158SAPE   H9R17575   3.575   2.004   5.207  1.9178  2.3488  0.2530
  158SAPE  C21017576   3.781   1.927   5.236 -0.4156  0.1313 -0.5203
  158SAPE  H10R17577   3.763   1.854   5.154 -2.4263 -3.1669  2.5326
  158SAPE  H10S17578   3.847   1.862   5.298 -0.8561  0.3647  0.2121
  158SAPE  C21117579   3.859   2.048   5.190 -0.3969  0.1892 -0.6627
  158SAPE  H11R17580   3.931   2.085   5.265 -1.1055  0.9927 -0.3700
  158SAPE  C21217581   3.866   2.100   5.071  0.0486 -0.5488  0.9286
  158SAPE  H12R17582   3.930   2.187   5.047 -0.1438 -0.4600  0.7339
  158SAPE  C21317583   3.785   2.047   4.952 -0.0100 -0.0731 -0.6260
  158SAPE  H13R17584   3.714   1.967   4.982  1.2689 -0.2849  2.1219
  158SAPE  H13S17585   3.855   2.002   4.878  0.1336 -1.8793  0.5436
  158SAPE  C21417586   3.687   2.156   4.901  0.0398  0.2382 -0.2916
  158SAPE  H14R17587   3.594   2.156   4.959  0.2181  1.0054  0.0062
  158SAPE  C21517588   3.701   2.224   4.783 -0.3070  0.7702 -0.5875
  158SAPE  H15R17589   3.623   2.295   4.752  0.8131  2.0649 -0.5750
  158SAPE  C21617590   3.819   2.207   4.690  0.1654  0.0654 -0.3257
  158SAPE  H16R17591   3.888   2.129   4.728 -0.8890 -1.0194 -0.5765
  158SAPE  H16S17592   3.883   2.294   4.664 -0.8699  0.9835  0.1605
  158SAPE  C21717593   3.771   2.159   4.553  0.0180 -0.2196  0.5561
  158SAPE  H17R17594   3.701   2.074   4.562 -0.6895  0.3474  0.4786
  158SAPE  H17S17595   3.862   2.116   4.505 -1.3222  0.6013 -3.0697
  158SAPE  C21817596   3.698   2.248   4.455  0.0492 -0.1668 -1.0650
  158SAPE  H18R17597   3.765   2.336   4.444  0.1975 -0.1458 -0.0919
  158SAPE  H18S17598   3.607   2.299   4.495 -0.1258 -1.0534 -0.3200
  158SAPE  C21917599   3.670   2.178   4.321 -0.2525  0.0042 -0.5447
  158SAPE  H19R17600   3.605   2.090   4.342  0.3733 -0.9829 -2.5238
  158SAPE  H19S17601   3.764   2.132   4.284 -0.1545 -0.8631  0.7158
  158SAPE  C22017602   3.615   2.270   4.213 -0.3417 -0.5382  0.1783
  158SAPE  H20R17603   3.536   2.338   4.251 -0.5223 -1.2723  1.1670
  158SAPE  H20S17604   3.585   2.203   4.129  0.8540 -0.4046 -0.3637
  158SAPE  H20T17605   3.692   2.339   4.173 -0.0855 -1.5119 -1.1075
  158SAPE   C3317606   3.182   2.363   5.900  0.1540  0.1241  0.4193
  158SAPE   H3X17607   3.129   2.451   5.941  1.7400  1.0054  0.6621
  158SAPE   H3Y17608   3.117   2.273   5.906 -0.4862  0.6067  0.8901
  158SAPE   C3417609   3.221   2.393   5.756  0.0763  0.1246 -0.0442
  158SAPE   H4X17610   3.300   2.318   5.733  1.4869  1.3327  0.6440
  158SAPE   H4Y17611   3.264   2.496   5.756 -2.2684  1.1881  1.0690
  158SAPE   C3517612   3.108   2.375   5.655 -0.6046  0.4484 -0.0982
  158SAPE   H5X17613   3.010   2.414   5.692 -0.7662 -0.4648  0.4516
  158SAPE   H5Y17614   3.091   2.269   5.627  2.1054  0.0011 -0.3012
  158SAPE   C3617615   3.134   2.432   5.514  0.8760 -0.3393 -0.4822
  158SAPE   H6X17616   3.238   2.406   5.485  1.1966 -0.7156  0.9381
  158SAPE   H6Y17617   3.136   2.542   5.527  0.9333 -0.5194  1.2675
  158SAPE   C3717618   3.039   2.401   5.401 -0.6077 -0.1501  0.2165
  158SAPE   H7X17619   2.932   2.426   5.420 -0.2895  3.7189 -1.9843
  158SAPE   H7Y17620   3.043   2.294   5.372 -0.5019  0.6725 -3.1801
  158SAPE   C3817621   3.078   2.467   5.269  0.1161  0.7838 -1.0085
  158SAPE   H8X17622   3.047   2.395   5.190  2.4441 -0.2754 -1.0260
  158SAPE   H8Y17623   3.188   2.473   5.259  0.1642 -0.3386 -1.2516
  158SAPE   C3917624   3.003   2.598   5.255  0.7197  0.4993  0.2363
  158SAPE   H9X17625   3.030   2.656   5.346  0.2961 -2.6935  2.5667
  158SAPE   H9Y17626   2.893   2.582   5.259  0.6923  0.9949  2.6583
  158SAPE  C31017627   3.047   2.668   5.127 -0.5234 -0.4536 -0.5861
  158SAPE  H10X17628   3.157   2.682   5.128 -0.6324  1.1845  3.2702
  158SAPE  H10Y17629   3.002   2.769   5.123  1.4367  0.4376 -1.8905
  158SAPE  C31117630   3.012   2.595   4.999 -0.3684  0.1615  0.6905
  158SAPE  H11X17631   2.904   2.572   4.984 -0.9021  1.5931  2.1169
  158SAPE  H11Y17632   3.061   2.495   5.007  0.6384  0.6669  1.0230
  158SAPE  C31217633   3.060   2.674   4.872 -0.1179 -0.1893  0.7228
  158SAPE  H12X17634   3.166   2.701   4.887  0.2147  0.0601 -1.6754
  158SAPE  H12Y17635   2.996   2.764   4.865  2.9524  1.9769 -2.8394
  158SAPE  C31317636   3.074   2.595   4.741 -0.0896 -0.0678 -0.7463
  158SAPE  H13X17637   2.976   2.543   4.739  0.6377 -1.9364  2.8024
  158SAPE  H13Y17638   3.137   2.503   4.745  0.0815  0.0547  3.1001
  158SAPE  C31417639   3.099   2.695   4.625  0.3944  0.5531 -0.0253
  158SAPE  H14X17640   3.200   2.735   4.645  0.7115 -0.0884 -0.3134
  158SAPE  H14Y17641   3.021   2.772   4.642  1.0761  0.8577  1.9594
  158SAPE  C31517642   3.091   2.634   4.485 -0.5564 -0.7583 -0.2517
  158SAPE  H15X17643   3.109   2.723   4.421  0.1218 -0.4082  0.4134
  158SAPE  H15Y17644   2.985   2.603   4.475 -0.9487  0.0258  1.3080
  158SAPE  C31617645   3.177   2.506   4.459 -0.0245  0.0540 -1.0692
  158SAPE  H16X17646   3.156   2.416   4.521  3.1723  0.2011  0.3907
  158SAPE  H16Y17647   3.280   2.532   4.491  1.0775 -2.6669 -2.0479
  158SAPE  C31717648   3.187   2.471   4.308 -0.1032  0.4716  0.6617
  158SAPE  H17X17649   3.233   2.561   4.264 -0.0037  0.2588  0.3328
  158SAPE  H17Y17650   3.082   2.462   4.274  0.5506  1.9714 -2.0181
  158SAPE  C31817651   3.245   2.335   4.280 -0.1485 -0.7466  0.6351
  158SAPE  H18X17652   3.274   2.322   4.173 -1.7501  2.4523 -0.3094
  158SAPE  H18Y17653   3.164   2.260   4.291 -1.3288 -0.2437 -3.1213
  158SAPE  H18Z17654   3.320   2.312   4.359  1.1583  0.8952 -0.0546
  159SAPE     N17655   1.155   0.809   2.160  0.7883  0.9714 -0.1536
  159SAPE   HN117656   1.242   0.816   2.104 -0.8839 -1.1744 -3.2930
  159SAPE   HN217657   1.174   0.717   2.203 -2.8424 -0.4295 -1.2136
  159SAPE   HN317658   1.081   0.806   2.087  1.2425  0.4845 -0.6028
  159SAPE   C1217659   1.148   0.908   2.265  0.1454  0.0713 -0.0658
  159SAPE  H12A17660   1.238   0.972   2.263  0.1458  0.0492 -0.8921
  159SAPE  H12B17661   1.138   0.859   2.365 -0.5911  0.0986 -0.1211
  159SAPE   C1117662   1.020   0.994   2.246  0.1872  0.0821 -0.0434
  159SAPE  H11A17663   1.028   1.076   2.320 -0.5580 -0.0050  0.1434
  159SAPE  H11B17664   0.944   0.916   2.269 -0.8914  1.0993 -0.0503
  159SAPE     P17665   1.083   1.168   2.055  0.1097 -0.1706  0.2884
  159SAPE   O1317666   1.229   1.137   2.029 -0.4665  0.2632  0.3300
  159SAPE   O1417667   1.001   1.207   1.939  0.4113 -0.0585 -0.1934
  159SAPE   O1217668   1.006   1.040   2.108 -0.2829  0.0072  0.3909
  159SAPE   O1117669   1.057   1.257   2.178 -0.3391 -0.2698 -0.4902
  159SAPE    C117670   0.991   1.385   2.154  0.0525 -0.2556 -0.6351
  159SAPE    HA17671   1.064   1.466   2.136  0.1556 -0.1562  0.1999
  159SAPE    HB17672   0.921   1.374   2.068 -2.0853 -3.1216  1.2593
  159SAPE    C217673   0.904   1.427   2.278 -0.4062 -0.2215 -0.7348
  159SAPE    HS17674   0.846   1.519   2.258  1.3901  1.3708  0.9507
  159SAPE   O2117675   1.001   1.453   2.381 -0.3067 -0.0706  0.3535
  159SAPE   C2117676   1.026   1.586   2.405 -0.3669 -0.3142 -0.0338
  159SAPE   O2217677   1.006   1.676   2.329 -0.0444  0.4021 -0.1571
  159SAPE   C2217678   1.074   1.603   2.549  0.6964 -0.3997  0.1647
  159SAPE   H2R17679   1.000   1.544   2.606 -0.7224 -0.6108 -1.7681
  159SAPE   H2S17680   1.167   1.544   2.558  1.2743  0.3205 -0.7394
  159SAPE    C317681   0.803   1.308   2.314  0.4283 -0.1377 -0.3626
  159SAPE    HX17682   0.856   1.211   2.310  0.7418 -0.0224  0.5841
  159SAPE    HY17683   0.731   1.313   2.230  0.5834 -3.1306 -0.7886
  159SAPE   O3117684   0.737   1.328   2.440  0.2237  0.3036 -0.1448
  159SAPE   C3117685   0.617   1.254   2.448  1.0329  0.3018  0.3479
  159SAPE   O3217686   0.587   1.162   2.374 -0.2909 -0.3650  0.6033
  159SAPE   C3217687   0.537   1.297   2.571 -0.3751  0.4608  0.0612
  159SAPE   H2X17688   0.434   1.319   2.535 -0.0443  1.8996 -0.0392
  159SAPE   H2Y17689   0.585   1.387   2.614 -1.3663 -0.0801  2.4718
  159SAPE   C2317690   1.110   1.745   2.597  0.4171  0.5044 -0.6822
  159SAPE   H3R17691   1.026   1.813   2.623 -0.8824 -1.1386 -0.3814
  159SAPE   H3S17692   1.160   1.795   2.511  1.9543  0.7222  0.2896
  159SAPE   C2417693   1.223   1.753   2.711  0.0040  0.4119 -0.1896
  159SAPE   H4R17694   1.279   1.849   2.708 -0.8550  0.9223 -0.2439
  159SAPE   H4S17695   1.301   1.676   2.694  0.7122  0.4367  2.4262
  159SAPE   C2517696   1.155   1.730   2.840  0.1230 -1.0590 -0.1454
  159SAPE   H5R17697   1.092   1.640   2.844 -0.2444 -0.7716  0.7827
  159SAPE   C2617698   1.168   1.802   2.954  0.3164 -0.8056  0.0799
  159SAPE   H6R17699   1.118   1.770   3.046  1.4741  1.4321  1.6035
  159SAPE   C2717700   1.249   1.927   2.994  0.8317 -1.0696 -0.0449
  159SAPE   H7R17701   1.295   1.977   2.906 -1.2591  1.4808  0.2093
  159SAPE   H7S17702   1.326   1.902   3.071  1.8189  2.9582  0.4902
  159SAPE   C2817703   1.163   2.039   3.050 -0.4116 -0.0088 -0.0178
  159SAPE   H8R17704   1.067   2.037   2.996 -0.7933 -0.5657  0.6646
  159SAPE   C2917705   1.181   2.116   3.157  0.2573  0.2011  0.0422
  159SAPE   H9R17706   1.100   2.189   3.174  1.9167  1.7358  1.6707
  159SAPE  C21017707   1.300   2.123   3.250  0.7842 -0.1991 -0.1058
  159SAPE  H10R17708   1.343   2.023   3.271 -1.7944 -1.2049  0.7509
  159SAPE  H10S17709   1.255   2.147   3.348 -2.6535 -1.0818 -1.3218
  159SAPE  C21117710   1.418   2.206   3.216 -0.1604  0.1059 -0.8806
  159SAPE  H11R17711   1.421   2.265   3.123 -0.0515  0.2323 -0.7959
  159SAPE  C21217712   1.531   2.219   3.290 -0.6917 -0.0156 -0.0647
  159SAPE  H12R17713   1.615   2.271   3.241  0.9525 -1.5231  0.9935
  159SAPE  C21317714   1.555   2.172   3.429  0.7447  0.3463  0.8147
  159SAPE  H13R17715   1.660   2.137   3.437  1.3328  1.9132  0.3670
  159SAPE  H13S17716   1.492   2.082   3.444  1.5376 -0.4249 -0.3398
  159SAPE  C21417717   1.540   2.265   3.540 -0.0532  0.8442 -0.4977
  159SAPE  H14R17718   1.469   2.347   3.523  0.4274  1.7111  1.4262
  159SAPE  C21517719   1.619   2.271   3.651 -0.2341  0.3335  0.4907
  159SAPE  H15R17720   1.589   2.344   3.727  0.4677  0.5604  0.5575
  159SAPE  C21617721   1.747   2.193   3.687  0.3979  0.1917  0.3710
  159SAPE  H16R17722   1.827   2.269   3.693  1.1337 -0.3941 -1.3408
  159SAPE  H16S17723   1.787   2.125   3.609  1.5748 -0.6667  1.6899
  159SAPE  C21717724   1.741   2.123   3.824  0.1658 -0.7363  0.3925
  159SAPE  H17R17725   1.665   2.044   3.804  0.7897 -1.2569  0.0501
  159SAPE  H17S17726   1.714   2.190   3.909  0.4937  1.0476 -0.8511
  159SAPE  C21817727   1.866   2.054   3.858  0.0763  0.2873  0.0491
  159SAPE  H18R17728   1.953   2.122   3.868 -0.7728  1.5645 -0.8998
  159SAPE  H18S17729   1.895   1.986   3.776  0.4852  1.4683 -0.8057
  159SAPE  C21917730   1.854   1.964   3.985  0.6717  0.3344  0.0312
  159SAPE  H19R17731   1.767   1.896   3.978 -0.9799  2.3125  0.4687
  159SAPE  H19S17732   1.835   2.030   4.072 -1.5229 -2.2708  1.6841
  159SAPE  C22017733   1.987   1.896   4.018  0.6343 -0.1961  0.5929
  159SAPE  H20R17734   1.962   1.838   4.109 -0.5758  1.7654  1.5698
  159SAPE  H20S17735   2.071   1.964   4.045 -0.3109  0.5875  1.6450
  159SAPE  H20T17736   2.019   1.825   3.938 -0.9363 -0.4064  0.1167
  159SAPE   C3317737   0.533   1.186   2.681 -0.2131 -0.2108 -0.1674
  159SAPE   H3X17738   0.483   1.099   2.634  1.1497 -1.9981  1.5273
  159SAPE   H3Y17739   0.469   1.227   2.762  0.3433  2.4016 -0.9487
  159SAPE   C3417740   0.671   1.150   2.734  0.0909  0.2400 -0.1814
  159SAPE   H4X17741   0.720   1.244   2.769 -0.0224 -0.0313  0.7188
  159SAPE   H4Y17742   0.741   1.113   2.655  1.0871 -1.6454  1.4968
  159SAPE   C3517743   0.698   1.046   2.848  0.1529 -0.0479 -0.0740
  159SAPE   H5X17744   0.804   1.058   2.880 -0.7040 -0.8986  3.5258
  159SAPE   H5Y17745   0.672   0.941   2.823 -2.8839  0.6934 -0.4616
  159SAPE   C3617746   0.607   1.055   2.976  0.0844 -0.3725  0.2191
  159SAPE   H6X17747   0.509   1.014   2.944 -0.5754  0.0986  1.5704
  159SAPE   H6Y17748   0.588   1.163   2.992 -1.3812 -0.6828  0.7149
  159SAPE   C3717749   0.651   0.967   3.087  0.2027  0.3071 -0.4513
  159SAPE   H7X17750   0.741   1.013   3.134 -0.9412  1.9841  0.1882
  159SAPE   H7Y17751   0.677   0.867   3.048 -0.2416 -0.0977  0.2784
  159SAPE   C3817752   0.537   0.959   3.198 -0.3736 -0.4523  0.4555
  159SAPE   H8X17753   0.571   0.876   3.263 -0.9514 -0.3669  0.8676
  159SAPE   H8Y17754   0.441   0.923   3.157 -0.6400 -2.1503  2.4118
  159SAPE   C3917755   0.504   1.080   3.290  0.5685  0.0639 -0.3516
  159SAPE   H9X17756   0.410   1.059   3.346  0.0397 -0.4375 -1.4014
  159SAPE   H9Y17757   0.495   1.173   3.231 -1.4791  0.9020  1.1470
  159SAPE  C31017758   0.621   1.105   3.391  0.8459 -0.0474  0.5278
  159SAPE  H10X17759   0.629   1.208   3.431  1.9578  0.6710 -1.4245
  159SAPE  H10Y17760   0.721   1.086   3.347  0.2968 -2.9383  0.3501
  159SAPE  C31117761   0.602   1.027   3.520  0.2567  0.6733 -0.1727
  159SAPE  H11X17762   0.678   0.947   3.534 -0.7946 -0.2301  0.5780
  159SAPE  H11Y17763   0.503   0.976   3.510  1.0818 -0.6727 -2.2823
  159SAPE  C31217764   0.610   1.107   3.651  0.3035 -0.0686  0.4865
  159SAPE  H12X17765   0.530   1.184   3.653  1.1658  0.8426  0.6535
  159SAPE  H12Y17766   0.708   1.158   3.651  1.3920 -2.0288  1.1599
  159SAPE  C31317767   0.611   1.015   3.779  0.0813 -0.2399  0.7806
  159SAPE  H13X17768   0.643   1.069   3.870 -0.8301  0.4734  0.6950
  159SAPE  H13Y17769   0.691   0.941   3.757 -1.8259 -2.5355  1.1820
  159SAPE  C31417770   0.469   0.956   3.803 -0.0658  0.3905  0.2124
  159SAPE  H14X17771   0.460   0.872   3.731 -1.1999  0.3172  0.4226
  159SAPE  H14Y17772   0.401   1.038   3.771  1.9291  2.0414 -0.0798
  159SAPE  C31517773   0.438   0.919   3.947 -0.1076  0.4621 -0.0705
  159SAPE  H15X17774   0.424   1.014   4.002  0.5116 -0.7865  2.3937
  159SAPE  H15Y17775   0.536   0.880   3.985  0.3774 -0.0249 -1.7423
  159SAPE  C31617776   0.335   0.810   3.963  0.6960  0.3808  0.1356
  159SAPE  H16X17777   0.360   0.727   3.893  1.3237  0.9644 -0.3542
  159SAPE  H16Y17778   0.237   0.850   3.932  0.7404  0.6401  0.3329
  159SAPE  C31717779   0.329   0.758   4.111 -0.2388  0.0531  0.6000
  159SAPE  H17X17780   0.319   0.852   4.170 -0.2495  0.7221 -0.4414
  159SAPE  H17Y17781   0.427   0.720   4.148  0.2834  1.4460  0.7267
  159SAPE  C31817782   0.216   0.658   4.139 -0.2822 -0.1156  0.4137
  159SAPE  H18X17783   0.221   0.573   4.068 -0.5477  0.0010  0.2535
  159SAPE  H18Y17784   0.118   0.706   4.115  1.6519  2.0805 -4.3149
  159SAPE  H18Z17785   0.224   0.628   4.246 -1.8105 -1.9022  0.0811
  160SAPE     N17786   5.954   6.324   2.355 -0.4562 -0.1516 -0.5387
  160SAPE   HN117787   6.004   6.413   2.332  0.1998 -0.4559 -0.3129
  160SAPE   HN217788   5.866   6.316   2.300 -1.3867  0.8844  0.7323
  160SAPE   HN317789   5.916   6.321   2.452  0.0474 -0.0922 -0.3398
  160SAPE   C1217790   6.051   6.215   2.327 -0.1314 -0.0999  0.2709
  160SAPE  H12A17791   6.003   6.116   2.310  0.3061 -0.1496 -0.7230
  160SAPE  H12B17792   6.117   6.215   2.416 -0.5625 -0.7747  0.6014
  160SAPE   C1117793   6.129   6.245   2.194 -0.0260 -0.1188 -0.3736
  160SAPE  H11A17794   6.152   6.354   2.189  0.0875 -0.1776 -1.4997
  160SAPE  H11B17795   6.059   6.219   2.111 -3.2244  1.1635  1.6931
  160SAPE     P17796   6.373   6.236   2.114  0.1393 -0.5524  0.0857
  160SAPE   O1317797   6.459   6.121   2.095 -0.4531 -0.5930  0.0931
  160SAPE   O1417798   6.350   6.318   1.990 -0.1967  0.8293  0.6316
  160SAPE   O1217799   6.247   6.167   2.180  0.2122  0.7051  0.4444
  160SAPE   O1117800   6.432   6.332   2.223  0.5269  0.1563  0.3224
  160SAPE    C117801   6.483   6.281   2.346 -0.3656  0.2456  0.4961
  160SAPE    HA17802   6.423   6.199   2.391 -0.0236 -1.3445 -1.7785
  160SAPE    HB17803   6.588   6.247   2.329  0.4461  2.3483  0.9849
  160SAPE    C217804   6.511   6.388   2.458  0.2824  0.1643  0.8737
  160SAPE    HS17805   6.539   6.476   2.398  0.1793  1.8009  3.0913
  160SAPE   O2117806   6.615   6.336   2.549 -0.0639 -0.1851 -0.0119
  160SAPE   C2117807   6.689   6.431   2.595  0.2848  0.4313  0.3897
  160SAPE   O2217808   6.670   6.549   2.572  0.1123 -0.0339 -0.6945
  160SAPE   C2217809   6.796   6.372   2.687  0.4026 -0.1797 -0.0964
  160SAPE   H2R17810   6.790   6.429   2.782 -0.9701 -0.4296 -0.0080
  160SAPE   H2S17811   6.762   6.273   2.724  1.8998 -0.8235 -0.3645
  160SAPE    C317812   6.376   6.435   2.525 -0.6034  0.6876 -0.2564
  160SAPE    HX17813   6.311   6.468   2.441 -3.1978 -2.6053  0.2340
  160SAPE    HY17814   6.412   6.525   2.578 -0.0667  1.3701 -1.7299
  160SAPE   O3117815   6.308   6.333   2.602 -0.1402 -1.1628  0.0260
  160SAPE   C3117816   6.336   6.332   2.728  0.5334 -0.0835 -0.1012
  160SAPE   O3217817   6.419   6.400   2.786 -0.1876  0.5059 -0.2406
  160SAPE   C3217818   6.231   6.249   2.801  0.5290  1.2633 -0.4148
  160SAPE   H2X17819   6.278   6.164   2.855 -0.9672  1.2417  0.9203
  160SAPE   H2Y17820   6.165   6.208   2.721  1.6133  1.2225 -1.3161
  160SAPE   C2317821   6.931   6.368   2.612  0.2651  0.2428 -0.2869
  160SAPE   H3R17822   6.914   6.346   2.505 -0.0349  0.4909 -0.2921
  160SAPE   H3S17823   6.997   6.289   2.654  1.0589  2.1235  2.2600
  160SAPE   C2417824   7.002   6.501   2.625 -0.1978 -0.2890  0.2575
  160SAPE   H4R17825   7.040   6.509   2.729  0.5358 -2.7995  0.2545
  160SAPE   H4S17826   6.929   6.584   2.614  0.0079 -0.3076 -1.4646
  160SAPE   C2517827   7.102   6.505   2.518  0.3652  0.5779 -0.8084
  160SAPE   H5R17828   7.057   6.472   2.423 -1.7079 -0.4184  0.4716
  160SAPE   C2617829   7.234   6.527   2.543  0.0989 -0.1027 -0.2999
  160SAPE   H6R17830   7.299   6.534   2.455 -2.5866  2.6408 -2.2963
  160SAPE   C2717831   7.295   6.569   2.673 -0.0835  0.0056  0.0008
  160SAPE   H7R17832   7.297   6.478   2.737  2.9910  1.1798  1.8110
  160SAPE   H7S17833   7.226   6.644   2.717  0.4943 -0.3795  1.6420
  160SAPE   C2817834   7.438   6.632   2.670 -0.3128  0.4791  0.0216
  160SAPE   H8R17835   7.460   6.682   2.574 -1.3086  1.7480  0.4267
  160SAPE   C2917836   7.524   6.661   2.769  0.3060 -0.7048  0.0112
  160SAPE   H9R17837   7.622   6.700   2.737 -0.1098 -0.7135 -1.3568
  160SAPE  C21017838   7.507   6.622   2.912  0.0418  0.0353  0.0429
  160SAPE  H10R17839   7.399   6.636   2.933  0.1431 -0.1573  0.7299
  160SAPE  H10S17840   7.576   6.682   2.976  1.2499 -0.5351 -0.6813
  160SAPE  C21117841   7.533   6.472   2.939 -0.2986 -0.3198 -0.5550
  160SAPE  H11R17842   7.522   6.410   2.849 -1.7985 -1.2987  0.2577
  160SAPE  C21217843   7.567   6.406   3.053 -0.8437  0.2720 -0.4094
  160SAPE  H12R17844   7.572   6.297   3.039 -3.1170  0.0031  0.4121
  160SAPE  C21317845   7.591   6.461   3.193 -0.7072 -0.6268  0.5161
  160SAPE  H13R17846   7.573   6.571   3.195  1.4615 -0.1033 -2.5115
  160SAPE  H13S17847   7.696   6.458   3.230  0.1461  1.5005 -1.4625
  160SAPE  C21417848   7.497   6.390   3.293  0.3886 -0.7285  0.1930
  160SAPE  H14R17849   7.534   6.292   3.326 -0.4189 -1.3447 -0.6791
  160SAPE  C21517850   7.370   6.426   3.322  0.5026 -0.4291 -0.3605
  160SAPE  H15R17851   7.307   6.367   3.391  1.0336  0.3227  0.8114
  160SAPE  C21617852   7.308   6.552   3.278 -0.4315 -0.0102 -0.2889
  160SAPE  H16R17853   7.383   6.633   3.265  1.7187 -1.5970  1.2796
  160SAPE  H16S17854   7.244   6.576   3.366  0.5487  0.3983  0.3396
  160SAPE  C21717855   7.216   6.545   3.159 -0.1450  0.2298  0.2565
  160SAPE  H17R17856   7.271   6.507   3.070 -0.5317  0.5536 -0.1251
  160SAPE  H17S17857   7.191   6.648   3.126  0.0334  0.7080  1.5596
  160SAPE  C21817858   7.082   6.473   3.174  0.6083  0.4195  0.0350
  160SAPE  H18R17859   7.029   6.507   3.266  0.6785  0.5320  0.0334
  160SAPE  H18S17860   7.120   6.371   3.195 -0.6144  0.6120  3.8388
  160SAPE  C21917861   6.981   6.481   3.058  0.1368 -0.5083 -0.7948
  160SAPE  H19R17862   7.035   6.454   2.965 -0.5309  2.8376 -2.3300
  160SAPE  H19S17863   6.953   6.587   3.042 -1.3609 -0.6115  0.8761
  160SAPE  C22017864   6.856   6.398   3.078  0.0388  0.5090  0.2431
  160SAPE  H20R17865   6.882   6.292   3.096  0.2475 -0.0390 -2.9075
  160SAPE  H20S17866   6.787   6.396   2.992 -0.6142 -2.6278  0.7173
  160SAPE  H20T17867   6.797   6.441   3.163 -0.1124  0.2057  0.2918
  160SAPE   C3317868   6.158   6.338   2.906 -0.5070  0.3487  1.3914
  160SAPE   H3X17869   6.104   6.408   2.840  0.1531 -0.4381 -0.0212
  160SAPE   H3Y17870   6.234   6.392   2.968  0.4478  0.4201  0.1945
  160SAPE   C3417871   6.069   6.273   3.003  0.0846  0.4842  0.0602
  160SAPE   H4X17872   6.113   6.188   3.061  1.8246  0.0739 -1.7620
  160SAPE   H4Y17873   5.996   6.224   2.935  1.1255  1.0962 -1.5407
  160SAPE   C3517874   5.999   6.375   3.093  0.1008 -0.5731  0.3940
  160SAPE   H5X17875   5.901   6.332   3.124 -1.3449  1.3997 -1.1757
  160SAPE   H5Y17876   5.973   6.464   3.032  0.4103 -2.1053 -2.1220
  160SAPE   C3617877   6.073   6.427   3.215  0.6278  0.2601 -0.0842
  160SAPE   H6X17878   6.154   6.493   3.176  0.7314 -0.4575 -1.1335
  160SAPE   H6Y17879   6.116   6.341   3.271 -1.0054 -0.0568  0.7270
  160SAPE   C3717880   5.987   6.514   3.309  0.5463  0.4396 -0.0090
  160SAPE   H7X17881   5.928   6.589   3.252 -0.7512 -0.2780  0.3476
  160SAPE   H7Y17882   6.060   6.564   3.376 -0.6712  4.3203 -1.3132
  160SAPE   C3817883   5.886   6.434   3.389 -0.3471  0.5233 -0.3435
  160SAPE   H8X17884   5.935   6.382   3.474 -1.6089 -0.3483 -0.1328
  160SAPE   H8Y17885   5.834   6.354   3.332  3.0775 -1.3751 -1.1314
  160SAPE   C3917886   5.778   6.529   3.449 -0.7705 -0.1463  0.2599
  160SAPE   H9X17887   5.695   6.474   3.498 -3.4590  2.4868 -1.0336
  160SAPE   H9Y17888   5.738   6.591   3.366 -0.5013  0.3202  0.4755
  160SAPE  C31017889   5.841   6.633   3.547  0.7035  0.2253 -0.1462
  160SAPE  H10X17890   5.765   6.714   3.545 -1.3912 -1.6640 -0.1920
  160SAPE  H10Y17891   5.937   6.684   3.524  1.0505 -0.2458  0.2527
  160SAPE  C31117892   5.865   6.580   3.688 -0.1661  0.1138  0.4009
  160SAPE  H11X17893   5.901   6.475   3.678  0.7266  0.1685  2.5391
  160SAPE  H11Y17894   5.774   6.579   3.752  0.2118  0.4076  0.9465
  160SAPE  C31217895   5.978   6.657   3.755 -0.2274  0.1721  0.1353
  160SAPE  H12X17896   5.942   6.759   3.781 -0.7274  1.0755 -3.5765
  160SAPE  H12Y17897   6.060   6.667   3.681 -1.0670  0.5567 -0.7633
  160SAPE  C31317898   6.034   6.589   3.887 -0.9888 -0.2048  0.1377
  160SAPE  H13X17899   6.137   6.630   3.893  0.5888 -3.7943  0.2123
  160SAPE  H13Y17900   6.035   6.479   3.873  4.2444 -0.3809  0.0356
  160SAPE  C31417901   5.953   6.602   4.017 -0.0700  0.1403 -0.2781
  160SAPE  H14X17902   5.844   6.605   3.991  0.0705 -1.5922 -1.2183
  160SAPE  H14Y17903   5.978   6.707   4.043  1.9254  0.2056 -2.1971
  160SAPE  C31517904   5.978   6.499   4.132  0.2717  0.0932 -0.1799
  160SAPE  H15X17905   5.961   6.545   4.232 -1.1932  0.8964 -0.7657
  160SAPE  H15Y17906   6.088   6.483   4.128  0.3060 -0.0738  0.9623
  160SAPE  C31617907   5.895   6.373   4.124  0.1338 -0.2394 -0.0276
  160SAPE  H16X17908   5.934   6.312   4.040 -0.0285 -0.0855 -0.2152
  160SAPE  H16Y17909   5.786   6.395   4.115  0.0088 -0.5262  0.7482
  160SAPE  C31717910   5.889   6.272   4.246  0.6964 -0.2285  0.2695
  160SAPE  H17X17911   5.814   6.193   4.228  2.3786 -1.4518 -1.8886
  160SAPE  H17Y17912   5.853   6.336   4.330 -0.4026 -1.9198  1.1404
  160SAPE  C31817913   6.018   6.200   4.294 -0.4746  0.0169  0.3462
  160SAPE  H18X17914   6.072   6.147   4.213 -1.6174 -0.5481 -0.0821
  160SAPE  H18Y17915   5.998   6.122   4.372  0.5076 -0.4786  0.1127
  160SAPE  H18Z17916   6.093   6.272   4.333  0.9572 -1.5273  0.5592
  161SAPE     N17917   6.501   2.128   1.844 -0.2702  0.1071 -0.2711
  161SAPE   HN117918   6.564   2.106   1.764 -2.5288 -3.0535 -1.3785
  161SAPE   HN217919   6.448   2.042   1.868 -1.7878  0.3597 -2.4719
  161SAPE   HN317920   6.436   2.201   1.808  0.6839  1.4744  0.6373
  161SAPE   C1217921   6.596   2.188   1.949  0.0545  0.0821  0.4318
  161SAPE  H12A17922   6.663   2.249   1.885 -0.7161 -1.2761 -1.7810
  161SAPE  H12B17923   6.663   2.109   1.989  0.9140  0.8979  0.6321
  161SAPE   C1117924   6.516   2.271   2.047 -0.6308  0.4157  0.1367
  161SAPE  H11A17925   6.575   2.258   2.141  1.5267 -3.0876 -1.5202
  161SAPE  H11B17926   6.418   2.228   2.075  0.3655 -1.0081  1.6743
  161SAPE     P17927   6.426   2.515   2.103 -0.1848  0.3430  0.1637
  161SAPE   O1317928   6.452   2.645   2.043  0.9780  0.0420 -0.3513
  161SAPE   O1417929   6.280   2.486   2.132  0.1714  0.1518 -0.1903
  161SAPE   O1217930   6.503   2.408   2.012 -0.4357 -0.2874 -0.3247
  161SAPE   O1117931   6.499   2.505   2.241  0.3100  0.3528 -0.5056
  161SAPE    C117932   6.632   2.552   2.242  0.1932  0.0661 -0.2355
  161SAPE    HA17933   6.695   2.539   2.151  0.7069  1.0493 -0.0369
  161SAPE    HB17934   6.625   2.662   2.253 -2.6768 -0.1689  1.0351
  161SAPE    C217935   6.727   2.473   2.343  0.0996 -0.4289  0.3080
  161SAPE    HS17936   6.728   2.370   2.303  2.0676  0.0984 -1.1379
  161SAPE   O2117937   6.680   2.476   2.481 -1.1158  0.3206 -0.1798
  161SAPE   C2117938   6.747   2.383   2.561  1.1837 -0.5232  0.2551
  161SAPE   O2217939   6.824   2.304   2.513  0.2608  0.3979  0.1005
  161SAPE   C2217940   6.705   2.401   2.706 -0.4599 -0.1779 -0.1019
  161SAPE   H2R17941   6.631   2.482   2.720  1.1093  1.2924  0.0020
  161SAPE   H2S17942   6.651   2.307   2.730 -2.3623  0.8003 -0.3645
  161SAPE    C317943   6.881   2.529   2.328  0.1153  0.7526  0.3274
  161SAPE    HX17944   6.894   2.514   2.219  0.1896 -0.7583  0.5275
  161SAPE    HY17945   6.947   2.466   2.391  1.4081  0.4288 -1.2990
  161SAPE   O3117946   6.885   2.666   2.355 -0.0997 -0.3162 -0.2761
  161SAPE   C3117947   6.906   2.698   2.487  0.0133  0.4094  0.4690
  161SAPE   O3217948   6.923   2.616   2.574 -0.0639 -0.3168 -0.0695
  161SAPE   C3217949   6.907   2.856   2.500  0.8692 -0.2682 -0.1411
  161SAPE   H2X17950   6.837   2.884   2.419 -0.9690  0.9550  1.7617
  161SAPE   H2Y17951   7.006   2.901   2.477  0.1741  0.0501 -2.8055
  161SAPE   C2317952   6.825   2.427   2.806  0.2931  0.0644 -0.0059
  161SAPE   H3R17953   6.859   2.532   2.797  0.1181 -0.0098 -5.6091
  161SAPE   H3S17954   6.913   2.370   2.769  0.6994  1.5120 -1.3461
  161SAPE   C2417955   6.803   2.390   2.953 -0.1759  0.1892  0.3935
  161SAPE   H4R17956   6.883   2.442   3.008  0.9743 -2.1326  1.0693
  161SAPE   H4S17957   6.815   2.280   2.967  0.3783  0.1963 -0.0157
  161SAPE   C2517958   6.669   2.438   3.005  0.5890  0.2823  0.4729
  161SAPE   H5R17959   6.618   2.502   2.931  0.6662 -0.5955 -0.3642
  161SAPE   C2617960   6.612   2.395   3.119  0.0226 -0.0986 -0.3374
  161SAPE   H6R17961   6.511   2.438   3.132 -0.5347 -0.9464 -1.5973
  161SAPE   C2717962   6.671   2.310   3.219  0.4916  0.2688 -0.0945
  161SAPE   H7R17963   6.740   2.235   3.173  0.2851 -1.2748  1.9756
  161SAPE   H7S17964   6.589   2.247   3.259 -0.2466  1.7258  0.7720
  161SAPE   C2817965   6.721   2.385   3.342  0.3790  0.1662 -0.3906
  161SAPE   H8R17966   6.740   2.492   3.326  1.4051 -0.2308 -2.0345
  161SAPE   C2917967   6.735   2.339   3.465  0.0440 -0.5816  0.8470
  161SAPE   H9R17968   6.774   2.416   3.534 -0.1269  0.3405 -0.0656
  161SAPE  C21017969   6.722   2.199   3.514  0.2100  0.0198 -0.7266
  161SAPE  H10R17970   6.809   2.163   3.573 -0.8886  0.4026  1.2374
  161SAPE  H10S17971   6.712   2.130   3.428  0.4408 -1.5052  0.4256
  161SAPE  C21117972   6.596   2.168   3.586  1.1501  0.4596  0.3798
  161SAPE  H11R17973   6.506   2.216   3.545  0.3130 -1.3466  0.0029
  161SAPE  C21217974   6.565   2.096   3.694 -0.2735  0.2607  0.0750
  161SAPE  H12R17975   6.463   2.082   3.733  0.3773  0.2883  1.9095
  161SAPE  C21317976   6.667   2.028   3.787 -1.0004 -0.7742  0.4369
  161SAPE  H13R17977   6.751   1.987   3.727 -1.6689 -1.8243  0.1867
  161SAPE  H13S17978   6.632   1.930   3.827 -1.6797 -1.1171 -0.9342
  161SAPE  C21417979   6.712   2.123   3.900  0.7376 -0.1663 -0.3513
  161SAPE  H14R17980   6.741   2.223   3.865 -0.1520  0.2701  0.1112
  161SAPE  C21517981   6.727   2.098   4.032  0.3559 -0.2662 -0.1148
  161SAPE  H15R17982   6.762   2.181   4.095  1.4372 -0.1370 -0.8538
  161SAPE  C21617983   6.707   1.970   4.104  0.6106 -0.3426  0.0102
  161SAPE  H16R17984   6.694   1.891   4.027  0.3344 -1.0672  0.7724
  161SAPE  H16S17985   6.610   1.967   4.159 -0.0252  0.6790 -1.0235
  161SAPE  C21717986   6.828   1.937   4.194 -0.7014  0.3412 -0.1193
  161SAPE  H17R17987   6.836   2.024   4.262  0.1163  1.7281 -1.9174
  161SAPE  H17S17988   6.928   1.924   4.147 -0.9013 -1.1079 -0.1889
  161SAPE  C21817989   6.801   1.806   4.276 -0.1264  0.1183 -0.3826
  161SAPE  H18R17990   6.693   1.779   4.289  0.3802 -0.9646  2.4561
  161SAPE  H18S17991   6.823   1.823   4.384  1.0513 -3.9405  0.1873
  161SAPE  C21917992   6.889   1.686   4.244 -0.1031  0.4058 -0.0612
  161SAPE  H19R17993   6.989   1.693   4.290 -0.8305  3.2283  1.3185
  161SAPE  H19S17994   6.915   1.687   4.136  1.6198 -0.3955  0.3218
  161SAPE  C22017995   6.816   1.554   4.270  0.0839  0.3470 -0.1463
  161SAPE  H20R17996   6.751   1.518   4.188 -0.3999 -2.2218  1.2846
  161SAPE  H20S17997   6.744   1.557   4.355  0.2971  2.7298  0.0404
  161SAPE  H20T17998   6.895   1.477   4.285  0.9625  0.9782 -1.3155
  161SAPE   C3317999   6.872   2.900   2.640 -0.0203 -0.0214 -0.5058
  161SAPE   H3X18000   6.885   3.010   2.654  0.1660  0.0025 -0.8677
  161SAPE   H3Y18001   6.939   2.858   2.718  0.0870 -0.1851 -0.6859
  161SAPE   C3418002   6.720   2.880   2.682 -0.1992 -0.4292  0.1182
  161SAPE   H4X18003   6.696   2.771   2.683 -1.9587 -0.0696  0.2623
  161SAPE   H4Y18004   6.649   2.927   2.610  1.5123 -0.2175 -1.5165
  161SAPE   C3518005   6.677   2.937   2.817  0.1212 -0.2183  0.1621
  161SAPE   H5X18006   6.566   2.933   2.822  0.1417 -0.4521  0.4438
  161SAPE   H5Y18007   6.705   3.043   2.833  1.7635 -0.4940 -0.6828
  161SAPE   C3618008   6.730   2.851   2.937 -0.5796 -0.3287  0.6247
  161SAPE   H6X18009   6.840   2.864   2.938 -0.5822 -0.1148 -0.3874
  161SAPE   H6Y18010   6.720   2.742   2.916 -3.0510 -0.0183 -0.0856
  161SAPE   C3718011   6.654   2.886   3.065 -0.4158  0.6594  0.1699
  161SAPE   H7X18012   6.549   2.900   3.030  0.1267  2.0600 -1.0368
  161SAPE   H7Y18013   6.704   2.978   3.101 -1.9456  2.0142 -1.0080
  161SAPE   C3818014   6.667   2.774   3.170 -0.5054  0.0270 -0.2279
  161SAPE   H8X18015   6.775   2.768   3.193 -0.2787  0.4823 -1.1012
  161SAPE   H8Y18016   6.632   2.676   3.132 -1.9677  0.3198  0.2958
  161SAPE   C3918017   6.586   2.808   3.294  0.1803  0.7493  0.4516
  161SAPE   H9X18018   6.553   2.713   3.339 -1.6291  1.3863  0.5609
  161SAPE   H9Y18019   6.491   2.863   3.274  0.2075  0.5966 -0.1189
  161SAPE  C31018020   6.675   2.888   3.388  0.1844  0.1918 -0.1462
  161SAPE  H10X18021   6.674   2.994   3.353 -0.8404  0.6468  1.1651
  161SAPE  H10Y18022   6.774   2.838   3.391 -0.0626 -0.2697  0.2673
  161SAPE  C31118023   6.618   2.865   3.528 -0.0756  0.6005 -0.6156
  161SAPE  H11X18024   6.513   2.902   3.531  0.1614  1.2395  1.0130
  161SAPE  H11Y18025   6.674   2.941   3.587  0.4581  0.1209 -0.4934
  161SAPE  C31218026   6.647   2.725   3.584 -0.2993  0.3640 -0.1962
  161SAPE  H12X18027   6.750   2.709   3.545 -0.0055  0.5318  0.5048
  161SAPE  H12Y18028   6.576   2.648   3.546 -0.8468  0.4758  0.5756
  161SAPE  C31318029   6.643   2.715   3.737  0.4528 -0.5464  0.4199
  161SAPE  H13X18030   6.544   2.754   3.771 -0.5303 -0.3645 -2.3976
  161SAPE  H13Y18031   6.713   2.795   3.768 -1.1057  0.5335  1.3268
  161SAPE  C31418032   6.665   2.579   3.799  0.4732  0.0075  0.5687
  161SAPE  H14X18033   6.763   2.537   3.768 -0.1937  0.0408 -1.7294
  161SAPE  H14Y18034   6.582   2.510   3.770  0.0541 -0.2347  2.2234
  161SAPE  C31518035   6.664   2.572   3.955  0.6054 -1.0400 -0.1687
  161SAPE  H15X18036   6.637   2.474   3.999  0.4032  0.0513  2.3676
  161SAPE  H15Y18037   6.593   2.648   3.995  2.7790  0.8684  0.2864
  161SAPE  C31618038   6.796   2.619   4.027  0.0492  0.0698 -0.3426
  161SAPE  H16X18039   6.813   2.727   4.007 -0.4110  0.2137  0.0279
  161SAPE  H16Y18040   6.872   2.556   3.976 -1.0278 -0.5078 -1.2853
  161SAPE  C31718041   6.806   2.585   4.174  0.4529  0.6064  0.2800
  161SAPE  H17X18042   6.897   2.632   4.218  0.0593  1.4984  0.1715
  161SAPE  H17Y18043   6.825   2.476   4.178  0.3669  0.5769 -0.0858
  161SAPE  C31818044   6.683   2.612   4.265  0.3219  0.0335 -0.5652
  161SAPE  H18X18045   6.685   2.550   4.357 -2.3578  0.6083 -0.0267
  161SAPE  H18Y18046   6.598   2.566   4.210 -0.0119 -0.5944  0.4522
  161SAPE  H18Z18047   6.664   2.719   4.288  1.4190 -0.4398  3.1795
  162SAPE     N18048   5.189   4.666   2.646 -0.4895  0.1813  0.0053
  162SAPE   HN118049   5.220   4.725   2.725 -1.3702  2.3971 -1.1990
  162SAPE   HN218050   5.123   4.590   2.675 -2.6963  1.6641 -0.8342
  162SAPE   HN318051   5.270   4.633   2.590 -0.4535  0.7881 -0.3079
  162SAPE   C1218052   5.106   4.746   2.553  0.2109  0.1666  0.0669
  162SAPE  H12A18053   5.118   4.704   2.451  0.0737 -1.9416  0.8722
  162SAPE  H12B18054   5.142   4.851   2.553  1.5517 -0.2008  2.3561
  162SAPE   C1118055   4.955   4.749   2.585  0.0082  0.0325 -0.3176
  162SAPE  H11A18056   4.897   4.824   2.527 -1.1260 -0.8395 -0.3406
  162SAPE  H11B18057   4.945   4.790   2.688  4.5405  3.4981 -0.9192
  162SAPE     P18058   4.890   4.497   2.649 -0.2486 -0.4461 -0.0854
  162SAPE   O1318059   4.822   4.390   2.570 -0.3601  0.2349 -0.2635
  162SAPE   O1418060   5.025   4.473   2.705  0.4528  0.3675 -0.3773
  162SAPE   O1218061   4.905   4.620   2.553 -0.1601 -0.1582 -0.5912
  162SAPE   O1118062   4.793   4.545   2.768  0.0983  0.0718  0.5498
  162SAPE    C118063   4.663   4.606   2.740  0.6658  0.1303 -0.5275
  162SAPE    HA18064   4.682   4.714   2.723  0.1215  0.1735 -0.8709
  162SAPE    HB18065   4.621   4.568   2.644  1.0683  0.1247 -0.7057
  162SAPE    C218066   4.566   4.565   2.852  0.0227 -0.8310  0.4312
  162SAPE    HS18067   4.465   4.607   2.831 -0.7658 -2.7808  0.0953
  162SAPE   O2118068   4.626   4.603   2.977  0.8436 -0.1964  0.1557
  162SAPE   C2118069   4.628   4.731   2.990 -0.0209 -0.5246 -0.1054
  162SAPE   O2218070   4.580   4.815   2.919  0.3469  0.2570 -0.3270
  162SAPE   C2218071   4.696   4.749   3.130  0.8158  0.0973 -0.4873
  162SAPE   H2R18072   4.648   4.682   3.205 -1.0109  1.0675 -0.7297
  162SAPE   H2S18073   4.802   4.720   3.114  0.7481 -0.7450  0.4768
  162SAPE    C318074   4.543   4.412   2.841  0.8869  0.9415  0.8494
  162SAPE    HX18075   4.635   4.362   2.878  0.1787 -0.7760  0.3661
  162SAPE    HY18076   4.537   4.386   2.734 -0.2797  1.8135  0.6822
  162SAPE   O3118077   4.438   4.371   2.929 -0.2426 -0.1945  0.3091
  162SAPE   C3118078   4.323   4.351   2.869  0.6914  0.5498  0.0245
  162SAPE   O3218079   4.306   4.347   2.750 -0.2765  0.2633  0.1567
  162SAPE   C3218080   4.218   4.329   2.981 -0.3118  0.4323  0.6910
  162SAPE   H2X18081   4.204   4.428   3.029 -0.9745 -0.3547  2.1808
  162SAPE   H2Y18082   4.264   4.253   3.047  0.7992  0.3073 -0.1995
  162SAPE   C2318083   4.698   4.894   3.190  0.1193 -0.2783  0.7053
  162SAPE   H3R18084   4.719   4.959   3.102  1.3420 -0.6975  0.6656
  162SAPE   H3S18085   4.788   4.909   3.254  3.4835 -0.4006 -3.5500
  162SAPE   C2418086   4.585   4.935   3.276  1.3694  0.4133 -0.5055
  162SAPE   H4R18087   4.594   5.043   3.298  1.5329  0.2658  0.1761
  162SAPE   H4S18088   4.590   4.895   3.379  1.9370  1.8311  0.0494
  162SAPE   C2518089   4.453   4.904   3.205 -0.9687  0.3201 -0.8350
  162SAPE   H5R18090   4.434   4.968   3.118  0.8326  1.7306 -0.2498
  162SAPE   C2618091   4.361   4.815   3.241  0.0647 -1.1180  0.7056
  162SAPE   H6R18092   4.267   4.814   3.183  0.2804  2.5990  0.0211
  162SAPE   C2718093   4.361   4.715   3.351  0.3471  0.6244 -0.2798
  162SAPE   H7R18094   4.278   4.730   3.424 -0.2418 -2.5360 -0.1306
  162SAPE   H7S18095   4.453   4.726   3.412 -0.2767  0.0762  0.8113
  162SAPE   C2818096   4.363   4.572   3.296 -0.2071 -0.1778  0.0182
  162SAPE   H8R18097   4.416   4.563   3.200 -1.7469  1.4995 -1.0368
  162SAPE   C2918098   4.287   4.469   3.345  0.2074 -0.3281  0.0847
  162SAPE   H9R18099   4.286   4.382   3.279  2.0440 -0.3657  0.0535
  162SAPE  C21018100   4.207   4.474   3.475  0.9297  0.3021  1.0399
  162SAPE  H10R18101   4.110   4.515   3.438  1.4888 -1.3206 -2.7845
  162SAPE  H10S18102   4.249   4.550   3.545 -0.2427 -1.5731  3.9258
  162SAPE  C21118103   4.170   4.342   3.534  0.3352  0.1729  0.0276
  162SAPE  H11R18104   4.086   4.292   3.483  1.4767  0.6118 -2.3935
  162SAPE  C21218105   4.211   4.303   3.654  0.6908 -0.1677  0.3839
  162SAPE  H12R18106   4.165   4.213   3.697 -2.2561  1.1359  0.2354
  162SAPE  C21318107   4.307   4.364   3.753 -0.6312  0.4890  0.2208
  162SAPE  H13R18108   4.251   4.393   3.844  0.9394 -1.3158  1.8596
  162SAPE  H13S18109   4.350   4.448   3.695 -1.0318 -0.0698 -0.9148
  162SAPE  C21418110   4.415   4.264   3.783 -1.0992  0.2650 -0.1493
  162SAPE  H14R18111   4.475   4.239   3.695  0.2689  3.2639 -0.1690
  162SAPE  C21518112   4.437   4.200   3.898 -0.4926  0.1771 -0.2224
  162SAPE  H15R18113   4.519   4.127   3.896  0.7530  1.5357 -0.5723
  162SAPE  C21618114   4.362   4.209   4.027 -0.6778  0.1162  0.0096
  162SAPE  H16R18115   4.292   4.123   4.031  0.2196 -0.6460 -0.4279
  162SAPE  H16S18116   4.308   4.305   4.013 -1.5121 -0.5468 -1.6661
  162SAPE  C21718117   4.443   4.210   4.162 -0.0287 -0.3134  0.1254
  162SAPE  H17R18118   4.512   4.296   4.169 -0.8329  0.2556  1.5930
  162SAPE  H17S18119   4.512   4.123   4.162  0.9197  0.4017  1.6942
  162SAPE  C21818120   4.358   4.220   4.287 -0.3245  1.3180  0.4226
  162SAPE  H18R18121   4.282   4.139   4.280  1.1680 -0.3626  2.5801
  162SAPE  H18S18122   4.305   4.317   4.292 -2.0075  0.5745 -1.3751
  162SAPE  C21918123   4.446   4.197   4.404  0.2494 -0.4950  0.4553
  162SAPE  H19R18124   4.510   4.288   4.406 -1.4204  0.7070  1.7250
  162SAPE  H19S18125   4.506   4.105   4.388 -0.3778 -0.9378  0.6091
  162SAPE  C22018126   4.364   4.183   4.529  0.1726 -0.0051  0.4694
  162SAPE  H20R18127   4.305   4.276   4.542 -1.0634 -0.9520  1.9203
  162SAPE  H20S18128   4.441   4.176   4.609 -1.7023 -2.5249  2.2018
  162SAPE  H20T18129   4.301   4.093   4.514  0.4896 -0.2023  0.3041
  162SAPE   C3318130   4.080   4.284   2.922 -0.5404  0.1449 -0.0310
  162SAPE   H3X18131   4.091   4.178   2.888 -1.1236  0.7148 -2.0823
  162SAPE   H3Y18132   4.044   4.339   2.833 -2.3580 -2.4909 -1.0570
  162SAPE   C3418133   3.967   4.295   3.022  0.0398 -0.4897  0.5121
  162SAPE   H4X18134   3.877   4.241   2.986  0.0138  0.0990 -0.3508
  162SAPE   H4Y18135   3.943   4.404   3.028 -0.4596 -0.4422 -1.5071
  162SAPE   C3518136   3.983   4.233   3.160  1.1185  0.4079  0.3640
  162SAPE   H5X18137   4.047   4.294   3.229 -1.8397  2.3796  1.5821
  162SAPE   H5Y18138   4.030   4.134   3.146 -2.3237 -1.1864 -0.9223
  162SAPE   C3618139   3.844   4.194   3.221 -0.2120  0.3557 -0.2753
  162SAPE   H6X18140   3.862   4.119   3.301 -2.1322 -0.4595 -0.5581
  162SAPE   H6Y18141   3.788   4.136   3.145 -0.9136 -0.5773  0.9120
  162SAPE   C3718142   3.770   4.322   3.276 -0.4270 -0.5883  0.8654
  162SAPE   H7X18143   3.731   4.381   3.191  0.8912 -0.4375  0.3462
  162SAPE   H7Y18144   3.850   4.387   3.317  0.9128 -2.4384  1.3499
  162SAPE   C3818145   3.670   4.308   3.383  0.9244 -0.0911 -0.2641
  162SAPE   H8X18146   3.581   4.270   3.328  0.7050 -1.5313  1.0361
  162SAPE   H8Y18147   3.639   4.408   3.420  2.0805 -0.4725  1.8650
  162SAPE   C3918148   3.724   4.237   3.508  0.2461 -0.7304  0.0117
  162SAPE   H9X18149   3.818   4.295   3.519 -0.3215  0.5134 -1.2978
  162SAPE   H9Y18150   3.760   4.135   3.484  2.2610  0.0023 -0.2483
  162SAPE  C31018151   3.619   4.224   3.622 -0.5648 -0.2651 -0.4311
  162SAPE  H10X18152   3.534   4.164   3.582 -2.0216  2.0542 -0.9940
  162SAPE  H10Y18153   3.586   4.325   3.654  0.4695 -1.1777  4.0911
  162SAPE  C31118154   3.672   4.149   3.750  0.5776 -0.1908  0.4697
  162SAPE  H11X18155   3.770   4.192   3.780  0.9215  0.0483 -0.9225
  162SAPE  H11Y18156   3.684   4.042   3.723 -2.5983 -0.8561  1.2221
  162SAPE  C31218157   3.581   4.149   3.873  0.3681 -0.0782 -0.4769
  162SAPE  H12X18158   3.487   4.095   3.846  1.7217 -2.7866 -0.0631
  162SAPE  H12Y18159   3.551   4.251   3.906 -1.7914 -0.0119 -2.3319
  162SAPE  C31318160   3.640   4.059   3.986 -0.2765  0.8852 -0.0090
  162SAPE  H13X18161   3.741   4.101   4.007 -0.7368  1.2491  1.5916
  162SAPE  H13Y18162   3.656   3.955   3.951 -0.1161 -0.2940  3.3052
  162SAPE  C31418163   3.572   4.050   4.119  0.5988 -0.0026  0.4968
  162SAPE  H14X18164   3.620   3.977   4.187  3.7481 -0.1240 -1.6358
  162SAPE  H14Y18165   3.470   4.009   4.102  0.6267  0.1300 -0.0061
  162SAPE  C31518166   3.553   4.184   4.187 -0.1768 -0.1652 -0.3458
  162SAPE  H15X18167   3.470   4.236   4.135 -2.2426 -0.3493  2.5165
  162SAPE  H15Y18168   3.647   4.242   4.193 -1.7101  2.2640  2.9457
  162SAPE  C31618169   3.510   4.155   4.331  0.6587 -0.1110 -0.0785
  162SAPE  H16X18170   3.602   4.111   4.373  0.6640 -0.7325 -0.7271
  162SAPE  H16Y18171   3.421   4.089   4.338  0.8818 -0.3413  0.6482
  162SAPE  C31718172   3.492   4.289   4.403  0.2018 -0.0088 -0.8095
  162SAPE  H17X18173   3.395   4.333   4.374  0.8627  1.4364 -0.8977
  162SAPE  H17Y18174   3.563   4.364   4.362  0.9226  0.3019  0.9022
  162SAPE  C31818175   3.495   4.277   4.564  0.8363  0.1687 -0.1182
  162SAPE  H18X18176   3.591   4.254   4.614 -0.1111  1.6341  2.5586
  162SAPE  H18Y18177   3.424   4.197   4.592 -0.8064  0.8365 -2.1069
  162SAPE  H18Z18178   3.449   4.372   4.600 -1.9230  0.1704 -3.1408
  163SAPE     N18179   0.476   3.979   2.599  0.7430 -0.7403 -0.0100
  163SAPE   HN118180   0.554   3.999   2.533  0.0924  0.9094 -0.3342
  163SAPE   HN218181   0.410   3.916   2.549 -2.4826  0.6182  2.1680
  163SAPE   HN318182   0.430   4.069   2.623  1.9638 -0.3291  0.8940
  163SAPE   C1218183   0.515   3.902   2.708 -0.3478 -0.3226  0.0472
  163SAPE  H12A18184   0.575   3.969   2.773  1.2721 -1.2599 -0.4357
  163SAPE  H12B18185   0.585   3.827   2.667 -0.2836 -0.6672  0.7810
  163SAPE   C1118186   0.408   3.845   2.797 -1.2080  0.8435 -0.4778
  163SAPE  H11A18187   0.335   3.924   2.825 -1.0970  1.0003 -0.6361
  163SAPE  H11B18188   0.455   3.819   2.895 -2.4470 -0.6030 -0.2256
  163SAPE     P18189   0.224   3.739   2.645 -0.0917 -0.1094  0.0243
  163SAPE   O1318190   0.247   3.861   2.556  0.0562 -0.1460 -0.4342
  163SAPE   O1418191   0.212   3.602   2.582  0.6627 -0.2787 -0.0072
  163SAPE   O1218192   0.352   3.734   2.740 -0.1420  0.1581 -0.3607
  163SAPE   O1118193   0.097   3.770   2.741 -0.1616 -0.7977 -0.0996
  163SAPE    C118194   0.097   3.752   2.883 -0.1568 -0.3387 -0.5442
  163SAPE    HA18195   0.005   3.698   2.914 -0.6281  0.7173 -0.0634
  163SAPE    HB18196   0.188   3.695   2.913  0.3120 -0.0045 -1.2831
  163SAPE    C218197   0.093   3.888   2.951 -0.0636 -0.0890 -0.0669
  163SAPE    HS18198   0.194   3.913   2.989 -0.3246 -0.3801  0.8604
  163SAPE   O2118199  -0.007   3.889   3.058 -0.0392 -0.4455  0.0826
  163SAPE   C2118200   0.024   3.829   3.170  0.4184 -0.3227 -0.0560
  163SAPE   O2218201   0.137   3.797   3.204 -0.0140 -0.2347 -0.5608
  163SAPE   C2218202  -0.091   3.814   3.261 -0.6431  0.6189  0.1316
  163SAPE   H2R18203  -0.134   3.917   3.265  0.2153  1.1158 -2.1140
  163SAPE   H2S18204  -0.166   3.742   3.221 -1.9492  1.2945  1.2598
  163SAPE    C318205   0.052   3.994   2.843 -0.3842 -0.3095  0.4976
  163SAPE    HX18206  -0.042   3.972   2.788 -0.8491  4.1923 -0.9802
  163SAPE    HY18207   0.131   3.999   2.765 -1.2470 -2.0450 -0.5418
  163SAPE   O3118208   0.028   4.122   2.902  0.2380  0.2629  0.0661
  163SAPE   C3118209   0.129   4.201   2.917 -0.2106  0.4639 -0.6311
  163SAPE   O3218210   0.241   4.184   2.868 -0.6213 -0.6889 -0.0284
  163SAPE   C3218211   0.104   4.327   2.996  0.6623  0.3688 -0.3713
  163SAPE   H2X18212   0.054   4.388   2.917 -2.2748 -0.6826  0.5771
  163SAPE   H2Y18213   0.201   4.373   3.024  0.5696  1.3066 -1.4733
  163SAPE   C2318214  -0.051   3.771   3.407 -0.2229  0.5039  0.1286
  163SAPE   H3R18215   0.004   3.854   3.458  1.7598 -1.9746  2.3438
  163SAPE   H3S18216   0.022   3.688   3.399  1.3128  1.5794  2.0149
  163SAPE   C2418217  -0.180   3.734   3.489  0.3515 -0.3795  0.3967
  163SAPE   H4R18218  -0.240   3.647   3.453  2.1224 -0.8060 -1.7289
  163SAPE   H4S18219  -0.254   3.816   3.480  0.3206 -0.5751 -1.4670
  163SAPE   C2518220  -0.129   3.707   3.628 -0.6982  0.1235  0.7712
  163SAPE   H5R18221  -0.053   3.627   3.635  2.8263  3.1823  0.5779
  163SAPE   C2618222  -0.143   3.777   3.743  0.2843  0.2850  0.3992
  163SAPE   H6R18223  -0.092   3.743   3.834 -0.6670  1.1497  1.2795
  163SAPE   C2718224  -0.225   3.901   3.761 -0.1370  0.3890  0.5374
  163SAPE   H7R18225  -0.330   3.872   3.783  0.1813 -0.2916  1.2223
  163SAPE   H7S18226  -0.220   3.967   3.672  3.2546  1.1602  1.1414
  163SAPE   C2818227  -0.172   3.987   3.875 -0.5747 -0.1068  0.0181
  163SAPE   H8R18228  -0.135   4.084   3.839  1.4572 -1.1429 -0.8018
  163SAPE   C2918229  -0.163   3.957   4.005 -0.3467 -0.6930  0.4313
  163SAPE   H9R18230  -0.127   4.037   4.072  1.3068 -0.2356 -0.9475
  163SAPE  C21018231  -0.216   3.836   4.071 -0.4821  0.1989  0.3155
  163SAPE  H10R18232  -0.267   3.766   4.002 -0.8999  0.3882  0.4317
  163SAPE  H10S18233  -0.288   3.864   4.151 -0.5644  0.4294  0.1612
  163SAPE  C21118234  -0.108   3.743   4.124  0.0339  0.4700  0.4054
  163SAPE  H11R18235  -0.008   3.749   4.077  0.5614 -0.6528  1.3245
  163SAPE  C21218236  -0.133   3.652   4.227 -0.9559 -0.3662 -0.5204
  163SAPE  H12R18237  -0.046   3.615   4.283 -0.4859  1.2021 -0.1760
  163SAPE  C21318238  -0.257   3.620   4.309 -0.0978 -0.2456  0.3473
  163SAPE  H13R18239  -0.345   3.653   4.249  0.0069 -2.7981 -1.3764
  163SAPE  H13S18240  -0.259   3.686   4.398  2.4297 -0.2026  0.4465
  163SAPE  C21418241  -0.268   3.472   4.332 -0.2871  0.3629  0.0513
  163SAPE  H14R18242  -0.180   3.417   4.297  1.0061  1.3132  1.6856
  163SAPE  C21518243  -0.375   3.409   4.374 -0.1534 -0.2743 -0.1984
  163SAPE  H15R18244  -0.371   3.301   4.392  2.3484  0.1218  2.2722
  163SAPE  C21618245  -0.504   3.473   4.406  0.3392  0.3852  0.2642
  163SAPE  H16R18246  -0.495   3.581   4.380 -0.5376  0.8412  1.7876
  163SAPE  H16S18247  -0.524   3.465   4.514  0.3898  1.3071  0.3447
  163SAPE  C21718248  -0.612   3.412   4.311 -0.0649  0.3134 -0.3009
  163SAPE  H17R18249  -0.577   3.402   4.206 -0.2848 -0.4029 -0.3094
  163SAPE  H17S18250  -0.710   3.462   4.326 -0.7796 -1.0112 -0.3635
  163SAPE  C21818251  -0.656   3.270   4.343  0.1379  0.2985 -0.0811
  163SAPE  H18R18252  -0.671   3.264   4.453 -2.6874  2.0347 -0.2705
  163SAPE  H18S18253  -0.582   3.197   4.304 -2.5876 -0.8797 -3.6684
  163SAPE  C21918254  -0.796   3.236   4.278  0.0072  0.3412 -0.3323
  163SAPE  H19R18255  -0.792   3.265   4.171  1.7427 -0.5711 -0.5535
  163SAPE  H19S18256  -0.872   3.298   4.330  0.2178 -1.2263  2.0468
  163SAPE  C22018257  -0.833   3.088   4.288 -0.1213 -0.3524 -0.1664
  163SAPE  H20R18258  -0.745   3.025   4.260  0.3326  0.4393 -0.5472
  163SAPE  H20S18259  -0.918   3.060   4.223  0.2946 -0.3876 -0.7072
  163SAPE  H20T18260  -0.852   3.070   4.396  1.4561  0.3957  0.2655
  163SAPE   C3318261   0.009   4.298   3.118  0.4139 -0.1548 -0.4904
  163SAPE   H3X18262  -0.062   4.217   3.095  2.4744 -1.8619 -1.1977
  163SAPE   H3Y18263  -0.046   4.387   3.156 -1.9059 -2.0437  0.7850
  163SAPE   C3418264   0.102   4.254   3.235  0.3800 -0.0255 -0.2399
  163SAPE   H4X18265   0.178   4.333   3.255  1.8664 -1.3883 -0.3330
  163SAPE   H4Y18266   0.159   4.164   3.203  1.4007  0.5211 -0.0080
  163SAPE   C3518267   0.027   4.216   3.370 -0.4855  0.6818 -0.4079
  163SAPE   H5X18268   0.113   4.189   3.435  0.0946 -0.7901 -1.7176
  163SAPE   H5Y18269  -0.039   4.129   3.351  1.1216 -0.2491 -2.0798
  163SAPE   C3618270  -0.046   4.327   3.436 -0.5372  0.2025  0.0467
  163SAPE   H6X18271  -0.155   4.320   3.413 -0.4260  0.0740 -0.4539
  163SAPE   H6Y18272  -0.007   4.425   3.399  1.4596 -1.0136 -1.2375
  163SAPE   C3718273  -0.031   4.320   3.589 -0.3668 -0.3455 -0.0020
  163SAPE   H7X18274   0.074   4.346   3.614 -0.7863  0.1504  1.3692
  163SAPE   H7Y18275  -0.036   4.216   3.627 -0.3074 -0.2392  0.3025
  163SAPE   C3818276  -0.130   4.418   3.653 -0.0554  0.1183 -0.2776
  163SAPE   H8X18277  -0.234   4.391   3.624 -0.3346  0.6157  0.2385
  163SAPE   H8Y18278  -0.115   4.520   3.612  0.4546  0.5936  1.0381
  163SAPE   C3918279  -0.123   4.429   3.807  0.1194 -0.1008 -0.4740
  163SAPE   H9X18280  -0.125   4.324   3.842 -0.6272  0.4418  1.2283
  163SAPE   H9Y18281  -0.219   4.462   3.853 -1.4371 -0.8081 -3.0007
  163SAPE  C31018282   0.003   4.501   3.863 -0.2298  0.1549 -0.4702
  163SAPE  H10X18283  -0.001   4.605   3.826  1.7579  0.4941  0.1558
  163SAPE  H10Y18284   0.095   4.452   3.825  1.2342  0.4543  2.4065
  163SAPE  C31118285   0.002   4.505   4.022  0.3750 -0.4424  0.1687
  163SAPE  H11X18286   0.107   4.517   4.055  0.7345 -2.0717 -0.2874
  163SAPE  H11Y18287  -0.041   4.408   4.054 -2.3952 -0.1270 -2.1795
  163SAPE  C31218288  -0.073   4.626   4.086 -0.9478  0.0195  0.1424
  163SAPE  H12X18289  -0.175   4.632   4.042 -0.8204 -0.7630 -0.2793
  163SAPE  H12Y18290  -0.023   4.719   4.050 -0.9570  0.1338  0.4178
  163SAPE  C31318291  -0.068   4.638   4.236 -0.0908  0.5363  0.3187
  163SAPE  H13X18292  -0.072   4.743   4.274  2.9266  0.8842 -0.0988
  163SAPE  H13Y18293   0.030   4.599   4.271 -1.2331 -1.1065  1.9155
  163SAPE  C31418294  -0.185   4.565   4.296  0.8820  0.1102  0.3640
  163SAPE  H14X18295  -0.209   4.473   4.238  1.7209 -1.1602  1.9748
  163SAPE  H14Y18296  -0.269   4.637   4.287  1.0998  0.5609  1.7207
  163SAPE  C31518297  -0.166   4.517   4.442  0.1452  0.5961 -0.2911
  163SAPE  H15X18298  -0.064   4.471   4.444 -0.3333 -0.4933 -0.3446
  163SAPE  H15Y18299  -0.239   4.435   4.458  0.3739  0.8119  2.2759
  163SAPE  C31618300  -0.179   4.628   4.548 -0.0492 -0.0041  0.9354
  163SAPE  H16X18301  -0.276   4.673   4.518  0.4831  0.2783 -0.4412
  163SAPE  H16Y18302  -0.105   4.711   4.537  0.9533 -1.1056 -1.4106
  163SAPE  C31718303  -0.192   4.572   4.689 -0.3275 -0.0746  0.9594
  163SAPE  H17X18304  -0.096   4.524   4.718  0.8470 -0.0171 -2.4427
  163SAPE  H17Y18305  -0.277   4.501   4.678 -0.4471  0.1953  0.0300
  163SAPE  C31818306  -0.230   4.678   4.798  0.0038 -0.6277  0.1208
  163SAPE  H18X18307  -0.246   4.637   4.900  0.0658  1.1748  0.9009
  163SAPE  H18Y18308  -0.316   4.740   4.764  0.5526  0.8961  1.3730
  163SAPE  H18Z18309  -0.138   4.739   4.808 -0.2547  0.2474 -2.2624
  164SAPE     N18310   1.456   3.657   1.996  0.2786 -0.1992 -0.0624
  164SAPE   HN118311   1.466   3.601   1.909 -0.7786  0.0498 -0.3649
  164SAPE   HN218312   1.493   3.601   2.076  0.1616  2.0488  1.6641
  164SAPE   HN318313   1.352   3.661   2.004  0.0520 -1.0280 -1.9773
  164SAPE   C1218314   1.524   3.790   1.981 -0.6593 -0.0372 -0.4756
  164SAPE  H12A18315   1.511   3.842   2.079  3.0272  0.2532 -0.0057
  164SAPE  H12B18316   1.472   3.846   1.901 -1.7553  1.7252  1.3714
  164SAPE   C1118317   1.672   3.769   1.952 -0.3886  0.2913 -0.6111
  164SAPE  H11A18318   1.719   3.866   1.921  1.6968  0.3479  2.2549
  164SAPE  H11B18319   1.691   3.695   1.872  1.4944 -1.4514  1.3119
  164SAPE     P18320   1.862   3.795   2.126  0.0646  0.5301 -0.5009
  164SAPE   O1318321   1.924   3.720   2.237  0.3177 -0.0823  0.0873
  164SAPE   O1418322   1.949   3.832   2.014 -0.7461  0.3134 -0.1644
  164SAPE   O1218323   1.735   3.722   2.074  0.2379  0.2699  0.1061
  164SAPE   O1118324   1.813   3.935   2.185 -0.0531 -0.2792 -0.5706
  164SAPE    C118325   1.720   3.945   2.291 -0.3211  0.9767 -0.7130
  164SAPE    HA18326   1.635   4.011   2.263 -0.5947  0.2111 -1.7722
  164SAPE    HB18327   1.671   3.850   2.320  0.2448  0.2440 -2.0639
  164SAPE    C218328   1.784   4.007   2.424  0.1201 -0.1062  0.9972
  164SAPE    HS18329   1.868   3.947   2.465 -0.9301 -1.9696  0.5412
  164SAPE   O2118330   1.676   4.021   2.520  0.1812 -0.3492  0.2235
  164SAPE   C2118331   1.614   3.913   2.573 -0.2001 -0.2059  0.0364
  164SAPE   O2218332   1.652   3.799   2.555  0.0463 -0.1861 -0.1945
  164SAPE   C2218333   1.492   3.963   2.652  0.1181 -1.0447 -0.4188
  164SAPE   H2R18334   1.516   4.054   2.711  0.4951 -1.4919  0.1329
  164SAPE   H2S18335   1.414   3.977   2.574 -0.3105  0.5123  0.2431
  164SAPE    C318336   1.828   4.160   2.399  0.0671 -0.1717 -1.6809
  164SAPE    HX18337   1.743   4.217   2.355 -0.0766 -0.2102 -1.4576
  164SAPE    HY18338   1.921   4.169   2.339  0.8713 -1.1192 -0.6250
  164SAPE   O3118339   1.848   4.231   2.523  0.5653 -0.7454  0.2394
  164SAPE   C3118340   1.934   4.174   2.610  0.3293  1.0278  0.0378
  164SAPE   O3218341   2.014   4.086   2.585 -0.1287 -0.1094 -0.8960
  164SAPE   C3218342   1.916   4.235   2.746  0.0332  0.5755  0.4390
  164SAPE   H2X18343   1.882   4.340   2.731 -1.1247  0.3266  1.2028
  164SAPE   H2Y18344   2.019   4.232   2.787  1.1033 -2.1057 -2.1564
  164SAPE   C2318345   1.438   3.854   2.749 -0.5404  0.7108 -0.1721
  164SAPE   H3R18346   1.398   3.771   2.686 -1.9344  0.9123  0.4092
  164SAPE   H3S18347   1.358   3.901   2.809  0.6120  1.8580  0.5104
  164SAPE   C2418348   1.543   3.796   2.852  0.0678 -0.7826  0.4377
  164SAPE   H4R18349   1.587   3.879   2.911 -0.7009  0.3784 -0.5668
  164SAPE   H4S18350   1.627   3.748   2.797  0.5771 -2.0084  2.1940
  164SAPE   C2518351   1.481   3.691   2.945  0.4978 -0.3461 -0.3910
  164SAPE   H5R18352   1.386   3.671   2.893  1.2112 -0.7984 -1.5663
  164SAPE   C2618353   1.513   3.649   3.069  0.5921 -0.4075  0.5030
  164SAPE   H6R18354   1.449   3.567   3.104 -1.2248 -0.3283 -2.3512
  164SAPE   C2718355   1.637   3.685   3.150 -0.3596 -0.1320 -0.2689
  164SAPE   H7R18356   1.692   3.770   3.104  1.3021 -0.0567  1.7083
  164SAPE   H7S18357   1.708   3.600   3.147 -0.0306  0.1210  0.2225
  164SAPE   C2818358   1.595   3.718   3.292 -0.3714  0.0053  0.0685
  164SAPE   H8R18359   1.515   3.791   3.311  0.3729  0.7163  0.5024
  164SAPE   C2918360   1.635   3.653   3.403  0.3612 -0.2133  0.1089
  164SAPE   H9R18361   1.584   3.667   3.500  0.3019 -0.6421  0.1438
  164SAPE  C21018362   1.751   3.551   3.408 -0.2328 -0.1584 -0.0668
  164SAPE  H10R18363   1.763   3.506   3.307  0.2983  1.6168 -0.8273
  164SAPE  H10S18364   1.729   3.471   3.482  0.0834 -0.7617 -0.6145
  164SAPE  C21118365   1.884   3.615   3.445  0.4760 -0.2602 -0.0251
  164SAPE  H11R18366   1.970   3.612   3.376 -0.0523 -3.1042 -0.6850
  164SAPE  C21218367   1.905   3.653   3.573 -0.1880 -0.3871 -0.0577
  164SAPE  H12R18368   2.004   3.697   3.592 -0.2465  0.2940 -1.2077
  164SAPE  C21318369   1.811   3.639   3.686  0.0168  0.8770 -0.5570
  164SAPE  H13R18370   1.861   3.598   3.777  0.1360  1.2940 -0.4292
  164SAPE  H13S18371   1.725   3.570   3.675  3.1181 -3.6059  0.8957
  164SAPE  C21418372   1.769   3.785   3.713  0.2623 -0.7538  0.1919
  164SAPE  H14R18373   1.717   3.822   3.624 -1.7863 -0.7430  1.3420
  164SAPE  C21518374   1.773   3.858   3.822  0.4596 -0.3823 -0.2976
  164SAPE  H15R18375   1.712   3.948   3.834  1.3969  0.3893 -1.1371
  164SAPE  C21618376   1.824   3.812   3.954  0.3800 -0.6358 -0.6255
  164SAPE  H16R18377   1.913   3.747   3.941 -0.0508 -1.2357 -0.6157
  164SAPE  H16S18378   1.750   3.751   4.009 -0.0812 -0.2053 -0.7536
  164SAPE  C21718379   1.855   3.929   4.047 -0.1529 -0.0115 -0.3973
  164SAPE  H17R18380   1.756   3.976   4.065 -2.1892 -3.9210 -0.1572
  164SAPE  H17S18381   1.934   3.996   4.009  1.2406 -0.8348  0.9066
  164SAPE  C21818382   1.897   3.891   4.191  0.0867  0.2235  0.5481
  164SAPE  H18R18383   1.989   3.830   4.188 -0.3570 -0.6769  2.8283
  164SAPE  H18S18384   1.820   3.823   4.234  0.5420 -0.5188  0.2102
  164SAPE  C21918385   1.909   4.012   4.289  0.2187 -0.4092 -0.2887
  164SAPE  H19R18386   1.814   4.069   4.298 -0.0724 -1.0165  0.5754
  164SAPE  H19S18387   1.986   4.075   4.240 -1.0059  1.7242  0.3979
  164SAPE  C22018388   1.958   3.981   4.436 -0.2336 -0.6536  0.4948
  164SAPE  H20R18389   2.052   3.923   4.438  0.6865  0.7936  2.0828
  164SAPE  H20S18390   1.884   3.924   4.495  0.1774 -1.4278  0.2731
  164SAPE  H20T18391   1.987   4.075   4.489 -1.0477  0.5226 -1.0461
  164SAPE   C3318392   1.816   4.156   2.827 -0.5301 -0.5317  0.3333
  164SAPE   H3X18393   1.869   4.060   2.844  0.6903 -0.1172 -0.9535
  164SAPE   H3Y18394   1.724   4.142   2.767 -1.1407  1.4184  0.7461
  164SAPE   C3418395   1.784   4.219   2.962  0.0229 -0.1124 -0.1864
  164SAPE   H4X18396   1.741   4.320   2.945  0.5156  0.0414 -0.5436
  164SAPE   H4Y18397   1.882   4.252   3.003  0.2784  0.0311 -0.8866
  164SAPE   C3518398   1.714   4.131   3.070  0.4158 -0.6402 -0.1203
  164SAPE   H5X18399   1.782   4.046   3.094  0.5653 -0.5344 -0.1657
  164SAPE   H5Y18400   1.622   4.086   3.028  1.0778 -2.2559  0.0897
  164SAPE   C3618401   1.676   4.188   3.206 -0.7091  0.0535 -0.5906
  164SAPE   H6X18402   1.609   4.274   3.184 -0.6478  0.3138  0.2193
  164SAPE   H6Y18403   1.763   4.224   3.265 -0.9872 -1.3365  0.7132
  164SAPE   C3718404   1.598   4.088   3.300  0.0358 -0.5018  0.2230
  164SAPE   H7X18405   1.637   3.984   3.288  1.3554 -0.2318  1.9018
  164SAPE   H7Y18406   1.493   4.091   3.263  0.5903  0.9590 -1.3828
  164SAPE   C3818407   1.597   4.133   3.448  0.0885  0.4305  0.8924
  164SAPE   H8X18408   1.568   4.240   3.453  0.7095  0.6481  0.0213
  164SAPE   H8Y18409   1.701   4.121   3.485  0.3788  1.6007  0.4912
  164SAPE   C3918410   1.505   4.054   3.546  0.5758  0.3622 -0.0557
  164SAPE   H9X18411   1.530   3.947   3.530  1.5859  0.0696  2.8612
  164SAPE   H9Y18412   1.396   4.051   3.523 -0.4066 -1.5315  3.9437
  164SAPE  C31018413   1.520   4.090   3.686  0.6406 -0.7109 -0.7902
  164SAPE  H10X18414   1.624   4.124   3.703  0.9147 -2.5198  1.6983
  164SAPE  H10Y18415   1.496   3.999   3.744  0.0123 -0.2740 -0.3510
  164SAPE  C31118416   1.415   4.200   3.735 -0.9659 -0.0079  0.8227
  164SAPE  H11X18417   1.314   4.187   3.691 -0.6531 -0.9415  0.3607
  164SAPE  H11Y18418   1.456   4.300   3.709 -0.3782  0.0508  1.9013
  164SAPE  C31218419   1.395   4.201   3.887  0.2553  0.1044 -0.2675
  164SAPE  H12X18420   1.325   4.286   3.900 -0.1433 -0.1428 -0.7327
  164SAPE  H12Y18421   1.485   4.241   3.937 -1.3524  0.2929  2.7003
  164SAPE  C31318422   1.335   4.087   3.957  0.2094  0.7766  0.1483
  164SAPE  H13X18423   1.406   4.002   3.953  1.8242  1.9792  1.7425
  164SAPE  H13Y18424   1.239   4.052   3.912  0.3481 -1.5362  1.4737
  164SAPE  C31418425   1.314   4.107   4.108  0.3794  0.5320  0.0390
  164SAPE  H14X18426   1.256   4.199   4.131  0.5095  0.6158  0.0312
  164SAPE  H14Y18427   1.411   4.124   4.159  0.2565  1.0373  0.1182
  164SAPE  C31518428   1.241   3.987   4.173 -0.1366 -0.1087 -0.0404
  164SAPE  H15X18429   1.272   3.900   4.112 -1.7038 -0.5195 -0.2932
  164SAPE  H15Y18430   1.134   4.007   4.152  0.5630  1.4440 -2.4757
  164SAPE  C31618431   1.268   3.985   4.322 -0.3457 -0.2972 -0.0519
  164SAPE  H16X18432   1.229   4.077   4.371  1.4548  2.6042 -3.5896
  164SAPE  H16Y18433   1.378   3.985   4.343 -0.4959 -2.8133  1.1229
  164SAPE  C31718434   1.200   3.866   4.383  0.1783 -0.5809  0.3711
  164SAPE  H17X18435   1.257   3.771   4.369 -1.2046 -1.1251 -2.2675
  164SAPE  H17Y18436   1.106   3.840   4.330  1.0964  0.3783 -1.8081
  164SAPE  C31818437   1.163   3.895   4.528 -0.3025  0.1641 -0.3953
  164SAPE  H18X18438   1.072   3.957   4.539 -1.1213 -0.9840 -0.4585
  164SAPE  H18Y18439   1.251   3.949   4.569 -1.2251  2.2988 -1.1134
  164SAPE  H18Z18440   1.154   3.803   4.590 -1.3428  0.8633  0.5157
  165SAPE     N18441   6.737   4.742   2.297  0.1642  0.1111 -0.2243
  165SAPE   HN118442   6.659   4.715   2.360  0.2206  2.0778  0.7898
  165SAPE   HN218443   6.767   4.657   2.247 -0.9360 -0.0748 -0.5982
  165SAPE   HN318444   6.815   4.790   2.347 -2.1637  2.0869  1.8327
  165SAPE   C1218445   6.676   4.837   2.201  0.2901 -0.1808  0.1300
  165SAPE  H12A18446   6.626   4.782   2.118  3.1581 -1.4896 -0.8659
  165SAPE  H12B18447   6.765   4.887   2.157  0.4993 -0.6965 -0.0363
  165SAPE   C1118448   6.600   4.947   2.276  0.8657  0.7326 -0.1160
  165SAPE  H11A18449   6.603   5.036   2.210 -2.6997  0.6627 -0.5713
  165SAPE  H11B18450   6.645   4.967   2.375 -0.0801  2.8163 -0.0543
  165SAPE     P18451   6.412   4.809   2.412 -0.2456 -0.2106 -0.5230
  165SAPE   O1318452   6.319   4.700   2.366 -0.0549 -0.0343  0.0341
  165SAPE   O1418453   6.535   4.750   2.469  0.0338  0.0591 -0.2058
  165SAPE   O1218454   6.456   4.905   2.294  0.2429 -0.5507  0.0838
  165SAPE   O1118455   6.339   4.898   2.524  0.1455 -0.2955  0.2205
  165SAPE    C118456   6.335   5.040   2.512 -0.8630  0.3041 -0.7873
  165SAPE    HA18457   6.431   5.080   2.551 -1.6846  1.0851  0.5072
  165SAPE    HB18458   6.333   5.075   2.406 -0.0895  1.2737 -0.4999
  165SAPE    C218459   6.223   5.108   2.587 -0.1655 -0.5276  0.4045
  165SAPE    HS18460   6.227   5.219   2.576 -0.3872 -0.5605 -0.0481
  165SAPE   O2118461   6.235   5.085   2.730  0.0006  0.0875  0.4834
  165SAPE   C2118462   6.343   5.131   2.785 -0.6301  0.9026  0.3801
  165SAPE   O2218463   6.417   5.216   2.739  0.2162  0.4102 -0.0974
  165SAPE   C2218464   6.348   5.066   2.928 -0.0712  0.0762 -0.1723
  165SAPE   H2R18465   6.302   4.965   2.924 -1.0544  0.5370 -0.6802
  165SAPE   H2S18466   6.457   5.058   2.946 -0.2203  0.8161  1.1819
  165SAPE    C318467   6.084   5.062   2.540 -0.0210  0.1774  0.0080
  165SAPE    HX18468   6.088   4.952   2.555 -0.1516  0.1975  0.2023
  165SAPE    HY18469   6.073   5.077   2.431  0.3550 -3.1376 -0.5692
  165SAPE   O3118470   5.979   5.131   2.616  0.2311  0.1519  0.4250
  165SAPE   C3118471   5.936   5.073   2.726 -0.1122 -0.6596  0.2840
  165SAPE   O3218472   5.973   4.966   2.763 -0.0611  0.4432 -0.1355
  165SAPE   C3218473   5.837   5.167   2.798 -0.4507  0.1686  0.9986
  165SAPE   H2X18474   5.754   5.168   2.724  0.5801  1.2376 -0.1820
  165SAPE   H2Y18475   5.893   5.263   2.793  1.6744 -0.9097  2.6123
  165SAPE   C2318476   6.268   5.148   3.038  0.1737  0.4260 -0.3524
  165SAPE   H3R18477   6.221   5.087   3.118 -0.4229  0.6130 -0.5557
  165SAPE   H3S18478   6.186   5.209   2.994 -0.0656  0.6786  0.4327
  165SAPE   C2418479   6.362   5.254   3.106 -0.5143 -0.6839 -0.3594
  165SAPE   H4R18480   6.410   5.305   3.020 -1.8361 -1.4075 -1.5741
  165SAPE   H4S18481   6.448   5.205   3.157  0.1307 -0.2215 -0.9786
  165SAPE   C2518482   6.292   5.352   3.196 -0.1790  0.1790 -0.5851
  165SAPE   H5R18483   6.216   5.412   3.143  0.0485  1.6220  0.6475
  165SAPE   C2618484   6.313   5.376   3.335 -0.1796 -0.1512  1.8457
  165SAPE   H6R18485   6.238   5.442   3.381 -0.7914 -0.3352  1.1244
  165SAPE   C2718486   6.417   5.305   3.416  0.7827  0.7492  0.6439
  165SAPE   H7R18487   6.463   5.220   3.361 -0.2154  1.1644 -0.8987
  165SAPE   H7S18488   6.367   5.255   3.502 -0.8500 -0.8743 -1.1488
  165SAPE   C2818489   6.509   5.409   3.471 -0.2368  0.4200 -0.0533
  165SAPE   H8R18490   6.563   5.446   3.382 -2.6751 -0.7590 -2.1687
  165SAPE   C2918491   6.530   5.446   3.599 -0.5264 -0.2430  0.2821
  165SAPE   H9R18492   6.612   5.518   3.616 -1.7541  1.1758  0.5010
  165SAPE  C21018493   6.474   5.386   3.724  0.2701 -0.3931 -0.3065
  165SAPE  H10R18494   6.531   5.294   3.750 -2.4139 -1.9065  0.6407
  165SAPE  H10S18495   6.371   5.348   3.713  0.2097 -0.5069  0.5814
  165SAPE  C21118496   6.479   5.489   3.836  0.1147  0.6278  0.4786
  165SAPE  H11R18497   6.428   5.579   3.798  0.3076  0.4102 -0.3324
  165SAPE  C21218498   6.536   5.487   3.957 -0.3171  1.0018  0.1129
  165SAPE  H12R18499   6.526   5.579   4.016 -1.2530  0.8458  0.2040
  165SAPE  C21318500   6.629   5.377   4.014  0.0591 -0.6316 -0.6052
  165SAPE  H13R18501   6.729   5.423   4.006 -0.6600  0.9079 -1.2179
  165SAPE  H13S18502   6.616   5.281   3.959 -1.0257 -2.1756  2.1126
  165SAPE  C21418503   6.584   5.349   4.151 -0.6775  0.1429 -0.0012
  165SAPE  H14R18504   6.488   5.296   4.153  0.3738 -2.2827 -3.5382
  165SAPE  C21518505   6.641   5.381   4.267  0.5466  0.1849 -0.0175
  165SAPE  H15R18506   6.585   5.347   4.354  0.0049 -0.6160 -0.6621
  165SAPE  C21618507   6.775   5.449   4.277  0.0747 -0.7359 -0.3903
  165SAPE  H16R18508   6.836   5.427   4.187  0.4381  0.0698 -0.3512
  165SAPE  H16S18509   6.821   5.406   4.369 -1.8041  0.6028  1.2656
  165SAPE  C21718510   6.765   5.609   4.290 -0.2135  1.3182  0.7546
  165SAPE  H17R18511   6.730   5.639   4.391 -0.2192  2.4432  0.4254
  165SAPE  H17S18512   6.684   5.637   4.219  0.1549 -3.4555 -1.9998
  165SAPE  C21818513   6.913   5.656   4.269  0.3712  0.2856 -0.4793
  165SAPE  H18R18514   6.942   5.637   4.164 -0.0718 -1.0982 -0.3630
  165SAPE  H18S18515   6.975   5.602   4.344  0.7109  2.0795  0.5966
  165SAPE  C21918516   6.942   5.802   4.294  0.1866  0.0425 -0.3027
  165SAPE  H19R18517   6.913   5.827   4.398 -0.4391 -2.0649  0.0655
  165SAPE  H19S18518   6.870   5.869   4.243  1.8955  2.6268  0.4834
  165SAPE  C22018519   7.083   5.849   4.277  0.0663  0.1637  0.2266
  165SAPE  H20R18520   7.129   5.799   4.365 -0.9470 -1.6050 -0.1987
  165SAPE  H20S18521   7.099   5.959   4.279  0.5182  0.1173 -0.5427
  165SAPE  H20T18522   7.126   5.805   4.185 -0.2690 -0.0278  0.1605
  165SAPE   C3318523   5.807   5.109   2.937  0.2681 -0.2946  0.4416
  165SAPE   H3X18524   5.903   5.118   2.993 -0.4171  1.2584  1.4222
  165SAPE   H3Y18525   5.773   5.003   2.937  0.8443 -0.4830  0.2953
  165SAPE   C3418526   5.707   5.190   3.012  0.7682  0.5442 -0.7801
  165SAPE   H4X18527   5.608   5.191   2.962 -0.4312  1.9847  1.4706
  165SAPE   H4Y18528   5.738   5.296   3.021 -1.5244  1.3425 -1.7755
  165SAPE   C3518529   5.672   5.129   3.150  0.1112 -0.3419  0.4469
  165SAPE   H5X18530   5.756   5.122   3.222  0.1288 -0.8232  0.3873
  165SAPE   H5Y18531   5.625   5.029   3.138 -2.3346  0.5011  2.2085
  165SAPE   C3618532   5.556   5.205   3.218  0.1851 -0.1103 -0.3445
  165SAPE   H6X18533   5.465   5.170   3.165 -0.3454  1.4081 -0.4877
  165SAPE   H6Y18534   5.574   5.314   3.203  2.4480 -0.5010 -0.8638
  165SAPE   C3718535   5.541   5.177   3.368  0.2585  0.3917 -0.1171
  165SAPE   H7X18536   5.631   5.216   3.420  0.0168 -1.1002  1.5217
  165SAPE   H7Y18537   5.549   5.068   3.384  2.8010  0.3913 -1.0027
  165SAPE   C3818538   5.414   5.233   3.437  0.1875 -0.4221 -0.5890
  165SAPE   H8X18539   5.330   5.174   3.394  0.0191  0.9948 -2.2759
  165SAPE   H8Y18540   5.408   5.341   3.413 -0.8642 -0.5584 -1.0073
  165SAPE   C3918541   5.416   5.216   3.586 -0.3513 -0.6100  0.0951
  165SAPE   H9X18542   5.446   5.110   3.605 -1.7812 -1.2598 -1.0692
  165SAPE   H9Y18543   5.313   5.233   3.624 -0.1595 -0.1723  0.4186
  165SAPE  C31018544   5.510   5.315   3.655  0.0793 -0.8720 -0.6613
  165SAPE  H10X18545   5.489   5.419   3.620 -0.5186 -0.7945 -0.1114
  165SAPE  H10Y18546   5.616   5.300   3.626 -0.1174 -0.4760 -1.6208
  165SAPE  C31118547   5.500   5.314   3.809  0.2005 -0.2920 -0.3080
  165SAPE  H11X18548   5.450   5.405   3.848 -3.6428 -2.5338  0.4899
  165SAPE  H11Y18549   5.606   5.321   3.842  0.2119 -0.2442 -0.3539
  165SAPE  C31218550   5.447   5.185   3.875  0.5418  0.2626 -0.6521
  165SAPE  H12X18551   5.478   5.094   3.820 -0.1485 -1.9093  2.2941
  165SAPE  H12Y18552   5.336   5.182   3.878  0.5174  1.2324 -0.1152
  165SAPE  C31318553   5.501   5.158   4.018 -0.7018 -0.2335 -0.3816
  165SAPE  H13X18554   5.605   5.196   4.032 -0.9110  0.2045 -0.0103
  165SAPE  H13Y18555   5.490   5.051   4.046  1.0644  0.2069  2.4297
  165SAPE  C31418556   5.426   5.233   4.127  0.4453 -0.9851  0.1617
  165SAPE  H14X18557   5.386   5.335   4.106 -0.3902 -1.0473  1.3149
  165SAPE  H14Y18558   5.494   5.248   4.213  0.3820 -0.9483  0.2061
  165SAPE  C31518559   5.293   5.159   4.166  0.2648 -0.1629  0.0370
  165SAPE  H15X18560   5.308   5.052   4.192  0.8144 -0.1821 -0.3592
  165SAPE  H15Y18561   5.230   5.166   4.075  3.1550 -0.0909 -2.1090
  165SAPE  C31618562   5.222   5.212   4.290  0.0532 -0.3913 -0.2985
  165SAPE  H16X18563   5.148   5.134   4.320 -0.3506 -0.0925 -0.5184
  165SAPE  H16Y18564   5.166   5.301   4.254  3.9839  2.4289 -0.0565
  165SAPE  C31718565   5.296   5.272   4.400 -0.0013  0.0742  0.3960
  165SAPE  H17X18566   5.319   5.377   4.371 -1.2360  0.4511  0.7038
  165SAPE  H17Y18567   5.399   5.233   4.417  0.6176  0.9388 -1.1567
  165SAPE  C31818568   5.221   5.277   4.525  0.6527  0.3399 -0.5648
  165SAPE  H18X18569   5.162   5.186   4.546  1.6907 -0.2066  0.0748
  165SAPE  H18Y18570   5.144   5.355   4.503  0.2184 -0.2545 -1.1901
  165SAPE  H18Z18571   5.289   5.309   4.606  0.6925 -0.4863 -0.2658
  166SAPE     N18572   3.039   4.946   2.222 -0.0438  0.5766  0.8315
  166SAPE   HN118573   3.034   4.976   2.322 -0.5074  1.1549  0.6407
  166SAPE   HN218574   3.139   4.935   2.196  0.0734 -1.4262  1.9776
  166SAPE   HN318575   3.005   5.027   2.166  0.3524  0.8099  0.9224
  166SAPE   C1218576   2.955   4.823   2.188  0.1214 -0.0169 -0.2407
  166SAPE  H12A18577   2.989   4.730   2.237 -0.7618 -0.9019 -1.2629
  166SAPE  H12B18578   2.956   4.820   2.077 -0.8999 -0.6113 -0.2406
  166SAPE   C1118579   2.813   4.857   2.228  0.4622  0.0296  0.4876
  166SAPE  H11A18580   2.754   4.763   2.221 -0.0033  0.4087 -0.8241
  166SAPE  H11B18581   2.769   4.933   2.161 -0.1344 -1.8215 -1.3124
  166SAPE     P18582   2.699   4.897   2.458  0.1981  0.3534 -0.0565
  166SAPE   O1318583   2.576   4.942   2.392  0.3758  0.1091 -0.5313
  166SAPE   O1418584   2.694   4.766   2.528 -0.2355 -0.3258  0.2746
  166SAPE   O1218585   2.820   4.900   2.361  0.3331  0.2295  0.0771
  166SAPE   O1118586   2.732   5.006   2.563  0.1552 -0.0186 -0.4137
  166SAPE    C118587   2.844   5.091   2.538  0.1318  0.9535 -0.2383
  166SAPE    HA18588   2.933   5.029   2.514  0.9575  1.8479  0.4154
  166SAPE    HB18589   2.827   5.165   2.457 -2.2296  0.3098 -0.4209
  166SAPE    C218590   2.879   5.169   2.670 -0.2157  0.0997 -0.1127
  166SAPE    HS18591   2.988   5.190   2.679 -0.4207  0.4777  1.9465
  166SAPE   O2118592   2.853   5.087   2.786 -0.3610  0.1003 -0.0692
  166SAPE   C2118593   2.916   4.963   2.790 -0.1267 -0.8961  1.5951
  166SAPE   O2218594   3.002   4.927   2.707  0.4570  0.1630  0.1316
  166SAPE   C2218595   2.872   4.899   2.914 -0.6538 -0.3996 -0.0050
  166SAPE   H2R18596   2.767   4.934   2.923 -0.2743  1.6033 -2.3522
  166SAPE   H2S18597   2.862   4.790   2.895 -0.6253 -0.4767  0.3993
  166SAPE    C318598   2.798   5.304   2.671 -0.6885 -0.3369  0.3313
  166SAPE    HX18599   2.691   5.272   2.663 -1.5511  2.6332 -1.5147
  166SAPE    HY18600   2.816   5.374   2.587 -1.9282  2.4308  2.2034
  166SAPE   O3118601   2.818   5.390   2.787 -0.3600  0.3173 -0.3920
  166SAPE   C3118602   2.746   5.352   2.894 -0.1995  1.1542 -0.0541
  166SAPE   O3218603   2.662   5.264   2.892 -0.0619  0.1802  0.0556
  166SAPE   C3218604   2.786   5.439   3.015  0.2909 -0.0120 -0.8860
  166SAPE   H2X18605   2.734   5.537   3.013  2.4637  1.1878 -0.9251
  166SAPE   H2Y18606   2.894   5.464   3.012  0.5384 -0.3108  2.1157
  166SAPE   C2318607   2.977   4.938   3.017  0.0201 -0.8524  0.1619
  166SAPE   H3R18608   2.949   5.038   3.057  1.3422 -0.7272  0.8080
  166SAPE   H3S18609   3.079   4.943   2.974 -0.2236 -2.0682 -0.6300
  166SAPE   C2418610   2.991   4.835   3.139 -0.0107  0.4960 -0.1602
  166SAPE   H4R18611   3.067   4.875   3.210 -0.7863 -0.4609  1.2734
  166SAPE   H4S18612   3.021   4.736   3.098  0.7069  0.8109 -0.4069
  166SAPE   C2518613   2.865   4.841   3.225 -0.2043 -0.0659 -0.4727
  166SAPE   H5R18614   2.787   4.771   3.192  1.0932 -1.5057 -0.6214
  166SAPE   C2618615   2.834   4.919   3.331  0.1023  0.2968  0.1555
  166SAPE   H6R18616   2.737   4.913   3.382  0.4847 -0.4227  0.8205
  166SAPE   C2718617   2.928   5.029   3.390  0.0938 -0.1803 -0.2059
  166SAPE   H7R18618   2.869   5.110   3.438  0.2161  1.0295 -2.0526
  166SAPE   H7S18619   2.985   5.075   3.308 -0.0472 -1.8847 -1.3168
  166SAPE   C2818620   3.035   4.969   3.474  0.8248  0.2055  0.0089
  166SAPE   H8R18621   3.102   4.907   3.413 -0.3282  0.1609 -1.2528
  166SAPE   C2918622   3.054   4.990   3.609  0.0405 -0.1458  0.4600
  166SAPE   H9R18623   3.124   4.925   3.662  0.3815  1.3915  1.9629
  166SAPE  C21018624   2.963   5.073   3.693 -0.9693 -0.6429  0.1127
  166SAPE  H10R18625   2.941   5.002   3.775  1.1635 -0.9606  0.4777
  166SAPE  H10S18626   2.866   5.100   3.646 -1.3443 -0.1469  1.1543
  166SAPE  C21118627   3.027   5.203   3.733  0.6452  0.6163  0.2416
  166SAPE  H11R18628   3.041   5.276   3.651 -0.2695  1.0036  0.4167
  166SAPE  C21218629   3.058   5.244   3.857  0.8191 -0.0427  0.7159
  166SAPE  H12R18630   3.088   5.348   3.872 -0.7432  0.2624  2.0442
  166SAPE  C21318631   3.044   5.161   3.985  0.0443 -0.8023  0.1235
  166SAPE  H13R18632   3.142   5.118   4.013 -0.5175 -3.2480 -1.3774
  166SAPE  H13S18633   2.975   5.076   3.966 -0.2571 -0.1032 -2.3127
  166SAPE  C21418634   2.975   5.242   4.090  0.3247  0.2189 -0.2087
  166SAPE  H14R18635   2.895   5.312   4.062  1.0343  1.8149  1.5174
  166SAPE  C21518636   3.012   5.249   4.220  0.1804  0.0729  0.8625
  166SAPE  H15R18637   2.949   5.300   4.294  1.7752  1.8535  1.0530
  166SAPE  C21618638   3.128   5.175   4.282  0.3958  0.0726 -0.0434
  166SAPE  H16R18639   3.217   5.240   4.297 -0.5094  1.3799 -0.1028
  166SAPE  H16S18640   3.153   5.092   4.213 -2.1247 -0.4999 -0.3922
  166SAPE  C21718641   3.097   5.119   4.423  0.4064 -0.3652  0.8587
  166SAPE  H17R18642   3.166   5.034   4.442  1.9817  0.4606 -0.8457
  166SAPE  H17S18643   2.994   5.080   4.412 -0.2318  1.8459 -2.5223
  166SAPE  C21818644   3.130   5.222   4.534  0.6710 -0.5277 -0.0093
  166SAPE  H18R18645   3.080   5.319   4.510  1.3925  0.7171  3.0899
  166SAPE  H18S18646   3.240   5.237   4.536  0.7643 -1.2924  1.7417
  166SAPE  C21918647   3.087   5.186   4.675 -0.3960 -0.2948  0.4881
  166SAPE  H19R18648   2.977   5.199   4.690 -0.2630  1.0053  0.4472
  166SAPE  H19S18649   3.136   5.249   4.752 -0.4862  0.0008  0.3055
  166SAPE  C22018650   3.131   5.046   4.712 -0.1474 -0.1651  0.1954
  166SAPE  H20R18651   3.057   4.975   4.669  0.1975 -0.3698 -0.0616
  166SAPE  H20S18652   3.137   5.017   4.819 -2.8759  1.6944  0.9689
  166SAPE  H20T18653   3.232   5.021   4.673 -0.0782 -1.4899  1.1519
  166SAPE   C3318654   2.773   5.372   3.159  0.5386  0.7301  0.7119
  166SAPE   H3X18655   2.833   5.441   3.222  2.1784  1.8463 -1.9087
  166SAPE   H3Y18656   2.823   5.272   3.159  0.7651  0.8309 -0.1943
  166SAPE   C3418657   2.629   5.352   3.200  0.2322  0.8505 -0.6454
  166SAPE   H4X18658   2.579   5.283   3.128 -0.4074  0.3677  0.2384
  166SAPE   H4Y18659   2.583   5.453   3.195  0.5643  0.9811 -1.2234
  166SAPE   C3518660   2.605   5.304   3.342  0.3764  0.8408 -0.2061
  166SAPE   H5X18661   2.661   5.210   3.362  0.3022  1.3110  2.6008
  166SAPE   H5Y18662   2.495   5.290   3.347  0.2823  1.8541  0.7761
  166SAPE   C3618663   2.644   5.405   3.448 -0.3795 -0.0310 -0.2544
  166SAPE   H6X18664   2.579   5.495   3.455  0.8914  0.8475  1.0823
  166SAPE   H6Y18665   2.748   5.439   3.430  0.1867 -3.1056 -3.9297
  166SAPE   C3718666   2.638   5.349   3.589 -0.0749  0.0118 -0.1719
  166SAPE   H7X18667   2.712   5.270   3.614  0.5699  0.7635  0.3438
  166SAPE   H7Y18668   2.542   5.294   3.599  1.2173 -2.5369 -0.7703
  166SAPE   C3818669   2.647   5.448   3.705  0.2145  0.2393  0.2886
  166SAPE   H8X18670   2.579   5.536   3.699  0.4710  0.3394 -2.4175
  166SAPE   H8Y18671   2.751   5.487   3.711  2.0400 -4.2799  2.0325
  166SAPE   C3918672   2.629   5.375   3.843  0.4575 -0.6160  0.9206
  166SAPE   H9X18673   2.701   5.292   3.858  0.9441 -0.4416 -0.3309
  166SAPE   H9Y18674   2.524   5.340   3.856  1.2282 -2.2190  3.5137
  166SAPE  C31018675   2.643   5.478   3.956 -0.3193 -0.7126  0.0946
  166SAPE  H10X18676   2.592   5.573   3.929  2.0406  0.2231 -1.3895
  166SAPE  H10Y18677   2.749   5.508   3.973  0.1582 -2.2453 -0.0176
  166SAPE  C31118678   2.604   5.433   4.100 -0.5223 -0.0482  0.1465
  166SAPE  H11X18679   2.671   5.346   4.114  1.5295  1.6337  1.2450
  166SAPE  H11Y18680   2.497   5.405   4.103 -0.9691  1.1633 -2.0092
  166SAPE  C31218681   2.634   5.541   4.208 -0.4854  0.1837  0.0269
  166SAPE  H12X18682   2.551   5.614   4.199 -0.8045 -0.3929 -2.3331
  166SAPE  H12Y18683   2.721   5.601   4.174 -1.0710  0.9794 -0.0944
  166SAPE  C31318684   2.655   5.468   4.342  0.4698  0.4749  0.5685
  166SAPE  H13X18685   2.712   5.375   4.323 -1.3886 -0.6695  0.3154
  166SAPE  H13Y18686   2.562   5.442   4.396  0.4188 -0.1993  0.1722
  166SAPE  C31418687   2.740   5.555   4.434 -0.0130  0.2100 -0.1686
  166SAPE  H14X18688   2.700   5.655   4.461  0.2794  1.0907 -2.6995
  166SAPE  H14Y18689   2.843   5.572   4.397 -0.3111  2.1754 -0.1589
  166SAPE  C31518690   2.765   5.481   4.563  0.2669 -0.2280 -0.4674
  166SAPE  H15X18691   2.803   5.379   4.540  1.2424  0.4886 -2.1863
  166SAPE  H15Y18692   2.666   5.467   4.612  0.6319  1.1355  0.6918
  166SAPE  C31618693   2.863   5.561   4.652  0.8977  0.3657  0.1663
  166SAPE  H16X18694   2.963   5.592   4.614  0.6007 -1.6735 -2.5921
  166SAPE  H16Y18695   2.879   5.504   4.746  0.2772  1.3978  0.9067
  166SAPE  C31718696   2.811   5.697   4.708 -0.2041 -0.2644 -0.6780
  166SAPE  H17X18697   2.790   5.760   4.620  0.9945  0.7853 -0.2458
  166SAPE  H17Y18698   2.895   5.745   4.764  0.2387 -3.0150  1.2247
  166SAPE  C31818699   2.683   5.690   4.796 -0.8304 -0.2195  0.8490
  166SAPE  H18X18700   2.707   5.658   4.899  3.1022 -0.3452  0.0789
  166SAPE  H18Y18701   2.610   5.615   4.761 -0.3655 -1.7104  2.9304
  166SAPE  H18Z18702   2.634   5.789   4.809  0.7406  1.0668 -1.9011
  167SAPE     N18703   2.141   3.582   2.243 -0.4465  0.1236 -0.3801
  167SAPE   HN118704   2.054   3.637   2.253 -0.6539 -0.2840  0.1175
  167SAPE   HN218705   2.218   3.649   2.222 -0.3481  0.3557  0.6267
  167SAPE   HN318706   2.120   3.520   2.162  0.2141 -0.4677 -0.1118
  167SAPE   C1218707   2.172   3.502   2.370 -1.0548  0.0324 -0.2929
  167SAPE  H12A18708   2.079   3.459   2.413 -1.3070  0.8220 -0.0259
  167SAPE  H12B18709   2.215   3.574   2.443  0.2108  0.9103 -1.8492
  167SAPE   C1118710   2.278   3.391   2.340  0.7459  0.2890 -0.1881
  167SAPE  H11A18711   2.247   3.326   2.255 -0.2419  0.8155 -0.2458
  167SAPE  H11B18712   2.284   3.327   2.430  2.6585 -0.2272 -0.6528
  167SAPE     P18713   2.529   3.383   2.290  0.1008 -0.4641 -0.5684
  167SAPE   O1318714   2.517   3.303   2.166 -0.7471 -0.3105  0.5917
  167SAPE   O1418715   2.643   3.477   2.316 -0.1548  0.2693  0.5168
  167SAPE   O1218716   2.395   3.464   2.305 -0.6077  0.6612  0.0091
  167SAPE   O1118717   2.524   3.287   2.414 -0.0123  0.8245  0.1456
  167SAPE    C118718   2.508   3.142   2.390 -0.3312  0.6831 -0.0274
  167SAPE    HA18719   2.418   3.124   2.326  1.6048 -0.1394 -2.7177
  167SAPE    HB18720   2.595   3.100   2.336  0.0401  0.5200  0.6959
  167SAPE    C218721   2.496   3.065   2.525 -0.6699 -0.1560 -0.1281
  167SAPE    HS18722   2.395   3.089   2.563 -1.0957 -1.8869 -0.0561
  167SAPE   O2118723   2.604   3.112   2.606 -0.0036  0.8530 -0.3814
  167SAPE   C2118724   2.567   3.132   2.731  0.0771  0.2659 -0.2316
  167SAPE   O2218725   2.458   3.100   2.775  0.7536 -0.4353  0.5747
  167SAPE   C2218726   2.683   3.198   2.810  0.4429  0.2279  0.0529
  167SAPE   H2R18727   2.760   3.118   2.820 -1.0488 -1.5591 -1.8041
  167SAPE   H2S18728   2.734   3.282   2.758  1.3828  1.0907  2.2670
  167SAPE    C318729   2.504   2.913   2.495  0.1348 -0.1825  0.7157
  167SAPE    HX18730   2.608   2.888   2.469 -0.5401  0.7071 -3.5779
  167SAPE    HY18731   2.462   2.890   2.395  1.4933 -0.0124  0.0871
  167SAPE   O3118732   2.452   2.831   2.606  0.1697 -0.2097  0.4443
  167SAPE   C3118733   2.320   2.829   2.612 -0.2883  0.4579 -0.1539
  167SAPE   O3218734   2.248   2.900   2.543  0.2728 -0.1782  0.2158
  167SAPE   C3218735   2.270   2.720   2.707 -0.0309  0.0491  0.3016
  167SAPE   H2X18736   2.322   2.735   2.804 -0.6073  1.9415  0.3427
  167SAPE   H2Y18737   2.290   2.626   2.650 -0.1551  0.0888  0.1933
  167SAPE   C2318738   2.638   3.244   2.952 -0.0146 -1.6196 -0.3316
  167SAPE   H3R18739   2.558   3.317   2.930 -0.9968 -1.7930  2.2801
  167SAPE   H3S18740   2.722   3.297   3.002  0.8836 -2.8479 -0.4760
  167SAPE   C2418741   2.593   3.139   3.053  0.3349 -0.9992 -0.2621
  167SAPE   H4R18742   2.542   3.054   3.004 -1.3530 -1.2635  1.7885
  167SAPE   H4S18743   2.530   3.189   3.129  0.7177  0.1217 -0.6610
  167SAPE   C2518744   2.709   3.074   3.118 -0.4861  1.2295 -0.9709
  167SAPE   H5R18745   2.733   2.979   3.067 -1.1502  1.7160 -2.2270
  167SAPE   C2618746   2.774   3.111   3.232 -0.3316 -0.0583 -0.1270
  167SAPE   H6R18747   2.856   3.056   3.281 -1.6663 -0.2468  2.0805
  167SAPE   C2718748   2.734   3.226   3.321 -0.4371  0.3266 -1.2040
  167SAPE   H7R18749   2.721   3.313   3.252  0.8514  0.6369 -1.0788
  167SAPE   H7S18750   2.821   3.243   3.387  0.1632 -0.8325 -1.6633
  167SAPE   C2818751   2.607   3.208   3.399  0.2431  0.3844  0.1237
  167SAPE   H8R18752   2.532   3.154   3.339  1.3459 -1.4081  0.2544
  167SAPE   C2918753   2.578   3.247   3.528 -0.3191  0.5669 -0.3568
  167SAPE   H9R18754   2.486   3.217   3.581  0.5264  1.5332  1.7926
  167SAPE  C21018755   2.683   3.307   3.625  0.6562 -0.4123 -0.0240
  167SAPE  H10R18756   2.636   3.393   3.677  1.4627  0.0959 -0.1080
  167SAPE  H10S18757   2.764   3.354   3.565 -1.2469  0.3986 -2.0672
  167SAPE  C21118758   2.737   3.214   3.722 -0.0650  0.0743 -0.7930
  167SAPE  H11R18759   2.838   3.173   3.704  0.3499 -0.7894  2.6372
  167SAPE  C21218760   2.699   3.194   3.853 -0.3472 -0.6459  0.0798
  167SAPE  H12R18761   2.757   3.120   3.911 -1.4450 -1.5866  0.0116
  167SAPE  C21318762   2.593   3.268   3.929  0.0013  0.8958  0.7118
  167SAPE  H13R18763   2.572   3.214   4.024 -0.6859  2.1234  1.2966
  167SAPE  H13S18764   2.502   3.275   3.866  0.6806 -2.4145 -0.8390
  167SAPE  C21418765   2.619   3.414   3.962 -0.3579 -0.0144 -0.6018
  167SAPE  H14R18766   2.649   3.481   3.880  2.9934 -0.0264  0.4752
  167SAPE  C21518767   2.592   3.476   4.076  0.3262 -0.2748  0.4880
  167SAPE  H15R18768   2.627   3.580   4.077  0.0153 -0.1317 -1.2836
  167SAPE  C21618769   2.524   3.422   4.194  0.4424  0.3690 -0.2400
  167SAPE  H16R18770   2.586   3.455   4.280  2.5616 -2.5753 -0.4912
  167SAPE  H16S18771   2.524   3.311   4.205 -0.8380  0.4246  0.4204
  167SAPE  C21718772   2.388   3.493   4.226  0.6126 -0.3353  0.3338
  167SAPE  H17R18773   2.349   3.443   4.317  2.5947 -1.7618  0.4565
  167SAPE  H17S18774   2.321   3.481   4.138  1.3104  1.5243 -0.4927
  167SAPE  C21818775   2.399   3.649   4.272 -1.0599  0.2124  0.4103
  167SAPE  H18R18776   2.451   3.707   4.192  0.2011 -3.7429 -1.9173
  167SAPE  H18S18777   2.460   3.654   4.365  1.8680  3.2627 -1.4743
  167SAPE  C21918778   2.265   3.716   4.313  0.5473 -0.4661 -0.1189
  167SAPE  H19R18779   2.189   3.692   4.236 -0.2771  3.8337 -0.8895
  167SAPE  H19S18780   2.276   3.826   4.321  1.5568 -0.5458 -0.1974
  167SAPE  C22018781   2.215   3.664   4.446 -0.2909  0.5258 -0.0511
  167SAPE  H20R18782   2.118   3.716   4.464 -1.3190 -1.1843 -0.3562
  167SAPE  H20S18783   2.284   3.685   4.531 -0.6299  0.0388  0.3534
  167SAPE  H20T18784   2.200   3.554   4.445 -2.9009  0.7932  0.5894
  167SAPE   C3318785   2.121   2.727   2.730  0.2832  0.1971 -0.3477
  167SAPE   H3X18786   2.074   2.725   2.630  1.8974  1.9635 -1.1949
  167SAPE   H3Y18787   2.098   2.826   2.775 -1.0156  0.0792 -0.7098
  167SAPE   C3418788   2.065   2.610   2.822 -0.2607  0.8792 -0.0430
  167SAPE   H4X18789   2.119   2.525   2.776  0.4246  0.1930  1.9179
  167SAPE   H4Y18790   1.954   2.611   2.824 -0.3111  1.8421 -1.6872
  167SAPE   C3518791   2.112   2.629   2.965 -0.0171  0.5246 -0.2139
  167SAPE   H5X18792   2.057   2.714   3.011 -1.1492 -0.1339 -0.3223
  167SAPE   H5Y18793   2.221   2.654   2.962 -0.4001  2.3682  0.0794
  167SAPE   C3618794   2.086   2.503   3.047  0.1226 -0.1123  0.5823
  167SAPE   H6X18795   2.154   2.422   3.014 -1.3131 -1.7270  1.4257
  167SAPE   H6Y18796   1.986   2.456   3.032  0.5592 -1.1322  0.7591
  167SAPE   C3718797   2.101   2.523   3.201 -0.5491  0.2715  0.5917
  167SAPE   H7X18798   2.021   2.599   3.216 -0.7223  0.7642 -2.1802
  167SAPE   H7Y18799   2.206   2.547   3.225 -0.7019  2.9185 -0.9631
  167SAPE   C3818800   2.067   2.393   3.277 -0.4652 -0.7907 -0.3567
  167SAPE   H8X18801   2.145   2.313   3.276 -2.5522 -2.9921  1.8202
  167SAPE   H8Y18802   1.969   2.356   3.240 -0.2407  0.0776 -1.9446
  167SAPE   C3918803   2.046   2.426   3.424 -0.5377  0.2798  0.1282
  167SAPE   H9X18804   1.962   2.366   3.465 -1.2253  0.1733 -1.3865
  167SAPE   H9Y18805   2.015   2.532   3.431 -2.4858 -0.1779 -0.9432
  167SAPE  C31018806   2.168   2.393   3.516  0.2345 -0.4127  0.9933
  167SAPE  H10X18807   2.258   2.433   3.464 -1.3633 -0.8331 -2.3639
  167SAPE  H10Y18808   2.191   2.284   3.526  2.0732 -0.5156 -2.6102
  167SAPE  C31118809   2.157   2.468   3.655 -0.5162  0.0486 -0.2580
  167SAPE  H11X18810   2.148   2.578   3.637  1.5885  0.3721  0.4006
  167SAPE  H11Y18811   2.250   2.463   3.715 -1.0549  0.0146  0.5878
  167SAPE  C31218812   2.049   2.408   3.744 -0.0557 -0.5189 -0.3259
  167SAPE  H12X18813   2.074   2.300   3.754 -0.6877 -0.5904  0.6808
  167SAPE  H12Y18814   1.955   2.428   3.688 -0.5096 -0.6795  0.3625
  167SAPE  C31318815   2.047   2.447   3.894 -0.2511 -0.5651 -0.6344
  167SAPE  H13X18816   1.941   2.431   3.925  0.1290 -0.6104  0.6873
  167SAPE  H13Y18817   2.076   2.552   3.915  2.0388 -1.1452 -0.6837
  167SAPE  C31418818   2.130   2.356   3.983  0.1476  0.4547 -0.0840
  167SAPE  H14X18819   2.239   2.373   3.970  0.0736  2.3270  1.3481
  167SAPE  H14Y18820   2.111   2.253   3.948 -0.3601  1.1318 -1.9147
  167SAPE  C31518821   2.096   2.376   4.129 -0.1047 -0.1512  0.2295
  167SAPE  H15X18822   1.991   2.341   4.136 -0.4263  0.3499 -1.6001
  167SAPE  H15Y18823   2.102   2.484   4.155  0.6415 -0.4401  1.3349
  167SAPE  C31618824   2.192   2.287   4.219  0.7112  0.1986  0.1856
  167SAPE  H16X18825   2.201   2.189   4.168 -0.7337  0.7156 -1.1339
  167SAPE  H16Y18826   2.135   2.262   4.312  0.3634 -2.6306 -0.6823
  167SAPE  C31718827   2.323   2.353   4.256 -1.0274  0.3559 -0.2820
  167SAPE  H17X18828   2.384   2.383   4.168 -0.1550  3.0166  1.1188
  167SAPE  H17Y18829   2.367   2.272   4.319 -2.5238  0.5587  1.0948
  167SAPE  C31818830   2.315   2.473   4.349 -0.1534 -0.5486 -0.2533
  167SAPE  H18X18831   2.338   2.570   4.299  0.8111 -0.0688  1.0468
  167SAPE  H18Y18832   2.383   2.456   4.435  0.4021 -1.1018 -0.7913
  167SAPE  H18Z18833   2.210   2.483   4.382  0.2029  0.7653  0.5464
  168SAPE     N18834   6.125   4.527   2.430  0.3868  0.1968  0.1252
  168SAPE   HN118835   6.199   4.592   2.397  0.3131 -0.8413 -2.3515
  168SAPE   HN218836   6.123   4.459   2.351 -0.7538  0.9562 -0.5255
  168SAPE   HN318837   6.031   4.569   2.442 -1.2729 -2.8612 -1.1940
  168SAPE   C1218838   6.148   4.470   2.569  0.3104 -0.1253  0.6916
  168SAPE  H12A18839   6.077   4.386   2.582 -0.2540  0.5479  2.0977
  168SAPE  H12B18840   6.129   4.553   2.640 -4.1746  1.4565 -1.9207
  168SAPE   C1118841   6.291   4.425   2.588  0.3847  0.6219  0.5010
  168SAPE  H11A18842   6.302   4.406   2.697 -0.1805  1.6138  0.7429
  168SAPE  H11B18843   6.366   4.503   2.564  0.5618  0.7220  1.3223
  168SAPE     P18844   6.431   4.206   2.547 -0.4014 -0.2537  0.2220
  168SAPE   O1318845   6.382   4.076   2.499  0.2425 -0.0221 -0.0650
  168SAPE   O1418846   6.557   4.255   2.488  0.2826  0.5344 -0.3893
  168SAPE   O1218847   6.315   4.303   2.511 -0.0049 -0.7382 -0.6300
  168SAPE   O1118848   6.446   4.211   2.705  0.0415  0.2748  0.0783
  168SAPE    C118849   6.556   4.138   2.769 -0.2997 -0.2638 -0.3496
  168SAPE    HA18850   6.572   4.034   2.732  3.6194 -0.5504  1.6085
  168SAPE    HB18851   6.650   4.196   2.754  0.4021 -1.1832  0.3833
  168SAPE    C218852   6.543   4.128   2.927 -0.0861  0.5465  0.5522
  168SAPE    HS18853   6.640   4.091   2.967 -0.8447 -1.3568  0.7444
  168SAPE   O2118854   6.428   4.052   2.973  0.3966  0.6872 -0.0816
  168SAPE   C2118855   6.421   3.925   2.948  0.6145  0.0162 -0.3345
  168SAPE   O2218856   6.492   3.859   2.873  0.0861 -0.6620 -0.6210
  168SAPE   C2218857   6.322   3.861   3.033 -0.6553 -0.0915 -0.1681
  168SAPE   H2R18858   6.286   3.933   3.110  1.1242 -1.1415  1.7567
  168SAPE   H2S18859   6.242   3.843   2.958  1.4113  0.6765 -2.6761
  168SAPE    C318860   6.515   4.268   2.986 -0.1368 -0.5654  0.3736
  168SAPE    HX18861   6.426   4.324   2.951  2.1399  1.9700 -1.8829
  168SAPE    HY18862   6.586   4.333   2.930 -1.1703 -0.5489 -0.9640
  168SAPE   O3118863   6.530   4.252   3.128  0.1461 -0.3119 -0.0222
  168SAPE   C3118864   6.428   4.272   3.203  0.2553 -0.9093  0.3149
  168SAPE   O3218865   6.319   4.322   3.175 -0.5700 -0.2451  0.1449
  168SAPE   C3218866   6.451   4.197   3.333  0.7706  0.1289 -0.2964
  168SAPE   H2X18867   6.515   4.259   3.400 -1.0291  2.2920 -0.4403
  168SAPE   H2Y18868   6.507   4.104   3.311  0.0693 -0.0001 -1.6196
  168SAPE   C2318869   6.351   3.720   3.109  0.1154  0.6719 -0.3507
  168SAPE   H3R18870   6.425   3.663   3.049  0.2524  0.7106 -0.2201
  168SAPE   H3S18871   6.264   3.652   3.114  1.5645 -1.2644 -0.2406
  168SAPE   C2418872   6.393   3.737   3.259  0.2482  0.2439  0.6714
  168SAPE   H4R18873   6.481   3.805   3.258 -1.1658  2.1668  1.2294
  168SAPE   H4S18874   6.435   3.641   3.295 -0.1383  0.6251  2.2064
  168SAPE   C2518875   6.284   3.795   3.344 -0.1389 -0.3578 -0.4658
  168SAPE   H5R18876   6.225   3.883   3.315  0.1011  0.1319  0.4934
  168SAPE   C2618877   6.250   3.750   3.466  0.2570 -0.0032 -0.5389
  168SAPE   H6R18878   6.158   3.793   3.509  1.5603  2.6758 -0.2227
  168SAPE   C2718879   6.320   3.644   3.546  0.5472 -0.0914 -0.5583
  168SAPE   H7R18880   6.406   3.689   3.600 -2.4324  3.3216  1.8212
  168SAPE   H7S18881   6.373   3.579   3.472  1.1933  0.7979 -0.8950
  168SAPE   C2818882   6.221   3.575   3.641  0.6550 -0.0352 -0.1138
  168SAPE   H8R18883   6.179   3.479   3.607  2.0492 -0.5893 -0.3457
  168SAPE   C2918884   6.196   3.594   3.772 -0.0650  0.1346 -0.0137
  168SAPE   H9R18885   6.131   3.521   3.821  0.3808 -0.8503 -0.8375
  168SAPE  C21018886   6.248   3.703   3.864 -0.1140  0.0416 -0.6321
  168SAPE  H10R18887   6.185   3.794   3.868 -1.1089 -0.6613  0.5947
  168SAPE  H10S18888   6.353   3.728   3.838  0.6460 -0.4925  1.6680
  168SAPE  C21118889   6.245   3.649   4.012 -0.9280  0.4736  0.3591
  168SAPE  H11R18890   6.233   3.539   4.009  0.7257  0.2124  1.6600
  168SAPE  C21218891   6.261   3.723   4.122 -0.2600  0.2339 -0.0610
  168SAPE  H12R18892   6.242   3.664   4.212  1.4433 -0.9031 -0.4011
  168SAPE  C21318893   6.288   3.869   4.122  0.2100  0.6426 -0.7707
  168SAPE  H13R18894   6.287   3.921   4.023 -3.5473  2.3429  0.0015
  168SAPE  H13S18895   6.391   3.882   4.162 -0.1323  0.2801  0.2630
  168SAPE  C21418896   6.196   3.945   4.211 -0.3323 -0.0291  0.4049
  168SAPE  H14R18897   6.098   3.967   4.165  0.5636  3.8056  0.0022
  168SAPE  C21518898   6.209   3.977   4.346 -0.0417 -0.0418  0.6096
  168SAPE  H15R18899   6.129   4.036   4.393  0.5475  0.7405  0.6451
  168SAPE  C21618900   6.332   3.946   4.426 -0.2339 -0.5314  0.2024
  168SAPE  H16R18901   6.382   3.857   4.381 -0.2949 -0.5922  0.2554
  168SAPE  H16S18902   6.313   3.904   4.527  0.6414 -0.5646  0.3611
  168SAPE  C21718903   6.425   4.067   4.430 -0.2416  0.6552 -0.2708
  168SAPE  H17R18904   6.369   4.152   4.475 -1.9812 -2.0094  3.0965
  168SAPE  H17S18905   6.464   4.096   4.330  0.8365 -1.4909 -0.5300
  168SAPE  C21818906   6.544   4.047   4.531  0.1323  0.7578 -0.2485
  168SAPE  H18R18907   6.592   3.952   4.500  1.8266  1.5693 -0.2061
  168SAPE  H18S18908   6.496   4.044   4.631  1.1411  1.2070  0.2646
  168SAPE  C21918909   6.653   4.151   4.523  0.0029  0.0005  0.2667
  168SAPE  H19R18910   6.733   4.122   4.594  1.4133  2.4910 -0.1996
  168SAPE  H19S18911   6.618   4.250   4.561 -0.4557 -0.0602  0.0078
  168SAPE  C22018912   6.712   4.180   4.387  0.1946  0.3401 -0.3340
  168SAPE  H20R18913   6.775   4.095   4.352  2.5200  0.3655  3.2519
  168SAPE  H20S18914   6.780   4.268   4.388  0.5963  0.0919  2.4227
  168SAPE  H20T18915   6.628   4.205   4.320 -2.7287 -0.3929  2.7845
  168SAPE   C3318916   6.314   4.159   3.402 -0.5221 -0.3931 -0.2726
  168SAPE   H3X18917   6.273   4.072   3.345 -0.2843  0.7400 -2.2588
  168SAPE   H3Y18918   6.235   4.237   3.411  0.9484  1.0896  0.1576
  168SAPE   C3418919   6.330   4.113   3.549  0.2030 -0.2400 -0.8250
  168SAPE   H4X18920   6.405   4.032   3.558 -0.2452 -0.6342 -0.5782
  168SAPE   H4Y18921   6.234   4.068   3.581  0.9154  0.3752  2.6434
  168SAPE   C3518922   6.350   4.233   3.642 -0.1991  0.1718 -1.0130
  168SAPE   H5X18923   6.263   4.298   3.620 -1.6285 -1.5909 -0.7604
  168SAPE   H5Y18924   6.431   4.305   3.614  1.4515 -0.5476  1.5292
  168SAPE   C3618925   6.353   4.197   3.795  0.2684 -0.2474  0.2487
  168SAPE   H6X18926   6.442   4.139   3.828 -0.0113 -0.6244  0.3505
  168SAPE   H6Y18927   6.258   4.146   3.822 -0.2145  0.6515  0.3028
  168SAPE   C3718928   6.357   4.324   3.892  0.2211 -0.1934  0.3416
  168SAPE   H7X18929   6.279   4.398   3.862  0.7241  0.1793 -0.0787
  168SAPE   H7Y18930   6.452   4.382   3.884  0.1802  0.0746  1.6077
  168SAPE   C3818931   6.348   4.286   4.042 -1.0794 -1.1901 -0.3073
  168SAPE   H8X18932   6.427   4.214   4.071  0.2943  0.1885 -0.4823
  168SAPE   H8Y18933   6.240   4.262   4.057 -2.4699  4.4191  1.1562
  168SAPE   C3918934   6.364   4.420   4.133 -0.4856  0.1261  0.7785
  168SAPE   H9X18935   6.291   4.498   4.103  0.5019  0.5149 -0.7083
  168SAPE   H9Y18936   6.472   4.449   4.133 -0.7389  1.1267  1.1450
  168SAPE  C31018937   6.325   4.381   4.279 -0.5791  0.0828  0.9650
  168SAPE  H10X18938   6.407   4.313   4.311  0.7567  0.6312 -1.0513
  168SAPE  H10Y18939   6.223   4.339   4.272 -0.9962  0.6944  2.7815
  168SAPE  C31118940   6.312   4.497   4.384 -0.0842  0.0419  0.4463
  168SAPE  H11X18941   6.251   4.575   4.333  1.6739  0.0760 -1.7662
  168SAPE  H11Y18942   6.411   4.543   4.401  0.4072 -0.5255 -0.7228
  168SAPE  C31218943   6.263   4.446   4.518  0.4427 -0.5372 -0.3845
  168SAPE  H12X18944   6.340   4.377   4.560  3.5738  0.4888 -3.9281
  168SAPE  H12Y18945   6.161   4.402   4.512  0.2264 -0.0240 -0.4997
  168SAPE  C31318946   6.238   4.573   4.612 -0.2730  0.2064  0.5324
  168SAPE  H13X18947   6.194   4.652   4.546 -0.2336 -0.1523  0.0702
  168SAPE  H13Y18948   6.337   4.594   4.656 -0.4328 -0.0066  0.9951
  168SAPE  C31418949   6.136   4.557   4.730 -0.0344  0.1595  0.3781
  168SAPE  H14X18950   6.039   4.517   4.694 -0.5852  0.5070  1.4194
  168SAPE  H14Y18951   6.130   4.663   4.764  0.8213  0.0092  1.0250
  168SAPE  C31518952   6.181   4.467   4.842  0.1429 -0.7180 -0.0466
  168SAPE  H15X18953   6.194   4.361   4.812  2.4591 -0.8669  1.1829
  168SAPE  H15Y18954   6.098   4.467   4.916 -0.4676  1.6556 -0.6564
  168SAPE  C31618955   6.307   4.518   4.914 -0.1109  0.0241  0.8225
  168SAPE  H16X18956   6.300   4.629   4.916  2.5047  0.2605  0.8803
  168SAPE  H16Y18957   6.405   4.501   4.865  2.0730  1.7848  4.1370
  168SAPE  C31718958   6.318   4.470   5.062  0.0985 -0.2248 -0.2264
  168SAPE  H17X18959   6.342   4.362   5.065  1.9400  0.1639  0.3983
  168SAPE  H17Y18960   6.228   4.484   5.127 -1.2277  1.8380 -2.3093
  168SAPE  C31818961   6.434   4.542   5.133  0.4974 -0.1336 -0.6035
  168SAPE  H18X18962   6.396   4.646   5.133  0.0027 -0.3158 -1.2336
  168SAPE  H18Y18963   6.528   4.538   5.074  0.3523  1.0126 -0.9280
  168SAPE  H18Z18964   6.464   4.501   5.232  2.0348 -0.8876 -1.3408
  169SAPE     N18965   3.294   1.704   2.024  0.2680 -0.8083  0.1509
  169SAPE   HN118966   3.291   1.611   1.977 -1.5362 -0.6951 -0.0021
  169SAPE   HN218967   3.196   1.716   2.054  0.6784  1.7338  0.6610
  169SAPE   HN318968   3.323   1.776   1.954 -0.3143  0.4344  1.1562
  169SAPE   C1218969   3.383   1.685   2.144 -0.2321 -0.5269  0.1418
  169SAPE  H12A18970   3.485   1.683   2.099  0.2387 -0.7916  1.1870
  169SAPE  H12B18971   3.354   1.588   2.190 -0.1962 -1.3605 -1.5235
  169SAPE   C1118972   3.373   1.804   2.245 -0.0011 -0.0686  1.1663
  169SAPE  H11A18973   3.433   1.788   2.337 -2.2726 -0.0118  2.7179
  169SAPE  H11B18974   3.268   1.799   2.279 -0.4465 -2.6605 -0.3295
  169SAPE     P18975   3.320   2.058   2.188 -0.1105 -0.1385  0.2045
  169SAPE   O1318976   3.380   2.151   2.091 -0.1702 -0.6128 -0.0905
  169SAPE   O1418977   3.179   2.021   2.170  0.1697  0.4403  0.5729
  169SAPE   O1218978   3.409   1.929   2.181 -0.7592  0.1732 -0.3321
  169SAPE   O1118979   3.323   2.125   2.328  0.6192 -0.3157 -1.1479
  169SAPE    C118980   3.381   2.045   2.435 -0.3935  0.1036  0.1003
  169SAPE    HA18981   3.450   1.964   2.404 -3.6948 -2.7778 -0.3741
  169SAPE    HB18982   3.451   2.110   2.492  2.1407 -0.4930 -2.1460
  169SAPE    C218983   3.275   1.986   2.535 -0.5845  0.6851  0.4899
  169SAPE    HS18984   3.225   1.904   2.480 -0.0223  1.4827 -1.2787
  169SAPE   O2118985   3.179   2.082   2.576 -0.1092  0.5192  0.1662
  169SAPE   C2118986   3.063   2.033   2.608  0.1266 -0.1060 -0.3692
  169SAPE   O2218987   3.016   1.917   2.605 -0.2767 -0.5132  0.1613
  169SAPE   C2218988   2.970   2.155   2.642 -0.4574  0.0764 -0.4044
  169SAPE   H2R18989   3.010   2.203   2.734  0.2395 -0.5777 -0.3550
  169SAPE   H2S18990   2.988   2.223   2.556 -1.5345  0.7749 -0.0868
  169SAPE    C318991   3.350   1.925   2.663 -0.0111 -0.4499  0.5245
  169SAPE    HX18992   3.274   1.859   2.709 -1.6888 -0.7136 -2.3267
  169SAPE    HY18993   3.386   2.009   2.725 -0.9170 -0.9800  1.8071
  169SAPE   O3118994   3.453   1.843   2.619 -0.3276 -0.6198  0.5448
  169SAPE   C3118995   3.515   1.769   2.713 -0.1798 -0.2332 -0.2467
  169SAPE   O3218996   3.464   1.759   2.825 -0.2080 -0.0675  0.2493
  169SAPE   C3218997   3.635   1.698   2.645  0.3221 -0.1368 -0.3515
  169SAPE   H2X18998   3.729   1.753   2.666  0.4051  0.3181 -1.7735
  169SAPE   H2Y18999   3.619   1.702   2.535 -2.7745  0.9845  0.0484
  169SAPE   C2319000   2.829   2.115   2.647  0.5688  0.2847  1.0469
  169SAPE   H3R19001   2.798   2.028   2.708  1.0195 -2.0706 -1.8526
  169SAPE   H3S19002   2.788   2.078   2.551 -1.1314  0.3921  1.6898
  169SAPE   C2419003   2.741   2.232   2.705  0.1532 -0.3837 -0.0935
  169SAPE   H4R19004   2.762   2.327   2.651 -0.2278  0.9602  2.0043
  169SAPE   H4S19005   2.782   2.241   2.808  2.5629 -0.0737 -1.0252
  169SAPE   C2519006   2.594   2.192   2.697  0.1635 -0.3852 -0.1878
  169SAPE   H5R19007   2.548   2.197   2.597  2.2357 -0.0749 -1.1714
  169SAPE   C2619008   2.528   2.155   2.803  0.8391 -0.0904  0.0335
  169SAPE   H6R19009   2.424   2.123   2.789  0.3670  1.5224 -0.2721
  169SAPE   C2719010   2.588   2.150   2.946 -0.6029 -0.5729  0.4534
  169SAPE   H7R19011   2.687   2.101   2.945  0.0412  0.6683  1.1487
  169SAPE   H7S19012   2.542   2.081   3.020  2.3401 -0.3567  2.6511
  169SAPE   C2819013   2.594   2.290   3.007 -0.1598  0.1241  0.3332
  169SAPE   H8R19014   2.591   2.373   2.935  2.4109 -0.0332 -0.0415
  169SAPE   C2919015   2.598   2.319   3.145  0.8888 -0.1668  0.6447
  169SAPE   H9R19016   2.600   2.427   3.166 -3.4681  1.0921 -3.4812
  169SAPE  C21019017   2.617   2.218   3.257 -0.5462 -0.6929 -0.5551
  169SAPE  H10R19018   2.657   2.125   3.211  0.8095  1.1360 -3.3643
  169SAPE  H10S19019   2.517   2.199   3.303 -0.4595  2.2480  1.0963
  169SAPE  C21119020   2.706   2.250   3.377 -0.0484  0.0820  0.3632
  169SAPE  H11R19021   2.775   2.170   3.410  0.6861  0.7638  0.5024
  169SAPE  C21219022   2.700   2.345   3.466  0.8561 -0.3371 -0.7820
  169SAPE  H12R19023   2.772   2.350   3.550 -2.1231 -1.9006  2.0629
  169SAPE  C21319024   2.601   2.458   3.480 -0.1950 -0.1896  0.1937
  169SAPE  H13R19025   2.499   2.419   3.457 -0.2736 -0.8105  1.5244
  169SAPE  H13S19026   2.613   2.535   3.401  0.0067 -0.3933  0.0235
  169SAPE  C21419027   2.612   2.514   3.619  0.4722 -0.3121 -0.1816
  169SAPE  H14R19028   2.658   2.614   3.622  1.0719 -0.5952  0.7534
  169SAPE  C21519029   2.575   2.453   3.733 -0.0941  0.8018  0.0948
  169SAPE  H15R19030   2.592   2.504   3.829  0.3697  0.9461 -0.0601
  169SAPE  C21619031   2.499   2.319   3.742  0.0503  0.5593  0.4668
  169SAPE  H16R19032   2.512   2.257   3.650  0.2637  0.6938  0.4048
  169SAPE  H16S19033   2.389   2.330   3.749 -0.0184 -0.7333  2.2085
  169SAPE  C21719034   2.552   2.232   3.855  0.4816  0.3513  0.1643
  169SAPE  H17R19035   2.588   2.293   3.940  1.3751  0.2252 -0.1138
  169SAPE  H17S19036   2.637   2.176   3.809 -0.7504  0.6111 -2.6571
  169SAPE  C21819037   2.459   2.120   3.907  0.4908  0.5547  0.4794
  169SAPE  H18R19038   2.451   2.032   3.838 -0.5841 -0.4866  1.8820
  169SAPE  H18S19039   2.353   2.148   3.918  0.4018  0.0150  1.0414
  169SAPE  C21919040   2.507   2.060   4.039  0.1297  0.0903 -0.4612
  169SAPE  H19R19041   2.473   2.138   4.111 -1.4325  0.6857 -1.7908
  169SAPE  H19S19042   2.618   2.054   4.039  0.0382 -3.0288 -0.6510
  169SAPE  C22019043   2.449   1.929   4.072  0.7319  0.2097  0.9418
  169SAPE  H20R19044   2.468   1.889   4.174 -4.1474  2.5887  3.1558
  169SAPE  H20S19045   2.495   1.853   4.007  0.8060  1.4524 -0.5049
  169SAPE  H20T19046   2.343   1.909   4.046  0.9762 -0.0449  0.1365
  169SAPE   C3319047   3.632   1.546   2.679  0.3552  0.0247  0.3538
  169SAPE   H3X19048   3.706   1.499   2.611  1.0434  0.4243  0.8166
  169SAPE   H3Y19049   3.529   1.512   2.655  0.3308  0.2708  0.1049
  169SAPE   C3419050   3.672   1.510   2.823 -0.2810  0.0510  0.0619
  169SAPE   H4X19051   3.606   1.570   2.890  1.2932  0.7044  1.0950
  169SAPE   H4Y19052   3.781   1.527   2.835  0.6422 -2.7998 -2.8713
  169SAPE   C3519053   3.660   1.358   2.856  0.1419 -0.1465 -0.6910
  169SAPE   H5X19054   3.688   1.306   2.762  0.6929  0.7199 -1.0204
  169SAPE   H5Y19055   3.554   1.341   2.883 -0.1424  0.6666 -1.2649
  169SAPE   C3619056   3.748   1.318   2.977 -0.6551  0.3541 -0.4713
  169SAPE   H6X19057   3.854   1.322   2.943 -1.2214  2.9950 -2.2870
  169SAPE   H6Y19058   3.735   1.211   3.003  0.0281  0.2475 -0.5429
  169SAPE   C3719059   3.727   1.410   3.101  0.3512  0.7820 -0.1817
  169SAPE   H7X19060   3.619   1.407   3.125  0.5244  0.2118  0.5582
  169SAPE   H7Y19061   3.749   1.516   3.076  1.1302 -0.2147 -4.5640
  169SAPE   C3819062   3.810   1.360   3.215  0.0238 -0.2507 -0.0178
  169SAPE   H8X19063   3.916   1.393   3.219 -0.5870  2.0827 -1.1450
  169SAPE   H8Y19064   3.807   1.249   3.219  0.0955 -0.2695 -0.4226
  169SAPE   C3919065   3.740   1.392   3.344 -0.0965 -0.7465 -0.4990
  169SAPE   H9X19066   3.641   1.342   3.346 -0.2083 -0.5131  0.5967
  169SAPE   H9Y19067   3.708   1.496   3.364 -2.7853 -1.6984  0.5797
  169SAPE  C31019068   3.823   1.355   3.462  0.4569  0.0808  0.0020
  169SAPE  H10X19069   3.924   1.399   3.456  1.7727 -2.6288  0.5569
  169SAPE  H10Y19070   3.839   1.246   3.447  0.6724 -0.0769  1.3222
  169SAPE  C31119071   3.753   1.379   3.598  1.0524 -0.2613  0.2598
  169SAPE  H11X19072   3.663   1.315   3.594  0.7702  0.1899 -0.9765
  169SAPE  H11Y19073   3.726   1.486   3.612  0.9679 -0.6235  3.5672
  169SAPE  C31219074   3.855   1.342   3.710  0.1688  0.3558  0.0488
  169SAPE  H12X19075   3.931   1.423   3.707 -0.2392  0.7932  1.1878
  169SAPE  H12Y19076   3.887   1.239   3.683 -0.6546 -0.1810  1.0528
  169SAPE  C31319077   3.794   1.344   3.847  0.1155 -0.1929 -0.1960
  169SAPE  H13X19078   3.698   1.288   3.842  0.3238 -0.7841  1.8129
  169SAPE  H13Y19079   3.739   1.438   3.868 -2.4556 -1.5741 -0.2922
  169SAPE  C31419080   3.893   1.325   3.963  0.1002 -0.9545  0.0780
  169SAPE  H14X19081   3.980   1.391   3.944 -1.2017  0.3986 -1.4916
  169SAPE  H14Y19082   3.925   1.219   3.975  3.8163  0.0407 -0.0036
  169SAPE  C31519083   3.832   1.389   4.092  0.1660  0.2557  0.1025
  169SAPE  H15X19084   3.734   1.339   4.111  1.1777 -1.1955  1.7851
  169SAPE  H15Y19085   3.805   1.496   4.080  0.6971  0.4986  1.0171
  169SAPE  C31619086   3.922   1.384   4.218 -0.0371 -0.8511  0.1690
  169SAPE  H16X19087   3.865   1.426   4.304  0.2749 -0.3258  0.1271
  169SAPE  H16Y19088   4.002   1.460   4.200 -2.7646  2.0992 -0.5371
  169SAPE  C31719089   3.981   1.244   4.249  0.8066 -0.0580 -0.4223
  169SAPE  H17X19090   4.046   1.200   4.170  3.2294 -0.0218  1.4177
  169SAPE  H17Y19091   3.909   1.161   4.266  1.8619 -0.6397  1.3813
  169SAPE  C31819092   4.065   1.257   4.368 -0.7592 -0.3009 -0.1454
  169SAPE  H18X19093   4.171   1.258   4.337 -1.0010 -2.6393 -1.2970
  169SAPE  H18Y19094   4.045   1.171   4.436  0.1590  0.5549  1.2570
  169SAPE  H18Z19095   4.058   1.357   4.415 -2.4274 -1.6026  2.6772
  170SAPE     N19096   2.733   3.708   2.366  0.5471  0.6260 -0.2646
  170SAPE   HN119097   2.769   3.705   2.463  1.1388 -1.0367 -0.5079
  170SAPE   HN219098   2.645   3.763   2.364  1.3629  1.9848 -2.1758
  170SAPE   HN319099   2.715   3.612   2.330  0.3333  0.3519  0.5642
  170SAPE   C1219100   2.848   3.744   2.276 -0.0328  0.0045 -0.3769
  170SAPE  H12A19101   2.932   3.682   2.311 -0.4173  0.0352  0.6391
  170SAPE  H12B19102   2.873   3.852   2.273  0.1208 -0.0419 -0.7230
  170SAPE   C1119103   2.821   3.691   2.131  0.3272 -0.1087  0.6731
  170SAPE  H11A19104   2.722   3.730   2.102  0.2529 -1.0791 -0.4647
  170SAPE  H11B19105   2.809   3.581   2.118  0.7435 -0.0254 -0.4936
  170SAPE     P19106   3.060   3.691   2.034 -0.2131  0.2653 -0.2074
  170SAPE   O1319107   3.068   3.603   1.913  0.6118 -0.3690 -0.4034
  170SAPE   O1419108   3.149   3.799   2.051 -0.1646  0.2247  0.7562
  170SAPE   O1219109   2.914   3.748   2.042 -0.0498  0.5905  0.3965
  170SAPE   O1119110   3.070   3.584   2.151  0.5872  0.4654 -0.4342
  170SAPE    C119111   3.197   3.512   2.167  0.7153 -0.0006  0.2023
  170SAPE    HA19112   3.189   3.414   2.116 -0.5703 -0.1885  0.7302
  170SAPE    HB19113   3.284   3.568   2.125  0.7061  0.4505  0.7652
  170SAPE    C219114   3.235   3.481   2.312  0.2250 -0.1491  0.4707
  170SAPE    HS19115   3.248   3.582   2.357  0.4029 -0.3684  0.9128
  170SAPE   O2119116   3.356   3.407   2.319 -0.1545  0.2168  0.2630
  170SAPE   C2119117   3.414   3.407   2.438  0.2710 -0.9180  0.6307
  170SAPE   O2219118   3.394   3.492   2.529 -0.2718 -0.0537  0.2577
  170SAPE   C2219119   3.496   3.282   2.439  0.2189  0.6968 -0.5105
  170SAPE   H2R19120   3.420   3.201   2.435  1.3726 -0.7598  3.2207
  170SAPE   H2S19121   3.555   3.293   2.346  0.7420  3.0585  0.0563
  170SAPE    C319122   3.110   3.424   2.386  0.6131  0.0300 -0.2717
  170SAPE    HX19123   3.098   3.325   2.337 -0.2068  0.3122 -0.6601
  170SAPE    HY19124   3.021   3.483   2.357  1.3308  0.5748 -1.5078
  170SAPE   O3119125   3.125   3.400   2.525  0.0955  0.0597  1.0603
  170SAPE   C3119126   3.094   3.500   2.604  0.3407  0.6457 -0.1072
  170SAPE   O3219127   3.066   3.614   2.566 -0.0562  0.4299 -0.5190
  170SAPE   C3219128   3.108   3.466   2.755 -0.6120 -0.2755  0.1471
  170SAPE   H2X19129   3.214   3.483   2.784 -1.3897  0.7149  2.6628
  170SAPE   H2Y19130   3.078   3.359   2.759 -2.4786  0.2719  2.2835
  170SAPE   C2319131   3.573   3.253   2.570 -0.1605  0.8805  0.3650
  170SAPE   H3R19132   3.590   3.341   2.635 -1.6401  0.7724  0.9339
  170SAPE   H3S19133   3.667   3.196   2.550  0.3367  1.8488 -0.1332
  170SAPE   C2419134   3.491   3.165   2.659  0.1466 -0.8563  0.1508
  170SAPE   H4R19135   3.455   3.073   2.609  1.4860 -2.0905  1.3750
  170SAPE   H4S19136   3.400   3.223   2.685  0.3315 -0.5336  0.0927
  170SAPE   C2519137   3.572   3.123   2.785 -0.0248  0.6286  0.5763
  170SAPE   H5R19138   3.626   3.028   2.766 -2.0528 -0.8482  1.9006
  170SAPE   C2619139   3.573   3.173   2.908 -1.3081  0.2521 -0.0161
  170SAPE   H6R19140   3.636   3.126   2.985  2.0558  1.1462 -2.0116
  170SAPE   C2719141   3.486   3.288   2.956 -0.1162  0.9024 -0.1935
  170SAPE   H7R19142   3.410   3.267   3.034  1.1337  1.9129  1.3711
  170SAPE   H7S19143   3.426   3.322   2.869  0.4166  1.5265 -0.3271
  170SAPE   C2819144   3.569   3.402   3.000  0.2623  0.5764 -0.5860
  170SAPE   H8R19145   3.597   3.462   2.913 -1.6498  1.4516 -0.6419
  170SAPE   C2919146   3.648   3.398   3.115 -0.0227 -0.0146 -0.6915
  170SAPE   H9R19147   3.695   3.494   3.142 -2.0841  0.9110 -0.1993
  170SAPE  C21019148   3.627   3.311   3.231 -0.8222  0.5652 -0.7087
  170SAPE  H10R19149   3.725   3.260   3.247 -1.8620 -0.8219  1.9461
  170SAPE  H10S19150   3.543   3.240   3.215 -1.2123  0.9133 -0.2085
  170SAPE  C21119151   3.575   3.391   3.342 -0.3509  0.1441  0.2452
  170SAPE  H11R19152   3.546   3.493   3.311  2.0811  0.0812 -2.6821
  170SAPE  C21219153   3.553   3.344   3.465 -0.6210  0.0519  0.7608
  170SAPE  H12R19154   3.503   3.407   3.540 -3.0634 -0.5270 -0.2898
  170SAPE  C21319155   3.585   3.201   3.501 -0.3618 -0.4544  0.3613
  170SAPE  H13R19156   3.624   3.200   3.605 -0.2047  0.8157  0.3329
  170SAPE  H13S19157   3.670   3.149   3.452 -1.7132 -1.9984 -0.4060
  170SAPE  C21419158   3.468   3.115   3.476  0.4422 -0.4364  0.0159
  170SAPE  H14R19159   3.415   3.137   3.382 -0.1278  1.6129  0.7680
  170SAPE  C21519160   3.422   3.011   3.541  0.8588  0.2173 -0.0297
  170SAPE  H15R19161   3.333   2.953   3.512  1.6687 -1.7709  1.2761
  170SAPE  C21619162   3.480   2.960   3.668  0.4997  0.0347 -0.5681
  170SAPE  H16R19163   3.402   2.983   3.743 -0.3775 -0.1889 -1.3935
  170SAPE  H16S19164   3.578   3.005   3.695  1.7623 -3.4110  1.2526
  170SAPE  C21719165   3.505   2.805   3.661 -0.5536  0.1903  0.1057
  170SAPE  H17R19166   3.594   2.794   3.595  0.5411  1.4406  1.2739
  170SAPE  H17S19167   3.417   2.751   3.621  0.2416 -0.4707 -0.7958
  170SAPE  C21819168   3.550   2.740   3.799  0.2652  0.2633  1.1750
  170SAPE  H18R19169   3.559   2.629   3.793 -0.4685  0.2561 -2.0513
  170SAPE  H18S19170   3.466   2.762   3.868  0.5374 -0.3046  1.6931
  170SAPE  C21919171   3.687   2.788   3.842  0.5263 -0.0167 -0.6410
  170SAPE  H19R19172   3.697   2.898   3.843  1.8979 -0.1043 -1.4519
  170SAPE  H19S19173   3.761   2.752   3.767  1.4723 -1.4331  0.8954
  170SAPE  C22019174   3.741   2.731   3.973  0.4462  0.3122  0.0087
  170SAPE  H20R19175   3.683   2.767   4.062  1.8528 -1.2087  1.6020
  170SAPE  H20S19176   3.845   2.767   3.990 -0.1173  1.7811  0.6120
  170SAPE  H20T19177   3.734   2.621   3.962 -0.9670  0.4243 -0.4607
  170SAPE   C3319178   3.019   3.543   2.849  0.5032  0.2622  0.7644
  170SAPE   H3X19179   2.910   3.524   2.851  0.7896 -2.1960 -1.4244
  170SAPE   H3Y19180   3.028   3.650   2.822  0.2901 -0.0235 -0.4770
  170SAPE   C3419181   3.078   3.533   2.986 -0.4404  0.1958  0.2861
  170SAPE   H4X19182   3.013   3.585   3.060 -0.2918  1.3708 -0.3847
  170SAPE   H4Y19183   3.178   3.582   2.986 -0.1516 -0.3869  0.3704
  170SAPE   C3519184   3.097   3.395   3.048 -0.0690 -0.2140  0.5854
  170SAPE   H5X19185   3.187   3.341   3.010  1.0935  1.1556  1.2991
  170SAPE   H5Y19186   3.012   3.327   3.027  0.4645 -0.3723 -1.2443
  170SAPE   C3619187   3.112   3.397   3.198 -0.0061 -0.6735 -0.4008
  170SAPE   H6X19188   3.036   3.457   3.252  2.1851 -0.0667  2.2440
  170SAPE   H6Y19189   3.202   3.456   3.227  1.1782 -1.7907 -1.6452
  170SAPE   C3719190   3.105   3.261   3.260  0.5053 -0.1964 -0.4289
  170SAPE   H7X19191   3.177   3.198   3.204  2.6882 -0.3008  2.3293
  170SAPE   H7Y19192   3.006   3.212   3.254  0.3187 -0.2370  2.1128
  170SAPE   C3819193   3.173   3.251   3.394 -0.2413 -0.4129  0.4822
  170SAPE   H8X19194   3.264   3.315   3.388 -1.2153  0.8983 -0.8782
  170SAPE   H8Y19195   3.212   3.149   3.412  0.3649  0.3566  4.5876
  170SAPE   C3919196   3.081   3.286   3.509  0.8778 -0.3596 -0.2817
  170SAPE   H9X19197   2.987   3.228   3.511  0.5503  0.1647 -0.2517
  170SAPE   H9Y19198   3.068   3.397   3.503  3.0500  0.0120  0.7778
  170SAPE  C31019199   3.153   3.265   3.649  0.2606  1.1566 -0.3169
  170SAPE  H10X19200   3.263   3.276   3.634  0.8233 -0.0178  2.3979
  170SAPE  H10Y19201   3.132   3.160   3.679 -0.9526  1.0769 -1.3668
  170SAPE  C31119202   3.113   3.365   3.755 -0.1190  1.0160  0.8473
  170SAPE  H11X19203   3.007   3.351   3.784 -0.6904  1.4929 -0.9221
  170SAPE  H11Y19204   3.122   3.470   3.720  1.0534  1.0458  1.1939
  170SAPE  C31219205   3.190   3.349   3.888  0.4427 -0.1301 -0.4107
  170SAPE  H12X19206   3.300   3.369   3.884  0.8640 -1.3615  2.4316
  170SAPE  H12Y19207   3.170   3.253   3.940  0.2163  1.2165  2.1330
  170SAPE  C31319208   3.135   3.468   3.971 -0.0875  0.0817 -0.3731
  170SAPE  H13X19209   3.026   3.448   3.986 -0.0999  1.0473  1.0722
  170SAPE  H13Y19210   3.147   3.557   3.907  0.6982 -1.0984 -1.9284
  170SAPE  C31419211   3.213   3.496   4.099 -0.1909  0.0434  0.2689
  170SAPE  H14X19212   3.301   3.557   4.069  0.6196 -0.0136  2.3055
  170SAPE  H14Y19213   3.239   3.400   4.147 -2.0048 -2.8498 -3.9435
  170SAPE  C31519214   3.144   3.599   4.194 -0.5769 -0.0629  0.6565
  170SAPE  H15X19215   3.111   3.694   4.147 -0.1739 -0.7392 -1.1100
  170SAPE  H15Y19216   3.217   3.634   4.270  0.0594 -0.6072  0.3029
  170SAPE  C31619217   3.029   3.529   4.262  0.3991 -0.3645  0.2598
  170SAPE  H16X19218   3.067   3.431   4.299  1.3074  0.6100  2.0068
  170SAPE  H16Y19219   2.956   3.502   4.183  1.6486 -0.5920 -0.8452
  170SAPE  C31719220   2.964   3.610   4.373  0.3680  0.4958 -0.2777
  170SAPE  H17X19221   2.903   3.695   4.337 -0.3423  0.2674  0.3712
  170SAPE  H17Y19222   3.037   3.654   4.443  0.9200 -0.6145 -0.1367
  170SAPE  C31819223   2.856   3.519   4.446 -0.3346 -0.3866  0.2381
  170SAPE  H18X19224   2.824   3.565   4.542  1.0979 -1.6502  1.3708
  170SAPE  H18Y19225   2.895   3.417   4.469 -0.1707 -0.3603  0.0749
  170SAPE  H18Z19226   2.773   3.510   4.373 -0.0182 -1.1632 -0.0368
  171SAPE     N19227   5.222   2.726   2.448 -0.3016 -0.0436  0.4077
  171SAPE   HN119228   5.180   2.770   2.363  0.9004 -1.0653 -0.7655
  171SAPE   HN219229   5.240   2.792   2.526 -1.3982  0.6928  0.0683
  171SAPE   HN319230   5.315   2.683   2.429  1.1085  2.1686  1.8608
  171SAPE   C1219231   5.126   2.619   2.497  0.1765  0.4204  0.3078
  171SAPE  H12A19232   5.115   2.550   2.411  0.0936  0.3904  0.3426
  171SAPE  H12B19233   5.026   2.662   2.517 -0.2070 -0.2757 -0.0920
  171SAPE   C1119234   5.174   2.542   2.619 -0.1079 -0.0197  0.6907
  171SAPE  H11A19235   5.084   2.507   2.675 -0.5409 -2.9271 -1.5713
  171SAPE  H11B19236   5.241   2.605   2.682  1.3564 -1.3613  0.5520
  171SAPE     P19237   5.243   2.290   2.623 -0.2054 -0.5185  0.4802
  171SAPE   O1319238   5.098   2.257   2.610 -0.0720  0.3748 -0.3231
  171SAPE   O1419239   5.337   2.203   2.552 -0.3264  0.7124  0.2416
  171SAPE   O1219240   5.266   2.439   2.570  0.2600 -0.0989 -0.5739
  171SAPE   O1119241   5.302   2.287   2.769 -0.1999  1.0553  0.0812
  171SAPE    C119242   5.429   2.351   2.796 -0.5368  0.2153 -0.0912
  171SAPE    HA19243   5.505   2.339   2.716 -0.5109  2.1157 -0.4043
  171SAPE    HB19244   5.417   2.462   2.797  0.7879  0.3946 -1.4025
  171SAPE    C219245   5.486   2.308   2.938 -0.3013 -0.5844 -0.3175
  171SAPE    HS19246   5.582   2.363   2.946 -0.2304 -0.9014  1.2221
  171SAPE   O2119247   5.520   2.174   2.941  0.1637  0.1172  0.1225
  171SAPE   C2119248   5.637   2.142   2.892  0.7287  0.4286  0.1724
  171SAPE   O2219249   5.721   2.220   2.846 -0.0616  0.0480  0.1556
  171SAPE   C2219250   5.669   1.992   2.931  0.0594  0.4179  0.4268
  171SAPE   H2R19251   5.631   1.970   3.033 -1.5291 -0.6727 -0.3508
  171SAPE   H2S19252   5.622   1.922   2.858  2.4793  0.4823 -1.3189
  171SAPE    C319253   5.386   2.345   3.061 -0.0372  0.2339  0.2290
  171SAPE    HX19254   5.408   2.298   3.159  2.6967 -0.7865 -0.7709
  171SAPE    HY19255   5.293   2.294   3.029 -0.7462  1.9036 -0.4911
  171SAPE   O3119256   5.352   2.493   3.055  0.5053  0.2016 -0.1020
  171SAPE   C3119257   5.340   2.549   3.172 -0.0515  0.4353  1.1492
  171SAPE   O3219258   5.356   2.495   3.277 -0.1846  0.4598 -0.1376
  171SAPE   C3219259   5.298   2.700   3.155 -0.1065 -0.6033 -0.2933
  171SAPE   H2X19260   5.233   2.694   3.065  0.6801 -0.2063 -0.9015
  171SAPE   H2Y19261   5.394   2.748   3.127 -0.6084 -0.0926 -1.1915
  171SAPE   C2319262   5.825   1.969   2.924 -0.2526 -0.4134  0.1028
  171SAPE   H3R19263   5.851   2.010   2.824 -2.3003  1.8223  0.4135
  171SAPE   H3S19264   5.837   1.858   2.924 -1.6808 -0.5847  0.4706
  171SAPE   C2419265   5.905   2.034   3.036  0.2760  0.0212 -0.5665
  171SAPE   H4R19266   5.867   2.138   3.042 -1.7767 -0.4623 -3.3577
  171SAPE   H4S19267   6.012   2.036   3.006  0.0967  2.2624 -1.2219
  171SAPE   C2519268   5.867   1.960   3.164 -0.9479  0.5121  0.7185
  171SAPE   H5R19269   5.846   1.853   3.146 -0.7917  0.9122 -2.4681
  171SAPE   C2619270   5.867   2.018   3.283 -0.0206  0.0668 -0.2154
  171SAPE   H6R19271   5.817   1.969   3.368  0.1099  0.5480  0.1416
  171SAPE   C2719272   5.906   2.161   3.308  0.2935 -0.3460 -0.0968
  171SAPE   H7R19273   5.946   2.214   3.218  2.7596 -1.0243  0.5162
  171SAPE   H7S19274   5.994   2.171   3.376  0.2586 -0.6693 -0.0059
  171SAPE   C2819275   5.789   2.230   3.376 -0.0380  0.1836 -0.3876
  171SAPE   H8R19276   5.699   2.246   3.314 -0.7450 -0.1616  0.5287
  171SAPE   C2919277   5.778   2.275   3.508 -0.9503 -0.4619  0.3766
  171SAPE   H9R19278   5.684   2.327   3.533 -0.9069  1.6563 -3.2047
  171SAPE  C21019279   5.892   2.259   3.608  0.1958 -0.2657 -0.2353
  171SAPE  H10R19280   5.983   2.284   3.551 -0.2791 -1.5815 -1.6445
  171SAPE  H10S19281   5.897   2.149   3.625 -1.2388 -0.8426 -3.0234
  171SAPE  C21119282   5.862   2.340   3.727  0.7356  0.5026 -0.0529
  171SAPE  H11R19283   5.848   2.448   3.709 -1.3549 -0.0437 -2.1549
  171SAPE  C21219284   5.848   2.296   3.851  0.3127  0.3012 -0.2644
  171SAPE  H12R19285   5.805   2.357   3.932  1.0056  0.3516  0.0759
  171SAPE  C21319286   5.871   2.157   3.901  0.4955  0.2133 -0.2094
  171SAPE  H13R19287   5.884   2.088   3.815  0.2249 -0.6440  0.4203
  171SAPE  H13S19288   5.780   2.110   3.943 -0.0153  2.0904  0.9130
  171SAPE  C21419289   5.983   2.136   3.997 -0.3897  0.2449  0.3251
  171SAPE  H14R19290   6.078   2.165   3.952 -1.4296 -0.5207 -2.6079
  171SAPE  C21519291   5.976   2.108   4.133 -0.6136 -0.4225  0.2119
  171SAPE  H15R19292   6.065   2.093   4.196  0.0012  2.6875  0.2573
  171SAPE  C21619293   5.853   2.093   4.215 -0.8788  0.1667 -0.2443
  171SAPE  H16R19294   5.760   2.066   4.161  0.4571 -1.7175 -1.7060
  171SAPE  H16S19295   5.842   2.187   4.274  1.0029  1.8395 -2.3573
  171SAPE  C21719296   5.876   1.980   4.320  0.2823  0.0593 -0.1156
  171SAPE  H17R19297   5.781   1.972   4.379 -0.9646 -0.1412 -2.0733
  171SAPE  H17S19298   5.961   2.024   4.377  0.9565 -0.1365 -0.9549
  171SAPE  C21819299   5.916   1.842   4.266 -0.6846 -0.1154  0.3161
  171SAPE  H18R19300   5.930   1.782   4.358  1.2666  0.8515  0.6975
  171SAPE  H18S19301   6.009   1.834   4.206  0.0800 -2.0195  1.6450
  171SAPE  C21919302   5.806   1.752   4.203  0.0704  0.5794  0.7364
  171SAPE  H19R19303   5.859   1.655   4.190 -1.6829 -0.1747 -1.5128
  171SAPE  H19S19304   5.774   1.802   4.109 -1.1556 -1.2452  0.1040
  171SAPE  C22019305   5.678   1.728   4.288  0.1271  0.4299 -0.1995
  171SAPE  H20R19306   5.619   1.821   4.306 -0.0931  0.0519  1.2291
  171SAPE  H20S19307   5.703   1.684   4.387  0.8969 -0.5729 -0.8231
  171SAPE  H20T19308   5.617   1.650   4.236  1.9612 -1.2110  0.0021
  171SAPE   C3319309   5.220   2.774   3.268 -0.0672  0.1270  0.3197
  171SAPE   H3X19310   5.191   2.871   3.222  0.2852  0.2846  0.4267
  171SAPE   H3Y19311   5.299   2.797   3.342  0.9754  0.8028 -0.9566
  171SAPE   C3419312   5.093   2.699   3.304  0.2293 -0.8741 -0.8474
  171SAPE   H4X19313   5.123   2.605   3.355  1.1297 -0.2117 -0.1225
  171SAPE   H4Y19314   5.040   2.665   3.212 -1.6884 -2.7159  0.8514
  171SAPE   C3519315   4.995   2.776   3.385  0.4904  0.2940  0.4825
  171SAPE   H5X19316   4.906   2.716   3.413 -0.0345  0.8043 -0.0462
  171SAPE   H5Y19317   4.957   2.850   3.311 -0.9600 -0.3627  0.5314
  171SAPE   C3619318   5.044   2.844   3.508  0.0386 -0.2136 -0.8084
  171SAPE   H6X19319   4.961   2.910   3.541  1.3287  1.3502 -0.6048
  171SAPE   H6Y19320   5.134   2.907   3.494 -0.4290  0.2522 -1.7930
  171SAPE   C3719321   5.076   2.752   3.630 -0.4553 -0.2112  0.1830
  171SAPE   H7X19322   5.157   2.683   3.600 -1.2406 -0.5953 -1.1296
  171SAPE   H7Y19323   4.991   2.682   3.645 -0.8678  0.2353 -0.0317
  171SAPE   C3819324   5.111   2.834   3.748 -0.4551 -0.2125  0.0543
  171SAPE   H8X19325   5.026   2.903   3.767  0.4392  0.8595  0.2667
  171SAPE   H8Y19326   5.189   2.911   3.733 -2.6078  2.1064  0.1319
  171SAPE   C3919327   5.163   2.745   3.864 -0.3829  0.5287 -0.0141
  171SAPE   H9X19328   5.266   2.707   3.847 -0.5977  0.4101 -1.0591
  171SAPE   H9Y19329   5.095   2.658   3.867 -0.2048  0.1164 -3.9032
  171SAPE  C31019330   5.149   2.803   3.999 -0.3870  0.5702  0.0763
  171SAPE  H10X19331   5.038   2.805   3.996 -0.4103 -0.3806 -2.2667
  171SAPE  H10Y19332   5.192   2.906   4.002 -0.3905  0.6008 -0.6081
  171SAPE  C31119333   5.196   2.712   4.110  0.2386 -0.5415 -0.5905
  171SAPE  H11X19334   5.304   2.718   4.134  0.3803  4.3166 -1.3898
  171SAPE  H11Y19335   5.175   2.607   4.079  0.8971 -0.5232 -1.1365
  171SAPE  C31219336   5.120   2.733   4.238  0.4377 -0.2391  0.2987
  171SAPE  H12X19337   5.012   2.738   4.214  0.7100  4.4756 -0.8819
  171SAPE  H12Y19338   5.160   2.828   4.279  0.7987  0.0927 -0.7879
  171SAPE  C31319339   5.126   2.624   4.340  0.5622 -0.0474 -0.0925
  171SAPE  H13X19340   5.232   2.619   4.372  0.8262  0.2460 -0.8765
  171SAPE  H13Y19341   5.090   2.523   4.310  0.5715  0.3260 -1.4610
  171SAPE  C31419342   5.044   2.676   4.463 -0.2043  0.4387  0.1854
  171SAPE  H14X19343   4.935   2.687   4.442 -0.9827 -0.9645  3.0307
  171SAPE  H14Y19344   5.084   2.777   4.490  0.4292  1.0285 -2.6294
  171SAPE  C31519345   5.054   2.585   4.589 -0.2866  0.1458  0.3101
  171SAPE  H15X19346   5.155   2.577   4.636 -0.0194  0.3245 -0.2299
  171SAPE  H15Y19347   5.017   2.486   4.555 -0.4944  0.4089 -0.2254
  171SAPE  C31619348   4.969   2.635   4.710  0.2250 -0.6047 -0.3642
  171SAPE  H16X19349   4.864   2.625   4.677  0.3681  0.0448 -1.0362
  171SAPE  H16Y19350   4.984   2.744   4.728  2.3533 -0.9405  0.1290
  171SAPE  C31719351   5.011   2.571   4.846 -0.3336 -0.7964 -0.6567
  171SAPE  H17X19352   5.120   2.580   4.866 -0.6252  0.4527  0.4985
  171SAPE  H17Y19353   4.998   2.461   4.845 -1.4555 -0.7372  1.7182
  171SAPE  C31819354   4.916   2.621   4.962 -0.5842 -0.0612 -0.0100
  171SAPE  H18X19355   4.816   2.574   4.949 -0.8863  0.7849 -0.8823
  171SAPE  H18Y19356   4.903   2.731   4.976 -1.9573 -0.4604  2.1876
  171SAPE  H18Z19357   4.955   2.577   5.056 -1.0368  1.6784  1.0518
  172SAPE     N19358   4.203   4.939   2.049  0.2147  0.1167  0.4851
  172SAPE   HN119359   4.184   5.005   2.127  0.9032  1.4277 -0.4263
  172SAPE   HN219360   4.137   4.860   2.066 -0.5634  0.4782 -0.7269
  172SAPE   HN319361   4.304   4.917   2.061  0.2164  0.6504  1.5937
  172SAPE   C1219362   4.170   5.023   1.932  0.2746 -0.0720  0.7616
  172SAPE  H12A19363   4.181   4.967   1.837  3.4639  0.7287  0.5510
  172SAPE  H12B19364   4.241   5.109   1.936 -2.6306  2.6166 -0.6933
  172SAPE   C1119365   4.036   5.093   1.949  1.2523 -0.1551  0.0724
  172SAPE  H11A19366   3.961   5.011   1.948  0.1943  0.6972  2.3361
  172SAPE  H11B19367   4.023   5.154   1.857  0.6982 -3.2519 -2.0516
  172SAPE     P19368   3.988   5.316   2.092 -0.2597  0.4768 -0.6690
  172SAPE   O1319369   4.048   5.369   2.217  0.1953 -0.4677  0.1775
  172SAPE   O1419370   4.007   5.391   1.967  0.1689  0.6523  0.0979
  172SAPE   O1219371   4.040   5.162   2.076 -0.1278 -0.0183 -0.6673
  172SAPE   O1119372   3.833   5.294   2.105  0.4293  0.1940 -0.0716
  172SAPE    C119373   3.769   5.212   2.204  0.0224  0.4216 -0.0779
  172SAPE    HA19374   3.689   5.154   2.153  2.3440 -1.8170 -1.4011
  172SAPE    HB19375   3.838   5.133   2.241 -0.7019 -0.6013 -0.8514
  172SAPE    C219376   3.696   5.279   2.323  0.4228  0.5421 -0.2928
  172SAPE    HS19377   3.616   5.349   2.290  1.7508  2.1296 -0.2497
  172SAPE   O2119378   3.801   5.328   2.403 -0.2302  0.2160  0.1297
  172SAPE   C2119379   3.820   5.456   2.406 -0.3337  0.2469  0.3555
  172SAPE   O2219380   3.773   5.542   2.332  0.4794  0.5061 -0.2098
  172SAPE   C2219381   3.925   5.481   2.519  0.3330  0.7901 -0.4533
  172SAPE   H2R19382   3.963   5.381   2.548  0.7579  1.0721 -0.0242
  172SAPE   H2S19383   3.999   5.555   2.480  0.0623  2.4737  2.0175
  172SAPE    C319384   3.626   5.173   2.420 -0.0632  0.8488  0.8035
  172SAPE    HX19385   3.696   5.088   2.438 -1.4491 -0.5890 -0.3388
  172SAPE    HY19386   3.545   5.125   2.362  2.0374  0.0312 -1.6347
  172SAPE   O3119387   3.589   5.215   2.551  0.1338 -0.3162 -0.1451
  172SAPE   C3119388   3.464   5.260   2.563  0.8041  0.3795 -0.4107
  172SAPE   O3219389   3.388   5.274   2.469  0.1222  0.2794  0.1549
  172SAPE   C3219390   3.418   5.285   2.705  0.5607  0.0654 -0.6248
  172SAPE   H2X19391   3.470   5.381   2.727 -0.5187  1.0549 -2.1550
  172SAPE   H2Y19392   3.451   5.194   2.760 -0.1865 -1.6396 -2.8586
  172SAPE   C2319393   3.861   5.547   2.646  0.1223 -0.6252  0.4237
  172SAPE   H3R19394   3.817   5.645   2.617 -1.7445 -1.4357  0.4161
  172SAPE   H3S19395   3.941   5.569   2.720 -1.7834 -1.1189  2.7663
  172SAPE   C2419396   3.745   5.464   2.705 -0.4814 -0.2917  0.0224
  172SAPE   H4R19397   3.779   5.359   2.712  0.8333  0.0397 -0.9587
  172SAPE   H4S19398   3.660   5.462   2.633  0.3244  1.3946 -1.0287
  172SAPE   C2519399   3.709   5.529   2.840 -0.5187  0.5111  1.4544
  172SAPE   H5R19400   3.726   5.637   2.851  0.8217  0.4422  0.3039
  172SAPE   C2619401   3.676   5.459   2.951 -0.3856 -0.0512  0.0351
  172SAPE   H6R19402   3.654   5.505   3.049  0.2797  0.2838  0.0317
  172SAPE   C2719403   3.649   5.310   2.953 -0.2043  0.8486  0.3712
  172SAPE   H7R19404   3.635   5.270   2.850  2.8730  1.5395 -0.4082
  172SAPE   H7S19405   3.551   5.296   3.004  0.0694  1.3936  1.0721
  172SAPE   C2819406   3.767   5.234   3.010  0.5267 -0.7195  0.5707
  172SAPE   H8R19407   3.815   5.167   2.936  3.6140  0.1460  1.6103
  172SAPE   C2919408   3.821   5.233   3.134  0.0064  0.2650 -0.3216
  172SAPE   H9R19409   3.906   5.163   3.142 -0.2108 -0.2306 -1.9436
  172SAPE  C21019410   3.769   5.299   3.261 -0.1510  0.4163  0.7206
  172SAPE  H10R19411   3.807   5.235   3.344  0.7866 -2.1027 -1.5190
  172SAPE  H10S19412   3.659   5.291   3.272 -0.1633 -0.4605  0.0004
  172SAPE  C21119413   3.804   5.443   3.284  0.1943 -0.0651  0.2316
  172SAPE  H11R19414   3.901   5.464   3.236  1.0521 -0.1682  1.8744
  172SAPE  C21219415   3.758   5.520   3.380  0.4594  0.3316  0.0780
  172SAPE  H12R19416   3.789   5.625   3.389  0.8011  0.1433  1.2214
  172SAPE  C21319417   3.646   5.479   3.479  0.0988 -0.3420 -0.0029
  172SAPE  H13R19418   3.680   5.378   3.509  0.0347 -0.1505  0.7240
  172SAPE  H13S19419   3.545   5.476   3.432 -1.2935  1.2594  2.6462
  172SAPE  C21419420   3.651   5.579   3.595  0.3518 -0.4190 -0.4160
  172SAPE  H14R19421   3.577   5.661   3.585 -1.6796 -1.9740  0.9041
  172SAPE  C21519422   3.729   5.571   3.705 -0.4571  0.5066  1.2211
  172SAPE  H15R19423   3.715   5.643   3.787 -1.5446  1.0652  0.5607
  172SAPE  C21619424   3.820   5.457   3.733  0.2709  0.0370 -0.1182
  172SAPE  H16R19425   3.926   5.467   3.701  0.6421 -1.1410  0.6837
  172SAPE  H16S19426   3.793   5.368   3.673 -2.5697  0.8732 -0.1928
  172SAPE  C21719427   3.795   5.408   3.874  0.1886  0.0831  0.3969
  172SAPE  H17R19428   3.692   5.365   3.871 -0.8033  2.1631  1.7675
  172SAPE  H17S19429   3.792   5.492   3.947  0.3108  0.6803 -0.2611
  172SAPE  C21819430   3.890   5.288   3.900 -0.1879  0.2406 -0.6240
  172SAPE  H18R19431   3.874   5.219   3.815 -0.6542  1.4840 -1.5603
  172SAPE  H18S19432   3.858   5.241   3.996 -1.2179 -1.1591 -1.6046
  172SAPE  C21919433   4.044   5.319   3.915  0.2727 -0.9646 -0.1913
  172SAPE  H19R19434   4.076   5.374   3.823  1.2546  0.7137  1.0993
  172SAPE  H19S19435   4.092   5.219   3.920  1.8474 -0.5131 -3.3455
  172SAPE  C22019436   4.078   5.415   4.035 -0.0528  0.3426 -0.2791
  172SAPE  H20R19437   4.034   5.368   4.126 -1.9782 -1.2467 -1.9360
  172SAPE  H20S19438   4.047   5.520   4.015  0.7921  0.7437  0.4745
  172SAPE  H20T19439   4.188   5.417   4.044  0.3316  0.9599 -3.7232
  172SAPE   C3319440   3.265   5.325   2.716 -0.4057 -0.7081  0.6233
  172SAPE   H3X19441   3.207   5.239   2.677  0.0586 -0.8378  0.2073
  172SAPE   H3Y19442   3.243   5.413   2.651 -0.6361 -0.0544  1.5609
  172SAPE   C3419443   3.226   5.379   2.851 -0.1325  0.1662 -0.7383
  172SAPE   H4X19444   3.118   5.404   2.853  0.0610  1.0398  1.1062
  172SAPE   H4Y19445   3.292   5.468   2.855  0.2636 -0.0707 -1.7062
  172SAPE   C3519446   3.256   5.280   2.965 -0.3133  0.1476 -0.0800
  172SAPE   H5X19447   3.367   5.282   2.967 -0.2524 -1.3601 -0.4421
  172SAPE   H5Y19448   3.227   5.177   2.935  1.3812 -0.5873  0.6804
  172SAPE   C3619449   3.185   5.321   3.090 -0.7267  0.1013 -0.0729
  172SAPE   H6X19450   3.219   5.250   3.167  0.7331  1.1226  0.2627
  172SAPE   H6Y19451   3.078   5.301   3.069 -1.3892  0.7334  2.3745
  172SAPE   C3719452   3.224   5.469   3.128 -0.2771  0.0882 -0.9322
  172SAPE   H7X19453   3.180   5.532   3.048 -0.6765  1.9716  0.7039
  172SAPE   H7Y19454   3.334   5.459   3.144 -0.8741 -3.5752  2.3192
  172SAPE   C3819455   3.162   5.532   3.263  0.3332 -0.3502 -0.3574
  172SAPE   H8X19456   3.051   5.534   3.255  0.4241 -1.7263 -3.4853
  172SAPE   H8Y19457   3.199   5.637   3.270  3.1867 -1.1979 -1.3575
  172SAPE   C3919458   3.211   5.465   3.389 -0.3079  1.1696 -0.7383
  172SAPE   H9X19459   3.320   5.446   3.376 -0.3965  0.0881  0.0188
  172SAPE   H9Y19460   3.162   5.366   3.397  0.6081  0.6309 -1.6008
  172SAPE  C31019461   3.189   5.545   3.520 -0.7667  0.3613  0.9112
  172SAPE  H10X19462   3.084   5.541   3.556 -1.8184 -3.1004 -1.8699
  172SAPE  H10Y19463   3.213   5.652   3.507  0.3365 -0.0545 -0.8302
  172SAPE  C31119464   3.278   5.486   3.638 -0.3278 -0.8001  0.3939
  172SAPE  H11X19465   3.383   5.497   3.601 -0.0338 -0.1443  1.3685
  172SAPE  H11Y19466   3.256   5.377   3.639 -1.2199 -0.6288  1.2448
  172SAPE  C31219467   3.262   5.554   3.779  0.0728  0.1722  0.5392
  172SAPE  H12X19468   3.155   5.547   3.808  0.3889 -0.0387  1.6877
  172SAPE  H12Y19469   3.272   5.664   3.788 -0.8863  0.3998 -0.8833
  172SAPE  C31319470   3.339   5.485   3.890 -0.1171  0.0652  0.4639
  172SAPE  H13X19471   3.449   5.484   3.873 -0.0166 -0.6269  1.0975
  172SAPE  H13Y19472   3.310   5.379   3.877 -0.2578  0.1638 -0.0234
  172SAPE  C31419473   3.293   5.533   4.029 -0.4506 -0.1885  0.1560
  172SAPE  H14X19474   3.192   5.505   4.067 -0.2562  0.1214  0.9070
  172SAPE  H14Y19475   3.282   5.643   4.015  0.4006 -0.1197 -0.0065
  172SAPE  C31519476   3.403   5.509   4.133 -0.2426  0.5489 -0.2140
  172SAPE  H15X19477   3.500   5.547   4.095 -0.3824  0.0432 -1.0994
  172SAPE  H15Y19478   3.416   5.399   4.147 -0.7980  0.4967 -0.0828
  172SAPE  C31619479   3.375   5.590   4.266 -0.3465 -0.0154  0.3673
  172SAPE  H16X19480   3.318   5.682   4.243 -1.2790 -0.4210  0.9716
  172SAPE  H16Y19481   3.474   5.612   4.310  0.4124 -1.9829 -0.2493
  172SAPE  C31719482   3.292   5.521   4.374  0.2708 -0.7632 -0.7704
  172SAPE  H17X19483   3.314   5.412   4.380  0.3746 -0.9917 -3.6042
  172SAPE  H17Y19484   3.184   5.524   4.346 -0.0604 -0.3284  0.5109
  172SAPE  C31819485   3.288   5.587   4.515  0.3264 -0.0865  0.2213
  172SAPE  H18X19486   3.259   5.505   4.584  1.9699 -0.7704  0.1442
  172SAPE  H18Y19487   3.214   5.669   4.523 -0.1749 -0.5334  0.2860
  172SAPE  H18Z19488   3.382   5.634   4.550  0.7774 -0.1252 -0.8914
  173SLPC     N19489   1.650   0.152   6.614 -0.6978 -0.1084  0.2220
  173SLPC   C1319490   1.606   0.294   6.597 -0.2858  0.1800  0.5190
  173SLPC  H13A19491   1.522   0.317   6.660  0.6952 -0.8957  2.3179
  173SLPC  H13B19492   1.691   0.343   6.642 -1.2109  0.2914  2.2108
  173SLPC  H13C19493   1.594   0.328   6.495 -1.7678  0.0065  0.6117
  173SLPC   C1419494   1.546   0.065   6.561 -0.4141  0.3790  0.4693
  173SLPC  H14A19495   1.543   0.079   6.454  1.8753 -2.7259 -0.1603
  173SLPC  H14B19496   1.575  -0.037   6.582 -0.9119  0.6927  2.9528
  173SLPC  H14C19497   1.445   0.073   6.597 -1.2242 -1.5161 -1.1729
  173SLPC   C1519498   1.669   0.125   6.764 -0.6070 -0.0820 -0.4148
  173SLPC  H15A19499   1.570   0.118   6.806 -0.8383  2.4889 -0.3667
  173SLPC  H15B19500   1.726   0.034   6.778  1.5056  1.0367 -1.2096
  173SLPC  H15C19501   1.708   0.207   6.823 -1.0455  0.9837 -1.5432
  173SLPC   C1219502   1.779   0.128   6.533  0.5511 -0.7677 -0.0802
  173SLPC  H12A19503   1.864   0.167   6.587 -0.7254  2.0849  0.0476
  173SLPC  H12B19504   1.761   0.178   6.439 -0.7717  0.1672  0.6258
  173SLPC   C1119505   1.812  -0.022   6.498 -0.3954 -0.4637  0.4260
  173SLPC  H11A19506   1.902  -0.023   6.433 -0.4533  1.1219  0.2910
  173SLPC  H11B19507   1.733  -0.073   6.438  0.0521 -0.0950 -0.4915
  173SLPC     P19508   1.989  -0.096   6.672  0.3053 -0.0338 -0.2026
  173SLPC   O1319509   2.046   0.036   6.664 -0.6461  0.0800 -0.0944
  173SLPC   O1419510   1.984  -0.167   6.801  0.1648  0.1101 -0.7103
  173SLPC   O1219511   1.834  -0.088   6.622  0.0401  0.2769 -0.5087
  173SLPC   O1119512   2.056  -0.186   6.555 -0.4226  0.3072 -0.0927
  173SLPC    C119513   2.028  -0.327   6.570  0.0916 -0.0203 -0.1215
  173SLPC    HA19514   2.083  -0.368   6.657  0.0134 -1.3051 -0.6642
  173SLPC    HB19515   1.919  -0.334   6.592 -0.2164  0.1979 -1.4805
  173SLPC    C219516   2.046  -0.417   6.442  0.1173 -0.1048  0.6679
  173SLPC    HS19517   2.147  -0.387   6.405  0.1493 -1.4012 -0.3802
  173SLPC   O2119518   1.942  -0.383   6.352 -0.4065  0.0653  0.1374
  173SLPC   C2119519   1.982  -0.327   6.237  0.7720  0.2784 -0.1379
  173SLPC   O2219520   2.097  -0.295   6.205  0.1321  0.4343 -0.5445
  173SLPC   C2219521   1.857  -0.323   6.148 -0.0409  0.2228  0.3775
  173SLPC   H2R19522   1.767  -0.342   6.210 -0.2290  1.6565  0.5710
  173SLPC   H2S19523   1.849  -0.219   6.110 -0.7757  0.1835  0.4067
  173SLPC    C319524   2.046  -0.567   6.469  0.2665 -0.1926  0.6660
  173SLPC    HX19525   1.953  -0.609   6.513 -0.6507 -0.3742 -1.3294
  173SLPC    HY19526   2.136  -0.593   6.529  0.6712 -0.0367  0.1310
  173SLPC   O3119527   2.074  -0.629   6.342 -0.2781 -0.6539  0.3729
  173SLPC   C3119528   1.977  -0.680   6.276  0.4190 -0.0434  0.7996
  173SLPC   O3219529   1.856  -0.669   6.310 -0.1750  0.8104 -0.1355
  173SLPC   C3219530   2.020  -0.734   6.147 -0.5762 -0.1155  0.4389
  173SLPC   H2X19531   2.103  -0.807   6.162 -0.0234  0.1526 -1.0603
  173SLPC   H2Y19532   2.056  -0.645   6.091 -0.7671 -0.2145  0.1534
  173SLPC   C2319533   1.870  -0.420   6.021 -0.1568 -0.3944  0.4589
  173SLPC   H3R19534   1.883  -0.524   6.059 -2.6550 -0.0780  2.3680
  173SLPC   H3S19535   1.955  -0.387   5.956 -0.4692  0.7933  0.6328
  173SLPC   C2419536   1.755  -0.412   5.935  0.5673 -0.2000  0.0017
  173SLPC   H4R19537   1.739  -0.307   5.904  0.6321  0.1755  1.1612
  173SLPC   H4S19538   1.660  -0.447   5.980 -0.0366 -0.0219 -1.1220
  173SLPC   C2519539   1.767  -0.506   5.813  0.2454  0.1736  0.5934
  173SLPC   H5R19540   1.820  -0.596   5.851  0.4810  0.3195  0.6178
  173SLPC   H5S19541   1.828  -0.449   5.740  0.3888  0.4366  0.9151
  173SLPC   C2619542   1.637  -0.544   5.749  0.6699 -0.1273 -0.1664
  173SLPC   H6R19543   1.592  -0.605   5.831  3.2259 -0.2748  1.2667
  173SLPC   H6S19544   1.658  -0.612   5.664  1.8575 -0.2661  0.2166
  173SLPC   C2719545   1.553  -0.422   5.710  0.0364  0.1674 -0.1470
  173SLPC   H7R19546   1.521  -0.358   5.795  1.3303 -0.3451  0.7686
  173SLPC   H7S19547   1.460  -0.465   5.669 -0.1106  2.3987 -2.3621
  173SLPC   C2819548   1.617  -0.338   5.601  0.9072 -0.4216  0.4499
  173SLPC   H8R19549   1.662  -0.395   5.517 -0.8150 -0.3259 -0.5732
  173SLPC   H8S19550   1.700  -0.284   5.653  0.9519  1.6234 -1.5756
  173SLPC   C2919551   1.502  -0.245   5.553  0.1317 -0.5485  0.3390
  173SLPC   H9R19552   1.430  -0.217   5.631 -0.2019  1.5459 -0.6486
  173SLPC  C21019553   1.499  -0.175   5.440  0.3615 -0.7169  0.6250
  173SLPC  H10R19554   1.413  -0.111   5.414  0.6247  0.0509  1.5739
  173SLPC  C21119555   1.603  -0.182   5.332  0.2154  0.3376  0.5322
  173SLPC  H11R19556   1.700  -0.196   5.385  0.3254 -0.5434  0.1201
  173SLPC  H11S19557   1.620  -0.084   5.282 -0.4758 -0.7740 -2.0424
  173SLPC  C21219558   1.592  -0.295   5.236  0.2515 -0.1970  0.2094
  173SLPC  H12R19559   1.591  -0.398   5.276 -4.7873 -0.9350 -1.0776
  173SLPC  C21319560   1.577  -0.281   5.105  0.7830 -0.1642  0.7256
  173SLPC  H13R19561   1.558  -0.373   5.048 -2.4007 -0.3497  1.8682
  173SLPC  C21419562   1.555  -0.157   5.016  0.3964  0.1170  1.0329
  173SLPC  H14R19563   1.536  -0.064   5.073 -1.8548 -0.0502  0.6513
  173SLPC  H14S19564   1.467  -0.165   4.949  0.5685 -1.1267  0.9204
  173SLPC  C21519565   1.684  -0.137   4.927 -0.3817 -0.7594  0.1687
  173SLPC  H15R19566   1.772  -0.122   4.993 -0.5726  1.1600  0.0472
  173SLPC  H15S19567   1.672  -0.037   4.880  2.4001 -0.7079 -0.6032
  173SLPC  C21619568   1.711  -0.244   4.821 -0.2549  0.2394  0.3911
  173SLPC  H16R19569   1.732  -0.342   4.869  0.2325 -0.2918 -0.8616
  173SLPC  H16S19570   1.804  -0.208   4.771  0.4328 -2.1947 -0.2263
  173SLPC  C21719571   1.600  -0.270   4.709  0.7726 -0.0524  0.0212
  173SLPC  H17R19572   1.499  -0.294   4.748  1.0351  0.7732  1.2767
  173SLPC  H17S19573   1.622  -0.345   4.630 -2.7718  0.1393 -1.3125
  173SLPC  C21819574   1.574  -0.144   4.622 -0.1918 -0.7191  0.0558
  173SLPC  H18R19575   1.542  -0.059   4.686  4.2850  2.7762 -1.7826
  173SLPC  H18S19576   1.494  -0.163   4.547 -2.1744  1.5001  1.4657
  173SLPC  H18T19577   1.674  -0.122   4.578  0.0840 -0.8093  0.6302
  173SLPC   C3319578   1.911  -0.808   6.066 -0.6402 -0.0357  1.0824
  173SLPC   H3X19579   1.825  -0.738   6.067 -1.7907 -1.3504 -0.3586
  173SLPC   H3Y19580   1.877  -0.894   6.128 -0.2773 -0.1567  1.1176
  173SLPC   C3419581   1.954  -0.846   5.924  0.1979  0.3084  0.4699
  173SLPC   H4X19582   2.049  -0.903   5.929 -2.5195 -4.8265  0.2110
  173SLPC   H4Y19583   1.982  -0.762   5.857  0.3263 -0.4498 -0.4362
  173SLPC   C3519584   1.853  -0.931   5.847 -0.2097 -0.4678 -0.3424
  173SLPC   H5X19585   1.759  -0.874   5.831 -0.7287 -1.4517 -0.8838
  173SLPC   H5Y19586   1.830  -1.017   5.913 -2.1730  1.5840  1.8404
  173SLPC   C3619587   1.913  -0.980   5.718 -0.2422  0.3980 -0.1717
  173SLPC   H6X19588   2.014  -1.024   5.734 -0.6271  0.0616  1.5663
  173SLPC   H6Y19589   1.929  -0.892   5.652  2.7401 -0.2123 -0.4057
  173SLPC   C3719590   1.807  -1.068   5.650 -0.2771  0.3205  0.2315
  173SLPC   H7X19591   1.710  -1.025   5.681 -1.8430 -0.2815 -3.3627
  173SLPC   H7Y19592   1.809  -1.171   5.692  1.1031  0.6498  1.0687
  173SLPC   C3819593   1.800  -1.056   5.498 -0.0226 -0.0115  0.5466
  173SLPC   H8X19594   1.807  -0.952   5.458 -2.3637 -0.0359 -0.1212
  173SLPC   H8Y19595   1.701  -1.087   5.458  1.8229 -0.6993 -4.2007
  173SLPC   C3919596   1.900  -1.155   5.432  0.1009 -0.6210 -0.4266
  173SLPC   H9X19597   1.893  -1.265   5.444  0.3563 -0.5536  0.4294
  173SLPC   H9Y19598   1.999  -1.122   5.470 -0.0080  1.0787 -1.4951
  173SLPC  C31019599   1.913  -1.122   5.283 -0.1687  0.0178  0.2036
  173SLPC  H10X19600   1.951  -1.017   5.282  0.5798 -0.2372 -1.5151
  173SLPC  H10Y19601   1.818  -1.133   5.226 -1.0121  2.7251  0.9418
  173SLPC  C31119602   2.020  -1.208   5.217 -0.5919  0.1502 -0.2832
  173SLPC  H11X19603   2.001  -1.317   5.228 -1.3624  0.1924 -1.1375
  173SLPC  H11Y19604   2.120  -1.192   5.263 -1.2995  0.7033  1.1283
  173SLPC  C31219605   2.038  -1.182   5.067 -0.4306 -0.2048 -0.3301
  173SLPC  H12X19606   2.073  -1.078   5.052 -1.7139  0.2115 -0.6315
  173SLPC  H12Y19607   1.937  -1.186   5.019 -1.3550  1.1763  1.3574
  173SLPC  C31319608   2.144  -1.274   4.999 -0.0421  0.5246 -0.0340
  173SLPC  H13X19609   2.122  -1.376   5.036 -2.4881  1.9554  2.9009
  173SLPC  H13Y19610   2.237  -1.235   5.044 -0.2637 -0.1873  1.0783
  173SLPC  C31419611   2.156  -1.258   4.849 -0.4766 -0.0751  0.1998
  173SLPC  H14X19612   2.141  -1.150   4.829  1.1834  0.3688  1.2161
  173SLPC  H14Y19613   2.080  -1.322   4.799  0.1906 -0.8222  0.1312
  173SLPC  C31519614   2.300  -1.296   4.798 -0.2625  0.3044  0.8039
  173SLPC  H15X19615   2.328  -1.388   4.853 -1.1935 -1.5529 -1.6817
  173SLPC  H15Y19616   2.369  -1.217   4.836  0.9336  0.4042 -1.4347
  173SLPC  C31619617   2.311  -1.315   4.655 -0.5060 -0.2898 -0.6087
  173SLPC  H16X19618   2.416  -1.327   4.620 -0.5069 -0.7639 -0.4533
  173SLPC  H16Y19619   2.264  -1.225   4.608 -0.4246 -1.3381 -2.8213
  173SLPC  C31719620   2.241  -1.438   4.609  0.8500 -0.2254 -0.5831
  173SLPC  H17X19621   2.133  -1.438   4.634  0.8751 -1.7651 -0.3591
  173SLPC  H17Y19622   2.295  -1.519   4.663 -1.5765 -1.0538  0.7462
  173SLPC  C31819623   2.251  -1.474   4.467 -0.0486  0.3164  0.0115
  173SLPC  H18X19624   2.358  -1.494   4.445  0.1191  1.0044  0.1856
  173SLPC  H18Y19625   2.225  -1.389   4.400 -1.1776  1.3652  1.7237
  173SLPC  H18Z19626   2.202  -1.567   4.432 -0.9595  1.1708 -1.0742
  174SLPC     N19627   5.923   6.487   6.907  0.0380  0.0508  0.7512
  174SLPC   C1319628   5.787   6.553   6.918  0.7599  0.5854 -0.0095
  174SLPC  H13A19629   5.757   6.555   7.022  1.8391  0.7225  0.3099
  174SLPC  H13B19630   5.811   6.646   6.869  0.5936  1.3142  1.2550
  174SLPC  H13C19631   5.715   6.499   6.859  0.5879 -0.0121  0.7233
  174SLPC   C1419632   5.937   6.357   6.979 -0.4196  0.1531 -0.1349
  174SLPC  H14A19633   5.905   6.359   7.082 -0.7081  1.2800 -0.2239
  174SLPC  H14B19634   5.874   6.280   6.937 -0.4765 -0.7266  1.4816
  174SLPC  H14C19635   6.039   6.322   6.975 -0.6898 -0.9090  1.3814
  174SLPC   C1519636   6.019   6.582   6.976 -0.1602  0.2258 -0.1487
  174SLPC  H15A19637   6.002   6.582   7.082 -1.9976  1.0685 -0.4186
  174SLPC  H15B19638   6.120   6.551   6.951  0.5598  0.5463  2.1544
  174SLPC  H15C19639   5.999   6.683   6.943  0.2952  0.4372  0.2190
  174SLPC   C1219640   5.962   6.463   6.761  0.1267 -0.0039  0.1693
  174SLPC  H12A19641   6.063   6.427   6.771  0.3778  1.0425  1.7537
  174SLPC  H12B19642   5.971   6.558   6.711  2.1102  1.1632  2.5511
  174SLPC   C1119643   5.877   6.375   6.666  0.1469  0.4472  0.0355
  174SLPC  H11A19644   5.887   6.269   6.697 -0.0733 -0.5073 -2.8640
  174SLPC  H11B19645   5.924   6.368   6.566 -0.8696 -0.1542 -0.4120
  174SLPC     P19646   5.623   6.333   6.684 -0.3827  0.3029  0.0112
  174SLPC   O1319647   5.665   6.193   6.703  0.2564  0.0803  0.2138
  174SLPC   O1419648   5.544   6.397   6.792 -0.0564 -0.4992 -0.0780
  174SLPC   O1219649   5.748   6.423   6.655  0.2935  0.1890  0.4302
  174SLPC   O1119650   5.534   6.345   6.549 -0.1090  0.1571  0.3358
  174SLPC    C119651   5.501   6.475   6.497  0.0485  0.5893 -0.2220
  174SLPC    HA19652   5.527   6.562   6.562  0.3439  0.7859 -0.5970
  174SLPC    HB19653   5.557   6.495   6.403  0.0476 -0.3472 -0.4337
  174SLPC    C219654   5.349   6.485   6.483  0.0383 -0.2614 -0.9347
  174SLPC    HS19655   5.321   6.399   6.418 -1.8508  0.3820 -1.0198
  174SLPC   O2119656   5.308   6.607   6.423 -0.3437 -0.7053 -0.2081
  174SLPC   C2119657   5.322   6.611   6.292  0.6096  0.1469 -0.0458
  174SLPC   O2219658   5.371   6.527   6.220  0.0207  0.0155 -0.7818
  174SLPC   C2219659   5.284   6.748   6.239  0.4982 -0.3583  0.1966
  174SLPC   H2R19660   5.284   6.820   6.324 -0.2913  2.3324 -1.9528
  174SLPC   H2S19661   5.361   6.784   6.168  0.7607  0.3571  0.8224
  174SLPC    C319662   5.274   6.462   6.622 -0.1930  0.6459 -0.4832
  174SLPC    HX19663   5.293   6.539   6.700 -1.3372 -0.4292  0.8935
  174SLPC    HY19664   5.318   6.369   6.665  0.5235  1.3915  0.4638
  174SLPC   O3119665   5.125   6.463   6.605  0.3099 -0.0249 -0.3731
  174SLPC   C3119666   5.071   6.341   6.574 -0.2193  0.0480  0.2744
  174SLPC   O3219667   5.133   6.237   6.572  0.4554  0.7496 -0.0945
  174SLPC   C3219668   4.932   6.362   6.526 -0.1953 -0.4514 -1.0796
  174SLPC   H2X19669   4.894   6.437   6.599 -0.9446 -2.5589  0.8133
  174SLPC   H2Y19670   4.875   6.266   6.522  1.1399 -1.3012 -0.5739
  174SLPC   C2319671   5.142   6.744   6.190  0.9299 -0.4703 -0.3741
  174SLPC   H3R19672   5.107   6.850   6.191 -1.2955 -1.1558  1.3537
  174SLPC   H3S19673   5.074   6.689   6.257 -0.3564 -0.4694 -1.6296
  174SLPC   C2419674   5.122   6.677   6.056 -1.0145  0.0260  0.1927
  174SLPC   H4R19675   5.014   6.692   6.034 -1.1506 -1.0205  0.1082
  174SLPC   H4S19676   5.142   6.569   6.067 -3.3546 -0.8297 -2.6259
  174SLPC   C2519677   5.216   6.737   5.945  0.2474  0.5014 -0.6671
  174SLPC   H5R19678   5.317   6.707   5.981  0.1533  2.3245  1.3174
  174SLPC   H5S19679   5.226   6.848   5.956  1.4586  0.3596 -0.1609
  174SLPC   C2619680   5.185   6.688   5.808  0.2018 -0.2503  0.2098
  174SLPC   H6R19681   5.077   6.713   5.800  0.1723  0.4476  2.1933
  174SLPC   H6S19682   5.210   6.580   5.803 -0.4772 -0.3747 -2.1277
  174SLPC   C2719683   5.275   6.750   5.700  0.1388 -0.2771 -0.6775
  174SLPC   H7R19684   5.378   6.756   5.742  0.6148  0.0234 -1.8483
  174SLPC   H7S19685   5.237   6.852   5.675  0.7750  0.5881  1.5724
  174SLPC   C2819686   5.274   6.671   5.570 -0.5284 -0.3137 -0.4893
  174SLPC   H8R19687   5.294   6.563   5.589  0.8292 -0.2025 -1.1556
  174SLPC   H8S19688   5.349   6.717   5.502 -0.1940 -0.8552 -0.4909
  174SLPC   C2919689   5.134   6.679   5.516 -0.2733 -0.8730  0.2344
  174SLPC   H9R19690   5.060   6.639   5.587 -1.2946  0.4457 -0.0444
  174SLPC  C21019691   5.107   6.713   5.391  0.3218  0.3869  0.0642
  174SLPC  H10R19692   5.008   6.680   5.356 -0.3027  0.6503  1.5199
  174SLPC  C21119693   5.199   6.756   5.283 -0.0264  0.3749  0.0829
  174SLPC  H11R19694   5.289   6.693   5.270 -0.9770 -1.1312  0.5556
  174SLPC  H11S19695   5.237   6.859   5.301  1.8639 -0.0933 -0.9448
  174SLPC  C21219696   5.136   6.773   5.141  0.6087  0.2365 -0.8276
  174SLPC  H12R19697   5.117   6.878   5.114 -1.5511 -0.5373 -2.6275
  174SLPC  C21319698   5.108   6.666   5.063 -0.1438 -0.4054 -0.2320
  174SLPC  H13R19699   5.076   6.682   4.959  0.9743 -2.1448 -0.8977
  174SLPC  C21419700   5.141   6.521   5.086  0.4708 -0.1996 -0.2297
  174SLPC  H14R19701   5.045   6.465   5.084  0.8648 -0.8783 -0.5595
  174SLPC  H14S19702   5.188   6.513   5.187 -2.1916  1.2464  1.2239
  174SLPC  C21519703   5.237   6.457   4.987 -0.2830 -0.9804 -0.1543
  174SLPC  H15R19704   5.274   6.361   5.028  0.3803 -0.7186 -0.1282
  174SLPC  H15S19705   5.329   6.518   4.975 -0.9241 -0.1076 -0.7714
  174SLPC  C21619706   5.169   6.412   4.853  0.2285 -0.2599  0.5517
  174SLPC  H16R19707   5.157   6.498   4.784 -0.6120 -0.4316  0.4701
  174SLPC  H16S19708   5.071   6.362   4.869 -0.5214  0.7479 -0.6999
  174SLPC  C21719709   5.261   6.312   4.779 -0.5906 -0.0852 -0.5394
  174SLPC  H17R19710   5.293   6.224   4.839  1.0413  0.0447 -1.1882
  174SLPC  H17S19711   5.359   6.357   4.753 -0.1405  0.1006  1.3325
  174SLPC  C21819712   5.186   6.259   4.661 -0.1805 -0.3132 -0.2011
  174SLPC  H18R19713   5.099   6.195   4.687 -1.0522  1.3149  1.1792
  174SLPC  H18S19714   5.254   6.203   4.594 -0.9208 -0.6897 -0.6542
  174SLPC  H18T19715   5.147   6.335   4.589 -0.0820 -0.0711 -0.0030
  174SLPC   C3319716   4.921   6.435   6.395 -0.0940  0.0824 -0.0993
  174SLPC   H3X19717   4.984   6.527   6.390 -0.5049  0.4006  0.4310
  174SLPC   H3Y19718   4.822   6.487   6.390 -0.9882 -1.3118  1.8835
  174SLPC   C3419719   4.943   6.347   6.272 -0.0607  0.3053 -0.5699
  174SLPC   H4X19720   4.914   6.246   6.307  1.2210  1.1627  3.4751
  174SLPC   H4Y19721   5.049   6.340   6.239  0.4526  2.1947  0.5227
  174SLPC   C3519722   4.852   6.381   6.154 -0.3906 -0.1467 -0.0229
  174SLPC   H5X19723   4.834   6.490   6.165 -0.1378  0.2112 -2.5847
  174SLPC   H5Y19724   4.753   6.332   6.162 -0.4822  0.0335 -0.0566
  174SLPC   C3619725   4.915   6.352   6.013  0.0660 -1.0252 -0.9878
  174SLPC   H6X19726   4.942   6.245   6.015  1.1134 -0.7756  1.6490
  174SLPC   H6Y19727   5.008   6.412   6.002 -0.8471  0.4907 -0.8152
  174SLPC   C3719728   4.821   6.379   5.898 -0.0414  0.4261 -0.0586
  174SLPC   H7X19729   4.748   6.463   5.906 -0.1425  0.2959  0.4005
  174SLPC   H7Y19730   4.763   6.285   5.883  0.2057  0.3555 -0.6067
  174SLPC   C3819731   4.895   6.394   5.769 -0.1171  0.2817 -0.1400
  174SLPC   H8X19732   4.973   6.316   5.755 -0.6993 -0.7855  2.0760
  174SLPC   H8Y19733   4.939   6.495   5.760 -0.6944  0.5031 -0.5950
  174SLPC   C3919734   4.801   6.383   5.648 -0.0480 -0.8792  0.9212
  174SLPC   H9X19735   4.746   6.478   5.632  1.4556  0.3839  2.8854
  174SLPC   H9Y19736   4.729   6.300   5.667  0.6151 -1.1760  2.2166
  174SLPC  C31019737   4.869   6.351   5.515  0.2001  0.5406  0.1090
  174SLPC  H10X19738   4.945   6.270   5.519 -2.0646 -1.7941 -0.9345
  174SLPC  H10Y19739   4.913   6.449   5.489  0.6206  0.8124  1.7700
  174SLPC  C31119740   4.772   6.303   5.408 -0.0003 -0.5128  0.1117
  174SLPC  H11X19741   4.706   6.388   5.383 -0.1572 -0.0202  2.0351
  174SLPC  H11Y19742   4.708   6.221   5.448  2.6971 -3.9732 -2.0661
  174SLPC  C31219743   4.835   6.264   5.271  0.2397  0.3104 -0.3176
  174SLPC  H12X19744   4.905   6.181   5.293 -0.6080 -0.2286  0.4623
  174SLPC  H12Y19745   4.899   6.347   5.233  1.0069 -0.3359 -0.4596
  174SLPC  C31319746   4.726   6.240   5.171 -0.1129  0.1423  0.9914
  174SLPC  H13X19747   4.663   6.328   5.147  2.1162  1.6376  0.2877
  174SLPC  H13Y19748   4.653   6.172   5.220  0.4261 -0.7453  0.5865
  174SLPC  C31419749   4.778   6.193   5.028  0.2148  0.5381 -0.5388
  174SLPC  H14X19750   4.832   6.280   4.986 -0.3689  0.2306 -1.9690
  174SLPC  H14Y19751   4.691   6.174   4.962  0.1908  2.4214 -1.0928
  174SLPC  C31519752   4.873   6.071   5.042 -0.1851 -0.0420 -0.0389
  174SLPC  H15X19753   4.817   5.986   5.087  1.1898 -1.7725 -1.4386
  174SLPC  H15Y19754   4.969   6.087   5.096  0.8350 -0.7531 -1.5762
  174SLPC  C31619755   4.914   6.036   4.895 -0.4769 -0.4234 -0.2780
  174SLPC  H16X19756   5.001   5.967   4.895  1.2602  1.4544 -4.2050
  174SLPC  H16Y19757   4.957   6.128   4.849  0.6435 -0.5194  0.5449
  174SLPC  C31719758   4.809   5.967   4.814 -0.6774 -0.6240  0.4932
  174SLPC  H17X19759   4.744   6.043   4.765  0.7606  0.8102  0.7450
  174SLPC  H17Y19760   4.735   5.919   4.882 -1.2811  0.6582  0.7736
  174SLPC  C31819761   4.874   5.864   4.715  0.2740  0.0541 -0.5665
  174SLPC  H18X19762   4.922   5.774   4.758 -0.7317 -0.4117 -0.3852
  174SLPC  H18Y19763   4.940   5.919   4.646  0.4130  1.2247  0.4592
  174SLPC  H18Z19764   4.789   5.818   4.660 -1.1111  1.4911  0.2589
  175SLPC     N19765   0.669   3.507   6.835  0.2841 -0.2612 -0.3223
  175SLPC   C1319766   0.695   3.648   6.862 -0.1323 -0.2024  0.0658
  175SLPC  H13A19767   0.778   3.665   6.929  0.0750  0.8908 -0.4447
  175SLPC  H13B19768   0.710   3.708   6.774 -0.6256  1.3625  1.0122
  175SLPC  H13C19769   0.611   3.693   6.913  0.5582  0.0701  0.9898
  175SLPC   C1419770   0.539   3.487   6.756  0.0615 -0.1649  0.3003
  175SLPC  H14A19771   0.455   3.538   6.800  1.0016 -0.8697  3.1270
  175SLPC  H14B19772   0.557   3.532   6.659  0.9515 -1.4992 -0.1905
  175SLPC  H14C19773   0.525   3.381   6.749  2.0234 -0.3711 -1.7320
  175SLPC   C1519774   0.647   3.437   6.961 -0.3610 -0.0159 -0.1317
  175SLPC  H15A19775   0.639   3.330   6.957 -1.5402  0.0054  0.9808
  175SLPC  H15B19776   0.730   3.452   7.030 -0.9239 -0.1144  0.5757
  175SLPC  H15C19777   0.562   3.479   7.013  1.0765  2.9046  0.0628
  175SLPC   C1219778   0.773   3.435   6.757 -0.0917 -0.4587 -0.1749
  175SLPC  H12A19779   0.864   3.423   6.815 -0.6470 -2.1010  0.4013
  175SLPC  H12B19780   0.799   3.499   6.673  1.0606  0.2992  0.7126
  175SLPC   C1119781   0.759   3.292   6.699 -0.3816 -0.1244  1.0769
  175SLPC  H11A19782   0.852   3.267   6.644 -0.3134 -2.1211  2.0351
  175SLPC  H11B19783   0.673   3.298   6.628 -0.4014  0.8508  1.1726
  175SLPC     P19784   0.840   3.128   6.894 -0.2191 -0.1988 -0.3183
  175SLPC   O1319785   0.924   3.232   6.957  0.6226  0.6425 -0.2821
  175SLPC   O1419786   0.768   3.033   6.980 -1.0481 -0.1139 -0.2613
  175SLPC   O1219787   0.733   3.185   6.789  0.3678  0.4190  0.3472
  175SLPC   O1119788   0.931   3.053   6.793 -0.3173 -1.3349  0.0300
  175SLPC    C119789   0.876   2.952   6.702 -0.3447 -0.5340 -0.0345
  175SLPC    HA19790   0.887   2.853   6.751 -0.2687 -0.4578  0.1061
  175SLPC    HB19791   0.771   2.958   6.667 -0.3443 -2.5803 -0.5073
  175SLPC    C219792   0.957   2.947   6.573 -0.4337 -0.2279 -0.2172
  175SLPC    HS19793   1.062   2.920   6.597 -1.2149 -0.8148  3.1485
  175SLPC   O2119794   0.937   3.075   6.506 -0.5491  0.5485 -0.0856
  175SLPC   C2119795   1.043   3.110   6.431 -0.0845 -0.4681  0.1709
  175SLPC   O2219796   1.157   3.067   6.442 -0.0610 -0.3507 -0.2315
  175SLPC   C2219797   1.003   3.232   6.329  0.7646  0.4599  0.2046
  175SLPC   H2R19798   0.950   3.188   6.242 -0.5488  1.6647  0.3551
  175SLPC   H2S19799   0.938   3.299   6.389  0.0437  0.0797 -0.1423
  175SLPC    C319800   0.906   2.830   6.491  0.7406  0.6630  0.4446
  175SLPC    HX19801   0.802   2.853   6.459  1.0889 -0.5270 -1.7646
  175SLPC    HY19802   0.902   2.726   6.532 -1.1754  0.5816  0.1444
  175SLPC   O3119803   0.974   2.831   6.354 -0.5210  0.0920 -0.0658
  175SLPC   C3119804   1.081   2.744   6.358  0.2060 -0.2584  0.8935
  175SLPC   O3219805   1.127   2.696   6.460 -0.1397 -0.0817 -0.1770
  175SLPC   C3219806   1.123   2.714   6.213 -0.6562  0.3348  0.2454
  175SLPC   H2X19807   1.190   2.625   6.214 -0.3303  0.4406  4.2943
  175SLPC   H2Y19808   1.175   2.802   6.170 -0.0764 -0.1516 -0.0698
  175SLPC   C2319809   1.127   3.319   6.283  0.4390 -0.1242  0.1990
  175SLPC   H3R19810   1.192   3.253   6.221 -0.8666  0.1408 -1.5364
  175SLPC   H3S19811   1.197   3.338   6.367  0.4394 -0.6738  0.3293
  175SLPC   C2419812   1.093   3.439   6.202  0.5527 -0.4443  0.4185
  175SLPC   H4R19813   1.088   3.523   6.274 -1.1952 -1.1604  1.1882
  175SLPC   H4S19814   1.005   3.425   6.136  0.4196 -0.7986  0.6648
  175SLPC   C2519815   1.211   3.473   6.106 -0.5844  0.7307 -0.2876
  175SLPC   H5R19816   1.204   3.403   6.019  0.8290 -2.6865  2.0969
  175SLPC   H5S19817   1.307   3.456   6.161 -1.8509 -1.9503  1.3153
  175SLPC   C2619818   1.201   3.621   6.061  0.2782 -0.0812 -0.2845
  175SLPC   H6R19819   1.226   3.690   6.144  1.2013  0.9930 -1.4006
  175SLPC   H6S19820   1.098   3.642   6.025  0.6089  0.7743 -0.7609
  175SLPC   C2719821   1.291   3.644   5.939  0.7990 -0.6349  0.0067
  175SLPC   H7R19822   1.265   3.575   5.855  2.2303  0.7728 -1.6912
  175SLPC   H7S19823   1.397   3.627   5.967  0.6003 -4.3866 -1.0170
  175SLPC   C2819824   1.277   3.793   5.894  0.3152 -0.9800  0.1833
  175SLPC   H8R19825   1.362   3.810   5.824 -0.3699 -0.0939 -0.4563
  175SLPC   H8S19826   1.288   3.866   5.977  0.9051  0.9875 -1.5303
  175SLPC   C2919827   1.141   3.805   5.818 -0.3697 -0.0346  0.0788
  175SLPC   H9R19828   1.057   3.805   5.890 -0.5907  2.6997 -0.0802
  175SLPC  C21019829   1.129   3.814   5.681  0.5662  0.0837  0.2814
  175SLPC  H10R19830   1.036   3.863   5.649  1.0028  1.4205  0.9402
  175SLPC  C21119831   1.238   3.796   5.580 -0.0579  0.1680  0.5018
  175SLPC  H11R19832   1.330   3.850   5.610  1.0608 -0.4356 -1.6488
  175SLPC  H11S19833   1.200   3.846   5.488 -2.2547  2.2428  2.3665
  175SLPC  C21219834   1.299   3.663   5.561  0.5812  0.2332  0.3581
  175SLPC  H12R19835   1.302   3.594   5.647 -1.8326  0.5213  0.7371
  175SLPC  C21319836   1.331   3.602   5.450 -0.7336  0.1462 -0.1891
  175SLPC  H13R19837   1.381   3.504   5.454  0.1583  0.5391 -1.4635
  175SLPC  C21419838   1.324   3.673   5.313 -0.0493 -0.1054  0.2875
  175SLPC  H14R19839   1.380   3.768   5.306  0.6255 -0.5934 -1.7461
  175SLPC  H14S19840   1.217   3.689   5.288  0.2032 -0.2863 -0.9415
  175SLPC  C21519841   1.389   3.593   5.200 -0.4680  0.7967  0.0811
  175SLPC  H15R19842   1.335   3.497   5.191  1.6254 -0.3111 -1.3954
  175SLPC  H15S19843   1.494   3.571   5.229 -0.6261 -0.2821 -0.1437
  175SLPC  C21619844   1.374   3.678   5.074 -0.3038 -0.3554 -0.3050
  175SLPC  H16R19845   1.451   3.756   5.089 -1.6851  1.2546 -1.1782
  175SLPC  H16S19846   1.273   3.724   5.071 -1.0392 -1.7247  1.5543
  175SLPC  C21719847   1.391   3.594   4.945  0.1124 -0.1168  0.0384
  175SLPC  H17R19848   1.316   3.517   4.974 -0.0952 -0.3708 -1.0952
  175SLPC  H17S19849   1.489   3.546   4.931 -1.0612 -2.3122 -1.1365
  175SLPC  C21819850   1.339   3.660   4.817 -0.0576  0.1887 -0.9572
  175SLPC  H18R19851   1.238   3.704   4.828  0.8787  1.8940  2.3440
  175SLPC  H18S19852   1.352   3.594   4.728 -2.0243 -1.8840  0.1975
  175SLPC  H18T19853   1.400   3.752   4.800 -0.6665  0.5425 -1.2347
  175SLPC   C3319854   1.008   2.662   6.119 -0.1881  0.1638  0.6910
  175SLPC   H3X19855   0.928   2.738   6.130  0.7673  0.9215  3.1938
  175SLPC   H3Y19856   0.960   2.571   6.159 -1.7322  1.6463  2.4030
  175SLPC   C3419857   1.058   2.648   5.968  0.1776 -0.1087 -0.2402
  175SLPC   H4X19858   1.145   2.579   5.964  2.0177  2.1413 -1.2918
  175SLPC   H4Y19859   1.076   2.747   5.921 -1.4991 -0.2414 -1.2801
  175SLPC   C3519860   0.951   2.592   5.878  0.4270 -0.7721  0.2064
  175SLPC   H5X19861   0.913   2.493   5.913 -2.6821 -0.4338 -1.8408
  175SLPC   H5Y19862   0.991   2.571   5.777  0.3446  1.1248 -0.2405
  175SLPC   C3619863   0.822   2.673   5.878 -0.4215  1.3388  0.1660
  175SLPC   H6X19864   0.846   2.774   5.838 -1.9132  1.7725  0.3145
  175SLPC   H6Y19865   0.785   2.693   5.980 -3.4038  0.4638 -0.6499
  175SLPC   C3719866   0.714   2.623   5.786  0.4217 -0.0858  0.4362
  175SLPC   H7X19867   0.634   2.700   5.781  0.4186 -0.1299 -0.4079
  175SLPC   H7Y19868   0.667   2.530   5.825 -3.0232  0.7702 -1.2810
  175SLPC   C3819869   0.766   2.602   5.641  0.5448 -0.5136 -0.0761
  175SLPC   H8X19870   0.848   2.527   5.642  1.9764  0.9702  1.0107
  175SLPC   H8Y19871   0.811   2.694   5.598 -1.8473 -0.2609 -2.2522
  175SLPC   C3919872   0.660   2.545   5.547 -0.1200  0.6282 -0.2867
  175SLPC   H9X19873   0.586   2.627   5.534 -1.9182 -1.0335 -1.0041
  175SLPC   H9Y19874   0.629   2.450   5.595 -0.4981  1.6932  1.6776
  175SLPC  C31019875   0.704   2.508   5.403  0.2432  0.5530  0.4717
  175SLPC  H10X19876   0.783   2.430   5.415 -0.1671 -0.4538 -2.5669
  175SLPC  H10Y19877   0.754   2.592   5.350  3.3989 -1.0389  0.6635
  175SLPC  C31119878   0.587   2.453   5.326  0.6875 -0.2550  0.6295
  175SLPC  H11X19879   0.517   2.382   5.376 -1.0054  0.1857 -0.9791
  175SLPC  H11Y19880   0.632   2.403   5.237  2.0009  2.9945 -0.6577
  175SLPC  C31219881   0.504   2.568   5.262 -0.6009  0.2760 -0.0393
  175SLPC  H12X19882   0.561   2.638   5.198  1.5068  1.7929  3.2345
  175SLPC  H12Y19883   0.479   2.639   5.344 -0.1752  0.4953 -0.1002
  175SLPC  C31319884   0.374   2.529   5.189 -1.6476  0.0465  0.6732
  175SLPC  H13X19885   0.303   2.489   5.265 -2.2521  0.0029  0.0924
  175SLPC  H13Y19886   0.399   2.450   5.115 -1.6203  0.3583  0.3470
  175SLPC  C31419887   0.317   2.648   5.108  0.3600 -0.3833  0.1470
  175SLPC  H14X19888   0.394   2.708   5.056 -0.7769 -1.8506 -3.5730
  175SLPC  H14Y19889   0.249   2.698   5.181 -0.9748 -5.5649  2.9884
  175SLPC  C31519890   0.208   2.609   5.007 -0.1902  0.3116  0.3298
  175SLPC  H15X19891   0.135   2.538   5.050 -0.3946 -0.2472 -0.9201
  175SLPC  H15Y19892   0.252   2.544   4.928 -1.0873  0.5037 -0.3362
  175SLPC  C31619893   0.144   2.732   4.942 -0.2579 -0.0210  0.2901
  175SLPC  H16X19894   0.231   2.797   4.919 -2.0200  1.4778 -2.9295
  175SLPC  H16Y19895   0.105   2.786   5.032  1.7985  0.3416  1.0078
  175SLPC  C31719896   0.031   2.699   4.845 -0.2930  0.4220 -0.1868
  175SLPC  H17X19897  -0.006   2.801   4.821  0.9404  0.4442 -2.1769
  175SLPC  H17Y19898  -0.044   2.643   4.904 -0.3361  1.0758  0.3928
  175SLPC  C31819899   0.068   2.640   4.713 -0.5868 -0.2195  0.0248
  175SLPC  H18X19900   0.136   2.705   4.655 -1.3325 -0.5412 -1.2638
  175SLPC  H18Y19901  -0.021   2.629   4.647 -0.5579  0.7130 -0.1842
  175SLPC  H18Z19902   0.128   2.547   4.724  1.3864  1.2283  2.4833
  176SLPC     N19903   1.051   5.842   6.499  0.7261 -0.1032 -0.3732
  176SLPC   C1319904   0.978   5.730   6.427 -0.4269  0.0181  0.3767
  176SLPC  H13A19905   1.036   5.651   6.382 -1.9679  0.7894 -3.3560
  176SLPC  H13B19906   0.919   5.669   6.494  1.3261  0.2914  2.2780
  176SLPC  H13C19907   0.917   5.768   6.347  0.5931  2.6166  0.7271
  176SLPC   C1419908   0.942   5.928   6.569 -0.8915  0.1233  0.5446
  176SLPC  H14A19909   0.981   6.026   6.591 -0.6287  0.1401  0.0213
  176SLPC  H14B19910   0.855   5.934   6.505 -1.8781  1.5949  1.9406
  176SLPC  H14C19911   0.910   5.873   6.656  1.3950 -2.7185 -0.2615
  176SLPC   C1519912   1.121   5.920   6.402 -0.2165  0.0937  0.6144
  176SLPC  H15A19913   1.193   5.990   6.443  1.5415 -1.1175 -0.2416
  176SLPC  H15B19914   1.190   5.857   6.347 -1.4516 -0.8350  0.0708
  176SLPC  H15C19915   1.056   5.968   6.330  0.4153 -1.9205 -1.4387
  176SLPC   C1219916   1.145   5.793   6.601  0.3743 -0.1867  0.5079
  176SLPC  H12A19917   1.083   5.742   6.673  1.1209 -0.2959  1.0852
  176SLPC  H12B19918   1.194   5.871   6.657  1.5932  0.5571 -1.4979
  176SLPC   C1119919   1.273   5.710   6.558  0.5190 -0.0035  0.0384
  176SLPC  H11A19920   1.228   5.617   6.514 -3.1769  2.2949 -1.5901
  176SLPC  H11B19921   1.324   5.680   6.652 -0.9579  1.8804  1.5285
  176SLPC     P19922   1.463   5.883   6.537 -0.2595 -0.2461  0.3769
  176SLPC   O1319923   1.408   6.018   6.548  0.1907 -0.0648  0.2480
  176SLPC   O1419924   1.519   5.818   6.653  0.7772  0.0247  0.1437
  176SLPC   O1219925   1.360   5.781   6.468  0.0607  0.8061  0.1225
  176SLPC   O1119926   1.580   5.886   6.432 -0.3454  0.0858  0.3027
  176SLPC    C119927   1.607   5.985   6.332  0.1185  0.4825  0.1207
  176SLPC    HA19928   1.613   6.085   6.380 -1.8865  1.3897 -1.3383
  176SLPC    HB19929   1.704   5.968   6.280  0.3151 -1.7404  1.1190
  176SLPC    C219930   1.492   5.998   6.224 -0.3304  0.4818 -0.9271
  176SLPC    HS19931   1.397   6.015   6.279  0.0556 -0.4351  0.0513
  176SLPC   O2119932   1.493   5.882   6.141  0.0374 -0.3065  0.9641
  176SLPC   C2119933   1.378   5.852   6.080  0.4509  0.5129  0.3512
  176SLPC   O2219934   1.270   5.905   6.106  0.7636 -0.1789 -0.8637
  176SLPC   C2219935   1.396   5.756   5.966 -0.5374 -0.4479 -0.3366
  176SLPC   H2R19936   1.499   5.764   5.924 -0.9265  2.0004 -0.9580
  176SLPC   H2S19937   1.386   5.651   6.001 -1.2136 -0.1927  0.2485
  176SLPC    C319938   1.518   6.133   6.139  0.1402  0.3324 -0.0181
  176SLPC    HX19939   1.610   6.121   6.078  0.4976 -2.9158  0.9671
  176SLPC    HY19940   1.539   6.224   6.200  0.5989  1.4641 -1.7922
  176SLPC   O3119941   1.409   6.166   6.047  0.1494 -0.1442  0.0380
  176SLPC   C3119942   1.298   6.214   6.098 -0.6732  0.2123  0.0152
  176SLPC   O3219943   1.289   6.253   6.214 -0.0620  0.4824 -0.3282
  176SLPC   C3219944   1.178   6.193   6.000  0.6010 -0.1248 -0.3373
  176SLPC   H2X19945   1.119   6.105   6.034 -2.4358  1.7396 -0.4482
  176SLPC   H2Y19946   1.216   6.183   5.896 -0.4660  2.8727 -1.1251
  176SLPC   C2319947   1.333   5.805   5.828 -0.6811  0.2056 -0.5609
  176SLPC   H3R19948   1.226   5.826   5.849 -0.2534 -0.0995  2.3535
  176SLPC   H3S19949   1.336   5.729   5.747  0.3144  0.1276 -0.4566
  176SLPC   C2419950   1.411   5.930   5.776  0.4565 -0.8045  0.7775
  176SLPC   H4R19951   1.518   5.905   5.760  0.4620 -0.8298  0.8549
  176SLPC   H4S19952   1.406   6.015   5.848 -0.9981  0.1774 -0.4050
  176SLPC   C2519953   1.341   5.982   5.643 -0.0363 -0.3821  0.2055
  176SLPC   H5R19954   1.237   6.008   5.672  0.2545 -0.5203  1.4187
  176SLPC   H5S19955   1.338   5.899   5.569 -1.2902  1.0462 -1.4260
  176SLPC   C2619956   1.411   6.114   5.582  0.3150  0.0829 -0.7307
  176SLPC   H6R19957   1.516   6.086   5.559  1.5814  2.7480  1.2866
  176SLPC   H6S19958   1.410   6.193   5.659  1.6177 -0.3708 -0.2222
  176SLPC   C2719959   1.354   6.151   5.449 -0.1270  0.6491 -0.1941
  176SLPC   H7R19960   1.244   6.169   5.452 -0.1870  0.5210 -1.2433
  176SLPC   H7S19961   1.372   6.059   5.390  0.0826  0.3911  0.2746
  176SLPC   C2819962   1.427   6.261   5.374  0.1786  0.7266 -0.2499
  176SLPC   H8R19963   1.533   6.227   5.373 -0.4700 -1.5306  1.0800
  176SLPC   H8S19964   1.431   6.359   5.427 -0.8403  1.1514 -0.9291
  176SLPC   C2919965   1.365   6.282   5.236  0.2923  0.0168  0.8034
  176SLPC   H9R19966   1.275   6.346   5.237 -0.2819 -0.7602  2.3220
  176SLPC  C21019967   1.417   6.237   5.119  0.0748  0.8536  0.1021
  176SLPC  H10R19968   1.354   6.256   5.030 -3.4918 -4.7485  0.8950
  176SLPC  C21119969   1.522   6.130   5.101 -0.7282 -0.8112 -0.2288
  176SLPC  H11R19970   1.480   6.030   5.076 -4.4954  0.5511  0.0789
  176SLPC  H11S19971   1.559   6.115   5.205 -0.3773 -0.9599 -0.3703
  176SLPC  C21219972   1.625   6.173   4.999 -0.0396 -0.1110 -0.1402
  176SLPC  H12R19973   1.628   6.282   4.983  1.6638 -0.3240 -1.5565
  176SLPC  C21319974   1.703   6.078   4.934  0.1256 -0.3860 -0.0535
  176SLPC  H13R19975   1.785   6.115   4.871 -0.8853  1.2141 -0.4875
  176SLPC  C21419976   1.694   5.929   4.951 -0.4387 -0.0979  0.6832
  176SLPC  H14R19977   1.598   5.893   4.908  1.1880  0.3019 -3.7689
  176SLPC  H14S19978   1.700   5.912   5.061 -0.0663  0.6140  0.7767
  176SLPC  C21519979   1.803   5.858   4.867  0.2614  0.2176 -0.5903
  176SLPC  H15R19980   1.786   5.749   4.885 -0.0195  0.0952 -1.5664
  176SLPC  H15S19981   1.907   5.884   4.896 -0.3551  1.4393  0.6036
  176SLPC  C21619982   1.788   5.888   4.724 -0.2227 -0.4322 -0.4320
  176SLPC  H16R19983   1.807   5.997   4.715  0.3354 -0.6508 -2.3019
  176SLPC  H16S19984   1.679   5.869   4.723 -0.3097 -0.0690  0.9435
  176SLPC  C21719985   1.879   5.817   4.624 -0.1772  0.1429  0.5039
  176SLPC  H17R19986   1.983   5.840   4.652 -0.1031 -1.1539  1.3441
  176SLPC  H17S19987   1.848   5.866   4.529 -1.0814 -1.3019  0.0283
  176SLPC  C21819988   1.870   5.660   4.611 -0.3999 -0.9266 -0.0336
  176SLPC  H18R19989   1.766   5.624   4.602  0.0975 -1.9923 -2.1849
  176SLPC  H18S19990   1.901   5.615   4.708  1.3169 -1.0939 -0.6181
  176SLPC  H18T19991   1.939   5.625   4.531 -0.7900 -0.0816 -0.7559
  176SLPC   C3319992   1.089   6.315   6.004  0.4027 -0.1943  0.1033
  176SLPC   H3X19993   1.067   6.347   6.108  2.5177 -0.5188  0.7044
  176SLPC   H3Y19994   0.991   6.286   5.960 -1.2983  1.4623  2.5672
  176SLPC   C3419995   1.151   6.441   5.938  0.9945 -0.3168 -0.5986
  176SLPC   H4X19996   1.251   6.467   5.978 -0.1594  0.3826  2.1255
  176SLPC   H4Y19997   1.081   6.524   5.964 -0.8339 -2.1530  0.6615
  176SLPC   C3519998   1.173   6.444   5.787 -0.3657  0.1768 -0.3451
  176SLPC   H5X19999   1.263   6.380   5.771  0.9437  1.5598  1.0753
  176SLPC   H5Y20000   1.182   6.547   5.746 -1.6792  0.4100 -0.0961
  176SLPC   C3620001   1.059   6.382   5.707  0.1909 -0.5324 -0.0543
  176SLPC   H6X20002   0.971   6.448   5.724  0.8541 -0.0165  1.5987
  176SLPC   H6Y20003   1.045   6.277   5.740  0.7414 -0.0482  1.8596
  176SLPC   C3720004   1.078   6.402   5.559 -0.0906  0.3008 -0.1530
  176SLPC   H7X20005   1.033   6.315   5.507  0.5236 -1.0928  1.5473
  176SLPC   H7Y20006   1.184   6.414   5.526 -0.2529  0.8260 -0.4837
  176SLPC   C3820007   1.018   6.533   5.504  0.2954 -0.2554 -0.9756
  176SLPC   H8X20008   1.050   6.610   5.577  0.1022 -1.3288  0.2625
  176SLPC   H8Y20009   0.908   6.528   5.515  0.5477 -1.7260  1.8239
  176SLPC   C3920010   1.068   6.578   5.369  0.6462  0.4637 -0.3997
  176SLPC   H9X20011   1.179   6.566   5.373  0.6788  1.0405  1.5697
  176SLPC   H9Y20012   1.050   6.687   5.357 -0.9031  0.2662 -0.0994
  176SLPC  C31020013   1.004   6.506   5.259  0.4505 -0.6206  0.9424
  176SLPC  H10X20014   0.895   6.528   5.253  0.4265 -1.1566 -2.5298
  176SLPC  H10Y20015   1.022   6.396   5.270  1.9112 -0.7562 -1.7868
  176SLPC  C31120016   1.075   6.560   5.131 -0.5515  0.0676  0.8223
  176SLPC  H11X20017   1.186   6.559   5.138 -0.1463  1.1995 -2.9367
  176SLPC  H11Y20018   1.045   6.667   5.132  0.0745  0.2402  1.7519
  176SLPC  C31220019   1.040   6.494   4.997  0.5647 -0.6167  0.5612
  176SLPC  H12X20020   0.933   6.521   4.983  0.6943  0.0556  0.8316
  176SLPC  H12Y20021   1.051   6.384   5.015 -1.3940 -1.0027 -0.3457
  176SLPC  C31320022   1.126   6.529   4.879 -0.0537  0.7189 -0.7212
  176SLPC  H13X20023   1.110   6.458   4.796 -3.8572 -0.6360  0.9458
  176SLPC  H13Y20024   1.232   6.532   4.912  0.1747 -1.2741 -1.1486
  176SLPC  C31420025   1.075   6.663   4.827  0.0056 -0.2997  0.0010
  176SLPC  H14X20026   1.078   6.745   4.903 -0.1207  0.0943 -0.4144
  176SLPC  H14Y20027   0.970   6.652   4.793  0.4595  0.1742 -1.6491
  176SLPC  C31520028   1.153   6.718   4.705  0.2444  0.7252  0.1010
  176SLPC  H15X20029   1.143   6.637   4.629  3.3361  2.2257 -2.1611
  176SLPC  H15Y20030   1.262   6.731   4.720  0.1144 -0.7223  2.8931
  176SLPC  C31620031   1.102   6.846   4.643  1.0578 -0.0791  0.0729
  176SLPC  H16X20032   1.098   6.919   4.727  3.4597 -0.3570  0.4946
  176SLPC  H16Y20033   1.009   6.828   4.586  1.7111  1.3536 -1.5102
  176SLPC  C31720034   1.180   6.911   4.533 -0.2749 -0.1529  0.0494
  176SLPC  H17X20035   1.283   6.936   4.567  0.0988 -1.1113 -0.3566
  176SLPC  H17Y20036   1.139   7.009   4.500 -0.8760 -0.1488  0.7732
  176SLPC  C31820037   1.198   6.827   4.401 -0.0747  0.4261 -0.2622
  176SLPC  H18X20038   1.267   6.875   4.328 -0.0669 -1.4394 -1.5600
  176SLPC  H18Y20039   1.102   6.813   4.348  0.6718 -0.3289 -1.4697
  176SLPC  H18Z20040   1.233   6.724   4.424  1.9138  0.7786 -1.4409
  177SLPC     N20041   1.805   1.066   6.758  0.7074 -0.9764  0.8949
  177SLPC   C1320042   1.801   1.212   6.729 -0.3281 -0.0109 -0.0636
  177SLPC  H13A20043   1.891   1.257   6.767  0.1610 -0.0290 -1.1508
  177SLPC  H13B20044   1.796   1.237   6.624  0.9173  1.0877  0.1148
  177SLPC  H13C20045   1.721   1.257   6.785 -0.6865  0.2394 -0.7662
  177SLPC   C1420046   1.836   1.047   6.904  0.3585  0.1132 -0.4073
  177SLPC  H14A20047   1.934   1.086   6.924  1.5220 -2.2941 -0.9941
  177SLPC  H14B20048   1.760   1.088   6.969  0.3934  0.7240 -0.7479
  177SLPC  H14C20049   1.842   0.941   6.924 -3.2964  0.0718  1.4751
  177SLPC   C1520050   1.917   1.007   6.676 -0.2362  0.3715  0.0294
  177SLPC  H15A20051   2.015   1.048   6.694  0.9311 -1.0083 -2.5391
  177SLPC  H15B20052   1.912   0.899   6.685  0.4370  0.2913 -0.4974
  177SLPC  H15C20053   1.909   1.030   6.570  0.5330 -2.4860 -0.7618
  177SLPC   C1220054   1.680   0.998   6.709  0.3953  0.7171 -0.3879
  177SLPC  H12A20055   1.696   0.898   6.747 -3.6231  0.5460  1.3534
  177SLPC  H12B20056   1.685   0.998   6.601 -0.7622 -0.3675 -0.4596
  177SLPC   C1120057   1.532   1.044   6.753  0.5154 -0.7193 -0.0736
  177SLPC  H11A20058   1.516   1.039   6.863 -1.5049 -0.1820 -0.3110
  177SLPC  H11B20059   1.459   0.969   6.717  1.3024 -1.2681 -0.5542
  177SLPC     P20060   1.445   1.231   6.593 -0.4100 -0.0931  0.2287
  177SLPC   O1320061   1.345   1.328   6.636 -0.3060  0.2304  0.5236
  177SLPC   O1420062   1.547   1.273   6.494  0.0391  0.3714  0.2089
  177SLPC   O1220063   1.512   1.176   6.717  0.3596 -0.0106 -0.1001
  177SLPC   O1120064   1.368   1.100   6.540 -0.3878 -0.2052 -0.6341
  177SLPC    C120065   1.430   1.026   6.429 -0.2790  0.3398 -0.2123
  177SLPC    HA20066   1.430   1.079   6.331 -1.6490 -2.3519 -1.8072
  177SLPC    HB20067   1.536   0.999   6.447 -0.1419  0.5652 -0.6722
  177SLPC    C220068   1.352   0.901   6.395  0.6132  1.1839 -0.5478
  177SLPC    HS20069   1.409   0.853   6.313 -1.4029 -2.4768 -0.0453
  177SLPC   O2120070   1.218   0.930   6.360 -0.2631  0.2787  0.1346
  177SLPC   C2120071   1.202   0.934   6.232 -0.7502 -0.8304 -1.0724
  177SLPC   O2220072   1.280   0.906   6.143  0.1634 -0.6179  0.3904
  177SLPC   C2220073   1.057   0.962   6.199  0.4181 -0.0726 -0.9043
  177SLPC   H2R20074   1.008   0.865   6.174  0.9966 -0.1020 -1.9938
  177SLPC   H2S20075   1.006   0.979   6.296 -1.0257  1.2828 -1.8522
  177SLPC    C320076   1.367   0.798   6.512  0.5141  0.2280 -0.1268
  177SLPC    HX20077   1.302   0.835   6.594 -1.3937 -2.2536 -0.4000
  177SLPC    HY20078   1.470   0.786   6.552  1.1648 -1.4673 -2.1240
  177SLPC   O3120079   1.333   0.663   6.468  0.9837  0.4743 -0.2926
  177SLPC   C3120080   1.419   0.587   6.415  0.7775  0.6157 -0.5742
  177SLPC   O3220081   1.534   0.613   6.392 -0.8740  0.3082 -0.1337
  177SLPC   C3220082   1.362   0.445   6.374  0.3425 -0.1948 -0.4461
  177SLPC   H2X20083   1.270   0.424   6.432 -0.3685  3.1462 -0.1959
  177SLPC   H2Y20084   1.434   0.370   6.414  0.3163 -0.9258 -1.7217
  177SLPC   C2320085   1.021   1.076   6.103 -0.1864 -0.3015 -0.6365
  177SLPC   H3R20086   1.084   1.166   6.116 -1.8873  0.8239  0.1937
  177SLPC   H3S20087   0.918   1.106   6.133 -0.0496  0.7548 -1.1864
  177SLPC   C2420088   1.013   1.022   5.960 -0.1993 -0.6594 -1.3266
  177SLPC   H4R20089   0.916   0.968   5.954 -0.5989 -0.3808  1.3838
  177SLPC   H4S20090   1.083   0.939   5.939  1.7406  0.7071 -0.5880
  177SLPC   C2520091   0.999   1.132   5.846  0.0181 -0.5290 -0.1639
  177SLPC   H5R20092   1.089   1.193   5.868 -0.6344  0.4649 -0.1711
  177SLPC   H5S20093   0.908   1.191   5.871  0.4278  0.1611 -0.2918
  177SLPC   C2620094   0.992   1.074   5.707  0.7955 -0.4121 -0.0605
  177SLPC   H6R20095   0.920   0.991   5.690  0.0567  0.0120  0.8544
  177SLPC   H6S20096   1.093   1.032   5.688  2.1189  1.7024  1.8137
  177SLPC   C2720097   0.982   1.177   5.594  0.0810  0.7370 -0.0428
  177SLPC   H7R20098   1.075   1.238   5.590 -0.3208  1.2604 -2.1904
  177SLPC   H7S20099   0.899   1.246   5.618  0.7216  1.9956 -1.2991
  177SLPC   C2820100   0.943   1.111   5.457 -0.2634 -0.7347 -0.4286
  177SLPC   H8R20101   0.921   1.192   5.384  1.7557 -0.5795 -0.9077
  177SLPC   H8S20102   0.857   1.042   5.469  0.2162 -1.4537 -1.0460
  177SLPC   C2920103   1.058   1.031   5.412 -0.6275 -0.4755  0.7764
  177SLPC   H9R20104   1.077   0.940   5.471 -0.2928 -0.7231  0.3075
  177SLPC  C21020105   1.119   1.035   5.290  0.1268  0.4207  0.2065
  177SLPC  H10R20106   1.193   0.959   5.263  0.4723  0.1394  1.8544
  177SLPC  C21120107   1.104   1.132   5.174  0.2167 -0.1187 -0.8259
  177SLPC  H11R20108   1.194   1.128   5.109  0.0553 -0.2809 -1.0402
  177SLPC  H11S20109   1.098   1.236   5.214 -0.5304 -0.2643 -0.5416
  177SLPC  C21220110   0.986   1.099   5.091 -0.4464  0.1768  1.1118
  177SLPC  H12R20111   0.913   1.042   5.151 -1.8882  0.5466 -0.2184
  177SLPC  C21320112   0.955   1.153   4.970 -0.1275 -0.8382 -0.5335
  177SLPC  H13R20113   0.869   1.117   4.912 -2.8534 -0.0700  2.7383
  177SLPC  C21420114   1.041   1.258   4.898  0.2652 -0.4815 -0.0519
  177SLPC  H14R20115   1.150   1.237   4.910  0.0793 -2.2932 -1.1051
  177SLPC  H14S20116   1.013   1.357   4.941 -2.8432 -0.5530 -1.6626
  177SLPC  C21520117   1.015   1.244   4.754 -0.4688  0.3039 -0.6347
  177SLPC  H15R20118   1.050   1.339   4.707  1.3918 -0.0083  0.0604
  177SLPC  H15S20119   0.909   1.243   4.719  0.0932 -1.1801 -2.4620
  177SLPC  C21620120   1.106   1.126   4.702 -0.1389  0.1852 -0.2832
  177SLPC  H16R20121   1.050   1.034   4.729  0.3492 -0.2725 -0.8036
  177SLPC  H16S20122   1.202   1.131   4.759 -0.1436  0.9142 -0.3293
  177SLPC  C21720123   1.120   1.125   4.552 -0.3520 -0.6107 -0.1433
  177SLPC  H17R20124   1.161   1.028   4.517 -0.0169  0.1085 -1.8330
  177SLPC  H17S20125   1.191   1.200   4.510 -0.3323 -1.3060 -1.3820
  177SLPC  C21820126   0.980   1.147   4.484  0.0931 -0.3228  0.9540
  177SLPC  H18R20127   0.977   1.124   4.375  1.1334  1.7155  0.4514
  177SLPC  H18S20128   0.953   1.255   4.487 -0.0440 -0.1583 -2.5359
  177SLPC  H18T20129   0.899   1.087   4.532 -0.4040  0.3582  0.9873
  177SLPC   C3320130   1.346   0.431   6.224  0.2979  0.0059  0.2317
  177SLPC   H3X20131   1.311   0.327   6.205  2.1621 -0.8328  1.1032
  177SLPC   H3Y20132   1.441   0.449   6.168  0.5581  1.8656  1.1897
  177SLPC   C3420133   1.240   0.530   6.164 -0.2775  0.7803  0.2593
  177SLPC   H4X20134   1.270   0.633   6.192 -3.2512  1.6096  0.7112
  177SLPC   H4Y20135   1.149   0.515   6.226 -2.0393 -0.0411 -2.3127
  177SLPC   C3520136   1.193   0.511   6.024 -0.2279  0.6593 -0.3479
  177SLPC   H5X20137   1.152   0.408   6.012  1.7358 -0.2413  0.2874
  177SLPC   H5Y20138   1.269   0.522   5.945 -0.2067 -0.0397 -0.4272
  177SLPC   C3620139   1.081   0.601   5.975  1.3520 -0.2948  0.4148
  177SLPC   H6X20140   1.115   0.706   5.965 -0.1307 -0.0133 -2.8826
  177SLPC   H6Y20141   0.996   0.594   6.046  0.3695 -0.3906 -0.7285
  177SLPC   C3720142   1.033   0.552   5.836 -0.8939  0.9191 -1.1315
  177SLPC   H7X20143   0.922   0.547   5.836 -0.9409  0.9863  0.6849
  177SLPC   H7Y20144   1.077   0.450   5.828  1.2984  1.6809  0.1705
  177SLPC   C3820145   1.090   0.627   5.715  0.1952  0.3027 -0.3332
  177SLPC   H8X20146   1.199   0.648   5.713  0.2692  0.5515 -4.7584
  177SLPC   H8Y20147   1.035   0.723   5.705 -1.1399 -0.4726 -0.6908
  177SLPC   C3920148   1.059   0.554   5.584  0.7789 -0.2138 -0.3078
  177SLPC   H9X20149   0.951   0.532   5.582  0.7262 -0.2324  1.3625
  177SLPC   H9Y20150   1.114   0.458   5.587  1.5481  0.2405  1.1852
  177SLPC  C31020151   1.108   0.633   5.466 -0.1229 -0.6485 -0.4557
  177SLPC  H10X20152   1.217   0.655   5.477 -0.0535 -1.3642  0.4139
  177SLPC  H10Y20153   1.038   0.715   5.438 -1.3995 -1.5973 -0.1277
  177SLPC  C31120154   1.117   0.546   5.339  0.6780  0.9069 -0.6677
  177SLPC  H11X20155   1.016   0.503   5.324  1.0045 -0.4716  0.8085
  177SLPC  H11Y20156   1.181   0.461   5.370 -2.7700 -2.6334 -2.3155
  177SLPC  C31220157   1.167   0.620   5.212  0.1106 -0.2946  1.3489
  177SLPC  H12X20158   1.205   0.545   5.139 -0.9215  1.6563 -1.3782
  177SLPC  H12Y20159   1.249   0.689   5.242  0.6569  0.5598 -1.7693
  177SLPC  C31320160   1.056   0.701   5.126  1.0021  0.6764 -0.2412
  177SLPC  H13X20161   0.998   0.774   5.186  2.3216  0.6129  1.1536
  177SLPC  H13Y20162   0.980   0.622   5.105  2.2740 -0.8270  0.5611
  177SLPC  C31420163   1.117   0.770   5.017 -0.4468 -0.4890 -0.2792
  177SLPC  H14X20164   1.162   0.869   5.040 -1.0728 -0.2504 -0.0230
  177SLPC  H14Y20165   1.036   0.793   4.945  0.1280  0.6744 -0.5679
  177SLPC  C31520166   1.221   0.688   4.936  0.5840  0.5194 -0.2873
  177SLPC  H15X20167   1.181   0.588   4.908 -2.2945  1.5850 -0.3257
  177SLPC  H15Y20168   1.309   0.668   5.000  0.9840  1.4290 -0.5351
  177SLPC  C31620169   1.247   0.768   4.814  0.4437 -0.7281  0.7355
  177SLPC  H16X20170   1.280   0.867   4.854 -1.8771  1.3954 -2.1797
  177SLPC  H16Y20171   1.165   0.792   4.744  0.5441 -1.4111  0.3724
  177SLPC  C31720172   1.355   0.705   4.732  1.1061  0.2401  0.1289
  177SLPC  H17X20173   1.426   0.652   4.799  2.3567  1.4996 -0.1557
  177SLPC  H17Y20174   1.416   0.777   4.674  0.6992  0.5595  0.0900
  177SLPC  C31820175   1.297   0.600   4.633  0.3460 -0.0901 -0.0853
  177SLPC  H18X20176   1.385   0.572   4.571 -1.5723 -2.5556 -1.8902
  177SLPC  H18Y20177   1.218   0.647   4.569  0.9326  0.9645 -0.0652
  177SLPC  H18Z20178   1.263   0.505   4.680  0.9489 -0.4179 -0.3054
  178SLPC     N20179   0.215   5.891   6.807 -0.0098  0.2589  0.0784
  178SLPC   C1320180   0.283   5.979   6.898  0.0431  0.0543 -0.1229
  178SLPC  H13A20181   0.366   6.025   6.846  0.3061 -0.2215  0.0521
  178SLPC  H13B20182   0.222   6.063   6.928  0.8786 -0.1811  2.4086
  178SLPC  H13C20183   0.313   5.924   6.985  0.5171  1.8797  0.9228
  178SLPC   C1420184   0.089   5.859   6.875  0.5111  0.4542  0.0101
  178SLPC  H14A20185   0.103   5.832   6.978 -2.2530  0.5852  0.5013
  178SLPC  H14B20186   0.025   5.946   6.882  1.8583  1.3678  1.3247
  178SLPC  H14C20187   0.036   5.775   6.832 -1.8378  1.8972 -0.1338
  178SLPC   C1520188   0.295   5.765   6.802  0.0391 -0.0818  0.1159
  178SLPC  H15A20189   0.234   5.687   6.760 -1.1082  0.2284  1.1587
  178SLPC  H15B20190   0.384   5.782   6.743  0.0310  0.7065  0.3141
  178SLPC  H15C20191   0.321   5.737   6.903  0.2921 -1.4172 -0.3078
  178SLPC   C1220192   0.196   5.952   6.672 -0.1130  0.2267  0.9623
  178SLPC  H12A20193   0.137   6.042   6.674 -1.3328 -0.5375  0.8941
  178SLPC  H12B20194   0.133   5.881   6.619  0.8630 -1.3483  1.8456
  178SLPC   C1120195   0.318   6.002   6.585 -0.4850 -0.3540 -0.5584
  178SLPC  H11A20196   0.291   6.011   6.478  2.2504 -0.9803 -1.3941
  178SLPC  H11B20197   0.395   5.922   6.594 -0.3205 -0.2929 -1.3274
  178SLPC     P20198   0.298   6.262   6.634  0.5254  0.0886  0.3491
  178SLPC   O1320199   0.155   6.244   6.665  0.1600 -0.3740  0.5877
  178SLPC   O1420200   0.357   6.368   6.713  0.0079  0.0783  0.0779
  178SLPC   O1220201   0.373   6.123   6.646  0.4324  0.1937  0.4613
  178SLPC   O1120202   0.310   6.309   6.482  0.2398 -0.0708 -0.4385
  178SLPC    C120203   0.442   6.299   6.427  0.0878  0.2556  0.4073
  178SLPC    HA20204   0.508   6.383   6.457  0.2605  0.1972  0.1917
  178SLPC    HB20205   0.494   6.208   6.465  0.4068 -1.6356 -3.9938
  178SLPC    C220206   0.439   6.283   6.272  0.0657  0.5921  0.1651
  178SLPC    HS20207   0.542   6.268   6.234  0.1218 -0.9377  0.8642
  178SLPC   O2120208   0.371   6.387   6.200 -0.8270 -0.0087 -0.0423
  178SLPC   C2120209   0.445   6.498   6.187  0.1047 -0.5708  0.0583
  178SLPC   O2220210   0.562   6.512   6.227  0.3343  0.4579  0.5032
  178SLPC   C2220211   0.374   6.604   6.107  0.3800  0.3404  0.5229
  178SLPC   H2R20212   0.334   6.550   6.019  1.8816 -1.3779  0.8539
  178SLPC   H2S20213   0.287   6.654   6.155 -0.6735 -0.7544 -0.1887
  178SLPC    C320214   0.363   6.154   6.222 -0.6209 -0.3713 -0.3232
  178SLPC    HX20215   0.259   6.151   6.261 -1.1725  1.0081 -1.6100
  178SLPC    HY20216   0.408   6.061   6.264  2.1826  1.1223  0.2527
  178SLPC   O3120217   0.352   6.143   6.077 -0.0794 -0.4527  0.3809
  178SLPC   C3120218   0.463   6.135   6.005 -0.1911 -0.6277  0.0793
  178SLPC   O3220219   0.576   6.137   6.050 -0.0178  0.3860  0.0311
  178SLPC   C3220220   0.423   6.144   5.862 -0.4616 -0.1957 -0.9074
  178SLPC   H2X20221   0.401   6.250   5.839  0.0519  0.2267  0.4007
  178SLPC   H2Y20222   0.329   6.090   5.838 -1.4993  0.4477  1.3823
  178SLPC   C2320223   0.472   6.716   6.061 -0.1780 -0.0752  0.0357
  178SLPC   H3R20224   0.548   6.757   6.130  1.6959 -1.6496 -0.9671
  178SLPC   H3S20225   0.425   6.804   6.012  1.6847  0.9517  0.0157
  178SLPC   C2420226   0.560   6.666   5.938 -0.0073 -0.8626 -0.3520
  178SLPC   H4R20227   0.598   6.562   5.953  1.3514  0.0023  3.2366
  178SLPC   H4S20228   0.640   6.742   5.928  0.0205 -1.1061 -2.5978
  178SLPC   C2520229   0.488   6.672   5.801 -0.1149  0.1506  0.5654
  178SLPC   H5R20230   0.438   6.767   5.772  0.5300  0.5797  0.8274
  178SLPC   H5S20231   0.397   6.609   5.798 -1.4075  1.9513  0.2454
  178SLPC   C2620232   0.567   6.609   5.685 -0.4290  0.4446 -0.4638
  178SLPC   H6R20233   0.503   6.582   5.598  2.8561 -0.9605 -2.6794
  178SLPC   H6S20234   0.622   6.517   5.717 -0.3405 -0.7696 -3.7245
  178SLPC   C2720235   0.669   6.708   5.625 -0.0840 -0.8319 -0.2961
  178SLPC   H7R20236   0.774   6.682   5.651 -0.4108 -1.2343  0.6735
  178SLPC   H7S20237   0.673   6.804   5.681  2.0321 -0.5175 -0.9325
  178SLPC   C2820238   0.662   6.723   5.470 -0.6127 -0.4630  0.1375
  178SLPC   H8R20239   0.621   6.624   5.439 -2.1128 -0.0040  0.5702
  178SLPC   H8S20240   0.761   6.747   5.425 -2.1626  2.2170 -2.1442
  178SLPC   C2920241   0.560   6.816   5.420  0.3651 -0.3732 -0.1850
  178SLPC   H9R20242   0.458   6.786   5.449  0.9106 -2.6401 -0.3688
  178SLPC  C21020243   0.578   6.930   5.349 -0.0162  0.0079 -1.0651
  178SLPC  H10R20244   0.488   6.991   5.329  0.2925  0.8511  0.0140
  178SLPC  C21120245   0.715   6.979   5.304  0.6213  0.0856  0.3280
  178SLPC  H11R20246   0.774   6.890   5.274 -1.0920 -1.0671  0.1955
  178SLPC  H11S20247   0.749   7.030   5.396  0.7078 -2.8888  2.0692
  178SLPC  C21220248   0.714   7.091   5.203 -0.2401 -0.3986 -0.8903
  178SLPC  H12R20249   0.678   7.187   5.242 -0.6346 -1.1729  0.7178
  178SLPC  C21320250   0.744   7.096   5.077  0.4505  0.0689  0.5291
  178SLPC  H13R20251   0.717   7.189   5.024 -0.8365  0.4754  1.8359
  178SLPC  C21420252   0.775   6.984   4.982 -0.5976  0.0128 -0.4117
  178SLPC  H14R20253   0.809   6.897   5.043  1.4955  1.5555  0.7823
  178SLPC  H14S20254   0.869   7.007   4.928 -1.2740 -0.8491 -1.9953
  178SLPC  C21520255   0.673   6.933   4.888 -0.1530  0.1931  0.2333
  178SLPC  H15R20256   0.636   7.014   4.821  0.2176 -1.5983 -2.2913
  178SLPC  H15S20257   0.584   6.885   4.935 -0.3803 -1.3364 -1.6364
  178SLPC  C21620258   0.742   6.836   4.789 -0.5095 -0.0399 -0.8813
  178SLPC  H16R20259   0.790   6.756   4.849 -0.2109  1.6728  1.2668
  178SLPC  H16S20260   0.822   6.884   4.729  0.4232 -2.1400 -1.4012
  178SLPC  C21720261   0.642   6.782   4.689 -0.6466  0.1215 -0.2052
  178SLPC  H17R20262   0.599   6.873   4.643  0.8489  0.5264 -0.8793
  178SLPC  H17S20263   0.567   6.721   4.743 -0.3427 -0.6420 -0.6203
  178SLPC  C21820264   0.715   6.695   4.588  0.0052 -0.0456  0.3718
  178SLPC  H18R20265   0.763   6.610   4.642  0.4128  0.1634  0.3433
  178SLPC  H18S20266   0.789   6.756   4.532 -2.4303  0.7026 -2.1931
  178SLPC  H18T20267   0.641   6.663   4.513 -1.6395  1.7476  1.1382
  178SLPC   C3320268   0.531   6.087   5.758 -0.1103 -0.5897 -0.4475
  178SLPC   H3X20269   0.518   5.978   5.745 -1.2427 -0.3347 -1.7334
  178SLPC   H3Y20270   0.637   6.115   5.778 -0.4191  2.2568 -2.1888
  178SLPC   C3420271   0.498   6.150   5.621 -0.1433 -0.1548  0.3138
  178SLPC   H4X20272   0.504   6.261   5.628 -1.9590 -0.0654  0.8948
  178SLPC   H4Y20273   0.392   6.125   5.602 -0.2871  0.7880 -0.1695
  178SLPC   C3520274   0.594   6.104   5.505 -0.7780  0.5245  0.6072
  178SLPC   H5X20275   0.566   5.996   5.507  0.0436  0.3081  2.0682
  178SLPC   H5Y20276   0.700   6.113   5.537 -0.4096 -1.3568  0.0458
  178SLPC   C3620277   0.571   6.178   5.380 -0.8189 -0.1863  0.5655
  178SLPC   H6X20278   0.549   6.285   5.395 -1.7040 -0.3554  0.5411
  178SLPC   H6Y20279   0.477   6.145   5.330  0.3855 -0.4396 -1.6798
  178SLPC   C3720280   0.686   6.160   5.272  0.7971  0.0109 -0.4533
  178SLPC   H7X20281   0.678   6.052   5.250 -2.0427 -0.3480  1.7515
  178SLPC   H7Y20282   0.787   6.182   5.314  0.5682  3.7304 -1.4540
  178SLPC   C3820283   0.662   6.256   5.158  0.5294 -0.1431  0.1857
  178SLPC   H8X20284   0.652   6.360   5.198 -0.6023 -0.7323  1.5445
  178SLPC   H8Y20285   0.566   6.234   5.107  0.0989  3.4606 -0.8593
  178SLPC   C3920286   0.766   6.237   5.053  0.3149  0.6548  0.4457
  178SLPC   H9X20287   0.761   6.128   5.029  0.4707  0.8811 -0.6765
  178SLPC   H9Y20288   0.865   6.267   5.092  1.3203  0.6870 -1.9485
  178SLPC  C31020289   0.727   6.302   4.914 -0.7847  0.5083 -0.4566
  178SLPC  H10X20290   0.731   6.413   4.924  1.6953  0.3377  1.2564
  178SLPC  H10Y20291   0.622   6.279   4.887 -1.1905  2.2928 -0.5875
  178SLPC  C31120292   0.834   6.252   4.807  0.1552  0.0224  0.1194
  178SLPC  H11X20293   0.802   6.149   4.784  0.0249  0.2254 -0.6457
  178SLPC  H11Y20294   0.936   6.239   4.849  0.6534  0.3295 -0.9412
  178SLPC  C31220295   0.864   6.334   4.677 -0.0500 -0.5904 -0.0103
  178SLPC  H12X20296   0.906   6.434   4.704 -1.3597 -0.3093  1.1170
  178SLPC  H12Y20297   0.767   6.357   4.627  0.5692  1.9642 -0.1593
  178SLPC  C31320298   0.960   6.262   4.586 -0.1324 -0.3652  0.7357
  178SLPC  H13X20299   0.914   6.161   4.571 -0.9364  0.1603 -0.4970
  178SLPC  H13Y20300   1.060   6.234   4.624  0.3065 -2.1044 -1.4919
  178SLPC  C31420301   0.973   6.339   4.451  0.6494  0.3614 -0.5036
  178SLPC  H14X20302   1.033   6.427   4.480  1.4376  0.5748 -2.6419
  178SLPC  H14Y20303   0.879   6.373   4.403  0.3454  2.0994  1.2219
  178SLPC  C31520304   1.058   6.258   4.345  0.3722  0.4505  0.1842
  178SLPC  H15X20305   0.979   6.184   4.316 -1.4180  1.2059  2.7675
  178SLPC  H15Y20306   1.137   6.206   4.403 -0.5310 -0.7758  0.3573
  178SLPC  C31620307   1.123   6.332   4.234 -0.1411  0.0067 -0.4450
  178SLPC  H16X20308   1.185   6.265   4.169  0.1065 -2.3925  2.0893
  178SLPC  H16Y20309   1.193   6.405   4.279 -1.3821  0.0321  1.5494
  178SLPC  C31720310   1.027   6.413   4.154  0.1575  0.8774 -0.4813
  178SLPC  H17X20311   0.968   6.475   4.224 -1.0214 -0.3869 -0.2995
  178SLPC  H17Y20312   0.932   6.364   4.121  0.1969 -1.6446  2.7208
  178SLPC  C31820313   1.093   6.500   4.052 -0.3664  0.2205 -0.0839
  178SLPC  H18X20314   1.117   6.595   4.105 -0.2610  0.4574 -0.5496
  178SLPC  H18Y20315   1.019   6.519   3.971  0.9826  2.0593 -0.9564
  178SLPC  H18Z20316   1.183   6.447   4.015 -2.4052 -3.9852  0.4751
  179SLPC     N20317   5.708   5.292   2.304 -0.4829  0.0258  0.3468
  179SLPC   C1320318   5.847   5.263   2.356  0.3395  0.0886  0.7967
  179SLPC  H13A20319   5.838   5.227   2.458 -3.4913  0.5944  0.7817
  179SLPC  H13B20320   5.903   5.196   2.293 -0.7168  0.0771 -0.1508
  179SLPC  H13C20321   5.905   5.354   2.368 -0.5607  0.6849  0.6880
  179SLPC   C1420322   5.635   5.163   2.293 -0.6204 -0.9413 -0.7722
  179SLPC  H14A20323   5.691   5.090   2.238  0.1505 -0.6921 -0.3308
  179SLPC  H14B20324   5.617   5.118   2.390 -0.2430 -0.7870 -0.6279
  179SLPC  H14C20325   5.539   5.190   2.252 -0.7265 -1.7056 -1.0282
  179SLPC   C1520326   5.715   5.354   2.171  0.7839 -0.1288 -0.0094
  179SLPC  H15A20327   5.775   5.296   2.102 -0.1752 -0.3875 -0.6560
  179SLPC  H15B20328   5.614   5.361   2.131  0.9609  1.3227 -0.2433
  179SLPC  H15C20329   5.752   5.453   2.188 -0.8493  0.4794  0.2113
  179SLPC   C1220330   5.635   5.391   2.394  0.3163  0.0916  0.2113
  179SLPC  H12A20331   5.529   5.389   2.373  0.5198  0.5589 -0.9450
  179SLPC  H12B20332   5.666   5.492   2.374 -2.5431  1.0817  0.3362
  179SLPC   C1120333   5.653   5.378   2.547  1.5117 -0.3081 -0.1453
  179SLPC  H11A20334   5.637   5.276   2.587  1.9952 -0.6363 -0.7755
  179SLPC  H11B20335   5.572   5.431   2.602  0.9188 -0.6300 -0.6999
  179SLPC     P20336   5.828   5.560   2.596  0.2255 -0.3897  0.6020
  179SLPC   O1320337   5.967   5.577   2.642  0.7272  0.0459  0.2328
  179SLPC   O1420338   5.812   5.619   2.457 -0.2646 -0.0138  0.5306
  179SLPC   O1220339   5.775   5.412   2.596  0.0753  0.0050  0.1266
  179SLPC   O1120340   5.727   5.639   2.696 -0.0624 -0.1609 -0.3634
  179SLPC    C120341   5.691   5.595   2.820 -0.1736 -0.4199  0.1037
  179SLPC    HA20342   5.597   5.644   2.856 -0.0579  0.5077 -0.7935
  179SLPC    HB20343   5.663   5.488   2.823 -1.6797 -0.0790  3.7831
  179SLPC    C220344   5.794   5.630   2.929  0.1531 -0.5541 -0.2571
  179SLPC    HS20345   5.890   5.578   2.907  0.9446  0.5796  0.3744
  179SLPC   O2120346   5.741   5.580   3.050  0.0899 -0.1927  0.6935
  179SLPC   C2120347   5.823   5.559   3.152 -0.3587  0.1453  0.5424
  179SLPC   O2220348   5.946   5.555   3.152  0.2570 -0.0531  0.1435
  179SLPC   C2220349   5.737   5.518   3.277  0.0583  0.8330  0.1903
  179SLPC   H2R20350   5.635   5.559   3.261 -0.0250  0.0815 -1.3637
  179SLPC   H2S20351   5.734   5.407   3.279  0.8373  0.8097  1.8040
  179SLPC    C320352   5.823   5.784   2.937  0.1221  0.9366 -0.3498
  179SLPC    HX20353   5.727   5.840   2.942  0.2620  1.3827 -2.0541
  179SLPC    HY20354   5.863   5.809   2.836  0.0960 -1.7826 -1.1203
  179SLPC   O3120355   5.914   5.814   3.045 -0.7292 -0.0540  0.7408
  179SLPC   C3120356   6.038   5.791   3.019  0.3339  0.3601 -0.3846
  179SLPC   O3220357   6.082   5.742   2.920 -0.4768 -0.4856  0.2003
  179SLPC   C3220358   6.131   5.849   3.124  0.7191 -0.4891  0.3310
  179SLPC   H2X20359   6.171   5.940   3.075  0.3862 -1.2399 -1.3882
  179SLPC   H2Y20360   6.215   5.780   3.148  3.7797  2.9085  0.2744
  179SLPC   C2320361   5.791   5.572   3.412  0.1131 -0.4223  0.3008
  179SLPC   H3R20362   5.714   5.554   3.489 -0.2720 -1.6256 -0.3374
  179SLPC   H3S20363   5.807   5.682   3.413  0.5123 -0.4712  2.2419
  179SLPC   C2420364   5.915   5.495   3.444  0.1280  0.0379  0.3966
  179SLPC   H4R20365   5.996   5.534   3.379 -1.8302  2.7418 -0.6226
  179SLPC   H4S20366   5.905   5.386   3.425 -0.9955  0.4919 -2.0441
  179SLPC   C2520367   5.944   5.507   3.593  0.1049 -0.4884  0.0611
  179SLPC   H5R20368   6.023   5.433   3.621  1.3339  0.2049 -1.4355
  179SLPC   H5S20369   5.854   5.487   3.655  0.0443 -1.0520 -0.2029
  179SLPC   C2620370   5.989   5.648   3.643  0.7967 -0.1786  0.2942
  179SLPC   H6R20371   5.914   5.722   3.607 -1.6924 -2.1276  1.1868
  179SLPC   H6S20372   6.091   5.663   3.602  0.6834 -0.9455 -0.2791
  179SLPC   C2720373   5.987   5.658   3.799 -0.4040 -0.3642  0.7381
  179SLPC   H7R20374   5.891   5.622   3.843 -0.4714 -1.3603 -0.1777
  179SLPC   H7S20375   5.991   5.764   3.832  0.8396  0.0046 -0.5358
  179SLPC   C2820376   6.106   5.580   3.866  0.0150 -0.2586  0.3930
  179SLPC   H8R20377   6.199   5.639   3.851 -2.0929  3.4095  0.5789
  179SLPC   H8S20378   6.108   5.492   3.798  0.1483  1.2790 -1.6799
  179SLPC   C2920379   6.087   5.549   4.012  0.1033  0.3118 -0.2348
  179SLPC   H9R20380   6.089   5.630   4.086 -1.8232 -1.1788  1.6038
  179SLPC  C21020381   6.049   5.425   4.058 -0.2359  0.1979  0.1273
  179SLPC  H10R20382   6.041   5.401   4.165  1.6393 -0.7502  0.1142
  179SLPC  C21120383   6.024   5.298   3.979 -0.3449 -0.0746  0.0183
  179SLPC  H11R20384   6.005   5.327   3.873  0.3637 -3.5097 -1.1703
  179SLPC  H11S20385   5.925   5.254   4.002  0.9791 -3.3493 -0.0705
  179SLPC  C21220386   6.129   5.191   3.987  0.1527 -0.5000  0.2229
  179SLPC  H12R20387   6.217   5.204   3.923 -0.6645 -0.4556 -0.9304
  179SLPC  C21320388   6.122   5.082   4.058  0.2808  0.6585  0.8629
  179SLPC  H13R20389   6.212   5.019   4.064  0.7913  1.2934  0.0289
  179SLPC  C21420390   6.002   5.042   4.148 -0.0668  0.4123  0.8530
  179SLPC  H14R20391   5.897   5.052   4.114 -0.7451 -0.4576  2.5283
  179SLPC  H14S20392   6.012   5.091   4.248 -0.9930  1.4419  0.4538
  179SLPC  C21520393   5.996   4.887   4.178  0.6145 -0.2126 -0.5283
  179SLPC  H15R20394   6.084   4.840   4.227 -0.2494 -1.3616 -0.0289
  179SLPC  H15S20395   5.979   4.826   4.086  1.1183 -2.8202  0.9984
  179SLPC  C21620396   5.890   4.849   4.278 -0.1902  0.6153 -0.1083
  179SLPC  H16R20397   5.792   4.886   4.241 -1.2537  0.0446  1.9969
  179SLPC  H16S20398   5.897   4.908   4.372 -1.2333  2.1314 -0.9450
  179SLPC  C21720399   5.879   4.699   4.299 -0.3493 -0.4955  0.2796
  179SLPC  H17R20400   5.809   4.685   4.384 -1.2415  2.4156  0.1346
  179SLPC  H17S20401   5.986   4.674   4.319 -0.6473 -4.2966 -2.0494
  179SLPC  C21820402   5.847   4.613   4.179 -0.0623  0.7801 -0.2992
  179SLPC  H18R20403   5.739   4.620   4.155  0.6282 -0.6301 -4.7272
  179SLPC  H18S20404   5.864   4.505   4.199  1.8191  1.2792  1.0268
  179SLPC  H18T20405   5.895   4.643   4.084 -0.8425  2.8045 -0.1094
  179SLPC   C3320406   6.060   5.888   3.256  0.4318 -0.3360 -0.2928
  179SLPC   H3X20407   5.996   5.810   3.304 -2.7069  1.4823 -1.2274
  179SLPC   H3Y20408   5.987   5.970   3.241 -1.4104 -1.4408  1.9236
  179SLPC   C3420409   6.163   5.937   3.363  0.6616 -0.2450  1.2751
  179SLPC   H4X20410   6.222   6.014   3.310 -0.8791  1.2235  1.6073
  179SLPC   H4Y20411   6.237   5.859   3.391  2.0863 -0.4129 -2.4375
  179SLPC   C3520412   6.092   5.990   3.488 -0.3967 -0.5750  0.3379
  179SLPC   H5X20413   5.993   6.025   3.452 -0.8409 -2.4365 -0.4084
  179SLPC   H5Y20414   6.073   5.899   3.550  1.3719 -1.0276  0.2569
  179SLPC   C3620415   6.161   6.095   3.567 -0.0716 -0.3637 -0.4042
  179SLPC   H6X20416   6.107   6.173   3.625  1.6699  1.6069 -1.2914
  179SLPC   H6Y20417   6.223   6.153   3.494  2.5159 -0.5612  1.4930
  179SLPC   C3720418   6.267   6.040   3.667  0.6432  0.3434 -0.6762
  179SLPC   H7X20419   6.341   6.119   3.693 -0.7026  1.0280  1.2625
  179SLPC   H7Y20420   6.323   5.958   3.615 -0.1161 -0.4029 -0.3384
  179SLPC   C3820421   6.189   6.001   3.793  0.9104 -0.1864 -0.0418
  179SLPC   H8X20422   6.106   5.931   3.770 -1.0705  1.2422  2.3959
  179SLPC   H8Y20423   6.131   6.076   3.851 -2.1386  0.5796 -3.7231
  179SLPC   C3920424   6.284   5.926   3.894  0.7358  1.0195  0.1545
  179SLPC   H9X20425   6.377   5.987   3.887  0.6786  0.9460 -2.0827
  179SLPC   H9Y20426   6.310   5.823   3.862  0.4116  0.9986 -0.0454
  179SLPC  C31020427   6.233   5.921   4.036 -0.4202 -0.2216 -0.3671
  179SLPC  H10X20428   6.124   5.898   4.035 -0.6011  0.6067 -0.6919
  179SLPC  H10Y20429   6.235   6.020   4.086 -1.7059 -1.1479  1.6545
  179SLPC  C31120430   6.317   5.823   4.116  0.4600  0.4117  0.3025
  179SLPC  H11X20431   6.424   5.849   4.112  0.3727  0.6698 -0.3429
  179SLPC  H11Y20432   6.301   5.718   4.084  2.1729 -0.3777  1.8531
  179SLPC  C31220433   6.278   5.836   4.271 -0.5321 -0.6578  0.7432
  179SLPC  H12X20434   6.298   5.745   4.330  1.0080 -0.2844  0.8627
  179SLPC  H12Y20435   6.169   5.854   4.263 -0.4737 -0.4646  0.3538
  179SLPC  C31320436   6.337   5.958   4.343 -0.1917  0.1617 -0.7881
  179SLPC  H13X20437   6.259   6.001   4.409  0.1778 -0.6528  0.1959
  179SLPC  H13Y20438   6.365   6.031   4.264  0.3953  0.6460 -0.1334
  179SLPC  C31420439   6.471   5.921   4.424  0.7193  0.5061 -0.1930
  179SLPC  H14X20440   6.556   5.941   4.356  2.1644  3.0183  2.1441
  179SLPC  H14Y20441   6.486   5.816   4.455 -2.2235 -0.4562 -1.6557
  179SLPC  C31520442   6.484   6.012   4.543  0.0839 -0.1533  0.3879
  179SLPC  H15X20443   6.413   5.974   4.620  0.1544 -0.8635  0.1100
  179SLPC  H15Y20444   6.455   6.115   4.512  2.2869 -0.0731 -1.7111
  179SLPC  C31620445   6.621   6.019   4.607 -0.6100  0.9939 -0.1824
  179SLPC  H16X20446   6.625   6.095   4.687 -0.2417  0.2611  0.5180
  179SLPC  H16Y20447   6.683   6.062   4.526  0.0107 -1.1036 -0.9029
  179SLPC  C31720448   6.681   5.889   4.659  0.7856 -0.0045  0.2984
  179SLPC  H17X20449   6.786   5.908   4.692 -0.1149  1.0626  2.7093
  179SLPC  H17Y20450   6.694   5.821   4.572  0.4304  0.3859 -0.0599
  179SLPC  C31820451   6.595   5.827   4.773 -0.8188  0.0141 -0.3889
  179SLPC  H18X20452   6.582   5.912   4.844  0.1049 -0.5308  0.4514
  179SLPC  H18Y20453   6.655   5.743   4.814 -1.7576 -0.3596  0.2392
  179SLPC  H18Z20454   6.495   5.791   4.743 -1.6846  2.3027 -0.4987
  180SLPC     N20455   2.768   6.214   2.065 -0.6404 -0.8212 -0.0512
  180SLPC   C1320456   2.713   6.082   2.040  0.3200  0.2889 -0.0701
  180SLPC  H13A20457   2.733   6.017   2.124 -1.5304  0.6343  0.6950
  180SLPC  H13B20458   2.607   6.086   2.023  0.3018  1.9825  0.2285
  180SLPC  H13C20459   2.757   6.032   1.955  1.5322 -1.1668  1.3415
  180SLPC   C1420460   2.725   6.314   1.957 -0.0865  0.2407  0.1049
  180SLPC  H14A20461   2.740   6.285   1.854  2.0369 -0.2609  0.5126
  180SLPC  H14B20462   2.620   6.337   1.967  0.6332  3.6553  0.9319
  180SLPC  H14C20463   2.775   6.409   1.963 -1.4860  1.1873 -2.0121
  180SLPC   C1520464   2.918   6.194   2.058 -0.0715 -1.2946 -0.6500
  180SLPC  H15A20465   2.951   6.137   2.144 -2.2141 -1.8162 -0.1114
  180SLPC  H15B20466   2.937   6.135   1.969 -1.2112 -0.7235 -1.2864
  180SLPC  H15C20467   2.967   6.290   2.051  2.3841 -2.5014 -1.3666
  180SLPC   C1220468   2.732   6.265   2.202 -0.1364  0.2624  0.4687
  180SLPC  H12A20469   2.747   6.186   2.273 -0.0783  0.1584  0.3409
  180SLPC  H12B20470   2.628   6.292   2.196  0.3675  2.0475 -1.9493
  180SLPC   C1120471   2.806   6.391   2.246  0.7216 -0.1585  0.0503
  180SLPC  H11A20472   2.915   6.387   2.229  1.0096  2.3025  0.9817
  180SLPC  H11B20473   2.780   6.396   2.354  0.9857  0.6289  0.0775
  180SLPC     P20474   2.823   6.642   2.175 -0.1193  0.1980 -0.3877
  180SLPC   O1320475   2.925   6.625   2.068  0.1330  0.7672  0.3095
  180SLPC   O1420476   2.729   6.751   2.147 -0.0616 -0.0625 -0.0886
  180SLPC   O1220477   2.745   6.506   2.194  0.3115 -0.7316 -0.6644
  180SLPC   O1120478   2.888   6.656   2.312  0.1318  0.2002  0.5686
  180SLPC    C120479   2.814   6.678   2.433  0.5571 -0.4183  0.1692
  180SLPC    HA20480   2.706   6.659   2.414  0.3156  0.7787  0.2409
  180SLPC    HB20481   2.851   6.620   2.521  0.9559 -0.2192  0.1351
  180SLPC    C220482   2.834   6.830   2.467 -0.7296  0.2723  0.4160
  180SLPC    HS20483   2.815   6.884   2.372  2.0542 -1.2904 -1.1651
  180SLPC   O2120484   2.972   6.842   2.507  0.6406  0.4032 -0.2162
  180SLPC   C2120485   3.016   6.973   2.505  0.0393 -0.4005 -0.7324
  180SLPC   O2220486   2.944   7.074   2.492 -0.0249  0.7880 -0.1896
  180SLPC   C2220487   3.168   6.976   2.528  0.2023 -0.3235  0.0825
  180SLPC   H2R20488   3.212   6.876   2.549 -0.0388 -0.4685 -0.1080
  180SLPC   H2S20489   3.220   6.998   2.432  1.8882  0.7314  1.1753
  180SLPC    C320490   2.737   6.885   2.566 -0.2387 -0.4721  0.0428
  180SLPC    HX20491   2.636   6.865   2.523  0.4663  0.4055 -2.1413
  180SLPC    HY20492   2.746   6.995   2.569  0.8744 -0.5449 -0.1474
  180SLPC   O3120493   2.756   6.837   2.702  0.5582  0.4597 -0.0100
  180SLPC   C3120494   2.637   6.815   2.769  0.4175 -0.3661  0.1122
  180SLPC   O3220495   2.528   6.803   2.717  0.6612 -0.3270  0.4496
  180SLPC   C3220496   2.679   6.797   2.910 -0.0094  0.1084 -0.0719
  180SLPC   H2X20497   2.743   6.884   2.938 -0.2137 -0.0838  1.0349
  180SLPC   H2Y20498   2.752   6.713   2.905 -0.6546 -0.4061 -1.1936
  180SLPC   C2320499   3.196   7.066   2.643 -0.0841  0.5579 -0.4195
  180SLPC   H3R20500   3.148   7.165   2.624 -0.2140  0.3321 -1.3191
  180SLPC   H3S20501   3.304   7.086   2.665 -0.4367  3.9620 -1.1293
  180SLPC   C2420502   3.135   7.011   2.774  0.7047  0.4573 -0.4654
  180SLPC   H4R20503   3.166   6.908   2.799  0.4462  0.3194 -0.6996
  180SLPC   H4S20504   3.024   7.007   2.775  0.7393 -0.7419  0.9069
  180SLPC   C2520505   3.168   7.095   2.901 -0.5170 -0.5431  0.7899
  180SLPC   H5R20506   3.132   7.198   2.880  0.7085 -0.3388 -0.4715
  180SLPC   H5S20507   3.275   7.092   2.928 -0.8236 -1.5308  1.9972
  180SLPC   C2620508   3.088   7.048   3.026  0.4213  0.0046  0.1573
  180SLPC   H6R20509   3.130   6.950   3.057  2.4244  1.0011  0.7999
  180SLPC   H6S20510   2.981   7.039   2.997 -0.1146  1.5045  1.4762
  180SLPC   C2720511   3.088   7.147   3.143 -0.1519 -0.3231 -0.1477
  180SLPC   H7R20512   3.032   7.238   3.113  3.0937  1.7945 -0.2512
  180SLPC   H7S20513   3.193   7.173   3.171 -0.2462 -0.3515  0.2427
  180SLPC   C2820514   3.017   7.083   3.270 -0.0846  0.3314 -0.1244
  180SLPC   H8R20515   3.095   7.008   3.294 -2.7142 -2.8752 -0.8460
  180SLPC   H8S20516   2.931   7.023   3.233  0.1418  1.2659 -2.3222
  180SLPC   C2920517   2.994   7.187   3.376 -0.1257  0.5196 -0.2839
  180SLPC   H9R20518   2.942   7.275   3.336 -0.1671  0.1047 -1.1754
  180SLPC  C21020519   3.022   7.178   3.504  0.4993 -0.2419  0.2399
  180SLPC  H10R20520   2.978   7.260   3.563  1.2485  1.2569 -1.1883
  180SLPC  C21120521   3.086   7.066   3.584  0.0518  0.2988  0.7087
  180SLPC  H11R20522   3.143   6.995   3.521 -0.7450 -0.9312  1.3428
  180SLPC  H11S20523   3.004   7.011   3.636 -0.1139  0.3026  0.4510
  180SLPC  C21220524   3.184   7.127   3.679  0.0136  0.6792  0.1405
  180SLPC  H12R20525   3.236   7.209   3.627  0.2712  1.0513  0.9651
  180SLPC  C21320526   3.204   7.100   3.812  0.1763 -0.1242 -0.0653
  180SLPC  H13R20527   3.287   7.154   3.859  0.2158 -1.3907  1.4172
  180SLPC  C21420528   3.142   7.000   3.915 -0.1474  0.3239  0.2134
  180SLPC  H14R20529   3.057   6.959   3.857  0.5528 -0.9844  0.0840
  180SLPC  H14S20530   3.106   7.058   4.003  3.3812  1.9488  0.7714
  180SLPC  C21520531   3.217   6.870   3.950 -0.8638  0.4596  0.6643
  180SLPC  H15R20532   3.230   6.817   3.853 -0.5442  2.2888 -0.3407
  180SLPC  H15S20533   3.153   6.819   4.025  0.8592 -1.7923  0.6945
  180SLPC  C21620534   3.357   6.896   4.011 -0.5092 -0.0213 -0.3596
  180SLPC  H16R20535   3.416   6.961   3.943 -0.0136 -0.3357 -0.2412
  180SLPC  H16S20536   3.419   6.803   4.016 -0.1204  0.2839  0.8052
  180SLPC  C21720537   3.362   6.964   4.148 -0.2056 -0.2741  0.0867
  180SLPC  H17R20538   3.296   6.913   4.222 -3.0714  0.6364 -1.6618
  180SLPC  H17S20539   3.325   7.068   4.137  0.3100  0.0612  1.3888
  180SLPC  C21820540   3.499   6.966   4.215  0.1322  0.0539  0.2819
  180SLPC  H18R20541   3.569   7.017   4.146 -0.9254 -0.2160 -1.0251
  180SLPC  H18S20542   3.546   6.865   4.216  0.1628  0.0538 -0.7008
  180SLPC  H18T20543   3.498   7.002   4.320  2.1027 -0.0548  0.3626
  180SLPC   C3320544   2.556   6.765   2.998  0.0710  0.5922  0.0089
  180SLPC   H3X20545   2.497   6.680   2.957  0.5536 -0.0542  0.6096
  180SLPC   H3Y20546   2.499   6.860   2.987  1.6095  1.6533  0.9095
  180SLPC   C3420547   2.600   6.741   3.141 -0.0507 -0.1566  0.3891
  180SLPC   H4X20548   2.665   6.827   3.169 -2.1557  1.7485 -0.2105
  180SLPC   H4Y20549   2.663   6.650   3.145  0.9815  0.5431  0.4010
  180SLPC   C3520550   2.488   6.737   3.246 -0.3936  0.6053  0.4046
  180SLPC   H5X20551   2.398   6.679   3.215 -0.2181 -0.2155  1.3882
  180SLPC   H5Y20552   2.462   6.844   3.256  0.5374  1.0371 -1.3236
  180SLPC   C3620553   2.527   6.675   3.381 -0.5535  0.1210 -0.8123
  180SLPC   H6X20554   2.556   6.570   3.360  0.5972  0.4214 -0.7598
  180SLPC   H6Y20555   2.436   6.676   3.446 -0.1077  4.5782  0.0383
  180SLPC   C3720556   2.632   6.758   3.459  0.0011  0.7367 -0.6664
  180SLPC   H7X20557   2.585   6.857   3.477  1.4076  0.9947  2.2944
  180SLPC   H7Y20558   2.725   6.755   3.399  0.8882  0.6800  0.6660
  180SLPC   C3820559   2.666   6.710   3.604 -0.3146 -0.0683 -0.3756
  180SLPC   H8X20560   2.714   6.610   3.599 -2.0690 -0.8875 -2.4326
  180SLPC   H8Y20561   2.565   6.705   3.649 -1.1503  0.3691 -2.1222
  180SLPC   C3920562   2.753   6.809   3.689 -0.2525 -0.5606  0.3747
  180SLPC   H9X20563   2.697   6.905   3.694  1.5749  0.5495  0.5344
  180SLPC   H9Y20564   2.833   6.842   3.618  0.4547 -1.5148  0.7099
  180SLPC  C31020565   2.811   6.769   3.823 -1.1574  0.1379 -0.1629
  180SLPC  H10X20566   2.868   6.857   3.861  0.4400 -0.9686  0.0968
  180SLPC  H10Y20567   2.887   6.690   3.808 -1.5808 -0.2990 -0.0596
  180SLPC  C31120568   2.705   6.734   3.922  0.1225 -0.2017 -0.6121
  180SLPC  H11X20569   2.649   6.645   3.885 -1.3210 -0.1073  1.1799
  180SLPC  H11Y20570   2.631   6.816   3.925  1.3603  0.9263 -0.1269
  180SLPC  C31220571   2.753   6.706   4.067  0.0317 -0.6378 -0.5091
  180SLPC  H12X20572   2.856   6.664   4.068  0.0399 -0.6340  0.7739
  180SLPC  H12Y20573   2.684   6.629   4.108 -1.0913  0.3922 -0.4448
  180SLPC  C31320574   2.730   6.830   4.151 -0.0484 -0.2365  0.1456
  180SLPC  H13X20575   2.755   6.807   4.256  2.4130  1.6916  0.0864
  180SLPC  H13Y20576   2.628   6.874   4.146 -0.0782 -0.2634  0.5180
  180SLPC  C31420577   2.811   6.959   4.122 -0.5000  0.6313  1.1021
  180SLPC  H14X20578   2.784   7.008   4.026  1.3188  1.0660  0.7660
  180SLPC  H14Y20579   2.917   6.925   4.116 -0.5913  0.1095  2.3269
  180SLPC  C31520580   2.808   7.054   4.238 -0.3975  0.0495  0.5358
  180SLPC  H15X20581   2.889   7.129   4.243  2.5584 -2.9030  0.2461
  180SLPC  H15Y20582   2.827   7.000   4.333  1.9530  0.4520  0.3463
  180SLPC  C31620583   2.665   7.115   4.241 -0.6719  0.1412 -0.2118
  180SLPC  H16X20584   2.592   7.033   4.255 -0.9715  0.3493 -0.5328
  180SLPC  H16Y20585   2.647   7.158   4.140 -1.2929 -0.2882 -0.2878
  180SLPC  C31720586   2.649   7.221   4.344  0.1845 -0.2787 -0.6377
  180SLPC  H17X20587   2.681   7.192   4.447 -1.1810  1.4793  0.3382
  180SLPC  H17Y20588   2.544   7.256   4.351 -0.4617 -2.1082 -0.6363
  180SLPC  C31820589   2.716   7.358   4.315  0.1792 -0.5589 -0.6006
  180SLPC  H18X20590   2.685   7.411   4.222  0.6345  4.6513  1.8898
  180SLPC  H18Y20591   2.825   7.340   4.302  0.6134  1.8337 -0.5930
  180SLPC  H18Z20592   2.694   7.432   4.395 -2.1707 -1.0730 -0.6950
  181SLPC     N20593   1.723   6.123   1.474 -0.0546  0.3416  0.2733
  181SLPC   C1320594   1.598   6.111   1.391 -0.3250  0.4058 -0.1172
  181SLPC  H13A20595   1.617   6.131   1.286 -0.5481  2.4595  0.1938
  181SLPC  H13B20596   1.551   6.015   1.403  0.6531 -0.0255  0.3630
  181SLPC  H13C20597   1.534   6.189   1.430 -0.4835 -0.1038  0.6443
  181SLPC   C1420598   1.773   6.261   1.451  0.0353  0.2870 -0.7209
  181SLPC  H14A20599   1.696   6.332   1.480  0.5333  0.0303  1.4385
  181SLPC  H14B20600   1.859   6.280   1.513 -0.3104  0.6871 -0.3497
  181SLPC  H14C20601   1.806   6.290   1.353  0.6161  2.9505  0.1532
  181SLPC   C1520602   1.825   6.034   1.412 -1.2321  0.2229 -0.5046
  181SLPC  H15A20603   1.921   6.060   1.454 -2.5893  5.9360 -0.0554
  181SLPC  H15B20604   1.799   5.930   1.423  0.6791 -0.3552 -0.9867
  181SLPC  H15C20605   1.825   6.058   1.306 -0.8427 -2.7737 -1.2645
  181SLPC   C1220606   1.698   6.090   1.623  0.1765  0.1151  0.6491
  181SLPC  H12A20607   1.647   5.996   1.639  0.3382  0.0774  0.9352
  181SLPC  H12B20608   1.632   6.163   1.666 -1.1431 -0.9712  0.5264
  181SLPC   C1120609   1.820   6.080   1.710  0.2066  0.0183  0.1160
  181SLPC  H11A20610   1.898   6.009   1.673  0.0722  1.3101 -2.9686
  181SLPC  H11B20611   1.778   6.043   1.806  0.9012 -2.0320 -0.3049
  181SLPC     P20612   1.808   6.322   1.806 -0.4008 -0.2808 -0.5729
  181SLPC   O1320613   1.908   6.428   1.836  0.5459 -0.3993  0.3073
  181SLPC   O1420614   1.678   6.359   1.738 -0.3480 -0.1515  0.3282
  181SLPC   O1220615   1.881   6.206   1.731 -0.3184 -0.1145  0.8379
  181SLPC   O1120616   1.769   6.250   1.942 -0.0837  0.5272  0.1842
  181SLPC    C120617   1.849   6.161   2.025  0.0594  0.2789 -0.0063
  181SLPC    HA20618   1.805   6.060   2.038 -1.6082  0.9105 -0.5770
  181SLPC    HB20619   1.950   6.148   1.980  0.8882  0.6512  1.6546
  181SLPC    C220620   1.874   6.214   2.170  0.0914 -1.2157 -0.4178
  181SLPC    HS20621   1.779   6.215   2.228 -1.0880 -1.4592 -2.2328
  181SLPC   O2120622   1.942   6.333   2.164  0.0880 -0.5587 -0.1766
  181SLPC   C2120623   1.885   6.440   2.205 -0.0548 -0.2010 -0.6169
  181SLPC   O2220624   1.779   6.459   2.260  0.2321 -0.5631  0.1958
  181SLPC   C2220625   1.986   6.557   2.189 -0.0701  0.0791  0.0402
  181SLPC   H2R20626   2.046   6.565   2.095 -1.2068  1.4786 -0.6169
  181SLPC   H2S20627   1.924   6.649   2.190 -1.6288 -0.9021  2.9023
  181SLPC    C320628   1.959   6.112   2.246 -0.4494  0.6334 -0.3221
  181SLPC    HX20629   2.062   6.116   2.205 -0.4229 -1.0016 -0.4994
  181SLPC    HY20630   1.925   6.008   2.229  0.8310  0.3245 -1.2181
  181SLPC   O3120631   1.956   6.144   2.388 -0.3666 -0.2959 -0.1829
  181SLPC   C3120632   2.074   6.149   2.456  0.3708 -0.5464  0.1738
  181SLPC   O3220633   2.187   6.149   2.409  0.2334  0.1009 -0.3328
  181SLPC   C3220634   2.042   6.134   2.600 -0.7590 -0.0658 -0.7274
  181SLPC   H2X20635   2.053   6.024   2.612  1.3154  0.2667  1.0639
  181SLPC   H2Y20636   1.937   6.160   2.626 -0.6496 -0.8439  0.6010
  181SLPC   C2320637   2.078   6.556   2.311 -0.5460 -0.1651 -1.0033
  181SLPC   H3R20638   2.171   6.609   2.284  1.0826 -2.4848 -0.2469
  181SLPC   H3S20639   2.110   6.452   2.333  2.6695  0.9462  0.1014
  181SLPC   C2420640   2.012   6.620   2.439 -0.0592  0.2718 -0.1394
  181SLPC   H4R20641   1.907   6.585   2.454 -1.8761  4.7040 -0.7920
  181SLPC   H4S20642   2.007   6.730   2.421  1.3415  0.4686  0.5196
  181SLPC   C2520643   2.101   6.586   2.565 -0.4896  0.4229  0.1976
  181SLPC   H5R20644   2.202   6.616   2.530 -0.3915 -1.3039 -1.1125
  181SLPC   H5S20645   2.099   6.477   2.588 -1.8125  0.1306 -1.0656
  181SLPC   C2620646   2.070   6.668   2.683 -0.0543 -0.1545 -0.3238
  181SLPC   H6R20647   1.973   6.632   2.724 -0.0654  1.5329  1.2442
  181SLPC   H6S20648   2.053   6.774   2.656 -3.0572 -0.7518 -1.1367
  181SLPC   C2720649   2.189   6.653   2.776 -0.3249  0.7261 -0.7287
  181SLPC   H7R20650   2.265   6.713   2.722 -0.2104  0.4516 -0.8722
  181SLPC   H7S20651   2.224   6.549   2.788 -2.2101  0.2543  1.6207
  181SLPC   C2820652   2.154   6.711   2.923  0.6739  0.8293  0.3950
  181SLPC   H8R20653   2.225   6.658   2.990 -0.7510  1.7153  2.7201
  181SLPC   H8S20654   2.054   6.670   2.949 -0.3356  3.0734  0.2246
  181SLPC   C2920655   2.174   6.856   2.935  0.4649  0.5534 -0.4020
  181SLPC   H9R20656   2.189   6.925   2.850  0.7493  0.9046 -0.0653
  181SLPC  C21020657   2.183   6.917   3.054  0.3544  0.2906  0.0609
  181SLPC  H10R20658   2.191   7.027   3.051  0.0502  0.2957 -0.9336
  181SLPC  C21120659   2.155   6.861   3.192  0.3834  0.3203 -0.3579
  181SLPC  H11R20660   2.257   6.836   3.229 -0.0726 -3.6339 -1.3387
  181SLPC  H11S20661   2.101   6.764   3.187  0.9538 -0.0116 -0.1433
  181SLPC  C21220662   2.094   6.957   3.290  0.0714 -0.3724 -0.6012
  181SLPC  H12R20663   2.055   7.041   3.231 -0.7945 -1.5140 -1.7199
  181SLPC  C21320664   2.076   6.944   3.425 -0.1713  1.0434 -0.2579
  181SLPC  H13R20665   2.019   7.016   3.485  0.6400 -0.3722  2.3729
  181SLPC  C21420666   2.131   6.827   3.506 -0.0797  0.2897  0.5597
  181SLPC  H14R20667   2.134   6.734   3.445  1.1519  0.7351 -0.1079
  181SLPC  H14S20668   2.054   6.810   3.584 -2.5011  0.5177 -1.6745
  181SLPC  C21520669   2.260   6.852   3.585  0.2301  0.4155 -0.0544
  181SLPC  H15R20670   2.342   6.903   3.529  0.9149  0.7209  1.1833
  181SLPC  H15S20671   2.297   6.756   3.628 -3.6869 -0.9993  0.4982
  181SLPC  C21620672   2.237   6.943   3.710  0.1430 -0.2657 -0.8048
  181SLPC  H16R20673   2.156   6.894   3.767 -0.4903 -3.3401 -4.0447
  181SLPC  H16S20674   2.211   7.049   3.690 -2.1722 -0.5784  0.2583
  181SLPC  C21720675   2.364   6.941   3.802 -0.2679  0.1424 -0.5945
  181SLPC  H17R20676   2.449   6.999   3.759  0.6314 -1.2606 -0.7979
  181SLPC  H17S20677   2.400   6.836   3.803  0.1805  0.2965  0.2400
  181SLPC  C21820678   2.335   6.993   3.945  0.5514 -0.2141  0.2261
  181SLPC  H18R20679   2.288   6.910   4.002  1.7196 -0.2577  1.1949
  181SLPC  H18S20680   2.282   7.091   3.950 -1.5372 -1.3050  0.5216
  181SLPC  H18T20681   2.433   7.007   3.996  2.3052 -0.2506 -2.9197
  181SLPC   C3320682   2.134   6.214   2.692 -0.9381  0.4192 -0.3383
  181SLPC   H3X20683   2.100   6.319   2.706 -0.0739  0.4162  2.4828
  181SLPC   H3Y20684   2.240   6.207   2.661 -1.0036 -1.3676 -0.2755
  181SLPC   C3420685   2.127   6.157   2.834  0.3387 -0.2867  0.1465
  181SLPC   H4X20686   2.173   6.056   2.841 -0.1809 -0.4225  3.3486
  181SLPC   H4Y20687   2.018   6.141   2.848  0.0519  0.0282 -1.5121
  181SLPC   C3520688   2.186   6.255   2.942 -0.2238  0.0327 -0.0249
  181SLPC   H5X20689   2.146   6.358   2.939  2.6013  1.2246  0.0477
  181SLPC   H5Y20690   2.294   6.254   2.915 -0.3548 -1.4403 -0.5703
  181SLPC   C3620691   2.169   6.211   3.086 -0.0173 -0.3897  0.5232
  181SLPC   H6X20692   2.213   6.110   3.102 -1.9031 -1.1377  1.2909
  181SLPC   H6Y20693   2.062   6.184   3.097 -0.2759 -0.0264 -0.9051
  181SLPC   C3720694   2.225   6.318   3.191 -0.0856  0.0174  0.2563
  181SLPC   H7X20695   2.175   6.414   3.164 -0.0846 -0.3110 -0.9906
  181SLPC   H7Y20696   2.334   6.336   3.181 -0.4286  1.3335 -1.8298
  181SLPC   C3820697   2.182   6.281   3.337  0.0148 -0.3089  0.2588
  181SLPC   H8X20698   2.198   6.171   3.347 -1.8418 -0.5882  0.4915
  181SLPC   H8Y20699   2.073   6.300   3.346  0.1307  3.1039 -3.0467
  181SLPC   C3920700   2.256   6.346   3.451 -0.0521  0.3108  0.0545
  181SLPC   H9X20701   2.260   6.455   3.432  2.4031  0.3011  0.2498
  181SLPC   H9Y20702   2.361   6.311   3.455 -0.5058 -1.0237  0.7562
  181SLPC  C31020703   2.194   6.322   3.582 -0.6622  0.0451 -0.9274
  181SLPC  H10X20704   2.191   6.215   3.612  0.0484  0.5016  0.8886
  181SLPC  H10Y20705   2.088   6.356   3.580 -1.1225 -1.2367 -0.1640
  181SLPC  C31120706   2.266   6.392   3.698 -0.2181  0.6329 -0.5917
  181SLPC  H11X20707   2.274   6.503   3.691  0.8356  0.4874 -2.1002
  181SLPC  H11Y20708   2.369   6.353   3.709 -0.8578 -0.5726  1.7459
  181SLPC  C31220709   2.184   6.362   3.817 -0.0937  0.2685  0.7338
  181SLPC  H12X20710   2.168   6.252   3.824 -1.4699  0.3879 -0.0842
  181SLPC  H12Y20711   2.079   6.398   3.806 -0.6524 -1.0837  1.3265
  181SLPC  C31320712   2.246   6.410   3.948 -0.0854 -0.7884  0.0655
  181SLPC  H13X20713   2.178   6.465   4.017 -1.4438  0.8570 -2.4272
  181SLPC  H13Y20714   2.326   6.484   3.924 -0.7648 -0.0430  0.0632
  181SLPC  C31420715   2.314   6.297   4.027 -0.1638  0.4388 -0.1751
  181SLPC  H14X20716   2.411   6.279   3.975 -1.3603  0.3064 -2.5205
  181SLPC  H14Y20717   2.265   6.197   4.022  1.5028 -0.3877 -1.0612
  181SLPC  C31520718   2.342   6.331   4.173  0.3339  0.2995 -0.3480
  181SLPC  H15X20719   2.411   6.255   4.217  0.3884  0.0862 -0.7978
  181SLPC  H15Y20720   2.248   6.317   4.231  0.0869 -1.9208 -1.1587
  181SLPC  C31620721   2.395   6.476   4.198 -0.5345 -0.2423  0.0700
  181SLPC  H16X20722   2.312   6.544   4.168 -0.3533  0.2126  0.5913
  181SLPC  H16Y20723   2.479   6.483   4.127  0.6182 -1.1668  1.2910
  181SLPC  C31720724   2.439   6.502   4.334  0.7959  0.0259 -0.8132
  181SLPC  H17X20725   2.502   6.420   4.375 -0.7553 -0.8254 -0.0353
  181SLPC  H17Y20726   2.349   6.495   4.399  0.3520  1.3222 -1.2619
  181SLPC  C31820727   2.512   6.635   4.359  0.1021  0.6202 -0.3044
  181SLPC  H18X20728   2.515   6.634   4.470 -1.4688 -0.8522 -0.2236
  181SLPC  H18Y20729   2.457   6.723   4.321  0.3856  1.4824  1.1994
  181SLPC  H18Z20730   2.612   6.648   4.314  0.6816  1.2024  1.0808
  182SLPC     N20731   6.760   6.572   2.020  0.0482  0.7187 -0.2182
  182SLPC   C1320732   6.677   6.451   1.989  0.1158  0.3173  0.4935
  182SLPC  H13A20733   6.678   6.396   2.082 -0.6114  1.4051  1.1622
  182SLPC  H13B20734   6.575   6.478   1.969  0.6064  1.1685 -1.0389
  182SLPC  H13C20735   6.708   6.379   1.914 -3.0311 -1.0371  0.3187
  182SLPC   C1420736   6.681   6.658   2.109 -0.3200  0.2528 -0.2505
  182SLPC  H14A20737   6.577   6.634   2.092  0.0870 -1.1881 -0.8649
  182SLPC  H14B20738   6.693   6.640   2.214  0.8885 -0.3625 -0.4737
  182SLPC  H14C20739   6.711   6.760   2.091  0.7689 -0.4988 -3.4499
  182SLPC   C1520740   6.785   6.635   1.885  0.2574 -0.8583 -0.6477
  182SLPC  H15A20741   6.852   6.719   1.890 -0.6280 -0.1881  0.2835
  182SLPC  H15B20742   6.820   6.567   1.808 -1.0678 -0.3077 -1.7644
  182SLPC  H15C20743   6.694   6.682   1.852 -0.0655  0.2975  1.7392
  182SLPC   C1220744   6.890   6.531   2.087  0.4287 -0.1056 -0.3589
  182SLPC  H12A20745   6.937   6.624   2.113  0.2593 -0.0381 -0.2919
  182SLPC  H12B20746   6.952   6.471   2.023  1.0862 -1.3598  1.3716
  182SLPC   C1120747   6.882   6.448   2.217  0.1359  0.7507 -0.5029
  182SLPC  H11A20748   6.845   6.524   2.289  0.6742  0.8694 -0.3511
  182SLPC  H11B20749   6.987   6.427   2.248  0.0212 -2.4778 -1.9707
  182SLPC     P20750   6.885   6.200   2.158  0.0542 -0.1558  0.1613
  182SLPC   O1320751   6.797   6.132   2.057  0.2625 -0.4147  0.2951
  182SLPC   O1420752   7.030   6.213   2.133  0.4051  0.4352  0.8401
  182SLPC   O1220753   6.807   6.329   2.219  0.0249  0.4992 -0.0035
  182SLPC   O1120754   6.876   6.088   2.269  0.5845 -0.0106 -0.4703
  182SLPC    C120755   6.982   6.070   2.364 -0.0816  0.1456  0.1044
  182SLPC    HA20756   7.079   6.051   2.314  1.2153  1.3651  2.0112
  182SLPC    HB20757   7.015   6.162   2.418  0.6511 -1.1210  1.9183
  182SLPC    C220758   6.952   5.968   2.475  0.3625 -0.4307  0.6745
  182SLPC    HS20759   6.923   5.882   2.412  0.1841 -0.5301  0.8931
  182SLPC   O2120760   6.835   6.010   2.549  0.0298 -0.8406  0.4149
  182SLPC   C2120761   6.765   5.911   2.598 -0.0035  0.2557 -0.5823
  182SLPC   O2220762   6.784   5.791   2.579  0.5550  0.4001 -1.0038
  182SLPC   C2220763   6.640   5.965   2.678 -0.5871  0.5674  0.5465
  182SLPC   H2R20764   6.675   6.067   2.705 -2.2708  0.7399  2.2598
  182SLPC   H2S20765   6.555   5.969   2.607  0.3069  2.3449 -0.4953
  182SLPC    C320766   7.066   5.936   2.580 -1.2134 -0.6405  0.2923
  182SLPC    HX20767   7.152   5.907   2.516 -2.9169 -0.6121 -2.1824
  182SLPC    HY20768   7.046   5.841   2.634 -1.5788 -0.4543  0.4895
  182SLPC   O3120769   7.107   6.044   2.663 -0.1665  0.6299 -0.4136
  182SLPC   C3120770   7.061   6.042   2.787 -0.0040  0.6136 -0.5667
  182SLPC   O3220771   6.983   5.961   2.832  0.2087  0.5893 -0.3573
  182SLPC   C3220772   7.121   6.159   2.855 -0.5198 -0.6863  0.0012
  182SLPC   H2X20773   7.038   6.223   2.891 -0.1652 -0.6346  0.7454
  182SLPC   H2Y20774   7.173   6.222   2.779 -2.8955  0.3007 -0.8993
  182SLPC   C2320775   6.616   5.871   2.794  0.8968 -0.5846  0.1317
  182SLPC   H3R20776   6.708   5.863   2.856  0.9352  2.4461  0.6563
  182SLPC   H3S20777   6.595   5.767   2.764  0.3688 -0.1150 -1.2076
  182SLPC   C2420778   6.502   5.926   2.886 -0.2951  0.4725  0.3572
  182SLPC   H4R20779   6.487   5.857   2.972  1.6321 -2.2325 -1.3328
  182SLPC   H4S20780   6.405   5.918   2.832 -0.9443 -1.2360  1.6555
  182SLPC   C2520781   6.533   6.065   2.933  1.6448  0.1652 -0.2980
  182SLPC   H5R20782   6.520   6.149   2.862 -3.8924  0.7846  1.0050
  182SLPC   H5S20783   6.640   6.070   2.963  1.7478 -1.1430 -0.3805
  182SLPC   C2620784   6.465   6.096   3.067  0.0758 -0.6469  0.3988
  182SLPC   H6R20785   6.490   6.025   3.148 -0.3002  0.0525  1.1447
  182SLPC   H6S20786   6.355   6.095   3.051 -0.0667 -1.9271  1.2803
  182SLPC   C2720787   6.516   6.227   3.134  0.3678 -0.1235  0.0697
  182SLPC   H7R20788   6.513   6.310   3.061  0.4079  0.0685  0.2863
  182SLPC   H7S20789   6.624   6.219   3.157  0.1550  1.4858  1.8306
  182SLPC   C2820790   6.436   6.284   3.251  0.4210  0.3762  0.0236
  182SLPC   H8R20791   6.327   6.290   3.231  0.7238 -1.9327 -2.8726
  182SLPC   H8S20792   6.474   6.389   3.253  4.7565 -0.9586 -1.2236
  182SLPC   C2920793   6.464   6.205   3.378 -0.0321 -0.0666  0.7115
  182SLPC   H9R20794   6.431   6.100   3.381 -0.8607  0.2010  1.4914
  182SLPC  C21020795   6.539   6.243   3.478 -0.0850  0.1245  0.0904
  182SLPC  H10R20796   6.543   6.184   3.571  1.0199 -0.3084 -0.2122
  182SLPC  C21120797   6.614   6.373   3.483 -0.4727  0.0225 -0.8737
  182SLPC  H11R20798   6.550   6.463   3.478 -0.6067  0.1454  1.7334
  182SLPC  H11S20799   6.689   6.380   3.401 -0.6810 -1.4007 -1.2232
  182SLPC  C21220800   6.688   6.389   3.615  0.7927 -0.2100  0.1350
  182SLPC  H12R20801   6.611   6.395   3.694 -0.0983  0.4179 -0.7651
  182SLPC  C21320802   6.819   6.411   3.640  0.1154  0.1658  0.1063
  182SLPC  H13R20803   6.863   6.414   3.741 -1.2065  0.6102  0.7011
  182SLPC  C21420804   6.926   6.403   3.538 -0.0311  0.9769  0.2059
  182SLPC  H14R20805   6.940   6.487   3.468  1.2348  1.5801  1.1474
  182SLPC  H14S20806   6.904   6.317   3.471 -1.7826  1.8114 -0.3457
  182SLPC  C21520807   7.064   6.371   3.598  0.2289  0.3683  0.1835
  182SLPC  H15R20808   7.114   6.317   3.514  0.9033  1.2378  0.0144
  182SLPC  H15S20809   7.049   6.292   3.675 -0.3150  0.0085 -0.2840
  182SLPC  C21620810   7.151   6.485   3.647 -0.2046 -0.1499  0.5815
  182SLPC  H16R20811   7.102   6.545   3.727  1.2061  3.0767 -0.8344
  182SLPC  H16S20812   7.153   6.543   3.553 -0.3981 -1.1012 -0.0276
  182SLPC  C21720813   7.297   6.437   3.686  0.1985  0.4261  0.8228
  182SLPC  H17R20814   7.334   6.370   3.606 -0.4942  0.2210  0.6658
  182SLPC  H17S20815   7.285   6.372   3.775 -1.9277 -3.1205 -1.7960
  182SLPC  C21820816   7.392   6.552   3.704  0.4892  0.5572  0.7035
  182SLPC  H18R20817   7.365   6.615   3.790  1.3924 -1.5795  2.6644
  182SLPC  H18S20818   7.414   6.618   3.617 -1.8314  1.1258  0.4980
  182SLPC  H18T20819   7.490   6.508   3.733  1.0825 -0.7883 -2.7318
  182SLPC   C3320820   7.222   6.134   2.965 -0.1072  0.4498 -0.4625
  182SLPC   H3X20821   7.260   6.232   3.004  1.5368 -0.5835  0.6874
  182SLPC   H3Y20822   7.309   6.079   2.924 -0.5415 -0.7756  0.2291
  182SLPC   C3420823   7.168   6.062   3.085  0.2037  0.5084  0.1310
  182SLPC   H4X20824   7.110   5.971   3.057  2.2593 -0.6917 -0.4418
  182SLPC   H4Y20825   7.096   6.128   3.137  1.2178  0.1660  2.0673
  182SLPC   C3520826   7.277   6.033   3.188 -0.8062 -0.0784 -0.1961
  182SLPC   H5X20827   7.334   6.127   3.204  1.4981 -1.7752  2.5196
  182SLPC   H5Y20828   7.351   5.958   3.154  0.0813  1.1298 -1.0342
  182SLPC   C3620829   7.220   5.983   3.322  0.4280 -0.7527 -0.5828
  182SLPC   H6X20830   7.159   5.892   3.308 -3.5470  1.8229 -1.3957
  182SLPC   H6Y20831   7.159   6.068   3.358 -0.8532 -1.7415 -0.3645
  182SLPC   C3720832   7.335   5.941   3.423 -0.6632  0.2889  0.5677
  182SLPC   H7X20833   7.403   6.029   3.416  1.7886 -1.6131 -1.2585
  182SLPC   H7Y20834   7.390   5.862   3.368 -1.4728 -0.7196  1.1699
  182SLPC   C3820835   7.292   5.889   3.561  0.3273 -0.9404 -0.4095
  182SLPC   H8X20836   7.223   5.803   3.547 -1.0062 -0.2269  1.4559
  182SLPC   H8Y20837   7.234   5.964   3.619 -0.7980 -0.7893 -1.6769
  182SLPC   C3920838   7.415   5.842   3.643  0.7177 -0.0877  0.7169
  182SLPC   H9X20839   7.491   5.922   3.650 -1.1942  1.9457 -0.4220
  182SLPC   H9Y20840   7.460   5.757   3.586  0.6905  1.8697 -2.4843
  182SLPC  C31020841   7.359   5.814   3.785  0.1877 -0.5223 -0.4088
  182SLPC  H10X20842   7.269   5.750   3.774 -0.3990  0.4826 -1.7892
  182SLPC  H10Y20843   7.318   5.903   3.837  1.9167 -0.5262  1.0487
  182SLPC  C31120844   7.462   5.746   3.882  0.0429 -0.0860 -0.4316
  182SLPC  H11X20845   7.544   5.820   3.891 -0.0081 -0.0933  0.1648
  182SLPC  H11Y20846   7.503   5.654   3.835 -1.7128 -1.7736  1.1474
  182SLPC  C31220847   7.399   5.707   4.012 -0.0855 -0.6181 -0.6300
  182SLPC  H12X20848   7.305   5.648   3.998 -0.4300 -0.1960 -0.1440
  182SLPC  H12Y20849   7.365   5.794   4.072  0.2515 -0.3903 -0.7707
  182SLPC  C31320850   7.499   5.641   4.116  0.1367  0.0140 -0.1275
  182SLPC  H13X20851   7.569   5.726   4.134 -1.1951  0.8602  1.2653
  182SLPC  H13Y20852   7.549   5.553   4.069 -1.0237 -0.0820 -1.2178
  182SLPC  C31420853   7.435   5.598   4.250 -0.3047  0.6436  0.7084
  182SLPC  H14X20854   7.375   5.506   4.231  2.6104 -1.0920 -0.9884
  182SLPC  H14Y20855   7.368   5.682   4.275 -1.3513 -0.3444  1.2839
  182SLPC  C31520856   7.532   5.565   4.355 -0.3555 -0.6932  0.7404
  182SLPC  H15X20857   7.577   5.654   4.403 -1.0876 -0.4737  1.0474
  182SLPC  H15Y20858   7.616   5.511   4.307 -0.1288 -1.0021  1.4735
  182SLPC  C31620859   7.483   5.459   4.458 -0.7039 -0.9396  0.8423
  182SLPC  H16X20860   7.571   5.422   4.515  0.7083 -1.0693 -1.2945
  182SLPC  H16Y20861   7.433   5.377   4.403  1.7882 -0.3161 -2.7527
  182SLPC  C31720862   7.382   5.519   4.549 -0.0303  0.2449  0.7488
  182SLPC  H17X20863   7.299   5.559   4.488 -0.8957 -0.6145  1.3380
  182SLPC  H17Y20864   7.430   5.601   4.608  0.9575 -0.3300  0.7796
  182SLPC  C31820865   7.317   5.425   4.646  0.5972 -0.3095 -0.3596
  182SLPC  H18X20866   7.374   5.408   4.740  0.0972 -2.8569 -0.4476
  182SLPC  H18Y20867   7.292   5.329   4.597 -0.7148  0.8409 -2.0650
  182SLPC  H18Z20868   7.221   5.468   4.684  1.4219 -0.9657  2.7895
  183SLPC     N20869   1.518   0.328   1.866  0.2751  0.1595  0.1748
  183SLPC   C1320870   1.428   0.236   1.776  0.3603 -0.2061  0.5036
  183SLPC  H13A20871   1.494   0.189   1.704  1.3815  1.2970  0.4031
  183SLPC  H13B20872   1.389   0.163   1.845 -1.3212 -0.8404 -1.0587
  183SLPC  H13C20873   1.359   0.298   1.721  0.8383 -0.1622 -0.0582
  183SLPC   C1420874   1.578   0.442   1.780  0.6909  0.0872 -0.1031
  183SLPC  H14A20875   1.504   0.509   1.740 -1.1300 -0.1705  2.5655
  183SLPC  H14B20876   1.647   0.509   1.830 -0.2039  1.7852 -1.0521
  183SLPC  H14C20877   1.628   0.396   1.696  1.7243 -0.5968  0.8554
  183SLPC   C1520878   1.629   0.244   1.916  0.5083  0.3079  1.1265
  183SLPC  H15A20879   1.691   0.293   1.989 -0.2177  0.0172  1.9468
  183SLPC  H15B20880   1.594   0.154   1.963  0.9262  0.0285  0.9012
  183SLPC  H15C20881   1.687   0.220   1.828 -0.0113  4.1739 -0.5069
  183SLPC   C1220882   1.440   0.390   1.977 -0.2348  0.5309  0.0564
  183SLPC  H12A20883   1.390   0.320   2.042  0.8743 -0.2134  0.1382
  183SLPC  H12B20884   1.358   0.444   1.933 -1.2950 -0.3877  0.8372
  183SLPC   C1120885   1.529   0.477   2.070 -0.4319 -0.0042 -0.8958
  183SLPC  H11A20886   1.625   0.431   2.101 -0.7180  0.8823  1.5245
  183SLPC  H11B20887   1.465   0.490   2.160 -2.3994 -0.8486 -2.0872
  183SLPC     P20888   1.556   0.734   2.112 -0.0460 -0.2708  0.4293
  183SLPC   O1320889   1.667   0.824   2.070  0.2591 -0.2862 -0.2451
  183SLPC   O1420890   1.420   0.796   2.106 -0.1092  0.1824 -0.2915
  183SLPC   O1220891   1.554   0.606   2.023  1.0473 -0.3749  0.5365
  183SLPC   O1120892   1.585   0.672   2.262  0.0864 -0.0555  0.0954
  183SLPC    C120893   1.720   0.660   2.296  0.5600  0.1804 -0.2591
  183SLPC    HA20894   1.774   0.612   2.211  0.4517  1.1306 -0.8824
  183SLPC    HB20895   1.781   0.752   2.298  0.5736  0.1625  0.0735
  183SLPC    C220896   1.742   0.582   2.424  0.2428  0.6796  0.6096
  183SLPC    HS20897   1.676   0.493   2.433  0.2882  0.6367  0.5227
  183SLPC   O2120898   1.746   0.663   2.537 -0.2464  0.2157  0.3536
  183SLPC   C2120899   1.668   0.635   2.639 -1.0068 -0.3618 -0.2223
  183SLPC   O2220900   1.596   0.541   2.648 -0.3281 -0.0189  0.0871
  183SLPC   C2220901   1.705   0.736   2.742  0.4925  0.1960 -0.0133
  183SLPC   H2R20902   1.796   0.701   2.795 -0.3341 -2.3916 -0.1434
  183SLPC   H2S20903   1.721   0.837   2.699  2.6939  0.6538  1.7054
  183SLPC    C320904   1.879   0.512   2.417 -0.3502  0.1075 -0.3283
  183SLPC    HX20905   1.958   0.590   2.426  0.9664 -1.1434 -0.5622
  183SLPC    HY20906   1.883   0.469   2.314 -0.0327  3.2407 -1.7368
  183SLPC   O3120907   1.894   0.399   2.506  0.0674 -0.2397 -0.5188
  183SLPC   C3120908   2.017   0.364   2.527 -0.3136 -0.0709  0.2469
  183SLPC   O3220909   2.112   0.397   2.460  0.8437  0.0292  0.1274
  183SLPC   C3220910   2.025   0.249   2.630  0.0293  0.5457 -0.3850
  183SLPC   H2X20911   2.131   0.229   2.656 -0.6278  0.2158  2.2626
  183SLPC   H2Y20912   1.983   0.155   2.589 -0.3268 -0.6664  2.5260
  183SLPC   C2320913   1.593   0.737   2.854  0.1511  0.4330 -0.0658
  183SLPC   H3R20914   1.580   0.632   2.889 -1.6003 -0.1830 -2.3725
  183SLPC   H3S20915   1.493   0.758   2.811  0.1387  1.8949  0.6279
  183SLPC   C2420916   1.624   0.834   2.966  0.4165 -0.4913 -0.3249
  183SLPC   H4R20917   1.631   0.933   2.917  1.4339  1.0703  2.7603
  183SLPC   H4S20918   1.716   0.809   3.022  0.2531 -0.9237 -0.2451
  183SLPC   C2520919   1.500   0.834   3.072 -0.6439  0.4718  0.3410
  183SLPC   H5R20920   1.488   0.729   3.105 -1.8757 -0.6271 -3.1272
  183SLPC   H5S20921   1.409   0.858   3.013  0.9217 -0.7828 -2.8264
  183SLPC   C2620922   1.533   0.908   3.204 -0.2002  0.2110  0.4970
  183SLPC   H6R20923   1.576   1.006   3.175 -0.6765 -0.1492 -1.5931
  183SLPC   H6S20924   1.603   0.847   3.265 -1.3610 -1.7725 -0.0625
  183SLPC   C2720925   1.411   0.939   3.287 -0.0688  0.1794  0.6594
  183SLPC   H7R20926   1.329   0.865   3.274 -0.2598 -0.0273  2.7931
  183SLPC   H7S20927   1.363   1.021   3.229 -0.9444 -2.0791 -2.0786
  183SLPC   C2820928   1.446   0.964   3.438  0.3902  0.9612 -0.4045
  183SLPC   H8R20929   1.372   1.028   3.491  1.3585 -0.3222  2.7523
  183SLPC   H8S20930   1.544   1.017   3.440  0.8264  0.1583  1.3040
  183SLPC   C2920931   1.450   0.830   3.517 -0.3632  0.2251 -1.0194
  183SLPC   H9R20932   1.451   0.742   3.451 -0.9579  1.3379 -2.5688
  183SLPC  C21020933   1.439   0.806   3.651  0.1939 -0.2536 -0.7577
  183SLPC  H10R20934   1.451   0.705   3.691  2.1527  1.0903  2.4192
  183SLPC  C21120935   1.423   0.915   3.753 -0.1859  0.3735  0.3384
  183SLPC  H11R20936   1.486   1.005   3.737  0.8124 -0.4953 -0.7550
  183SLPC  H11S20937   1.462   0.874   3.849 -1.8091 -4.1057 -0.6498
  183SLPC  C21220938   1.283   0.946   3.782  0.3606  0.1394 -0.3243
  183SLPC  H12R20939   1.213   0.885   3.724 -0.8677 -0.4066  1.6335
  183SLPC  C21320940   1.234   1.004   3.891  0.3206  0.4809  0.1482
  183SLPC  H13R20941   1.126   1.026   3.892  0.3470  0.6424 -0.2470
  183SLPC  C21420942   1.311   1.078   4.002  0.1777 -0.2482  1.0428
  183SLPC  H14R20943   1.306   1.189   3.990  0.1684 -0.3532  0.0486
  183SLPC  H14S20944   1.419   1.053   4.000  0.7218  1.9192 -0.8667
  183SLPC  C21520945   1.257   1.048   4.139  1.3355 -1.0517 -0.0770
  183SLPC  H15R20946   1.237   0.940   4.158 -1.1430 -0.5181  0.7872
  183SLPC  H15S20947   1.163   1.104   4.154  2.0590 -0.0807  0.9475
  183SLPC  C21620948   1.357   1.095   4.255  0.6989 -0.5212  0.4255
  183SLPC  H16R20949   1.307   1.098   4.354  0.0666 -0.9322  0.1290
  183SLPC  H16S20950   1.399   1.196   4.234 -1.7965 -0.0820 -3.5232
  183SLPC  C21720951   1.474   0.990   4.285  0.1408  0.2333  0.3140
  183SLPC  H17R20952   1.544   1.018   4.367 -0.7260 -0.8220  1.4590
  183SLPC  H17S20953   1.535   0.975   4.194 -1.3658  2.4643 -1.1763
  183SLPC  C21820954   1.415   0.855   4.331 -0.0439 -0.3350  0.1553
  183SLPC  H18R20955   1.495   0.787   4.368  3.2705  2.8454 -0.5923
  183SLPC  H18S20956   1.350   0.814   4.251  0.1035  1.3784 -0.8771
  183SLPC  H18T20957   1.359   0.882   4.423 -0.3548 -2.1374  0.5437
  183SLPC   C3320958   1.952   0.276   2.764 -0.4026  0.8944 -0.1272
  183SLPC   H3X20959   1.962   0.176   2.812  1.7932  1.3611  0.5251
  183SLPC   H3Y20960   1.847   0.303   2.740 -0.3770  0.9645 -0.1633
  183SLPC   C3420961   2.023   0.378   2.858  0.2730  0.0146  0.3186
  183SLPC   H4X20962   2.034   0.472   2.800 -0.1451 -0.0673  0.1037
  183SLPC   H4Y20963   2.129   0.347   2.866  0.1372 -0.7745 -0.7564
  183SLPC   C3520964   1.968   0.398   3.005 -0.1170 -0.1959  0.6028
  183SLPC   H5X20965   2.063   0.406   3.063  0.0155 -0.5081  0.4298
  183SLPC   H5Y20966   1.919   0.303   3.036  1.3813 -0.6356  1.7771
  183SLPC   C3620967   1.894   0.527   3.026  0.4139  0.3269 -0.4777
  183SLPC   H6X20968   1.797   0.526   2.973  0.1584 -0.9902 -0.0092
  183SLPC   H6Y20969   1.946   0.616   2.982  1.1316 -0.0362 -0.3867
  183SLPC   C3720970   1.877   0.526   3.181  0.6002  1.0365  0.0308
  183SLPC   H7X20971   1.966   0.553   3.243  1.4142 -2.3909  0.5627
  183SLPC   H7Y20972   1.860   0.418   3.200 -2.5935  1.3498 -0.4577
  183SLPC   C3820973   1.771   0.620   3.238 -0.2030  0.4425  0.2280
  183SLPC   H8X20974   1.680   0.606   3.176  1.1969 -0.3799 -1.7353
  183SLPC   H8Y20975   1.804   0.725   3.227  1.5928 -0.0640  0.3184
  183SLPC   C3920976   1.726   0.591   3.384 -0.5710 -0.6443 -0.2800
  183SLPC   H9X20977   1.749   0.485   3.409 -2.2077 -0.6334  1.4705
  183SLPC   H9Y20978   1.615   0.593   3.393 -0.6239 -0.5097 -0.9232
  183SLPC  C31020979   1.786   0.696   3.477  0.5922  0.3585  0.1260
  183SLPC  H10X20980   1.734   0.793   3.460  0.3282  0.2755  0.4434
  183SLPC  H10Y20981   1.893   0.712   3.449 -0.0525  2.0974 -1.6090
  183SLPC  C31120982   1.776   0.655   3.630 -0.4099  0.0445  0.0737
  183SLPC  H11X20983   1.843   0.569   3.648  0.3849  0.6966  0.2813
  183SLPC  H11Y20984   1.670   0.624   3.641 -0.8642  0.7435 -1.9496
  183SLPC  C31220985   1.807   0.770   3.728 -0.3509  0.2821 -0.1688
  183SLPC  H12X20986   1.712   0.826   3.733 -1.3413 -1.4244  1.3924
  183SLPC  H12Y20987   1.898   0.829   3.705 -0.5449  3.4954  5.4384
  183SLPC  C31320988   1.831   0.709   3.870  0.3300 -0.4891  1.3075
  183SLPC  H13X20989   1.922   0.645   3.863  0.9381  0.5125 -0.8702
  183SLPC  H13Y20990   1.748   0.638   3.886 -0.5186 -0.4923 -2.2746
  183SLPC  C31420991   1.837   0.814   3.973 -0.4884  0.2189 -0.7792
  183SLPC  H14X20992   1.741   0.870   3.979 -1.3870 -1.3732  0.4308
  183SLPC  H14Y20993   1.925   0.879   3.953  1.5717 -2.6050 -1.5242
  183SLPC  C31520994   1.857   0.756   4.115  0.0043  0.0140  0.7697
  183SLPC  H15X20995   1.960   0.715   4.116  0.1281  0.3282  1.1829
  183SLPC  H15Y20996   1.784   0.675   4.136 -2.9887  2.2834 -0.0661
  183SLPC  C31620997   1.853   0.866   4.222  0.7299  0.6694 -0.3131
  183SLPC  H16X20998   1.743   0.870   4.235  0.9066  0.7652  1.4078
  183SLPC  H16Y20999   1.895   0.962   4.186 -1.3570  1.3465 -1.0772
  183SLPC  C31721000   1.907   0.824   4.355  0.5076  0.0499  0.4468
  183SLPC  H17X21001   2.018   0.824   4.362  0.6220  1.4497 -0.9567
  183SLPC  H17Y21002   1.885   0.716   4.369 -2.2352  0.6503  1.4292
  183SLPC  C31821003   1.859   0.910   4.468 -0.0546 -0.0279 -0.1085
  183SLPC  H18X21004   1.758   0.889   4.510 -0.3646  1.5413  0.0184
  183SLPC  H18Y21005   1.857   1.016   4.434  2.3281 -0.1268 -0.7228
  183SLPC  H18Z21006   1.934   0.894   4.548 -1.6886  1.0875  1.7774
  184SLPC     N21007   2.206   4.167   1.987  0.0335  0.6115 -0.4493
  184SLPC   C1321008   2.176   4.167   1.840 -1.1454 -0.3125 -0.0990
  184SLPC  H13A21009   2.221   4.082   1.790  4.2663  1.1905  1.5626
  184SLPC  H13B21010   2.068   4.170   1.831 -1.2308 -0.9942  0.5817
  184SLPC  H13C21011   2.235   4.246   1.795  1.7419 -1.6064  1.1497
  184SLPC   C1421012   2.140   4.281   2.048  1.0310 -0.1064 -0.2800
  184SLPC  H14A21013   2.187   4.365   1.997  2.8867 -1.4474 -0.8937
  184SLPC  H14B21014   2.034   4.268   2.038  0.8030 -0.5250  2.1951
  184SLPC  H14C21015   2.167   4.290   2.152  1.1209  1.2707 -0.3943
  184SLPC   C1521016   2.354   4.182   2.009  0.1840  0.5671 -0.2006
  184SLPC  H15A21017   2.408   4.099   1.965  1.9639  2.4250 -1.6936
  184SLPC  H15B21018   2.398   4.262   1.951 -1.7640  0.8874 -1.2972
  184SLPC  H15C21019   2.376   4.181   2.115 -1.1258 -2.3899  0.1344
  184SLPC   C1221020   2.160   4.035   2.050  0.2842  0.0928 -0.3631
  184SLPC  H12A21021   2.224   3.959   2.007  0.5361  0.2136 -0.2024
  184SLPC  H12B21022   2.053   4.020   2.045  0.0749 -0.3774  3.1859
  184SLPC   C1121023   2.185   4.017   2.204  0.5853 -0.4399  0.2893
  184SLPC  H11A21024   2.123   3.929   2.232  1.7937 -1.7459 -1.0222
  184SLPC  H11B21025   2.160   4.107   2.265 -1.7780 -0.4753 -0.5198
  184SLPC     P21026   2.377   3.856   2.288 -0.5146  0.0028 -0.0892
  184SLPC   O1321027   2.342   3.754   2.182 -0.1306 -0.2908  0.3770
  184SLPC   O1421028   2.520   3.863   2.332  0.2977 -0.0192 -0.4478
  184SLPC   O1221029   2.324   3.995   2.230 -0.1924  0.1073  0.2525
  184SLPC   O1121030   2.290   3.824   2.415  0.0632 -0.3982 -0.4685
  184SLPC    C121031   2.275   3.927   2.513  0.4312  0.9294  0.0186
  184SLPC    HA21032   2.376   3.973   2.519  0.4395  0.9782 -0.4795
  184SLPC    HB21033   2.195   3.998   2.483 -0.8984 -0.2972  0.4784
  184SLPC    C221034   2.227   3.865   2.646 -0.2040  0.3423 -0.1883
  184SLPC    HS21035   2.217   3.954   2.713  0.6162  1.6843 -1.7673
  184SLPC   O2121036   2.325   3.770   2.704 -0.0171 -0.3615  0.1725
  184SLPC   C2121037   2.441   3.830   2.733 -0.1770 -0.3089  0.2195
  184SLPC   O2221038   2.469   3.945   2.732  0.1385 -0.1600 -0.0903
  184SLPC   C2221039   2.539   3.719   2.779 -0.4698  0.5027 -0.5827
  184SLPC   H2R21040   2.487   3.631   2.823  3.0727 -0.9653  1.0812
  184SLPC   H2S21041   2.579   3.691   2.679 -0.7870 -0.1882 -0.5250
  184SLPC    C321042   2.090   3.795   2.644  0.0721  0.4022  0.4150
  184SLPC    HX21043   2.119   3.703   2.587  1.3566  1.3938 -0.5844
  184SLPC    HY21044   2.023   3.846   2.572 -0.5020 -0.1388  0.5635
  184SLPC   O3121045   2.031   3.783   2.776  0.0922  0.1407 -0.2316
  184SLPC   C3121046   1.989   3.661   2.801  0.2605  0.2567 -0.3065
  184SLPC   O3221047   2.006   3.558   2.740 -0.0932  0.5001  0.0739
  184SLPC   C3221048   1.912   3.664   2.938  0.2936  0.1804 -0.2628
  184SLPC   H2X21049   1.825   3.597   2.918  1.4685 -1.3313 -0.5457
  184SLPC   H2Y21050   1.869   3.763   2.963 -0.4840 -0.0677 -0.5898
  184SLPC   C2321051   2.640   3.769   2.876 -0.3963 -0.0283  0.3357
  184SLPC   H3R21052   2.608   3.866   2.918 -0.3699  1.0332 -1.9333
  184SLPC   H3S21053   2.727   3.793   2.811 -0.3411 -0.1205  0.3761
  184SLPC   C2421054   2.683   3.673   2.985 -0.4872  0.0162 -0.2886
  184SLPC   H4R21055   2.768   3.718   3.040 -0.4092  0.6984 -0.9409
  184SLPC   H4S21056   2.729   3.582   2.942  0.1683  0.8698 -1.4709
  184SLPC   C2521057   2.575   3.647   3.093 -0.0756 -0.1121 -0.1196
  184SLPC   H5R21058   2.499   3.578   3.051 -2.3694  0.7504  2.3662
  184SLPC   H5S21059   2.540   3.751   3.107  2.2780  0.5346  1.5989
  184SLPC   C2621060   2.646   3.591   3.217  0.4559 -1.1287 -0.2685
  184SLPC   H6R21061   2.712   3.666   3.266 -0.2236  0.1238 -1.2283
  184SLPC   H6S21062   2.711   3.514   3.171 -0.5248 -1.0431 -1.8688
  184SLPC   C2721063   2.542   3.543   3.325 -1.3124 -0.0399  0.6037
  184SLPC   H7R21064   2.596   3.493   3.408  0.3594 -1.2369 -1.1532
  184SLPC   H7S21065   2.465   3.474   3.285 -2.0208  0.8878  0.3346
  184SLPC   C2821066   2.450   3.660   3.388 -0.0417 -0.2556  0.9158
  184SLPC   H8R21067   2.351   3.617   3.415 -0.4906  0.1719 -0.0384
  184SLPC   H8S21068   2.418   3.722   3.302 -0.2699 -1.1258  0.3572
  184SLPC   C2921069   2.507   3.744   3.500  0.2815 -0.0550 -0.5637
  184SLPC   H9R21070   2.588   3.809   3.465  0.9738 -2.1691 -3.0937
  184SLPC  C21021071   2.474   3.734   3.632  0.2758  0.2493 -0.0078
  184SLPC  H10R21072   2.519   3.808   3.700  0.7826  1.9755 -2.1102
  184SLPC  C21121073   2.375   3.630   3.677  0.4128  0.4374 -0.3808
  184SLPC  H11R21074   2.417   3.530   3.654 -1.2014 -0.3740  0.0489
  184SLPC  H11S21075   2.274   3.626   3.631  0.1488  1.8845  0.0244
  184SLPC  C21221076   2.359   3.645   3.826  0.3344  0.4732 -0.1939
  184SLPC  H12R21077   2.407   3.565   3.884 -0.0421  0.1002 -0.3872
  184SLPC  C21321078   2.297   3.741   3.895 -0.8752  0.5746 -0.0147
  184SLPC  H13R21079   2.308   3.742   4.005  0.1014  3.1527 -0.0757
  184SLPC  C21421080   2.211   3.843   3.834  0.4246 -0.0413 -0.3567
  184SLPC  H14R21081   2.110   3.822   3.875  0.9803 -3.0034 -0.2708
  184SLPC  H14S21082   2.201   3.841   3.723 -0.3372  0.1796 -0.2980
  184SLPC  C21521083   2.240   3.994   3.869  0.8820 -0.1984 -0.5651
  184SLPC  H15R21084   2.163   4.063   3.828  2.0453  0.6848 -1.3130
  184SLPC  H15S21085   2.331   4.016   3.810 -0.3037  1.2164 -1.9797
  184SLPC  C21621086   2.260   4.011   4.027 -0.3310  0.2644 -0.4765
  184SLPC  H16R21087   2.352   3.954   4.051  0.2596 -0.0279 -3.1121
  184SLPC  H16S21088   2.177   3.981   4.095 -0.8151  0.2336 -1.0697
  184SLPC  C21721089   2.278   4.158   4.069  0.3339  0.7537  0.8283
  184SLPC  H17R21090   2.183   4.213   4.050  0.5156  0.6053 -0.6010
  184SLPC  H17S21091   2.346   4.201   3.992  0.6674  0.6426  1.0561
  184SLPC  C21821092   2.315   4.177   4.212  0.6899  0.0453  0.0074
  184SLPC  H18R21093   2.409   4.121   4.234  3.4608  3.3229 -2.4367
  184SLPC  H18S21094   2.230   4.157   4.282  0.9306  0.2916  0.3742
  184SLPC  H18T21095   2.339   4.283   4.233 -0.3036  0.6920 -1.8719
  184SLPC   C3321096   2.002   3.610   3.054 -0.6401  0.3122 -0.2744
  184SLPC   H3X21097   2.017   3.505   3.022 -0.4035  0.2867 -0.0816
  184SLPC   H3Y21098   1.949   3.600   3.151 -2.6493  0.5797 -1.2951
  184SLPC   C3421099   2.133   3.684   3.068 -0.2361 -0.4476 -0.4631
  184SLPC   H4X21100   2.181   3.691   2.969 -0.4658 -1.9098 -0.7001
  184SLPC   H4Y21101   2.204   3.624   3.129  0.6543 -0.8445 -1.8428
  184SLPC   C3521102   2.108   3.832   3.110  0.2352 -0.2201  0.0636
  184SLPC   H5X21103   2.048   3.880   3.030  0.1340 -0.8956 -0.2731
  184SLPC   H5Y21104   2.202   3.891   3.116 -0.5635  1.2016 -0.7363
  184SLPC   C3621105   2.039   3.845   3.247  0.2124 -0.0720 -0.2035
  184SLPC   H6X21106   2.102   3.794   3.322  0.0670 -0.9752 -0.6810
  184SLPC   H6Y21107   1.938   3.797   3.250  0.9396 -1.6680 -0.4694
  184SLPC   C3721108   2.026   3.991   3.277 -0.0496 -0.9295 -0.2284
  184SLPC   H7X21109   1.953   4.050   3.218  1.5211 -0.2727 -1.5891
  184SLPC   H7Y21110   2.124   4.042   3.264 -1.3909  1.5585 -1.3553
  184SLPC   C3821111   1.997   4.017   3.423 -0.0387  0.9229  0.1966
  184SLPC   H8X21112   2.072   3.961   3.483 -3.2724 -1.8975  1.9821
  184SLPC   H8Y21113   1.905   3.961   3.450 -0.0141  1.1939  0.8518
  184SLPC   C3921114   1.992   4.164   3.460 -0.0799 -0.8472  0.2021
  184SLPC   H9X21115   1.907   4.209   3.405  0.7253  1.4807  0.7558
  184SLPC   H9Y21116   2.086   4.213   3.430 -0.2150 -1.2518 -0.9290
  184SLPC  C31021117   1.951   4.204   3.606 -0.0525  0.0139  0.5643
  184SLPC  H10X21118   2.045   4.219   3.662 -0.5628  1.5563  1.0596
  184SLPC  H10Y21119   1.888   4.123   3.649  1.3837 -0.6851  1.4151
  184SLPC  C31121120   1.877   4.341   3.612 -0.2773  0.3171 -0.2185
  184SLPC  H11X21121   1.793   4.347   3.540 -0.1070  0.7563 -0.3852
  184SLPC  H11Y21122   1.947   4.424   3.588  0.4482  0.0480  0.8750
  184SLPC  C31221123   1.813   4.358   3.746  0.2214 -0.4675 -0.0709
  184SLPC  H12X21124   1.722   4.294   3.744  0.8097 -1.3279 -0.4665
  184SLPC  H12Y21125   1.785   4.465   3.754  0.8022 -0.4275  1.8898
  184SLPC  C31321126   1.907   4.328   3.859 -0.6165 -0.3027  0.6264
  184SLPC  H13X21127   2.001   4.383   3.837 -1.1572 -0.0344 -1.2417
  184SLPC  H13Y21128   1.948   4.225   3.860  2.1360  0.7051  0.5579
  184SLPC  C31421129   1.846   4.366   3.989  0.1923  0.5584  0.5566
  184SLPC  H14X21130   1.760   4.301   4.014  0.9428 -0.1918  1.2673
  184SLPC  H14Y21131   1.815   4.472   3.981 -2.0724  0.0274  1.5824
  184SLPC  C31521132   1.958   4.342   4.097 -0.7248 -0.5675  0.1946
  184SLPC  H15X21133   2.059   4.378   4.066 -1.1426  2.1136  1.6429
  184SLPC  H15Y21134   1.958   4.234   4.123 -1.4128 -0.4662  0.6205
  184SLPC  C31621135   1.930   4.429   4.218 -0.1586  0.9433  0.1949
  184SLPC  H16X21136   1.828   4.417   4.262 -0.2448  0.7781 -0.0497
  184SLPC  H16Y21137   1.940   4.530   4.174 -0.2156 -0.1670 -2.5562
  184SLPC  C31721138   2.033   4.389   4.325  0.0462 -0.6765 -0.2396
  184SLPC  H17X21139   2.138   4.387   4.290 -0.1150  0.5374 -0.8169
  184SLPC  H17Y21140   2.021   4.281   4.348 -0.5978 -0.7622 -0.9258
  184SLPC  C31821141   2.013   4.470   4.456 -0.1015  0.3104 -1.3973
  184SLPC  H18X21142   2.073   4.427   4.539 -1.0583 -0.5866 -1.1489
  184SLPC  H18Y21143   1.908   4.467   4.494  0.3464  1.7761  0.1169
  184SLPC  H18Z21144   2.046   4.576   4.445 -0.8381  0.9321  1.3712
  185POPC     N21145   6.767   5.159   6.474 -0.3391  0.3379  0.0015
  185POPC   C1221146   6.815   5.079   6.355 -0.3949  0.5287  0.1737
  185POPC  H12A21147   6.746   5.101   6.275 -2.8178 -0.4345  1.8589
  185POPC  H12B21148   6.804   4.975   6.381  2.4650 -0.0293 -0.5022
  185POPC   C1321149   6.623   5.115   6.498  0.5936  0.4692 -0.5541
  185POPC  H13A21150   6.564   5.121   6.407  1.4350  0.5479 -1.1015
  185POPC  H13B21151   6.616   5.010   6.521 -1.7921  1.1097  2.4202
  185POPC  H13C21152   6.575   5.173   6.576  3.2794  1.4740  0.4900
  185POPC   C1421153   6.848   5.129   6.598 -0.3168 -0.2331  0.4212
  185POPC  H14A21154   6.875   5.024   6.596 -0.7458 -0.4081  1.9353
  185POPC  H14B21155   6.940   5.184   6.587 -1.3248  1.1273 -1.7649
  185POPC  H14C21156   6.801   5.159   6.691 -2.4587 -1.1386 -0.2954
  185POPC   C1521157   6.770   5.306   6.441 -0.0272  0.7278  0.5787
  185POPC  H15A21158   6.877   5.324   6.436  0.3433 -1.5120 -1.4035
  185POPC  H15B21159   6.735   5.368   6.522 -0.8798  1.5692 -0.4064
  185POPC  H15C21160   6.717   5.336   6.352  1.2417 -0.0140 -0.4788
  185POPC   C1121161   6.969   5.082   6.306  0.7256  0.6342 -0.7182
  185POPC  H11A21162   7.010   5.184   6.289 -1.2924  1.2975 -1.9130
  185POPC  H11B21163   6.977   5.025   6.211  1.2471  0.5079 -0.5998
  185POPC     P21164   7.047   4.869   6.446  0.0326 -0.0677  0.5382
  185POPC   O1321165   6.919   4.821   6.491  0.1388  0.4136 -0.5992
  185POPC   O1421166   7.165   4.838   6.528  0.1479 -0.0379 -0.0623
  185POPC   O1221167   7.049   5.025   6.417 -0.5693 -0.3594 -0.2856
  185POPC   O1121168   7.078   4.815   6.300  0.5195  0.9125 -0.3458
  185POPC    C121169   7.087   4.674   6.278 -0.1675  0.5791 -0.3211
  185POPC    HA21170   7.023   4.609   6.342  2.4942 -1.9730 -0.0240
  185POPC    HB21171   7.192   4.648   6.302 -0.3883 -0.2059 -0.1813
  185POPC    C221172   7.068   4.636   6.128  0.5255  0.3359 -0.4581
  185POPC    HS21173   7.159   4.656   6.068  1.2169  2.1296  1.0965
  185POPC   O2121174   6.942   4.685   6.080  0.2796 -0.2325  0.2246
  185POPC   C2121175   6.951   4.810   6.027  0.0258  0.2640  0.2279
  185POPC   O2221176   7.056   4.869   6.010  0.2402 -0.1248  0.8828
  185POPC   C2221177   6.806   4.850   6.000 -0.3242 -0.1664  0.5255
  185POPC   H2R21178   6.756   4.896   6.088  2.0839  0.4993  1.6340
  185POPC   H2S21179   6.760   4.755   5.967 -0.5073  0.2806 -0.5415
  185POPC    C321180   7.072   4.481   6.133  0.2025  0.9826  0.1300
  185POPC    HX21181   7.041   4.451   6.030 -0.2581  2.9176 -0.3544
  185POPC    HY21182   6.994   4.449   6.204 -1.1678  0.6268 -1.4610
  185POPC   O3121183   7.203   4.439   6.178 -0.0767  0.1192 -0.0664
  185POPC   C3121184   7.211   4.304   6.200 -0.2357 -0.0059  0.1193
  185POPC   O3221185   7.116   4.230   6.175 -0.5164  0.1778  0.7663
  185POPC   C3221186   7.351   4.268   6.250 -0.5865  0.0005 -0.2947
  185POPC   H2X21187   7.341   4.243   6.358 -3.8305  1.9198 -0.0376
  185POPC   H2Y21188   7.416   4.357   6.240 -1.2761  0.4567 -0.8733
  185POPC   C2321189   6.798   4.953   5.885 -0.1948  0.1582  0.5654
  185POPC   H3R21190   6.850   5.047   5.912 -0.5613  0.7121 -0.5993
  185POPC   H3S21191   6.689   4.972   5.879 -0.0504  0.6126 -1.0299
  185POPC   C2421192   6.844   4.916   5.751 -0.6004  0.3454 -0.1026
  185POPC   H4R21193   6.775   4.830   5.737  1.5063 -1.6134  0.8920
  185POPC   H4S21194   6.947   4.876   5.742 -0.6803  0.2178 -0.4694
  185POPC   C2521195   6.812   5.028   5.665 -0.5959  0.4900  0.3202
  185POPC   H5R21196   6.873   5.117   5.693 -0.2910 -0.0264  1.3395
  185POPC   H5S21197   6.716   5.077   5.693  0.4580  1.9068  1.6408
  185POPC   C2621198   6.815   4.983   5.521  0.3595  0.2016  0.0274
  185POPC   H6R21199   6.730   4.915   5.499 -1.3887  2.3814 -0.3766
  185POPC   H6S21200   6.916   4.940   5.504 -0.6477 -2.6218  0.7332
  185POPC   C2721201   6.799   5.111   5.435  0.5738 -0.2615 -0.5414
  185POPC   H7R21202   6.881   5.185   5.451  2.0658 -2.2097  1.3470
  185POPC   H7S21203   6.703   5.152   5.472  1.8921 -1.0663  4.4785
  185POPC   C2821204   6.763   5.090   5.286 -0.0332  1.0494 -0.3071
  185POPC   H8R21205   6.722   5.178   5.233 -1.9981 -0.8647 -2.1518
  185POPC   H8S21206   6.685   5.011   5.289  0.1753  0.8541  0.3171
  185POPC   C2921207   6.886   5.047   5.209 -0.2158 -0.3126 -0.2638
  185POPC   H9121208   6.963   5.125   5.222 -0.1339 -0.3496 -0.5259
  185POPC  C21021209   6.901   4.957   5.109  0.2867 -0.2667  0.1941
  185POPC  H10121210   6.998   4.949   5.057  0.2702  1.0071 -0.0554
  185POPC  C21121211   6.814   4.840   5.086  0.9021 -0.7229  0.0117
  185POPC  H11R21212   6.784   4.837   4.979  0.1463  0.3205  0.1744
  185POPC  H11S21213   6.718   4.847   5.142  2.0844 -0.8402  2.1678
  185POPC  C21221214   6.884   4.701   5.120 -0.2506  0.5324 -0.1402
  185POPC  H12R21215   6.974   4.691   5.056 -1.3126 -2.1293 -1.3530
  185POPC  H12S21216   6.817   4.623   5.078 -1.4591  2.2636 -1.5387
  185POPC  C21321217   6.917   4.680   5.266  0.3946 -0.5236 -0.4157
  185POPC  H13R21218   6.825   4.646   5.319 -0.9033  2.0947 -0.8491
  185POPC  H13S21219   6.944   4.778   5.311 -0.1719 -0.4198 -0.2919
  185POPC  C21421220   7.029   4.578   5.295  0.4408 -0.1822  0.1366
  185POPC  H14R21221   7.130   4.601   5.255  0.7227 -1.0908  0.3040
  185POPC  H14S21222   7.005   4.477   5.253 -1.2679 -0.4008  1.5244
  185POPC  C21521223   7.071   4.562   5.442 -0.3314 -0.0332 -0.4335
  185POPC  H15R21224   7.124   4.652   5.478 -1.0014 -0.5599  2.0789
  185POPC  H15S21225   7.132   4.469   5.445  1.1662  0.8878 -1.3751
  185POPC  C21621226   6.943   4.555   5.532  0.0118 -0.2696  0.3291
  185POPC  H16R21227   6.865   4.479   5.509  0.3088  0.1510 -2.4899
  185POPC  H16S21228   6.899   4.657   5.530 -0.5668 -0.5083 -1.8773
  185POPC  C21721229   6.983   4.545   5.687  0.1712 -0.6721  0.6978
  185POPC  H17R21230   6.895   4.556   5.754 -0.7352  0.9095 -0.6643
  185POPC  H17S21231   7.039   4.639   5.702 -1.8853  1.3359 -2.8977
  185POPC  C21821232   7.065   4.423   5.730 -0.1189  0.4384  0.3257
  185POPC  H18R21233   7.010   4.329   5.704  0.7593  0.1565 -0.6025
  185POPC  H18S21234   7.084   4.424   5.840  0.0196 -3.3912  0.4858
  185POPC  H18T21235   7.159   4.413   5.671 -0.1952 -0.3541  0.3271
  185POPC   C3321236   7.405   4.138   6.196 -0.2353  0.5973  0.0195
  185POPC   H3X21237   7.379   4.132   6.088 -0.9882  0.2295  0.2114
  185POPC   H3Y21238   7.362   4.050   6.250  0.7729  0.7945  1.1924
  185POPC   C3421239   7.558   4.117   6.189  0.3095  0.1095 -0.4392
  185POPC   H4X21240   7.591   4.148   6.290 -1.4928 -0.9424  0.5251
  185POPC   H4Y21241   7.604   4.193   6.121 -0.1003  1.8949  1.2021
  185POPC   C3521242   7.605   3.980   6.162 -0.0593  0.3273 -0.3303
  185POPC   H5X21243   7.556   3.905   6.228 -0.9482 -0.0590 -1.3937
  185POPC   H5Y21244   7.714   3.979   6.184 -0.0483  0.0580 -0.3933
  185POPC   C3621245   7.609   3.930   6.015  0.2656  0.3393 -0.4105
  185POPC   H6X21246   7.510   3.902   5.974  1.3926  1.3742 -4.2288
  185POPC   H6Y21247   7.671   3.838   6.013  1.5820  1.0320  2.5072
  185POPC   C3721248   7.683   4.018   5.910  0.4684 -0.0494  0.7127
  185POPC   H7X21249   7.782   4.028   5.961  2.1887  2.2605 -2.7094
  185POPC   H7Y21250   7.641   4.121   5.906  3.6787  1.3709  0.3613
  185POPC   C3821251   7.684   3.953   5.781 -0.5436 -0.0964  0.0688
  185POPC   H8X21252   7.720   3.848   5.784 -1.4110 -0.4461 -1.0816
  185POPC   H8Y21253   7.752   4.016   5.720 -0.4691 -0.6820 -0.4546
  185POPC   C3921254   7.544   3.936   5.714  0.0243  0.2808  0.3130
  185POPC   H9X21255   7.472   4.016   5.741 -0.4691 -0.0468 -0.0059
  185POPC   H9Y21256   7.511   3.837   5.754  1.5893 -0.6593 -0.6206
  185POPC  C31021257   7.545   3.929   5.561  0.3001  0.0958  0.7429
  185POPC  H10X21258   7.445   3.891   5.530  1.2311 -0.9887 -1.0340
  185POPC  H10Y21259   7.620   3.853   5.532  0.2319 -0.5681  2.1858
  185POPC  C31121260   7.550   4.069   5.489  0.8188  0.2032 -0.5119
  185POPC  H11X21261   7.655   4.096   5.466  0.8933  0.2810 -0.0842
  185POPC  H11Y21262   7.510   4.145   5.559  1.9221 -0.2960  0.7016
  185POPC  C31221263   7.469   4.073   5.353 -0.4040 -0.3887 -0.6345
  185POPC  H12X21264   7.478   4.177   5.315 -1.9743 -0.3908 -1.0801
  185POPC  H12Y21265   7.361   4.073   5.380 -0.7855 -0.2657 -2.1177
  185POPC  C31321266   7.511   3.993   5.229  0.3219  0.2940 -0.1972
  185POPC  H13X21267   7.504   3.885   5.251 -1.7739  0.0682 -1.7084
  185POPC  H13Y21268   7.620   4.013   5.221  0.8949 -0.9488  2.9835
  185POPC  C31421269   7.427   4.011   5.098  0.1847  0.4641 -0.1992
  185POPC  H14X21270   7.318   3.992   5.113 -0.2874  1.6680 -1.8013
  185POPC  H14Y21271   7.460   3.937   5.023 -0.2581 -0.2839  0.3328
  185POPC  C31521272   7.453   4.158   5.049 -0.5310  0.0569 -0.2664
  185POPC  H15X21273   7.564   4.170   5.049 -0.4664 -0.1507  1.7021
  185POPC  H15Y21274   7.412   4.236   5.116 -2.3061  0.0229 -1.2552
  185POPC  C31621275   7.381   4.188   4.921 -0.2551 -0.0328 -0.3073
  185POPC  H16X21276   7.427   4.128   4.840 -2.7221 -1.2556 -0.9112
  185POPC  H16Y21277   7.401   4.290   4.880 -1.0609 -0.1059 -0.9102
  185POPC  H16Z21278   7.276   4.157   4.940  0.2408 -0.8466  1.3008
  186POPC     N21279   6.606   3.849   7.015 -0.0747  0.0879  0.0330
  186POPC   C1221280   6.652   3.997   7.006  0.3798  0.4134  0.4447
  186POPC  H12A21281   6.591   4.061   7.067  2.5865  4.8633 -1.5322
  186POPC  H12B21282   6.630   4.020   6.903 -2.3305  0.8260  1.0475
  186POPC   C1321283   6.640   3.777   7.144  0.3402  0.1454  0.0669
  186POPC  H13A21284   6.748   3.782   7.150  0.5368 -2.2407 -0.2033
  186POPC  H13B21285   6.591   3.828   7.226 -0.3102  1.2489 -0.9841
  186POPC  H13C21286   6.614   3.672   7.139  0.9015  0.0372 -0.8344
  186POPC   C1421287   6.463   3.849   6.983 -0.0700  0.5649 -0.2902
  186POPC  H14A21288   6.429   3.747   6.997  0.2463 -0.1168 -3.8011
  186POPC  H14B21289   6.406   3.903   7.058 -1.1707 -0.2067 -0.5358
  186POPC  H14C21290   6.440   3.891   6.887 -1.3983 -0.5095 -0.4869
  186POPC   C1521291   6.669   3.776   6.898  0.6320 -0.0317  0.0746
  186POPC  H15A21292   6.638   3.673   6.907  2.0545 -0.8137 -2.7242
  186POPC  H15B21293   6.776   3.778   6.911  0.4012 -0.6863  2.8592
  186POPC  H15C21294   6.632   3.811   6.803 -1.5309 -0.2353  0.7770
  186POPC   C1121295   6.799   4.030   7.042 -0.4661  0.0337 -0.2562
  186POPC  H11A21296   6.807   3.992   7.146 -0.2398  1.1427  0.1384
  186POPC  H11B21297   6.803   4.141   7.042 -0.9549  0.2092  3.9242
  186POPC     P21298   6.926   4.030   6.822 -0.2524 -0.3737  0.0280
  186POPC   O1321299   6.983   3.935   6.728 -0.0784  0.4640 -0.5550
  186POPC   O1421300   7.008   4.147   6.854  0.3559  0.2952 -0.4208
  186POPC   O1221301   6.878   3.964   6.948  0.5868  0.1156 -0.0244
  186POPC   O1121302   6.791   4.080   6.767  0.0544 -0.1227 -0.6785
  186POPC    C121303   6.736   4.026   6.641 -0.4971  0.4207  0.3131
  186POPC    HA21304   6.625   4.025   6.644 -0.5830  1.1306 -1.4737
  186POPC    HB21305   6.751   3.918   6.621 -2.3151  0.4666 -1.6992
  186POPC    C221306   6.785   4.108   6.522  0.5529 -0.0829  0.0614
  186POPC    HS21307   6.714   4.081   6.440 -2.0894  0.0115  2.1556
  186POPC   O2121308   6.926   4.091   6.482  0.3917 -0.4969 -0.4067
  186POPC   C2121309   6.955   3.976   6.434 -0.8337 -0.3544 -0.2200
  186POPC   O2221310   6.876   3.890   6.402 -0.2009  0.2205  0.5894
  186POPC   C2221311   7.111   3.968   6.425  0.5062 -0.4273 -0.5087
  186POPC   H2R21312   7.137   3.998   6.529  1.9642  0.8676 -1.2052
  186POPC   H2S21313   7.152   4.047   6.358  0.4803  1.2779  1.3742
  186POPC    C321314   6.751   4.256   6.530 -0.3903 -0.3528  0.0932
  186POPC    HX21315   6.820   4.307   6.600 -0.4408 -0.4276  0.1991
  186POPC    HY21316   6.647   4.276   6.564 -0.3429  0.6373 -0.3345
  186POPC   O3121317   6.772   4.316   6.397 -0.4174 -0.2444 -0.7724
  186POPC   C3121318   6.662   4.332   6.320  0.4123 -0.2385  0.6946
  186POPC   O3221319   6.556   4.284   6.352 -0.2966  0.2117  0.3174
  186POPC   C3221320   6.692   4.435   6.205  0.5650 -0.5246  0.3619
  186POPC   H2X21321   6.795   4.410   6.173 -0.1375 -4.5361  0.7511
  186POPC   H2Y21322   6.696   4.538   6.248  0.7614 -1.3191  2.3978
  186POPC   C2321323   7.157   3.829   6.388  0.0166 -0.1545 -0.2688
  186POPC   H3R21324   7.118   3.764   6.469  0.4665 -0.0882  0.0048
  186POPC   H3S21325   7.267   3.839   6.396  0.1603 -0.3844 -1.6786
  186POPC   C2421326   7.119   3.782   6.249 -0.3289 -0.2793  0.4093
  186POPC   H4R21327   7.009   3.784   6.233 -0.1538  0.3935 -0.8448
  186POPC   H4S21328   7.151   3.676   6.249 -1.3442 -0.6106 -0.9807
  186POPC   C2521329   7.177   3.856   6.135  0.0386 -0.4291 -0.0328
  186POPC   H5R21330   7.287   3.841   6.125 -0.0447 -1.1933  0.0744
  186POPC   H5S21331   7.169   3.965   6.154 -1.3229 -0.5013 -0.1128
  186POPC   C2621332   7.126   3.833   5.994  0.2513  0.3795 -0.1785
  186POPC   H6R21333   7.015   3.844   5.997  0.0808 -1.3375  0.8737
  186POPC   H6S21334   7.151   3.728   5.971  2.3121  0.8427 -0.2488
  186POPC   C2721335   7.193   3.915   5.886 -0.2155 -0.6062 -0.6992
  186POPC   H7R21336   7.302   3.908   5.910 -0.2408  1.8135  0.4301
  186POPC   H7S21337   7.167   4.022   5.899  0.5534 -0.6566  1.8634
  186POPC   C2821338   7.167   3.866   5.744 -0.2765  0.7098 -0.0846
  186POPC   H8R21339   7.177   3.756   5.740  1.3384  0.8461 -0.4505
  186POPC   H8S21340   7.246   3.915   5.683 -0.5031 -0.7588 -1.6125
  186POPC   C2921341   7.030   3.902   5.689  0.1382  0.1586  0.2435
  186POPC   H9121342   6.958   3.829   5.728  0.2094  0.6500  1.3135
  186POPC  C21021343   7.000   4.000   5.598 -0.0137  0.2619  0.3024
  186POPC  H10121344   6.897   4.008   5.559  0.6121  0.1125 -1.5108
  186POPC  C21121345   7.090   4.097   5.530  0.1850  0.3314 -0.5894
  186POPC  H11R21346   7.193   4.053   5.529 -0.4061 -1.3390  1.9287
  186POPC  H11S21347   7.088   4.196   5.580 -0.2167 -0.1403  0.3476
  186POPC  C21221348   7.031   4.145   5.403 -0.3561  0.2188  0.0473
  186POPC  H12R21349   7.101   4.221   5.362  1.7366 -1.6728 -0.0829
  186POPC  H12S21350   6.929   4.189   5.408  0.0848  1.5527 -1.5500
  186POPC  C21321351   7.022   4.047   5.283 -0.4422 -0.3675 -0.1944
  186POPC  H13R21352   6.950   3.966   5.308 -0.6912  0.9540  4.4187
  186POPC  H13S21353   7.117   3.993   5.270  0.5532  1.5291 -1.2870
  186POPC  C21421354   6.983   4.123   5.158 -0.1183  0.6939 -0.7006
  186POPC  H14R21355   6.999   4.054   5.073 -1.1700  0.5012 -0.7627
  186POPC  H14S21356   7.041   4.217   5.156  2.4479 -0.7511  0.4788
  186POPC  C21521357   6.833   4.157   5.154  0.6887 -0.5110  0.5502
  186POPC  H15R21358   6.790   4.211   5.242  0.8254 -0.9874  0.9175
  186POPC  H15S21359   6.778   4.063   5.135 -1.1987  0.6110  0.1923
  186POPC  C21621360   6.807   4.247   5.031 -0.2004  0.2514 -0.7481
  186POPC  H16R21361   6.865   4.201   4.949  1.6297  0.3033  0.4454
  186POPC  H16S21362   6.867   4.340   5.042 -0.0594 -0.0278  1.2401
  186POPC  C21721363   6.659   4.271   5.006  1.1180  0.3906  1.0275
  186POPC  H17R21364   6.641   4.346   4.926 -0.2237 -2.9986 -2.1488
  186POPC  H17S21365   6.595   4.286   5.095 -2.0222 -0.6708 -0.9043
  186POPC  C21821366   6.594   4.143   4.948  0.2170  0.8862 -0.1218
  186POPC  H18R21367   6.487   4.164   4.924 -0.1269 -0.0478  0.5380
  186POPC  H18S21368   6.606   4.064   5.024 -1.2244  1.8830  1.2188
  186POPC  H18T21369   6.639   4.096   4.858  1.0091 -0.9617  1.1746
  186POPC   C3321370   6.590   4.419   6.093  0.4177  0.6132 -0.0359
  186POPC   H3X21371   6.484   4.442   6.118  0.2143 -0.5267  0.2119
  186POPC   H3Y21372   6.592   4.313   6.060  0.6395  0.2388  1.1045
  186POPC   C3421373   6.645   4.504   5.980 -0.1599  0.0687  0.4105
  186POPC   H4X21374   6.753   4.491   5.955 -0.6081 -0.7543 -1.2458
  186POPC   H4Y21375   6.635   4.609   6.014 -1.3190 -0.2442  1.0887
  186POPC   C3521376   6.561   4.483   5.848 -1.0260 -0.3628  0.3886
  186POPC   H5X21377   6.453   4.497   5.872 -0.9845  2.4825 -0.6675
  186POPC   H5Y21378   6.585   4.381   5.811  1.2021  0.7361 -1.3972
  186POPC   C3621379   6.607   4.566   5.733 -0.0134  0.3535 -0.1304
  186POPC   H6X21380   6.710   4.536   5.703  0.7682  0.5945  2.1449
  186POPC   H6Y21381   6.609   4.675   5.750  0.3312  0.2774  0.3311
  186POPC   C3721382   6.517   4.538   5.607  0.1239 -0.4421  0.6840
  186POPC   H7X21383   6.497   4.431   5.583 -0.9406 -0.2473  0.6387
  186POPC   H7Y21384   6.568   4.572   5.515 -1.7917  1.3894  0.2204
  186POPC   C3821385   6.377   4.604   5.603  0.5978  0.2889 -0.3707
  186POPC   H8X21386   6.400   4.711   5.619  0.4262 -0.0226  2.4004
  186POPC   H8Y21387   6.315   4.558   5.682 -1.4788 -1.2995 -2.7477
  186POPC   C3921388   6.307   4.595   5.465 -0.1357 -1.1561 -0.0974
  186POPC   H9X21389   6.292   4.486   5.451  1.8668 -1.5604  0.6128
  186POPC   H9Y21390   6.372   4.634   5.384 -0.2514  1.0844  0.8273
  186POPC  C31021391   6.174   4.669   5.462  0.4303 -0.0767  0.0707
  186POPC  H10X21392   6.190   4.776   5.489  0.8953  0.4948 -2.3042
  186POPC  H10Y21393   6.115   4.625   5.545  0.2706  1.6722  0.9357
  186POPC  C31121394   6.099   4.660   5.330 -0.4901  0.7157  0.2201
  186POPC  H11X21395   6.053   4.560   5.315 -2.0186  1.5625 -1.0358
  186POPC  H11Y21396   6.163   4.684   5.242 -0.5133 -1.6490 -0.5195
  186POPC  C31221397   5.979   4.756   5.314  0.0947  0.5160 -0.7728
  186POPC  H12X21398   6.020   4.858   5.331  1.1714 -0.2278  1.5649
  186POPC  H12Y21399   5.904   4.723   5.389 -0.9287 -0.3465 -2.1318
  186POPC  C31321400   5.903   4.743   5.179  0.1767  0.9013  0.1941
  186POPC  H13X21401   5.899   4.633   5.170 -0.8169  0.8251  1.3593
  186POPC  H13Y21402   5.975   4.768   5.097 -0.1432 -1.0902 -0.7489
  186POPC  C31421403   5.769   4.816   5.165  0.5300  0.1124  0.1116
  186POPC  H14X21404   5.788   4.925   5.168  0.4554  0.1704 -1.0060
  186POPC  H14Y21405   5.707   4.787   5.252  1.7607  0.8415  1.2627
  186POPC  C31521406   5.709   4.775   5.031 -0.2568  0.0470 -0.3523
  186POPC  H15X21407   5.697   4.665   5.028 -0.6699  0.1157 -1.5338
  186POPC  H15Y21408   5.772   4.787   4.940 -4.1859  1.5087 -3.1396
  186POPC  C31621409   5.583   4.844   5.007  0.3493  0.6144  0.1702
  186POPC  H16X21410   5.508   4.779   4.958 -1.5095  2.0269  0.9903
  186POPC  H16Y21411   5.600   4.928   4.935  0.9657  0.6327  0.3270
  186POPC  H16Z21412   5.528   4.881   5.097  0.6978  2.2231 -0.2368
  187POPC     N21413   3.928   3.964   2.363 -0.2720  0.2130  0.6410
  187POPC   C1221414   3.873   4.088   2.426  0.4206 -0.2550 -0.8155
  187POPC  H12A21415   3.960   4.143   2.460 -0.6446  0.7951  0.3165
  187POPC  H12B21416   3.816   4.058   2.513  0.1515 -1.8537 -1.5292
  187POPC   C1321417   3.825   3.877   2.300  0.2266  0.3461  0.1637
  187POPC  H13A21418   3.862   3.795   2.239 -1.5486 -0.8510  0.5973
  187POPC  H13B21419   3.761   3.842   2.380 -0.5684 -2.0289 -1.3925
  187POPC  H13C21420   3.760   3.938   2.240 -0.9674 -2.2373 -1.3799
  187POPC   C1421421   4.027   3.999   2.266 -0.1986 -1.0472  0.2852
  187POPC  H14A21422   4.068   3.905   2.230  0.4949 -0.9791  0.8855
  187POPC  H14B21423   3.984   4.043   2.177  0.2629  1.5771  1.3006
  187POPC  H14C21424   4.100   4.069   2.303 -0.0203 -0.8654 -0.3819
  187POPC   C1521425   4.000   3.878   2.470  0.2895  0.2146 -0.5024
  187POPC  H15A21426   4.082   3.935   2.511 -0.1990 -0.0619  0.9288
  187POPC  H15B21427   4.036   3.784   2.431 -0.8396 -0.9724  1.1872
  187POPC  H15C21428   3.928   3.850   2.546 -0.6365  2.2361 -0.5681
  187POPC   C1121429   3.779   4.188   2.344 -0.1488  0.9991  0.7564
  187POPC  H11A21430   3.849   4.224   2.265 -0.6818  1.3121  0.4220
  187POPC  H11B21431   3.755   4.270   2.415  1.3925  2.8609 -0.7598
  187POPC     P21432   3.528   4.106   2.357 -0.1560 -0.6391  0.0056
  187POPC   O1321433   3.479   3.963   2.355 -0.6828 -0.5329 -0.0990
  187POPC   O1421434   3.444   4.199   2.278  0.5291  0.2247 -0.0597
  187POPC   O1221435   3.673   4.113   2.290  0.2809  0.0532 -0.3133
  187POPC   O1121436   3.544   4.160   2.507 -0.0176  0.9123  0.1098
  187POPC    C121437   3.545   4.058   2.616  0.1283  0.3116 -0.2395
  187POPC    HA21438   3.628   4.070   2.688  0.3487 -1.1936 -0.2100
  187POPC    HB21439   3.543   3.953   2.580 -0.2111  0.0799  0.4410
  187POPC    C221440   3.405   4.071   2.690 -0.5504 -0.5481  0.3063
  187POPC    HS21441   3.398   4.179   2.716 -1.0026 -0.8150  1.3024
  187POPC   O2121442   3.418   3.988   2.801 -0.2910 -0.3245 -0.5053
  187POPC   C2121443   3.454   4.037   2.921 -0.1604 -0.2863 -0.6280
  187POPC   O2221444   3.464   4.157   2.954  0.5899 -0.1712 -0.6938
  187POPC   C2221445   3.468   3.908   3.009  0.1046  0.3709 -0.1840
  187POPC   H2R21446   3.563   3.853   2.993 -0.5472 -0.7101 -0.4684
  187POPC   H2S21447   3.385   3.840   2.980 -1.8309  2.9918 -1.2639
  187POPC    C321448   3.270   4.041   2.622  0.2248  0.2549  0.0387
  187POPC    HX21449   3.264   3.941   2.572  0.2540  0.2354  0.0742
  187POPC    HY21450   3.241   4.107   2.538  0.6678 -1.9514 -1.9616
  187POPC   O3121451   3.168   4.081   2.722  0.1744 -0.3198  0.7417
  187POPC   C3121452   3.117   3.988   2.798 -0.0521  0.1444 -0.1668
  187POPC   O3221453   3.150   3.871   2.797  0.1273  0.3024 -0.2072
  187POPC   C3221454   2.987   4.046   2.863 -0.7636 -0.1783 -0.4230
  187POPC   H2X21455   2.901   3.994   2.816 -2.2846  0.4523  1.5419
  187POPC   H2Y21456   2.966   4.153   2.842  1.8034  1.8878  5.3621
  187POPC   C2321457   3.458   3.941   3.160 -0.2377 -0.2826 -0.4187
  187POPC   H3R21458   3.356   3.981   3.181  0.3130  0.8519  0.1402
  187POPC   H3S21459   3.525   4.024   3.189 -0.6059 -0.4539  0.9633
  187POPC   C2421460   3.475   3.814   3.250  0.2337  0.4173  0.6733
  187POPC   H4R21461   3.575   3.769   3.235 -0.5626 -0.5738 -2.4115
  187POPC   H4S21462   3.422   3.724   3.211  2.1079 -0.7033  0.6026
  187POPC   C2521463   3.479   3.855   3.392 -0.0314 -0.3188  0.0372
  187POPC   H5R21464   3.387   3.900   3.435 -0.6047 -0.0270 -1.4001
  187POPC   H5S21465   3.558   3.933   3.395 -0.0108 -0.3282 -0.2412
  187POPC   C2621466   3.513   3.736   3.488 -0.0092 -0.2696  0.3113
  187POPC   H6R21467   3.603   3.675   3.464  0.5113  0.1295  1.1614
  187POPC   H6S21468   3.427   3.667   3.490 -0.1147 -0.2105 -1.2056
  187POPC   C2721469   3.520   3.782   3.635 -0.3516 -0.1520  0.1398
  187POPC   H7R21470   3.596   3.862   3.649  0.4701 -0.9607  0.3653
  187POPC   H7S21471   3.574   3.698   3.684 -0.6303  0.0889  0.8705
  187POPC   C2821472   3.382   3.809   3.706 -0.7299  0.1552 -0.6488
  187POPC   H8R21473   3.320   3.727   3.664 -2.4870  1.0853  0.0241
  187POPC   H8S21474   3.355   3.912   3.674 -0.9290  0.9241  1.7843
  187POPC   C2921475   3.389   3.798   3.852 -0.0415 -0.6830 -0.6479
  187POPC   H9121476   3.463   3.729   3.895  0.7403  0.3435 -0.2942
  187POPC  C21021477   3.300   3.855   3.938 -0.3586  0.1086 -0.1506
  187POPC  H10121478   3.308   3.830   4.045 -0.2531 -0.7937 -0.3571
  187POPC  C21121479   3.191   3.954   3.912  0.5121 -0.2035  0.2081
  187POPC  H11R21480   3.093   3.903   3.904  1.3581 -1.7207 -1.0610
  187POPC  H11S21481   3.209   4.009   3.817  0.3415 -1.1011 -0.3557
  187POPC  C21221482   3.170   4.060   4.023  0.1178  0.1315 -0.0726
  187POPC  H12R21483   3.083   4.123   3.993  0.4915  0.8332  0.2962
  187POPC  H12S21484   3.262   4.122   4.027  0.1835  0.0002  0.6207
  187POPC  C21321485   3.144   4.001   4.163  0.0278  0.0213 -0.6031
  187POPC  H13R21486   3.231   3.943   4.201  1.0583  1.5000 -0.6270
  187POPC  H13S21487   3.056   3.933   4.163  0.3848 -0.4902  1.3492
  187POPC  C21421488   3.111   4.111   4.267 -0.3098  0.4921  0.1930
  187POPC  H14R21489   3.012   4.154   4.242 -1.3163 -1.0526  1.3446
  187POPC  H14S21490   3.190   4.187   4.250 -0.3036  0.0682 -1.9138
  187POPC  C21521491   3.106   4.073   4.415 -0.1645 -0.0778 -0.0424
  187POPC  H15R21492   3.196   4.014   4.443  0.2923  0.5624 -0.1399
  187POPC  H15S21493   3.020   4.009   4.444  1.1093 -2.8909 -2.0101
  187POPC  C21621494   3.101   4.191   4.510  0.1875  0.3643  0.4583
  187POPC  H16R21495   3.041   4.271   4.462  1.2054  1.7045  1.3489
  187POPC  H16S21496   3.207   4.224   4.511  0.2449  0.1958  1.9421
  187POPC  C21721497   3.057   4.163   4.653  0.1598 -0.3259  0.1856
  187POPC  H17R21498   3.100   4.068   4.690 -2.2313 -1.2880  0.6885
  187POPC  H17S21499   2.948   4.145   4.667  0.4794 -1.5656  1.2478
  187POPC  C21821500   3.095   4.276   4.750  0.5988 -0.1789  0.5391
  187POPC  H18R21501   3.197   4.316   4.733  0.2640 -0.2956 -2.2342
  187POPC  H18S21502   3.091   4.241   4.855  0.2954  1.4865  1.1155
  187POPC  H18T21503   3.027   4.361   4.727  0.5609 -0.5639 -0.8789
  187POPC   C3321504   3.003   4.038   3.017 -0.2016 -0.1047  0.2678
  187POPC   H3X21505   2.912   4.077   3.066 -0.4807  1.5290 -1.4209
  187POPC   H3Y21506   3.084   4.093   3.070  0.5672 -0.7624 -0.1884
  187POPC   C3421507   3.024   3.891   3.060 -0.5219 -0.1964  0.0792
  187POPC   H4X21508   3.124   3.854   3.028 -1.1649 -1.5669 -0.4550
  187POPC   H4Y21509   2.952   3.826   3.005 -1.7097  2.0443 -1.1393
  187POPC   C3521510   3.015   3.899   3.214 -0.4160 -0.0270  0.7061
  187POPC   H5X21511   2.951   3.984   3.242  0.9573  1.0150  0.7973
  187POPC   H5Y21512   3.109   3.931   3.265 -0.0435 -0.9139  0.6041
  187POPC   C3621513   2.991   3.755   3.279  0.3115 -0.4837  0.1878
  187POPC   H6X21514   3.073   3.685   3.252  0.0319 -0.2313 -1.4781
  187POPC   H6Y21515   2.895   3.721   3.234  0.4488 -1.7721  0.8279
  187POPC   C3721516   2.983   3.768   3.431 -0.5641 -0.5826 -0.2607
  187POPC   H7X21517   2.930   3.864   3.453  0.6247  0.0810 -0.1578
  187POPC   H7Y21518   3.079   3.776   3.487 -1.2388  1.8511  0.7008
  187POPC   C3821519   2.906   3.666   3.505  0.2442 -0.2948 -0.1234
  187POPC   H8X21520   2.936   3.566   3.467 -0.8566 -0.4008 -0.7439
  187POPC   H8Y21521   2.796   3.663   3.487 -0.3440 -0.8143  2.8983
  187POPC   C3921522   2.930   3.663   3.661  0.1802  1.1387 -0.0004
  187POPC   H9X21523   3.038   3.654   3.686  0.4341  0.4522 -1.2299
  187POPC   H9Y21524   2.863   3.582   3.696 -1.4475  1.2773 -2.5200
  187POPC  C31021525   2.871   3.787   3.730  0.2902 -0.5782  0.5246
  187POPC  H10X21526   2.775   3.820   3.685 -0.4937 -1.2631  1.6360
  187POPC  H10Y21527   2.942   3.870   3.710  1.9307 -2.1171 -0.4577
  187POPC  C31121528   2.841   3.760   3.881 -0.3274 -0.5729 -0.1677
  187POPC  H11X21529   2.943   3.755   3.924  0.6060  1.6687 -1.9038
  187POPC  H11Y21530   2.790   3.662   3.891  0.5328 -1.2765 -2.1042
  187POPC  C31221531   2.784   3.877   3.955  0.6711 -0.2882 -0.1502
  187POPC  H12X21532   2.689   3.919   3.915  0.5550 -1.8421 -1.5823
  187POPC  H12Y21533   2.848   3.968   3.949 -2.8027  2.3084 -1.6591
  187POPC  C31321534   2.759   3.850   4.102  0.0179  0.9303  0.0132
  187POPC  H13X21535   2.835   3.790   4.156 -1.7489 -2.8765 -1.4079
  187POPC  H13Y21536   2.673   3.781   4.113 -0.1085  1.0378 -0.2983
  187POPC  C31421537   2.725   3.982   4.171  0.1974 -0.5667 -0.4995
  187POPC  H14X21538   2.637   4.032   4.126  0.7151  0.3678 -0.5003
  187POPC  H14Y21539   2.809   4.054   4.163  1.0222 -1.3169  0.8944
  187POPC  C31521540   2.697   3.957   4.316  0.4915 -0.5939  0.3948
  187POPC  H15X21541   2.774   3.895   4.366  0.9153 -0.2384  0.1943
  187POPC  H15Y21542   2.596   3.915   4.330 -0.6104  1.3843 -1.0793
  187POPC  C31621543   2.689   4.099   4.383 -0.2898 -0.1794 -0.0711
  187POPC  H16X21544   2.783   4.155   4.364  0.8689 -1.0030  2.7779
  187POPC  H16Y21545   2.670   4.100   4.492  0.4252  1.2642  0.0612
  187POPC  H16Z21546   2.605   4.157   4.338 -0.4848  0.0268  0.5563
  188POPC     N21547   0.787   2.563   2.255  0.1818 -0.3057 -0.0172
  188POPC   C1221548   0.730   2.702   2.277 -1.0344 -0.5793 -0.3511
  188POPC  H12A21549   0.630   2.711   2.239 -0.1615 -0.5000 -2.7757
  188POPC  H12B21550   0.788   2.774   2.221 -1.3198 -0.8434 -0.9855
  188POPC   C1321551   0.697   2.454   2.316  0.3178  0.0341 -0.0265
  188POPC  H13A21552   0.596   2.459   2.276  0.6217 -0.3706 -0.8685
  188POPC  H13B21553   0.734   2.353   2.318 -0.9347 -0.4618  2.2985
  188POPC  H13C21554   0.690   2.471   2.422 -1.2158  1.8421 -0.3662
  188POPC   C1421555   0.796   2.538   2.103  0.5367  0.4990  0.1818
  188POPC  H14A21556   0.704   2.512   2.054 -1.2465  2.5692  2.1645
  188POPC  H14B21557   0.837   2.625   2.054 -0.5118  0.1792 -1.3295
  188POPC  H14C21558   0.871   2.461   2.095 -1.2708 -1.4436  1.1267
  188POPC   C1521559   0.927   2.558   2.292 -0.1547  1.2427  0.0948
  188POPC  H15A21560   0.968   2.463   2.263 -0.1320  1.7814 -1.8234
  188POPC  H15B21561   0.953   2.567   2.396 -0.1113  1.9358  0.0293
  188POPC  H15C21562   0.996   2.620   2.236  3.2222 -1.8037  0.5612
  188POPC   C1121563   0.739   2.759   2.429 -0.4972  0.4016  0.7444
  188POPC  H11A21564   0.683   2.683   2.487 -1.4583  0.1991 -0.4221
  188POPC  H11B21565   0.674   2.849   2.424 -0.1860  0.7806  2.8374
  188POPC     P21566   0.929   2.897   2.524 -0.1543 -0.1376  0.2855
  188POPC   O1321567   0.839   3.010   2.492  0.3073  0.4507  0.4270
  188POPC   O1421568   1.062   2.904   2.455  0.4273  0.2001 -0.2322
  188POPC   O1221569   0.871   2.759   2.478 -0.3669  0.3064  0.3238
  188POPC   O1121570   0.960   2.883   2.678 -0.3648 -0.4206  0.1049
  188POPC    C121571   1.069   2.800   2.723 -0.3061 -0.3759  0.0698
  188POPC    HA21572   1.103   2.816   2.828  1.4787 -0.9538 -0.3788
  188POPC    HB21573   1.157   2.822   2.659  0.0548 -1.7128  0.0644
  188POPC    C221574   1.038   2.649   2.718 -0.4799 -0.1751 -0.4283
  188POPC    HS21575   1.012   2.632   2.611 -0.8146 -1.4661 -0.1542
  188POPC   O2121576   0.921   2.628   2.798  0.4152  0.8663  0.3240
  188POPC   C2121577   0.846   2.521   2.745  0.4712 -0.6370 -0.4815
  188POPC   O2221578   0.880   2.443   2.658  0.6153  0.1278 -0.8180
  188POPC   C2221579   0.706   2.523   2.815  0.2932  0.2907 -0.0968
  188POPC   H2R21580   0.640   2.566   2.737 -0.8418  0.4858  0.9449
  188POPC   H2S21581   0.703   2.600   2.895  2.2007  0.5110 -0.2060
  188POPC    C321582   1.161   2.566   2.771  1.1141 -0.9481  0.2603
  188POPC    HX21583   1.247   2.618   2.724  0.1769 -1.3908 -2.0947
  188POPC    HY21584   1.160   2.459   2.743  2.7716 -0.5652 -1.4659
  188POPC   O3121585   1.178   2.579   2.912  0.1418 -0.0435 -0.1081
  188POPC   C3121586   1.143   2.496   3.004 -0.7950 -0.3500  0.1497
  188POPC   O3221587   1.075   2.397   2.983  0.1602  0.6929 -0.3916
  188POPC   C3221588   1.223   2.520   3.129 -0.5436  0.1955 -0.5572
  188POPC   H2X21589   1.307   2.589   3.107  0.0536  0.4543  2.2016
  188POPC   H2Y21590   1.258   2.420   3.160 -2.5965 -0.5730 -0.5637
  188POPC   C2321591   0.648   2.385   2.855 -0.0267 -0.4702  0.2386
  188POPC   H3R21592   0.674   2.310   2.777  1.1858 -0.6442  0.7802
  188POPC   H3S21593   0.539   2.405   2.860  0.1930  0.7839  0.2549
  188POPC   C2421594   0.707   2.329   2.983  0.0883  0.1089 -0.3667
  188POPC   H4R21595   0.818   2.330   2.984  0.3589 -2.9774 -4.3794
  188POPC   H4S21596   0.683   2.222   3.004  0.1183  0.7272  3.7320
  188POPC   C2521597   0.650   2.391   3.113 -0.0584 -0.3934 -0.1768
  188POPC   H5R21598   0.546   2.354   3.130  0.4555 -1.0982  1.7873
  188POPC   H5S21599   0.644   2.502   3.111  0.7980 -0.3356  0.2170
  188POPC   C2621600   0.718   2.338   3.235 -0.8922 -0.1183 -0.3985
  188POPC   H6R21601   0.824   2.315   3.212 -0.3598  1.2327  0.5863
  188POPC   H6S21602   0.665   2.241   3.248 -0.6706 -0.4449 -1.7160
  188POPC   C2721603   0.703   2.436   3.355  0.1470 -0.4127  0.0754
  188POPC   H7R21604   0.600   2.476   3.338  1.0578  2.8958  1.6688
  188POPC   H7S21605   0.768   2.522   3.331 -0.0481 -0.3959 -0.4146
  188POPC   C2821606   0.730   2.379   3.492 -0.1877  0.3976  0.2722
  188POPC   H8R21607   0.838   2.355   3.503 -0.2765 -1.2014 -1.7470
  188POPC   H8S21608   0.668   2.288   3.504  0.4497 -0.9339 -4.4352
  188POPC   C2921609   0.691   2.478   3.595 -0.0539  0.3490  0.3250
  188POPC   H9121610   0.618   2.557   3.573  0.1410  0.1929 -0.9556
  188POPC  C21021611   0.762   2.496   3.715  0.0014  0.5263 -0.1758
  188POPC  H10121612   0.727   2.574   3.785  0.8102  2.2722 -1.6195
  188POPC  C21121613   0.876   2.406   3.769 -0.2167 -0.3824  0.5489
  188POPC  H11R21614   0.968   2.464   3.793 -2.5982  2.6812  3.1225
  188POPC  H11S21615   0.898   2.329   3.692  1.0677  0.2212  0.2873
  188POPC  C21221616   0.836   2.333   3.897  0.0249 -0.5339 -0.8718
  188POPC  H12R21617   0.917   2.264   3.930  1.1371  1.6472  1.2293
  188POPC  H12S21618   0.742   2.276   3.881 -1.4754  0.8801  2.0420
  188POPC  C21321619   0.789   2.428   4.008  0.5825 -0.0871  0.2450
  188POPC  H13R21620   0.701   2.483   3.969  0.9781  1.0334  0.9008
  188POPC  H13S21621   0.860   2.512   4.019 -0.8632  1.0702  1.0448
  188POPC  C21421622   0.761   2.365   4.139  0.1561  0.0432 -0.0298
  188POPC  H14R21623   0.854   2.321   4.181  0.4957 -0.0549 -0.8578
  188POPC  H14S21624   0.684   2.290   4.111 -0.6718  0.7565  0.3003
  188POPC  C21521625   0.707   2.456   4.249 -0.0479 -0.0552  0.1440
  188POPC  H15R21626   0.689   2.390   4.336  1.3638  0.7601  1.0786
  188POPC  H15S21627   0.609   2.496   4.214  0.2996  2.5359  1.8551
  188POPC  C21621628   0.802   2.576   4.283 -0.3578 -0.0660 -0.4518
  188POPC  H16R21629   0.804   2.655   4.206  1.3522  1.3995  1.0013
  188POPC  H16S21630   0.907   2.538   4.288 -0.9185 -1.7768 -1.0898
  188POPC  C21721631   0.758   2.642   4.418  0.1285  1.0891  0.0635
  188POPC  H17R21632   0.731   2.553   4.480 -0.9759  1.1067 -0.3719
  188POPC  H17S21633   0.664   2.695   4.390  0.5250  0.4576 -2.7949
  188POPC  C21821634   0.858   2.747   4.475 -0.6825  0.1599 -0.8191
  188POPC  H18R21635   0.957   2.704   4.449 -1.4412 -4.4681  2.6348
  188POPC  H18S21636   0.839   2.757   4.584 -3.2512  0.6611 -1.2302
  188POPC  H18T21637   0.834   2.842   4.422 -1.5003  0.0987 -0.5800
  188POPC   C3321638   1.137   2.585   3.234  0.5171  0.8597  1.1451
  188POPC   H3X21639   1.039   2.535   3.246  1.1992 -0.2419  2.5754
  188POPC   H3Y21640   1.114   2.687   3.196 -0.4446 -0.6482 -2.7781
  188POPC   C3421641   1.203   2.589   3.372  0.2851  0.4968  0.0022
  188POPC   H4X21642   1.311   2.611   3.362  0.0415  0.8407 -2.4150
  188POPC   H4Y21643   1.200   2.487   3.414 -3.2736  0.4507 -0.0985
  188POPC   C3521644   1.144   2.666   3.488  0.1252 -0.3840  0.1396
  188POPC   H5X21645   1.042   2.632   3.516  0.2190  0.5128  1.7251
  188POPC   H5Y21646   1.139   2.774   3.463  1.2530 -0.3692 -0.0769
  188POPC   C3621647   1.237   2.657   3.614 -0.2297  0.0341 -0.0312
  188POPC   H6X21648   1.343   2.673   3.583 -0.8970  1.6787 -1.6208
  188POPC   H6Y21649   1.247   2.552   3.647  1.9759 -0.0556 -0.7592
  188POPC   C3721650   1.188   2.743   3.731  0.2548  0.0519  0.1076
  188POPC   H7X21651   1.085   2.709   3.755  0.5152 -0.8717 -0.0630
  188POPC   H7Y21652   1.180   2.854   3.722  0.2067  0.1311  1.0122
  188POPC   C3821653   1.282   2.705   3.850  0.5021 -0.0301 -0.1428
  188POPC   H8X21654   1.382   2.747   3.825  0.8200  0.0574  1.2318
  188POPC   H8Y21655   1.299   2.596   3.850  1.9287  0.1483 -1.6273
  188POPC   C3921656   1.233   2.773   3.979  0.0969  0.3137 -0.4140
  188POPC   H9X21657   1.131   2.742   4.009  1.2598 -1.8811  1.7013
  188POPC   H9Y21658   1.244   2.884   3.979 -2.9228  0.7258 -2.5346
  188POPC  C31021659   1.320   2.722   4.098 -0.3274  1.1957  1.0178
  188POPC  H10X21660   1.415   2.777   4.085 -1.0564  2.4630  0.8003
  188POPC  H10Y21661   1.331   2.612   4.089  0.6841  1.3163  0.7554
  188POPC  C31121662   1.263   2.769   4.231  0.7690 -0.2578  0.6602
  188POPC  H11X21663   1.176   2.835   4.207  0.4685 -1.2422 -1.1239
  188POPC  H11Y21664   1.339   2.836   4.277  0.9749  0.4321 -0.6303
  188POPC  C31221665   1.226   2.664   4.333  0.2108  0.4018  0.0697
  188POPC  H12X21666   1.156   2.590   4.290  0.9335  0.8164 -1.9266
  188POPC  H12Y21667   1.174   2.732   4.405  2.3294  0.7462  1.3837
  188POPC  C31321668   1.347   2.627   4.413  0.0536  0.6412  0.7314
  188POPC  H13X21669   1.406   2.720   4.426  0.3977  0.9419 -2.2395
  188POPC  H13Y21670   1.408   2.555   4.356 -0.7979 -0.5543  1.2977
  188POPC  C31421671   1.309   2.554   4.541 -0.4884 -0.3888  0.3099
  188POPC  H14X21672   1.310   2.445   4.518  0.4321 -0.3155 -0.0097
  188POPC  H14Y21673   1.201   2.565   4.565 -0.2841 -0.1434  1.1277
  188POPC  C31521674   1.407   2.570   4.659 -0.5980  0.2422 -0.3132
  188POPC  H15X21675   1.368   2.659   4.712  0.1884  0.7144 -0.4899
  188POPC  H15Y21676   1.511   2.579   4.619 -0.9912 -0.9407 -1.6862
  188POPC  C31621677   1.411   2.468   4.767  0.7174 -0.0849 -0.6513
  188POPC  H16X21678   1.312   2.469   4.817 -0.6316  1.9449 -3.1007
  188POPC  H16Y21679   1.489   2.487   4.843 -1.3738 -0.1551  1.6579
  188POPC  H16Z21680   1.432   2.372   4.716 -0.4871  0.0292 -1.4148
  189SAPI   C1221681   4.151   5.211   6.752 -0.7497  1.3390  0.0236
  189SAPI    H221682   4.256   5.217   6.788 -0.2836 -4.7516  0.6390
  189SAPI    O221683   4.056   5.274   6.839  0.3445  0.0987 -0.3614
  189SAPI   HO221684   4.071   5.257   6.932 -2.0605 -3.6928 -0.4732
  189SAPI   C1321685   4.146   5.275   6.616 -0.1411 -0.2994 -0.1413
  189SAPI    H321686   4.220   5.231   6.547  0.2844  0.2982 -0.0751
  189SAPI    O321687   4.169   5.409   6.632 -0.1895  0.0491 -0.7338
  189SAPI   HO321688   4.136   5.455   6.555 -0.3951  1.4642  0.1659
  189SAPI   C1421689   4.010   5.254   6.555 -0.6118  0.1941 -0.2216
  189SAPI    H421690   3.947   5.326   6.611  1.5659  1.6657  0.4992
  189SAPI    O421691   4.006   5.293   6.416 -0.6263  0.3477 -0.5374
  189SAPI   HO421692   4.032   5.386   6.411 -1.9971  0.9065  1.4421
  189SAPI   C1521693   3.943   5.117   6.570 -0.2737 -0.3083 -0.1620
  189SAPI    H521694   3.987   5.054   6.490  2.4983 -0.7547  1.5367
  189SAPI    O521695   3.808   5.126   6.554 -0.3954  0.3799 -0.2723
  189SAPI   HO521696   3.792   5.175   6.473  1.2167 -0.4130 -1.1241
  189SAPI   C1621697   3.979   5.031   6.693  0.2004  0.0704 -0.3228
  189SAPI    H621698   3.914   5.053   6.781  0.7733  0.3547  0.0318
  189SAPI    O621699   3.957   4.898   6.671  0.5856  0.2878  0.2764
  189SAPI   HO621700   3.963   4.845   6.750  0.4521 -2.4285 -1.3838
  189SAPI   C1121701   4.123   5.062   6.749  0.0736 -0.7287  0.0508
  189SAPI    H121702   4.188   5.021   6.669 -0.2538  1.8145 -1.6516
  189SAPI     P21703   4.310   4.957   6.911  0.2154  0.2698  0.3529
  189SAPI   O1321704   4.318   4.865   7.032  0.0004  0.1436  0.8482
  189SAPI   O1421705   4.396   5.075   6.922  0.1160 -0.4376  0.2978
  189SAPI   O1221706   4.155   4.998   6.874 -0.0566 -0.6948 -0.0118
  189SAPI   O1121707   4.353   4.886   6.783 -0.1175 -0.3055 -0.1221
  189SAPI    C121708   4.327   4.750   6.743 -0.7761  0.6372  0.3355
  189SAPI    HA21709   4.393   4.684   6.802  0.1518  1.8275  0.6601
  189SAPI    HB21710   4.225   4.717   6.772 -0.3974 -1.1821 -0.2303
  189SAPI    C221711   4.361   4.723   6.587 -0.0640 -0.3764  0.2280
  189SAPI    HS21712   4.358   4.614   6.567 -0.5277 -0.4961  0.9080
  189SAPI   O2121713   4.493   4.774   6.555  0.5106  0.1551 -0.2145
  189SAPI   C2121714   4.595   4.702   6.604 -0.1834  0.1053  0.3975
  189SAPI   O2221715   4.582   4.596   6.668  0.6612 -0.3210 -0.5449
  189SAPI   C2221716   4.725   4.762   6.565 -0.0228 -0.7178  0.3182
  189SAPI   H2R21717   4.746   4.856   6.620  0.7791 -1.2533  0.9423
  189SAPI   H2S21718   4.805   4.695   6.603  0.2868 -1.1818 -1.0892
  189SAPI    C321719   4.249   4.789   6.497 -0.1678  0.1413 -0.0234
  189SAPI    HX21720   4.268   4.899   6.496  1.0628  0.0401  2.9805
  189SAPI    HY21721   4.157   4.759   6.552 -0.0454 -0.1346  0.0316
  189SAPI   O3121722   4.248   4.735   6.365  0.5300  0.1348 -0.2942
  189SAPI   C3121723   4.316   4.796   6.275  0.3292 -0.0270  0.8224
  189SAPI   O3221724   4.404   4.879   6.281  0.0331 -0.3195  0.9113
  189SAPI   C3221725   4.265   4.740   6.145  0.9483  0.3634  0.2768
  189SAPI   H2X21726   4.155   4.735   6.155  0.7405  2.2578 -0.5125
  189SAPI   H2Y21727   4.319   4.645   6.126  1.1659  0.4445  0.4856
  189SAPI   C2321728   4.745   4.793   6.411  0.2922  0.1260  0.1042
  189SAPI   H3R21729   4.824   4.870   6.395 -1.2540  1.9042  0.6964
  189SAPI   H3S21730   4.650   4.839   6.375  0.2952  0.9505  1.1024
  189SAPI   C2421731   4.777   4.661   6.335 -0.1704 -0.3511  0.3325
  189SAPI   H4R21732   4.844   4.596   6.396  1.8139 -0.7524 -2.1071
  189SAPI   H4S21733   4.838   4.684   6.245  0.5052 -1.4052  0.5018
  189SAPI   C2521734   4.651   4.594   6.286  0.2605 -0.0475 -0.2180
  189SAPI   H5R21735   4.600   4.535   6.363  0.4082  0.8243  0.5642
  189SAPI   C2621736   4.607   4.595   6.153  0.5980 -0.4265 -0.5647
  189SAPI   H6R21737   4.512   4.544   6.133  0.2645  0.6750 -1.8673
  189SAPI   C2721738   4.669   4.671   6.043  0.1454  0.4195 -0.2604
  189SAPI   H7R21739   4.745   4.746   6.074  0.1924 -0.0616  0.8148
  189SAPI   H7S21740   4.590   4.739   6.005 -0.6986 -0.5346 -0.2466
  189SAPI   C2821741   4.735   4.596   5.939  0.0806  0.7052 -0.2319
  189SAPI   H8R21742   4.799   4.517   5.980 -0.8053 -0.2377 -0.6245
  189SAPI   C2921743   4.704   4.592   5.805 -0.6116  0.3920  0.6792
  189SAPI   H9R21744   4.753   4.513   5.746  0.2243  0.7448  0.8762
  189SAPI  C21021745   4.601   4.673   5.727 -0.1305  0.8399 -0.0760
  189SAPI  H10R21746   4.647   4.742   5.654  1.1532 -0.2850 -0.3637
  189SAPI  H10S21747   4.536   4.727   5.799 -0.3915  0.0962  0.2579
  189SAPI  C21121748   4.520   4.566   5.665  0.0560  0.2349  0.4219
  189SAPI  H11R21749   4.441   4.521   5.727 -0.7568 -0.6689 -1.1969
  189SAPI  C21221750   4.526   4.525   5.537  0.6666  0.1380  0.9901
  189SAPI  H12R21751   4.457   4.445   5.507 -0.9642  1.7842  0.1310
  189SAPI  C21321752   4.620   4.577   5.429  0.0029  0.3444 -0.6047
  189SAPI  H13R21753   4.721   4.533   5.442 -0.7802 -1.8794 -1.5047
  189SAPI  H13S21754   4.634   4.685   5.449 -1.4702  0.3901  0.3814
  189SAPI  C21421755   4.557   4.557   5.296 -0.4973 -0.6231  0.0343
  189SAPI  H14R21756   4.489   4.639   5.272 -0.4009 -0.6091 -0.1955
  189SAPI  C21521757   4.567   4.443   5.217  0.8585  0.1352  0.0617
  189SAPI  H15R21758   4.512   4.450   5.121 -0.3888  1.3597  0.8249
  189SAPI  C21621759   4.674   4.333   5.241  0.2900  0.0353 -0.2094
  189SAPI  H16R21760   4.671   4.321   5.351  0.0565 -0.4459 -0.2682
  189SAPI  H16S21761   4.771   4.380   5.213  0.6117 -0.7164 -0.3882
  189SAPI  C21721762   4.670   4.202   5.171 -0.1938 -0.6464 -0.1411
  189SAPI  H17R21763   4.572   4.150   5.182 -1.8829  2.2675 -0.1110
  189SAPI  H17S21764   4.743   4.132   5.215 -1.5017 -1.6122  0.5746
  189SAPI  C21821765   4.691   4.217   5.024 -0.3832 -0.4466 -0.5185
  189SAPI  H18R21766   4.793   4.261   5.015 -0.6638  0.6012  0.9857
  189SAPI  H18S21767   4.612   4.286   4.990 -0.0798  1.1229  1.7519
  189SAPI  C21921768   4.680   4.090   4.953 -0.2984  0.3275  0.3619
  189SAPI  H19R21769   4.579   4.047   4.974 -0.4544  0.1426 -0.7184
  189SAPI  H19S21770   4.759   4.024   4.994 -2.9311 -1.1669  3.5706
  189SAPI  C22021771   4.705   4.104   4.800 -0.3271  0.3440  0.3038
  189SAPI  H20R21772   4.648   4.192   4.762 -0.6575 -0.2752 -0.6652
  189SAPI  H20S21773   4.675   4.022   4.731 -0.3080  0.2521  0.4052
  189SAPI  H20T21774   4.813   4.129   4.791 -0.2696 -0.5462 -2.3352
  189SAPI   C3321775   4.298   4.837   6.028 -0.2041  0.4330 -0.4597
  189SAPI   H3X21776   4.405   4.846   5.998  0.1801 -0.2670  0.6477
  189SAPI   H3Y21777   4.266   4.939   6.060 -0.7594  0.5359 -1.3013
  189SAPI   C3421778   4.225   4.801   5.898 -0.7318 -0.0564 -0.1816
  189SAPI   H4X21779   4.114   4.802   5.904 -0.6567  2.1004  2.1604
  189SAPI   H4Y21780   4.250   4.694   5.878  1.1108  0.6327 -1.8542
  189SAPI   C3521781   4.268   4.891   5.781 -0.3999  0.0761  0.5926
  189SAPI   H5X21782   4.379   4.900   5.777  0.0125 -3.6573 -1.4625
  189SAPI   H5Y21783   4.224   4.993   5.783  0.5121  0.4732  0.8390
  189SAPI   C3621784   4.230   4.829   5.650  0.1311 -0.4115 -0.2061
  189SAPI   H6X21785   4.121   4.814   5.631 -0.1184 -0.1543  0.9632
  189SAPI   H6Y21786   4.272   4.726   5.647  1.9824  0.3282 -0.6207
  189SAPI   C3721787   4.293   4.913   5.534  0.0431  0.7377  0.4893
  189SAPI   H7X21788   4.402   4.918   5.556  0.4330  1.5828 -1.3703
  189SAPI   H7Y21789   4.247   5.014   5.534 -1.3018  0.1514 -0.5719
  189SAPI   C3821790   4.287   4.845   5.396  0.6499  0.4170 -0.0225
  189SAPI   H8X21791   4.181   4.834   5.363  0.7593  1.2440 -0.6791
  189SAPI   H8Y21792   4.327   4.741   5.399  0.7852  0.4535 -0.4959
  189SAPI   C3921793   4.366   4.908   5.280  0.1950 -0.0036 -0.0920
  189SAPI   H9X21794   4.470   4.873   5.296 -0.6557 -2.1583  1.1065
  189SAPI   H9Y21795   4.354   5.019   5.280 -0.9163 -0.1122 -0.1107
  189SAPI  C31021796   4.314   4.849   5.153  0.4306  0.9182  0.4755
  189SAPI  H10X21797   4.207   4.871   5.131 -0.6774 -2.0433  2.2554
  189SAPI  H10Y21798   4.313   4.739   5.168 -1.6327  0.6570 -1.0717
  189SAPI  C31121799   4.412   4.860   5.032  0.2055  0.4553  0.7490
  189SAPI  H11X21800   4.504   4.799   5.044  0.9326  0.6537 -2.5920
  189SAPI  H11Y21801   4.443   4.965   5.052 -2.4927  1.4180  0.3983
  189SAPI  C31221802   4.352   4.848   4.887  0.1888  0.0600  0.2045
  189SAPI  H12X21803   4.250   4.893   4.885  0.4400  0.7442  1.3970
  189SAPI  H12Y21804   4.333   4.741   4.864  1.2189 -0.0745 -0.0836
  189SAPI  C31321805   4.432   4.921   4.782 -0.5752  0.0618 -0.3040
  189SAPI  H13X21806   4.529   4.867   4.776  1.3818  3.3457 -0.5618
  189SAPI  H13Y21807   4.446   5.020   4.829  2.2796 -1.1781  1.8235
  189SAPI  C31421808   4.355   4.931   4.649 -0.8819  1.1876 -0.2284
  189SAPI  H14X21809   4.385   5.022   4.594  2.0776 -0.0984 -0.9185
  189SAPI  H14Y21810   4.252   4.944   4.690 -0.4352 -1.5548  2.1052
  189SAPI  C31521811   4.378   4.804   4.564 -0.2510  0.0448 -0.1326
  189SAPI  H15X21812   4.354   4.717   4.629 -1.0457 -0.9723 -1.7297
  189SAPI  H15Y21813   4.488   4.800   4.550  0.0252  1.1413  1.4652
  189SAPI  C31621814   4.289   4.795   4.436 -0.6323 -0.1204 -0.2753
  189SAPI  H16X21815   4.299   4.884   4.371  3.9381 -0.8136 -0.8276
  189SAPI  H16Y21816   4.187   4.804   4.478 -0.8727  0.4287 -0.9664
  189SAPI  C31721817   4.283   4.653   4.375 -0.6976  0.0718 -0.0874
  189SAPI  H17X21818   4.303   4.578   4.455  0.9751  1.5038  0.9195
  189SAPI  H17Y21819   4.369   4.649   4.305 -1.3540 -2.5671 -0.8361
  189SAPI  C31821820   4.144   4.603   4.311 -0.2337  0.4872  0.1959
  189SAPI  H18X21821   4.106   4.676   4.236 -2.4180 -0.4958  0.2897
  189SAPI  H18Y21822   4.070   4.594   4.393 -2.7373  0.6658 -1.9236
  189SAPI  H18Z21823   4.179   4.505   4.272  3.5767  1.3203  1.0912
  190SAPI   C1221824   3.571   1.021   6.461 -0.0196 -0.3281  0.2725
  190SAPI    H221825   3.665   1.021   6.403  0.2258 -0.5594  0.6619
  190SAPI    O221826   3.465   1.002   6.370  0.3744 -0.6494 -0.3551
  190SAPI   HO221827   3.454   1.069   6.303 -2.2258  1.1375  1.6821
  190SAPI   C1321828   3.586   0.920   6.573 -0.0593 -0.4783  0.3294
  190SAPI    H321829   3.665   0.954   6.643  1.0358 -0.5458 -0.8557
  190SAPI    O321830   3.618   0.795   6.514  0.4638  0.6933  0.0311
  190SAPI   HO321831   3.679   0.744   6.567  0.5800  0.3235 -0.4469
  190SAPI   C1421832   3.456   0.917   6.656  1.1186  0.2820 -0.4073
  190SAPI    H421833   3.390   0.855   6.592  0.5988  1.5578 -1.1533
  190SAPI    O421834   3.475   0.849   6.779 -0.3090 -0.5719 -0.1467
  190SAPI   HO421835   3.461   0.756   6.758  3.7728 -1.3171 -0.4087
  190SAPI   C1521836   3.392   1.050   6.673  0.1115 -0.0855 -0.0249
  190SAPI    H521837   3.425   1.082   6.775 -0.4926  1.1254 -0.1902
  190SAPI    O521838   3.247   1.037   6.688 -1.0850  0.1640  0.3927
  190SAPI   HO521839   3.225   1.076   6.772  0.7232 -0.0785  1.0315
  190SAPI   C1621840   3.443   1.178   6.596 -0.5322 -0.1483 -0.5501
  190SAPI    H621841   3.366   1.190   6.516  1.0288  2.2713 -1.8253
  190SAPI    O621842   3.450   1.290   6.678 -0.0963 -0.2848  0.1329
  190SAPI   HO621843   3.426   1.364   6.622  2.0885 -0.2260 -0.7885
  190SAPI   C1121844   3.574   1.163   6.518  0.5171 -0.3653  0.0062
  190SAPI    H121845   3.660   1.177   6.587  0.8326 -1.9017 -0.0375
  190SAPI     P21846   3.709   1.299   6.329  0.0950  0.5549 -0.3494
  190SAPI   O1321847   3.825   1.239   6.399  0.2607  0.2860 -0.4472
  190SAPI   O1421848   3.707   1.442   6.294 -0.4769 -0.0972 -0.6095
  190SAPI   O1221849   3.581   1.266   6.421  0.3042  0.3310 -0.0603
  190SAPI   O1121850   3.678   1.219   6.191  0.4984  0.0248 -0.4200
  190SAPI    C121851   3.788   1.153   6.119  0.6991 -0.4957 -0.7122
  190SAPI    HA21852   3.807   1.197   6.018  1.2074  1.6290  0.2467
  190SAPI    HB21853   3.888   1.159   6.167  1.5445  0.1795 -2.4711
  190SAPI    C221854   3.760   0.997   6.109  0.3985 -1.1926 -0.1982
  190SAPI    HS21855   3.714   0.979   6.208  1.0535 -0.8150  0.1858
  190SAPI   O2121856   3.887   0.931   6.108 -0.2340 -0.2793  0.1137
  190SAPI   C2121857   3.872   0.804   6.132 -0.0671  0.1019 -0.2193
  190SAPI   O2221858   3.779   0.739   6.175 -0.1565  0.1381 -0.2497
  190SAPI   C2221859   4.007   0.739   6.129  0.0093  0.4617 -0.3072
  190SAPI   H2R21860   4.074   0.807   6.072  2.2224  0.7641  2.4408
  190SAPI   H2S21861   4.036   0.735   6.236 -1.1136 -0.2287 -0.0119
  190SAPI    C321862   3.658   0.962   6.000  0.2228  0.0412 -0.1022
  190SAPI    HX21863   3.575   1.031   6.025 -0.1572 -1.1688  2.3631
  190SAPI    HY21864   3.620   0.860   6.022 -1.8099  1.0439  1.3979
  190SAPI   O3121865   3.693   1.003   5.871 -0.7542  0.1205 -0.4844
  190SAPI   C3121866   3.711   0.904   5.782  0.5516  0.6763 -0.0440
  190SAPI   O3221867   3.693   0.786   5.801 -0.0250  0.4008 -0.3955
  190SAPI   C3221868   3.761   0.967   5.658  0.0727 -0.0482 -0.2778
  190SAPI   H2X21869   3.856   0.916   5.633 -0.7031 -1.2143 -0.9790
  190SAPI   H2Y21870   3.791   1.071   5.683 -0.1221 -0.3239  1.1791
  190SAPI   C2321871   4.011   0.595   6.085 -0.2002 -0.4156  0.5569
  190SAPI   H3R21872   3.943   0.532   6.146 -2.5302  0.8380 -0.6277
  190SAPI   H3S21873   4.113   0.560   6.111 -0.1846 -0.5348  0.3357
  190SAPI   C2421874   3.989   0.567   5.935 -0.3206  0.4850 -0.3841
  190SAPI   H4R21875   3.889   0.606   5.907 -1.7877 -1.4512  1.7991
  190SAPI   H4S21876   4.023   0.461   5.935  2.4598  1.2565  1.5825
  190SAPI   C2521877   4.081   0.640   5.845  0.1907  0.4323 -0.5327
  190SAPI   H5R21878   4.143   0.719   5.890  1.5962 -1.1328  0.3852
  190SAPI   C2621879   4.104   0.627   5.718  0.0071  0.1827  0.5053
  190SAPI   H6R21880   4.174   0.701   5.677 -0.7095  0.7654  0.3036
  190SAPI   C2721881   4.038   0.527   5.632 -0.8186 -0.3017  0.1236
  190SAPI   H7R21882   3.970   0.459   5.688  1.1418 -2.7142 -0.2528
  190SAPI   H7S21883   4.114   0.454   5.596  0.0074  0.4753  0.2760
  190SAPI   C2821884   3.985   0.592   5.510 -0.2803 -0.0822 -0.6042
  190SAPI   H8R21885   3.890   0.638   5.543  0.1249 -1.2717  2.5507
  190SAPI   C2921886   4.024   0.605   5.386 -0.9859  0.0499 -0.7896
  190SAPI   H9R21887   3.964   0.662   5.314 -0.1549 -0.0507 -1.5845
  190SAPI  C21021888   4.150   0.533   5.331  0.1979 -0.3233 -0.0854
  190SAPI  H10R21889   4.122   0.432   5.295 -2.6732  0.1974  0.4387
  190SAPI  H10S21890   4.228   0.529   5.410 -0.5239 -2.5586  0.5742
  190SAPI  C21121891   4.205   0.612   5.213  0.2189  0.1227 -0.7728
  190SAPI  H11R21892   4.295   0.661   5.254 -1.2601  0.5850  2.2383
  190SAPI  C21221893   4.178   0.623   5.080  0.0420  0.2822 -0.3188
  190SAPI  H12R21894   4.230   0.707   5.031  1.0746 -0.7258 -0.9799
  190SAPI  C21321895   4.068   0.557   5.001 -0.6342  0.3898  0.8709
  190SAPI  H13R21896   3.973   0.611   5.021 -1.5064 -0.8639  0.2794
  190SAPI  H13S21897   4.045   0.461   5.053 -0.9699  0.7755  1.4567
  190SAPI  C21421898   4.095   0.554   4.849  0.1777  0.1299  1.1294
  190SAPI  H14R21899   4.098   0.648   4.791 -0.0173  0.6146  1.8929
  190SAPI  C21521900   4.109   0.441   4.778  0.5858 -0.2440  0.1384
  190SAPI  H15R21901   4.114   0.442   4.668 -0.3772  1.6018  0.0680
  190SAPI  C21621902   4.092   0.300   4.835 -0.1389  0.6924 -0.5258
  190SAPI  H16R21903   3.998   0.305   4.894 -0.0975  1.5566 -0.5221
  190SAPI  H16S21904   4.170   0.276   4.910 -1.1293  0.5762  0.5034
  190SAPI  C21721905   4.072   0.183   4.733 -0.0282 -0.0683  0.3097
  190SAPI  H17R21906   4.033   0.094   4.788 -0.3311  0.2195  0.5617
  190SAPI  H17S21907   4.167   0.146   4.687 -0.0913 -0.7402  0.7069
  190SAPI  C21821908   3.947   0.198   4.645  0.2455  0.1151  1.0354
  190SAPI  H18R21909   3.970   0.282   4.576 -1.6800 -0.1124  0.0645
  190SAPI  H18S21910   3.864   0.235   4.709 -0.7526 -1.2057  0.5424
  190SAPI  C21921911   3.910   0.077   4.568  0.4815  0.8927 -0.3971
  190SAPI  H19R21912   3.806   0.097   4.533 -0.1521  0.2073  1.0345
  190SAPI  H19S21913   3.893  -0.011   4.633  1.0478  2.1038  1.4504
  190SAPI  C22021914   4.003   0.046   4.447 -0.5639 -0.7459 -0.0004
  190SAPI  H20R21915   4.021   0.134   4.382  4.4464 -3.7309 -3.3810
  190SAPI  H20S21916   3.965  -0.035   4.381  1.5605 -0.3936 -1.7719
  190SAPI  H20T21917   4.107   0.015   4.471  0.6017 -0.3595 -3.9195
  190SAPI   C3321918   3.670   0.970   5.529 -0.1043  0.0800  0.6160
  190SAPI   H3X21919   3.667   1.066   5.474 -0.2608 -1.4390 -2.2343
  190SAPI   H3Y21920   3.566   0.952   5.566 -1.1147  2.6283 -0.7575
  190SAPI   C3421921   3.697   0.863   5.432 -0.0277 -0.3551 -0.6045
  190SAPI   H4X21922   3.670   0.761   5.468  1.5826 -1.6878 -2.8877
  190SAPI   H4Y21923   3.807   0.853   5.418 -0.1942 -0.4334 -1.9714
  190SAPI   C3521924   3.642   0.895   5.293 -0.3175 -0.0544 -0.0112
  190SAPI   H5X21925   3.664   0.995   5.251 -0.1872 -0.3097 -0.5494
  190SAPI   H5Y21926   3.530   0.893   5.296 -0.2927 -0.7232  0.7781
  190SAPI   C3621927   3.698   0.795   5.193 -0.2013  0.2669  0.3931
  190SAPI   H6X21928   3.681   0.691   5.227 -0.2398  0.1887  0.1336
  190SAPI   H6Y21929   3.807   0.812   5.207 -0.4188  0.6621  1.8227
  190SAPI   C3721930   3.648   0.801   5.050 -0.8650 -1.1480 -0.4409
  190SAPI   H7X21931   3.683   0.897   5.008  0.4297 -0.8296  1.2970
  190SAPI   H7Y21932   3.538   0.811   5.065 -0.5331 -1.3125  2.7251
  190SAPI   C3821933   3.702   0.687   4.964  0.7019 -0.1459  0.2684
  190SAPI   H8X21934   3.676   0.597   5.024 -0.8770 -0.4106 -0.7596
  190SAPI   H8Y21935   3.813   0.689   4.951  0.6057 -0.1946 -0.6474
  190SAPI   C3921936   3.653   0.683   4.816 -0.9941 -0.3632 -0.7905
  190SAPI   H9X21937   3.692   0.768   4.757 -0.1089 -0.6396 -0.6210
  190SAPI   H9Y21938   3.544   0.690   4.797 -1.1766 -0.0289  0.3367
  190SAPI  C31021939   3.714   0.553   4.747 -0.0215 -0.3916 -1.2267
  190SAPI  H10X21940   3.665   0.465   4.796 -1.2977  0.1814 -1.4346
  190SAPI  H10Y21941   3.824   0.542   4.752 -0.0791 -1.5502 -2.1856
  190SAPI  C31121942   3.690   0.538   4.599  0.2028  0.0208  0.0819
  190SAPI  H11X21943   3.585   0.560   4.567  0.2804 -0.1102 -0.2693
  190SAPI  H11Y21944   3.726   0.437   4.569  2.1043  0.4689  0.7070
  190SAPI  C31221945   3.781   0.625   4.514 -0.5217 -0.5709  0.4912
  190SAPI  H12X21946   3.884   0.582   4.509 -0.6484 -0.7415 -1.2969
  190SAPI  H12Y21947   3.797   0.721   4.566 -1.5880 -0.6904  1.0567
  190SAPI  C31321948   3.727   0.667   4.370  0.2794 -0.0054  0.6250
  190SAPI  H13X21949   3.810   0.726   4.327 -1.0523  1.5104  0.0102
  190SAPI  H13Y21950   3.627   0.715   4.377 -0.5218 -1.7790  2.5245
  190SAPI  C31421951   3.725   0.542   4.276 -0.4585 -0.3532  0.2016
  190SAPI  H14X21952   3.641   0.476   4.305 -3.5518  1.9579 -2.8016
  190SAPI  H14Y21953   3.814   0.479   4.300 -1.8855 -1.3848  3.2151
  190SAPI  C31521954   3.707   0.571   4.127  0.0292 -0.4329 -0.3107
  190SAPI  H15X21955   3.799   0.623   4.090  0.1342  0.1412  0.7361
  190SAPI  H15Y21956   3.629   0.646   4.107  1.8507  1.3355 -1.1620
  190SAPI  C31621957   3.671   0.434   4.059 -1.3350  0.0627 -0.9249
  190SAPI  H16X21958   3.727   0.351   4.106  1.7932  2.2887 -0.3955
  190SAPI  H16Y21959   3.706   0.437   3.954  1.2076  0.1831 -0.1515
  190SAPI  C31721960   3.514   0.420   4.043  0.0010 -0.6010 -0.6833
  190SAPI  H17X21961   3.467   0.445   4.140 -1.1593 -0.7284 -1.1891
  190SAPI  H17Y21962   3.494   0.313   4.020 -3.4529  0.2068 -2.1163
  190SAPI  C31821963   3.448   0.517   3.939 -0.1393  0.6288 -0.3442
  190SAPI  H18X21964   3.448   0.623   3.971  0.9320  0.7115 -0.5816
  190SAPI  H18Y21965   3.342   0.487   3.922 -0.8392  3.9081 -2.7207
  190SAPI  H18Z21966   3.503   0.514   3.842 -1.7679  1.1448 -1.3285
  191SAPI   C1221967   0.870   1.837   1.698 -0.5198 -0.2406 -0.5448
  191SAPI    H221968   0.965   1.840   1.756 -0.0333  0.3100 -1.3476
  191SAPI    O221969   0.853   1.969   1.637  0.5646  0.0297 -0.3354
  191SAPI   HO221970   0.905   2.027   1.693 -1.9112  2.2800 -0.1464
  191SAPI   C1321971   0.882   1.726   1.598 -0.1964 -0.7042 -0.2770
  191SAPI    H321972   0.898   1.637   1.663  1.4723  0.3397  0.8190
  191SAPI    O321973   1.000   1.738   1.515 -0.1498  0.2228  0.5596
  191SAPI   HO321974   1.010   1.827   1.479 -2.3285 -0.0178 -0.8611
  191SAPI   C1421975   0.753   1.710   1.516  0.0461  0.1075  0.6402
  191SAPI    H421976   0.757   1.798   1.449 -0.0090 -0.0694  0.4032
  191SAPI    O421977   0.753   1.582   1.444  0.0078 -0.0367  0.1864
  191SAPI   HO421978   0.797   1.589   1.358  1.1959  0.0046  0.7711
  191SAPI   C1521979   0.623   1.722   1.596  0.2445  0.1399 -0.4461
  191SAPI    H521980   0.596   1.627   1.647 -1.2345  0.9904  0.4597
  191SAPI    O521981   0.511   1.746   1.513  0.1374  0.1920  0.0514
  191SAPI   HO521982   0.441   1.685   1.540 -0.8862  0.8214 -1.0658
  191SAPI   C1621983   0.622   1.819   1.721  0.4647  0.3202 -0.0316
  191SAPI    H621984   0.605   1.923   1.685  0.2729 -0.3142 -1.8940
  191SAPI    O621985   0.515   1.790   1.810  0.2013  0.3026 -0.5611
  191SAPI   HO621986   0.486   1.876   1.843 -0.7251  0.2583 -1.2193
  191SAPI   C1121987   0.754   1.802   1.789  0.0953  0.4043  0.7032
  191SAPI    H121988   0.747   1.692   1.804  0.8409  0.3710  0.8751
  191SAPI     P21989   0.826   1.814   2.045  0.3546  0.3930 -0.4538
  191SAPI   O1321990   0.883   1.922   2.131  0.6663  0.1439  0.1815
  191SAPI   O1421991   0.918   1.699   2.014  0.6337 -0.4218 -0.5668
  191SAPI   O1221992   0.752   1.877   1.916  0.0135  0.4084  0.5190
  191SAPI   O1121993   0.708   1.756   2.131 -0.1749 -0.3954  0.4885
  191SAPI    C121994   0.624   1.850   2.201 -0.1284  0.5021 -0.3681
  191SAPI    HA21995   0.687   1.894   2.281  1.7573 -1.4857 -0.6722
  191SAPI    HB21996   0.567   1.918   2.134 -0.8923  0.2398  0.0001
  191SAPI    C221997   0.504   1.791   2.281  0.5718  0.2703  0.0796
  191SAPI    HS21998   0.441   1.878   2.308  1.5522  0.9289  0.2784
  191SAPI   O2121999   0.548   1.715   2.400  0.4757  0.1359 -0.2501
  191SAPI   C2122000   0.624   1.787   2.489  0.0346 -0.2881 -1.1258
  191SAPI   O2222001   0.646   1.903   2.501  0.1165 -0.5622  0.2234
  191SAPI   C2222002   0.653   1.682   2.601  0.0837 -0.1043  0.1723
  191SAPI   H2R22003   0.558   1.629   2.624  1.0963 -2.2963 -0.4246
  191SAPI   H2S22004   0.726   1.611   2.557 -0.3526  0.0118 -0.7687
  191SAPI    C322005   0.420   1.694   2.184  0.0038  0.0716 -0.0795
  191SAPI    HX22006   0.477   1.600   2.166 -2.2440 -1.1389 -1.2896
  191SAPI    HY22007   0.420   1.745   2.086 -0.7191  2.9192  1.3055
  191SAPI   O3122008   0.291   1.680   2.243  0.3582  0.0496  0.2979
  191SAPI   C3122009   0.285   1.584   2.332 -0.2831  0.5089  0.4275
  191SAPI   O3222010   0.358   1.485   2.336  0.0963 -0.6227 -0.3389
  191SAPI   C3222011   0.163   1.613   2.423 -0.2916  1.0478 -0.3474
  191SAPI   H2X22012   0.075   1.614   2.355 -0.8494 -0.1088  0.3262
  191SAPI   H2Y22013   0.157   1.717   2.463 -0.1194  0.6963  0.6216
  191SAPI   C2322014   0.706   1.748   2.727 -0.1541  0.3131  0.2871
  191SAPI   H3R22015   0.629   1.811   2.778 -1.4472  0.3264 -1.6063
  191SAPI   H3S22016   0.794   1.815   2.713 -0.4107  0.6112  0.1047
  191SAPI   C2422017   0.769   1.652   2.835 -0.2570  0.5750  0.6182
  191SAPI   H4R22018   0.858   1.700   2.882  2.2511 -0.6816 -2.4783
  191SAPI   H4S22019   0.806   1.562   2.782  2.6569  1.9937  0.0242
  191SAPI   C2522020   0.672   1.599   2.936  0.5689  0.1762 -0.0221
  191SAPI   H5R22021   0.623   1.502   2.916 -0.5103  0.5353  0.7867
  191SAPI   C2622022   0.643   1.651   3.054  0.2062 -0.1829 -0.1238
  191SAPI   H6R22023   0.579   1.590   3.120 -1.3404  0.4059 -1.0271
  191SAPI   C2722024   0.699   1.784   3.101  0.0534 -0.1447 -0.7269
  191SAPI   H7R22025   0.738   1.837   3.011  0.7896  0.7740  0.1031
  191SAPI   H7S22026   0.789   1.764   3.164  0.6880  0.8083 -1.2933
  191SAPI   C2822027   0.610   1.873   3.187  0.3262 -0.0664 -0.7231
  191SAPI   H8R22028   0.503   1.873   3.163  0.5246  1.0239 -1.7038
  191SAPI   C2922029   0.658   1.962   3.283 -0.1875 -0.2239 -0.1235
  191SAPI   H9R22030   0.582   2.028   3.327  0.1692  1.4012 -1.8225
  191SAPI  C21022031   0.797   1.990   3.349 -0.1758  0.1302 -0.2557
  191SAPI  H10R22032   0.797   2.088   3.400  1.4657 -1.4555  3.1318
  191SAPI  H10S22033   0.880   1.997   3.275  1.4888  0.4088  1.5455
  191SAPI  C21122034   0.826   1.883   3.450 -0.0787  0.4153  0.2898
  191SAPI  H11R22035   0.754   1.801   3.465  1.6569 -0.9888  1.2413
  191SAPI  C21222036   0.936   1.872   3.521 -0.1672  0.0607  0.2399
  191SAPI  H12R22037   0.935   1.786   3.589 -3.2735 -1.4058 -1.4357
  191SAPI  C21322038   1.044   1.973   3.535 -0.7370  0.1391  0.2054
  191SAPI  H13R22039   1.045   2.034   3.627 -2.4741  0.8574 -0.2105
  191SAPI  H13S22040   1.045   2.043   3.449 -1.0929 -1.4168 -1.1233
  191SAPI  C21422041   1.168   1.892   3.527  0.5700  0.4382  0.6689
  191SAPI  H14R22042   1.201   1.883   3.422 -2.7199  1.1630 -0.5227
  191SAPI  C21522043   1.256   1.867   3.623 -1.2802  0.4530  0.2817
  191SAPI  H15R22044   1.338   1.798   3.599 -2.1656 -0.8683  0.9438
  191SAPI  C21622045   1.235   1.898   3.769  0.8021 -0.4164 -0.6307
  191SAPI  H16R22046   1.242   1.807   3.832 -3.2721  0.5546  1.5682
  191SAPI  H16S22047   1.133   1.939   3.784  0.6211 -1.6403  1.9765
  191SAPI  C21722048   1.325   2.003   3.834 -0.7136  1.0395  0.1469
  191SAPI  H17R22049   1.337   2.080   3.755  1.1650  0.1585 -0.4724
  191SAPI  H17S22050   1.425   1.959   3.851 -0.4653  0.9557 -1.3599
  191SAPI  C21822051   1.273   2.079   3.952  1.2155 -0.1159 -0.2906
  191SAPI  H18R22052   1.248   2.006   4.031 -2.3451 -0.1046 -1.2506
  191SAPI  H18S22053   1.175   2.129   3.939  1.5386  0.1057 -2.2570
  191SAPI  C21922054   1.367   2.195   4.006 -0.0843 -0.7078 -0.2188
  191SAPI  H19R22055   1.401   2.257   3.921  0.4882  0.8992  1.1158
  191SAPI  H19S22056   1.448   2.150   4.067 -0.6244 -1.8686 -0.3293
  191SAPI  C22022057   1.302   2.299   4.096  0.0427  0.3847 -0.1877
  191SAPI  H20R22058   1.218   2.338   4.036  0.8002  1.6025 -0.4956
  191SAPI  H20S22059   1.373   2.379   4.127 -1.6069  1.2343  1.6465
  191SAPI  H20T22060   1.261   2.255   4.190  0.7773 -2.4202 -1.0988
  191SAPI   C3322061   0.148   1.520   2.540 -0.2480  0.5756 -1.1761
  191SAPI   H3X22062   0.141   1.413   2.511  2.8609 -0.1614  0.3400
  191SAPI   H3Y22063   0.047   1.546   2.579  0.5469  0.7137  0.8900
  191SAPI   C3422064   0.245   1.544   2.656 -0.3398 -0.8579  0.5853
  191SAPI   H4X22065   0.259   1.654   2.667  0.8512 -0.7853 -1.2971
  191SAPI   H4Y22066   0.345   1.506   2.627  1.1543  1.9417  1.6824
  191SAPI   C3522067   0.203   1.466   2.778  0.1783 -0.6978 -0.0645
  191SAPI   H5X22068   0.203   1.355   2.775  0.2066 -0.6723 -1.4823
  191SAPI   H5Y22069   0.098   1.488   2.805  0.5402 -0.4289  1.1702
  191SAPI   C3622070   0.283   1.515   2.901  0.1899  0.1300 -0.4404
  191SAPI   H6X22071   0.270   1.625   2.913 -1.7342 -0.0056 -0.9510
  191SAPI   H6Y22072   0.392   1.502   2.888  0.0548  0.6192 -2.3738
  191SAPI   C3722073   0.215   1.462   3.027 -0.2978  0.5069  0.5436
  191SAPI   H7X22074   0.221   1.351   3.033 -0.4660  0.5177  0.9485
  191SAPI   H7Y22075   0.114   1.508   3.023 -0.5450 -0.0636 -0.0138
  191SAPI   C3822076   0.297   1.515   3.154 -0.0617 -0.3458  0.1069
  191SAPI   H8X22077   0.289   1.625   3.161  0.5274 -0.3655  1.2744
  191SAPI   H8Y22078   0.400   1.476   3.142  0.7098  0.9247  2.0816
  191SAPI   C3922079   0.250   1.441   3.285  0.2310  0.0514  0.1743
  191SAPI   H9X22080   0.211   1.338   3.269 -1.7806  0.9548 -1.0679
  191SAPI   H9Y22081   0.161   1.499   3.315  0.4555  1.2213 -1.3452
  191SAPI  C31022082   0.357   1.433   3.390 -0.4817 -0.3392 -0.0785
  191SAPI  H10X22083   0.443   1.378   3.348 -0.2686  0.5669 -0.8529
  191SAPI  H10Y22084   0.317   1.376   3.477 -0.5935 -2.9953 -1.7662
  191SAPI  C31122085   0.407   1.571   3.440 -0.2498  0.1427  0.4874
  191SAPI  H11X22086   0.324   1.617   3.498 -1.3228 -0.9969 -0.0946
  191SAPI  H11Y22087   0.426   1.634   3.351  0.2275 -1.3718 -0.5166
  191SAPI  C31222088   0.539   1.575   3.528  0.3782 -0.4704 -0.2013
  191SAPI  H12X22089   0.635   1.587   3.474  1.7715  0.9263  2.3868
  191SAPI  H12Y22090   0.550   1.484   3.591 -0.5124 -0.4193  0.0404
  191SAPI  C31322091   0.536   1.693   3.621 -0.0608  0.6397  0.1457
  191SAPI  H13X22092   0.450   1.706   3.690  1.5596 -0.7442  2.5962
  191SAPI  H13Y22093   0.532   1.781   3.554  0.7777 -1.1650 -2.4782
  191SAPI  C31422094   0.659   1.698   3.721 -0.0728  0.6029  0.2075
  191SAPI  H14X22095   0.756   1.690   3.667 -0.9214 -0.2531 -1.2632
  191SAPI  H14Y22096   0.646   1.606   3.781  2.3035 -0.3534 -0.6398
  191SAPI  C31522097   0.659   1.827   3.803 -0.5312  0.1470 -0.0101
  191SAPI  H15X22098   0.574   1.829   3.875  0.6293 -1.6586  1.5051
  191SAPI  H15Y22099   0.661   1.914   3.735 -1.1298 -0.6679 -1.1236
  191SAPI  C31622100   0.783   1.827   3.890  0.7106 -0.3947  0.3040
  191SAPI  H16X22101   0.868   1.834   3.819  1.8994 -0.4731  1.6716
  191SAPI  H16Y22102   0.792   1.738   3.956 -1.2065 -1.3456 -0.6369
  191SAPI  C31722103   0.787   1.951   3.975  0.0154 -0.0448 -0.0360
  191SAPI  H17X22104   0.721   1.944   4.063 -0.8630  1.1049 -0.5897
  191SAPI  H17Y22105   0.765   2.044   3.919  2.2031 -0.9637 -2.6645
  191SAPI  C31822106   0.927   1.984   4.019  0.3933  0.7648 -0.3845
  191SAPI  H18X22107   0.930   2.092   4.048  0.9315  0.2396  1.6742
  191SAPI  H18Y22108   0.996   1.957   3.936 -0.3868 -1.9127 -0.2274
  191SAPI  H18Z22109   0.958   1.929   4.110  1.9486 -0.0844 -1.3934
  192SAPI   C1222110   3.290   1.178   2.067 -0.3106 -0.2268 -0.0352
  192SAPI    H222111   3.188   1.193   2.109 -0.8494 -1.7803 -0.7116
  192SAPI    O222112   3.263   1.131   1.936  0.2143 -0.2872 -0.1152
  192SAPI   HO222113   3.192   1.066   1.937 -0.0354 -0.1695 -2.6435
  192SAPI   C1322114   3.354   1.317   2.058  0.1318 -0.7126  0.0622
  192SAPI    H322115   3.354   1.359   2.161 -0.5262 -1.2400  0.2866
  192SAPI    O322116   3.281   1.408   1.982 -0.2485 -0.0616  0.1176
  192SAPI   HO322117   3.284   1.379   1.890  2.6603 -2.1990  0.7462
  192SAPI   C1422118   3.496   1.305   2.007  0.5107  0.1135  0.5787
  192SAPI    H422119   3.489   1.270   1.902 -0.3041 -0.2878  0.7659
  192SAPI    O422120   3.567   1.424   2.025 -0.0848  0.3113  0.2214
  192SAPI   HO422121   3.567   1.475   1.944 -0.4146  1.1759  0.7509
  192SAPI   C1522122   3.579   1.195   2.066  0.1973 -0.0930 -0.7383
  192SAPI    H522123   3.610   1.221   2.169 -0.8888 -1.4451 -0.0431
  192SAPI    O522124   3.699   1.182   1.989  0.2411 -0.8991  0.8946
  192SAPI   HO522125   3.763   1.129   2.036  2.6095 -0.2992 -1.4203
  192SAPI   C1622126   3.507   1.058   2.089  0.2921  0.6493  0.0648
  192SAPI    H622127   3.499   1.002   1.993  0.1481 -0.9137  0.9507
  192SAPI    O622128   3.581   0.977   2.177 -0.2813 -0.1344  1.2844
  192SAPI   HO622129   3.545   0.888   2.185  0.2145 -0.4556  0.0858
  192SAPI   C1122130   3.371   1.080   2.153  0.0861 -0.3753  0.3887
  192SAPI    H122131   3.382   1.132   2.250 -3.8249 -0.4635  1.0513
  192SAPI     P22132   3.279   0.886   2.304 -0.2050  0.1599 -0.2094
  192SAPI   O1322133   3.150   0.805   2.312  0.1808  0.0375 -0.1168
  192SAPI   O1422134   3.303   0.964   2.424  0.0633  0.6271 -0.2535
  192SAPI   O1222135   3.280   0.968   2.173 -0.1214 -0.1484  0.0365
  192SAPI   O1122136   3.396   0.785   2.272  0.1414  0.0436 -0.4058
  192SAPI    C122137   3.408   0.662   2.333  0.3825  0.3248 -0.1127
  192SAPI    HA22138   3.312   0.605   2.335  1.3750 -1.5624 -2.0741
  192SAPI    HB22139   3.477   0.597   2.276  0.9389 -0.4078  1.3309
  192SAPI    C222140   3.476   0.666   2.477 -0.4979  0.4046  0.1138
  192SAPI    HS22141   3.506   0.561   2.494  0.6965  0.7149 -0.0002
  192SAPI   O2122142   3.381   0.720   2.569 -0.4864  0.2721 -0.9574
  192SAPI   C2122143   3.288   0.642   2.607  0.0749  0.0464 -0.4066
  192SAPI   O2222144   3.265   0.530   2.571  0.1371 -0.3898 -0.4902
  192SAPI   C2222145   3.185   0.736   2.691 -0.1802 -0.0513 -0.5831
  192SAPI   H2R22146   3.257   0.793   2.754  0.8609 -0.3174 -1.4956
  192SAPI   H2S22147   3.143   0.806   2.617  1.8365  1.5169 -0.3330
  192SAPI    C322148   3.607   0.747   2.484  0.1162  0.5259  0.3901
  192SAPI    HX22149   3.588   0.850   2.446 -3.0303  0.5209  1.6200
  192SAPI    HY22150   3.666   0.701   2.403 -1.5345  0.5247 -0.8538
  192SAPI   O3122151   3.675   0.728   2.616  0.3556  0.1332 -0.0931
  192SAPI   C3122152   3.705   0.845   2.673 -0.2345  0.3018 -0.4099
  192SAPI   O3222153   3.691   0.953   2.622 -0.0021 -0.2903 -0.1767
  192SAPI   C3222154   3.758   0.815   2.809  0.0441  0.2965 -1.1348
  192SAPI   H2X22155   3.834   0.735   2.797  1.2826  0.7762  2.4300
  192SAPI   H2Y22156   3.665   0.779   2.858 -1.1258  3.0014 -1.1471
  192SAPI   C2322157   3.074   0.657   2.760  0.0086  0.4314  0.3693
  192SAPI   H3R22158   3.124   0.593   2.836  0.0274 -0.0854 -0.0761
  192SAPI   H3S22159   3.016   0.591   2.693 -2.8459  0.4814  2.6043
  192SAPI   C2422160   2.973   0.751   2.824  0.2454 -0.5413 -0.2094
  192SAPI   H4R22161   2.899   0.685   2.874 -1.8040  1.3904 -0.5571
  192SAPI   H4S22162   2.921   0.817   2.751  2.0772  2.4700  1.0443
  192SAPI   C2522163   3.028   0.847   2.919  0.0254 -0.4051 -0.3378
  192SAPI   H5R22164   3.072   0.936   2.870  1.6363 -0.3881  1.0573
  192SAPI   C2622165   3.024   0.849   3.054 -0.3287 -0.3146 -0.8049
  192SAPI   H6R22166   3.078   0.925   3.112  1.9996 -2.5995  0.2398
  192SAPI   C2722167   2.966   0.735   3.135 -0.6818 -0.4271 -0.0213
  192SAPI   H7R22168   3.049   0.694   3.197  0.3334  0.4745 -0.7477
  192SAPI   H7S22169   2.928   0.640   3.091  0.4485 -1.5558  1.3395
  192SAPI   C2822170   2.858   0.791   3.225  0.3130  0.0620  0.0282
  192SAPI   H8R22171   2.766   0.768   3.169  2.0143  1.5041 -3.6981
  192SAPI   C2922172   2.873   0.808   3.355 -0.2124  0.2513  0.0960
  192SAPI   H9R22173   2.786   0.848   3.410  0.4753  1.7672  0.1483
  192SAPI  C21022174   2.998   0.825   3.437  0.8208 -0.2302  0.2956
  192SAPI  H10R22175   2.974   0.916   3.495 -0.1942  0.6109 -1.3399
  192SAPI  H10S22176   3.092   0.818   3.378 -0.8144 -0.5121 -2.4694
  192SAPI  C21122177   3.000   0.716   3.536 -0.3397  1.5043 -0.1539
  192SAPI  H11R22178   2.899   0.681   3.562  0.2708  0.7643  1.3239
  192SAPI  C21222179   3.104   0.650   3.589 -0.5368 -0.1333  0.2391
  192SAPI  H12R22180   3.069   0.585   3.670 -0.6126  0.5012  0.7247
  192SAPI  C21322181   3.250   0.678   3.555  0.9025 -0.1753  0.5772
  192SAPI  H13R22182   3.278   0.768   3.614  0.7618  0.2131  0.0550
  192SAPI  H13S22183   3.265   0.722   3.454  2.0898 -0.6347  0.5419
  192SAPI  C21422184   3.348   0.562   3.591 -0.5758  0.3673 -0.2070
  192SAPI  H14R22185   3.335   0.495   3.677 -1.3790 -0.2834 -0.8179
  192SAPI  C21522186   3.459   0.529   3.509  0.2755  0.2183 -0.1131
  192SAPI  H15R22187   3.516   0.435   3.520 -0.8479 -0.3407  1.3963
  192SAPI  C21622188   3.486   0.607   3.384 -0.1652 -0.5892 -0.3300
  192SAPI  H16R22189   3.595   0.616   3.363  0.6312  0.3473  3.5256
  192SAPI  H16S22190   3.447   0.711   3.388  0.3733 -0.4295  1.9625
  192SAPI  C21722191   3.429   0.536   3.258  0.1998 -0.1026  0.1378
  192SAPI  H17R22192   3.319   0.536   3.272  0.2142  2.1513  0.5986
  192SAPI  H17S22193   3.474   0.435   3.264 -1.2297 -0.7510  5.6783
  192SAPI  C21822194   3.460   0.604   3.125  0.0019  0.2541  0.1325
  192SAPI  H18R22195   3.570   0.620   3.114  0.0414  0.1987  0.4497
  192SAPI  H18S22196   3.407   0.701   3.112 -0.8664 -0.3389 -0.9108
  192SAPI  C21922197   3.417   0.523   3.004  0.5641  0.1942  0.6719
  192SAPI  H19R22198   3.414   0.597   2.920 -0.2275 -1.4346 -0.7988
  192SAPI  H19S22199   3.310   0.498   3.020 -0.7729  4.6801  0.2281
  192SAPI  C22022200   3.493   0.401   2.954 -0.1353  0.0957  0.4534
  192SAPI  H20R22201   3.493   0.308   3.014  0.5767  1.1133  2.1188
  192SAPI  H20S22202   3.598   0.434   2.944 -0.1854 -0.2809 -1.8134
  192SAPI  H20T22203   3.448   0.373   2.857 -0.1352  1.1711  0.1251
  192SAPI   C3322204   3.809   0.935   2.894  0.8050  0.5430 -0.0424
  192SAPI   H3X22205   3.721   0.997   2.920  1.3905  0.6730  1.7317
  192SAPI   H3Y22206   3.881   0.994   2.833 -3.2543  3.1624 -2.8565
  192SAPI   C3422207   3.867   0.884   3.027  0.1641  0.0747  0.4677
  192SAPI   H4X22208   3.939   0.802   3.007 -1.5503 -1.1406 -1.0156
  192SAPI   H4Y22209   3.782   0.841   3.083  0.2446 -0.9939 -0.1984
  192SAPI   C3522210   3.934   0.991   3.109 -0.9238  0.2090  0.0143
  192SAPI   H5X22211   3.961   0.978   3.216 -0.9764 -0.3127 -0.0326
  192SAPI   H5Y22212   3.868   1.080   3.111 -1.8027 -0.4314  1.5204
  192SAPI   C3622213   4.067   1.038   3.044 -0.3548 -0.5986 -0.2300
  192SAPI   H6X22214   4.048   1.042   2.935  2.3112  0.7984 -0.7259
  192SAPI   H6Y22215   4.149   0.964   3.057 -0.0985 -0.0032  1.8709
  192SAPI   C3722216   4.123   1.167   3.102 -0.0262 -0.1478 -0.8196
  192SAPI   H7X22217   4.059   1.252   3.070 -0.0127  0.5319  0.8284
  192SAPI   H7Y22218   4.222   1.182   3.055  0.2212  2.5849  0.3458
  192SAPI   C3822219   4.129   1.157   3.256 -0.8880  0.7327 -1.0459
  192SAPI   H8X22220   4.187   1.068   3.286  0.8325  0.5761 -4.3595
  192SAPI   H8Y22221   4.024   1.143   3.291 -0.7815  1.5925 -0.3295
  192SAPI   C3922222   4.193   1.292   3.320  0.4823 -0.0335 -0.0648
  192SAPI   H9X22223   4.114   1.367   3.297 -2.0033 -2.4643 -0.0360
  192SAPI   H9Y22224   4.289   1.306   3.267  0.7528 -0.4397  0.3042
  192SAPI  C31022225   4.211   1.284   3.472 -0.1091 -0.8237 -0.2894
  192SAPI  H10X22226   4.293   1.213   3.498 -0.5676 -0.8772  1.0851
  192SAPI  H10Y22227   4.120   1.240   3.517  1.1328  0.9611  4.6432
  192SAPI  C31122228   4.232   1.422   3.548 -0.2977  0.3448  0.0739
  192SAPI  H11X22229   4.159   1.505   3.535 -0.1214  0.9863  2.6386
  192SAPI  H11Y22230   4.317   1.483   3.511 -1.0632  0.6237 -1.2953
  192SAPI  C31222231   4.252   1.399   3.696  0.4576  0.8222 -0.0616
  192SAPI  H12X22232   4.330   1.320   3.705  1.8551  2.3064  1.4778
  192SAPI  H12Y22233   4.151   1.364   3.728  0.2765 -0.3133 -1.7145
  192SAPI  C31322234   4.306   1.520   3.768 -0.3942  0.0189 -0.0686
  192SAPI  H13X22235   4.355   1.592   3.699 -2.7518  1.2473 -0.5390
  192SAPI  H13Y22236   4.372   1.491   3.853 -1.1819  3.0819  1.7328
  192SAPI  C31422237   4.193   1.596   3.840  0.0663 -0.2724  0.4717
  192SAPI  H14X22238   4.140   1.520   3.902  0.8220 -0.3478  1.0407
  192SAPI  H14Y22239   4.120   1.635   3.766  1.3978 -0.7139 -1.1051
  192SAPI  C31522240   4.235   1.710   3.926  0.3161 -0.2899  0.7938
  192SAPI  H15X22241   4.144   1.753   3.972 -0.9483 -1.1208 -0.8406
  192SAPI  H15Y22242   4.271   1.792   3.861 -1.5637  0.3001  0.4583
  192SAPI  C31622243   4.331   1.688   4.039  0.0506 -0.3527  0.1812
  192SAPI  H16X22244   4.435   1.677   4.003 -0.4910 -1.0272 -1.2602
  192SAPI  H16Y22245   4.298   1.592   4.084 -0.7739 -0.1121  0.1201
  192SAPI  C31722246   4.320   1.794   4.151  0.0346  0.5655 -0.1554
  192SAPI  H17X22247   4.344   1.741   4.246 -0.6068  0.6101  0.0329
  192SAPI  H17Y22248   4.215   1.830   4.158 -1.3776 -2.4242 -3.4779
  192SAPI  C31822249   4.423   1.908   4.144  0.3126 -0.4910  0.0609
  192SAPI  H18X22250   4.432   1.938   4.037 -1.2088 -1.4248 -0.3669
  192SAPI  H18Y22251   4.522   1.874   4.180  1.1213  0.0735 -1.5138
  192SAPI  H18Z22252   4.406   1.997   4.208 -1.0822 -0.8260  0.1981
  193SOD    SOD22253   6.110   0.417   1.575  0.0076 -0.3096 -0.1652
  194SOD    SOD22254   1.285   5.552   1.028  0.4718  0.0616 -0.4685
  195SOD    SOD22255   5.987   0.712   6.680  0.6099  0.1546  0.4310
  196SOD    SOD22256   1.154   2.204   2.364  0.0912  0.2600  0.1262
  197SOD    SOD22257   4.344   0.589   8.375  0.2262  0.3228  0.1041
  198SOD    SOD22258   2.412   6.165   1.284  0.3564 -0.4098 -0.1060
  199SOD    SOD22259   0.425   6.703   2.042  0.2745  0.2448  0.1303
  200SOD    SOD22260   2.582   5.291   8.286 -0.6043  0.3831  0.4223
  201SOD    SOD22261   0.277   5.721   2.153 -0.3230  0.7899  0.0440
  202SOD    SOD22262   5.380   1.905   1.918  0.3070  0.3349 -0.3247
  203SOD    SOD22263   2.624   5.756   0.786  0.1486 -0.0476 -0.2380
  204SOD    SOD22264   5.077   2.638   0.460  0.4745  0.6437 -0.1338
  205SOD    SOD22265   1.864   3.160   1.575 -0.1196 -0.6476  0.4943
  206SOD    SOD22266   0.915   1.627   0.172  0.2485 -0.4017 -0.1210
  207SOD    SOD22267   2.399   6.171   7.779  0.0485  0.0603 -0.7350
  208SOD    SOD22268   6.508   2.893   0.833 -0.3113  0.1930 -0.2770
  209SOD    SOD22269   5.428   6.853   0.612 -0.0803  0.3085 -0.0412
  210SOD    SOD22270   1.167   4.498   1.961 -0.2839  0.1785  0.3005
  211SOD    SOD22271   4.885   5.863   6.567  0.0125 -0.4697  0.6202
  212SOD    SOD22272   4.655   5.217   2.359  0.2684 -0.3018 -0.1696
  213SOD    SOD22273   0.756   5.717   0.665 -0.0200  0.0948 -0.1903
  214SOD    SOD22274   5.058   0.546   6.980  0.1867 -0.1978  0.3013
  215SOD    SOD22275   0.120   5.643   7.654 -0.2830  0.2634 -0.1412
  216SOD    SOD22276   4.778   1.883   7.025 -0.0212  0.1708 -0.1487
  217SOD    SOD22277   5.554   4.057   6.966  0.0410 -0.4212 -0.0486
  218SOD    SOD22278   3.323   4.804   8.504 -0.0216 -0.1850 -0.0757
  219SOD    SOD22279   3.403   5.923   6.977  0.1970  0.3323 -0.1199
  220SOD    SOD22280   1.837   5.872   8.684 -0.0310 -0.1197 -0.4167
  221SOD    SOD22281   3.409   1.553   7.354 -0.2103  0.2539 -0.1586
  222SOD    SOD22282   4.434   3.883   7.088  0.5047  0.1158 -0.4870
  223SOD    SOD22283   5.483   1.966   0.628  0.4605  0.1864  0.2886
  224SOD    SOD22284   3.142   2.176   8.441 -0.0217  0.6705  0.3967
  225SOD    SOD22285   5.062   0.846   2.312  0.3293 -0.0038 -0.0658
  226SOD    SOD22286   2.753   4.130   1.984 -0.4196  0.3882  0.4765
  227SOD    SOD22287   6.797   5.884   8.612  0.3404  0.0330  0.0627
  228SOD    SOD22288   0.224   3.220   1.575 -0.7403 -0.0359 -0.0905
  229SOD    SOD22289   4.071   5.521   6.840  0.1102  0.2778 -0.5483
  230SOD    SOD22290   1.953   1.921   0.991  0.3218 -0.0228 -0.3530
  231SOD    SOD22291   3.865   2.398   1.335 -0.0718 -0.1383  0.3240
  232SOD    SOD22292   3.347   3.116   7.456 -0.4632  0.0864  0.2989
  233SOD    SOD22293   1.941   3.375   7.021 -0.1793  0.1617  0.0879
  234CLA    CLA22294   3.986   5.736   0.650 -0.0096 -0.3136  0.0844
  235CLA    CLA22295   0.067   2.649   0.330 -0.3042  0.2664  0.2772
  236CLA    CLA22296   1.864   4.912   0.090  0.3848  0.4147  0.3066
  237CLA    CLA22297   2.861   6.140   0.932  0.0540  0.1732 -0.0160
  238CLA    CLA22298   5.829   3.123   0.151 -0.0435  0.3007 -0.0469
  239CLA    CLA22299   3.272   3.037   8.401  0.1491  0.4183 -0.3460
  240CLA    CLA22300   1.221   1.474   0.662  0.3961 -0.4206  0.0822
  241CLA    CLA22301   0.076   4.705   8.526  0.1699 -0.4481  0.3384
  242CLA    CLA22302   1.812   6.038   8.263  0.3233 -0.0158  0.5927
  243CLA    CLA22303   5.600   1.026   7.463  0.1940 -0.1626  0.0038
  244CLA    CLA22304   4.444   6.845   0.680 -0.1289  0.2273 -0.3179
  245CLA    CLA22305   2.366   0.907   0.835 -0.1909  0.6873 -0.4838
  246CLA    CLA22306   1.857   5.520   7.890 -0.2730  0.0552  0.1150
  247CLA    CLA22307   0.971   4.640   1.575 -0.6023  0.3631  0.3277
  248CLA    CLA22308   5.921   6.031   0.247 -0.3126 -0.2951  0.4648
  249CLA    CLA22309   4.100   1.884   1.459 -0.1223  0.0958  0.2939
  250CLA    CLA22310   4.593   1.030   0.379 -0.2268 -0.0406  0.5154
  251TIP3   OH222311   0.906   3.808   7.725  0.0913 -0.0982 -0.1191
  251TIP3    H122312   0.837   3.840   7.784 -0.2667  2.4841 -1.8053
  251TIP3    H222313   0.904   3.868   7.651  3.5244 -0.5102 -0.7010
  252TIP3   OH222314   6.481   5.571   8.622 -0.0694 -0.1643 -0.3255
  252TIP3    H122315   6.485   5.482   8.585 -2.7353 -0.9239  0.9286
  252TIP3    H222316   6.420   5.618   8.565 -0.2028  0.2380  0.1351
  253TIP3   OH222317   5.871   0.129   0.833  0.2015 -0.0741 -0.6270
  253TIP3    H122318   5.846   0.160   0.746 -2.4709  0.3852  0.2140
  253TIP3    H222319   5.849   0.036   0.832 -1.9126  0.3638  0.1677
  254TIP3   OH222320   3.494   3.328   1.132 -0.3108 -0.0697  0.5386
  254TIP3    H122321   3.426   3.294   1.073 -2.3603  2.4014  1.2565
  254TIP3    H222322   3.544   3.388   1.077  0.4357 -0.8518  0.3508
  255TIP3   OH222323   1.795   1.352   8.429  0.0708  0.4551  0.5580
  255TIP3    H122324   1.847   1.386   8.502  1.4235 -0.5599  0.1207
  255TIP3    H222325   1.735   1.423   8.408  1.7126  1.9744  0.6803
  256TIP3   OH222326   3.075   3.344   6.677  0.5110  0.1198 -0.2638
  256TIP3    H122327   3.016   3.273   6.650  0.9313 -0.2115 -0.3220
  256TIP3    H222328   3.016   3.417   6.698  0.1136 -0.0013 -0.9203
  257TIP3   OH222329   5.292   2.961   1.601 -0.1345  0.1651  0.8207
  257TIP3    H122330   5.369   2.910   1.625  0.4434  1.2054  1.2971
  257TIP3    H222331   5.314   3.051   1.628 -1.0003  0.7136 -0.2167
  258TIP3   OH222332   6.268   3.875   2.666 -0.1693 -0.0116 -0.9805
  258TIP3    H122333   6.333   3.922   2.613  0.6536  1.2766  1.0512
  258TIP3    H222334   6.304   3.787   2.676 -0.4286 -0.3430 -2.6424
  259TIP3   OH222335   2.798   1.869   1.942  0.1525 -0.2800  0.2987
  259TIP3    H122336   2.777   1.808   2.012  0.2326 -0.9060 -0.2096
  259TIP3    H222337   2.765   1.827   1.862  1.1766 -0.1821 -0.2073
  260TIP3   OH222338   4.595   0.031   1.163  0.6149 -0.4585 -0.3326
  260TIP3    H122339   4.602   0.074   1.248  0.5760  0.6655 -0.8780
  260TIP3    H222340   4.554   0.097   1.106 -1.3716 -1.9393 -0.7055
  261TIP3   OH222341   2.927   5.565   0.454 -0.2434 -0.5035 -0.0623
  261TIP3    H122342   3.000   5.619   0.482 -1.2421  0.6408  0.4228
  261TIP3    H222343   2.961   5.475   0.456  2.0724  0.1737 -2.8338
  262TIP3   OH222344   1.372   3.806   0.091 -0.0919  0.1264 -1.0716
  262TIP3    H122345   1.293   3.820   0.039  0.2036  0.6957 -1.3766
  262TIP3    H222346   1.435   3.769   0.030 -0.4009 -1.1856 -0.6133
  263TIP3   OH222347   3.188   6.214   8.018 -0.1660  0.3637 -0.3596
  263TIP3    H122348   3.226   6.302   8.015 -0.1028  0.3236 -1.0622
  263TIP3    H222349   3.123   6.213   7.948 -0.9922  0.2090  0.3953
  264TIP3   OH222350   2.224   0.660   6.527 -0.2584 -0.5623 -0.1427
  264TIP3    H122351   2.275   0.586   6.496 -0.4174 -1.0380  0.7062
  264TIP3    H222352   2.272   0.693   6.603 -0.1098  0.3051 -0.5941
  265TIP3   OH222353   6.576   5.163   7.658 -0.0603  0.1010 -0.4335
  265TIP3    H122354   6.612   5.216   7.730  0.5577 -0.4779 -0.3040
  265TIP3    H222355   6.503   5.116   7.698 -0.8106  1.0711 -0.6267
  266TIP3   OH222356   2.988   0.897   0.999 -0.7990  0.5850 -0.0588
  266TIP3    H122357   2.951   0.982   1.025  1.3971  0.9875  2.1669
  266TIP3    H222358   2.980   0.842   1.077 -2.7422 -1.5860 -1.6422
  267TIP3   OH222359   2.326   1.157   1.054  0.2735  0.1986  0.2508
  267TIP3    H122360   2.312   1.091   0.986  1.9369 -1.7906  1.6937
  267TIP3    H222361   2.244   1.205   1.058 -0.7989 -1.3692 -1.3291
  268TIP3   OH222362   2.409   2.549   0.325 -0.5007 -0.2541 -0.0220
  268TIP3    H122363   2.482   2.492   0.347 -0.7002 -0.2643  0.6390
  268TIP3    H222364   2.394   2.601   0.404  0.2587  1.3712 -0.8960
  269TIP3   OH222365   3.162   1.486   0.284 -0.1334 -0.6795 -1.0894
  269TIP3    H122366   3.144   1.574   0.250 -1.6290 -1.3613 -2.1626
  269TIP3    H222367   3.076   1.444   0.288 -0.0143 -0.8900  3.0761
  270TIP3   OH222368   5.000   2.388   7.567 -0.2992  0.0502  0.1120
  270TIP3    H122369   4.941   2.375   7.493  1.3275 -1.9262 -0.9465
  270TIP3    H222370   5.040   2.474   7.551  0.2943 -0.5091 -1.5363
  271TIP3   OH222371   2.173   1.086   1.434  0.2268 -0.3535 -0.0130
  271TIP3    H122372   2.166   1.023   1.505  0.9371  0.3207  0.6654
  271TIP3    H222373   2.084   1.118   1.422 -0.1327 -1.4143 -0.3181
  272TIP3   OH222374   1.652   0.524   0.081 -0.4453  0.2101  0.3509
  272TIP3    H122375   1.711   0.572   0.023  1.6365 -1.3717  1.0499
  272TIP3    H222376   1.709   0.487   0.148 -2.3392 -0.8754  1.4498
  273TIP3   OH222377   2.800   6.355   7.917  0.2938  0.4727 -0.0253
  273TIP3    H122378   2.808   6.265   7.950 -2.1128 -0.1319 -0.8216
  273TIP3    H222379   2.884   6.373   7.875  0.8287 -1.4247  0.1379
  274TIP3   OH222380   2.206   2.476   1.599 -0.4133  0.6438 -0.1039
  274TIP3    H122381   2.121   2.510   1.570 -1.1155 -0.5801  0.4274
  274TIP3    H222382   2.209   2.495   1.693  0.3760  1.6008 -0.3033
  275TIP3   OH222383   0.527   5.202   6.990 -0.3473  0.0991  0.2107
  275TIP3    H122384   0.523   5.293   6.961 -0.5444  0.4837  1.3610
  275TIP3    H222385   0.467   5.198   7.065  0.1353 -0.8221  0.5730
  276TIP3   OH222386   3.020   6.709   6.728 -0.0453  0.0972  0.1534
  276TIP3    H122387   3.062   6.789   6.760  0.2972  0.1252 -0.3434
  276TIP3    H222388   2.973   6.736   6.650 -2.9125  0.5371  1.8918
  277TIP3   OH222389   5.831   1.879   6.848  0.3500  0.0329  0.3474
  277TIP3    H122390   5.905   1.822   6.868  0.1823 -0.7748 -1.1744
  277TIP3    H222391   5.808   1.857   6.758 -0.3022  1.8935  0.0255
  278TIP3   OH222392   4.047   2.041   6.748 -0.7469  1.0814 -0.2520
  278TIP3    H122393   4.109   2.082   6.689 -0.8551  1.7555  0.0983
  278TIP3    H222394   3.964   2.084   6.731 -1.4866 -0.8289 -1.7654
  279TIP3   OH222395   1.762   6.312   0.827 -0.0800 -0.6172 -0.0193
  279TIP3    H122396   1.829   6.247   0.808  1.9763  0.9148  1.5529
  279TIP3    H222397   1.785   6.388   0.773  1.1524  0.8890  2.4565
  280TIP3   OH222398   4.117   4.153   1.232 -0.1983  0.0047 -0.0347
  280TIP3    H122399   4.033   4.146   1.187  0.6454 -1.9312 -1.4596
  280TIP3    H222400   4.099   4.123   1.321 -1.3644  1.4473  0.2551
  281TIP3   OH222401   2.038   2.235   1.542 -0.5915  0.2728  0.0309
  281TIP3    H122402   2.003   2.264   1.457 -0.1404 -1.2729 -0.7251
  281TIP3    H222403   2.132   2.249   1.535 -0.7239  1.6805  0.9294
  282TIP3   OH222404   4.074   2.928   1.075  0.2930 -0.3019 -0.1671
  282TIP3    H122405   4.055   3.022   1.083  1.0413 -0.2067  0.6057
  282TIP3    H222406   4.030   2.902   0.995  1.2407  1.0317 -1.1824
  283TIP3   OH222407   2.578   6.612   1.826 -0.0333 -0.2279 -0.7697
  283TIP3    H122408   2.636   6.570   1.763 -0.1424 -1.4522 -0.0811
  283TIP3    H222409   2.603   6.704   1.823 -1.1358  0.0823 -3.7711
  284TIP3   OH222410   5.341   1.823   6.680 -0.2250  0.1482  0.1363
  284TIP3    H122411   5.290   1.903   6.688  0.5999  0.5758  1.4963
  284TIP3    H222412   5.402   1.826   6.754  2.3798  0.1036 -1.8534
  285TIP3   OH222413   5.660   3.049   1.616  0.2000 -0.6531  0.4814
  285TIP3    H122414   5.755   3.063   1.618  0.1912 -0.6287  0.8323
  285TIP3    H222415   5.650   2.956   1.637  0.1117 -0.4957  1.1307
  286TIP3   OH222416   3.969   3.297   1.894 -0.1675  0.4369 -0.2622
  286TIP3    H122417   3.897   3.260   1.841 -0.6348  0.1249  0.5775
  286TIP3    H222418   4.045   3.243   1.872 -0.3641  0.2932 -0.5975
  287TIP3   OH222419   6.577   3.756   2.631 -0.4068 -0.4822  0.6178
  287TIP3    H122420   6.546   3.796   2.713  0.5211 -1.4456  1.4636
  287TIP3    H222421   6.591   3.664   2.654  1.1963 -0.4747 -0.2494
  288TIP3   OH222422   2.820   4.304   2.163  0.3597 -0.0342  0.3908
  288TIP3    H122423   2.839   4.390   2.124 -1.0266  0.7074  1.2396
  288TIP3    H222424   2.869   4.303   2.244  0.2721  0.0229  0.4451
  289TIP3   OH222425   4.585   6.788   6.657  0.0210 -0.1220 -0.2220
  289TIP3    H122426   4.495   6.820   6.650  0.2069  0.2400 -1.0936
  289TIP3    H222427   4.640   6.865   6.642  0.5821  0.4984  3.8565
  290TIP3   OH222428   4.469   6.563   0.528 -0.1914  0.1066  0.2163
  290TIP3    H122429   4.443   6.644   0.572 -0.4586 -0.3258  0.8707
  290TIP3    H222430   4.425   6.566   0.444  1.3991  1.5956 -0.6420
  291TIP3   OH222431   0.237   4.947   8.683  0.1309  0.0257 -0.4535
  291TIP3    H122432   0.159   4.992   8.714  0.6937  1.2804 -0.7855
  291TIP3    H222433   0.204   4.875   8.629 -0.7983 -0.1914  0.3793
  292TIP3   OH222434   0.501   4.293   6.910  0.0393  0.5374 -0.2665
  292TIP3    H122435   0.437   4.302   6.840 -0.8133  0.6729  0.5061
  292TIP3    H222436   0.452   4.252   6.982  0.8709  0.4667  0.2790
  293TIP3   OH222437   3.234   5.019   8.561 -0.2978  0.1262  0.0656
  293TIP3    H122438   3.249   5.060   8.646  1.4470  0.0740 -0.1759
  293TIP3    H222439   3.198   5.089   8.507  0.9899  0.9007  0.1557
  294TIP3   OH222440   1.191   5.752   0.407 -0.9128  0.1818 -0.3201
  294TIP3    H122441   1.267   5.729   0.462 -0.8808 -0.5606 -0.6566
  294TIP3    H222442   1.201   5.697   0.330 -1.6953  0.2244 -0.4527
  295TIP3   OH222443   0.222   6.618   6.654 -0.1761  0.1798 -0.3103
  295TIP3    H122444   0.271   6.553   6.704 -1.2981  0.4554  1.1936
  295TIP3    H222445   0.231   6.590   6.563  1.0568 -0.9086  0.1224
  296TIP3   OH222446   3.500   2.177   6.796  0.5098 -0.1815 -0.4103
  296TIP3    H122447   3.463   2.174   6.708 -0.4311 -2.2261  0.0004
  296TIP3    H222448   3.581   2.126   6.790  0.1273 -0.8668  0.0033
  297TIP3   OH222449   5.002   1.480   7.866 -0.2918  0.0703 -0.0752
  297TIP3    H122450   5.007   1.575   7.871 -2.0634  0.2005 -0.0703
  297TIP3    H222451   5.020   1.459   7.774 -0.6693  0.4765 -0.2419
  298TIP3   OH222452   2.019   0.838   8.219  0.2101  0.6514 -0.3848
  298TIP3    H122453   1.981   0.924   8.233  0.7391  0.5347  2.3257
  298TIP3    H222454   1.974   0.804   8.142 -2.3694  2.0475  0.3948
  299TIP3   OH222455   5.734   0.380   7.288  0.6827 -0.6437  0.1174
  299TIP3    H122456   5.671   0.311   7.270 -0.0684  0.0943 -0.1514
  299TIP3    H222457   5.743   0.428   7.206  0.5806  0.0631  0.5055
  300TIP3   OH222458   2.441   6.341   1.120 -0.6468  0.0317 -0.3349
  300TIP3    H122459   2.466   6.405   1.187  0.4020 -1.6651  0.9724
  300TIP3    H222460   2.514   6.342   1.058  1.1284 -2.3159  1.5534
  301TIP3   OH222461   3.936   0.996   6.418 -0.1188 -0.6509  0.6562
  301TIP3    H122462   3.901   1.084   6.406  2.9425  0.4777 -1.3732
  301TIP3    H222463   3.944   0.985   6.512  0.9166  1.9819  0.9434
  302TIP3   OH222464   0.991   6.691   1.254 -0.2242  0.8345  0.2870
  302TIP3    H122465   1.061   6.664   1.313 -0.6484  1.0141  0.8863
  302TIP3    H222466   0.997   6.630   1.180  0.1708  0.4655  0.6190
  303TIP3   OH222467   6.703   4.022   8.454 -0.2790 -0.0792 -0.2490
  303TIP3    H122468   6.762   4.030   8.379 -1.4122  0.9618 -1.0692
  303TIP3    H222469   6.684   3.928   8.458  1.6502 -0.4971  0.2505
  304TIP3   OH222470   5.832   5.194   7.306  0.2740 -0.1273  0.4480
  304TIP3    H122471   5.902   5.247   7.344  0.4570  0.3902 -0.5537
  304TIP3    H222472   5.753   5.245   7.320  0.2711 -0.1665  0.5703
  305TIP3   OH222473   0.443   3.725   0.680  0.3875  0.0703  0.4722
  305TIP3    H122474   0.522   3.758   0.637  0.3248  0.9182  0.9929
  305TIP3    H222475   0.415   3.796   0.737  0.0895 -0.7936  1.4268
  306TIP3   OH222476   0.151   5.448   0.282  0.0113 -0.0728 -0.1631
  306TIP3    H122477   0.135   5.376   0.343 -1.6624  1.3630  1.2168
  306TIP3    H222478   0.202   5.409   0.211  1.1654 -2.0512  1.6452
  307TIP3   OH222479   4.530   0.644   0.952  0.5671 -0.1827 -0.3187
  307TIP3    H122480   4.547   0.552   0.928  0.2501 -0.3195 -0.0210
  307TIP3    H222481   4.546   0.647   1.046  1.5518  0.2969 -0.4905
  308TIP3   OH222482   1.494   6.264   6.605 -0.0903 -0.3213  0.3744
  308TIP3    H122483   1.450   6.183   6.579 -0.6594 -0.1954  0.9234
  308TIP3    H222484   1.571   6.269   6.548  0.2709 -1.5443  0.7332
  309TIP3   OH222485   2.222   1.936   0.236  0.5092 -0.1517 -0.2805
  309TIP3    H122486   2.167   1.999   0.282  0.0327  0.4442 -1.6068
  309TIP3    H222487   2.169   1.857   0.228  0.5499 -0.2145  0.0895
  310TIP3   OH222488   2.141   2.231   7.708  0.1873  0.0108  0.5217
  310TIP3    H122489   2.134   2.138   7.732 -0.4066 -0.1329 -0.1826
  310TIP3    H222490   2.068   2.273   7.753  0.2629  0.0823  0.5775
  311TIP3   OH222491   5.944   3.835   7.748 -0.0984 -0.2758 -0.2778
  311TIP3    H122492   5.888   3.866   7.677  0.0109  2.7406  0.7896
  311TIP3    H222493   5.899   3.863   7.828 -0.4050 -3.8764  0.9653
  312TIP3   OH222494   6.419   6.730   0.450  0.4527 -0.3818 -0.1681
  312TIP3    H122495   6.420   6.638   0.475  0.3559 -0.1150  0.8744
  312TIP3    H222496   6.328   6.757   0.460  1.0477  0.9028  3.9376
  313TIP3   OH222497   3.867   2.716   0.238  0.0675 -0.5690 -0.5429
  313TIP3    H122498   3.805   2.693   0.169  1.0775  0.0573 -1.6740
  313TIP3    H222499   3.898   2.631   0.271  1.2843 -0.9120 -2.4261
  314TIP3   OH222500   3.986   6.446   8.031  0.5174 -0.1979 -0.7389
  314TIP3    H122501   3.941   6.436   7.947  0.2324 -2.0261 -0.4021
  314TIP3    H222502   3.946   6.523   8.070 -1.1180 -0.7613 -1.2037
  315TIP3   OH222503   3.428   5.585   7.293  0.2408  0.5011  0.2319
  315TIP3    H122504   3.337   5.555   7.299  0.6352 -0.5213  1.7353
  315TIP3    H222505   3.450   5.612   7.382  1.1383  1.6200 -0.3130
  316TIP3   OH222506   1.998   1.111   8.159  0.4078  0.4449 -0.1428
  316TIP3    H122507   2.013   1.205   8.144 -0.8224  0.7778  0.6026
  316TIP3    H222508   1.917   1.092   8.112  0.2121 -0.0509  0.3830
  317TIP3   OH222509   0.586   2.933   1.650  0.1941 -0.4944  0.3475
  317TIP3    H122510   0.530   2.882   1.592 -0.3118 -0.9209  1.2007
  317TIP3    H222511   0.652   2.971   1.592 -0.0726 -1.2251 -0.4489
  318TIP3   OH222512   4.731   0.143   0.858 -0.0027  0.5687  0.1211
  318TIP3    H122513   4.723   0.238   0.849  1.7312  0.6265 -1.4494
  318TIP3    H222514   4.647   0.109   0.825 -0.6214  1.5254  0.6438
  319TIP3   OH222515   5.132   6.814   7.554  0.0493  0.0495 -0.2494
  319TIP3    H122516   5.120   6.904   7.524  1.8182  0.1142 -0.8722
  319TIP3    H222517   5.226   6.798   7.547 -0.1538 -1.6842  0.3507
  320TIP3   OH222518   6.375   4.495   8.357 -0.7872 -0.0602  0.0403
  320TIP3    H122519   6.416   4.520   8.274 -2.1641 -0.0860 -0.6628
  320TIP3    H222520   6.361   4.401   8.349  0.2259 -0.3016  0.8420
  321TIP3   OH222521   3.581   2.498   0.944  0.1802  0.2648  0.2138
  321TIP3    H122522   3.554   2.561   0.877 -2.5617 -2.1585 -1.1918
  321TIP3    H222523   3.507   2.497   1.006  1.0014 -0.2744  1.2225
  322TIP3   OH222524   5.134   2.537   0.665  0.4137 -0.4436  0.1460
  322TIP3    H122525   5.093   2.450   0.664 -2.4386  0.7910  0.9222
  322TIP3    H222526   5.215   2.525   0.715 -1.4149 -2.0734  2.9541
  323TIP3   OH222527   1.418   4.298   2.270  0.3384  0.6985  0.1408
  323TIP3    H122528   1.372   4.215   2.256  0.7188  0.7455 -1.6327
  323TIP3    H222529   1.353   4.356   2.308  0.1053 -0.4409  1.5478
  324TIP3   OH222530   1.658   3.642   0.508 -0.5549  0.3980 -0.1393
  324TIP3    H122531   1.612   3.725   0.498 -1.3175  0.2475  1.6036
  324TIP3    H222532   1.620   3.585   0.442 -2.5035  0.4747  0.8274
  325TIP3   OH222533   0.981   2.818   1.294  0.3879 -0.3643  0.2578
  325TIP3    H122534   1.038   2.741   1.288  3.2202  1.6114 -0.1462
  325TIP3    H222535   0.908   2.789   1.349  1.5427 -3.1856  0.5080
  326TIP3   OH222536   0.635   2.068   1.418 -0.0056  0.5168 -0.0790
  326TIP3    H122537   0.658   2.157   1.440 -0.0937  1.1486 -2.2428
  326TIP3    H222538   0.676   2.014   1.485 -0.8944  2.2100  1.9303
  327TIP3   OH222539   2.447   1.832   8.458  0.1616  0.4638 -0.3741
  327TIP3    H122540   2.474   1.766   8.394 -0.2298  0.0937 -0.1551
  327TIP3    H222541   2.440   1.785   8.540  0.2434  0.8559 -0.1405
  328TIP3   OH222542   1.248   5.656   2.064  0.2976  0.4456  0.3460
  328TIP3    H122543   1.229   5.680   1.974  0.8563  1.3744  0.4647
  328TIP3    H222544   1.342   5.633   2.063  0.6526  1.7965  0.9483
  329TIP3   OH222545   4.002   5.356   7.341  0.7584 -0.3592 -0.1616
  329TIP3    H122546   4.026   5.279   7.393  0.0102 -0.4647  0.0470
  329TIP3    H222547   3.906   5.357   7.344  0.6691  2.8896  3.3137
  330TIP3   OH222548   5.750   5.560   7.726 -0.2162 -0.1105 -0.1685
  330TIP3    H122549   5.723   5.587   7.639  0.3030  0.8563 -0.0456
  330TIP3    H222550   5.748   5.640   7.778 -0.5262 -0.6765  0.7164
  331TIP3   OH222551   3.027   3.309   0.726  0.3762  0.4027  0.1981
  331TIP3    H122552   3.082   3.231   0.738  2.0333  1.1909 -1.6936
  331TIP3    H222553   3.058   3.371   0.792  0.5067  0.1956  0.3311
  332TIP3   OH222554   0.829   6.022   0.075  0.0255  0.3273 -0.0004
  332TIP3    H122555   0.917   6.053   0.054  0.0737 -0.6868 -1.4721
  332TIP3    H222556   0.844   5.944   0.129 -0.0279  0.9991  1.0140
  333TIP3   OH222557   2.872   4.560   1.215 -0.1862  0.0269 -0.0489
  333TIP3    H122558   2.965   4.538   1.215  0.1781  1.4751 -0.0616
  333TIP3    H222559   2.869   4.655   1.207 -1.6707  0.0328  0.1585
  334TIP3   OH222560   3.367   6.082   7.841 -0.3186  0.3926  0.4607
  334TIP3    H122561   3.281   6.122   7.855 -0.1936  0.2619  1.6686
  334TIP3    H222562   3.421   6.152   7.806 -1.2238  0.1692 -1.5387
  335TIP3   OH222563   6.721   5.988   0.268 -0.4245  0.2259  0.1743
  335TIP3    H122564   6.662   6.055   0.234 -0.2785  2.0316  3.0968
  335TIP3    H222565   6.698   5.982   0.361  1.9380 -1.2726  0.7366
  336TIP3   OH222566   0.227   1.547   1.566  0.1532 -0.1347  0.3955
  336TIP3    H122567   0.194   1.477   1.622 -1.8806 -0.3701 -1.0179
  336TIP3    H222568   0.260   1.502   1.488  1.2341  0.3354  0.5531
  337TIP3   OH222569   5.732   6.843   7.369  0.3228 -0.6832 -0.1973
  337TIP3    H122570   5.675   6.788   7.423  0.1918  0.3779  0.7883
  337TIP3    H222571   5.683   6.923   7.356  0.6933 -0.6157 -1.2433
  338TIP3   OH222572   5.303   1.614   8.498  0.3249 -0.2749  0.0651
  338TIP3    H122573   5.271   1.683   8.441 -1.4330  1.2172  2.6603
  338TIP3    H222574   5.394   1.637   8.516  0.5814 -0.2017 -1.2453
  339TIP3   OH222575   4.016   3.846   6.458 -0.1369 -0.0925  0.1050
  339TIP3    H122576   4.107   3.818   6.451 -0.4165 -1.2038  0.6659
  339TIP3    H222577   3.967   3.785   6.403 -0.7818 -0.8272  1.4510
  340TIP3   OH222578   1.249   1.306   0.943  0.3397  0.3129  0.0760
  340TIP3    H122579   1.210   1.220   0.925  2.5825 -0.7456 -0.1454
  340TIP3    H222580   1.227   1.359   0.867  1.7519 -1.1802 -1.4679
  341TIP3   OH222581   5.850   5.056   8.085 -0.0029 -0.1364 -0.1998
  341TIP3    H122582   5.883   5.108   8.011 -0.2210  0.6078  0.2179
  341TIP3    H222583   5.847   4.967   8.051 -2.0088  0.4474 -1.7759
  342TIP3   OH222584   5.302   4.352   7.673  0.2758  0.2884 -0.5115
  342TIP3    H122585   5.330   4.441   7.693 -1.6488  0.8542 -0.2104
  342TIP3    H222586   5.305   4.305   7.756 -0.3317  0.5422 -0.3441
  343TIP3   OH222587   3.632   6.264   6.589 -0.4968  0.5510 -0.2379
  343TIP3    H122588   3.577   6.187   6.575 -1.9173  1.7623 -1.7097
  343TIP3    H222589   3.719   6.229   6.606 -1.4388 -1.4000  0.7775
  344TIP3   OH222590   0.149   4.873   8.242  0.3003 -0.1338 -0.0946
  344TIP3    H122591   0.101   4.836   8.316  0.6202 -0.9271 -0.2733
  344TIP3    H222592   0.084   4.882   8.172  0.3303 -0.8892 -0.2269
  345TIP3   OH222593   3.669   2.407   1.458 -0.5969  0.8539 -0.4385
  345TIP3    H122594   3.640   2.428   1.547  0.5202 -0.8930  0.3885
  345TIP3    H222595   3.624   2.325   1.437  0.9576 -0.0474 -0.4769
  346TIP3   OH222596   5.542   4.245   7.797  0.1587 -0.3167 -0.1938
  346TIP3    H122597   5.531   4.257   7.702  1.3464  0.3293 -0.2676
  346TIP3    H222598   5.464   4.196   7.824 -1.7089  1.9929 -1.0240
  347TIP3   OH222599   5.634   3.026   6.940 -0.0818 -0.0636 -0.2179
  347TIP3    H122600   5.574   3.049   6.868  0.5892  2.3780 -0.1033
  347TIP3    H222601   5.721   3.039   6.902  0.2868  0.5442  0.8086
  348TIP3   OH222602   0.903   2.684   7.305  0.9640  0.2606 -0.2875
  348TIP3    H122603   0.909   2.780   7.295  1.6343  0.2732  0.1612
  348TIP3    H222604   0.994   2.656   7.311  0.8004 -0.4907 -1.0839
  349TIP3   OH222605   5.834   5.145   8.520  0.2027  0.1523 -0.0500
  349TIP3    H122606   5.897   5.154   8.448  0.5168 -0.3913  0.1512
  349TIP3    H222607   5.786   5.065   8.499  0.4762 -0.1567  0.4743
  350TIP3   OH222608   5.022   0.244   7.395 -0.3546  0.2461  0.2474
  350TIP3    H122609   4.951   0.195   7.353 -1.3594 -0.1538  2.3017
  350TIP3    H222610   4.977   0.313   7.444  0.7500  0.5951  0.7981
  351TIP3   OH222611   0.011   2.518   7.362  0.7942 -0.8275  0.3186
  351TIP3    H122612   0.061   2.570   7.299  1.2376 -0.6981  0.7713
  351TIP3    H222613   0.049   2.431   7.356 -0.3152 -1.2610 -0.8413
  352TIP3   OH222614   4.480   1.625   1.920  0.1678  0.0111 -0.7019
  352TIP3    H122615   4.513   1.541   1.951  0.4040 -0.1029 -1.2415
  352TIP3    H222616   4.409   1.647   1.979  2.3527  1.1473  1.7227
  353TIP3   OH222617   4.938   2.221   8.056  0.1760 -0.1025 -0.3075
  353TIP3    H122618   4.914   2.279   7.984 -0.9478 -0.0816  0.0626
  353TIP3    H222619   4.999   2.158   8.018  0.1613  0.3498 -1.0921
  354TIP3   OH222620   4.684   3.431   0.230  0.2048  0.1045 -0.3902
  354TIP3    H122621   4.687   3.496   0.160  1.8633  0.8107  0.2999
  354TIP3    H222622   4.598   3.444   0.270  0.4897  1.8785 -0.2787
  355TIP3   OH222623   5.992   6.586   1.971  0.3894  0.1383  0.1152
  355TIP3    H122624   5.991   6.592   2.067 -1.0141  1.3439  0.0650
  355TIP3    H222625   6.014   6.674   1.942  0.9387 -0.2566 -0.6944
  356TIP3   OH222626   3.689   4.636   0.642  0.3256  0.0799  0.1527
  356TIP3    H122627   3.616   4.697   0.634 -0.6995 -0.4763  3.6992
  356TIP3    H222628   3.750   4.680   0.701  0.9921 -1.0890  0.3674
  357TIP3   OH222629   6.497   6.351   7.172  0.2801  0.0269  0.6094
  357TIP3    H122630   6.542   6.297   7.107 -2.6106  0.3769 -1.9310
  357TIP3    H222631   6.511   6.441   7.142 -0.4885  0.2357  0.8432
  358TIP3   OH222632   4.650   1.942   0.863 -0.2759 -0.2059  0.1844
  358TIP3    H122633   4.707   1.905   0.931 -2.1913 -1.3094  1.2603
  358TIP3    H222634   4.708   1.952   0.787  1.5106 -0.6189  1.4177
  359TIP3   OH222635   1.224   2.483   8.541  0.2236 -0.4059  0.1347
  359TIP3    H122636   1.143   2.432   8.539 -1.3317  1.6599  3.0964
  359TIP3    H222637   1.200   2.565   8.586  3.0461  2.0703 -2.4035
  360TIP3   OH222638   5.224   4.310   2.724 -0.1404 -0.3039 -0.3109
  360TIP3    H122639   5.206   4.221   2.755  0.0698 -0.4733 -0.6628
  360TIP3    H222640   5.139   4.354   2.727 -0.3283 -0.6439 -0.5343
  361TIP3   OH222641   6.735   2.256   0.527  0.0072  0.4437  0.0503
  361TIP3    H122642   6.816   2.253   0.577 -0.1879  0.0328  0.3519
  361TIP3    H222643   6.738   2.176   0.473 -1.1536 -0.7102  1.6001
  362TIP3   OH222644   4.495   5.240   2.074  0.1837 -0.0762  0.1285
  362TIP3    H122645   4.540   5.212   1.995  2.4757  0.8579  1.0027
  362TIP3    H222646   4.512   5.170   2.138 -0.7798 -0.3506  0.0910
  363TIP3   OH222647   0.614   0.537   7.792  0.4507 -0.2686 -0.3615
  363TIP3    H122648   0.549   0.485   7.838  1.9825 -0.6531  1.5141
  363TIP3    H222649   0.589   0.628   7.809  0.0335 -0.4074 -0.2324
  364TIP3   OH222650   4.735   4.916   8.139 -0.2737 -0.1392  0.0593
  364TIP3    H122651   4.691   4.952   8.062  0.8669  4.5095  1.2622
  364TIP3    H222652   4.828   4.919   8.116 -0.0175 -0.4073  1.0160
  365TIP3   OH222653   2.600   0.175   8.353  0.2660  0.4400  0.0517
  365TIP3    H122654   2.511   0.173   8.389  0.4032 -0.1389  0.3683
  365TIP3    H222655   2.637   0.090   8.377  0.4976  0.1997 -1.1150
  366TIP3   OH222656   3.398   3.294   7.330 -0.2925 -0.4768 -0.3662
  366TIP3    H122657   3.475   3.345   7.304 -0.9877  0.1995 -1.1752
  366TIP3    H222658   3.359   3.265   7.247 -0.5124 -1.4206  0.0560
  367TIP3   OH222659   3.027   6.241   1.448  0.1506  0.2963 -0.5359
  367TIP3    H122660   3.021   6.219   1.355 -1.7775  0.4021 -0.4718
  367TIP3    H222661   3.107   6.197   1.478  0.5393 -0.1395 -2.1191
  368TIP3   OH222662   5.134   3.135   7.350 -0.1064  0.4494 -0.4951
  368TIP3    H122663   5.070   3.182   7.403 -0.2394 -0.5777  0.2982
  368TIP3    H222664   5.088   3.055   7.322 -0.2357  1.2158 -2.6682
  369TIP3   OH222665   1.582   4.157   1.259  0.0551 -0.9973  0.0363
  369TIP3    H122666   1.499   4.113   1.273 -0.0157 -0.9862 -0.3307
  369TIP3    H222667   1.638   4.126   1.330 -1.3347  1.8078  2.5868
  370TIP3   OH222668   1.310   3.730   1.220  0.1681  0.0731 -0.4686
  370TIP3    H122669   1.398   3.694   1.207  0.8666  1.9809 -1.2780
  370TIP3    H222670   1.281   3.757   1.133 -1.0138  0.0054 -0.1210
  371TIP3   OH222671   1.911   5.187   8.373  0.0550 -0.1725 -0.5158
  371TIP3    H122672   1.990   5.239   8.358 -0.7233  1.4870  0.8152
  371TIP3    H222673   1.878   5.217   8.457 -0.8619 -2.3457 -0.0346
  372TIP3   OH222674   2.481   1.325   1.455 -0.0592 -0.2104 -0.2084
  372TIP3    H122675   2.537   1.353   1.383 -0.7608 -2.3733 -1.6721
  372TIP3    H222676   2.392   1.334   1.421 -0.3436 -3.5830 -0.6217
  373TIP3   OH222677   4.040   6.142   7.899 -0.2790  0.2703  0.8309
  373TIP3    H122678   4.038   6.202   7.825 -1.0059 -0.4952  0.2137
  373TIP3    H222679   4.096   6.185   7.964  1.5663  0.2948 -0.7015
  374TIP3   OH222680   1.188   0.424   1.578 -0.5121  0.4333 -0.3149
  374TIP3    H122681   1.114   0.478   1.552 -0.6739 -0.3057 -1.4252
  374TIP3    H222682   1.213   0.458   1.664 -1.1140  1.7351 -0.6335
  375TIP3   OH222683   2.771   0.805   0.705 -0.0886 -0.3023  0.8554
  375TIP3    H122684   2.858   0.842   0.718 -0.1139  0.5560 -1.0552
  375TIP3    H222685   2.729   0.811   0.790  1.4987 -0.1662  1.6640
  376TIP3   OH222686   5.186   5.476   7.363 -0.0321 -0.5911 -0.2364
  376TIP3    H122687   5.245   5.538   7.320  0.9436 -1.7343 -0.6075
  376TIP3    H222688   5.171   5.513   7.450  0.8233 -0.0274 -0.3205
  377TIP3   OH222689   2.062   5.907   0.702 -0.0652  0.0735 -0.3117
  377TIP3    H122690   1.992   5.955   0.658  1.0606  1.5603 -0.6028
  377TIP3    H222691   2.058   5.936   0.793  1.4283  1.8631 -0.7393
  378TIP3   OH222692   3.197   3.886   0.756  0.7532  0.4450  0.3458
  378TIP3    H122693   3.226   3.961   0.704  0.2681  1.3551  1.3468
  378TIP3    H222694   3.239   3.811   0.715  0.7557  1.1804 -1.0700
  379TIP3   OH222695   0.314   5.672   0.334 -0.5838  0.5901 -0.0258
  379TIP3    H122696   0.281   5.762   0.341 -1.6243  0.4590 -2.3990
  379TIP3    H222697   0.237   5.619   0.317 -0.3883 -1.2712  3.8670
  380TIP3   OH222698   6.044   0.210   7.161  0.1558 -0.2630  0.6425
  380TIP3    H122699   6.004   0.135   7.118  1.4298  0.2454 -1.5678
  380TIP3    H222700   5.997   0.217   7.244 -1.4584 -2.1731 -0.0170
  381TIP3   OH222701   5.365   3.466   1.124  0.6358 -0.0732  0.5789
  381TIP3    H122702   5.392   3.420   1.045 -0.3183  0.6850 -0.2096
  381TIP3    H222703   5.424   3.433   1.192  0.8061 -1.4948 -0.2231
  382TIP3   OH222704   4.722   4.373   0.853 -0.0733 -0.1164  0.1911
  382TIP3    H122705   4.764   4.450   0.890 -0.3573  1.2696 -2.1149
  382TIP3    H222706   4.635   4.371   0.893 -0.6379  1.7457 -0.7990
  383TIP3   OH222707   4.795   6.865   1.440  0.0787  0.2300  0.4066
  383TIP3    H122708   4.809   6.877   1.346 -1.5432 -0.9462 -0.0203
  383TIP3    H222709   4.719   6.918   1.460  1.1601  1.4742  1.3489
  384TIP3   OH222710   4.096   1.241   0.609 -0.3750  0.0459  0.2951
  384TIP3    H122711   4.109   1.289   0.692 -0.2379 -0.5201  0.6046
  384TIP3    H222712   4.184   1.213   0.585 -0.5560 -0.7366  0.5310
  385TIP3   OH222713   0.170   4.256   1.924 -0.1030  0.3335  0.1012
  385TIP3    H122714   0.128   4.235   2.007  0.2834  0.1380  0.2472
  385TIP3    H222715   0.097   4.270   1.863 -0.3792 -0.2092  0.3030
  386TIP3   OH222716   3.692   3.400   1.882 -0.0720  0.1510 -0.0838
  386TIP3    H122717   3.708   3.479   1.934 -1.5053 -0.0885  0.8007
  386TIP3    H222718   3.741   3.413   1.801  0.3450  1.5900  0.3733
  387TIP3   OH222719   6.374   3.848   7.548  0.3360 -0.3406  0.4277
  387TIP3    H122720   6.444   3.792   7.514  0.7346  0.2042  0.3374
  387TIP3    H222721   6.312   3.787   7.589 -0.5455 -1.1031 -1.8771
  388TIP3   OH222722   1.232   4.676   0.577 -0.4793  0.3193 -0.1847
  388TIP3    H122723   1.324   4.649   0.575 -0.3626  0.6620  0.2267
  388TIP3    H222724   1.232   4.753   0.634 -1.4754 -1.5432  2.5347
  389TIP3   OH222725   4.052   3.295   0.680 -0.3833 -0.5315 -0.3511
  389TIP3    H122726   4.103   3.246   0.744  0.1172 -0.4931 -0.7175
  389TIP3    H222727   4.109   3.303   0.604 -1.2691 -1.3207 -1.1375
  390TIP3   OH222728   5.285   4.871   8.030  0.1861  0.0267  0.2625
  390TIP3    H122729   5.239   4.838   7.953 -0.7564 -0.2567  0.9228
  390TIP3    H222730   5.377   4.854   8.012  0.1892  1.6325 -1.5939
  391TIP3   OH222731   4.753   4.188   8.630 -0.5957 -0.4524 -0.1522
  391TIP3    H122732   4.734   4.279   8.653  1.2288 -0.1896  0.5029
  391TIP3    H222733   4.689   4.137   8.679 -2.0601  0.4870 -1.0291
  392TIP3   OH222734   1.153   2.374   6.401  0.0229  0.3966  0.2074
  392TIP3    H122735   1.199   2.316   6.462  0.7387  1.8898  1.1447
  392TIP3    H222736   1.181   2.344   6.315  0.5230 -0.5228  0.6706
  393TIP3   OH222737   5.884   1.109   7.322  0.2263 -0.1429 -0.3307
  393TIP3    H122738   5.883   1.053   7.245  1.0359 -1.3028  0.4694
  393TIP3    H222739   5.803   1.089   7.368 -0.1804  0.4343 -0.7695
  394TIP3   OH222740   4.638   5.371   7.134 -0.5552 -0.0924  0.1694
  394TIP3    H122741   4.598   5.392   7.218  1.1202  1.6125  0.5911
  394TIP3    H222742   4.662   5.455   7.096  2.2905 -0.9514 -0.1908
  395TIP3   OH222743   6.284   0.180   7.852 -0.4980 -0.1624 -0.0917
  395TIP3    H122744   6.377   0.164   7.869 -0.2564 -1.4808 -2.2758
  395TIP3    H222745   6.265   0.261   7.901  2.2506  1.2003 -1.0227
  396TIP3   OH222746   3.042   2.084   7.383 -0.5751  0.1049  0.2777
  396TIP3    H122747   3.079   2.019   7.323 -0.6781  0.3587 -0.0566
  396TIP3    H222748   3.098   2.078   7.461 -0.2286  0.0219  0.0266
  397TIP3   OH222749   3.062   1.391   1.670 -0.4646  0.3973  0.3274
  397TIP3    H122750   3.010   1.464   1.705 -2.8213 -1.4387  0.9232
  397TIP3    H222751   3.017   1.367   1.590  0.2806 -0.4333  0.1502
  398TIP3   OH222752   4.236   3.448   7.785 -0.0919 -0.1010 -0.0633
  398TIP3    H122753   4.302   3.392   7.744 -0.5923 -0.9668  0.2749
  398TIP3    H222754   4.199   3.394   7.855  1.2789  1.5724  2.1023
  399TIP3   OH222755   6.426   2.643   7.790 -0.0686 -0.4600 -0.4051
  399TIP3    H122756   6.412   2.706   7.720 -0.8481 -0.5673 -0.3595
  399TIP3    H222757   6.346   2.590   7.791  0.9861 -2.1178 -1.1136
  400TIP3   OH222758   3.313   3.023   2.061  0.3581  0.0245 -0.2587
  400TIP3    H122759   3.401   3.003   2.092 -0.3739 -0.3273  1.7395
  400TIP3    H222760   3.297   3.113   2.089 -0.5319 -0.4877  0.9631
  401TIP3   OH222761   1.716   2.517   1.426  0.3525  0.2518  0.7365
  401TIP3    H122762   1.723   2.482   1.337 -1.2931 -0.6266  0.9175
  401TIP3    H222763   1.635   2.480   1.461  0.6634  1.0303  2.4158
  402TIP3   OH222764   6.507   4.171   8.249  0.1890 -0.7732 -0.2164
  402TIP3    H122765   6.509   4.075   8.247 -1.6920 -0.8635 -2.6168
  402TIP3    H222766   6.416   4.192   8.271  0.6149  0.4856  0.4172
  403TIP3   OH222767   1.219   2.663   2.459 -0.1105  0.5297  0.1801
  403TIP3    H122768   1.140   2.714   2.438  0.1627  1.0621  0.4221
  403TIP3    H222769   1.292   2.718   2.429  0.1525 -0.3465 -0.8454
  404TIP3   OH222770   4.578   3.170   7.205 -0.3482 -0.6470  0.0481
  404TIP3    H122771   4.600   3.263   7.204 -1.4111 -0.3894 -0.6060
  404TIP3    H222772   4.491   3.166   7.244 -0.7388 -1.2607 -0.8549
  405TIP3   OH222773   0.322   0.373   7.091 -0.6328 -0.0650 -0.1405
  405TIP3    H122774   0.285   0.291   7.060 -0.2654 -0.4971  0.5669
  405TIP3    H222775   0.246   0.429   7.107 -0.9106 -0.4890  0.0206
  406TIP3   OH222776   6.477   5.104   7.941 -0.2737 -0.1534  0.1081
  406TIP3    H122777   6.545   5.161   7.976  1.5437 -1.3983 -1.2388
  406TIP3    H222778   6.494   5.019   7.980 -0.0862 -0.8402 -1.4009
  407TIP3   OH222779   1.043   5.400   1.897  0.4268  0.1517 -0.5521
  407TIP3    H122780   1.108   5.339   1.931  0.3274 -0.8481 -2.0501
  407TIP3    H222781   0.961   5.374   1.940  0.7397  0.4735  0.2452
  408TIP3   OH222782   4.279   3.732   7.836 -0.0693 -0.3366  0.0204
  408TIP3    H122783   4.258   3.640   7.851  0.2970 -0.1988  1.4719
  408TIP3    H222784   4.375   3.733   7.828 -0.0428 -0.0385  0.3751
  409TIP3   OH222785   0.080   1.512   8.020 -0.2840 -0.1525  0.3051
  409TIP3    H122786  -0.004   1.553   8.041  0.3116  1.1077  0.2598
  409TIP3    H222787   0.090   1.444   8.087 -2.4018 -1.9132 -1.0272
  410TIP3   OH222788   5.180   4.924   1.674  0.4142  0.4875 -0.3762
  410TIP3    H122789   5.146   4.976   1.602  1.4710  0.9261 -0.5834
  410TIP3    H222790   5.157   4.834   1.652  0.5587  0.6407 -1.1766
  411TIP3   OH222791   4.664   0.871   8.202  0.2848 -0.3054  0.1102
  411TIP3    H122792   4.689   0.936   8.137 -0.4907  0.7382  0.8324
  411TIP3    H222793   4.741   0.814   8.209  0.4712 -0.2760 -1.4997
  412TIP3   OH222794   5.477   3.006   0.632 -0.4543  0.2049 -0.1620
  412TIP3    H122795   5.458   3.084   0.580  0.9635  0.7788  0.1293
  412TIP3    H222796   5.391   2.973   0.659 -1.1101  1.1439 -1.0297
  413TIP3   OH222797   5.951   4.735   8.598 -0.7047  0.1128 -0.4080
  413TIP3    H122798   5.977   4.644   8.613  2.2544  0.6533 -1.5369
  413TIP3    H222799   5.919   4.765   8.683  0.3798 -1.3440  0.5755
  414TIP3   OH222800   6.185   3.737   1.453  0.4709  0.1265  0.1315
  414TIP3    H122801   6.259   3.789   1.485  0.9899 -1.4491  1.6369
  414TIP3    H222802   6.220   3.648   1.443 -0.8223 -0.3193 -0.6926
  415TIP3   OH222803   5.731   4.608   0.393  0.0659 -0.0382 -0.3957
  415TIP3    H122804   5.668   4.661   0.443 -2.0606  0.8268 -3.6839
  415TIP3    H222805   5.687   4.524   0.380  0.5777 -0.2480 -0.7951
  416TIP3   OH222806   4.161   2.182   1.321 -0.2108 -0.5526 -0.5329
  416TIP3    H122807   4.120   2.116   1.376  0.0919 -0.9020 -0.7232
  416TIP3    H222808   4.118   2.172   1.236 -0.4983 -0.1845 -0.4345
  417TIP3   OH222809   4.367   1.972   6.455 -0.3734 -0.0690  0.2369
  417TIP3    H122810   4.293   2.018   6.416 -0.0067  0.7802  0.5113
  417TIP3    H222811   4.443   2.002   6.405  0.0599  0.8072  1.3766
  418TIP3   OH222812   6.199   1.465   0.989 -0.2145  0.1700  0.3056
  418TIP3    H122813   6.123   1.464   1.047 -0.6267  1.1833 -0.1919
  418TIP3    H222814   6.245   1.546   1.012  0.0474  0.1795 -0.2389
  419TIP3   OH222815   3.587   3.690   0.973  0.2993 -0.3414  0.8822
  419TIP3    H122816   3.632   3.744   0.908  0.3080 -1.0834  0.2630
  419TIP3    H222817   3.624   3.603   0.963 -1.3804 -1.0150  0.2303
  420TIP3   OH222818   6.325   6.676   1.235  0.0308 -0.1505  0.9195
  420TIP3    H122819   6.358   6.617   1.167 -0.3173  0.2604  0.3906
  420TIP3    H222820   6.308   6.618   1.310  4.8659 -0.0793  2.4273
  421TIP3   OH222821   1.598   4.305   7.677  0.4523  0.6630 -0.4637
  421TIP3    H122822   1.528   4.347   7.627  0.8418  0.8227 -0.8838
  421TIP3    H222823   1.652   4.377   7.709 -0.8106  0.6961  1.7817
  422TIP3   OH222824   2.501   5.528   8.216 -0.1472 -0.2794 -0.0089
  422TIP3    H122825   2.455   5.519   8.133  0.0411 -0.3949 -0.1026
  422TIP3    H222826   2.439   5.572   8.273 -0.1512  0.1236 -0.3174
  423TIP3   OH222827   1.418   4.082   6.532  0.1718  0.7598 -0.1205
  423TIP3    H122828   1.339   4.114   6.576 -0.0164  0.9143 -0.5588
  423TIP3    H222829   1.416   4.125   6.446  0.7778  0.8252 -0.1049
  424TIP3   OH222830   2.772   4.268   6.372 -0.4491 -0.3942 -0.9621
  424TIP3    H122831   2.698   4.329   6.374 -0.2983 -0.1556  1.6710
  424TIP3    H222832   2.844   4.318   6.334 -1.2805 -0.2299 -2.4052
  425TIP3   OH222833   1.902   0.244   0.726 -0.1075  0.0105 -0.2024
  425TIP3    H122834   1.808   0.230   0.738 -0.2049 -0.5800 -1.5391
  425TIP3    H222835   1.909   0.312   0.660  0.4127  0.3844  0.2273
  426TIP3   OH222836   0.185   2.274   0.904  0.4605 -0.3327  1.4491
  426TIP3    H122837   0.255   2.263   0.969 -0.2956  0.4277  2.4281
  426TIP3    H222838   0.213   2.350   0.853 -0.3797  0.9924  2.8811
  427TIP3   OH222839   3.925   2.202   1.767 -0.3446  0.5939  0.1307
  427TIP3    H122840   3.958   2.113   1.771  0.1637  0.5713 -2.5336
  427TIP3    H222841   3.852   2.198   1.705  0.0560  2.1091 -0.4801
  428TIP3   OH222842   6.770   1.946   1.848 -0.1094 -0.2100  0.0511
  428TIP3    H122843   6.828   1.873   1.827 -0.8785 -0.4757 -1.2496
  428TIP3    H222844   6.691   1.905   1.884 -0.4694 -0.0084 -0.5089
  429TIP3   OH222845   5.224   1.170   7.204 -0.0961  0.4446  0.7855
  429TIP3    H122846   5.318   1.155   7.201  0.4165  3.2489 -1.3624
  429TIP3    H222847   5.196   1.164   7.113 -2.2915 -1.4488  1.4837
  430TIP3   OH222848   6.495   5.056   1.040  0.0318 -0.3573  0.6633
  430TIP3    H122849   6.478   4.985   0.979  0.6407 -0.9557  1.1739
  430TIP3    H222850   6.492   5.015   1.127  1.2620  0.0428  0.9148
  431TIP3   OH222851   6.450   0.965   6.986 -0.6699  0.2009  0.5927
  431TIP3    H122852   6.467   0.918   7.067 -0.2139 -1.2323 -0.2956
  431TIP3    H222853   6.373   1.018   7.004 -0.4348  0.0928  2.0228
  432TIP3   OH222854   0.170   5.854   1.150  0.4602  0.1492  0.2358
  432TIP3    H122855   0.212   5.796   1.215 -0.3834  0.5660  1.1854
  432TIP3    H222856   0.126   5.794   1.090  1.6068 -0.2590 -0.2160
  433TIP3   OH222857   1.074   5.701   7.204 -0.5205 -0.1014  0.0369
  433TIP3    H122858   1.138   5.743   7.262  0.2354  1.4891 -1.8303
  433TIP3    H222859   1.123   5.630   7.163 -0.7679 -0.5837  0.5520
  434TIP3   OH222860   3.640   4.319   2.054  0.0552  0.2176 -0.3678
  434TIP3    H122861   3.561   4.373   2.057  0.5472  0.9475 -0.0885
  434TIP3    H222862   3.645   4.278   2.140 -0.3050 -0.2564 -0.5708
  435TIP3   OH222863   0.345   3.446   8.117 -0.5161 -0.2577 -0.6548
  435TIP3    H122864   0.350   3.355   8.147 -0.0997  0.0310  0.2100
  435TIP3    H222865   0.259   3.455   8.077 -0.4137 -1.1282 -1.0825
  436TIP3   OH222866   3.212   1.070   7.260 -0.2341  0.5160 -0.1189
  436TIP3    H122867   3.249   1.095   7.344  2.3544  0.9206 -1.2742
  436TIP3    H222868   3.187   1.153   7.219 -0.2359  0.4459 -0.2624
  437TIP3   OH222869   5.698   5.834   7.230  0.4065 -0.1997  0.2759
  437TIP3    H122870   5.631   5.830   7.162  2.4078 -0.1669 -1.8297
  437TIP3    H222871   5.697   5.925   7.260 -0.7026 -0.2899  0.5434
  438TIP3   OH222872   2.342   1.461   2.007  0.4826  0.2305 -0.2285
  438TIP3    H122873   2.320   1.547   2.041  1.2577  0.6558 -0.7823
  438TIP3    H222874   2.309   1.400   2.073  2.2349  1.0441  1.4789
  439TIP3   OH222875   4.993   5.423   1.272  0.2256 -0.2676 -0.1677
  439TIP3    H122876   5.024   5.376   1.195 -0.9693  1.7038 -1.9445
  439TIP3    H222877   5.057   5.493   1.285 -0.6824  0.6804 -0.6886
  440TIP3   OH222878   6.178   0.703   6.946  0.2309 -0.3572 -0.1851
  440TIP3    H122879   6.161   0.783   6.996 -2.0875 -0.1043 -1.2429
  440TIP3    H222880   6.253   0.724   6.891 -0.2596  1.0468 -0.3379
  441TIP3   OH222881   3.767   1.109   2.370  0.1478  0.2303 -0.2569
  441TIP3    H122882   3.691   1.104   2.428 -0.0440  0.5788 -0.4761
  441TIP3    H222883   3.744   1.052   2.296 -0.1138  0.7271 -0.5630
  442TIP3   OH222884   4.852   2.889   1.093 -0.0207 -0.0803  0.1713
  442TIP3    H122885   4.805   2.971   1.074  0.2755 -0.2173 -1.3381
  442TIP3    H222886   4.799   2.846   1.160 -0.8687  0.7814  0.0795
  443TIP3   OH222887   3.637   6.264   7.156  0.4288 -0.1871  0.0309
  443TIP3    H122888   3.637   6.172   7.181  0.4358 -0.4190 -0.7863
  443TIP3    H222889   3.630   6.263   7.060  0.5595  0.6577  0.0015
  444TIP3   OH222890   4.445   4.965   1.643  0.3045  0.2494  0.1204
  444TIP3    H122891   4.447   4.874   1.612 -1.2274  0.1671  0.1874
  444TIP3    H222892   4.398   5.013   1.575  1.3153  1.0577 -0.0276
  445TIP3   OH222893   5.020   3.544   8.601  0.3714  0.3007 -0.3703
  445TIP3    H122894   5.026   3.615   8.664 -1.8246 -1.5056  2.0936
  445TIP3    H222895   4.930   3.549   8.568 -0.4410 -2.2755  1.1982
  446TIP3   OH222896   2.204   4.250   1.314 -0.2660  0.3334 -0.0791
  446TIP3    H122897   2.141   4.218   1.379  0.4728 -1.2190 -0.0883
  446TIP3    H222898   2.270   4.181   1.307 -0.1892  0.5508 -2.3311
  447TIP3   OH222899   0.653   0.729   6.541  0.3982  0.0827 -0.2200
  447TIP3    H122900   0.674   0.784   6.465  2.6748  0.7811  0.8103
  447TIP3    H222901   0.738   0.693   6.567 -0.0824  0.8080  2.6730
  448TIP3   OH222902   4.297   2.074   8.099  0.4350  0.8979 -0.2163
  448TIP3    H122903   4.356   2.000   8.113 -1.7703 -1.1831 -1.1896
  448TIP3    H222904   4.287   2.114   8.186  0.8567 -0.6154  0.5536
  449TIP3   OH222905   0.026   5.530   6.762 -0.5928 -0.5361 -0.0950
  449TIP3    H122906  -0.065   5.511   6.740 -0.6173  0.4039 -0.8506
  449TIP3    H222907   0.074   5.513   6.681 -0.5335  1.8853 -0.6488
  450TIP3   OH222908   1.259   4.864   1.035  0.2392 -0.4782 -0.0215
  450TIP3    H122909   1.339   4.829   1.074  0.5111 -1.5336 -1.4586
  450TIP3    H222910   1.275   4.861   0.941 -1.1318  0.2151 -0.2987
  451TIP3   OH222911   2.825   2.120   1.198  0.2404  0.0247  0.3767
  451TIP3    H122912   2.740   2.118   1.155  0.5455 -0.3302 -0.2406
  451TIP3    H222913   2.875   2.187   1.149  0.5916 -0.3824  0.1683
  452TIP3   OH222914   5.647   5.387   7.300  0.4570 -0.1863  0.5981
  452TIP3    H122915   5.554   5.383   7.277  0.9397  1.7166 -2.1862
  452TIP3    H222916   5.653   5.453   7.368 -0.2654 -0.8250  1.3052
  453TIP3   OH222917   5.496   6.232   0.196  0.0591  0.3122 -0.5419
  453TIP3    H122918   5.508   6.142   0.227 -2.7083  0.3131  0.7997
  453TIP3    H222919   5.426   6.226   0.131 -2.1080  1.7263  1.4891
  454TIP3   OH222920   3.644   1.558   7.291 -0.2473  0.0558  0.6084
  454TIP3    H122921   3.672   1.493   7.227 -0.0220  2.4062 -1.8790
  454TIP3    H222922   3.722   1.574   7.344  0.3049 -0.2419 -0.0955
  455TIP3   OH222923   3.804   4.188   1.286 -0.0040  0.2154  1.1707
  455TIP3    H122924   3.752   4.205   1.365 -0.5481  1.3448  0.6021
  455TIP3    H222925   3.842   4.273   1.264  0.1440 -0.0817  0.2325
  456TIP3   OH222926   3.484   4.620   1.857 -0.8462 -0.0072  0.3868
  456TIP3    H122927   3.501   4.691   1.919  1.6618 -0.3497  0.1915
  456TIP3    H222928   3.451   4.548   1.911 -3.2559  1.1447  0.6104
  457TIP3   OH222929   5.618   4.394   1.626 -0.3697 -0.9034  0.1053
  457TIP3    H122930   5.688   4.451   1.659 -1.5145  1.2341 -1.0160
  457TIP3    H222931   5.657   4.349   1.552  0.0442 -0.2793 -0.0621
  458TIP3   OH222932   3.373   4.952   7.181  0.0707 -0.0461 -0.1823
  458TIP3    H122933   3.348   4.916   7.096  1.1946 -0.8593 -0.1980
  458TIP3    H222934   3.327   4.897   7.245 -0.2745  0.1677 -0.2398
  459TIP3   OH222935   2.935   0.585   8.224  0.0694  0.2984 -0.2820
  459TIP3    H122936   3.014   0.560   8.176 -0.5009 -0.4055 -0.8789
  459TIP3    H222937   2.868   0.526   8.191 -0.4234  0.0582  1.1203
  460TIP3   OH222938   4.502   2.164   6.045 -0.2981 -0.5149 -0.0274
  460TIP3    H122939   4.479   2.168   6.137 -0.7596 -0.3291 -0.1487
  460TIP3    H222940   4.598   2.156   6.044 -0.2510 -0.0366  0.4497
  461TIP3   OH222941   4.530   3.110   8.363  0.5179 -0.0767 -0.8959
  461TIP3    H122942   4.517   3.165   8.285  3.8441  0.6837 -1.0385
  461TIP3    H222943   4.546   3.172   8.434 -2.6494 -0.7532  0.6146
  462TIP3   OH222944   1.413   2.606   6.465 -0.3348 -0.3823  0.8804
  462TIP3    H122945   1.410   2.675   6.399  0.5744 -2.7138 -1.8039
  462TIP3    H222946   1.322   2.581   6.478 -0.6625  1.1279  1.7710
  463TIP3   OH222947   0.399   5.219   2.466  0.0707 -0.2060 -0.2998
  463TIP3    H122948   0.410   5.225   2.372 -0.1846 -0.5544 -0.3535
  463TIP3    H222949   0.313   5.257   2.483  0.0833 -0.2129 -0.2160
  464TIP3   OH222950   6.691   4.426   2.688  0.5949  0.2943 -0.2656
  464TIP3    H122951   6.645   4.359   2.638  0.4590  0.6095 -0.5654
  464TIP3    H222952   6.625   4.463   2.746  0.3147  1.1689 -1.1286
  465TIP3   OH222953   1.243   3.045   0.799 -0.2174 -0.2677 -0.2228
  465TIP3    H122954   1.223   2.953   0.785  0.7594 -0.5937  0.3864
  465TIP3    H222955   1.166   3.081   0.842 -0.3861 -0.9329  0.0334
  466TIP3   OH222956   3.861   5.761   8.059 -0.2343 -0.2072  0.2291
  466TIP3    H122957   3.847   5.672   8.026 -1.5463  0.6483 -1.7784
  466TIP3    H222958   3.918   5.750   8.135 -0.8838 -2.8107  0.4564
  467TIP3   OH222959   0.859   1.388   7.380 -0.3056 -0.2449 -0.0073
  467TIP3    H122960   0.862   1.428   7.293  0.6432 -0.1932  0.0358
  467TIP3    H222961   0.776   1.339   7.381  0.1012 -1.0300 -1.3018
  468TIP3   OH222962   6.392   4.661   7.521  0.0428 -0.6020 -0.0277
  468TIP3    H122963   6.355   4.576   7.543  1.8758 -1.5908 -0.5364
  468TIP3    H222964   6.372   4.672   7.428  0.5181 -0.8854 -0.1687
  469TIP3   OH222965   1.719   4.934   8.033 -0.4884  0.1838 -0.0790
  469TIP3    H122966   1.777   4.982   8.093 -0.3688  1.5508 -1.2409
  469TIP3    H222967   1.767   4.854   8.012  0.2520  0.5287  0.2634
  470TIP3   OH222968   5.173   4.684   1.566  0.3879 -0.0696  0.4435
  470TIP3    H122969   5.266   4.708   1.572  0.5350 -0.7735  1.0995
  470TIP3    H222970   5.172   4.589   1.574 -0.3334 -0.1379 -0.3901
  471TIP3   OH222971   2.279   4.463   0.413  0.0210  0.0058  0.2615
  471TIP3    H122972   2.319   4.539   0.372  0.5773 -1.0710 -1.3072
  471TIP3    H222973   2.190   4.460   0.377  1.0924 -2.0211 -2.5950
  472TIP3   OH222974   5.169   4.226   6.971  0.0415  0.0374  0.7454
  472TIP3    H122975   5.185   4.206   6.879 -1.0800  1.4513  0.2053
  472TIP3    H222976   5.175   4.141   7.015  3.2479 -0.3240 -0.1692
  473TIP3   OH222977   5.781   5.582   1.670 -0.0970 -0.6427  0.0640
  473TIP3    H122978   5.873   5.588   1.645 -0.7522 -0.5399 -2.7106
  473TIP3    H222979   5.738   5.649   1.617 -1.8775 -1.2677  0.6630
  474TIP3   OH222980   3.858   5.387   7.639 -0.6176 -0.2426 -0.1255
  474TIP3    H122981   3.877   5.360   7.728 -1.9452  0.4616  0.4071
  474TIP3    H222982   3.833   5.307   7.594  1.6880 -0.8904 -0.3777
  475TIP3   OH222983   6.116   5.473   7.989 -0.0664 -0.0411  0.3463
  475TIP3    H122984   6.137   5.449   8.080 -0.4327  0.4584  0.5684
  475TIP3    H222985   6.109   5.569   7.991 -0.8871 -0.0815 -0.0273
  476TIP3   OH222986   5.303   2.871   1.282  0.6315  0.0619 -0.9861
  476TIP3    H122987   5.306   2.790   1.231  3.4940 -0.5817  0.0217
  476TIP3    H222988   5.381   2.868   1.337 -0.7637  2.0996  1.3363
  477TIP3   OH222989   5.878   2.791   1.372  0.6687 -0.1243 -0.1327
  477TIP3    H122990   5.864   2.806   1.278  0.0265 -1.0241 -0.1903
  477TIP3    H222991   5.935   2.715   1.376  0.7148 -0.0711  0.2078
  478TIP3   OH222992   6.685   1.543   0.847 -0.2566  0.1881  0.1525
  478TIP3    H122993   6.775   1.535   0.817  0.0640 -0.8880  1.3181
  478TIP3    H222994   6.632   1.502   0.778  0.0043  1.8078 -1.0653
  479TIP3   OH222995   1.464   2.437   7.144  0.5390 -0.1633  0.7341
  479TIP3    H122996   1.448   2.445   7.238  0.1699 -0.2741  0.6854
  479TIP3    H222997   1.404   2.368   7.116  1.1588 -0.6315  0.5411
  480TIP3   OH222998   5.700   6.497   2.515 -0.2211  0.1970 -0.0839
  480TIP3    H122999   5.629   6.434   2.525  1.4156 -1.5978  0.7118
  480TIP3    H223000   5.726   6.518   2.605  0.4800  0.5809 -0.3699
  481TIP3   OH223001   3.068   5.395   7.768  0.3867  0.5511 -0.2404
  481TIP3    H123002   3.016   5.315   7.780  0.6522  0.7049  2.6084
  481TIP3    H223003   3.008   5.457   7.727  0.0657 -0.9351 -2.1780
  482TIP3   OH223004   5.537   5.081   0.444 -0.0520 -0.5243  0.0480
  482TIP3    H123005   5.485   5.018   0.395  0.8492  0.1300 -1.8657
  482TIP3    H223006   5.505   5.166   0.415  0.2885 -0.1124  0.8612
  483TIP3   OH223007   4.530   3.327   7.680 -0.2968 -0.0948  0.1178
  483TIP3    H123008   4.503   3.397   7.620 -0.2659  0.1348  0.3716
  483TIP3    H223009   4.555   3.255   7.622  0.3432  0.3500 -0.1690
  484TIP3   OH223010   0.865   5.276   0.760 -0.2016  0.0498  0.3362
  484TIP3    H123011   0.933   5.339   0.784  0.3217  0.2257 -1.4474
  484TIP3    H223012   0.912   5.207   0.714 -1.2655  0.5768 -1.6555
  485TIP3   OH223013   4.242   6.537   2.236  0.3409 -0.1793  0.3134
  485TIP3    H123014   4.211   6.541   2.145  0.3789  0.7463  0.3370
  485TIP3    H223015   4.246   6.628   2.264  1.3383 -0.4009  0.9092
  486TIP3   OH223016   1.873   3.607   2.483 -0.4774 -0.7636 -0.9201
  486TIP3    H123017   1.800   3.654   2.523  2.5442  2.7663  1.2055
  486TIP3    H223018   1.878   3.642   2.394 -1.8481 -1.7030 -1.3793
  487TIP3   OH223019   6.521   4.900   1.273 -0.0963 -0.2055 -0.3683
  487TIP3    H123020   6.564   4.952   1.340 -0.9675  0.8286 -0.5827
  487TIP3    H223021   6.510   4.814   1.312  1.6500 -0.3401 -0.1135
  488TIP3   OH223022   5.760   1.182   0.363  0.2751  0.3006  0.4836
  488TIP3    H123023   5.734   1.111   0.304 -0.0222  0.6835  0.1459
  488TIP3    H223024   5.722   1.261   0.323  3.8310  1.2999 -1.3880
  489TIP3   OH223025   1.379   1.164   0.237  0.2867 -0.0223  0.3853
  489TIP3    H123026   1.435   1.141   0.163  1.4193  0.5990  1.0178
  489TIP3    H223027   1.440   1.181   0.309 -0.7283  0.4581  1.1597
  490TIP3   OH223028   0.494   5.115   7.963  0.2955 -0.2463 -0.2034
  490TIP3    H123029   0.564   5.159   8.011  1.0728  1.4510 -2.7026
  490TIP3    H223030   0.486   5.029   8.005  1.9591  0.5305  1.8804
  491TIP3   OH223031   1.087   4.926   8.479  0.2565 -0.4998  0.6545
  491TIP3    H123032   1.148   4.997   8.500  0.2405 -0.7663  1.6339
  491TIP3    H223033   1.098   4.912   8.385  0.1843  0.8696  0.4222
  492TIP3   OH223034   1.505   5.403   6.443  0.4449 -0.1903 -0.2026
  492TIP3    H123035   1.478   5.492   6.420 -1.7625 -1.2816 -2.2967
  492TIP3    H223036   1.498   5.354   6.361  3.1459 -2.0015  0.5143
  493TIP3   OH223037   6.390   0.894   0.916 -0.7442  0.0935  0.0163
  493TIP3    H123038   6.389   0.963   0.849 -0.0379 -0.6350 -0.7654
  493TIP3    H223039   6.358   0.816   0.871  1.5942 -0.8899 -0.0655
  494TIP3   OH223040   2.530   6.432   6.649 -0.3344  0.1294  0.4316
  494TIP3    H123041   2.621   6.413   6.626 -0.6169  0.0305 -0.6926
  494TIP3    H223042   2.494   6.348   6.676  0.2020  0.3806  2.0528
  495TIP3   OH223043   2.502   4.719   0.966 -0.5519 -0.1568 -0.0682
  495TIP3    H123044   2.570   4.653   0.983 -1.2456 -0.7633  0.4389
  495TIP3    H223045   2.517   4.786   1.033 -0.3454 -0.2004 -0.0701
  496TIP3   OH223046   5.397   0.332   6.816  0.1037 -0.3182  0.4924
  496TIP3    H123047   5.485   0.366   6.796 -0.0771  0.3216  0.7433
  496TIP3    H223048   5.397   0.243   6.781  0.0014  0.5342 -1.8716
  497TIP3   OH223049   3.469   1.210   0.936 -0.0919 -0.4281 -0.6810
  497TIP3    H123050   3.378   1.181   0.943 -0.4392  0.8272  0.3803
  497TIP3    H223051   3.515   1.163   1.005  0.1802 -1.4352 -1.5351
  498TIP3   OH223052   4.175   3.837   7.114  0.9152  0.2632 -0.5873
  498TIP3    H123053   4.149   3.753   7.152 -0.1132  0.2612 -1.2435
  498TIP3    H223054   4.206   3.889   7.188 -1.4734  0.4268  0.4120
  499TIP3   OH223055   4.314   2.745   7.073  0.1344  0.6376 -0.5417
  499TIP3    H123056   4.256   2.818   7.055 -1.6866 -0.2338  1.3454
  499TIP3    H223057   4.292   2.680   7.007 -1.7390 -0.0009  0.6302
  500TIP3   OH223058   2.281   1.220   7.933 -0.0163  0.3068  0.9214
  500TIP3    H123059   2.207   1.226   7.993 -1.3523  0.3648 -0.6513
  500TIP3    H223060   2.262   1.284   7.865  1.8908  0.8680  0.8626
  501TIP3   OH223061   1.566   1.090   7.276 -0.2278 -0.3379 -0.2430
  501TIP3    H123062   1.580   0.996   7.289  0.5380 -0.2561 -0.4108
  501TIP3    H223063   1.483   1.095   7.229 -1.0461 -0.8357  1.1210
  502TIP3   OH223064   5.654   4.229   0.607  0.3447 -0.6436 -0.3602
  502TIP3    H123065   5.630   4.274   0.688  1.0957 -2.1791  0.7858
  502TIP3    H223066   5.724   4.169   0.633  0.7731 -1.0236 -2.2109
  503TIP3   OH223067   0.681   5.900   2.170  0.1774 -0.0487 -0.5092
  503TIP3    H123068   0.665   5.880   2.078 -1.0290  0.1709 -0.3659
  503TIP3    H223069   0.735   5.828   2.201 -0.0929 -0.5525 -1.1886
  504TIP3   OH223070   0.253   6.591   8.279 -0.0511  0.5085  0.2526
  504TIP3    H123071   0.306   6.605   8.357 -0.4233  0.2913  0.5547
  504TIP3    H223072   0.179   6.651   8.289 -0.0696  0.5225  0.0384
  505TIP3   OH223073   1.680   4.381   7.364  0.0394 -0.4017 -0.0808
  505TIP3    H123074   1.643   4.366   7.451 -1.5201 -0.9632 -0.7898
  505TIP3    H223075   1.632   4.457   7.331 -0.3389 -1.0039 -0.9483
  506TIP3   OH223076   1.428   3.778   2.291 -0.0604  0.1058  0.0542
  506TIP3    H123077   1.366   3.756   2.360 -0.3053  1.0495  0.1451
  506TIP3    H223078   1.507   3.728   2.313 -0.3584 -0.1163  0.6350
  507TIP3   OH223079   2.366   4.548   1.930 -0.4312 -0.3647 -0.0006
  507TIP3    H123080   2.336   4.561   1.840  0.8577  0.2047 -0.3715
  507TIP3    H223081   2.430   4.617   1.944  1.7381 -2.2933  0.2529
  508TIP3   OH223082   6.468   2.517   1.728  0.2032  0.0186 -0.1052
  508TIP3    H123083   6.411   2.441   1.743 -0.2791  0.2816 -0.5507
  508TIP3    H223084   6.488   2.550   1.816  0.3778 -0.5888  0.0911
  509TIP3   OH223085   6.648   2.710   0.469  0.0162 -0.5857  0.0202
  509TIP3    H123086   6.737   2.729   0.440  0.3399 -1.4165  0.4306
  509TIP3    H223087   6.649   2.616   0.488 -1.1890 -0.7991 -0.8382
  510TIP3   OH223088   0.340   6.136   0.538 -0.3070 -0.0147  0.0219
  510TIP3    H123089   0.423   6.153   0.581  0.1249 -2.2029  0.1766
  510TIP3    H223090   0.333   6.041   0.535 -3.2536  0.0617  0.8702
  511TIP3   OH223091   1.727   3.778   6.744  0.1497  0.2243 -0.7503
  511TIP3    H123092   1.784   3.853   6.762 -1.9597  1.4052  1.6947
  511TIP3    H223093   1.757   3.711   6.805 -1.3111  1.0792  1.0342
  512TIP3   OH223094   3.059   2.638   7.053 -0.1433 -0.2978  0.2390
  512TIP3    H123095   3.014   2.713   7.015  1.7062 -0.0048 -1.5616
  512TIP3    H223096   3.000   2.606   7.121 -1.3708  2.2576  0.4968
  513TIP3   OH223097   6.778   2.617   6.845  0.1785  0.6992  0.3173
  513TIP3    H123098   6.847   2.624   6.779  1.3088  0.8208  1.4718
  513TIP3    H223099   6.734   2.703   6.842  1.0957  1.1920  0.6447
  514TIP3   OH223100   5.380   6.707   0.205  0.1716  0.3793  0.4709
  514TIP3    H123101   5.474   6.686   0.200  0.3400  0.7943  1.5048
  514TIP3    H223102   5.366   6.774   0.139  1.3231  2.6846  2.4043
  515TIP3   OH223103   6.010   0.347   2.013 -0.2523  0.2241 -0.5421
  515TIP3    H123104   5.967   0.413   1.958 -1.1433 -1.7966 -2.4098
  515TIP3    H223105   5.959   0.346   2.094 -0.1684  1.8243 -0.4277
  516TIP3   OH223106   2.750   0.217   0.974 -0.1533 -0.2061  0.6685
  516TIP3    H123107   2.659   0.186   0.983  0.3764 -1.5571  1.6012
  516TIP3    H223108   2.741   0.311   0.956 -1.7083 -0.0511  2.0101
  517TIP3   OH223109   0.520   6.728   7.462  0.3000  0.0226 -0.2320
  517TIP3    H123110   0.471   6.758   7.386  0.3802 -0.6527 -0.5517
  517TIP3    H223111   0.458   6.673   7.510  0.4519 -0.0659 -0.1365
  518TIP3   OH223112   6.490   3.318   0.318 -0.2915  0.2563  0.4716
  518TIP3    H123113   6.430   3.264   0.265 -3.0510  1.8483  1.7410
  518TIP3    H223114   6.500   3.268   0.399  2.2919 -1.2061 -0.6289
  519TIP3   OH223115   6.471   0.936   8.349  0.7159 -0.1027  0.7323
  519TIP3    H123116   6.453   1.030   8.359 -0.5318 -0.2594  0.1334
  519TIP3    H223117   6.539   0.933   8.281  1.5610  0.3973  1.5167
  520TIP3   OH223118   3.324   1.898   1.211 -0.4858  0.1387 -0.7071
  520TIP3    H123119   3.303   1.856   1.128 -2.6808  0.0230 -0.1604
  520TIP3    H223120   3.253   1.871   1.270  1.3442 -0.3114  1.4088
  521TIP3   OH223121   4.096   5.461   1.404 -0.0045  0.6223 -0.2476
  521TIP3    H123122   4.161   5.411   1.454  0.8351  2.8555  1.0503
  521TIP3    H223123   4.143   5.487   1.325 -0.3866 -0.4167 -0.8397
  522TIP3   OH223124   4.317   6.806   0.089 -1.0705 -0.8557  0.1336
  522TIP3    H123125   4.377   6.788   0.161 -0.6449 -1.1000 -0.2752
  522TIP3    H223126   4.300   6.720   0.050  0.2383 -0.5213 -1.2635
  523TIP3   OH223127   2.882   0.685   7.110 -0.4572  0.0651  0.3763
  523TIP3    H123128   2.892   0.613   7.172 -1.3371 -0.2207  0.2091
  523TIP3    H223129   2.801   0.664   7.063  0.0244  0.4422 -0.6413
  524TIP3   OH223130   1.690   3.292   2.227 -0.5291  0.2043  0.4494
  524TIP3    H123131   1.713   3.212   2.181  2.0207  1.2583 -0.2992
  524TIP3    H223132   1.753   3.297   2.299 -1.1144  1.1836  0.9188
  525TIP3   OH223133   0.192   1.610   7.213  0.5018  0.2952  0.2934
  525TIP3    H123134   0.249   1.641   7.142 -0.3233 -0.4279 -0.7229
  525TIP3    H223135   0.121   1.674   7.215  0.7563  0.5672  0.7908
  526TIP3   OH223136   4.951   4.044   0.109 -0.1439  0.0458 -0.3135
  526TIP3    H123137   4.873   4.030   0.054 -1.2774 -2.0969  1.6522
  526TIP3    H223138   4.925   4.111   0.171 -0.1089 -0.0123 -0.2359
  527TIP3   OH223139   1.219   2.528   8.007 -0.1852  0.2693 -0.3520
  527TIP3    H123140   1.142   2.574   8.042 -0.7953 -0.5323 -0.6219
  527TIP3    H223141   1.200   2.435   8.023  0.3138  0.0086 -1.2427
  528TIP3   OH223142   1.684   6.366   6.451  0.3051 -0.1297 -0.4979
  528TIP3    H123143   1.724   6.304   6.390  0.0062  1.2053 -2.1243
  528TIP3    H223144   1.619   6.413   6.398  1.0849  2.1313  0.4178
  529TIP3   OH223145   4.369   2.472   7.514  0.1378  0.4862 -0.1239
  529TIP3    H123146   4.464   2.459   7.521  0.1790  0.9339  0.2342
  529TIP3    H223147   4.351   2.466   7.420  0.7996  2.1688 -0.4035
  530TIP3   OH223148   2.425   5.668   8.482  0.3126  0.4922  0.0210
  530TIP3    H123149   2.519   5.686   8.490  0.6035 -0.9453 -0.0464
  530TIP3    H223150   2.386   5.712   8.558  1.2426 -0.2506  0.9554
  531TIP3   OH223151   4.386   4.707   1.585 -0.3803  0.3308 -0.1487
  531TIP3    H123152   4.315   4.692   1.647  1.0121 -2.1434  0.9609
  531TIP3    H223153   4.342   4.709   1.499 -1.8869 -0.2036  0.5728
  532TIP3   OH223154   2.689   2.523   1.207 -0.3292 -0.1703 -0.4968
  532TIP3    H123155   2.690   2.522   1.303  1.0742 -0.1870 -0.4948
  532TIP3    H223156   2.613   2.470   1.183 -1.1201  0.4290  0.6032
  533TIP3   OH223157   1.990   0.533   0.844 -0.0437  0.0234 -0.4761
  533TIP3    H123158   2.057   0.585   0.799  0.5900 -1.1636 -0.9333
  533TIP3    H223159   2.035   0.500   0.922  0.1956 -1.4756 -1.2172
  534TIP3   OH223160   0.483   3.778   0.053 -0.3546  0.0663  0.3644
  534TIP3    H123161   0.568   3.740   0.075  0.9031  1.2931 -1.8979
  534TIP3    H223162   0.441   3.795   0.137  1.1831 -1.5209  1.5150
  535TIP3   OH223163   1.428   1.854   2.272  0.1755 -0.2669 -0.2826
  535TIP3    H123164   1.475   1.871   2.354 -0.0524  0.3723 -0.2817
  535TIP3    H223165   1.383   1.771   2.287 -0.2139  0.0667  0.3931
  536TIP3   OH223166   3.350   1.554   7.789 -0.6148 -0.1049 -0.5892
  536TIP3    H123167   3.265   1.511   7.780 -0.9051  0.3617 -0.1494
  536TIP3    H223168   3.410   1.485   7.817 -1.4749  0.0965  2.0182
  537TIP3   OH223169   3.112   4.966   0.955  0.1422  0.6033 -0.2890
  537TIP3    H123170   3.034   4.998   0.909 -0.4945  3.6112  2.5448
  537TIP3    H223171   3.181   5.029   0.933  0.2398  1.1778  1.4989
  538TIP3   OH223172   6.271   3.451   7.943  0.0522  0.9945 -0.7186
  538TIP3    H123173   6.304   3.414   7.861 -1.1703  1.6245 -1.5173
  538TIP3    H223174   6.179   3.426   7.946  0.3841 -0.2460  1.1969
  539TIP3   OH223175   6.670   1.901   0.483 -0.4930  0.2911  0.2931
  539TIP3    H123176   6.681   1.811   0.513  1.0889  0.8316  1.4791
  539TIP3    H223177   6.674   1.895   0.387 -1.4534 -0.9879  0.3011
  540TIP3   OH223178   2.036   0.417   6.526 -0.6537 -0.3193 -0.3958
  540TIP3    H123179   2.086   0.496   6.503 -2.1118  0.3569 -1.4064
  540TIP3    H223180   2.085   0.345   6.487  0.6176  0.0761  0.4109
  541TIP3   OH223181   2.960   3.250   8.342 -0.4508  0.3235 -1.1564
  541TIP3    H123182   3.049   3.226   8.367  0.3348  1.0474 -3.0850
  541TIP3    H223183   2.927   3.173   8.295 -1.5314 -0.6182  1.0039
  542TIP3   OH223184   3.908   4.504   0.412  0.2751  0.3111 -0.3614
  542TIP3    H123185   3.870   4.423   0.447  2.6426 -0.3820  0.8262
  542TIP3    H223186   3.973   4.475   0.348  1.0527  1.2620 -0.0244
  543TIP3   OH223187   4.800   3.887   1.389 -0.5556 -0.1433 -0.5186
  543TIP3    H123188   4.732   3.884   1.322 -0.8131  1.6905 -0.3854
  543TIP3    H223189   4.882   3.887   1.339 -0.7392  0.8758 -0.8385
  544TIP3   OH223190   5.657   6.533   0.434  0.3261  0.0469 -0.4698
  544TIP3    H123191   5.650   6.600   0.501 -0.7419 -1.0956  0.6315
  544TIP3    H223192   5.648   6.450   0.481  2.8856 -0.9733 -1.6064
  545TIP3   OH223193   4.459   0.687   1.407 -0.6686 -0.3281 -0.1839
  545TIP3    H123194   4.549   0.689   1.377 -0.0487  0.6598  1.6373
  545TIP3    H223195   4.452   0.605   1.456 -0.8433 -0.5318 -0.5461
  546TIP3   OH223196   1.017   0.366   0.988 -0.4410  0.2096 -0.0795
  546TIP3    H123197   1.092   0.422   0.971 -2.3274  3.0688  0.2930
  546TIP3    H223198   0.990   0.387   1.078 -1.1538 -1.4582  0.1512
  547TIP3   OH223199   2.856   5.168   0.628 -0.1949  0.1035 -0.3542
  547TIP3    H123200   2.838   5.087   0.579  1.3161  0.1788 -1.1259
  547TIP3    H223201   2.901   5.224   0.564  0.8084  0.6554  0.8005
  548TIP3   OH223202   1.757   4.140   8.131 -0.0739 -0.2397 -0.0272
  548TIP3    H123203   1.808   4.080   8.185 -0.3125  0.1965  0.6984
  548TIP3    H223204   1.783   4.119   8.041  0.5002 -0.8221  0.2633
  549TIP3   OH223205   3.365   6.267   1.414  0.2700 -0.1917  0.2553
  549TIP3    H123206   3.447   6.316   1.412 -0.1671  0.5676  0.4679
  549TIP3    H223207   3.297   6.334   1.422 -0.3108 -0.8558  1.2029
  550TIP3   OH223208   6.624   5.376   0.294 -0.2256 -0.2927 -0.5341
  550TIP3    H123209   6.603   5.342   0.381 -1.3199  0.2964 -0.5410
  550TIP3    H223210   6.571   5.323   0.234 -1.7421  1.1548 -0.5661
  551TIP3   OH223211   3.949   2.756   0.859  0.1443  0.1175  0.3808
  551TIP3    H123212   3.929   2.780   0.768  0.8927 -0.6178  0.0186
  551TIP3    H223213   3.912   2.668   0.870  1.9436 -0.7088  0.1060
  552TIP3   OH223214   1.231   5.731   1.799  0.0568 -0.1462 -0.4863
  552TIP3    H123215   1.220   5.818   1.760 -1.1427 -0.5044 -1.0012
  552TIP3    H223216   1.241   5.673   1.724 -0.9672 -0.6751 -0.2405
  553TIP3   OH223217   6.621   5.868   0.931 -0.0411  0.4263 -0.1062
  553TIP3    H123218   6.703   5.911   0.954 -1.0094  3.1816 -1.2667
  553TIP3    H223219   6.617   5.873   0.835 -1.3758  0.0091 -0.1010
  554TIP3   OH223220   0.212   1.462   0.528 -0.1128 -0.0638 -0.3330
  554TIP3    H123221   0.209   1.557   0.523 -0.2286  0.1352  2.2273
  554TIP3    H223222   0.122   1.436   0.550  0.0877 -0.6982 -0.2313
  555TIP3   OH223223   0.578   0.840   1.415  0.0692  0.2306 -0.1678
  555TIP3    H123224   0.554   0.898   1.343  0.6592  0.0014 -0.5582
  555TIP3    H223225   0.527   0.871   1.489 -0.0672  0.8747 -0.5256
  556TIP3   OH223226   1.359   5.286   7.749 -0.1920 -0.3246 -0.0537
  556TIP3    H123227   1.387   5.199   7.777  0.1948  0.0379  0.7153
  556TIP3    H223228   1.437   5.341   7.759 -0.5873  0.2340  0.0197
  557TIP3   OH223229   3.790   2.112   2.021  0.1192 -0.0305 -0.0886
  557TIP3    H123230   3.754   2.056   2.090  0.6863 -0.9807 -0.5517
  557TIP3    H223231   3.713   2.141   1.972 -0.1192 -1.3727 -0.5641
  558TIP3   OH223232   0.781   6.635   8.635  0.1699 -0.0209  1.0690
  558TIP3    H123233   0.815   6.722   8.655 -1.1356  0.6944  0.3119
  558TIP3    H223234   0.839   6.602   8.567 -0.7405  1.2948 -0.4092
  559TIP3   OH223235   4.833   6.547   0.214 -0.0275  0.4215  0.2504
  559TIP3    H123236   4.774   6.614   0.249  0.6114  0.7906  0.6447
  559TIP3    H223237   4.849   6.575   0.124 -0.9203 -0.0088 -0.0524
  560TIP3   OH223238   0.658   6.057   6.639 -0.5719  0.0454 -0.6572
  560TIP3    H123239   0.722   6.059   6.709  0.1628 -1.4203 -1.2380
  560TIP3    H223240   0.578   6.093   6.677  0.4531  1.4784  0.2108
  561TIP3   OH223241   1.631   3.542   1.473 -0.2616  0.6267  0.3903
  561TIP3    H123242   1.592   3.617   1.518 -0.2580  0.6828  0.2989
  561TIP3    H223243   1.635   3.568   1.381  1.4872  1.2595  0.6110
  562TIP3   OH223244   0.789   5.364   0.349 -0.4932  0.5102  0.0688
  562TIP3    H123245   0.790   5.456   0.376  0.4008  0.9155 -1.2696
  562TIP3    H223246   0.792   5.367   0.254  1.4536 -0.9109  0.0351
  563TIP3   OH223247   1.867   5.110   1.023  0.2123  0.1948  0.3308
  563TIP3    H123248   1.852   5.049   0.950  0.8022 -0.4716  0.7552
  563TIP3    H223249   1.962   5.105   1.038  0.0260 -0.0236  1.4496
  564TIP3   OH223250   1.961   0.431   7.720  0.0301 -0.4552 -0.1458
  564TIP3    H123251   1.870   0.421   7.749  0.1669 -1.0129  0.1009
  564TIP3    H223252   1.997   0.498   7.778 -0.8777  1.5359 -1.7758
  565TIP3   OH223253   5.901   2.359   2.678  0.5304 -0.0397  0.1550
  565TIP3    H123254   5.962   2.289   2.656 -0.0583 -0.3405 -0.5458
  565TIP3    H223255   5.831   2.316   2.727  1.0450  0.3628  1.2577
  566TIP3   OH223256   3.114   1.569   8.470  0.1448  0.0082  0.7914
  566TIP3    H123257   3.101   1.656   8.433  0.4863  0.2449  1.2163
  566TIP3    H223258   3.037   1.555   8.526 -0.8324 -0.7251 -0.6819
  567TIP3   OH223259   1.000   3.687   0.581 -0.1896 -0.4578 -0.0536
  567TIP3    H123260   1.078   3.738   0.600 -1.1807  1.0903  0.0519
  567TIP3    H223261   1.032   3.610   0.535  1.5848 -0.9362  1.8613
  568TIP3   OH223262   5.905   5.417   8.602  0.6440 -0.2805 -0.0734
  568TIP3    H123263   5.855   5.343   8.569  1.8685 -1.1538 -0.0171
  568TIP3    H223264   5.839   5.473   8.645 -0.4012 -0.9398 -0.7646
  569TIP3   OH223265   5.448   4.616   1.659 -0.3736 -0.7066  0.2541
  569TIP3    H123266   5.496   4.538   1.630 -0.3114 -0.4635 -0.3093
  569TIP3    H223267   5.505   4.689   1.634 -0.9732 -0.4209 -0.2945
  570TIP3   OH223268   6.273   5.312   1.273  0.0919  0.0174 -0.4554
  570TIP3    H123269   6.222   5.365   1.333  1.8074  0.5127  0.6265
  570TIP3    H223270   6.283   5.228   1.318 -0.2919 -0.2983 -0.9472
  571TIP3   OH223271   0.437   1.226   7.783 -0.2783 -0.1844  0.0096
  571TIP3    H123272   0.474   1.253   7.867  0.1475 -0.2061 -0.1688
  571TIP3    H223273   0.370   1.291   7.765 -0.2912 -0.1112  0.3075
  572TIP3   OH223274   2.377   0.762   6.707  0.7795 -0.3855  0.2838
  572TIP3    H123275   2.340   0.845   6.678  1.4235  0.6689  2.3605
  572TIP3    H223276   2.459   0.754   6.659  0.6387  0.0712 -0.0391
  573TIP3   OH223277   3.234   6.079   6.900 -0.3076 -0.2504 -0.1800
  573TIP3    H123278   3.193   6.046   6.820 -0.1236  1.1238 -0.8577
  573TIP3    H223279   3.165   6.131   6.942  0.6069  1.9020 -1.2202
  574TIP3   OH223280   2.276   5.838   8.672  0.0666 -0.7515 -0.1496
  574TIP3    H123281   2.185   5.865   8.656  0.2440 -1.1185 -2.0482
  574TIP3    H223282   2.273   5.791   8.755 -0.9503  1.6520  1.2629
  575TIP3   OH223283   5.516   4.716   0.502  0.2337 -0.5660  0.4871
  575TIP3    H123284   5.444   4.714   0.564  0.0239  2.1503  0.4380
  575TIP3    H223285   5.474   4.727   0.416  0.6133 -2.3330  0.0255
  576TIP3   OH223286   6.329   1.193   8.408 -0.4122 -0.3566  0.1391
  576TIP3    H123287   6.322   1.281   8.373  1.0772 -0.4948 -0.5468
  576TIP3    H223288   6.297   1.200   8.498  0.6785  1.0939  0.4307
  577TIP3   OH223289   1.311   4.235   1.629 -0.0406  0.1604 -0.2477
  577TIP3    H123290   1.298   4.255   1.537  1.5409  0.2893 -0.4667
  577TIP3    H223291   1.403   4.212   1.636 -0.3366 -0.7016  1.1571
  578TIP3   OH223292   4.851   4.688   1.503 -0.3179  0.0834 -0.5191
  578TIP3    H123293   4.936   4.650   1.526 -0.4049  0.6310  0.8187
  578TIP3    H223294   4.872   4.760   1.443  0.1408  0.0848 -0.3625
  579TIP3   OH223295   4.718   5.865   0.371 -0.0866 -0.2208 -0.1973
  579TIP3    H123296   4.642   5.887   0.424 -0.5964  1.0770 -1.4049
  579TIP3    H223297   4.792   5.901   0.419 -0.5476  0.9908 -0.3553
  580TIP3   OH223298   4.696   1.888   6.511 -0.2928  0.1481  0.1522
  580TIP3    H123299   4.699   1.792   6.507  0.3521  0.1851 -2.7082
  580TIP3    H223300   4.772   1.916   6.460 -1.3215  2.1759 -0.3689
  581TIP3   OH223301   6.291   1.219   7.387 -0.2484 -0.2466  0.1286
  581TIP3    H123302   6.300   1.313   7.403 -0.0850 -0.1676 -0.3850
  581TIP3    H223303   6.380   1.189   7.366 -0.5731 -0.1358 -1.5804
  582TIP3   OH223304   3.249   5.858   8.330 -0.0952 -0.1598  0.4236
  582TIP3    H123305   3.321   5.851   8.268  0.6824  1.3410  1.1056
  582TIP3    H223306   3.216   5.947   8.318 -1.0899 -0.4371  0.9539
  583TIP3   OH223307   5.330   5.564   1.369  0.3538 -0.5907  0.5612
  583TIP3    H123308   5.383   5.619   1.311  1.5075 -0.9911  1.1977
  583TIP3    H223309   5.278   5.626   1.420  0.0742 -0.1970 -0.1796
  584TIP3   OH223310   0.655   4.767   8.375 -0.3304 -0.0131 -0.3956
  584TIP3    H123311   0.689   4.678   8.360 -0.2954 -0.3457  1.4742
  584TIP3    H223312   0.570   4.753   8.417 -0.7590  0.8490 -0.9556
  585TIP3   OH223313   1.173   0.039   7.902  0.0669 -0.0657 -0.3205
  585TIP3    H123314   1.078   0.045   7.889  0.0790  0.8424 -0.0407
  585TIP3    H223315   1.208   0.023   7.815 -0.2649  0.6584 -0.5910
  586TIP3   OH223316   2.142   5.697   0.225  1.1717  0.1543  0.7295
  586TIP3    H123317   2.225   5.673   0.268  0.9606  1.5240  2.0066
  586TIP3    H223318   2.074   5.665   0.284  0.8476  1.1592  0.9159
  587TIP3   OH223319   0.068   6.425   7.049  0.3647  0.2881  0.8781
  587TIP3    H123320   0.137   6.469   7.000 -0.4571  0.1301 -0.4727
  587TIP3    H223321   0.057   6.478   7.127 -1.0972  2.9826 -1.0042
  588TIP3   OH223322   4.800   1.578   1.710 -0.1510  0.1592 -0.0192
  588TIP3    H123323   4.749   1.658   1.697  0.4795  0.3717 -1.4285
  588TIP3    H223324   4.738   1.507   1.695  0.0661  0.4153 -2.4672
  589TIP3   OH223325   2.646   6.055   1.256 -0.0488 -0.3075 -0.7749
  589TIP3    H123326   2.705   6.083   1.185 -1.4156  0.2664 -1.7302
  589TIP3    H223327   2.702   6.004   1.314  0.9201 -1.6922 -2.7868
  590TIP3   OH223328   5.581   1.484   7.761  0.0189  0.1599  0.2380
  590TIP3    H123329   5.623   1.540   7.695 -1.8834  1.4546  0.0494
  590TIP3    H223330   5.570   1.400   7.717  0.2816  0.5130 -0.5253
  591TIP3   OH223331   1.852   0.304   8.000  0.2738  0.3887  0.0503
  591TIP3    H123332   1.848   0.209   8.011  0.5254  0.1971 -1.3057
  591TIP3    H223333   1.944   0.322   7.981 -0.0457  0.6773 -1.3535
  592TIP3   OH223334   1.661   3.058   7.106  0.3605  0.0610  0.6925
  592TIP3    H123335   1.691   3.075   7.195  0.8396 -0.3102  0.6082
  592TIP3    H223336   1.733   3.088   7.050 -0.3470  1.2363  0.3734
  593TIP3   OH223337   0.088   6.167   7.199  0.2902  0.3633  0.3662
  593TIP3    H123338   0.035   6.236   7.159  0.6078  0.4558  0.1016
  593TIP3    H223339   0.166   6.213   7.232  1.7359 -0.1761 -2.0185
  594TIP3   OH223340   2.198   3.711   7.852  0.0971  0.0338  0.6586
  594TIP3    H123341   2.265   3.745   7.911  0.4870 -0.3515  0.4450
  594TIP3    H223342   2.139   3.660   7.908  1.4576 -1.8247  0.4857
  595TIP3   OH223343   0.946   5.473   1.488  0.2660  0.4303  0.4272
  595TIP3    H123344   0.873   5.502   1.433  1.7850  1.5180 -1.0855
  595TIP3    H223345   0.969   5.550   1.540  1.0948  0.4637  0.0256
  596TIP3   OH223346   6.124   1.679   1.740  0.6439  0.1105 -0.6284
  596TIP3    H123347   6.205   1.650   1.783  1.4892  2.1582 -0.6993
  596TIP3    H223348   6.153   1.711   1.654 -0.2787  0.5629 -0.7798
  597TIP3   OH223349   2.384   2.174   7.203 -0.1938  0.1941  0.4000
  597TIP3    H123350   2.459   2.115   7.205 -0.3729 -0.0604 -0.3077
  597TIP3    H223351   2.367   2.189   7.110 -2.6251 -1.7910  0.4353
  598TIP3   OH223352   3.240   5.569   1.270  0.0158 -0.3252 -0.2263
  598TIP3    H123353   3.186   5.643   1.298 -0.9098 -0.4061 -1.6944
  598TIP3    H223354   3.330   5.598   1.284 -0.3114  1.3200 -1.3027
  599TIP3   OH223355   6.055   5.867   1.706 -0.2527 -0.0200  0.0725
  599TIP3    H123356   6.118   5.796   1.713  0.2159  0.4294  0.5855
  599TIP3    H223357   5.977   5.836   1.752  0.1576  0.0154  0.8049
  600TIP3   OH223358   5.436   3.109   6.758  0.3313  0.0956  0.4588
  600TIP3    H123359   5.342   3.094   6.746  0.3851  0.8201 -1.2082
  600TIP3    H223360   5.442   3.200   6.787  0.5347  0.2369 -0.0143
  601TIP3   OH223361   6.236   2.212   1.483  0.5054  0.3975 -0.0687
  601TIP3    H123362   6.262   2.179   1.569  0.6863  0.3128 -0.1555
  601TIP3    H223363   6.238   2.308   1.492 -2.1612  0.4291  0.8370
  602TIP3   OH223364   4.453   3.462   2.485 -0.0721  0.4489  0.3254
  602TIP3    H123365   4.510   3.532   2.453  0.0253  0.5462  0.7139
  602TIP3    H223366   4.366   3.487   2.455  0.1311  0.1357 -0.5500
  603TIP3   OH223367   2.297   4.487   1.449  0.0384  0.5090 -0.1034
  603TIP3    H123368   2.341   4.540   1.382 -0.8599  1.0577 -0.2720
  603TIP3    H223369   2.249   4.421   1.399  0.5638 -0.0129  0.0737
  604TIP3   OH223370   6.022   5.186   1.213  0.6932  0.4373  0.3215
  604TIP3    H123371   6.094   5.226   1.263 -0.2569  1.4226  0.9416
  604TIP3    H223372   5.960   5.258   1.199 -0.1500 -0.3839 -0.2529
  605TIP3   OH223373   5.698   3.668   7.557  0.2436  0.2610 -0.3236
  605TIP3    H123374   5.667   3.656   7.647  2.0426 -0.1547  0.2786
  605TIP3    H223375   5.691   3.581   7.518  1.1928  0.0260  0.0087
  606TIP3   OH223376   2.650   1.830   7.848 -0.3757  0.1136  0.4831
  606TIP3    H123377   2.560   1.861   7.858 -1.4934 -1.9230 -2.0913
  606TIP3    H223378   2.688   1.891   7.785 -0.0302  0.7705  1.3112
  607TIP3   OH223379   5.131   6.652   6.898  0.6177 -0.0136 -0.1715
  607TIP3    H123380   5.098   6.740   6.913 -0.6954 -0.4799 -0.1040
  607TIP3    H223381   5.060   6.608   6.850 -0.4836 -2.1353  3.0537
  608TIP3   OH223382   4.435   6.143   0.768 -0.6954 -0.0095 -0.0348
  608TIP3    H123383   4.453   6.103   0.853 -1.9281  0.2251  0.3555
  608TIP3    H223384   4.343   6.124   0.751 -1.0944  1.9088 -0.2482
  609TIP3   OH223385   0.722   6.037   1.210  0.7502  0.0920  0.4737
  609TIP3    H123386   0.806   6.012   1.171  0.5520  0.0275  0.0826
  609TIP3    H223387   0.745   6.070   1.297  1.2913  1.0360 -0.0027
  610TIP3   OH223388   0.001   2.932   1.164  0.4234  0.0812 -0.0506
  610TIP3    H123389  -0.069   2.989   1.196 -0.6561 -0.2411 -1.7590
  610TIP3    H223390   0.072   2.992   1.141  0.0330  0.5741  0.0042
  611TIP3   OH223391   6.164   5.363   8.551  0.3671 -0.3293  0.1755
  611TIP3    H123392   6.182   5.338   8.642 -0.5389  1.3434  0.8742
  611TIP3    H223393   6.074   5.396   8.553  0.8850  1.2816 -0.9466
  612TIP3   OH223394   0.722   6.746   8.341 -0.1283 -0.7907  1.0334
  612TIP3    H123395   0.708   6.744   8.246 -1.1616 -1.5481  1.1821
  612TIP3    H223396   0.807   6.704   8.353  1.4256  1.8959  0.2534
  613TIP3   OH223397   3.242   0.497   7.238  0.3022 -0.0198  0.0547
  613TIP3    H123398   3.212   0.582   7.207 -0.0182 -0.1202  0.0842
  613TIP3    H223399   3.165   0.441   7.233  0.2405 -0.0362  1.0485
  614TIP3   OH223400   4.523   2.328   2.204  0.3062 -0.2233 -0.0155
  614TIP3    H123401   4.586   2.369   2.263 -0.2832 -0.3426  0.7074
  614TIP3    H223402   4.438   2.343   2.245  0.0854 -2.3145  0.3651
  615TIP3   OH223403   0.267   4.603   8.170 -0.0425  0.4142  0.2579
  615TIP3    H123404   0.250   4.690   8.206  1.5888  0.9799 -0.2248
  615TIP3    H223405   0.256   4.543   8.244 -1.2504  1.0081  0.5750
  616TIP3   OH223406   1.786   6.637   1.251 -0.2505 -0.1679  0.9159
  616TIP3    H123407   1.717   6.704   1.254 -1.0433 -0.9918  1.2788
  616TIP3    H223408   1.785   6.598   1.338 -0.4612 -1.3203  0.4073
  617TIP3   OH223409   1.892   3.204   7.873 -0.6034 -0.9926 -0.3689
  617TIP3    H123410   1.959   3.161   7.821  0.7359  1.2353 -0.6304
  617TIP3    H223411   1.837   3.250   7.809  0.3191  0.7689  0.0434
  618TIP3   OH223412   2.911   6.771   0.236 -0.0899 -0.0969 -0.1912
  618TIP3    H123413   2.931   6.689   0.190 -0.3535 -0.8220  0.9437
  618TIP3    H223414   2.997   6.806   0.260  0.0303  0.0474 -0.8265
  619TIP3   OH223415   3.508   6.250   6.870  0.2886  0.4664 -0.0487
  619TIP3    H123416   3.437   6.187   6.859  0.4490  0.3221 -0.2683
  619TIP3    H223417   3.588   6.199   6.852  0.3960  0.8210 -0.5816
  620TIP3   OH223418   4.672   3.533   2.049  1.0922 -0.2227  0.1080
  620TIP3    H123419   4.687   3.564   2.138  1.0722  2.0482 -0.6078
  620TIP3    H223420   4.577   3.528   2.040  1.0677  0.4019 -0.0311
  621TIP3   OH223421   0.578   1.330   1.045  0.4432  0.2538  0.7162
  621TIP3    H123422   0.561   1.424   1.045 -0.7742  0.0831 -1.2926
  621TIP3    H223423   0.546   1.300   1.130 -2.6499  1.1307  0.0006
  622TIP3   OH223424   2.612   3.485   6.810 -0.1610  0.0425  0.7309
  622TIP3    H123425   2.652   3.456   6.728 -2.9600  0.2765 -0.8391
  622TIP3    H223426   2.609   3.406   6.864 -2.9575 -1.5372 -1.4710
  623TIP3   OH223427   4.018   1.813   0.468  0.2831  0.1518 -0.6337
  623TIP3    H123428   3.979   1.850   0.547  2.8431  2.0168 -0.0765
  623TIP3    H223429   4.101   1.861   0.459  3.1180 -4.2638 -0.9122
  624TIP3   OH223430   3.741   3.239   7.617 -0.2653 -0.6182 -0.0740
  624TIP3    H123431   3.722   3.255   7.709  1.4529  0.5131  0.1281
  624TIP3    H223432   3.692   3.306   7.570 -1.5073 -1.4785 -0.0495
  625TIP3   OH223433   0.590   6.818   1.190 -0.4158  0.3048 -0.4990
  625TIP3    H123434   0.516   6.803   1.131  0.5274 -0.2945 -1.5443
  625TIP3    H223435   0.655   6.863   1.137  0.1902  0.3450  0.2650
  626TIP3   OH223436   4.221   2.321   0.127  0.0358  0.0338 -0.3314
  626TIP3    H123437   4.208   2.276   0.210  4.8572  1.1098  1.3448
  626TIP3    H223438   4.145   2.379   0.119 -1.1858 -0.9479  2.7172
  627TIP3   OH223439   5.167   2.465   8.311  0.1862  0.1044  0.2187
  627TIP3    H123440   5.226   2.507   8.373 -1.3033 -0.1882  1.9069
  627TIP3    H223441   5.199   2.376   8.304  0.3071  0.1087  0.6707
  628TIP3   OH223442   4.730   2.701   1.814  0.2180 -0.0852  0.2148
  628TIP3    H123443   4.696   2.758   1.745  0.3442 -0.8004 -0.4438
  628TIP3    H223444   4.683   2.729   1.893 -0.6436  0.0943 -0.3477
  629TIP3   OH223445   5.309   3.355   2.718  0.4279  0.0400  0.2887
  629TIP3    H123446   5.380   3.376   2.778  0.6132  2.1763 -0.6123
  629TIP3    H223447   5.308   3.426   2.655 -2.4679  0.0532  0.2041
  630TIP3   OH223448   3.429   3.309   1.665 -0.3802  0.5576 -0.6217
  630TIP3    H123449   3.345   3.265   1.651  0.3059 -1.1464  0.1923
  630TIP3    H223450   3.444   3.302   1.760  1.0333  0.0889 -0.8568
  631TIP3   OH223451   3.177   3.125   6.839  0.2935  0.2153 -0.3294
  631TIP3    H123452   3.147   3.173   6.762 -0.9742  0.9337  0.5842
  631TIP3    H223453   3.134   3.040   6.833 -1.4787  0.9966  0.6140
  632TIP3   OH223454   3.285   2.584   0.354 -0.9484  0.4551  0.1717
  632TIP3    H123455   3.249   2.539   0.278  2.1800 -0.4521 -0.9000
  632TIP3    H223456   3.283   2.677   0.330 -0.3634  0.2118 -0.8615
  633TIP3   OH223457   0.745   5.233   7.280  0.2244 -0.1741 -0.4223
  633TIP3    H123458   0.697   5.308   7.244  0.9663  0.1157 -0.8212
  633TIP3    H223459   0.820   5.272   7.325  0.4550 -0.6602 -0.3781
  634TIP3   OH223460   6.097   3.964   1.284  0.1052 -0.4529 -0.3678
  634TIP3    H123461   6.190   3.947   1.297 -0.3480 -2.6742  0.2985
  634TIP3    H223462   6.057   3.941   1.368 -0.9169  1.9551 -0.1050
  635TIP3   OH223463   6.109   0.909   7.913 -0.5449 -0.1541 -0.8611
  635TIP3    H123464   6.035   0.949   7.867 -2.0680 -1.4577  0.3415
  635TIP3    H223465   6.118   0.959   7.993 -0.8357 -0.6642 -0.5067
  636TIP3   OH223466   6.175   6.104   1.805  0.1149 -0.2289  0.2975
  636TIP3    H123467   6.175   6.055   1.887 -2.5221  0.4802  0.8325
  636TIP3    H223468   6.143   6.041   1.740 -2.4526  0.4166  0.8229
  637TIP3   OH223469   3.337   2.350   1.374 -0.0814 -0.5458  0.9747
  637TIP3    H123470   3.268   2.363   1.309 -0.2453  0.4387  1.3210
  637TIP3    H223471   3.382   2.271   1.346  0.4115  0.3257 -0.8627
  638TIP3   OH223472   3.880   4.389   1.947  0.4182  0.1297 -0.1912
  638TIP3    H123473   3.810   4.351   1.999  0.8920  0.1636  0.4864
  638TIP3    H223474   3.851   4.478   1.928 -0.6262 -0.4781 -1.6508
  639TIP3   OH223475   4.718   4.024   2.323  1.1044 -0.0369 -0.6953
  639TIP3    H123476   4.798   4.036   2.374  0.8954  0.1996 -0.4271
  639TIP3    H223477   4.744   4.046   2.233  0.7365  2.5459 -0.2479
  640TIP3   OH223478   0.161   0.145   1.594  0.0846  0.3273 -0.4340
  640TIP3    H123479   0.156   0.189   1.509  0.9285 -0.6594 -1.0225
  640TIP3    H223480   0.252   0.154   1.621  0.0621 -0.2634 -0.1366
  641TIP3   OH223481   1.951   1.900   6.206  0.1803 -0.7739 -0.0262
  641TIP3    H123482   1.868   1.934   6.173  0.2982 -0.6356 -0.1842
  641TIP3    H223483   1.944   1.907   6.301 -0.3407 -1.5913  0.0056
  642TIP3   OH223484   0.184   3.147   7.989 -0.7472  0.4398  0.9106
  642TIP3    H123485   0.148   3.182   7.908  1.4737  2.4124  0.6457
  642TIP3    H223486   0.111   3.103   8.032 -2.1116 -0.2474 -1.8894
  643TIP3   OH223487   0.830   3.411   7.503  0.1197  0.6746 -0.4621
  643TIP3    H123488   0.781   3.444   7.578 -0.5567 -1.1718 -0.0446
  643TIP3    H223489   0.810   3.472   7.433 -1.1907  1.0777  0.2311
  644TIP3   OH223490   0.560   0.477   8.145 -0.2617 -0.2559  0.2223
  644TIP3    H123491   0.510   0.437   8.074  0.5779  3.7080 -3.0299
  644TIP3    H223492   0.651   0.472   8.115  0.4162 -0.3587  2.1559
  645TIP3   OH223493   4.171   2.897   2.047  0.5363 -0.3423 -0.2422
  645TIP3    H123494   4.257   2.885   2.085  0.6805  1.0001 -0.1129
  645TIP3    H223495   4.114   2.917   2.121  0.0375 -1.4799 -0.2915
  646TIP3   OH223496   3.447   0.445   1.303 -0.3610 -0.2564 -0.3926
  646TIP3    H123497   3.535   0.417   1.281 -0.2054 -0.1775  0.1255
  646TIP3    H223498   3.391   0.399   1.239 -0.1192 -1.7350  0.4146
  647TIP3   OH223499   0.233   0.453   1.624  0.1116 -0.3017  0.2081
  647TIP3    H123500   0.324   0.427   1.609  0.2471  1.0438 -1.5662
  647TIP3    H223501   0.218   0.525   1.563 -2.1144 -0.3860  0.5822
  648TIP3   OH223502   2.441   4.142   7.152  0.0939  0.1316  0.1685
  648TIP3    H123503   2.470   4.052   7.138 -0.4288 -0.1379  0.7379
  648TIP3    H223504   2.350   4.144   7.121 -0.1278  0.2700  0.7977
  649TIP3   OH223505   6.136   2.111   0.724 -0.1235 -0.3710 -0.0961
  649TIP3    H123506   6.043   2.101   0.744 -0.3092  0.5781 -0.4385
  649TIP3    H223507   6.139   2.174   0.652  0.7319 -1.1644 -0.8007
  650TIP3   OH223508   5.740   0.030   0.083  0.5417 -0.2512 -0.3923
  650TIP3    H123509   5.688  -0.049   0.064 -0.8911 -0.1659  2.6407
  650TIP3    H223510   5.802   0.002   0.150  1.2057  0.8225 -0.5332
  651TIP3   OH223511   3.752   5.031   7.889  0.1628  0.3956 -0.2382
  651TIP3    H123512   3.660   5.007   7.903 -0.3841  1.0592 -2.2943
  651TIP3    H223513   3.789   5.036   7.977 -1.7190 -0.0550  0.6405
  652TIP3   OH223514   4.900   6.496   0.900  0.1760  0.5697 -0.1467
  652TIP3    H123515   4.911   6.576   0.952  0.8523  1.1099 -1.0992
  652TIP3    H223516   4.828   6.515   0.841 -0.9175 -0.2203  0.8890
  653TIP3   OH223517   6.321   6.668   0.154 -0.2486 -0.3039  0.2764
  653TIP3    H123518   6.306   6.622   0.236 -0.0144 -0.0028  0.4867
  653TIP3    H223519   6.318   6.761   0.177  1.7893 -0.2146  0.3106
  654TIP3   OH223520   5.613   1.942   7.343 -0.8245 -0.5021  0.2777
  654TIP3    H123521   5.652   2.029   7.355 -0.5346 -0.8568  2.3037
  654TIP3    H223522   5.619   1.926   7.249 -3.6847  2.9086 -0.6812
  655TIP3   OH223523   5.922   2.485   0.893 -0.4714  0.5558 -0.7169
  655TIP3    H123524   5.902   2.392   0.906  1.9200 -0.3571 -2.8219
  655TIP3    H223525   5.917   2.498   0.798  0.6780  2.2127 -0.6043
  656TIP3   OH223526   3.289   1.375   6.864 -0.0166 -0.2369 -0.4254
  656TIP3    H123527   3.226   1.304   6.876  1.9567 -1.7246  2.0494
  656TIP3    H223528   3.359   1.335   6.812  0.8453  0.0229  0.5052
  657TIP3   OH223529   3.442   5.801   1.702  0.3485  0.2649  0.0138
  657TIP3    H123530   3.410   5.794   1.613  0.0805  0.8266  0.0593
  657TIP3    H223531   3.509   5.734   1.710 -0.2593 -0.3891 -0.3313
  658TIP3   OH223532   5.254   1.270   2.397  0.0470 -0.0974  0.2057
  658TIP3    H123533   5.229   1.259   2.489  1.5913 -1.5121  0.5164
  658TIP3    H223534   5.260   1.181   2.363  0.1659  0.3844 -1.0759
  659TIP3   OH223535   0.078   6.865   7.250 -0.1154 -0.5765 -0.6209
  659TIP3    H123536   0.053   6.957   7.238 -1.6388 -1.0832 -1.6181
  659TIP3    H223537   0.159   6.869   7.301 -0.8075  1.2789  0.4373
  660TIP3   OH223538   3.069   0.985   1.572  0.2322 -0.1484 -0.1473
  660TIP3    H123539   3.120   0.914   1.612  0.5774  0.2357  0.1170
  660TIP3    H223540   3.045   1.041   1.646 -1.0955 -0.6362 -0.1935
  661TIP3   OH223541   1.454   2.418   0.000 -0.1464  0.3183 -0.4425
  661TIP3    H123542   1.423   2.377   0.081  0.1745 -0.9702 -0.9503
  661TIP3    H223543   1.375   2.425  -0.054 -0.0075 -0.7244 -0.7991
  662TIP3   OH223544   5.615   5.917   7.627 -0.3271 -0.1670 -0.1307
  662TIP3    H123545   5.637   6.008   7.606  2.8361 -0.4268  1.4577
  662TIP3    H223546   5.663   5.865   7.562 -0.9699 -0.7509 -0.1544
  663TIP3   OH223547   0.469   4.887   8.115 -0.4919 -0.3403 -0.0129
  663TIP3    H123548   0.492   4.813   8.059 -0.5176 -1.2187  1.1003
  663TIP3    H223549   0.388   4.860   8.158 -1.2282  0.8957 -0.5669
  664TIP3   OH223550   3.420   2.886   8.618 -0.3909 -0.7243 -0.1394
  664TIP3    H123551   3.474   2.950   8.665  0.0877 -0.2098 -1.3473
  664TIP3    H223552   3.374   2.937   8.551  0.5641 -1.7091 -1.6161
  665TIP3   OH223553   0.955   5.412   8.300 -0.0672  0.1803 -0.2186
  665TIP3    H123554   0.983   5.461   8.223  0.3180  0.1027 -0.1304
  665TIP3    H223555   0.860   5.423   8.302 -0.0607  0.3260 -0.6057
  666TIP3   OH223556   6.143   3.660   7.656 -0.3750  0.4113  0.3053
  666TIP3    H123557   6.079   3.717   7.697 -0.4150 -1.0250  2.4188
  666TIP3    H223558   6.161   3.592   7.722  3.4843  0.8427 -0.0568
  667TIP3   OH223559   1.052   0.137   1.984  0.3414 -0.0618  0.4692
  667TIP3    H123560   1.075   0.225   2.015  0.3509  0.0311  0.2032
  667TIP3    H223561   1.132   0.086   1.994  0.4919  0.1024  0.1124
  668TIP3   OH223562   5.547   2.624   1.182  0.0217  0.0359  0.0244
  668TIP3    H123563   5.617   2.559   1.166 -1.7419 -1.9967  0.0826
  668TIP3    H223564   5.469   2.571   1.197 -1.4320  2.2241  0.5908
  669TIP3   OH223565   0.487   5.457   0.467 -0.3569  0.7864 -0.3792
  669TIP3    H123566   0.447   5.510   0.398  2.1268  1.9663 -1.0503
  669TIP3    H223567   0.514   5.377   0.422  2.7101  2.1896 -1.4032
  670TIP3   OH223568   5.649   5.976   2.172  0.0896  0.4829  0.4630
  670TIP3    H123569   5.719   5.944   2.230 -2.5148 -1.5233  2.7471
  670TIP3    H223570   5.598   6.034   2.228 -2.3229 -1.2447  0.1767
  671TIP3   OH223571   6.025   2.905   0.005  0.4397  0.3312 -0.2832
  671TIP3    H123572   5.961   2.975   0.022  0.5474  0.1031  1.1986
  671TIP3    H223573   6.029   2.900  -0.090 -0.8362  1.1887 -0.4206
  672TIP3   OH223574   5.978   5.928   8.635  0.1759  0.1011  0.2129
  672TIP3    H123575   5.993   5.950   8.727  1.5995 -1.4909  0.4179
  672TIP3    H223576   6.044   5.979   8.587  0.9880 -0.7917  0.3355
  673TIP3   OH223577   5.493   3.740   0.504 -0.0364 -0.3110  0.3818
  673TIP3    H123578   5.422   3.687   0.537  0.0347 -0.8975 -0.3797
  673TIP3    H223579   5.572   3.688   0.519  0.1591  0.0369  0.5929
  674TIP3   OH223580   5.156   0.429   0.286  0.1370  0.0286 -0.1817
  674TIP3    H123581   5.214   0.503   0.271  1.3576 -0.7732  0.3738
  674TIP3    H223582   5.080   0.466   0.331  1.6816  0.6568  2.0918
  675TIP3   OH223583   6.704   2.834   0.943 -0.1952 -0.1928 -0.2594
  675TIP3    H123584   6.778   2.798   0.893 -0.0076  1.6231 -1.3850
  675TIP3    H223585   6.740   2.853   1.029  0.5423  0.2701 -0.6629
  676TIP3   OH223586   0.627   0.162   7.360 -0.4715  0.4890 -0.0864
  676TIP3    H123587   0.646   0.160   7.453 -0.8807 -0.1866 -0.0081
  676TIP3    H223588   0.671   0.241   7.328 -0.0807  0.5675  0.6180
  677TIP3   OH223589   6.613   4.011   7.709 -0.0857  0.6316 -0.2654
  677TIP3    H123590   6.528   3.969   7.712  0.6498 -1.0515 -1.6455
  677TIP3    H223591   6.623   4.040   7.618  0.8354  0.7674 -0.1328
  678TIP3   OH223592   4.851   6.778   1.909 -0.6053  0.3888 -0.4126
  678TIP3    H123593   4.885   6.854   1.956  0.5548 -0.7132  0.6262
  678TIP3    H223594   4.845   6.806   1.818 -2.0895  2.3137  0.2104
  679TIP3   OH223595   2.870   5.057   8.603 -0.5944 -0.2875 -0.3589
  679TIP3    H123596   2.946   5.067   8.660 -0.4235 -0.1147 -0.6156
  679TIP3    H223597   2.850   4.963   8.605 -0.1028 -0.3999 -0.6424
  680TIP3   OH223598   5.401   4.053   2.799  0.3921 -0.5228  0.3682
  680TIP3    H123599   5.479   4.103   2.822 -0.2085  0.6159 -0.0453
  680TIP3    H223600   5.354   4.043   2.882  0.5982 -0.5572  0.4812
  681TIP3   OH223601   4.507   1.493   8.686 -0.1338  0.5137 -0.3684
  681TIP3    H123602   4.588   1.493   8.634  0.8746 -1.6778  1.0671
  681TIP3    H223603   4.531   1.449   8.767 -2.5362  0.7846  0.5608
  682TIP3   OH223604   3.081   1.036   6.433  0.9615  0.6165 -0.2912
  682TIP3    H123605   3.105   1.039   6.341  0.7489  0.1825 -0.3659
  682TIP3    H223606   3.156   0.995   6.476  0.0028 -1.6968 -0.6725
  683TIP3   OH223607   2.660   5.334   7.278 -0.2524  0.0706 -0.5086
  683TIP3    H123608   2.603   5.257   7.272 -1.6420  1.0164 -0.0540
  683TIP3    H223609   2.693   5.346   7.189  0.4904 -1.3898 -0.4672
  684TIP3   OH223610   5.225   5.275   1.563  0.3049  0.6817 -0.3809
  684TIP3    H123611   5.290   5.240   1.624 -1.9282  0.2940  1.9608
  684TIP3    H223612   5.242   5.229   1.481  1.6523 -0.9600  0.7488
  685TIP3   OH223613   5.371   3.965   7.499 -0.0908  0.4097 -0.0283
  685TIP3    H123614   5.453   3.952   7.451  0.1067  0.9774  0.1476
  685TIP3    H223615   5.392   3.945   7.590 -0.1755  0.4297 -0.0040
  686TIP3   OH223616   1.429   3.194   1.047 -0.8184 -0.0604 -0.2397
  686TIP3    H123617   1.397   3.148   0.970 -0.5801 -0.4341 -0.1166
  686TIP3    H223618   1.351   3.215   1.097 -0.8261 -2.2961  0.8223
  687TIP3   OH223619   3.075   0.218   2.178 -0.3839  0.4608  0.0662
  687TIP3    H123620   3.081   0.296   2.233 -0.2857 -0.0056  0.7300
  687TIP3    H223621   2.984   0.188   2.189 -0.2194  0.0704  0.3953
  688TIP3   OH223622   6.755   2.765   1.534 -0.4077  0.1527 -0.0698
  688TIP3    H123623   6.788   2.854   1.518 -0.6955  0.5262  1.3066
  688TIP3    H223624   6.790   2.714   1.461 -1.2433  1.6190 -1.5666
  689TIP3   OH223625   0.377   5.085   0.851 -0.6171 -0.0615  0.2758
  689TIP3    H123626   0.463   5.069   0.814 -0.3169  1.2412  0.3703
  689TIP3    H223627   0.338   5.152   0.795 -0.5339  1.2359  1.7114
  690TIP3   OH223628   3.251   2.025   8.682 -0.1257  0.4800 -0.1078
  690TIP3    H123629   3.321   2.033   8.747  2.6890  0.6126 -2.9189
  690TIP3    H223630   3.268   1.941   8.639 -1.4484  0.7149 -1.1606
  691TIP3   OH223631   3.797   6.322   0.158  0.3165 -0.3692 -0.1022
  691TIP3    H123632   3.792   6.399   0.102  1.0842  0.2674  0.6745
  691TIP3    H223633   3.705   6.299   0.175  0.0454  0.9718  0.4384
  692TIP3   OH223634   2.670   5.233   8.686  0.1487 -0.3080  0.2265
  692TIP3    H123635   2.732   5.172   8.647  1.2141 -0.5547  2.1875
  692TIP3    H223636   2.676   5.217   8.780 -1.0855  1.3940  0.6506
  693TIP3   OH223637   3.880   4.794   0.400  0.0783  0.5614 -0.4081
  693TIP3    H123638   3.825   4.756   0.468 -1.3229  2.5945 -0.3316
  693TIP3    H223639   3.889   4.724   0.335 -2.4604  0.0727 -0.3260
  694TIP3   OH223640   4.321   1.046   8.394  0.5671  0.3078  0.0998
  694TIP3    H123641   4.304   1.133   8.430  1.5327  1.0750 -1.2043
  694TIP3    H223642   4.301   0.986   8.466  0.6720  1.6524  1.2988
  695TIP3   OH223643   3.472   6.701   0.896 -0.2982  0.2932 -0.2002
  695TIP3    H123644   3.402   6.765   0.912  0.1856  1.4073 -2.2518
  695TIP3    H223645   3.457   6.671   0.807  0.9153 -0.6702 -0.1086
  696TIP3   OH223646   0.745   1.289   1.530 -0.1517 -0.0473  0.0945
  696TIP3    H123647   0.651   1.272   1.533 -0.5582  2.0536  0.8233
  696TIP3    H223648   0.753   1.373   1.486  1.4985 -0.6347 -0.8375
  697TIP3   OH223649   3.478   6.580   1.335 -0.3659 -0.0332  0.0092
  697TIP3    H123650   3.404   6.640   1.328  0.3124  0.7787 -0.3272
  697TIP3    H223651   3.531   6.615   1.406 -0.5613 -0.9117  0.6058
  698TIP3   OH223652   1.217   5.492   7.841  0.2014  0.0706 -0.5468
  698TIP3    H123653   1.288   5.556   7.830 -0.5371  0.9801 -0.1565
  698TIP3    H223654   1.256   5.409   7.815  1.7182  0.3680  0.6013
  699TIP3   OH223655   2.532   3.354   7.087  0.8141 -0.3794  0.7678
  699TIP3    H123656   2.529   3.273   7.138 -0.0001 -1.2251 -0.5592
  699TIP3    H223657   2.621   3.388   7.100  1.1702 -1.4929  1.3276
  700TIP3   OH223658   1.603   3.794   1.619 -0.1754 -0.1062 -0.4490
  700TIP3    H123659   1.512   3.814   1.642 -0.5622  0.0738 -2.0359
  700TIP3    H223660   1.636   3.875   1.581  0.6798 -0.1628  0.1455
  701TIP3   OH223661   5.418   0.871   1.543 -0.2735  0.0467 -0.0981
  701TIP3    H123662   5.455   0.799   1.491 -1.6453 -1.2360  0.6253
  701TIP3    H223663   5.467   0.949   1.514 -0.1993 -0.7866 -2.4840
  702TIP3   OH223664   1.332   0.450   6.685 -0.0385  0.3171 -0.2071
  702TIP3    H123665   1.397   0.520   6.691 -0.2034  0.3853  0.9466
  702TIP3    H223666   1.248   0.494   6.700 -0.0405 -0.2988  1.9138
  703TIP3   OH223667   2.539   0.552   8.667  0.2779  0.1684 -0.3941
  703TIP3    H123668   2.632   0.552   8.686 -0.2430  1.5791  2.6817
  703TIP3    H223669   2.506   0.471   8.706 -0.2892  1.5315  2.1892
  704TIP3   OH223670   1.913   6.152   7.397  0.1219 -0.5540 -0.4496
  704TIP3    H123671   1.853   6.150   7.471 -0.7875  1.3549 -1.0645
  704TIP3    H223672   1.927   6.060   7.375  1.5619 -1.2817  2.9072
  705TIP3   OH223673   0.994   1.349   7.626 -0.5816  0.2443  0.3699
  705TIP3    H123674   0.939   1.386   7.695 -1.3295  0.1583 -0.1637
  705TIP3    H223675   0.945   1.365   7.545  0.3723  0.5263 -0.1696
  706TIP3   OH223676   0.514   2.653   1.500 -0.1142 -0.8546 -0.2221
  706TIP3    H123677   0.445   2.676   1.562  0.3975  0.4351 -0.0989
  706TIP3    H223678   0.498   2.710   1.424 -1.3188 -3.0634 -1.7589
  707TIP3   OH223679   5.099   4.763   7.828 -0.4851 -0.6184  0.3234
  707TIP3    H123680   5.038   4.690   7.840 -2.6180  0.4283 -2.6518
  707TIP3    H223681   5.142   4.744   7.744  0.3675  0.5850  0.4674
  708TIP3   OH223682   4.242   4.845   1.345  0.1158  0.6630  0.3911
  708TIP3    H123683   4.230   4.940   1.353  2.6544  1.2253 -1.2224
  708TIP3    H223684   4.307   4.835   1.276 -1.0109 -2.3572 -0.3943
  709TIP3   OH223685   5.799   2.180   7.762 -0.5950  0.3307 -0.3019
  709TIP3    H123686   5.709   2.178   7.731  0.4906 -0.9633 -3.9196
  709TIP3    H223687   5.829   2.269   7.742 -1.0684  0.8678  1.2044
  710TIP3   OH223688   2.596   4.769   7.764  0.5149 -0.5547 -0.3484
  710TIP3    H123689   2.548   4.687   7.772  0.1685 -0.2655  0.6545
  710TIP3    H223690   2.572   4.803   7.677 -2.3478  0.3521  0.6820
  711TIP3   OH223691   2.599   6.801   8.626  0.1613 -0.5187  0.0287
  711TIP3    H123692   2.617   6.832   8.715 -0.6451  0.2584 -0.0706
  711TIP3    H223693   2.523   6.744   8.635  0.0996 -0.4666 -0.1548
  712TIP3   OH223694   4.229   3.339   7.041 -0.6977 -0.2038  0.3824
  712TIP3    H123695   4.146   3.308   7.079 -2.0692  0.3018 -1.9809
  712TIP3    H223696   4.232   3.298   6.954 -0.9429  3.4657 -1.5476
  713TIP3   OH223697   1.970   1.994   0.349  0.2648 -0.0756 -0.0784
  713TIP3    H123698   1.884   2.030   0.367  0.4155 -0.2430  1.0643
  713TIP3    H223699   1.954   1.920   0.291 -0.3100  0.1453 -0.2035
  714TIP3   OH223700   6.049   1.308   0.750  0.0055 -0.0091 -0.5738
  714TIP3    H123701   6.108   1.357   0.808  1.3800 -1.1719 -0.9278
  714TIP3    H223702   6.025   1.231   0.801 -1.5291  0.6156 -0.3076
  715TIP3   OH223703   0.355   6.287   1.142  1.1235  0.2334  0.3250
  715TIP3    H123704   0.277   6.283   1.087  1.4791 -1.8207 -0.1153
  715TIP3    H223705   0.393   6.373   1.123 -0.4602  0.8557 -0.2185
  716TIP3   OH223706   0.484   5.073   1.734 -0.6406  0.8768 -0.2394
  716TIP3    H123707   0.521   5.058   1.647  0.8859 -0.5237  0.5909
  716TIP3    H223708   0.516   5.159   1.759  0.0147  0.7302 -0.5419
  717TIP3   OH223709   1.148   5.071   6.697 -0.2086 -0.1828 -0.3870
  717TIP3    H123710   1.167   5.052   6.605  0.2465 -0.6128 -0.2135
  717TIP3    H223711   1.235   5.076   6.738 -0.3966  0.3567 -0.0499
  718TIP3   OH223712   0.222   4.979   0.403 -0.1675 -0.2760 -0.5936
  718TIP3    H123713   0.218   4.933   0.487 -1.0066  0.3278 -0.3009
  718TIP3    H223714   0.234   4.909   0.338 -0.4330 -0.8215 -0.0599
  719TIP3   OH223715   0.943   5.679   0.824  0.1409  0.1932  0.2050
  719TIP3    H123716   1.024   5.628   0.831  0.6544  1.1979  2.0184
  719TIP3    H223717   0.970   5.770   0.834 -1.1060  0.6427 -0.2304
  720TIP3   OH223718   5.842   2.432   7.595 -0.3569 -0.0395  0.5307
  720TIP3    H123719   5.870   2.520   7.622 -1.7338  1.0427 -1.3727
  720TIP3    H223720   5.915   2.399   7.543 -1.0678  1.3723 -1.5056
  721TIP3   OH223721   2.855   2.796   0.671 -0.0326  0.0849 -0.6898
  721TIP3    H123722   2.884   2.721   0.620  1.1858 -0.1890  0.3594
  721TIP3    H223723   2.798   2.845   0.612 -0.0985 -1.1665 -1.6900
  722TIP3   OH223724   5.235   2.886   7.955 -0.2742  0.3975 -0.2574
  722TIP3    H123725   5.194   2.821   8.012 -0.4813 -0.8941 -1.8237
  722TIP3    H223726   5.192   2.875   7.870  1.2759  1.0048 -1.1718
  723TIP3   OH223727   2.688   4.230   0.750 -0.4975 -0.0672 -0.2489
  723TIP3    H123728   2.638   4.149   0.748 -0.2431 -0.2104 -0.9888
  723TIP3    H223729   2.726   4.237   0.663  1.6044 -0.4772  0.5786
  724TIP3   OH223730   6.797   4.868   1.474 -0.2777 -0.4066 -0.0416
  724TIP3    H123731   6.787   4.812   1.551  0.5451  0.0196  0.3919
  724TIP3    H223732   6.860   4.935   1.501 -0.2942 -0.0029 -0.9559
  725TIP3   OH223733   2.527   5.950   0.801  0.4529 -0.1972 -0.0730
  725TIP3    H123734   2.441   5.961   0.760  0.6315 -0.7100 -0.6001
  725TIP3    H223735   2.561   6.039   0.810 -1.6996  0.4503  3.6906
  726TIP3   OH223736   4.906   4.865   8.500 -0.0937 -0.3318  0.7241
  726TIP3    H123737   4.996   4.871   8.469 -0.2775  2.2266  0.4422
  726TIP3    H223738   4.853   4.892   8.426 -1.1773 -2.2253  0.7542
  727TIP3   OH223739   3.992   4.044   1.919 -0.2137  0.1721 -0.0861
  727TIP3    H123740   4.050   3.969   1.933 -0.6996 -0.4421 -1.2754
  727TIP3    H223741   4.042   4.119   1.951  1.2789 -0.3271 -1.1557
  728TIP3   OH223742   4.586   4.026   1.656 -0.0775 -0.3101 -0.5250
  728TIP3    H123743   4.567   3.934   1.677 -2.8342  0.4677  0.8112
  728TIP3    H223744   4.669   4.044   1.700 -1.1007 -1.3224  2.0109
  729TIP3   OH223745   6.320   5.485   7.785 -0.1414 -0.3901 -0.3477
  729TIP3    H123746   6.260   5.550   7.821 -0.1466 -0.4902 -0.1755
  729TIP3    H223747   6.390   5.479   7.850 -0.2959 -0.7818 -0.2133
  730TIP3   OH223748   0.299   2.707   2.168 -0.6165 -0.7451  0.0670
  730TIP3    H123749   0.311   2.652   2.245  0.8533 -0.5980 -0.0408
  730TIP3    H223750   0.349   2.787   2.187 -0.2278 -0.7135 -1.0394
  731TIP3   OH223751   2.631   1.651   0.324 -0.0918 -0.1781  0.0333
  731TIP3    H123752   2.576   1.668   0.400 -1.5676  0.2422 -1.0779
  731TIP3    H223753   2.605   1.716   0.260  1.3770 -0.2901 -0.7307
  732TIP3   OH223754   6.400   1.257   7.942  0.1289  0.0981  0.1855
  732TIP3    H123755   6.460   1.300   7.881 -0.0082  0.9650  0.6427
  732TIP3    H223756   6.313   1.288   7.915  0.0581  0.3798  0.7279
  733TIP3   OH223757   6.439   1.258   2.281  0.3826  0.0458 -0.0612
  733TIP3    H123758   6.441   1.328   2.347 -0.7301 -1.7827  2.0602
  733TIP3    H223759   6.347   1.251   2.257  0.5819 -0.2624 -0.7452
  734TIP3   OH223760   3.265   3.190   8.678 -0.2243 -0.0767  0.1360
  734TIP3    H123761   3.210   3.133   8.733 -3.0955  1.0140 -1.4042
  734TIP3    H223762   3.271   3.144   8.594  0.4496  0.2826 -0.0240
  735TIP3   OH223763   6.081   1.166   1.151  0.6509  0.1670  0.3117
  735TIP3    H123764   6.038   1.250   1.138  1.8121  0.7391  0.0755
  735TIP3    H223765   6.034   1.126   1.225 -0.7797  0.4113 -0.4383
  736TIP3   OH223766   0.926   2.449   8.258 -0.6034  0.0381 -0.0908
  736TIP3    H123767   0.896   2.417   8.174 -0.5991 -0.2380  0.0120
  736TIP3    H223768   0.970   2.374   8.298 -0.7763  0.1101  0.2396
  737TIP3   OH223769   5.270   5.483   7.875  0.2494 -0.1151  0.4670
  737TIP3    H123770   5.360   5.458   7.894 -0.0221  0.6014  3.1238
  737TIP3    H223771   5.222   5.401   7.866  1.2267 -0.5032 -1.5269
  738TIP3   OH223772   4.479   3.217   8.105 -0.0039  0.2244 -0.0372
  738TIP3    H123773   4.572   3.239   8.103  0.1935 -0.5797 -2.3983
  738TIP3    H223774   4.434   3.300   8.088  0.2857  0.5288  0.6508
  739TIP3   OH223775   5.937   5.828   2.095  0.3701  0.0974 -0.5196
  739TIP3    H123776   5.926   5.810   2.002  0.9811 -0.6567 -0.4556
  739TIP3    H223777   6.029   5.854   2.104  0.4540 -0.3541 -0.0487
  740TIP3   OH223778   3.092   2.445   1.291 -0.1294  0.0740  0.4487
  740TIP3    H123779   3.064   2.493   1.214 -0.2810  2.4389  1.8740
  740TIP3    H223780   3.113   2.512   1.356  2.0264 -1.7368  1.8138
  741TIP3   OH223781   3.208   4.198   1.133  0.1016 -0.0395  0.1696
  741TIP3    H123782   3.253   4.114   1.142 -0.1195 -0.2650 -0.7651
  741TIP3    H223783   3.240   4.233   1.050  0.7329  1.1398  0.8701
  742TIP3   OH223784   4.110   6.001   0.828  1.0565 -0.1717 -0.4213
  742TIP3    H123785   4.109   5.982   0.922 -0.6590 -1.4545 -0.6432
  742TIP3    H223786   4.086   5.917   0.787  0.1511  0.7719 -1.9022
  743TIP3   OH223787   1.089   1.482   6.947 -0.1662  0.4516  0.3778
  743TIP3    H123788   1.037   1.411   6.909 -0.8976  2.2966 -2.3843
  743TIP3    H223789   1.170   1.483   6.896  0.5655  0.5412  1.5236
  744TIP3   OH223790   1.772   2.774   8.584  0.6252 -0.3703  0.0998
  744TIP3    H123791   1.819   2.749   8.663  1.8826  0.3055 -0.4089
  744TIP3    H223792   1.818   2.729   8.513  0.1019 -0.2228 -0.3431
  745TIP3   OH223793   2.425   1.759   6.898 -0.0782 -0.3635 -0.1817
  745TIP3    H123794   2.485   1.690   6.925  0.8557  0.4769 -0.0444
  745TIP3    H223795   2.482   1.833   6.876 -0.9601 -0.1159 -1.7896
  746TIP3   OH223796   2.851   4.833   1.024 -0.2665  0.0656  0.8803
  746TIP3    H123797   2.845   4.915   0.975  0.2107 -0.0835  0.5676
  746TIP3    H223798   2.776   4.782   0.993 -0.0060  0.0001  0.3452
  747TIP3   OH223799   1.629   0.435   7.864 -0.2584 -0.3725  0.1645
  747TIP3    H123800   1.698   0.388   7.912 -0.0326 -0.1004  0.1080
  747TIP3    H223801   1.587   0.367   7.812 -1.4554 -0.9489  1.8019
  748TIP3   OH223802   5.253   0.791   0.455  0.5847  0.0145  0.4459
  748TIP3    H123803   5.254   0.887   0.454  0.7925  0.0196  0.9578
  748TIP3    H223804   5.339   0.765   0.421 -0.5868 -0.0450 -2.8574
  749TIP3   OH223805   2.634   3.088   7.559  0.0600 -0.3023  0.3723
  749TIP3    H123806   2.665   3.039   7.635 -0.6968 -0.5107  0.5590
  749TIP3    H223807   2.563   3.034   7.523  0.0552  0.0544 -0.1600
  750TIP3   OH223808   0.580   2.669   8.557  0.3337 -0.1742  0.0174
  750TIP3    H123809   0.664   2.714   8.563  0.2980 -0.2601  1.6794
  750TIP3    H223810   0.522   2.719   8.613 -1.2473  0.8882 -2.4150
  751TIP3   OH223811   4.245   4.837   0.285  0.0174  0.1404 -0.5493
  751TIP3    H123812   4.219   4.849   0.376  1.6656 -2.3200  0.3347
  751TIP3    H223813   4.306   4.764   0.287 -0.9717 -0.9432 -3.8165
  752TIP3   OH223814   6.211   0.373   0.796 -0.2410  0.2466  0.1115
  752TIP3    H123815   6.151   0.329   0.856  0.9752 -1.8744 -0.1033
  752TIP3    H223816   6.186   0.341   0.709  0.9108 -0.3983 -0.0146
  753TIP3   OH223817   1.829   3.550   6.907  0.1640  0.2311  0.2790
  753TIP3    H123818   1.748   3.500   6.899  0.4931 -0.4755  1.1594
  753TIP3    H223819   1.809   3.616   6.974  0.0168  0.6809 -0.2086
  754TIP3   OH223820   5.758   0.460   8.585  0.4417  0.1562  0.4319
  754TIP3    H123821   5.826   0.394   8.599  1.5158  1.4082  1.3894
  754TIP3    H223822   5.758   0.475   8.490 -1.4517 -2.8203 -0.1718
  755TIP3   OH223823   1.174   1.210   6.838  0.6307 -0.0903 -0.1167
  755TIP3    H123824   1.224   1.264   6.776 -0.3879  0.4406 -0.4922
  755TIP3    H223825   1.239   1.148   6.873  1.1686 -0.6121 -1.9431
  756TIP3   OH223826   0.608   4.147   7.629 -0.2302 -0.2517 -0.2253
  756TIP3    H123827   0.639   4.173   7.542  0.5660 -1.1567 -0.2296
  756TIP3    H223828   0.596   4.230   7.676 -2.1414  0.3602 -1.6402
  757TIP3   OH223829   0.236   4.109   1.474 -0.1756 -0.5641  0.0349
  757TIP3    H123830   0.319   4.156   1.466  0.5135 -1.9776 -1.8562
  757TIP3    H223831   0.169   4.176   1.466  0.7702  0.4076  0.0525
  758TIP3   OH223832   4.522   1.249   0.177  0.7124 -0.5740 -0.2575
  758TIP3    H123833   4.538   1.174   0.235 -1.4489 -1.4218 -0.7005
  758TIP3    H223834   4.523   1.213   0.089 -0.4780 -0.1271 -0.4722
  759TIP3   OH223835   4.130   1.145   7.916  0.1357 -0.7029  0.0881
  759TIP3    H123836   4.097   1.223   7.959 -1.0020 -1.7775  1.2188
  759TIP3    H223837   4.149   1.084   7.987  0.4350 -1.6891 -0.8081
  760TIP3   OH223838   3.031   4.458   8.650 -0.0327 -0.1872 -0.3564
  760TIP3    H123839   3.096   4.400   8.610  0.8753  0.0260  0.7630
  760TIP3    H223840   2.948   4.433   8.609  0.6622 -0.8633 -1.3861
  761TIP3   OH223841   1.644   5.552   0.456 -0.3711  0.2860 -0.1833
  761TIP3    H123842   1.567   5.603   0.431  0.2576  1.8467  0.8789
  761TIP3    H223843   1.666   5.583   0.544  0.8718 -0.8589 -0.0533
  762TIP3   OH223844   4.695   3.940   7.868 -0.0486 -0.0114  0.4705
  762TIP3    H123845   4.735   3.977   7.946  0.7076 -0.3444  0.2471
  762TIP3    H223846   4.628   4.004   7.843 -1.1611 -0.4815  2.0794
  763TIP3   OH223847   1.539   2.245   6.235  0.0949  0.0675 -0.3265
  763TIP3    H123848   1.619   2.216   6.192  0.1568  0.3339 -0.3907
  763TIP3    H223849   1.569   2.311   6.298 -0.3090  1.9152 -1.9657
  764TIP3   OH223850   6.308   2.628   8.168  0.0409  0.2149  0.4477
  764TIP3    H123851   6.339   2.627   8.258  1.7367  0.5323 -0.0852
  764TIP3    H223852   6.343   2.547   8.130  0.0956  0.5123 -0.1503
  765TIP3   OH223853   3.012   0.350   7.191  0.3749 -0.3987 -0.1067
  765TIP3    H123854   2.996   0.267   7.236 -0.3382 -0.4956 -0.5324
  765TIP3    H223855   2.941   0.358   7.128 -0.0156  0.9193  0.4583
  766TIP3   OH223856   3.528   5.263   1.185  0.6033  0.4384 -0.0400
  766TIP3    H123857   3.568   5.347   1.162  1.1311 -0.0317 -0.8674
  766TIP3    H223858   3.564   5.201   1.122  0.8011 -0.5695  1.0408
  767TIP3   OH223859   5.232   6.659   2.161 -0.2264 -0.0253  0.6026
  767TIP3    H123860   5.229   6.564   2.149  3.3204 -0.1894 -0.1535
  767TIP3    H223861   5.143   6.684   2.185 -1.1950 -3.5612  1.1331
  768TIP3   OH223862   6.643   2.569   0.947 -0.3066 -0.0672  0.4973
  768TIP3    H123863   6.640   2.660   0.917  1.8600  0.0916  0.5708
  768TIP3    H223864   6.570   2.562   1.008  1.0660  2.4597  2.6378
  769TIP3   OH223865   5.817   1.055   8.515 -0.0948 -0.3413  0.7741
  769TIP3    H123866   5.857   1.134   8.478  0.5510  1.3147  4.5287
  769TIP3    H223867   5.723   1.072   8.513 -0.2579 -1.1334 -1.5991
  770TIP3   OH223868   2.728   3.059   1.257  0.7474 -0.2183  0.2869
  770TIP3    H123869   2.708   3.122   1.188 -0.8080 -1.4044 -0.3875
  770TIP3    H223870   2.721   3.110   1.338 -2.9393  0.0750 -0.0250
  771TIP3   OH223871   6.371   1.335   1.252  0.8659 -0.6099 -0.2677
  771TIP3    H123872   6.318   1.294   1.184  1.9624 -1.7418 -0.4559
  771TIP3    H223873   6.417   1.406   1.207  0.4289 -0.3851 -0.3640
  772TIP3   OH223874   6.739   3.967   7.969 -0.1680 -0.0829  0.3942
  772TIP3    H123875   6.702   3.959   7.881 -0.5672 -0.3054  0.5789
  772TIP3    H223876   6.669   4.007   8.021  0.0405 -0.0184  0.6261
  773TIP3   OH223877   2.631   4.073   2.169  0.2919 -0.4476  0.3201
  773TIP3    H123878   2.596   3.987   2.190  0.5328 -0.4215  0.8436
  773TIP3    H223879   2.699   4.088   2.234  0.5399 -0.0389 -0.0253
  774TIP3   OH223880   1.351   2.906   7.641 -0.0375  0.1976 -0.6211
  774TIP3    H123881   1.437   2.948   7.640  0.5354 -0.9131 -2.5616
  774TIP3    H223882   1.358   2.840   7.709  0.9652 -0.4528 -1.3232
  775TIP3   OH223883   5.573   4.026   6.716  0.4593  0.0269 -0.9117
  775TIP3    H123884   5.646   4.078   6.683  0.0400  0.8903 -0.5027
  775TIP3    H223885   5.608   3.937   6.721  1.8884  0.5972  0.4061
  776TIP3   OH223886   0.547   4.411   2.737 -0.3684 -0.1315  0.1151
  776TIP3    H123887   0.590   4.491   2.708  0.8999 -0.9920 -0.4593
  776TIP3    H223888   0.457   4.419   2.705  0.1061  0.4558 -1.1279
  777TIP3   OH223889   6.201   5.884   6.938 -0.3119  0.6209 -0.8891
  777TIP3    H123890   6.109   5.888   6.914 -0.3833  1.7291 -0.4679
  777TIP3    H223891   6.206   5.925   7.024  0.2804 -1.2522  0.0447
  778TIP3   OH223892   0.993   1.656   8.050  0.0076  0.1792 -0.3998
  778TIP3    H123893   0.911   1.673   8.002 -1.4253 -1.9766  1.1321
  778TIP3    H223894   1.037   1.589   7.999 -0.1654 -0.1070 -0.1747
  779TIP3   OH223895   1.076   2.661   6.711 -0.0447  0.4050 -0.6609
  779TIP3    H123896   1.068   2.566   6.724  1.2331  0.2772 -0.6829
  779TIP3    H223897   1.071   2.672   6.616  2.9152 -0.0304 -0.9684
  780TIP3   OH223898   1.226   0.240   7.008 -0.0960 -0.2578  0.5289
  780TIP3    H123899   1.166   0.181   7.054  0.1881 -0.2772  0.8755
  780TIP3    H223900   1.185   0.326   7.018 -1.3779 -0.5906 -1.3854
  781TIP3   OH223901   0.581   4.001   0.711 -0.2032  0.1308 -0.0446
  781TIP3    H123902   0.581   4.094   0.689 -0.1512  0.4657  1.2512
  781TIP3    H223903   0.622   3.958   0.636 -0.6827  1.0925 -0.8795
  782TIP3   OH223904   0.923   2.879   8.167  0.3030  0.1707 -0.7800
  782TIP3    H123905   0.949   2.960   8.124 -1.5240  0.5072 -1.3201
  782TIP3    H223906   0.902   2.905   8.257 -1.0020  0.4648 -1.1514
  783TIP3   OH223907   4.020   6.313   8.297 -0.5481 -0.0636  0.4950
  783TIP3    H123908   3.927   6.320   8.276 -0.1649 -0.1782 -1.5188
  783TIP3    H223909   4.064   6.346   8.218  1.1113  0.2159  1.5032
  784TIP3   OH223910   4.269   4.762   7.665 -0.4765 -0.9962  0.0523
  784TIP3    H123911   4.213   4.724   7.598 -0.7189  0.2821 -0.5109
  784TIP3    H223912   4.216   4.760   7.745 -0.7983 -1.0847 -0.1635
  785TIP3   OH223913   6.567   0.446   7.253 -0.0518  0.3581  0.0049
  785TIP3    H123914   6.607   0.436   7.167  1.1798  1.3432  0.4369
  785TIP3    H223915   6.606   0.526   7.289 -1.8579  0.9543  0.7635
  786TIP3   OH223916   3.195   4.660   6.644  0.2748  0.5775 -0.1086
  786TIP3    H123917   3.105   4.686   6.661  0.3601  0.4017  0.6437
  786TIP3    H223918   3.245   4.741   6.651  0.2304  0.6036 -0.0925
  787TIP3   OH223919   2.993   5.673   1.047 -0.4125 -0.3281  0.1057
  787TIP3    H123920   2.963   5.709   1.131 -0.1432  0.8260 -0.2776
  787TIP3    H223921   3.081   5.708   1.035 -1.7670  2.7285 -2.4067
  788TIP3   OH223922   4.377   6.387   6.786 -0.2226 -0.2084  0.5795
  788TIP3    H123923   4.392   6.298   6.817  2.7596 -0.0337 -0.0736
  788TIP3    H223924   4.319   6.377   6.710 -0.3188 -1.5137  0.8010
  789TIP3   OH223925   6.656   5.665   0.485 -0.0989 -0.1545 -0.5753
  789TIP3    H123926   6.578   5.632   0.440 -0.1421  0.2336 -0.7901
  789TIP3    H223927   6.680   5.595   0.545  0.8788 -1.3370 -2.2739
  790TIP3   OH223928   1.590   5.424   7.726 -0.5569  0.3504  0.6252
  790TIP3    H123929   1.636   5.462   7.651 -0.9544  2.1126  1.2222
  790TIP3    H223930   1.649   5.438   7.800  0.3079 -2.3413  0.5340
  791TIP3   OH223931   3.374   5.598   8.386  0.7657 -0.1329 -0.4126
  791TIP3    H123932   3.321   5.635   8.315  2.3365  2.1880 -0.4753
  791TIP3    H223933   3.339   5.509   8.398 -2.0418  0.7192 -1.4843
  792TIP3   OH223934   4.352   0.023   8.340  0.4435 -0.0036  0.3096
  792TIP3    H123935   4.300   0.054   8.266  0.0248  0.4173  0.7761
  792TIP3    H223936   4.324  -0.068   8.353  0.3422 -0.0012  0.1117
  793TIP3   OH223937   2.654   4.237   0.451  0.0608 -0.7874 -0.0036
  793TIP3    H123938   2.569   4.206   0.421  0.7695 -1.1483 -1.7966
  793TIP3    H223939   2.658   4.329   0.423  1.2184 -1.4628 -2.3158
  794TIP3   OH223940   6.606   0.144   6.416  0.0824  0.2305  0.0049
  794TIP3    H123941   6.552   0.088   6.361  1.9524 -1.0688 -0.5895
  794TIP3    H223942   6.644   0.208   6.355 -0.0012  0.5318  0.2634
  795TIP3   OH223943   5.170   0.686   2.135 -0.2117 -0.0793 -0.0802
  795TIP3    H123944   5.142   0.735   2.058  0.2044  0.0382 -0.1610
  795TIP3    H223945   5.109   0.613   2.141 -0.9014  0.5111  0.1078
  796TIP3   OH223946   4.386   5.804   7.269  0.0779  0.4568 -0.2828
  796TIP3    H123947   4.349   5.798   7.357  0.1423 -0.5607 -0.3214
  796TIP3    H223948   4.420   5.717   7.250  1.2184  0.9932 -0.8217
  797TIP3   OH223949   5.935   5.186   0.329  0.0878 -0.0151 -0.9583
  797TIP3    H123950   5.917   5.279   0.340  2.0144  0.1945  1.1537
  797TIP3    H223951   6.031   5.179   0.329 -0.0007 -1.9500 -1.4403
  798TIP3   OH223952   4.790   0.575   1.954  0.4146  0.0130  0.3133
  798TIP3    H123953   4.753   0.542   1.872  1.3300  1.3586 -0.6813
  798TIP3    H223954   4.879   0.541   1.956  0.9606  1.3400 -0.1231
  799TIP3   OH223955   5.327   5.521   1.663  0.1920 -0.3032  0.0039
  799TIP3    H123956   5.358   5.545   1.575 -0.0229 -1.2849 -0.3470
  799TIP3    H223957   5.246   5.473   1.647  0.2777 -0.6939  0.7295
  800TIP3   OH223958   5.604   6.524   8.141 -0.6924  0.7082  0.4407
  800TIP3    H123959   5.589   6.451   8.080 -1.5911  0.9110  0.4142
  800TIP3    H223960   5.604   6.602   8.085  4.6258  0.5450 -0.2918
  801TIP3   OH223961   2.213   0.476   6.820 -0.2654  0.0205 -0.1168
  801TIP3    H123962   2.176   0.388   6.822 -0.7500  0.2110 -0.5547
  801TIP3    H223963   2.138   0.534   6.832  0.2991  0.3392  2.4003
  802TIP3   OH223964   2.635   3.066   8.443 -0.3717  0.7007  0.0201
  802TIP3    H123965   2.650   3.018   8.361 -1.5855  0.6275 -0.1677
  802TIP3    H223966   2.694   3.142   8.437 -1.6319  1.6082 -1.6885
  803TIP3   OH223967   1.459   1.580   7.618  0.3643 -0.4168 -0.0949
  803TIP3    H123968   1.410   1.531   7.684  0.3005  0.0204  0.1843
  803TIP3    H223969   1.474   1.666   7.658  1.4025 -0.5637 -0.1606
  804TIP3   OH223970   2.043   0.155   8.313  0.0703 -0.4676  0.5381
  804TIP3    H123971   2.009   0.243   8.301 -0.2357 -0.7649 -1.0783
  804TIP3    H223972   2.134   0.160   8.285 -0.3132 -0.9163 -0.9009
  805TIP3   OH223973   3.182   0.751   6.463  0.4396 -0.1333  0.1944
  805TIP3    H123974   3.207   0.789   6.379 -0.9453  1.0922  0.2893
  805TIP3    H223975   3.250   0.687   6.482  0.9541 -0.1912 -1.6882
  806TIP3   OH223976   5.124   5.351   6.739  0.1435 -0.3070  0.0180
  806TIP3    H123977   5.143   5.435   6.782  1.4326  0.1487 -1.3641
  806TIP3    H223978   5.036   5.363   6.703 -1.0442 -0.7566  2.5519
  807TIP3   OH223979   0.257   1.560   1.103 -0.0459  0.2712  0.0852
  807TIP3    H123980   0.351   1.574   1.091  0.0649  0.1400  0.7659
  807TIP3    H223981   0.223   1.642   1.138 -0.4489  0.8040 -1.4753
  808TIP3   OH223982   3.701   4.145   0.159  0.1840 -0.3734  0.0876
  808TIP3    H123983   3.694   4.179   0.248 -0.6280 -1.2755  0.3929
  808TIP3    H223984   3.755   4.066   0.168  0.8390  0.0113 -0.3732
  809TIP3   OH223985   0.616   1.712   0.764 -0.2429 -0.1251 -0.0418
  809TIP3    H123986   0.559   1.644   0.729 -1.7755  1.0031  0.1923
  809TIP3    H223987   0.667   1.741   0.688 -0.9847 -0.1848 -0.5771
  810TIP3   OH223988   6.099   4.155   2.417  0.3674 -0.1891 -0.3371
  810TIP3    H123989   6.055   4.125   2.496  1.0042  3.7958  1.8135
  810TIP3    H223990   6.190   4.168   2.444  1.1473 -0.7729 -2.4276
  811TIP3   OH223991   5.045   3.018   1.959  0.0841  0.2143  0.0037
  811TIP3    H123992   5.118   3.038   1.902 -0.6526 -0.0365 -1.0616
  811TIP3    H223993   5.064   2.931   1.993  1.3504  1.0219  1.5261
  812TIP3   OH223994   0.463   0.864   8.166 -0.5678  0.3304 -0.1842
  812TIP3    H123995   0.478   0.795   8.230 -1.4682 -0.0520 -0.3697
  812TIP3    H223996   0.534   0.927   8.180 -0.5320  0.0505  0.9125
  813TIP3   OH223997   4.969   1.977   6.465  0.5675 -0.3488 -0.3364
  813TIP3    H123998   4.922   2.056   6.493  1.7560  0.7393 -1.2787
  813TIP3    H223999   5.051   2.009   6.430  1.1408 -2.0430 -0.6508
  814TIP3   OH224000   2.910   4.551   2.037  0.4453 -0.3312  0.2330
  814TIP3    H124001   3.001   4.573   2.053  0.3960  1.3133 -1.4446
  814TIP3    H224002   2.895   4.573   1.945 -1.1415 -2.4071 -0.0925
  815TIP3   OH224003   0.553   2.485   1.216 -0.4680 -0.0371  0.1381
  815TIP3    H124004   0.469   2.475   1.261 -0.1058  1.8310  1.3627
  815TIP3    H224005   0.552   2.574   1.182  0.5620 -0.3698 -0.8488
  816TIP3   OH224006   1.711   4.648   0.888  0.3650 -0.0075  0.4249
  816TIP3    H124007   1.797   4.606   0.877  0.2272  0.3872 -3.0976
  816TIP3    H224008   1.648   4.578   0.873  0.0862  0.3126  0.1063
  817TIP3   OH224009   3.381   5.639   2.406 -0.8131 -0.6066  0.1663
  817TIP3    H124010   3.375   5.609   2.316 -1.1683  1.9277 -0.7291
  817TIP3    H224011   3.293   5.625   2.442 -0.8772 -0.9223 -0.1093
  818TIP3   OH224012   3.289   4.928   6.620 -0.2020  0.2222 -0.7354
  818TIP3    H124013   3.375   4.928   6.578 -0.2523  1.0305 -0.8591
  818TIP3    H224014   3.273   5.020   6.642 -0.2892 -0.1495  0.8574
  819TIP3   OH224015   1.273   5.103   8.281 -0.5225  0.2118  0.1405
  819TIP3    H124016   1.201   5.053   8.244 -0.1894 -0.0324 -0.1928
  819TIP3    H224017   1.348   5.043   8.277 -0.7406 -0.3146  2.4177
  820TIP3   OH224018   2.548   6.311   1.683 -0.2496 -0.2281  0.1334
  820TIP3    H124019   2.593   6.395   1.675  0.8090 -0.6844  0.9410
  820TIP3    H224020   2.609   6.247   1.645 -1.5680 -0.5092 -1.6357
  821TIP3   OH224021   2.017   5.743   8.581 -0.2274  0.3017 -0.0234
  821TIP3    H124022   2.036   5.652   8.556  0.1132  0.1709  0.6675
  821TIP3    H224023   2.029   5.793   8.501  1.9657  0.0534  0.0688
  822TIP3   OH224024   3.694   1.768   7.060  0.4105  0.1387 -0.1253
  822TIP3    H124025   3.770   1.752   7.004 -0.1287 -0.4173 -0.7310
  822TIP3    H224026   3.636   1.693   7.043 -1.1597  1.5285 -1.2141
  823TIP3   OH224027   0.337   4.229   2.588  0.2278  0.5375  0.2342
  823TIP3    H124028   0.259   4.219   2.644 -0.3074 -0.4283 -0.6541
  823TIP3    H224029   0.350   4.324   2.584 -0.7242  0.7062  0.6408
  824TIP3   OH224030   4.880   4.114   2.602 -0.3307  0.4052 -0.0287
  824TIP3    H124031   4.846   4.204   2.601  1.1660  1.0089 -0.2781
  824TIP3    H224032   4.943   4.114   2.674  0.2522 -0.2090 -0.5220
  825TIP3   OH224033   3.492   2.901   8.221 -0.0155 -0.0495 -0.3153
  825TIP3    H124034   3.437   2.973   8.252  2.1023  1.3326  0.4747
  825TIP3    H224035   3.468   2.827   8.276 -0.3173  0.8132  0.7596
  826TIP3   OH224036   0.428   3.147   1.693  0.9124  0.7246 -0.7923
  826TIP3    H124037   0.461   3.170   1.780 -0.5391  1.2306 -0.3536
  826TIP3    H224038   0.464   3.060   1.675 -0.7858 -0.5143  1.4080
  827TIP3   OH224039   3.450   3.807   1.616  0.5245 -0.2148 -0.3737
  827TIP3    H124040   3.459   3.749   1.691  3.8310  0.6399  0.0780
  827TIP3    H224041   3.463   3.895   1.652  1.1324  0.3047 -1.7859
  828TIP3   OH224042   2.941   4.646   6.839 -0.1750 -0.4294  0.0983
  828TIP3    H124043   2.956   4.553   6.860  0.0093 -0.7865 -1.5076
  828TIP3    H224044   2.869   4.645   6.777  0.7553  0.3650 -1.0403
  829TIP3   OH224045   2.015   3.307   2.136 -0.3220 -0.1894  0.1014
  829TIP3    H124046   2.037   3.261   2.055 -1.0380 -2.0287  0.9019
  829TIP3    H224047   1.944   3.366   2.112  1.6398  1.7253 -1.2868
  830TIP3   OH224048   5.806   5.847   1.804 -0.2022  0.5949  0.5156
  830TIP3    H124049   5.775   5.935   1.829 -1.4332  1.0014 -2.1057
  830TIP3    H224050   5.732   5.809   1.756  0.7727 -1.4110  0.5214
  831TIP3   OH224051   1.402   0.181   1.048 -0.2100  0.3329  1.0782
  831TIP3    H124052   1.383   0.220   0.962  3.4801  0.2311  0.0614
  831TIP3    H224053   1.415   0.088   1.029 -1.2908 -0.0530  2.1425
  832TIP3   OH224054   0.721   6.403   8.071 -0.7023  0.2042 -0.1226
  832TIP3    H124055   0.758   6.329   8.023  0.2325  0.6158 -0.0542
  832TIP3    H224056   0.796   6.458   8.091 -1.0580  0.0420  1.8352
  833TIP3   OH224057   6.591   5.970   2.262  0.7101 -0.4759 -0.2022
  833TIP3    H124058   6.668   6.028   2.268  0.5408 -0.2473 -0.2132
  833TIP3    H224059   6.527   6.021   2.213 -0.5624  0.5732  2.3728
  834TIP3   OH224060   1.997   4.319   0.707  0.5895 -0.4637  0.2159
  834TIP3    H124061   1.985   4.310   0.612  2.0677  1.2424 -0.1815
  834TIP3    H224062   2.063   4.387   0.716 -0.6641  0.5464  2.5303
  835TIP3   OH224063   0.945   1.967   8.093 -0.1116  0.8872 -0.7293
  835TIP3    H124064   0.994   1.937   8.017 -1.3740 -0.5448 -1.0344
  835TIP3    H224065   1.011   1.998   8.155  1.2948 -1.8687 -0.7128
  836TIP3   OH224066   2.825   3.462   0.305  0.1206  0.2648  0.9344
  836TIP3    H124067   2.895   3.487   0.364 -0.8595  0.9375  1.8523
  836TIP3    H224068   2.816   3.537   0.246  1.4374 -0.6084 -0.4557
  837TIP3   OH224069   5.914   4.269   0.859 -0.0853 -0.4602  0.2437
  837TIP3    H124070   5.886   4.182   0.834  0.9304 -0.4409 -1.0625
  837TIP3    H224071   6.005   4.258   0.886  0.3565  0.3352 -0.8648
  838TIP3   OH224072   4.873   4.330   2.041  0.1277  0.2365  0.2325
  838TIP3    H124073   4.844   4.246   2.076  1.1450  0.0943  0.7924
  838TIP3    H224074   4.930   4.366   2.110  0.1152  1.1394 -0.2171
  839TIP3   OH224075   4.083   3.609   7.594 -0.2030 -1.0104  0.2096
  839TIP3    H124076   4.106   3.524   7.633 -2.1582 -1.4953  0.4177
  839TIP3    H224077   4.082   3.670   7.668  1.6747 -0.6464 -0.0084
  840TIP3   OH224078   2.321   3.504   0.445 -0.6988  0.2505 -0.1500
  840TIP3    H124079   2.297   3.589   0.407 -0.7912  0.5244  0.5055
  840TIP3    H224080   2.387   3.469   0.386  1.3942  2.0282  1.0005
  841TIP3   OH224081   0.010   6.679   8.001  0.5853 -0.5213 -0.1239
  841TIP3    H124082   0.013   6.708   8.092  0.7336 -0.9313  0.0026
  841TIP3    H224083   0.067   6.740   7.954  0.2683 -0.1235  0.0026
  842TIP3   OH224084   4.793   4.047   8.112 -0.7727 -0.3800  0.0195
  842TIP3    H124085   4.783   4.140   8.093 -2.5830 -0.5082  0.1580
  842TIP3    H224086   4.774   4.040   8.206  2.4431 -0.5119  0.7695
  843TIP3   OH224087   5.130   0.604   7.568  0.7395 -0.1718 -0.1407
  843TIP3    H124088   5.038   0.578   7.563  0.5413  0.4784 -0.0137
  843TIP3    H224089   5.171   0.538   7.623  0.3665 -0.5149 -0.2709
  844TIP3   OH224090   4.415   4.961   7.269  0.2723 -0.6884  0.2181
  844TIP3    H124091   4.346   4.939   7.332  0.2227  1.2981  0.9395
  844TIP3    H224092   4.392   4.912   7.190 -1.3705 -0.9070  0.7898
  845TIP3   OH224093   4.418   3.365   1.689  0.1565 -0.5036  0.8390
  845TIP3    H124094   4.338   3.317   1.666 -0.8209  0.1773  2.6446
  845TIP3    H224095   4.488   3.300   1.678 -0.2414 -0.5312 -2.9347
  846TIP3   OH224096   3.865   5.926   0.400 -0.3282 -0.8638 -0.2159
  846TIP3    H124097   3.899   6.010   0.430 -3.2758  0.2339  0.4430
  846TIP3    H224098   3.912   5.861   0.452  1.3238  0.4037 -0.0367
  847TIP3   OH224099   1.759   0.177   1.271  0.4479 -0.4594  0.4276
  847TIP3    H124100   1.817   0.247   1.301  0.0552  0.4166 -0.7638
  847TIP3    H224101   1.675   0.195   1.315  0.2180  0.1149 -0.2142
  848TIP3   OH224102   6.214   1.004   8.232 -0.7259  0.4006  0.3913
  848TIP3    H124103   6.197   0.948   8.307 -0.4335 -0.0634  0.1146
  848TIP3    H224104   6.266   1.076   8.267 -1.8194  0.9645  0.9157
  849TIP3   OH224105   6.200   0.598   2.001  0.2735  0.0288  0.1161
  849TIP3    H124106   6.138   0.596   2.074  1.6513 -0.4173  1.3229
  849TIP3    H224107   6.227   0.689   1.995  0.5780 -0.0277  0.5545
  850TIP3   OH224108   0.165   3.743   8.008  0.4736  0.4493 -0.4542
  850TIP3    H124109   0.242   3.691   7.984  0.0358 -0.4683  0.0683
  850TIP3    H224110   0.187   3.781   8.092  0.2798 -0.0039 -0.1923
  851TIP3   OH224111   1.116   1.324   8.269  0.3287 -0.4069 -0.1934
  851TIP3    H124112   1.026   1.315   8.238  1.3288 -0.2199 -3.5525
  851TIP3    H224113   1.119   1.274   8.350 -2.3458 -1.9551 -0.9501
  852TIP3   OH224114   5.247   6.157   1.427 -0.0217 -0.5536 -0.6500
  852TIP3    H124115   5.188   6.165   1.502  1.8261 -0.7490  0.8944
  852TIP3    H224116   5.285   6.245   1.417 -0.7244 -0.3602 -1.8001
  853TIP3   OH224117   2.496   2.881   8.292  0.0489  0.0731  0.0432
  853TIP3    H124118   2.470   2.796   8.329 -0.5058  0.4444  0.5204
  853TIP3    H224119   2.413   2.928   8.279  0.3750  0.6735  0.1009
  854TIP3   OH224120   6.383   0.535   8.656  0.0148 -0.3149 -0.8243
  854TIP3    H124121   6.406   0.625   8.634  0.3530  0.1580  1.2021
  854TIP3    H224122   6.290   0.538   8.677  0.3497 -0.0509  0.7780
  855TIP3   OH224123   0.796   5.182   7.852 -0.0750 -0.1317 -0.4436
  855TIP3    H124124   0.782   5.157   7.943 -1.0507  0.3713 -0.4406
  855TIP3    H224125   0.867   5.246   7.856 -0.1824 -0.0350 -0.0222
  856TIP3   OH224126   5.028   1.768   7.780 -0.2586 -0.2561  0.5333
  856TIP3    H124127   5.023   1.835   7.712  1.1386 -0.5572  0.0845
  856TIP3    H224128   5.093   1.706   7.747  1.0327 -0.0246  2.4688
  857TIP3   OH224129   6.721   3.231   7.963  0.1579 -0.3801 -0.6434
  857TIP3    H124130   6.763   3.239   7.877 -0.2624 -1.2048 -0.9445
  857TIP3    H224131   6.648   3.172   7.947  0.1111 -0.5845  0.3005
  858TIP3   OH224132   1.306   2.290   8.340 -1.0072  0.0672  0.3057
  858TIP3    H124133   1.279   2.370   8.384 -1.2069 -0.4858  1.2195
  858TIP3    H224134   1.303   2.223   8.409 -4.6966 -1.6021 -1.1698
  859TIP3   OH224135   0.287   3.440   1.645  0.0070  0.1784  0.2422
  859TIP3    H124136   0.352   3.460   1.713 -0.9661 -0.4847  1.4151
  859TIP3    H224137   0.216   3.502   1.662 -1.3914 -1.6624  1.5458
  860TIP3   OH224138   6.679   1.489   2.403  0.0262 -0.3122 -0.3228
  860TIP3    H124139   6.598   1.542   2.402 -0.1049 -0.5072 -0.1797
  860TIP3    H224140   6.682   1.453   2.492  0.6662  0.3023 -0.0903
  861TIP3   OH224141   4.997   0.069   0.617 -0.4446  0.5724  0.3304
  861TIP3    H124142   4.982   0.068   0.711 -2.3925 -0.2259  0.0638
  861TIP3    H224143   4.953  -0.010   0.585  2.8654 -0.9685 -0.9088
  862TIP3   OH224144   1.645   0.247   0.836  0.1836 -0.3014 -0.1376
  862TIP3    H124145   1.554   0.249   0.809 -0.6548 -0.0744  2.4080
  862TIP3    H224146   1.661   0.155   0.860  0.3734 -0.2006  0.1353
  863TIP3   OH224147   0.825   3.971   1.654  0.4266 -0.4033  0.2527
  863TIP3    H124148   0.762   3.905   1.683  0.3753 -0.0491  0.9689
  863TIP3    H224149   0.846   3.947   1.563 -0.9236 -0.3998 -0.0819
  864TIP3   OH224150   3.969   0.716   7.934  0.3490 -0.7736 -0.3372
  864TIP3    H124151   4.045   0.659   7.928  1.2202  0.3754 -0.5157
  864TIP3    H224152   3.969   0.767   7.853 -0.1677 -0.2346 -0.0132
  865TIP3   OH224153   3.766   2.262   7.519  0.1711 -0.0283  0.2799
  865TIP3    H124154   3.832   2.315   7.476  1.0224  0.2272  1.8194
  865TIP3    H224155   3.713   2.227   7.448  0.5001  1.6670 -0.8569
  866TIP3   OH224156   0.270   1.417   1.327 -0.4799 -0.4168  0.0713
  866TIP3    H124157   0.344   1.358   1.311 -0.9707 -0.8889 -0.5095
  866TIP3    H224158   0.249   1.453   1.241  0.4560  1.4235  0.5636
  867TIP3   OH224159   5.860   3.991   0.285 -0.2805  0.3088 -0.0315
  867TIP3    H124160   5.914   4.068   0.269 -0.0777  0.4428  1.2076
  867TIP3    H224161   5.886   3.929   0.217  1.3348  0.4229  0.4459
  868TIP3   OH224162   5.649   0.528   7.051 -0.1049 -0.1408  0.3860
  868TIP3    H124163   5.669   0.515   6.958  2.3367  1.0100  0.6668
  868TIP3    H224164   5.579   0.593   7.051 -1.2327 -1.2917 -0.6370
  869TIP3   OH224165   1.336   1.414   1.927 -0.1740  0.6154  0.1402
  869TIP3    H124166   1.346   1.325   1.894  2.7260  0.6581  0.6735
  869TIP3    H224167   1.361   1.409   2.019  0.1656  1.9849  0.1501
  870TIP3   OH224168   3.670   6.603   8.455  0.1406  0.1052  0.0622
  870TIP3    H124169   3.698   6.523   8.410 -0.0432  0.5158 -0.8078
  870TIP3    H224170   3.659   6.577   8.546 -0.4298 -0.9837 -0.3038
  871TIP3   OH224171   1.384   1.900   6.932 -0.0596 -0.8008 -0.0334
  871TIP3    H124172   1.322   1.936   6.869  1.2894  1.3604 -0.2421
  871TIP3    H224173   1.346   1.919   7.018 -0.2960 -0.6319 -0.1753
  872TIP3   OH224174   3.469   3.254   1.937 -0.0999  0.4591 -0.3010
  872TIP3    H124175   3.486   3.193   2.009  0.5334  0.8507 -0.1056
  872TIP3    H224176   3.556   3.286   1.913 -0.4606  1.6407 -0.0807
  873TIP3   OH224177   0.379   2.426   6.996 -0.6316  0.1994  0.3519
  873TIP3    H124178   0.433   2.406   6.920 -1.1309 -0.6649  0.2152
  873TIP3    H224179   0.315   2.489   6.964 -1.6916 -1.1767 -0.3097
  874TIP3   OH224180   5.499   3.625   1.518 -0.3553  0.7337  0.6064
  874TIP3    H124181   5.427   3.653   1.461  0.8791 -0.2801 -1.5849
  874TIP3    H224182   5.459   3.562   1.578 -1.6136  1.4682  0.5596
  875TIP3   OH224183   1.829   3.660   0.735 -0.1111 -0.1785  0.4385
  875TIP3    H124184   1.849   3.746   0.772 -0.3815  0.3291 -0.5528
  875TIP3    H224185   1.795   3.679   0.647  0.9002 -1.3486 -0.2507
  876TIP3   OH224186   2.814   4.049   2.416 -0.0434  0.4828 -0.1151
  876TIP3    H124187   2.780   4.122   2.468 -1.6448  0.4754 -1.0894
  876TIP3    H224188   2.818   3.975   2.478 -1.0731  0.6973  0.2206
  877TIP3   OH224189   5.072   3.793   0.033 -0.0287  0.2978  0.6571
  877TIP3    H124190   5.032   3.867   0.078  1.2832  1.3234  0.2089
  877TIP3    H224191   5.167   3.806   0.043  0.3552  0.6165 -2.3345
  878TIP3   OH224192   5.763   0.542   1.111 -0.1493  0.7080 -0.4602
  878TIP3    H124193   5.857   0.562   1.110  0.5520 -2.2227 -1.5890
  878TIP3    H224194   5.744   0.515   1.200  0.2269  0.6761 -0.3913
  879TIP3   OH224195   1.377   3.490   7.717 -0.6611  0.4527 -0.2186
  879TIP3    H124196   1.337   3.405   7.699 -0.7327  0.2962  0.6491
  879TIP3    H224197   1.304   3.546   7.743 -0.6520  0.8619 -1.0705
  880TIP3   OH224198   1.947   2.241   6.464 -0.0759 -0.3489 -1.0310
  880TIP3    H124199   1.903   2.309   6.514  2.5196 -0.8739  2.2924
  880TIP3    H224200   1.895   2.162   6.479  0.4062 -0.3942  0.5496
  881TIP3   OH224201   5.624   3.837   7.017  0.1265 -0.2052 -0.5442
  881TIP3    H124202   5.719   3.850   7.021  0.1282 -0.4202  0.1711
  881TIP3    H224203   5.613   3.751   6.977  0.3117 -1.2832  1.5981
  882TIP3   OH224204   4.263   4.393   6.857  0.1302  0.2740 -0.1112
  882TIP3    H124205   4.350   4.363   6.830  0.0153 -0.0723 -0.0992
  882TIP3    H224206   4.215   4.406   6.775 -0.0127 -0.1600 -0.0992
  883TIP3   OH224207   6.093   5.145   7.601  0.2693  0.0735 -0.0216
  883TIP3    H124208   6.165   5.104   7.553  0.7087  0.4469  0.3026
  883TIP3    H224209   6.131   5.165   7.687 -0.2050  0.3281  0.1313
  884TIP3   OH224210   2.611   0.778   0.252 -0.5064  0.3574 -0.1169
  884TIP3    H124211   2.563   0.854   0.284  0.2956  0.6467  0.4261
  884TIP3    H224212   2.543   0.714   0.232 -1.0737  0.0670  2.3995
  885TIP3   OH224213   0.342   1.668   0.367 -0.4400 -0.2102  0.0097
  885TIP3    H124214   0.410   1.611   0.332 -1.1062 -1.7104  1.0494
  885TIP3    H224215   0.263   1.644   0.318 -0.5589  0.3991 -0.1021
  886TIP3   OH224216   4.811   1.876   7.581 -0.2439  0.2493  0.5990
  886TIP3    H124217   4.786   1.784   7.585  1.8571 -0.3359  1.9073
  886TIP3    H224218   4.881   1.879   7.515 -0.5374  0.9734  0.3144
  887TIP3   OH224219   0.313   2.724   8.054 -0.6225 -0.2777  0.2217
  887TIP3    H124220   0.247   2.761   7.995 -0.0964 -0.0373 -0.2247
  887TIP3    H224221   0.334   2.795   8.114 -0.1744 -0.0821 -0.1550
  888TIP3   OH224222   5.241   5.118   1.335 -0.4567 -0.3753 -0.7682
  888TIP3    H124223   5.255   5.034   1.293 -0.8568 -0.6771 -0.3127
  888TIP3    H224224   5.305   5.177   1.295  2.1845 -1.7038  1.2643
  889TIP3   OH224225   3.655   5.098   0.137 -0.2575 -0.2291 -0.6474
  889TIP3    H124226   3.739   5.101   0.183  0.1918 -0.0925 -1.4566
  889TIP3    H224227   3.679   5.097   0.044 -1.1397  3.3069 -1.0856
  890TIP3   OH224228   1.074   5.095   7.954 -0.0985 -0.4981  0.2255
  890TIP3    H124229   1.168   5.113   7.949 -0.0065 -0.8515  0.7119
  890TIP3    H224230   1.061   5.057   8.040 -0.8019  0.1778  0.4280
  891TIP3   OH224231   2.581   1.191   1.683 -0.2492  0.4394  0.3045
  891TIP3    H124232   2.522   1.209   1.609  0.3689  1.5213  0.0513
  891TIP3    H224233   2.528   1.141   1.744 -1.5473  1.6635  0.2259
  892TIP3   OH224234   1.730   2.382   1.178 -0.3619  0.6972  0.3422
  892TIP3    H124235   1.689   2.323   1.115 -1.1107  1.4196  0.1282
  892TIP3    H224236   1.813   2.341   1.199 -0.5380 -0.0514 -0.3697
  893TIP3   OH224237   2.709   6.718   8.080  0.3931  0.2672 -0.2540
  893TIP3    H124238   2.753   6.801   8.097 -0.6851  0.7749  0.1111
  893TIP3    H224239   2.771   6.652   8.112  2.4058  0.7386 -2.8480
  894TIP3   OH224240   1.245   2.772   0.727  0.3473  0.1710 -0.4831
  894TIP3    H124241   1.338   2.754   0.712  0.4066  0.0585  0.0006
  894TIP3    H224242   1.235   2.767   0.822 -0.2527 -0.3119 -0.5658
  895TIP3   OH224243   4.197   4.209   1.998 -0.2595  0.1219  0.2513
  895TIP3    H124244   4.251   4.278   2.037 -1.1600  1.1307 -0.2278
  895TIP3    H224245   4.238   4.127   2.027  0.4091  0.8433  1.4370
  896TIP3   OH224246   0.444   6.002   8.075 -0.4701 -0.1799  0.5142
  896TIP3    H124247   0.394   5.955   8.142 -1.0015 -0.0759  0.1996
  896TIP3    H224248   0.499   6.063   8.124 -0.9308 -0.0304  0.8558
  897TIP3   OH224249   5.408   6.673   1.043  0.2784 -0.0896  0.5673
  897TIP3    H124250   5.391   6.728   0.966 -0.8916  0.6198  1.2957
  897TIP3    H224251   5.449   6.594   1.008 -1.8637 -0.5872 -1.0108
  898TIP3   OH224252   1.716   2.951   1.029 -0.1959  0.1466  0.1507
  898TIP3    H124253   1.646   2.996   0.983 -0.1530 -0.7057 -0.7931
  898TIP3    H224254   1.695   2.858   1.021 -0.1314 -0.0514  1.7914
  899TIP3   OH224255   0.746   5.653   0.390  0.6786 -0.5021  0.2038
  899TIP3    H124256   0.796   5.721   0.344  2.1496 -0.8900  1.1530
  899TIP3    H224257   0.669   5.639   0.336  0.8928  1.1395 -0.5897
  900TIP3   OH224258   0.082   5.686   1.721  1.1188 -0.0885 -0.5116
  900TIP3    H124259   0.074   5.591   1.711  4.1830 -0.5740  0.3873
  900TIP3    H224260  -0.001   5.714   1.759 -0.0405 -2.3279 -1.2545
  901TIP3   OH224261   6.623   0.615   7.026  0.0669  0.4187 -0.2245
  901TIP3    H124262   6.681   0.542   7.006  2.2444  1.4893  1.6920
  901TIP3    H224263   6.659   0.689   6.978 -0.5324  0.8236 -0.0652
  902TIP3   OH224264   4.261   0.672   1.210  0.4171 -0.6081 -0.2365
  902TIP3    H124265   4.342   0.663   1.260  0.6282  0.4398 -0.3639
  902TIP3    H224266   4.196   0.698   1.275  0.7703  1.1196 -0.5071
  903TIP3   OH224267   4.535   2.164   6.328 -0.0521  0.1932  1.1143
  903TIP3    H124268   4.539   2.251   6.369  0.3695  0.5153  0.4115
  903TIP3    H224269   4.623   2.149   6.295 -0.2324 -0.3249  0.8568
  904TIP3   OH224270   3.313   3.856   7.962  0.3032  0.1533 -0.7825
  904TIP3    H124271   3.317   3.771   7.917 -0.2595  0.6621 -1.8414
  904TIP3    H224272   3.245   3.844   8.028 -0.5174  0.0731 -1.6183
  905TIP3   OH224273   4.318   2.500   1.178 -0.2400 -0.0137  0.0870
  905TIP3    H124274   4.228   2.530   1.174 -0.5521 -0.6686  1.5121
  905TIP3    H224275   4.366   2.573   1.219 -0.5661 -0.4943  1.3887
  906TIP3   OH224276   2.447   6.409   0.260  0.4429 -0.3223  0.1573
  906TIP3    H124277   2.396   6.333   0.232 -0.7594  1.0923 -1.7461
  906TIP3    H224278   2.527   6.404   0.208 -0.1278  0.2722 -0.8090
  907TIP3   OH224279   5.307   6.524   7.457  0.2384 -0.0414 -0.1831
  907TIP3    H124280   5.325   6.603   7.407  0.1038 -0.8000 -1.4843
  907TIP3    H224281   5.309   6.453   7.392 -0.8068 -0.9643  0.7394
  908TIP3   OH224282   0.903   0.925   0.786 -0.6014 -0.0024  0.3430
  908TIP3    H124283   0.852   0.960   0.714 -0.4413 -1.5807 -0.5744
  908TIP3    H224284   0.858   0.957   0.865 -2.2369 -0.2870 -0.4372
  909TIP3   OH224285   3.072   5.340   0.480  0.1405  0.1394 -0.3447
  909TIP3    H124286   3.144   5.279   0.468 -0.3195 -0.8977  1.7095
  909TIP3    H224287   3.109   5.410   0.533 -0.2605 -0.2479  0.4645
  910TIP3   OH224288   0.691   2.414   7.062  0.1995  0.7044  0.0222
  910TIP3    H124289   0.718   2.441   6.974 -2.2698 -0.1173 -1.0647
  910TIP3    H224290   0.603   2.451   7.073  0.4399  0.7835  2.1842
  911TIP3   OH224291   0.862   4.059   8.615 -0.5628  0.1677 -0.0273
  911TIP3    H124292   0.859   3.966   8.592 -1.8163 -0.1320  1.2314
  911TIP3    H224293   0.858   4.060   8.710 -3.0917  1.5559 -0.0714
  912TIP3   OH224294   5.736   6.208   1.249 -0.1291  0.0856  0.1577
  912TIP3    H124295   5.742   6.113   1.255 -1.3528 -0.0130  0.0684
  912TIP3    H224296   5.800   6.241   1.312  0.6328 -0.7851 -0.1419
  913TIP3   OH224297   3.746   6.578   0.640 -0.0401 -0.1418  0.4884
  913TIP3    H124298   3.790   6.522   0.576 -0.0856 -0.5556  0.8142
  913TIP3    H224299   3.816   6.620   0.689  0.0025 -1.0599  1.2327
  914TIP3   OH224300   0.560   3.902   1.470  0.6663 -0.3723 -0.0842
  914TIP3    H124301   0.543   3.808   1.483 -0.5276 -0.1587 -0.0027
  914TIP3    H224302   0.506   3.926   1.395  1.7627  0.0369 -0.7562
  915TIP3   OH224303   6.641   0.124   2.257 -0.1088 -0.1852 -0.0701
  915TIP3    H124304   6.652   0.203   2.311  1.1688 -0.1591 -0.3330
  915TIP3    H224305   6.713   0.066   2.285  0.3719 -0.3037 -1.5065
  916TIP3   OH224306   0.818   6.720   7.380 -0.1412  0.1276 -0.1826
  916TIP3    H124307   0.845   6.778   7.308 -0.9674 -0.7558 -1.2323
  916TIP3    H224308   0.736   6.757   7.412  0.4969  0.8260  0.6844
  917TIP3   OH224309   0.221   2.151   7.878  0.0562  0.0887 -0.0323
  917TIP3    H124310   0.299   2.166   7.931 -0.5990  0.0078  0.9716
  917TIP3    H224311   0.254   2.146   7.788  1.4629 -1.8012  0.5333
  918TIP3   OH224312   1.883   1.881   8.125 -0.0732  0.1085  0.0162
  918TIP3    H124313   1.903   1.972   8.148  1.1492  0.2027 -1.2536
  918TIP3    H224314   1.969   1.842   8.106 -0.5797 -1.3162  0.5295
  919TIP3   OH224315   3.168   0.790   7.201 -0.4588  0.9470 -0.3652
  919TIP3    H124316   3.187   0.883   7.214 -2.1449  1.4322 -1.0103
  919TIP3    H224317   3.181   0.777   7.107  1.2949  0.1056 -0.0490
  920TIP3   OH224318   0.648   1.123   2.103  0.0470 -0.3076  0.3105
  920TIP3    H124319   0.606   1.208   2.091 -1.4371 -1.0787 -0.2890
  920TIP3    H224320   0.616   1.093   2.188  1.0687 -0.0158  0.8125
  921TIP3   OH224321   3.074   5.765   0.695  0.6031  0.0900 -0.2885
  921TIP3    H124322   3.132   5.826   0.740  0.2804 -0.1611  0.4702
  921TIP3    H224323   3.126   5.686   0.683 -0.0649 -0.7404  1.8781
  922TIP3   OH224324   6.470   6.340   0.356  0.0709 -0.0306  0.0137
  922TIP3    H124325   6.496   6.373   0.270 -0.0345 -0.6419 -0.2567
  922TIP3    H224326   6.540   6.368   0.415  1.0155 -1.0877 -0.5837
  923TIP3   OH224327   1.751   0.639   0.388  0.1169  0.2034 -0.0810
  923TIP3    H124328   1.755   0.733   0.373  1.4111 -0.0783 -1.8377
  923TIP3    H224329   1.816   0.602   0.328 -0.1779 -1.7996  0.7363
  924TIP3   OH224330   4.310   0.879   1.577 -0.6060  0.3164  0.5930
  924TIP3    H124331   4.361   0.816   1.526  1.3960  2.3684 -0.1079
  924TIP3    H224332   4.263   0.825   1.641  1.2967 -1.8550  0.3062
  925TIP3   OH224333   6.610   4.282   6.833 -0.0871  0.1011 -0.1624
  925TIP3    H124334   6.699   4.248   6.843  0.0767  0.6933  0.4341
  925TIP3    H224335   6.622   4.376   6.817 -0.6832  0.6965  2.5355
  926TIP3   OH224336   1.837   3.409   8.568  0.1020 -0.1096  0.2471
  926TIP3    H124337   1.844   3.502   8.587 -0.8747  0.8523 -3.2811
  926TIP3    H224338   1.758   3.381   8.613 -1.1906  1.5404 -0.8716
  927TIP3   OH224339   0.774   3.669   8.253  0.6816 -0.6027 -0.1363
  927TIP3    H124340   0.778   3.650   8.159 -0.9969  1.2439 -0.6683
  927TIP3    H224341   0.777   3.765   8.258  0.4485 -0.6564  1.6822
  928TIP3   OH224342   5.903   0.199   8.596 -0.1197  0.0880  0.3887
  928TIP3    H124343   5.843   0.156   8.657  0.2911 -1.0194  0.0280
  928TIP3    H224344   5.988   0.192   8.638 -0.1135  0.9928  0.5468
  929TIP3   OH224345   6.245   0.989   7.512 -0.0315 -0.3775  0.0164
  929TIP3    H124346   6.211   1.025   7.594  0.3668 -1.9994  0.9314
  929TIP3    H224347   6.275   1.066   7.463  0.2951  0.5889  1.6493
  930TIP3   OH224348   0.284   3.067   1.116  0.1538 -0.4512 -0.2309
  930TIP3    H124349   0.379   3.062   1.129  0.1777 -1.4654 -0.7057
  930TIP3    H224350   0.269   3.153   1.077  0.8183 -0.0735  0.3367
  931TIP3   OH224351   5.808   4.382   7.712 -0.0886 -0.1648 -0.5668
  931TIP3    H124352   5.826   4.291   7.733 -0.8162 -0.3883 -0.8589
  931TIP3    H224353   5.731   4.378   7.654 -0.8955  0.6942  0.4079
  932TIP3   OH224354   3.541   2.136   1.885  0.1776 -0.1180 -0.6340
  932TIP3    H124355   3.484   2.163   1.813 -0.7664  0.0168  0.1336
  932TIP3    H224356   3.481   2.126   1.959  0.7213 -2.7417 -0.4746
  933TIP3   OH224357   2.561   4.817   8.183  0.1624 -0.7228 -1.1474
  933TIP3    H124358   2.617   4.851   8.114 -1.6605  2.9525 -1.0295
  933TIP3    H224359   2.484   4.784   8.137  0.4439 -1.5775 -1.0283
  934TIP3   OH224360   4.177   4.720   8.493  0.6099 -0.2292  1.2343
  934TIP3    H124361   4.150   4.773   8.568  0.9109  3.2712 -0.8963
  934TIP3    H224362   4.099   4.670   8.469 -0.2810  0.6039  2.2947
  935TIP3   OH224363   0.069   2.207   1.920 -0.1676  0.2105 -0.2036
  935TIP3    H124364   0.033   2.119   1.910  0.5161  0.2075 -4.3844
  935TIP3    H224365   0.156   2.193   1.956  0.2085 -0.9642 -1.4740
  936TIP3   OH224366   6.426   0.577   6.413  0.0645  0.3780  0.2258
  936TIP3    H124367   6.370   0.516   6.459  0.0127  0.4060  0.2009
  936TIP3    H224368   6.498   0.524   6.378  0.2942  0.4156  0.6421
  937TIP3   OH224369   6.027   5.594   7.576  0.5914  0.2433 -0.1789
  937TIP3    H124370   5.938   5.581   7.608  0.2952 -0.7068 -1.3184
  937TIP3    H224371   6.053   5.678   7.612 -0.5287  0.2423  0.6944
  938TIP3   OH224372   4.066   2.772   7.850 -0.3395  0.2313 -0.8469
  938TIP3    H124373   4.131   2.747   7.784  1.8530  0.4705  1.0967
  938TIP3    H224374   4.054   2.693   7.903 -0.2366  0.7141 -0.0942
  939TIP3   OH224375   1.632   2.473   6.389  0.0785  0.3823  0.3118
  939TIP3    H124376   1.706   2.497   6.444  1.0506  0.7942 -1.0980
  939TIP3    H224377   1.560   2.528   6.420  0.5945  0.6053  1.1467
  940TIP3   OH224378   2.099   6.115   1.054  0.5850  0.0082 -0.6299
  940TIP3    H124379   2.146   6.127   1.136  2.5001  1.1010 -1.8219
  940TIP3    H224380   2.015   6.076   1.080  0.3366  2.0497  2.0260
  941TIP3   OH224381   3.835   3.970   8.620 -0.1393 -0.3288 -0.1749
  941TIP3    H124382   3.843   3.892   8.564  1.1179 -1.3086  1.2804
  941TIP3    H224383   3.858   3.939   8.707  0.0887  1.6414  0.5105
  942TIP3   OH224384   4.584   0.378   0.837  0.0749 -0.5425  0.3797
  942TIP3    H124385   4.675   0.409   0.838  0.8929 -2.7277  1.0608
  942TIP3    H224386   4.557   0.387   0.746  0.2587  1.9302  0.5027
  943TIP3   OH224387   4.954   5.159   1.375 -0.3720 -0.2159  0.5059
  943TIP3    H124388   4.955   5.246   1.334 -0.2020  0.1512  1.2690
  943TIP3    H224389   5.043   5.127   1.366 -0.3605 -0.1782  0.4841
  944TIP3   OH224390   3.990   6.649   7.849 -0.0966 -0.2600  0.4922
  944TIP3    H124391   4.072   6.628   7.893  1.2141 -1.0291 -2.1411
  944TIP3    H224392   4.015   6.667   7.758 -2.9238 -1.7320 -0.7080
  945TIP3   OH224393   0.405   5.269   1.088 -1.0089  0.4593 -0.1252
  945TIP3    H124394   0.490   5.300   1.056 -1.6987 -0.1271 -2.7425
  945TIP3    H224395   0.388   5.189   1.040 -3.1887  0.7077  0.1087
  946TIP3   OH224396   5.373   5.793   7.733  0.6273 -0.4629  0.4289
  946TIP3    H124397   5.436   5.864   7.718 -0.0102  0.3176  1.3069
  946TIP3    H224398   5.417   5.714   7.701 -0.0372  0.7349 -4.1765
  947TIP3   OH224399   3.185   3.444   8.468 -0.5817 -0.0822 -0.2594
  947TIP3    H124400   3.154   3.419   8.556 -3.1014  0.8499 -0.7775
  947TIP3    H224401   3.277   3.417   8.466  0.2428  1.7511  3.4467
  948TIP3   OH224402   0.200   0.509   7.825  0.4663 -0.3670 -0.6571
  948TIP3    H124403   0.193   0.571   7.752 -0.9237 -0.3042 -0.4903
  948TIP3    H224404   0.158   0.554   7.899  1.8636 -0.4211  0.2293
  949TIP3   OH224405   0.223   3.436   7.648  0.2046 -0.0541 -0.0666
  949TIP3    H124406   0.243   3.484   7.567 -0.1978  1.0575  0.4747
  949TIP3    H224407   0.254   3.493   7.718 -1.3273 -0.0557  0.6384
  950TIP3   OH224408   2.374   5.245   8.178 -0.4630 -0.3788  0.0332
  950TIP3    H124409   2.350   5.159   8.144 -1.9446 -0.2098  0.5588
  950TIP3    H224410   2.300   5.269   8.234  1.3742 -0.1901  2.5151
  951TIP3   OH224411   5.983   1.380   0.447  0.3782  0.7780 -0.2011
  951TIP3    H124412   5.993   1.301   0.500  0.2534  0.2437 -0.9655
  951TIP3    H224413   5.912   1.429   0.489  1.7894  1.4897  1.4847
  952TIP3   OH224414   0.563   6.665   0.717  0.1719  0.6742  0.3051
  952TIP3    H124415   0.619   6.743   0.715  0.9469  0.1898  1.5011
  952TIP3    H224416   0.474   6.699   0.714  0.5103  1.5247 -0.5418
  953TIP3   OH224417   2.639   2.936   6.965 -0.6565  0.0628  0.3616
  953TIP3    H124418   2.650   3.013   6.910  0.3144 -0.8416 -0.7783
  953TIP3    H224419   2.616   2.866   6.904 -0.1442 -0.8447  1.1717
  954TIP3   OH224420   4.128   2.528   7.985 -0.0352 -0.1513 -0.4511
  954TIP3    H124421   4.109   2.435   7.997  1.1561 -0.5258 -1.2836
  954TIP3    H224422   4.159   2.557   8.071 -0.9818 -0.3684 -0.0265
  955TIP3   OH224423   1.066   5.874   7.806  0.0187 -0.8267  0.4466
  955TIP3    H124424   0.999   5.922   7.758 -2.0700 -2.0083  2.0140
  955TIP3    H224425   1.065   5.786   7.766 -0.1074 -1.1369  1.1182
  956TIP3   OH224426   0.066   3.391   2.582  0.4749 -0.1899 -0.2403
  956TIP3    H124427   0.084   3.319   2.642 -0.9712 -0.3435  0.0367
  956TIP3    H224428   0.124   3.461   2.611 -0.1185 -0.2959  1.2792
  957TIP3   OH224429   4.287   2.116   0.622 -0.2441  0.0707  0.1117
  957TIP3    H124430   4.322   2.081   0.704 -1.1407 -0.3405  0.3348
  957TIP3    H224431   4.316   2.054   0.555  1.2841  0.9068 -0.0412
  958TIP3   OH224432   5.389   4.345   6.797 -0.2062 -0.0382  0.6057
  958TIP3    H124433   5.382   4.439   6.811  2.4104  0.1783  0.8212
  958TIP3    H224434   5.453   4.315   6.862 -2.2596 -2.3354  1.7776
  959TIP3   OH224435   0.439   2.782   0.107  0.2064 -0.0131  0.7966
  959TIP3    H124436   0.486   2.854   0.150  1.0831  0.2884 -0.5708
  959TIP3    H224437   0.361   2.824   0.070 -0.3399 -0.1939  1.7084
  960TIP3   OH224438   0.553   5.603   0.202 -0.6975 -0.0340 -0.1654
  960TIP3    H124439   0.519   5.547   0.132 -3.5627 -1.1644  1.9530
  960TIP3    H224440   0.476   5.646   0.238  0.6453  0.4666  2.3254
  961TIP3   OH224441   1.932   3.732   8.321  0.1815  0.0377 -0.0503
  961TIP3    H124442   1.994   3.729   8.394 -0.0733  2.3856  0.3395
  961TIP3    H224443   1.940   3.646   8.280  2.6795 -0.2400  0.8096
  962TIP3   OH224444   2.786   5.677   0.652 -0.4691 -0.0883  0.3131
  962TIP3    H124445   2.798   5.630   0.570 -1.3094 -0.7461  0.5507
  962TIP3    H224446   2.872   5.712   0.673 -0.7431  2.3758 -2.1829
  963TIP3   OH224447   0.286   5.263   8.537 -0.1436  0.1086 -0.2398
  963TIP3    H124448   0.220   5.329   8.516  0.8534  1.5464  0.9166
  963TIP3    H224449   0.246   5.209   8.606 -0.4583  0.3811 -0.2089
  964TIP3   OH224450   2.647   4.354   8.363 -0.0632  0.0828 -0.8457
  964TIP3    H124451   2.577   4.418   8.352 -1.1214 -1.0241 -0.8510
  964TIP3    H224452   2.612   4.274   8.322  0.6369 -0.8774  0.3547
  965TIP3   OH224453   3.329   2.037   8.068 -0.0836 -0.0827  0.1762
  965TIP3    H124454   3.385   2.088   8.010  1.3603  0.4940  1.9923
  965TIP3    H224455   3.240   2.063   8.044  0.5018  0.9043 -1.0648
  966TIP3   OH224456   2.118   3.340   8.415 -0.1329  0.4873  0.3447
  966TIP3    H124457   2.061   3.270   8.446 -0.0067 -0.1866 -0.9283
  966TIP3    H224458   2.178   3.356   8.488 -0.1975 -0.6818  0.6610
  967TIP3   OH224459   4.059   1.849   1.161  0.1805 -0.0414  0.0444
  967TIP3    H124460   3.978   1.859   1.111  1.3963  0.4315 -1.9449
  967TIP3    H224461   4.033   1.863   1.252 -1.7035  1.7584 -0.6870
  968TIP3   OH224462   2.076   0.950   2.213 -0.6085 -0.0115  0.0146
  968TIP3    H124463   2.068   0.873   2.156  1.3411 -0.1159 -0.1735
  968TIP3    H224464   1.989   0.960   2.251 -1.0110 -2.0967 -0.2259
  969TIP3   OH224465   2.737   4.610   6.679  0.0641  0.1280 -0.5834
  969TIP3    H124466   2.658   4.578   6.724  1.4266  1.5330  3.2219
  969TIP3    H224467   2.712   4.697   6.647 -0.0902  0.3938  0.2366
  970TIP3   OH224468   5.580   3.964   0.299 -0.3222 -0.1878  0.8231
  970TIP3    H124469   5.675   3.979   0.296 -0.3099  0.6162  3.2142
  970TIP3    H224470   5.566   3.912   0.378 -1.9471  0.2358  0.8492
  971TIP3   OH224471   3.140   4.702   8.660  0.0538  0.1857  0.1246
  971TIP3    H124472   3.117   4.609   8.649  1.9883 -0.5713  1.7691
  971TIP3    H224473   3.057   4.745   8.678 -0.8465 -1.2863 -0.2747
  972TIP3   OH224474   3.998   6.610   0.226 -0.3102  0.2958  0.6682
  972TIP3    H124475   3.927   6.604   0.289  0.3906  0.0376  1.4427
  972TIP3    H224476   3.964   6.668   0.157 -1.2029  0.2970  1.0996
  973TIP3   OH224477   0.349   3.007   7.837 -0.0055 -0.4145  0.0378
  973TIP3    H124478   0.400   3.081   7.804 -1.7021  1.0344  0.4947
  973TIP3    H224479   0.302   3.042   7.913  0.7387 -2.5665  1.5980
  974TIP3   OH224480   6.284   1.538   2.173  0.2353  0.0931 -0.1665
  974TIP3    H124481   6.254   1.458   2.131 -1.4039  0.5068  0.1583
  974TIP3    H224482   6.231   1.607   2.134 -1.0288  0.5526  2.1893
  975TIP3   OH224483   3.402   5.590   0.841 -0.6225 -0.6458 -0.3605
  975TIP3    H124484   3.483   5.542   0.857 -0.8599 -0.8579  0.2441
  975TIP3    H224485   3.360   5.597   0.927  0.1652  2.0604 -0.0838
  976TIP3   OH224486   5.617   4.186   8.073 -0.3790  0.4349 -0.3615
  976TIP3    H124487   5.542   4.241   8.093 -0.2410  0.9404 -1.1649
  976TIP3    H224488   5.638   4.207   7.982 -0.0741 -0.6561 -0.5601
  977TIP3   OH224489   4.889   4.893   1.317  0.1728 -0.1199 -0.2244
  977TIP3    H124490   4.881   4.984   1.288  0.3414 -0.4644 -1.4121
  977TIP3    H224491   4.982   4.872   1.303 -0.3912 -1.3352 -2.7634
  978TIP3   OH224492   5.916   3.750   6.932  0.5782  0.5475  0.1853
  978TIP3    H124493   5.974   3.674   6.927  2.0148  1.6217 -0.3049
  978TIP3    H224494   5.970   3.823   6.901 -1.0280  1.6229 -0.1996
  979TIP3   OH224495   3.056   3.162   0.966  0.0211 -0.1439 -0.2364
  979TIP3    H124496   3.146   3.132   0.958  0.5860  0.8625  1.6925
  979TIP3    H224497   3.057   3.220   1.042 -2.2545 -0.0654 -0.2048
  980TIP3   OH224498   2.530   3.047   2.064  0.2296  0.1739 -0.1519
  980TIP3    H124499   2.441   3.020   2.083  0.5975  0.2427  1.8473
  980TIP3    H224500   2.535   3.138   2.092  1.2961 -0.2555  1.1404
  981TIP3   OH224501   3.440   0.280   0.343  0.0158  0.4883  0.0893
  981TIP3    H124502   3.517   0.337   0.337  0.5338  0.2986  3.3505
  981TIP3    H224503   3.465   0.202   0.294  0.4853  1.7735 -1.8497
  982TIP3   OH224504   3.170   4.709   0.248 -0.6671 -0.0493 -0.3159
  982TIP3    H124505   3.084   4.751   0.252 -0.1112  1.1488 -0.4049
  982TIP3    H224506   3.181   4.685   0.156 -0.2740  1.2326 -0.6275
  983TIP3   OH224507   4.434   6.164   8.395 -0.3752 -0.3549  0.1591
  983TIP3    H124508   4.448   6.145   8.303  0.2648 -0.7112  0.3233
  983TIP3    H224509   4.343   6.139   8.411 -0.4411 -0.4406 -0.3347
  984TIP3   OH224510   6.419   4.651   1.295 -0.1582  0.2736  0.3508
  984TIP3    H124511   6.334   4.633   1.334  0.6662 -2.3069  1.1871
  984TIP3    H224512   6.416   4.608   1.209 -0.1043  1.2297 -0.1389
  985TIP3   OH224513   1.726   3.256   0.119  0.1309 -0.1078 -0.0959
  985TIP3    H124514   1.805   3.261   0.173 -0.0570  1.6219  0.0640
  985TIP3    H224515   1.740   3.178   0.065  1.9033  0.0832  0.0055
  986TIP3   OH224516   2.995   0.523   1.867 -0.1181  0.3733 -0.3753
  986TIP3    H124517   3.020   0.568   1.948  1.1887 -0.1553 -0.4661
  986TIP3    H224518   2.966   0.436   1.895 -1.1520  0.7185 -0.3438
  987TIP3   OH224519   6.132   1.371   8.617 -0.2585 -0.2439 -0.0926
  987TIP3    H124520   6.128   1.309   8.690 -0.5213  0.3897  0.4401
  987TIP3    H224521   6.076   1.332   8.550  0.5941 -1.2212 -0.2728
  988TIP3   OH224522   5.531   2.855   6.705 -0.1522 -0.0711 -0.6841
  988TIP3    H124523   5.488   2.939   6.720 -1.9650 -1.1324  0.3263
  988TIP3    H224524   5.618   2.865   6.743 -1.5568  0.2474  2.7917
  989TIP3   OH224525   5.751   2.838   7.744 -0.3582  0.1942 -0.1749
  989TIP3    H124526   5.662   2.831   7.778 -0.2274 -2.1343 -0.1156
  989TIP3    H224527   5.800   2.880   7.814 -1.3107  1.0459 -0.0084
  990TIP3   OH224528   4.517   1.608   1.531  0.6427  0.1269 -0.1028
  990TIP3    H124529   4.459   1.533   1.519  0.3624  0.4916 -1.0653
  990TIP3    H224530   4.466   1.671   1.582  1.2948 -0.7971  1.7657
  991TIP3   OH224531   4.380   1.771   1.344  0.0176 -0.2091  0.1992
  991TIP3    H124532   4.379   1.676   1.358 -0.3412 -0.4094 -1.1169
  991TIP3    H224533   4.295   1.800   1.375  0.9356  0.0482  2.7421
  992TIP3   OH224534   3.069   5.357   2.385  0.3166  0.0276 -0.1658
  992TIP3    H124535   2.990   5.408   2.368 -0.3451 -0.0751  2.2811
  992TIP3    H224536   3.126   5.415   2.434  1.0384 -0.4745 -0.3867
  993TIP3   OH224537   6.106   2.232   0.191 -0.1304 -0.0367 -0.5727
  993TIP3    H124538   6.051   2.153   0.195 -0.9242  0.5650  1.1760
  993TIP3    H224539   6.186   2.203   0.147  0.1943 -2.2092  1.2846
  994TIP3   OH224540   2.503   1.369   1.180 -0.5944  0.3156 -0.1749
  994TIP3    H124541   2.458   1.348   1.098 -0.2319  1.2780 -0.6295
  994TIP3    H224542   2.584   1.318   1.176 -1.6613 -1.5390  0.7144
  995TIP3   OH224543   0.353   1.803   0.606  0.1521  0.3370 -0.1200
  995TIP3    H124544   0.394   1.740   0.547  1.1728 -0.3464  1.2679
  995TIP3    H224545   0.263   1.810   0.575  0.7418  0.2425 -1.9236
  996TIP3   OH224546   4.416   2.467   8.668  0.4500 -0.1845  0.1914
  996TIP3    H124547   4.359   2.488   8.594  0.9813  0.8207  0.0578
  996TIP3    H224548   4.375   2.390   8.709 -1.4988  1.0217  0.6220
  997TIP3   OH224549   2.771   1.658   0.612 -0.4482 -0.3568 -0.9958
  997TIP3    H124550   2.795   1.588   0.551  0.6428 -0.7374 -0.1580
  997TIP3    H224551   2.838   1.655   0.680 -0.7759  1.0627 -0.5763
  998TIP3   OH224552   6.083   5.989   1.097 -0.2385 -0.1672  0.3263
  998TIP3    H124553   6.012   6.049   1.075 -1.4461 -1.8346 -0.4985
  998TIP3    H224554   6.096   5.938   1.017  0.4865 -1.2714  1.1339
  999TIP3   OH224555   4.867   0.366   1.115  0.6727  0.3713  0.1834
  999TIP3    H124556   4.879   0.402   1.027  1.2481  0.4582  0.2877
  999TIP3    H224557   4.924   0.289   1.117 -0.2013 -0.2910  0.1156
 1000TIP3   OH224558   3.808   0.711   0.902 -0.0009 -0.5323 -0.6645
 1000TIP3    H124559   3.734   0.656   0.926  0.5342 -0.8838  0.2272
 1000TIP3    H224560   3.868   0.704   0.976 -0.2289  1.8209 -0.1695
 1001TIP3   OH224561   1.995   4.213   6.765 -0.3144  0.6832  0.1783
 1001TIP3    H124562   1.924   4.261   6.722  0.7767  2.0660 -0.1524
 1001TIP3    H224563   2.075   4.249   6.726  0.5830 -0.7509  0.6223
 1002TIP3   OH224564   4.495   1.415   2.079  0.0784  0.2487  0.2683
 1002TIP3    H124565   4.516   1.324   2.098  0.7324  0.7416  2.2340
 1002TIP3    H224566   4.564   1.465   2.124 -1.0462  1.7301  0.4290
 1003TIP3   OH224567   5.306   3.449   8.412  0.1976  0.6601  0.1852
 1003TIP3    H124568   5.368   3.382   8.382 -1.2065  0.2247 -1.9947
 1003TIP3    H224569   5.358   3.509   8.464  1.9447 -0.9806  0.4143
 1004TIP3   OH224570   4.818   2.702   3.025  0.4780 -0.2390 -0.0231
 1004TIP3    H124571   4.819   2.671   3.116 -1.4677  2.4151  1.0224
 1004TIP3    H224572   4.793   2.625   2.974 -1.2189 -1.1579  2.0332
 1005TIP3   OH224573   3.867   0.289   8.371 -0.2375  0.3862 -0.3071
 1005TIP3    H124574   3.931   0.222   8.395  0.2488  0.7925 -0.4626
 1005TIP3    H224575   3.786   0.262   8.415  0.5842  1.0482  1.7311
 1006TIP3   OH224576   4.980   0.007   1.648  0.2313 -0.4366  0.2742
 1006TIP3    H124577   4.931   0.086   1.669 -0.1178 -0.7701  0.7695
 1006TIP3    H224578   4.958  -0.012   1.557 -0.3032 -0.3904  0.3880
 1007TIP3   OH224579   0.961   2.893   0.277  0.4089 -0.1497 -0.0206
 1007TIP3    H124580   0.931   2.810   0.238  1.7078 -1.3958  1.5150
 1007TIP3    H224581   1.054   2.897   0.255  0.7810 -0.0590  1.5068
 1008TIP3   OH224582   2.253   1.827   1.465 -0.0054  0.4174 -0.2393
 1008TIP3    H124583   2.331   1.773   1.459  0.5896  1.3520 -1.2586
 1008TIP3    H224584   2.210   1.798   1.545 -0.4421 -2.5189 -1.3979
 1009TIP3   OH224585   1.593   0.789   0.998 -0.2910  0.1228 -0.2856
 1009TIP3    H124586   1.555   0.757   0.916  0.7646 -0.6669 -0.4901
 1009TIP3    H224587   1.685   0.764   0.993 -0.7493 -2.9534  2.5271
 1010TIP3   OH224588   2.190   6.140   8.477 -0.4351 -0.1937 -0.2117
 1010TIP3    H124589   2.118   6.095   8.521 -2.4493  3.0512  0.1479
 1010TIP3    H224590   2.167   6.138   8.384 -1.0059  0.7412 -0.1085
 1011TIP3   OH224591   0.242   6.481   7.895  0.0108  0.0814 -0.0086
 1011TIP3    H124592   0.182   6.446   7.962  0.0259  1.9103  1.0229
 1011TIP3    H224593   0.302   6.537   7.944  2.2320 -1.1934 -1.0995
 1012TIP3   OH224594   4.676   6.567   0.742 -0.4110  0.8156  0.7677
 1012TIP3    H124595   4.628   6.648   0.723 -0.2600  0.5709 -0.7549
 1012TIP3    H224596   4.712   6.540   0.658  0.6959 -0.1097  1.5103
 1013TIP3   OH224597   6.014   6.319   1.846  0.3396  0.4262  0.6130
 1013TIP3    H124598   6.044   6.366   1.924 -1.2995 -0.7890  2.0816
 1013TIP3    H224599   6.072   6.243   1.840  0.0230  0.1364  1.1158
 1014TIP3   OH224600   5.072   2.675   8.063  0.1563 -0.6812 -0.6389
 1014TIP3    H124601   5.052   2.595   8.015 -0.7318  0.0150 -1.4638
 1014TIP3    H224602   5.011   2.675   8.137  0.8131 -1.2352 -0.0891
 1015TIP3   OH224603   1.947   4.382   8.257 -0.4874 -0.5805  0.4274
 1015TIP3    H124604   1.905   4.468   8.266 -0.0354 -0.5150  2.3934
 1015TIP3    H224605   1.875   4.323   8.232 -1.0338  0.1533  0.2287
 1016TIP3   OH224606   0.872   4.509   2.365  0.3726 -0.6011 -0.5664
 1016TIP3    H124607   0.848   4.601   2.362  0.6088 -0.5525 -2.9531
 1016TIP3    H224608   0.792   4.464   2.393 -0.2599  0.2018 -1.0349
 1017TIP3   OH224609   1.585   6.134   1.073 -0.5310  0.6829  0.1381
 1017TIP3    H124610   1.573   6.219   1.032  0.8478  0.5866 -0.5457
 1017TIP3    H224611   1.497   6.104   1.094 -1.0736  1.9803 -0.2152
 1018TIP3   OH224612   2.452   4.800   2.854 -0.1135 -0.3569  0.3815
 1018TIP3    H124613   2.484   4.874   2.803 -1.6092  0.2057  0.2049
 1018TIP3    H224614   2.518   4.732   2.841  1.7143  1.1663  1.1982
 1019TIP3   OH224615   5.426   5.798   8.672 -0.1478 -0.8794  0.1089
 1019TIP3    H124616   5.437   5.703   8.670 -0.3638 -0.9300  0.9905
 1019TIP3    H224617   5.515   5.833   8.670 -0.0530 -1.1100  0.2390
 1020TIP3   OH224618   4.788   5.686   8.434 -0.1748 -0.3914 -0.0479
 1020TIP3    H124619   4.828   5.748   8.495  1.2223  0.4591 -1.7219
 1020TIP3    H224620   4.860   5.631   8.404 -0.7014 -0.4462 -1.2957
 1021TIP3   OH224621   5.624   5.306   1.331  0.0019 -0.4426  0.0820
 1021TIP3    H124622   5.708   5.350   1.342  1.0724 -2.3286 -0.0870
 1021TIP3    H224623   5.590   5.296   1.420 -0.2832  0.7367  0.1157
 1022TIP3   OH224624   4.147   0.895   2.706 -0.2379 -0.4828  0.1541
 1022TIP3    H124625   4.078   0.914   2.643 -1.5819 -0.5296  1.5730
 1022TIP3    H224626   4.199   0.827   2.663  0.6325  1.4412 -2.0984
 1023TIP3   OH224627   1.408   2.846   2.381  0.2405 -0.0402  0.6922
 1023TIP3    H124628   1.484   2.888   2.420  0.7150  0.0921 -0.3424
 1023TIP3    H224629   1.411   2.872   2.289 -1.1598  0.1282  0.6697
 1024TIP3   OH224630   0.085   1.883   0.530 -0.0776  0.0086  0.0720
 1024TIP3    H124631   0.040   1.799   0.540  1.8853 -1.2402 -0.8679
 1024TIP3    H224632   0.029   1.933   0.470 -1.8146 -0.1776  1.4719
 1025TIP3   OH224633   2.829   0.981   6.863 -0.1048  0.0694  0.1460
 1025TIP3    H124634   2.737   0.960   6.849  0.3796 -2.2617  0.0221
 1025TIP3    H224635   2.874   0.947   6.786  1.0655 -0.6103  1.0953
 1026TIP3   OH224636   6.576   3.286   1.959 -0.1225  0.1178 -0.3929
 1026TIP3    H124637   6.493   3.317   1.995 -0.2624  0.7697 -1.2422
 1026TIP3    H224638   6.583   3.196   1.989 -0.3784  0.5369  0.9890
 1027TIP3   OH224639   3.607   2.043   8.152 -0.5585  0.5396 -0.0120
 1027TIP3    H124640   3.691   2.085   8.133 -0.6680  1.5035  1.4713
 1027TIP3    H224641   3.586   1.994   8.072  0.9333  1.0614 -0.7628
 1028TIP3   OH224642   1.824   2.502   6.591 -0.3892 -0.0596  0.9633
 1028TIP3    H124643   1.900   2.481   6.645 -0.4415 -2.9135  0.1081
 1028TIP3    H224644   1.795   2.587   6.623  2.5432  0.6780  1.9811
 1029TIP3   OH224645   0.542   4.703   0.415  0.9356  0.4041  0.1768
 1029TIP3    H124646   0.587   4.650   0.349  0.5806  1.0200 -0.5665
 1029TIP3    H224647   0.558   4.656   0.497 -0.6896 -1.7313 -0.6429
 1030TIP3   OH224648   4.499   4.969   7.969  0.8319 -0.2284 -0.1421
 1030TIP3    H124649   4.486   5.040   7.907 -1.9870  0.2508  0.8436
 1030TIP3    H224650   4.444   4.992   8.044  1.5189 -2.4001  1.1361
 1031TIP3   OH224651   0.029   5.778   0.624  0.7946  0.9249  0.4637
 1031TIP3    H124652  -0.001   5.722   0.552  1.2915 -0.2033  1.1079
 1031TIP3    H224653  -0.033   5.851   0.625  0.4711  0.6903 -0.7654
 1032TIP3   OH224654   6.184   1.295   1.663  0.1164  0.4367 -0.5913
 1032TIP3    H124655   6.226   1.229   1.607  1.3906  0.9641 -0.2779
 1032TIP3    H224656   6.218   1.278   1.750 -0.4242  0.7997 -0.3057
 1033TIP3   OH224657   0.366   5.593   7.080  0.0541 -0.4358 -0.0551
 1033TIP3    H124658   0.277   5.618   7.105 -0.0021  1.4415 -1.8398
 1033TIP3    H224659   0.422   5.635   7.145 -0.3048 -0.6102  0.3714
 1034TIP3   OH224660   3.322   1.253   0.248 -0.0635 -0.0476  0.0102
 1034TIP3    H124661   3.407   1.257   0.293 -0.0304  1.4696 -0.1511
 1034TIP3    H224662   3.276   1.332   0.276 -0.9356 -0.2096 -0.9024
 1035TIP3   OH224663   5.872   6.118   0.969  0.0593 -0.2712 -0.2025
 1035TIP3    H124664   5.929   6.100   0.894 -0.1242  0.4036 -0.5155
 1035TIP3    H224665   5.842   6.208   0.954  0.2491 -0.0266  0.8284
 1036TIP3   OH224666   5.756   4.475   6.506 -0.3860  0.5167  0.0577
 1036TIP3    H124667   5.696   4.528   6.559 -2.0896  2.1100 -3.1232
 1036TIP3    H224668   5.829   4.534   6.488 -0.9610  0.9005 -1.1920
 1037TIP3   OH224669   2.744   5.600   6.788  0.2392 -0.1201 -0.3110
 1037TIP3    H124670   2.805   5.673   6.794 -0.1713  0.0747  2.2879
 1037TIP3    H224671   2.665   5.639   6.750  1.5627 -0.3692 -3.6705
 1038TIP3   OH224672   1.736   2.101   7.902  0.2384  0.0538  0.1790
 1038TIP3    H124673   1.726   2.113   7.807 -2.7382  0.1950  0.4171
 1038TIP3    H224674   1.718   2.008   7.916 -2.7453  0.6195  0.8298
 1039TIP3   OH224675   2.311   5.750   7.838 -0.1777  0.8287 -0.5632
 1039TIP3    H124676   2.324   5.680   7.903 -0.3812  2.1942  1.0059
 1039TIP3    H224677   2.369   5.726   7.766  4.3165  1.8625  2.2829
 1040TIP3   OH224678   1.831   0.755   1.329  0.4871  0.2177 -0.0709
 1040TIP3    H124679   1.832   0.797   1.415  0.8541  2.0636 -0.9307
 1040TIP3    H224680   1.919   0.770   1.294  1.0429 -2.3351  0.0187
 1041TIP3   OH224681   6.812   4.425   0.774  0.2081 -0.1119  0.0697
 1041TIP3    H124682   6.811   4.448   0.867 -2.3178 -0.6044  0.2159
 1041TIP3    H224683   6.766   4.497   0.731 -0.3698 -0.8255 -0.5280
 1042TIP3   OH224684   2.857   2.830   8.042 -0.9454 -0.6482 -0.3124
 1042TIP3    H124685   2.899   2.760   7.992  0.0284  1.1289 -2.1552
 1042TIP3    H224686   2.804   2.785   8.107  0.6534 -3.0481 -0.5595
 1043TIP3   OH224687   5.681   0.362   0.494  0.0192  0.2441  0.1161
 1043TIP3    H124688   5.696   0.375   0.588 -0.4295 -0.6326  0.3229
 1043TIP3    H224689   5.597   0.405   0.477  0.0096  0.2443  0.1614
 1044TIP3   OH224690   5.097   6.441   0.552  0.4078 -0.0484 -0.0189
 1044TIP3    H124691   5.148   6.395   0.485  0.7127  0.9541 -0.4968
 1044TIP3    H224692   5.021   6.474   0.505 -0.2154 -0.7190  0.4924
 1045TIP3   OH224693   2.948   6.470   7.698  0.2602  0.3190 -0.2055
 1045TIP3    H124694   2.920   6.448   7.609 -0.1490  1.8624 -0.4839
 1045TIP3    H224695   3.041   6.448   7.700  0.0525 -0.6494 -0.7012
 1046TIP3   OH224696   0.541   4.879   2.150 -0.0037 -0.7246 -0.0714
 1046TIP3    H124697   0.517   4.800   2.103  0.2353  0.3527 -2.1037
 1046TIP3    H224698   0.457   4.923   2.167  0.0200 -0.2045 -1.2168
 1047TIP3   OH224699   1.462   2.271   0.268 -0.1890  0.1737  0.6749
 1047TIP3    H124700   1.368   2.260   0.260 -0.1150  0.1680 -0.3755
 1047TIP3    H224701   1.498   2.183   0.255  0.0738  0.5507 -1.4514
 1048TIP3   OH224702   5.515   5.424   7.811 -0.1331  0.2056 -0.3789
 1048TIP3    H124703   5.545   5.339   7.845 -0.8826  0.0310 -0.1408
 1048TIP3    H224704   5.591   5.458   7.764 -0.1428 -1.0800 -1.3784
 1049TIP3   OH224705   4.640   1.811   1.761  0.2308 -0.1382 -0.3234
 1049TIP3    H124706   4.599   1.748   1.820  0.9132 -0.6830 -0.4157
 1049TIP3    H224707   4.596   1.893   1.779  0.5836 -0.2370  1.1255
 1050TIP3   OH224708   6.076   4.034   0.595  0.0853 -0.0576 -0.1987
 1050TIP3    H124709   5.983   4.015   0.593  0.3529 -1.6029  0.5526
 1050TIP3    H224710   6.103   4.014   0.685  1.2416 -0.2328 -0.5600
 1051TIP3   OH224711   1.882   2.561   7.273  0.1070 -0.0554  0.0116
 1051TIP3    H124712   1.840   2.638   7.311 -1.3687 -0.1749 -1.2640
 1051TIP3    H224713   1.818   2.491   7.283  1.2993 -1.0799  0.8604
 1052TIP3   OH224714   4.793   5.126   1.894 -0.4678  0.5016  0.3342
 1052TIP3    H124715   4.702   5.143   1.868 -0.0231  2.8842  0.0517
 1052TIP3    H224716   4.845   5.174   1.830  0.9202  0.6085  1.4939
 1053TIP3   OH224717   5.281   1.017   2.266  0.2388 -0.1346  0.1308
 1053TIP3    H124718   5.351   0.955   2.246  0.2226  0.1355 -0.7900
 1053TIP3    H224719   5.265   1.062   2.183  0.3406  1.1957  0.8222
 1054TIP3   OH224720   5.986   0.528   7.467  0.3080 -0.3702 -0.0604
 1054TIP3    H124721   6.057   0.475   7.502  0.1780 -0.6548 -0.2226
 1054TIP3    H224722   6.002   0.531   7.373  0.1603 -0.3592 -0.0855
 1055TIP3   OH224723   1.983   0.198   1.001  0.2759 -0.4198 -0.3238
 1055TIP3    H124724   1.947   0.258   0.936 -1.3395 -2.4778 -1.4824
 1055TIP3    H224725   2.074   0.225   1.011 -0.3581  2.1130 -0.8206
 1056TIP3   OH224726   4.917   3.831   1.001 -0.1698  0.1763 -0.0381
 1056TIP3    H124727   4.972   3.860   1.074 -1.1916 -1.8350  1.6422
 1056TIP3    H224728   4.976   3.779   0.946  0.1400 -0.1353  0.5685
 1057TIP3   OH224729   0.704   4.412   0.693 -0.6026 -0.0067  1.2312
 1057TIP3    H124730   0.638   4.463   0.741 -2.3239 -0.2547 -0.7115
 1057TIP3    H224731   0.655   4.371   0.622  1.9265  1.1996 -1.4089
 1058TIP3   OH224732   6.433   1.023   8.073  0.0917  0.4522  0.1557
 1058TIP3    H124733   6.415   1.106   8.030  0.1908  0.2510 -0.2811
 1058TIP3    H224734   6.348   0.992   8.102  0.0577  0.7167  0.3397
 1059TIP3   OH224735   3.207   5.226   1.998 -0.3666  0.0079  0.1911
 1059TIP3    H124736   3.246   5.314   1.994 -0.9000  0.2663  0.5872
 1059TIP3    H224737   3.269   5.175   2.051 -0.8777  0.5904  1.3779
 1060TIP3   OH224738   1.839   1.032   0.184 -0.2611 -0.1103  0.5901
 1060TIP3    H124739   1.867   0.991   0.102 -1.9769 -0.6282  0.2276
 1060TIP3    H224740   1.795   1.113   0.157  0.3796  0.4240  1.1060
 1061TIP3   OH224741   4.539   3.812   8.544 -0.1821  0.4060  0.1492
 1061TIP3    H124742   4.498   3.896   8.564  2.1282  1.6979 -0.1877
 1061TIP3    H224743   4.505   3.788   8.458  0.3682  1.8678 -0.5005
 1062TIP3   OH224744   4.295   0.299   7.612  0.4997  0.2635  0.1868
 1062TIP3    H124745   4.336   0.221   7.574 -0.2935  0.0835 -0.3362
 1062TIP3    H224746   4.353   0.325   7.683  0.8742 -0.6966  0.2464
 1063TIP3   OH224747   3.941   2.906   6.988 -0.3307 -0.0709 -0.0102
 1063TIP3    H124748   3.914   2.816   7.008  0.9273 -0.0716  1.8753
 1063TIP3    H224749   3.897   2.959   7.054  0.4569  0.4673  0.0845
 1064TIP3   OH224750   0.562   5.871   1.671  0.1632 -0.4262 -0.4075
 1064TIP3    H124751   0.472   5.863   1.703  0.2507 -1.4429 -0.3792
 1064TIP3    H224752   0.553   5.913   1.585 -0.1425  1.4882  0.5238
 1065TIP3   OH224753   3.023   4.297   1.498 -0.3379 -0.1502  0.2270
 1065TIP3    H124754   3.074   4.318   1.420  0.7957 -0.4147  0.8796
 1065TIP3    H224755   3.080   4.319   1.572 -1.2648 -0.2082  0.9868
 1066TIP3   OH224756   3.824   4.638   7.187  0.0816 -0.6689 -0.0893
 1066TIP3    H124757   3.833   4.732   7.168 -2.4294  0.0461  1.7421
 1066TIP3    H224758   3.784   4.602   7.108  0.9435 -0.2000 -0.7631
 1067TIP3   OH224759   1.300   3.156   8.630  0.1636  0.2668  0.1623
 1067TIP3    H124760   1.274   3.126   8.543  2.2337 -0.5155 -0.2354
 1067TIP3    H224761   1.353   3.234   8.613  1.4670 -0.5037  0.6310
 1068TIP3   OH224762   5.848   2.702   1.023  0.2323  0.7446 -0.3006
 1068TIP3    H124763   5.790   2.756   0.969  0.2456  1.0615  0.0001
 1068TIP3    H224764   5.861   2.622   0.972 -1.1924  0.2750  0.0125
 1069TIP3   OH224765   5.121   5.303   2.219 -0.1403 -0.3114  0.2198
 1069TIP3    H124766   5.054   5.370   2.232 -0.8836 -0.8872 -0.5463
 1069TIP3    H224767   5.106   5.241   2.291  1.2077  0.8267  1.5498
 1070TIP3   OH224768   4.966   0.194   7.817  0.0956  0.1508 -0.5111
 1070TIP3    H124769   4.994   0.107   7.846  0.0963  0.4274  0.3323
 1070TIP3    H224770   5.048   0.240   7.799  0.1932  0.7121  1.2327
 1071TIP3   OH224771   2.155   5.429   7.999  0.4744 -0.3410  0.1913
 1071TIP3    H124772   2.061   5.428   7.982  0.8086  0.2064 -1.9326
 1071TIP3    H224773   2.173   5.344   8.039 -0.7616 -0.9007 -0.3990
 1072TIP3   OH224774   2.914   6.088   1.754  0.3192  0.3080 -0.0701
 1072TIP3    H124775   2.963   6.020   1.708 -1.2588 -0.0570 -1.3107
 1072TIP3    H224776   2.851   6.120   1.690  0.2800  2.1847  0.8336
 1073TIP3   OH224777   0.856   3.249   1.282 -0.1656 -0.2893  0.7789
 1073TIP3    H124778   0.834   3.171   1.232  0.9413 -0.8269  1.0960
 1073TIP3    H224779   0.781   3.307   1.271 -1.5091 -1.8412  1.4768
 1074TIP3   OH224780   3.128   1.999   6.687  0.6140  0.2105  0.1290
 1074TIP3    H124781   3.178   1.947   6.624  0.4249 -0.6640  0.6849
 1074TIP3    H224782   3.193   2.057   6.727  0.8546  0.3024 -0.3733
 1075TIP3   OH224783   0.003   3.606   1.745  0.0163  0.2423 -0.1475
 1075TIP3    H124784  -0.077   3.556   1.753  0.8777 -1.1380  0.1535
 1075TIP3    H224785  -0.024   3.697   1.757 -1.3363 -0.2748  0.9309
 1076TIP3   OH224786   0.046   5.087   1.215 -0.3660 -0.0185  0.4454
 1076TIP3    H124787  -0.040   5.125   1.195 -0.0361  0.0932 -0.8943
 1076TIP3    H224788   0.059   5.105   1.308 -1.8423 -0.1429  0.7096
 1077TIP3   OH224789   3.789   5.827   7.337 -0.2535 -0.2684  0.2760
 1077TIP3    H124790   3.779   5.792   7.426 -0.0592 -0.3980  0.2488
 1077TIP3    H224791   3.832   5.912   7.349  0.4898 -0.6323  0.2593
 1078TIP3   OH224792   6.144   1.325   7.924  0.1236  0.2753  0.0730
 1078TIP3    H124793   6.135   1.240   7.880 -1.2624  1.0557 -1.2291
 1078TIP3    H224794   6.056   1.362   7.923  0.6743  1.6587  0.7769
 1079TIP3   OH224795   2.888   6.001   8.565 -0.5731  0.0371 -0.5374
 1079TIP3    H124796   2.822   6.011   8.633  0.1508 -0.5883  0.2911
 1079TIP3    H224797   2.863   5.921   8.519 -1.3479  0.7336 -1.3545
 1080TIP3   OH224798   6.479   5.613   0.764 -0.0734  0.1908  0.7107
 1080TIP3    H124799   6.545   5.664   0.811  1.7359 -0.3473 -1.0744
 1080TIP3    H224800   6.488   5.524   0.799  1.3398 -0.2306 -0.5870
 1081TIP3   OH224801   2.940   2.575   0.529 -0.0551  0.0465 -0.0594
 1081TIP3    H124802   2.998   2.503   0.503  0.9405  0.7130  0.2581
 1081TIP3    H224803   2.912   2.613   0.446  0.7785  0.3501 -0.2078
 1082TIP3   OH224804   1.688   1.579   7.354 -0.4285 -0.3144  0.8541
 1082TIP3    H124805   1.694   1.574   7.259 -1.7904 -0.6682  0.7592
 1082TIP3    H224806   1.674   1.488   7.382  0.9262 -0.3452  1.4889
 1083TIP3   OH224807   3.703   3.093   8.198  0.4841 -0.0447  0.0485
 1083TIP3    H124808   3.680   3.115   8.108 -0.1006 -0.8330 -0.0020
 1083TIP3    H224809   3.650   3.017   8.219 -0.1683  0.7395  1.4096
 1084TIP3   OH224810   3.293   5.163   0.958 -0.0193  0.1072 -0.6140
 1084TIP3    H124811   3.263   5.247   0.992  1.5362  0.1027  0.9152
 1084TIP3    H224812   3.375   5.146   1.005 -0.2798 -2.2535 -0.8923
 1085TIP3   OH224813   2.388   3.043   7.098  0.5048  0.3804  0.5623
 1085TIP3    H124814   2.472   2.997   7.098 -0.0775 -0.8996 -2.4168
 1085TIP3    H224815   2.326   2.981   7.136  0.3559  0.0596 -0.1909
 1086TIP3   OH224816   4.981   6.758   2.247  0.0752 -0.4799 -0.5282
 1086TIP3    H124817   4.998   6.793   2.335  0.4533 -3.7102  0.8289
 1086TIP3    H224818   4.974   6.835   2.191  0.7271  1.6815  2.1711
 1087TIP3   OH224819   2.051   3.503   0.823 -0.3296  0.4185 -0.6471
 1087TIP3    H124820   2.021   3.425   0.776  0.6647 -0.3013 -0.1367
 1087TIP3    H224821   1.992   3.572   0.794  0.6874  0.2284 -3.5923
 1088TIP3   OH224822   5.734   0.623   7.804  0.4477  0.6090  0.5801
 1088TIP3    H124823   5.697   0.703   7.841  0.1469  0.5868  0.3280
 1088TIP3    H224824   5.795   0.654   7.737 -0.0903  0.6167  0.0892
 1089TIP3   OH224825   6.139   4.168   2.873  0.5966 -0.0093 -0.5570
 1089TIP3    H124826   6.098   4.134   2.794 -0.0413 -1.7628  0.4837
 1089TIP3    H224827   6.228   4.135   2.870  0.9451  0.9279 -1.1022
 1090TIP3   OH224828   3.615   0.510   7.433  0.1286 -0.3082 -0.2621
 1090TIP3    H124829   3.710   0.521   7.424  0.2676 -1.5620 -0.4722
 1090TIP3    H224830   3.605   0.427   7.479 -0.8306  0.7203  1.5027
 1091TIP3   OH224831   5.527   1.309   0.147 -0.0200 -0.1012  0.3042
 1091TIP3    H124832   5.585   1.385   0.146 -0.4354  0.3042 -2.9150
 1091TIP3    H224833   5.439   1.345   0.139 -0.3140 -0.8664 -0.0570
 1092TIP3   OH224834   0.638   6.723   7.728  0.8535 -0.2089 -0.0417
 1092TIP3    H124835   0.580   6.772   7.786  0.7334 -0.0375 -0.3047
 1092TIP3    H224836   0.582   6.698   7.655  0.9483 -0.6228  0.0282
 1093TIP3   OH224837   3.190   3.962   2.295  0.4962 -0.5783  0.4060
 1093TIP3    H124838   3.285   3.974   2.299  0.6564  1.7196 -4.0687
 1093TIP3    H224839   3.177   3.900   2.223 -1.3626  0.3860 -0.1494
 1094TIP3   OH224840   3.178   0.908   7.542  0.0686 -1.0830 -0.1238
 1094TIP3    H124841   3.211   0.978   7.599  0.5516 -0.7025 -0.8693
 1094TIP3    H224842   3.240   0.904   7.470 -0.6755 -1.3912 -0.7616
 1095TIP3   OH224843   3.904   6.068   1.697 -0.6634  0.0531 -0.2713
 1095TIP3    H124844   3.933   6.116   1.620  2.1341  0.5903  1.0178
 1095TIP3    H224845   3.870   6.135   1.756 -0.4537 -0.0391 -0.0438
 1096TIP3   OH224846   0.820   6.188   0.309  0.3225  0.1102  0.1551
 1096TIP3    H124847   0.734   6.224   0.332  0.9737  2.3243 -0.6503
 1096TIP3    H224848   0.802   6.124   0.241 -0.8103 -0.5068  1.0094
 1097TIP3   OH224849   3.217   6.752   0.129  0.1712 -0.0418  0.6214
 1097TIP3    H124850   3.270   6.777   0.052 -0.3428  0.2379  0.3554
 1097TIP3    H224851   3.211   6.832   0.181  0.2420 -0.1474  0.7940
 1098TIP3   OH224852   1.341   0.177   7.434  0.1956  0.2466  0.4389
 1098TIP3    H124853   1.405   0.135   7.492 -1.1203  1.6639  3.0804
 1098TIP3    H224854   1.332   0.117   7.360  0.1829 -2.9352  2.8484
 1099TIP3   OH224855   0.465   4.643   6.636 -0.6762  0.3512 -0.0985
 1099TIP3    H124856   0.408   4.708   6.596  1.1605  0.5918 -2.5689
 1099TIP3    H224857   0.528   4.621   6.567  2.0121 -0.1461  2.3263
 1100TIP3   OH224858   6.654   4.698   7.316  0.2161 -0.3110 -0.3383
 1100TIP3    H124859   6.734   4.727   7.359  0.3866  1.3711 -1.7079
 1100TIP3    H224860   6.683   4.654   7.237 -0.1804  0.9223 -1.2034
 1101TIP3   OH224861   0.919   2.262   7.031  0.2690 -0.2339  0.2420
 1101TIP3    H124862   0.836   2.308   7.041  0.5655  0.5125 -0.6053
 1101TIP3    H224863   0.894   2.170   7.021 -0.7487  0.2840 -3.1434
 1102TIP3   OH224864   1.239   5.653   1.466  0.7081  0.1164  0.1502
 1102TIP3    H124865   1.312   5.593   1.482  0.9919  0.7165  1.2570
 1102TIP3    H224866   1.182   5.607   1.404 -0.4403 -2.4931  2.8840
 1103TIP3   OH224867   4.127   3.256   7.572 -0.0647  0.1930  0.0023
 1103TIP3    H124868   4.129   3.211   7.656  0.2337  0.8794  0.3737
 1103TIP3    H224869   4.037   3.245   7.541  0.2656 -1.5921 -0.4607
 1104TIP3   OH224870   5.792   4.518   6.835  0.2346 -0.0559 -0.2191
 1104TIP3    H124871   5.719   4.558   6.787 -0.1418  0.6175  0.8645
 1104TIP3    H224872   5.812   4.581   6.905 -0.0119 -1.4960  1.2178
 1105TIP3   OH224873   2.911   0.162   6.831  0.3103  0.4234 -0.4170
 1105TIP3    H124874   2.998   0.121   6.829  0.3725  0.5878 -1.2122
 1105TIP3    H224875   2.874   0.145   6.745 -0.5437  0.1710 -0.0129
 1106TIP3   OH224876   2.037   2.392   0.504 -0.1707  0.5801  0.1145
 1106TIP3    H124877   2.087   2.425   0.579 -0.4499 -0.2725  0.6961
 1106TIP3    H224878   2.095   2.331   0.461  0.4748  2.0369 -1.1705
 1107TIP3   OH224879   0.683   2.871   2.037 -0.1003  0.1212  0.3445
 1107TIP3    H124880   0.605   2.885   2.091  0.1258 -0.0921  0.7299
 1107TIP3    H224881   0.749   2.931   2.073  0.4628 -0.9518  1.1750
 1108TIP3   OH224882   6.074   0.519   1.352  0.7304 -0.4068 -0.0280
 1108TIP3    H124883   6.036   0.575   1.421  3.2537  1.4783 -0.0272
 1108TIP3    H224884   6.111   0.581   1.289 -0.8223 -2.0923 -2.7983
 1109TIP3   OH224885   4.361   2.439   0.741  0.0073 -0.2573 -0.1524
 1109TIP3    H124886   4.311   2.408   0.816 -0.4267  0.5787 -0.0770
 1109TIP3    H224887   4.431   2.493   0.779  0.9177 -1.3296 -0.2638
 1110TIP3   OH224888   1.904   6.069   8.551  0.1187 -0.1186 -0.5567
 1110TIP3    H124889   1.864   6.050   8.466  0.4699 -0.5836 -0.6217
 1110TIP3    H224890   1.854   6.144   8.584 -0.9093 -0.7885 -0.5584
 1111TIP3   OH224891   2.640   5.492   7.507  0.7971 -0.0050  0.2243
 1111TIP3    H124892   2.658   5.442   7.428  0.6674 -0.4917  0.5030
 1111TIP3    H224893   2.690   5.448   7.575  2.1761  1.3396  0.1297
 1112TIP3   OH224894   0.858   1.054   1.700 -0.7941 -0.7380 -0.5716
 1112TIP3    H124895   0.927   1.099   1.748 -1.0782 -0.7046 -0.1847
 1112TIP3    H224896   0.829   1.117   1.634 -1.9135  0.0891  0.6381
 1113TIP3   OH224897   1.229   2.213   1.639  0.0691 -0.1972  0.1618
 1113TIP3    H124898   1.161   2.150   1.661  0.1300 -0.5267 -0.5849
 1113TIP3    H224899   1.211   2.288   1.696  0.6431 -1.2874  1.8448
 1114TIP3   OH224900   2.087   5.161   0.059 -0.7843  0.0882 -0.2960
 1114TIP3    H124901   2.149   5.130   0.126 -0.0450  1.1760 -0.4588
 1114TIP3    H224902   2.010   5.105   0.071 -0.3237 -0.3324  0.8698
 1115TIP3   OH224903   1.689   2.375   7.326 -0.6579 -0.3052 -0.3628
 1115TIP3    H124904   1.699   2.293   7.277  2.1972 -1.3321  1.6470
 1115TIP3    H224905   1.595   2.382   7.342 -0.9387 -4.1224  0.7126
 1116TIP3   OH224906   3.227   2.544   7.841  0.4690  0.4033 -0.7456
 1116TIP3    H124907   3.140   2.524   7.805  0.5138 -1.0725 -0.0825
 1116TIP3    H224908   3.276   2.579   7.767  0.4186 -2.1149 -2.0737
 1117TIP3   OH224909   4.933   5.339   0.291 -0.2579  0.0202  0.0077
 1117TIP3    H124910   4.848   5.375   0.319 -0.9170 -1.0365 -0.5614
 1117TIP3    H224911   4.988   5.347   0.369 -0.5095  1.7411  0.0692
 1118TIP3   OH224912   0.350   3.509   6.519  0.8165  0.4425 -0.1142
 1118TIP3    H124913   0.330   3.572   6.589  0.1234 -0.4249  0.4971
 1118TIP3    H224914   0.268   3.462   6.506  1.7207 -1.4180  0.5878
 1119TIP3   OH224915   2.105   6.603   0.822  0.2232  0.5501 -0.3159
 1119TIP3    H124916   2.046   6.594   0.897 -1.2433  1.4255 -1.3210
 1119TIP3    H224917   2.070   6.542   0.757  1.2461  0.0952 -0.4592
 1120TIP3   OH224918   2.171   6.072   7.454  0.5765 -0.1387 -0.0688
 1120TIP3    H124919   2.189   6.092   7.362  1.3383  2.2203  0.5141
 1120TIP3    H224920   2.078   6.092   7.465  0.5903  0.0155 -0.2256
 1121TIP3   OH224921   3.491   1.504   0.413  0.5584  0.5569  0.1313
 1121TIP3    H124922   3.519   1.555   0.489 -1.1396 -1.0069  1.9084
 1121TIP3    H224923   3.530   1.417   0.427  1.8210  0.7297 -1.8523
 1122TIP3   OH224924   5.932   2.146   1.654 -0.3914 -0.6563 -0.0644
 1122TIP3    H124925   6.027   2.156   1.654 -0.3873 -0.6970 -0.0222
 1122TIP3    H224926   5.903   2.196   1.578 -0.3453 -0.5621 -0.0198
 1123TIP3   OH224927   4.773   4.817   6.986  0.3725  0.1541 -0.0617
 1123TIP3    H124928   4.748   4.895   6.936 -0.7980 -0.0321  0.2012
 1123TIP3    H224929   4.709   4.814   7.058  2.2790  0.6871  1.7465
 1124TIP3   OH224930   2.501   1.681   0.578 -0.7522 -0.0179 -0.0604
 1124TIP3    H124931   2.592   1.695   0.604  0.2136 -2.1874 -1.9362
 1124TIP3    H224932   2.476   1.600   0.623 -2.0337  0.8880  0.9456
 1125TIP3   OH224933   5.876   0.343   1.564  0.1569 -0.2659  0.4218
 1125TIP3    H124934   5.833   0.338   1.649  0.3040 -2.6566  0.4239
 1125TIP3    H224935   5.866   0.256   1.527  0.5102  0.5780 -1.8392
 1126TIP3   OH224936   0.207   5.120   7.717 -0.7517  0.5843 -0.2874
 1126TIP3    H124937   0.215   5.172   7.797 -0.4415  1.8648 -1.1107
 1126TIP3    H224938   0.286   5.142   7.666 -0.0033 -1.6006 -0.1992
 1127TIP3   OH224939   3.277   0.091   7.070  0.6052  0.0118 -0.5548
 1127TIP3    H124940   3.221   0.140   7.131 -0.7246 -1.0922 -0.8246
 1127TIP3    H224941   3.293   0.008   7.114 -1.5444 -1.3851 -2.1734
 1128TIP3   OH224942   3.949   6.234   1.481 -0.4389  0.0848  0.5004
 1128TIP3    H124943   3.855   6.246   1.464 -0.7326 -0.8519  1.3689
 1128TIP3    H224944   3.990   6.241   1.395 -1.3809 -0.1291  0.0171
 1129TIP3   OH224945   5.340   4.542   2.438 -0.3670 -0.5337  0.2846
 1129TIP3    H124946   5.317   4.555   2.346 -0.0568  2.7165  0.5200
 1129TIP3    H224947   5.433   4.519   2.437  0.1000  1.1767 -0.2591
 1130TIP3   OH224948   6.271   2.566   6.557 -0.0151  0.1209 -0.1350
 1130TIP3    H124949   6.231   2.489   6.598  0.7769  0.1524  0.7376
 1130TIP3    H224950   6.358   2.571   6.596  0.5201  0.5693 -1.3347
 1131TIP3   OH224951   1.519   3.260   7.954 -0.0859 -0.3180  0.9780
 1131TIP3    H124952   1.463   3.183   7.963 -1.1631  0.3267  0.0232
 1131TIP3    H224953   1.579   3.238   7.882 -1.7402  0.4665 -0.7221
 1132TIP3   OH224954   6.798   2.230   0.988 -0.5182 -0.2177 -0.1812
 1132TIP3    H124955   6.741   2.252   0.914 -0.2559  1.5711  0.1069
 1132TIP3    H224956   6.886   2.252   0.958 -0.4493  0.8747  0.7678
 1133TIP3   OH224957   4.954   6.733   0.002 -0.3333 -0.1488 -0.0816
 1133TIP3    H124958   4.939   6.704  -0.088  1.8079 -1.5450 -0.0643
 1133TIP3    H224959   5.043   6.767   0.002 -0.3145 -0.1055  1.5104
 1134TIP3   OH224960   6.392   3.380   1.146  0.0985  0.1148  0.4103
 1134TIP3    H124961   6.464   3.397   1.206  0.3173 -0.0827  0.2034
 1134TIP3    H224962   6.429   3.392   1.059 -0.5277  1.6580  0.3142
 1135TIP3   OH224963   4.534   2.182   7.901  0.1725 -0.1004 -0.2469
 1135TIP3    H124964   4.539   2.250   7.968  1.3513  0.1299 -0.5428
 1135TIP3    H224965   4.475   2.219   7.835 -1.4562 -0.5691  0.8896
 1136TIP3   OH224966   6.370   6.809   1.581  0.1135 -0.3099  0.0828
 1136TIP3    H124967   6.443   6.761   1.540  0.2138 -1.4915  1.5377
 1136TIP3    H224968   6.382   6.793   1.675 -1.2229  0.6700  0.4379
 1137TIP3   OH224969   0.285   5.678   8.035  0.2280  0.0386 -0.1722
 1137TIP3    H124970   0.352   5.610   8.023 -0.4157 -1.1546  2.3136
 1137TIP3    H224971   0.300   5.711   8.123 -0.8650  1.6082 -0.5423
 1138TIP3   OH224972   6.354   3.035   7.541 -0.2197  0.6100  0.5157
 1138TIP3    H124973   6.317   3.037   7.452 -2.0109  1.2171  1.2139
 1138TIP3    H224974   6.277   3.035   7.598  0.8861 -0.4984  2.0799
 1139TIP3   OH224975   1.678   6.009   0.089  0.0396  0.3273  0.4204
 1139TIP3    H124976   1.587   6.039   0.098  0.0647  0.0311  1.8658
 1139TIP3    H224977   1.727   6.062   0.152  0.5934 -0.6686  0.8389
 1140TIP3   OH224978   5.853   3.300   1.259 -0.1118  0.0105 -0.5654
 1140TIP3    H124979   5.935   3.251   1.251  0.8071  1.0553  1.5714
 1140TIP3    H224980   5.861   3.371   1.196  1.5409  1.2072  0.8972
 1141TIP3   OH224981   6.186   2.701   0.102  0.1695 -0.3445 -0.2832
 1141TIP3    H124982   6.157   2.628   0.048 -0.7017 -0.4885  0.3616
 1141TIP3    H224983   6.122   2.770   0.086  0.7311  0.1229 -0.5405
 1142TIP3   OH224984   0.044   6.554   1.609 -0.1364 -0.3169  0.3214
 1142TIP3    H124985  -0.006   6.580   1.531 -0.1812 -0.3435  0.3411
 1142TIP3    H224986   0.103   6.628   1.624 -0.5634 -0.0294  0.6307
 1143TIP3   OH224987   5.704   5.201   0.060 -0.3132 -0.0460 -0.6542
 1143TIP3    H124988   5.731   5.197  -0.031 -2.4360 -0.3965 -1.3063
 1143TIP3    H224989   5.786   5.211   0.109  0.8905 -0.3002 -2.5451
 1144TIP3   OH224990   3.432   3.633   0.206  0.1193  0.3146 -0.1116
 1144TIP3    H124991   3.425   3.571   0.134  0.8219 -1.3365  1.1667
 1144TIP3    H224992   3.357   3.692   0.194  0.2112  0.0868 -2.1451
 1145TIP3   OH224993   3.751   2.810   0.472 -0.5213 -0.0783  0.1884
 1145TIP3    H124994   3.781   2.777   0.387  0.8304 -1.1983  1.0579
 1145TIP3    H224995   3.738   2.731   0.525 -1.7143  0.5848  0.9173
 1146TIP3   OH224996   3.521   3.621   8.130 -0.0611 -0.2169  0.0788
 1146TIP3    H124997   3.581   3.690   8.103  0.2290 -0.1269  0.9363
 1146TIP3    H224998   3.479   3.655   8.209 -0.6394 -0.6236 -0.0452
 1147TIP3   OH224999   4.458   3.495   7.498 -0.4897  0.1118 -0.0248
 1147TIP3    H125000   4.415   3.468   7.416  1.0764  1.2704 -1.2971
 1147TIP3    H225001   4.516   3.567   7.471 -0.0009  0.5794  2.1427
 1148TIP3   OH225002   4.612   2.920   0.826  0.0955 -0.1206  0.2788
 1148TIP3    H125003   4.582   2.965   0.747  0.5955  0.1584  0.2413
 1148TIP3    H225004   4.635   2.832   0.796 -0.2095 -0.1785  0.2147
 1149TIP3   OH225005   6.308   2.379   7.340 -0.2241 -0.5431 -0.1006
 1149TIP3    H125006   6.338   2.321   7.411  1.5759 -0.0017 -0.3520
 1149TIP3    H225007   6.375   2.448   7.336 -1.1438  0.3214 -1.2749
 1150TIP3   OH225008   5.920   6.830   8.367  0.4882 -0.2637 -0.4880
 1150TIP3    H125009   5.882   6.875   8.291 -0.1791  0.6042  0.3308
 1150TIP3    H225010   5.905   6.890   8.440  0.1987 -1.5218  0.5212
 1151TIP3   OH225011   4.739   1.594   7.640  0.9468 -0.6464  0.1180
 1151TIP3    H125012   4.766   1.638   7.721  0.8553  0.9588 -0.6694
 1151TIP3    H225013   4.751   1.501   7.657  2.6841 -0.2402  1.3449
 1152TIP3   OH225014   3.772   6.229   8.453 -0.1424 -0.1345 -0.1677
 1152TIP3    H125015   3.762   6.290   8.526  1.7078  0.2399 -0.1755
 1152TIP3    H225016   3.696   6.246   8.397  0.2095  2.0321 -0.0693
 1153TIP3   OH225017   6.716   5.169   1.572 -0.2608 -0.4293  0.0462
 1153TIP3    H125018   6.698   5.242   1.512 -1.8411 -0.5532  0.3064
 1153TIP3    H225019   6.808   5.179   1.596 -0.5526  1.7771  0.4711
 1154TIP3   OH225020   2.385   2.243   8.218 -0.1062  0.4920 -0.1563
 1154TIP3    H125021   2.438   2.171   8.182  0.7874  0.4550  1.1611
 1154TIP3    H225022   2.295   2.213   8.209  0.0239  0.6106 -2.5965
 1155TIP3   OH225023   5.185   5.260   0.174 -0.5160 -0.1499  0.1205
 1155TIP3    H125024   5.137   5.296   0.248  0.2045  2.9470 -0.7894
 1155TIP3    H225025   5.277   5.274   0.196 -0.2933  0.6466 -1.2232
 1156TIP3   OH225026   3.071   0.939   0.476  0.0115  0.6520  0.4481
 1156TIP3    H125027   3.073   0.925   0.381 -0.2339 -0.9815  0.6544
 1156TIP3    H225028   3.034   1.027   0.486 -0.1641  0.7717 -0.9639
 1157TIP3   OH225029   0.070   0.607   6.108 -0.3010 -0.5761 -0.0867
 1157TIP3    H125030   0.043   0.699   6.107 -0.7761 -0.7015  0.3410
 1157TIP3    H225031   0.152   0.607   6.157  0.1871 -0.2660 -0.8815
 1158TIP3   OH225032   1.864   6.071   0.580 -0.2312  0.4230 -0.2819
 1158TIP3    H125033   1.870   6.150   0.526 -0.8200 -0.5399 -1.8282
 1158TIP3    H225034   1.781   6.031   0.554 -0.1465 -0.4726  0.7970
 1159TIP3   OH225035   6.645   0.749   8.617  0.1077  0.7555  0.2418
 1159TIP3    H125036   6.647   0.734   8.711  0.2874 -1.3502 -0.0532
 1159TIP3    H225037   6.554   0.774   8.598 -0.6355 -1.3849  0.6730
 1160TIP3   OH225038   6.140   3.009   8.445  0.4471 -0.0280  0.0409
 1160TIP3    H125039   6.109   3.082   8.497 -0.6616 -0.0042 -0.6344
 1160TIP3    H225040   6.236   3.017   8.446  0.5169 -0.4773  2.6835
 1161TIP3   OH225041   3.511   6.460   0.694  0.7300 -0.7482  0.0003
 1161TIP3    H125042   3.590   6.505   0.664 -0.0543  0.1627 -0.7769
 1161TIP3    H225043   3.542   6.396   0.758  2.2975 -1.6447 -1.5723
 1162TIP3   OH225044   3.773   4.608   7.740  0.1471  0.1883  0.0141
 1162TIP3    H125045   3.810   4.543   7.680  0.2328  2.0312 -2.0429
 1162TIP3    H225046   3.829   4.604   7.817  0.3886 -1.8541 -0.1901
 1163TIP3   OH225047   2.858   4.854   8.097 -0.4030 -0.1022 -0.1155
 1163TIP3    H125048   2.930   4.835   8.037  0.1192 -0.7426  0.7096
 1163TIP3    H225049   2.900   4.891   8.174 -0.9899 -0.1886  0.2499
 1164TIP3   OH225050   0.388   3.664   0.370 -0.0110  0.2880  0.4049
 1164TIP3    H125051   0.452   3.734   0.379  0.1880 -0.0204  1.5192
 1164TIP3    H225052   0.375   3.631   0.459 -1.7975  0.4082  0.2365
 1165TIP3   OH225053   4.189   0.318   7.155  0.5166  0.0217  0.2647
 1165TIP3    H125054   4.230   0.232   7.166  1.9567 -0.1848 -4.3390
 1165TIP3    H225055   4.108   0.300   7.107  1.4103  1.1189 -1.8394
 1166TIP3   OH225056   4.965   0.834   8.071  0.3689 -0.0440  0.3495
 1166TIP3    H125057   4.947   0.822   7.977 -2.2465  0.4518  0.7142
 1166TIP3    H225058   5.038   0.896   8.073  0.3462  0.1038 -1.3690
 1167TIP3   OH225059   5.957   6.588   7.689 -0.2680 -0.2708  0.4245
 1167TIP3    H125060   5.931   6.677   7.666 -0.1966 -0.4499 -0.3940
 1167TIP3    H225061   5.882   6.534   7.665  0.5789 -0.7169 -1.4249
 1168TIP3   OH225062   4.874   1.361   7.264 -0.4458  0.4520  0.1500
 1168TIP3    H125063   4.934   1.320   7.327  0.6689  0.2668 -0.9949
 1168TIP3    H225064   4.787   1.345   7.301  0.0006 -1.9618  0.3513
 1169TIP3   OH225065   5.875   4.625   1.226 -0.5945 -0.2656  0.3623
 1169TIP3    H125066   5.908   4.702   1.180 -1.2764 -0.1880 -0.0081
 1169TIP3    H225067   5.922   4.552   1.185 -2.3189 -0.3638 -1.6196
 1170TIP3   OH225068   2.888   0.610   7.842  0.1707 -0.1360 -0.2247
 1170TIP3    H125069   2.947   0.587   7.769 -0.0833 -1.4334 -0.0432
 1170TIP3    H225070   2.894   0.705   7.848  0.4735 -0.0280 -1.7175
 1171TIP3   OH225071   3.890   1.460   1.323  0.4549  0.0320  0.5230
 1171TIP3    H125072   3.981   1.482   1.344  0.7766  0.0930 -0.8860
 1171TIP3    H225073   3.896   1.388   1.260 -0.4380  0.7846 -0.4501
 1172TIP3   OH225074   4.986   2.581   7.309 -0.0882 -0.6343  0.2923
 1172TIP3    H125075   4.901   2.549   7.278  0.0654  0.0848 -0.9491
 1172TIP3    H225076   5.028   2.616   7.230  0.0767  1.8800  1.4019
 1173TIP3   OH225077   0.093   5.667   0.975 -0.4955 -0.1309  0.7452
 1173TIP3    H125078   0.021   5.609   1.001 -1.2530 -0.5154 -1.8548
 1173TIP3    H225079   0.167   5.608   0.962 -0.4821 -0.1348  0.8457
 1174TIP3   OH225080   0.979   6.271   8.401 -0.4847 -0.4975  0.8398
 1174TIP3    H125081   1.073   6.283   8.413 -0.5625  1.4747 -0.0818
 1174TIP3    H225082   0.971   6.215   8.324 -0.0167  1.0208 -0.3673
 1175TIP3   OH225083   0.804   0.649   0.901 -0.5554  0.5251  0.2372
 1175TIP3    H125084   0.840   0.728   0.860 -1.1591  0.6105 -0.1333
 1175TIP3    H225085   0.819   0.662   0.994 -2.4569  2.0323  0.3918
 1176TIP3   OH225086   2.342   3.377   1.949 -0.5889  0.1115 -0.3271
 1176TIP3    H125087   2.360   3.342   2.036  0.7680  1.0710 -0.2027
 1176TIP3    H225088   2.271   3.440   1.962 -0.5440  0.0852  0.0325
 1177TIP3   OH225089   2.708   5.141   1.615  0.0257 -0.2346 -0.0096
 1177TIP3    H125090   2.760   5.216   1.586 -1.1879  0.0458 -1.6427
 1177TIP3    H225091   2.729   5.072   1.552 -0.2706 -0.6710  0.3615
 1178TIP3   OH225092   1.138   4.876   6.950  0.0323  0.0111  0.6562
 1178TIP3    H125093   1.201   4.912   6.888  0.4341 -2.7865 -0.6763
 1178TIP3    H225094   1.061   4.857   6.898 -0.0635 -1.2510  1.2163
 1179TIP3   OH225095   6.048   0.036   7.810 -0.4645 -0.5190  0.4246
 1179TIP3    H125096   6.112   0.100   7.840 -0.5275  0.9169 -2.1864
 1179TIP3    H225097   6.092  -0.049   7.819  1.4669  0.3402 -0.4626
 1180TIP3   OH225098   0.560   3.462   1.533  0.1068  0.0449  0.1681
 1180TIP3    H125099   0.482   3.457   1.478 -0.3442 -1.3094  0.8915
 1180TIP3    H225100   0.534   3.515   1.608  0.3339  0.7877 -0.2603
 1181TIP3   OH225101   2.162   0.545   8.683  0.1276  0.6962  0.0219
 1181TIP3    H125102   2.221   0.476   8.653  0.6248  0.9462  0.4305
 1181TIP3    H225103   2.127   0.512   8.767  1.2755  1.4555  0.8143
 1182TIP3   OH225104   3.546   0.754   7.532 -0.1954  0.2184 -0.7617
 1182TIP3    H125105   3.560   0.672   7.485 -1.8908 -0.2693 -0.4530
 1182TIP3    H225106   3.511   0.814   7.466  0.8533  0.6628 -0.9396
 1183TIP3   OH225107   5.774   2.819   0.115 -0.4456  0.0834  0.0288
 1183TIP3    H125108   5.868   2.803   0.115 -0.7977 -2.4067 -0.4582
 1183TIP3    H225109   5.765   2.913   0.101  1.9602  0.4828  0.7750
 1184TIP3   OH225110   0.957   3.853   8.081  0.1870  0.0952  0.1529
 1184TIP3    H125111   0.908   3.934   8.094  0.4401  0.3752 -0.5798
 1184TIP3    H225112   1.033   3.879   8.029 -0.0430 -0.7119 -0.6235
 1185TIP3   OH225113   6.410   2.767   7.560 -0.0865  0.1512 -0.3870
 1185TIP3    H125114   6.506   2.766   7.564 -0.0866  1.2552  1.4307
 1185TIP3    H225115   6.387   2.860   7.559 -1.1410 -0.0994 -1.3522
 1186TIP3   OH225116   0.583   3.338   1.202 -0.3622 -0.6262 -0.0321
 1186TIP3    H125117   0.581   3.407   1.136 -1.4293 -1.2879 -0.7324
 1186TIP3    H225118   0.523   3.369   1.270 -0.0218 -0.3853  0.1582
 1187TIP3   OH225119   3.632   6.637   1.088 -0.5084 -0.6573  0.3007
 1187TIP3    H125120   3.557   6.635   1.147 -0.0798 -0.8066  0.8418
 1187TIP3    H225121   3.594   6.660   1.003 -0.7947  2.2316  1.1139
 1188TIP3   OH225122   4.626   4.136   7.445  0.6474  0.6968 -0.4192
 1188TIP3    H125123   4.670   4.053   7.424  0.3188  0.4938 -0.3195
 1188TIP3    H225124   4.696   4.201   7.445  0.6724  0.6992 -2.0614
 1189TIP3   OH225125   2.319   0.416   7.324  0.3672 -0.4503  0.3867
 1189TIP3    H125126   2.262   0.384   7.254  1.7745 -2.9899  0.2706
 1189TIP3    H225127   2.407   0.411   7.287  0.8232  2.4916  0.8644
 1190TIP3   OH225128   3.693   4.678   1.386 -0.2653  0.0039  0.3813
 1190TIP3    H125129   3.642   4.750   1.349 -0.5833 -0.8174 -0.8600
 1190TIP3    H225130   3.630   4.607   1.396  0.5647 -1.0266 -1.1861
 1191TIP3   OH225131   1.973   5.584   0.409  0.6884 -0.4963  0.1851
 1191TIP3    H125132   1.878   5.572   0.405  0.6988 -1.6173  2.0884
 1191TIP3    H225133   2.006   5.500   0.440  2.0695  0.5934  1.7985
 1192TIP3   OH225134   6.711   6.612   7.507 -0.2793 -0.1564  0.1497
 1192TIP3    H125135   6.678   6.625   7.419  0.2678  0.1160 -0.0215
 1192TIP3    H225136   6.747   6.523   7.507  0.3950  0.1068 -0.1305
 1193TIP3   OH225137   2.020   2.933   1.468  0.7269  0.2022  0.6174
 1193TIP3    H125138   2.114   2.924   1.486  0.6576  0.3808  1.0752
 1193TIP3    H225139   1.982   2.852   1.504  0.5724  0.6157  1.4171
 1194TIP3   OH225140   5.219   4.153   0.129  0.4815  0.3403 -0.5133
 1194TIP3    H125141   5.272   4.161   0.050  0.3387  0.4749 -0.5952
 1194TIP3    H225142   5.151   4.090   0.107  2.3848 -2.2731  0.5446
 1195TIP3   OH225143   0.367   3.626   7.811  0.1639  0.4913 -0.0174
 1195TIP3    H125144   0.437   3.626   7.877  1.2197 -1.1864 -1.0756
 1195TIP3    H225145   0.403   3.677   7.738  0.7117 -1.1350 -0.9333
 1196TIP3   OH225146   0.606   6.408   1.739 -0.4593 -0.1391  0.5177
 1196TIP3    H125147   0.550   6.332   1.725 -0.4848 -0.1412  0.6352
 1196TIP3    H225148   0.546   6.482   1.749 -0.4463  0.5018 -2.8826
 1197TIP3   OH225149   3.837   4.402   0.969 -0.1571  0.0774 -0.0928
 1197TIP3    H125150   3.804   4.338   1.032 -0.6772  0.3521 -0.0785
 1197TIP3    H225151   3.784   4.480   0.984  0.5217  0.5411 -0.0612
 1198TIP3   OH225152   5.996   0.624   1.595 -0.1419 -0.0594  0.2372
 1198TIP3    H125153   5.905   0.647   1.575 -0.5294 -1.3044  0.5003
 1198TIP3    H225154   6.044   0.706   1.585 -1.2807  0.6010  0.0247
 1199TIP3   OH225155   4.465   4.419   0.935 -0.1427  0.5917 -0.7170
 1199TIP3    H125156   4.434   4.499   0.976  2.0656  0.8466  0.6136
 1199TIP3    H225157   4.410   4.350   0.972 -1.5351  1.3658 -1.2700
 1200TIP3   OH225158   5.988   1.012   1.358  0.2898  0.0156  0.1535
 1200TIP3    H125159   6.059   0.957   1.393 -0.8349 -1.0277  0.8825
 1200TIP3    H225160   5.934   1.032   1.435 -1.4793 -1.1598 -0.7227
 1201TIP3   OH225161   1.104   4.893   8.197 -0.0546 -0.3426 -0.0400
 1201TIP3    H125162   1.013   4.869   8.179  0.3709 -1.9349 -0.2276
 1201TIP3    H225163   1.155   4.816   8.170  1.1527 -0.4545  2.3134
 1202TIP3   OH225164   6.368   3.643   0.900  0.1332  0.4265 -0.1710
 1202TIP3    H125165   6.291   3.587   0.903  1.0366 -0.8971 -0.9335
 1202TIP3    H225166   6.374   3.671   0.809  0.4538  0.6716 -0.0753
 1203TIP3   OH225167   3.598   0.119   1.028 -0.4695  0.0560 -0.7362
 1203TIP3    H125168   3.647   0.105   0.946 -0.1145  1.7115 -0.8536
 1203TIP3    H225169   3.624   0.047   1.084 -0.9128 -1.2773 -2.1565
 1204TIP3   OH225170   0.894   1.733   7.741  0.3129 -0.0626 -0.0255
 1204TIP3    H125171   0.880   1.755   7.649 -0.8377 -0.2775  0.0896
 1204TIP3    H225172   0.856   1.646   7.751  0.7365 -0.1835  0.5833
 1205TIP3   OH225173   6.140   1.770   2.035 -0.1445  0.2748 -0.2447
 1205TIP3    H125174   6.198   1.812   1.972 -1.1041  0.7750 -0.8284
 1205TIP3    H225175   6.053   1.774   1.994 -0.4219 -1.5110  0.0479
 1206TIP3   OH225176   6.469   0.984   2.264  0.1926  0.6363  0.2041
 1206TIP3    H125177   6.548   0.985   2.210 -0.4817  1.1732 -0.7850
 1206TIP3    H225178   6.461   1.073   2.298  0.4100  0.3954  0.9113
 1207TIP3   OH225179   2.842   1.406   0.956  0.3376  0.9202  0.2614
 1207TIP3    H125180   2.813   1.471   1.020  1.0530  1.2348  0.2760
 1207TIP3    H225181   2.909   1.451   0.905  0.1705  0.4904 -0.3476
 1208TIP3   OH225182   5.855   6.644   1.486  0.5250 -0.2250 -0.3214
 1208TIP3    H125183   5.896   6.729   1.504  0.6051  0.1115 -1.9304
 1208TIP3    H225184   5.925   6.592   1.447 -0.1167 -0.2174 -1.5247
 1209TIP3   OH225185   6.634   4.984   0.627 -0.4958 -0.1929 -0.1001
 1209TIP3    H125186   6.654   5.077   0.614 -0.1305 -0.1168  0.8935
 1209TIP3    H225187   6.693   4.956   0.697 -1.5960 -0.7984  0.6316
 1210TIP3   OH225188   2.394   4.128   8.498 -0.1789 -0.0738 -0.0043
 1210TIP3    H125189   2.434   4.182   8.566 -0.1897 -0.4412  0.2989
 1210TIP3    H225190   2.323   4.081   8.542  0.6197 -1.2854  0.0500
 1211TIP3   OH225191   0.728   4.206   7.384 -0.1884  0.6785 -0.4174
 1211TIP3    H125192   0.634   4.201   7.364 -0.2021  1.7595 -0.6743
 1211TIP3    H225193   0.770   4.208   7.298 -0.0641  2.2397 -0.3415
 1212TIP3   OH225194   3.219   0.229   7.575 -1.0503  0.1827 -0.4596
 1212TIP3    H125195   3.244   0.144   7.613  2.3099  0.7099 -1.1802
 1212TIP3    H225196   3.177   0.206   7.492 -2.3808 -0.7635  0.4189
 1213TIP3   OH225197   2.075   6.813   8.675 -0.5431  0.3949 -0.7252
 1213TIP3    H125198   2.020   6.891   8.679 -0.1435  0.6368  0.3032
 1213TIP3    H225199   2.018   6.741   8.702 -0.5583  0.5239 -0.4215
 1214TIP3   OH225200   3.452   0.920   7.350 -0.4191  0.1885  0.5468
 1214TIP3    H125201   3.498   1.002   7.368  0.0218  0.4336 -1.3978
 1214TIP3    H225202   3.393   0.942   7.277  0.5325 -1.4597 -0.7817
 1215TIP3   OH225203   5.074   2.076   0.117  0.3892 -0.2271  0.0613
 1215TIP3    H125204   5.150   2.047   0.066 -0.8694 -0.2827 -1.9132
 1215TIP3    H225205   5.019   2.120   0.052 -3.1989 -3.7285  0.3891
 1216TIP3   OH225206   2.498   2.250   0.413 -0.3054  0.2882 -0.3223
 1216TIP3    H125207   2.431   2.273   0.477  0.6094  2.9512 -0.2068
 1216TIP3    H225208   2.578   2.288   0.447  1.4366 -3.0449 -0.3269
 1217TIP3   OH225209   6.278   1.922   1.840 -0.2125  0.0011 -0.2805
 1217TIP3    H125210   6.301   1.882   1.757  0.5478  1.3651 -0.7526
 1217TIP3    H225211   6.227   2.000   1.817  0.1264  0.4754  0.5200
 1218TIP3   OH225212   2.357   5.949   6.948  0.0822  0.5507 -0.0232
 1218TIP3    H125213   2.344   5.863   6.909 -0.2069  0.3380  0.5197
 1218TIP3    H225214   2.270   5.988   6.949  0.1897  0.7978 -0.1422
 1219TIP3   OH225215   4.683   5.439   0.419  0.0056 -0.1941  0.0897
 1219TIP3    H125216   4.606   5.490   0.445 -0.2099 -0.8743  0.8670
 1219TIP3    H225217   4.656   5.348   0.434  0.8923 -0.4513  0.1769
 1220TIP3   OH225218   0.371   6.675   7.211 -0.0813  0.0831  0.4176
 1220TIP3    H125219   0.292   6.661   7.263 -0.9265 -0.9298 -1.0757
 1220TIP3    H225220   0.386   6.591   7.167  1.8997  0.2210  0.7372
 1221TIP3   OH225221   4.368   2.445   1.599  0.1000  0.1580  0.6342
 1221TIP3    H125222   4.288   2.392   1.589 -0.2150  0.8243 -0.5596
 1221TIP3    H225223   4.336   2.535   1.607  0.7320  0.4668 -0.1524
 1222TIP3   OH225224   1.251   1.750   1.632 -0.0472  0.2024 -0.2456
 1222TIP3    H125225   1.254   1.813   1.560 -0.4199 -1.9676 -2.2725
 1222TIP3    H225226   1.168   1.703   1.619 -0.0871 -0.3187  1.5806
 1223TIP3   OH225227   6.277   4.576   2.105  0.7258 -0.4053  0.4226
 1223TIP3    H125228   6.215   4.632   2.057  1.1242 -0.7363 -0.5034
 1223TIP3    H225229   6.284   4.617   2.191  0.9856  0.9569 -0.2205
 1224TIP3   OH225230   1.251   1.465   8.042 -0.2671 -0.1074  0.7710
 1224TIP3    H125231   1.307   1.520   8.098  0.4927 -1.9543  1.9264
 1224TIP3    H225232   1.195   1.417   8.104 -1.2728 -0.2726 -0.2289
 1225TIP3   OH225233   0.970   3.252   1.841 -0.1290 -0.6362  0.5607
 1225TIP3    H125234   0.897   3.284   1.788 -0.0582  0.2978  1.0122
 1225TIP3    H225235   1.021   3.330   1.861 -0.6692 -0.7873  2.8054
 1226TIP3   OH225236   6.480   4.882   7.658 -0.5676  0.6193  0.0406
 1226TIP3    H125237   6.443   4.949   7.601  0.4366  0.1671 -1.1847
 1226TIP3    H225238   6.469   4.801   7.609 -1.6129 -0.1264  1.4281
 1227TIP3   OH225239   4.566   0.203   8.046  0.1699 -0.2608 -0.1324
 1227TIP3    H125240   4.651   0.193   8.090  0.5557 -1.3462 -1.0964
 1227TIP3    H225241   4.535   0.114   8.032 -0.1331  0.0714 -1.6806
 1228TIP3   OH225242   5.535   5.817   2.582  0.6003  0.3405  0.0867
 1228TIP3    H125243   5.576   5.747   2.634  1.4983 -0.7993 -2.0487
 1228TIP3    H225244   5.441   5.802   2.594  0.7436 -1.7973 -0.9265
 1229TIP3   OH225245   0.404   2.558   2.375 -0.8380 -0.2141  0.2275
 1229TIP3    H125246   0.344   2.497   2.418  0.0343  0.1591  2.1035
 1229TIP3    H225247   0.406   2.634   2.434  0.5926  0.2329 -0.3693
 1230TIP3   OH225248   4.697   4.162   1.435  0.2169  0.0585 -0.5118
 1230TIP3    H125249   4.716   4.077   1.476 -0.6223 -0.3764 -0.9933
 1230TIP3    H225250   4.605   4.156   1.411  0.0992  1.2000 -0.3672
 1231TIP3   OH225251   3.051   4.847   7.916  0.5178 -0.0919  0.3670
 1231TIP3    H125252   3.147   4.843   7.909  0.7474 -2.8920  2.7747
 1231TIP3    H225253   3.020   4.816   7.831  1.8587 -1.1478  0.2126
 1232TIP3   OH225254   0.492   0.572   7.159  0.3270 -0.4995  0.4086
 1232TIP3    H125255   0.516   0.625   7.083 -1.1120  0.8565  0.8485
 1232TIP3    H225256   0.427   0.510   7.125 -2.8453  2.2148  1.0138
 1233TIP3   OH225257   2.759   2.033   7.727 -0.3279 -0.1366  0.3585
 1233TIP3    H125258   2.734   2.095   7.658 -0.5392 -1.0149 -0.3656
 1233TIP3    H225259   2.841   2.068   7.762  0.6399 -0.5242 -1.4303
 1234TIP3   OH225260   3.528   2.943   7.745  0.1380 -0.8741 -0.4190
 1234TIP3    H125261   3.586   2.883   7.698  1.0073 -1.3107  1.1187
 1234TIP3    H225262   3.539   3.027   7.701  2.0640 -0.9271 -0.1324
 1235TIP3   OH225263   5.330   2.966   2.063  0.0300 -0.1391  0.2696
 1235TIP3    H125264   5.405   2.906   2.057  1.6015  1.5646  1.9477
 1235TIP3    H225265   5.354   3.040   2.008  0.2370  1.0577  1.9249
 1236TIP3   OH225266   1.249   5.554   6.960  0.4787 -0.1205 -0.2714
 1236TIP3    H125267   1.288   5.636   6.929 -0.2699  0.0750 -0.7194
 1236TIP3    H225268   1.226   5.506   6.880  1.5668 -1.0989 -0.0205
 1237TIP3   OH225269   1.996   2.631   0.322 -0.8530  0.9893 -0.0870
 1237TIP3    H125270   2.009   2.555   0.379 -1.5818 -0.7787 -2.1775
 1237TIP3    H225271   1.903   2.651   0.329 -0.6967  1.5972  0.3178
 1238TIP3   OH225272   1.351   2.106   2.199  0.5509 -0.0168 -0.1083
 1238TIP3    H125273   1.367   2.018   2.234  0.9524  0.5810  1.2804
 1238TIP3    H225274   1.438   2.141   2.182  0.4666  0.6511  0.7699
 1239TIP3   OH225275   4.718   5.777   1.604 -1.0326 -0.5788  0.5257
 1239TIP3    H125276   4.634   5.820   1.624 -1.1180  0.4832 -1.7956
 1239TIP3    H225277   4.781   5.848   1.597 -0.1188 -1.2854  1.2448
 1240TIP3   OH225278   5.151   3.222   1.709  0.0381 -0.2224 -0.3899
 1240TIP3    H125279   5.072   3.172   1.686 -0.2463 -0.0847  0.2662
 1240TIP3    H225280   5.182   3.258   1.626 -0.7156 -0.0950 -0.6181
 1241TIP3   OH225281   0.771   6.105   6.228 -0.5769  0.4608 -0.4801
 1241TIP3    H125282   0.719   6.130   6.152 -0.8437 -1.9640 -1.1870
 1241TIP3    H225283   0.717   6.041   6.274  1.0783 -0.9236 -0.3489
 1242TIP3   OH225284   5.770   4.819   2.225  0.2810 -0.3656  0.1638
 1242TIP3    H125285   5.848   4.874   2.222 -1.7115  2.7115 -2.9542
 1242TIP3    H225286   5.799   4.734   2.195  2.4688  0.6349 -0.7430
 1243TIP3   OH225287   0.150   4.103   0.732  0.0098  0.0316  0.3677
 1243TIP3    H125288   0.174   4.095   0.824  0.7131  2.3109  0.4567
 1243TIP3    H225289   0.055   4.113   0.732  0.1001  1.0535  0.9817
 1244TIP3   OH225290   0.928   1.995   6.893  0.3989  0.0388 -0.0353
 1244TIP3    H125291   0.950   2.064   6.830  1.0572 -0.8455 -0.7982
 1244TIP3    H225292   0.970   1.917   6.859  0.6733 -0.4992  1.4506
 1245TIP3   OH225293   5.458   6.826   1.455 -0.9903 -0.1101  0.1083
 1245TIP3    H125294   5.552   6.840   1.446 -1.1105  1.5383  1.1056
 1245TIP3    H225295   5.450   6.753   1.516 -0.3449  0.6024  1.0686
 1246TIP3   OH225296   4.567   1.309   1.715 -0.0669  0.4237  0.5085
 1246TIP3    H125297   4.498   1.303   1.781  0.6853 -1.8245  1.1812
 1246TIP3    H225298   4.529   1.267   1.638  0.3229 -0.3181  0.7087
 1247TIP3   OH225299   5.641   3.947   0.957 -0.0682 -0.1199 -0.0987
 1247TIP3    H125300   5.632   3.971   1.049 -0.3516  1.1415 -0.4278
 1247TIP3    H225301   5.579   3.876   0.944 -2.0235  1.4650  0.1007
 1248TIP3   OH225302   2.788   3.528   2.587  0.0071  0.2787 -0.7828
 1248TIP3    H125303   2.702   3.493   2.612  0.3460 -0.8574 -1.1694
 1248TIP3    H225304   2.836   3.453   2.552  1.5505  0.6690  0.3976
 1249TIP3   OH225305   3.434   1.869   7.052 -0.7838  0.4378 -0.1027
 1249TIP3    H125306   3.529   1.869   7.065 -0.9007 -2.5425  1.9941
 1249TIP3    H225307   3.420   1.809   6.979 -1.0480  0.0172  0.2839
 1250TIP3   OH225308   5.657   6.277   8.429  0.4464 -0.2826  0.0089
 1250TIP3    H125309   5.701   6.264   8.513 -0.3673 -0.0219  0.4805
 1250TIP3    H225310   5.719   6.241   8.365  1.4197  0.2105  0.6336
 1251TIP3   OH225311   2.960   4.954   1.721  0.5869  0.5317 -0.4091
 1251TIP3    H125312   2.886   4.905   1.755 -1.3094  1.7176 -2.5522
 1251TIP3    H225313   2.954   5.040   1.763  1.0780  0.4602 -0.1858
 1252TIP3   OH225314   6.001   4.906   1.382 -0.8068 -0.3642 -0.0272
 1252TIP3    H125315   6.070   4.945   1.329 -1.1408 -2.2192 -1.9533
 1252TIP3    H225316   5.923   4.959   1.364 -0.5858 -0.1065 -0.2242
 1253TIP3   OH225317   3.267   6.367   0.181 -0.1648 -0.6190  0.2677
 1253TIP3    H125318   3.213   6.359   0.102 -0.3127 -1.7486  0.4725
 1253TIP3    H225319   3.204   6.384   0.251 -0.1633 -0.9523  0.3508
 1254TIP3   OH225320   2.600   1.109   0.953 -0.4149 -0.2135 -0.1544
 1254TIP3    H125321   2.616   1.016   0.936  2.8016 -0.4712  3.1660
 1254TIP3    H225322   2.508   1.113   0.980 -0.2277 -2.7380  1.1676
 1255TIP3   OH225323   3.237   1.179   7.543  0.2222  0.0343  0.0355
 1255TIP3    H125324   3.163   1.240   7.553  0.5531  0.3565  0.6071
 1255TIP3    H225325   3.287   1.189   7.624  0.2652 -1.0379  0.1595
 1256TIP3   OH225326   2.842   3.808   0.911 -0.2062  0.1621 -0.1347
 1256TIP3    H125327   2.922   3.812   0.965  1.1608 -2.5625 -1.7624
 1256TIP3    H225328   2.783   3.753   0.961  1.2123 -2.7069 -1.4014
 1257TIP3   OH225329   4.977   3.137   2.968  0.9661 -0.0343  0.4792
 1257TIP3    H125330   4.907   3.078   2.997 -0.0073 -0.2540 -2.0595
 1257TIP3    H225331   4.936   3.224   2.968  0.5528 -0.1976 -1.2508
 1258TIP3   OH225332   0.263   4.617   1.528  0.3483 -0.2626  0.2537
 1258TIP3    H125333   0.307   4.700   1.512 -2.0622  1.2780  1.0352
 1258TIP3    H225334   0.275   4.600   1.621 -2.0555  1.1374  0.9098
 1259TIP3   OH225335   1.870   4.369   0.945  0.1119 -0.0245  0.5632
 1259TIP3    H125336   1.901   4.356   0.856  0.1255 -0.6358  0.6541
 1259TIP3    H225337   1.948   4.362   1.000 -0.2887 -2.8212  0.9142
 1260TIP3   OH225338   2.313   0.331   7.593  0.0408  0.5136  0.8485
 1260TIP3    H125339   2.336   0.335   7.500 -1.8520  1.8144  0.3796
 1260TIP3    H225340   2.250   0.260   7.600  0.7420 -0.0865  1.3118
 1261TIP3   OH225341   0.665   2.543   7.609  0.3073 -0.5843  0.1880
 1261TIP3    H125342   0.734   2.493   7.652  0.4206 -0.1876  0.4798
 1261TIP3    H225343   0.670   2.630   7.649  0.3779 -0.2201 -0.5798
 1262TIP3   OH225344   6.435   0.565   1.821 -0.3823  0.0306  0.1669
 1262TIP3    H125345   6.363   0.557   1.885  0.7112  1.0860  1.5893
 1262TIP3    H225346   6.513   0.579   1.875  0.7908 -0.3374 -1.3772
 1263TIP3   OH225347   5.186   2.761   8.367  0.0886  0.1423  0.7217
 1263TIP3    H125348   5.243   2.797   8.299  0.3256 -0.4063  0.6222
 1263TIP3    H225349   5.162   2.675   8.334  1.8437 -0.9917  2.2118
 1264TIP3   OH225350   2.380   4.317   1.657 -0.2789  0.5015  0.5235
 1264TIP3    H125351   2.438   4.251   1.619 -1.2765 -0.8981  1.3408
 1264TIP3    H225352   2.373   4.385   1.590  0.2507 -0.5319 -0.6179
 1265TIP3   OH225353   6.725   5.805   7.118 -0.0690  0.3120 -0.0141
 1265TIP3    H125354   6.675   5.869   7.168  2.1614  2.3914 -0.2430
 1265TIP3    H225355   6.730   5.843   7.030  1.2131 -0.2020 -0.1815
 1266TIP3   OH225356   5.281   6.849   1.243 -0.2296 -0.4240 -0.3576
 1266TIP3    H125357   5.339   6.805   1.181  0.5297  2.3270 -1.8122
 1266TIP3    H225358   5.331   6.852   1.324  0.2064 -1.1651 -0.5934
 1267TIP3   OH225359   4.347   2.440   7.244 -0.6055 -0.4983 -0.8296
 1267TIP3    H125360   4.369   2.428   7.152  2.2544  1.7126 -0.5711
 1267TIP3    H225361   4.318   2.531   7.250 -0.4839 -0.5180  0.4995
 1268TIP3   OH225362   1.983   1.614   1.367 -0.4659  0.0002 -0.5669
 1268TIP3    H125363   1.981   1.522   1.392  1.0295 -0.3978 -1.7367
 1268TIP3    H225364   2.058   1.621   1.308  1.8931  2.6904  2.3732
 1269TIP3   OH225365   4.438   2.876   2.091  0.2938  0.9472 -0.3116
 1269TIP3    H125366   4.434   2.802   2.031  0.8515 -1.7989  2.7272
 1269TIP3    H225367   4.532   2.890   2.106  0.1920  2.1773 -0.6761
 1270TIP3   OH225368   2.672   1.757   1.743 -0.1993  0.0331 -0.7705
 1270TIP3    H125369   2.608   1.762   1.814 -0.6673  0.9381 -1.2500
 1270TIP3    H225370   2.631   1.699   1.679  0.0254 -0.4133 -0.5194
 1271TIP3   OH225371   4.577   6.429   1.573  0.0838 -0.8167 -0.1245
 1271TIP3    H125372   4.646   6.493   1.591  1.5560 -1.7341 -2.1767
 1271TIP3    H225373   4.621   6.344   1.577 -1.3235 -1.5564  0.2539
 1272TIP3   OH225374   2.122   1.868   1.196 -0.0262 -0.1844 -0.2044
 1272TIP3    H125375   2.124   1.786   1.147  1.1754  0.1502 -0.7475
 1272TIP3    H225376   2.130   1.841   1.288 -2.5793 -0.8341 -0.0967
 1273TIP3   OH225377   1.404   5.788   8.058  0.6123 -0.1640 -0.0635
 1273TIP3    H125378   1.491   5.768   8.093  0.7200  1.0167  0.4005
 1273TIP3    H225379   1.405   5.756   7.968  1.1362 -1.1681  0.2968
 1274TIP3   OH225380   4.421   6.331   8.623 -0.2719 -0.4109 -0.6652
 1274TIP3    H125381   4.396   6.259   8.565  1.1124 -0.5068 -1.1916
 1274TIP3    H225382   4.427   6.291   8.710  2.2937 -1.4540 -1.2172
 1275TIP3   OH225383   4.106   3.806   1.962 -0.1034  0.0174  0.0574
 1275TIP3    H125384   4.194   3.770   1.952  0.7223  1.7577  0.5297
 1275TIP3    H225385   4.075   3.770   2.044  0.7666  0.4790  0.6094
 1276TIP3   OH225386   6.591   0.007   1.087  0.0406 -0.3536  0.1860
 1276TIP3    H125387   6.521   0.036   1.028  0.0717 -0.8244 -0.0844
 1276TIP3    H225388   6.640   0.087   1.106 -1.6234  0.3334  1.8423
 1277TIP3   OH225389   4.363   2.021   8.562 -0.4562 -0.4916  0.1046
 1277TIP3    H125390   4.307   2.008   8.639 -0.2082  0.0765  0.3845
 1277TIP3    H225391   4.336   2.106   8.527  0.8057  0.2091  0.7457
 1278TIP3   OH225392   4.883   4.682   0.754 -0.0907  0.6352 -0.6484
 1278TIP3    H125393   4.791   4.707   0.763 -0.2007 -0.1664  0.5320
 1278TIP3    H225394   4.913   4.732   0.678 -1.2838  1.5138 -0.5722
 1279TIP3   OH225395   5.142   2.757   6.801  0.5583  0.5932  0.0632
 1279TIP3    H125396   5.115   2.684   6.746  0.3573  0.9460 -0.3111
 1279TIP3    H225397   5.236   2.745   6.814  0.5976  0.4803 -0.3195
 1280TIP3   OH225398   0.325   1.040   2.125  0.3417 -0.1644 -0.8356
 1280TIP3    H125399   0.352   0.948   2.119 -1.1613 -0.7619  0.5659
 1280TIP3    H225400   0.229   1.037   2.122  0.2771  1.4530 -1.5695
 1281TIP3   OH225401   3.664   0.902   7.795  0.0871 -0.8038 -0.0628
 1281TIP3    H125402   3.694   0.983   7.836  0.7361 -0.6919 -0.7352
 1281TIP3    H225403   3.628   0.850   7.867 -0.3722  0.0920  0.3670
 1282TIP3   OH225404   0.986   3.644   1.667 -0.1070  0.0418  0.2218
 1282TIP3    H125405   1.030   3.645   1.582  1.3286  3.0553  0.8952
 1282TIP3    H225406   1.041   3.587   1.722  0.8227  0.7186  0.0047
 1283TIP3   OH225407   4.113   3.828   8.622  0.0984  0.3120 -0.7090
 1283TIP3    H125408   4.079   3.745   8.657 -1.5825  0.4205 -1.9472
 1283TIP3    H225409   4.137   3.807   8.532  3.4395  0.2670  0.0840
 1284TIP3   OH225410   2.668   0.804   7.503  0.1350  0.6028 -0.2876
 1284TIP3    H125411   2.605   0.865   7.543 -0.6349 -0.1618 -0.3069
 1284TIP3    H225412   2.752   0.829   7.541 -0.7145 -0.9533  2.9451
 1285TIP3   OH225413   3.301   1.175   8.394 -0.3148  0.3930 -0.2998
 1285TIP3    H125414   3.295   1.203   8.485 -4.1665  1.7455 -0.7649
 1285TIP3    H225415   3.350   1.244   8.350 -0.0447  0.6720  0.4332
 1286TIP3   OH225416   0.810   6.307   6.562 -0.0364  0.4004  0.2098
 1286TIP3    H125417   0.862   6.328   6.640 -0.3688  0.8778  0.3076
 1286TIP3    H225418   0.784   6.216   6.574  2.0249 -0.3511 -0.5592
 1287TIP3   OH225419   4.970   2.820   1.762  0.2051  0.2896  0.1777
 1287TIP3    H125420   4.911   2.747   1.744 -3.9809  3.1833  0.7705
 1287TIP3    H225421   5.031   2.821   1.687 -2.7332 -0.9090 -2.4433
 1288TIP3   OH225422   2.721   4.141   1.345  0.0307  0.0790  0.2185
 1288TIP3    H125423   2.807   4.123   1.306 -0.5785 -0.5995 -0.8675
 1288TIP3    H225424   2.736   4.218   1.401  1.5481 -0.6160  0.8272
 1289TIP3   OH225425   4.629   5.727   1.960  0.6001  0.0242  0.0660
 1289TIP3    H125426   4.558   5.760   1.905  1.4371 -1.0817 -1.7646
 1289TIP3    H225427   4.621   5.777   2.042 -2.0383  0.1791 -0.1981
 1290TIP3   OH225428   2.722   3.186   6.848  0.3596  0.2387  0.4138
 1290TIP3    H125429   2.782   3.247   6.891  0.7114  0.3171 -0.1679
 1290TIP3    H225430   2.768   3.160   6.768  0.9605 -2.0965  1.4187
 1291TIP3   OH225431   3.082   0.096   7.331  0.3344  0.1126  0.1970
 1291TIP3    H125432   3.089   0.002   7.320 -0.0400 -0.0286  1.0659
 1291TIP3    H225433   2.992   0.111   7.359  1.1184  0.3959  2.8566
 1292TIP3   OH225434   1.835   2.055   1.134 -0.4848 -0.1888  0.2243
 1292TIP3    H125435   1.776   2.044   1.209  0.4827  0.2846  1.0792
 1292TIP3    H225436   1.898   2.121   1.163  0.2192 -0.3811 -0.8247
 1293TIP3   OH225437   3.489   4.453   0.028 -0.6314 -0.3314 -0.0022
 1293TIP3    H125438   3.568   4.405   0.003 -0.8633 -1.3182  1.1026
 1293TIP3    H225439   3.438   4.391   0.079 -1.5147  0.7119  0.4246
 1294TIP3   OH225440   3.645   1.935   0.236  0.5998 -0.2755  0.2956
 1294TIP3    H125441   3.700   1.963   0.162 -1.6367 -0.9094 -1.7497
 1294TIP3    H225442   3.705   1.890   0.295  2.3271 -0.8093 -1.7246
 1295TIP3   OH225443   3.836   5.488   8.509  0.2927 -0.1509 -0.0426
 1295TIP3    H125444   3.789   5.568   8.486  1.0134  0.5272  0.8065
 1295TIP3    H225445   3.775   5.441   8.566 -0.0076 -0.0793 -0.2947
 1296TIP3   OH225446   2.181   3.717   8.456 -0.0680  0.1683 -0.2427
 1296TIP3    H125447   2.215   3.661   8.385  0.7189 -0.6348  0.7294
 1296TIP3    H225448   2.179   3.659   8.533  0.0470  1.2815  0.6229
 1297TIP3   OH225449   4.796   6.606   7.075  0.3981  0.0206 -0.1031
 1297TIP3    H125450   4.740   6.548   7.127  2.2772 -2.0714 -0.2543
 1297TIP3    H225451   4.774   6.694   7.106 -1.6734 -0.8209  1.0611
 1298TIP3   OH225452   4.475   4.419   1.254 -0.1811  0.1236  0.2962
 1298TIP3    H125453   4.502   4.464   1.333  0.6572  1.6702 -0.8287
 1298TIP3    H225454   4.496   4.327   1.270  1.0467  0.5787  1.4240
 1299TIP3   OH225455   1.958   2.583   1.588  0.8219 -0.4262 -0.2033
 1299TIP3    H125456   1.900   2.570   1.513 -0.6513  2.4696  0.2968
 1299TIP3    H225457   1.916   2.652   1.639  3.7353  0.4193  1.2661
 1300TIP3   OH225458   3.908   0.442   1.053 -0.3874  0.4848  0.2247
 1300TIP3    H125459   3.858   0.410   0.977 -1.6042 -0.6795  1.4633
 1300TIP3    H225460   3.973   0.501   1.015  0.7428 -1.9785 -1.9946
 1301TIP3   OH225461   3.673   2.457   0.096 -0.8430 -0.2248  0.1474
 1301TIP3    H125462   3.725   2.378   0.106 -1.0252 -0.1672  1.8170
 1301TIP3    H225463   3.695   2.489   0.008  0.8256 -0.9871  0.2377
 1302TIP3   OH225464   5.729   1.499   0.208  0.2084  0.4038  0.3358
 1302TIP3    H125465   5.794   1.567   0.225  1.0328 -0.7839  2.4060
 1302TIP3    H225466   5.703   1.511   0.117  1.3757  2.5572  0.2384
 1303TIP3   OH225467   6.832   0.190   8.532 -0.3758  0.1878 -0.0396
 1303TIP3    H125468   6.743   0.218   8.557 -0.1539  0.5740  0.3305
 1303TIP3    H225469   6.861   0.257   8.470 -0.9759 -0.8377 -1.4831
 1304TIP3   OH225470   1.528   5.105   7.236 -0.6132 -0.0890  0.4820
 1304TIP3    H125471   1.617   5.123   7.268 -0.8915 -2.0497  2.6331
 1304TIP3    H225472   1.533   5.120   7.142  2.2958 -1.1227  0.3833
 1305TIP3   OH225473   4.222   3.506   1.111 -0.2986  0.1492  0.1255
 1305TIP3    H125474   4.268   3.429   1.143 -2.2231 -1.1924 -0.1292
 1305TIP3    H225475   4.191   3.551   1.190  1.8131  1.3744  0.3200
 1306TIP3   OH225476   2.685   6.408   0.086  0.0175 -0.2483 -0.2097
 1306TIP3    H125477   2.653   6.469   0.019  0.0411  1.7854  1.5001
 1306TIP3    H225478   2.777   6.431   0.096 -0.2562  0.3415  1.2952
 1307TIP3   OH225479   1.130   3.234   8.388 -0.2680 -0.6549  0.9051
 1307TIP3    H125480   1.117   3.304   8.324 -0.0507 -0.9861  0.4927
 1307TIP3    H225481   1.099   3.155   8.343  0.1672 -0.9369  1.0976
 1308TIP3   OH225482   3.558   4.251   1.156 -0.1328  0.1490 -0.1726
 1308TIP3    H125483   3.508   4.253   1.238 -0.2216  0.5273 -0.2294
 1308TIP3    H225484   3.591   4.162   1.149 -1.5554 -0.3721 -0.5753
 1309TIP3   OH225485   6.561   3.676   7.435  0.3303  0.0325 -0.7466
 1309TIP3    H125486   6.656   3.685   7.442  0.3261 -0.6668  0.7885
 1309TIP3    H225487   6.548   3.582   7.418 -0.0942  0.1019 -0.8029
 1310TIP3   OH225488   2.716   2.084   8.491  0.3690 -0.1935  0.3111
 1310TIP3    H125489   2.679   2.009   8.537  0.0333 -0.9854 -1.1756
 1310TIP3    H225490   2.656   2.156   8.511 -0.3349 -0.7673  0.2972
 1311TIP3   OH225491   4.284   3.018   8.130 -0.2833  0.3207  0.3610
 1311TIP3    H125492   4.346   3.091   8.128  0.0688 -0.0064 -1.3602
 1311TIP3    H225493   4.199   3.060   8.136 -0.3202  1.1110 -3.3765
 1312TIP3   OH225494   0.520   4.151   0.955  0.0603 -0.0988  0.4801
 1312TIP3    H125495   0.509   4.088   0.883  1.0142 -0.5196  0.6910
 1312TIP3    H225496   0.609   4.185   0.944 -0.0858  0.4714  0.9697
 1313TIP3   OH225497   0.680   2.265   1.573 -0.1288  0.5013  0.6145
 1313TIP3    H125498   0.685   2.209   1.651  2.4326  0.0527  0.2181
 1313TIP3    H225499   0.740   2.338   1.592  0.2584  0.5639 -0.7749
 1314TIP3   OH225500   6.529   3.022   7.886  0.4548 -0.0091  0.5479
 1314TIP3    H125501   6.540   2.931   7.916 -1.2130 -0.6229 -0.5319
 1314TIP3    H225502   6.439   3.025   7.855  1.6513  0.8778 -3.2795
 1315TIP3   OH225503   3.872   6.444   0.975  0.3562 -0.0616  0.6297
 1315TIP3    H125504   3.809   6.516   0.975  0.3897  0.1349 -2.7474
 1315TIP3    H225505   3.957   6.486   0.963  0.2929 -0.5411 -2.2989
 1316TIP3   OH225506   5.619   2.905   7.493 -0.2277 -0.2102 -0.1024
 1316TIP3    H125507   5.547   2.952   7.536  0.6875  0.8437  0.3429
 1316TIP3    H225508   5.688   2.903   7.559 -0.3320 -2.5384  0.0179
 1317TIP3   OH225509   1.167   0.423   7.840  0.0013  0.2145  0.0790
 1317TIP3    H125510   1.158   0.434   7.746 -0.2546  0.5666  0.1445
 1317TIP3    H225511   1.082   0.391   7.869  0.4125 -0.9685  0.0400
 1318TIP3   OH225512   3.810   3.446   0.685 -0.1515  0.2052 -0.1210
 1318TIP3    H125513   3.898   3.408   0.693  0.0007  0.5961  0.0871
 1318TIP3    H225514   3.818   3.511   0.616 -0.0684  0.8239  0.4594
 1319TIP3   OH225515   5.356   2.998   8.183  0.1757 -0.3301  0.5973
 1319TIP3    H125516   5.435   2.947   8.166  0.2199 -0.2818  0.6643
 1319TIP3    H225517   5.312   3.002   8.098  2.9544  4.3879 -1.0225
 1320TIP3   OH225518   1.509   3.500   2.214 -0.1497 -0.4703 -0.4906
 1320TIP3    H125519   1.582   3.437   2.218  0.0062 -0.6281 -3.4601
 1320TIP3    H225520   1.432   3.448   2.237  0.4410 -0.7348  0.9791
 1321TIP3   OH225521   2.020   2.423   6.774  0.2732  0.2609 -0.4037
 1321TIP3    H125522   2.106   2.383   6.765  0.5724  0.9207 -0.4622
 1321TIP3    H225523   1.972   2.363   6.832  0.1340 -1.1298 -1.8781
 1322TIP3   OH225524   6.415   2.406   2.512 -0.3789  0.2938  0.0101
 1322TIP3    H125525   6.372   2.347   2.450 -1.1234  1.0482 -0.2192
 1322TIP3    H225526   6.491   2.440   2.464 -0.2942 -0.0144 -0.0728
 1323TIP3   OH225527   6.325   4.743   7.838  0.3098  0.1357  0.4273
 1323TIP3    H125528   6.231   4.762   7.827  0.2347 -0.3029  0.2757
 1323TIP3    H225529   6.367   4.788   7.765  0.3818  1.5285  1.3011
 1324TIP3   OH225530   3.439   6.555   0.019 -0.0622 -0.0895 -0.5690
 1324TIP3    H125531   3.390   6.495   0.075 -0.1609  0.0820 -0.4706
 1324TIP3    H225532   3.392   6.638   0.026  1.2035  0.5424  0.8861
 1325TIP3   OH225533   2.580   2.062   2.058 -0.1268  0.2106 -0.0501
 1325TIP3    H125534   2.608   1.973   2.077  1.1575  0.4349 -0.7826
 1325TIP3    H225535   2.598   2.111   2.138  0.9171  0.1879 -0.2619
 1326TIP3   OH225536   1.181   2.388   7.019  0.6384  0.2838 -0.5820
 1326TIP3    H125537   1.101   2.341   7.043  1.0105  0.2710  0.6659
 1326TIP3    H225538   1.167   2.412   6.927 -0.7619  0.2198 -0.4055
 1327TIP3   OH225539   6.323   3.341   7.227  0.2836 -0.6012 -0.0097
 1327TIP3    H125540   6.306   3.270   7.289 -0.1615 -1.0378 -0.6253
 1327TIP3    H225541   6.237   3.377   7.208  0.4922 -0.0083  0.1625
 1328TIP3   OH225542   2.484   6.009   0.350 -0.2069  0.4241  0.6938
 1328TIP3    H125543   2.574   6.042   0.354  0.2311 -0.7846  1.3757
 1328TIP3    H225544   2.441   6.065   0.286  0.9443  1.2232  0.5809
 1329TIP3   OH225545   5.796   2.201   0.338 -0.1331 -0.0739 -0.4653
 1329TIP3    H125546   5.740   2.249   0.278  0.3967 -0.3956 -1.2319
 1329TIP3    H225547   5.858   2.266   0.370  1.6076 -0.5034 -2.7272
 1330TIP3   OH225548   5.483   2.823   1.740  0.0530  0.4013  0.0242
 1330TIP3    H125549   5.516   2.872   1.815  1.4035  0.2558 -0.4553
 1330TIP3    H225550   5.527   2.738   1.745 -1.6240 -0.5046  0.3719
 1331TIP3   OH225551   6.105   2.237   6.381 -0.1960 -0.4997  0.6789
 1331TIP3    H125552   6.047   2.303   6.418  1.0576  0.4269  1.0635
 1331TIP3    H225553   6.056   2.155   6.387 -1.5389  0.2911  0.7498
 1332TIP3   OH225554   3.020   2.385   8.450 -0.0578 -0.5423 -0.4970
 1332TIP3    H125555   2.937   2.399   8.496  1.7138  2.9998  2.1873
 1332TIP3    H225556   3.019   2.450   8.380 -0.2194 -1.7219 -1.6104
 1333TIP3   OH225557   1.955   2.757   7.966  0.2658  0.0237  0.5681
 1333TIP3    H125558   1.914   2.750   8.052 -1.6308 -0.7580 -0.3430
 1333TIP3    H225559   2.048   2.738   7.982 -0.2564 -1.4372  2.2468
 1334TIP3   OH225560   6.246   2.188   8.544  0.6295  0.8878  0.3143
 1334TIP3    H125561   6.307   2.119   8.519  0.2651  0.5830  0.2611
 1334TIP3    H225562   6.301   2.256   8.581  1.0112  0.6483  0.1920
 1335TIP3   OH225563   5.155   4.798   2.015  1.0008  0.3048 -0.0358
 1335TIP3    H125564   5.190   4.798   1.926 -0.0646 -0.6832 -0.4789
 1335TIP3    H225565   5.176   4.711   2.049  0.3788  0.2699  0.2675
 1336TIP3   OH225566   4.854   3.221   2.558  0.3334  0.7676  0.3981
 1336TIP3    H125567   4.866   3.307   2.519  1.6667 -0.1524 -1.3786
 1336TIP3    H225568   4.923   3.214   2.624  3.2170 -0.4739 -2.4698
 1337TIP3   OH225569   0.037   0.011   0.011  0.2058 -0.2840 -0.0311
 1337TIP3    H125570  -0.057  -0.007   0.013  0.1118  0.2249  2.1599
 1337TIP3    H225571   0.046   0.086  -0.048 -0.9572  0.5473  0.8065
 1338TIP3   OH225572   0.445   1.150   0.901  0.5765 -0.1708 -0.3921
 1338TIP3    H125573   0.379   1.088   0.932  1.1471 -0.0509  1.1558
 1338TIP3    H225574   0.444   1.220   0.967  1.4671  0.3793 -0.9523
 1339TIP3   OH225575   5.532   3.151   0.074  0.1554  0.5271 -0.1928
 1339TIP3    H125576   5.507   3.222   0.134  0.1248  1.9586 -1.8297
 1339TIP3    H225577   5.621   3.128   0.100 -0.9181 -1.0928  2.4047
 1340TIP3   OH225578   1.934   4.019   8.291  0.1813 -0.2119 -0.6433
 1340TIP3    H125579   1.938   4.027   8.386 -2.2090 -1.2528 -0.3786
 1340TIP3    H225580   1.935   3.925   8.274 -0.3884 -0.0673 -1.5582
 1341TIP3   OH225581   5.711   3.481   1.057 -0.1102 -0.7055 -0.0920
 1341TIP3    H125582   5.618   3.475   1.080 -0.0111 -1.0653  0.2283
 1341TIP3    H225583   5.715   3.454   0.965 -0.1981 -1.6894  0.1782
 1342TIP3   OH225584   0.173   2.692   7.188 -0.0792 -0.0315  0.3363
 1342TIP3    H125585   0.088   2.731   7.167  0.8886  2.5811  0.8899
 1342TIP3    H225586   0.229   2.714   7.114 -0.0279 -2.5311 -0.4638
 1343TIP3   OH225587   6.720   1.530   1.695  0.1611 -0.3223 -0.3594
 1343TIP3    H125588   6.784   1.461   1.706 -1.5132 -1.9164 -0.1816
 1343TIP3    H225589   6.723   1.579   1.778 -0.4405 -1.7975  0.5650
 1344TIP3   OH225590   4.514   4.642   7.664 -0.1923  0.1152  0.2498
 1344TIP3    H125591   4.527   4.661   7.756  2.1368  0.5881 -0.1307
 1344TIP3    H225592   4.423   4.667   7.647 -0.0922  1.8436  1.9600
 1345TIP3   OH225593   1.592   5.066   0.177  0.1370 -0.4268 -1.1095
 1345TIP3    H125594   1.597   5.160   0.159  0.3490  0.0536  1.1868
 1345TIP3    H225595   1.677   5.031   0.149  0.4201  0.2429 -1.0916
 1346TIP3   OH225596   5.257   1.450   0.137  0.3867  0.1901 -0.0261
 1346TIP3    H125597   5.205   1.523   0.103  0.3586 -0.7203 -2.0529
 1346TIP3    H225598   5.193   1.381   0.154  0.6762 -0.1807 -0.4268
 1347TIP3   OH225599   0.921   3.238   2.625 -0.0787 -0.5882 -0.3698
 1347TIP3    H125600   0.992   3.197   2.673 -0.9939 -1.0891  0.5913
 1347TIP3    H225601   0.867   3.165   2.595 -1.9161 -0.1551  1.6486
 1348TIP3   OH225602   0.338   6.235   0.049  0.2639 -0.2311 -0.2877
 1348TIP3    H125603   0.417   6.201   0.092 -0.9784 -0.0576  2.3059
 1348TIP3    H225604   0.266   6.188   0.091 -1.1294  1.2140 -0.9880
 1349TIP3   OH225605   0.114   6.676   7.698 -0.0980  0.2965 -0.0401
 1349TIP3    H125606   0.039   6.736   7.697  0.1082  0.6656  2.0185
 1349TIP3    H225607   0.097   6.618   7.773  1.1515 -0.2871 -0.1859
 1350TIP3   OH225608   3.233   1.367   8.597 -0.3372 -0.3549  0.2406
 1350TIP3    H125609   3.172   1.363   8.670 -1.1959  2.5287 -0.1833
 1350TIP3    H225610   3.199   1.437   8.541  1.6745 -0.7526 -1.6273
 1351TIP3   OH225611   2.120   0.303   6.212  0.2888 -0.5202 -0.3118
 1351TIP3    H125612   2.177   0.262   6.277  1.8797 -0.1510 -1.3985
 1351TIP3    H225613   2.142   0.396   6.216  1.3757 -0.6395 -2.2001
 1352TIP3   OH225614   4.681   5.136   7.456 -0.4737 -0.2853  0.4353
 1352TIP3    H125615   4.598   5.100   7.426  0.1778 -1.2529 -0.2510
 1352TIP3    H225616   4.679   5.228   7.428 -1.6764 -0.0402  1.2389
 1353TIP3   OH225617   0.033   6.419   6.165 -0.4854  0.8426  0.1385
 1353TIP3    H125618  -0.038   6.481   6.153 -0.2851  1.2438  0.9599
 1353TIP3    H225619  -0.010   6.337   6.188 -0.7722  0.5561 -1.3101
 1354TIP3   OH225620   1.125   3.512   8.618 -0.0731  0.1509  0.4179
 1354TIP3    H125621   1.210   3.468   8.614 -0.2085 -0.3920  2.3830
 1354TIP3    H225622   1.064   3.447   8.583  0.2527  0.4214 -0.6972
 1355TIP3   OH225623   1.013   2.414   7.588 -0.3628  0.1691  0.8690
 1355TIP3    H125624   1.004   2.483   7.654  0.3114  0.0215  1.1238
 1355TIP3    H225625   1.086   2.360   7.619 -0.2155 -0.0612  0.1389
 1356TIP3   OH225626   0.543   3.089   1.182 -0.3739  0.0443  0.1921
 1356TIP3    H125627   0.559   3.180   1.207 -0.2513 -0.0527  0.4648
 1356TIP3    H225628   0.600   3.075   1.106  0.3016 -0.0826  0.7122
 1357TIP3   OH225629   1.726   4.283   7.102 -0.6716 -0.2194  0.1547
 1357TIP3    H125630   1.717   4.292   7.197  1.6122 -0.2552  0.4293
 1357TIP3    H225631   1.818   4.257   7.089 -0.3579  1.7280 -2.1698
 1358TIP3   OH225632   3.145   6.050   8.626 -0.2465  0.2155 -0.2207
 1358TIP3    H125633   3.054   6.043   8.598  0.3348 -0.9553 -1.9813
 1358TIP3    H225634   3.173   5.959   8.640  0.7668  0.5310 -0.1264
 1359TIP3   OH225635   4.660   0.257   8.405  0.4488 -0.1064 -0.4019
 1359TIP3    H125636   4.683   0.164   8.409  2.1511  0.2542 -0.9122
 1359TIP3    H225637   4.572   0.259   8.366 -0.5117 -1.5768  1.4997
 1360TIP3   OH225638   0.480   1.501   0.665 -0.1334 -0.1481 -0.5988
 1360TIP3    H125639   0.394   1.480   0.702 -0.4526 -0.2983 -1.4109
 1360TIP3    H225640   0.510   1.420   0.625  0.1736  0.0322 -0.7416
 1361TIP3   OH225641   4.927   5.636   6.551  0.6916 -0.5807  0.3884
 1361TIP3    H125642   4.975   5.624   6.470 -0.8838 -0.8163 -0.5502
 1361TIP3    H225643   4.906   5.548   6.581 -2.0637 -0.5612 -1.0863
 1362TIP3   OH225644   6.200   3.086   6.478  1.0485 -0.0229 -0.3270
 1362TIP3    H125645   6.226   2.998   6.449  1.8679 -0.3364  1.2143
 1362TIP3    H225646   6.268   3.144   6.442  0.7721 -0.0825 -0.9500
 1363TIP3   OH225647   2.184   6.017   7.766  0.4494 -0.7624 -0.0179
 1363TIP3    H125648   2.123   6.048   7.833  0.9258 -1.2211  0.6479
 1363TIP3    H225649   2.203   5.927   7.792  0.4060 -1.0449 -0.9535
 1364TIP3   OH225650   6.794   3.615   8.243  0.3559 -0.0161 -0.4379
 1364TIP3    H125651   6.886   3.590   8.250  0.3486 -0.8667 -2.6347
 1364TIP3    H225652   6.785   3.651   8.155 -1.0804  1.6669  0.3202
 1365TIP3   OH225653   1.567   0.809   7.335  0.3723  0.1538 -0.1869
 1365TIP3    H125654   1.615   0.789   7.416 -0.1475  0.8220  0.2889
 1365TIP3    H225655   1.482   0.766   7.345  1.0752 -1.6556 -1.3413
 1366TIP3   OH225656   4.981   5.456   0.623  0.1477 -0.3869  0.2009
 1366TIP3    H125657   4.947   5.403   0.695  0.5816  0.3192  0.9528
 1366TIP3    H225658   4.912   5.519   0.604  0.6695  0.5305  1.1872
 1367TIP3   OH225659   6.325   3.185   0.131  0.0528  0.0884  0.5227
 1367TIP3    H125660   6.322   3.090   0.132  0.0927  0.0189 -1.2917
 1367TIP3    H225661   6.235   3.213   0.146  0.2253 -0.1663  2.2212
 1368TIP3   OH225662   0.690   1.273   0.049  0.1515 -0.3121 -0.0098
 1368TIP3    H125663   0.595   1.286   0.049  0.2749  0.6568 -0.3874
 1368TIP3    H225664   0.702   1.184   0.085 -0.8151  0.0798  1.3831
 1369TIP3   OH225665   2.958   1.965   0.085  0.3179 -0.0666  0.2574
 1369TIP3    H125666   3.008   2.031   0.134  0.3334 -0.5895  0.9705
 1369TIP3    H225667   2.867   1.993   0.093  0.3940  0.2810 -0.0902
 1370TIP3   OH225668   3.779   2.297   0.898 -0.8448 -0.0535 -0.0977
 1370TIP3    H125669   3.705   2.357   0.908 -0.1600  1.0391 -1.2163
 1370TIP3    H225670   3.747   2.230   0.837 -1.1432  0.0162 -0.0211
 1371TIP3   OH225671   3.291   4.886   8.113  0.3778 -0.2040 -0.5493
 1371TIP3    H125672   3.292   4.795   8.144  0.1412 -0.0743 -0.1560
 1371TIP3    H225673   3.352   4.931   8.171  3.0626 -0.7519 -2.7679
 1372TIP3   OH225674   6.041   3.674   7.376 -0.0568  0.3890  0.0550
 1372TIP3    H125675   6.051   3.606   7.309 -1.5419 -0.2471  0.4336
 1372TIP3    H225676   6.093   3.643   7.449  0.9376  0.6960 -0.5109
 1373TIP3   OH225677   4.753   0.579   8.135 -0.1458  0.0508  0.1860
 1373TIP3    H125678   4.823   0.543   8.079  0.7345 -0.0080  1.2846
 1373TIP3    H225679   4.698   0.628   8.075  1.1552  0.5520 -0.6457
 1374TIP3   OH225680   3.464   1.668   8.225 -0.2267 -0.0228  0.2198
 1374TIP3    H125681   3.418   1.585   8.241  1.1115 -0.9613 -0.6604
 1374TIP3    H225682   3.543   1.663   8.278  0.1216  0.4538 -0.2402
 1375TIP3   OH225683   4.060   0.309   1.233 -0.3024 -0.5999  0.1828
 1375TIP3    H125684   3.996   0.358   1.182  0.5859  0.7515  0.2861
 1375TIP3    H225685   4.013   0.233   1.266 -1.9269  0.4973  0.4976
 1376TIP3   OH225686   1.052   1.836   1.078  0.2777  0.4263 -0.0495
 1376TIP3    H125687   1.012   1.922   1.088  1.1288  0.8884 -0.5330
 1376TIP3    H225688   1.001   1.794   1.009 -0.0320  0.6061  0.0677
 1377TIP3   OH225689   6.761   2.342   8.120 -0.1944 -0.0325  0.4289
 1377TIP3    H125690   6.775   2.304   8.206  0.5766 -0.0990  0.2853
 1377TIP3    H225691   6.848   2.340   8.079 -0.2312  1.4604  0.2492
 1378TIP3   OH225692   5.482   6.123   0.962 -0.2130  0.2878  0.6554
 1378TIP3    H125693   5.430   6.192   0.922  1.3899  0.4566 -1.3254
 1378TIP3    H225694   5.530   6.166   1.033  0.8980  1.3169 -0.6677
 1379TIP3   OH225695   4.593   6.796   8.586  0.7638  0.7525  0.5252
 1379TIP3    H125696   4.583   6.710   8.626 -1.1561  2.1565  3.4732
 1379TIP3    H225697   4.509   6.812   8.542  1.1120  1.1277 -0.0181
 1380TIP3   OH225698   0.475   5.176   1.355  0.0069  0.6890 -0.5267
 1380TIP3    H125699   0.567   5.179   1.381 -0.4158 -0.3916  1.2070
 1380TIP3    H225700   0.478   5.184   1.259  1.8623  1.0702 -0.4848
 1381TIP3   OH225701   0.636   1.867   6.979 -0.8508  0.2016  0.4552
 1381TIP3    H125702   0.675   1.806   6.917  0.5611  0.0425  1.4428
 1381TIP3    H225703   0.564   1.908   6.931 -1.5122 -1.8500 -0.3857
 1382TIP3   OH225704   1.580   5.268   0.826  0.4811  0.3082  0.3450
 1382TIP3    H125705   1.585   5.219   0.744  2.3270 -0.0108  0.6121
 1382TIP3    H225706   1.552   5.203   0.891 -1.6568  0.7074 -0.0835
 1383TIP3   OH225707   3.108   1.241   0.541 -0.4154 -0.6290  0.6159
 1383TIP3    H125708   3.131   1.233   0.448  1.7629  2.2666  0.7558
 1383TIP3    H225709   3.188   1.215   0.588 -1.1359 -1.0508  1.6337
 1384TIP3   OH225710   5.343   3.971   1.096 -0.0454 -0.2645 -0.2652
 1384TIP3    H125711   5.319   4.060   1.124 -1.1601 -0.4422 -0.6019
 1384TIP3    H225712   5.330   3.972   1.001 -0.2174 -0.8220 -0.2475
 1385TIP3   OH225713   4.021   1.921   6.139 -0.7009  0.2165  0.5355
 1385TIP3    H125714   4.046   1.981   6.210 -1.2699  0.8450  0.2140
 1385TIP3    H225715   4.104   1.899   6.097 -0.6023  2.2612 -0.5078
 1386TIP3   OH225716   4.418   1.771   0.617 -0.4702  0.0572 -0.1662
 1386TIP3    H125717   4.476   1.821   0.674 -0.3720  1.0870 -1.1324
 1386TIP3    H225718   4.440   1.680   0.634  0.1964  0.3794  0.7584
 1387TIP3   OH225719   5.564   0.051   0.435  0.5903 -0.3204  0.1424
 1387TIP3    H125720   5.591   0.126   0.487 -2.3994  0.6665  0.4044
 1387TIP3    H225721   5.570   0.082   0.344 -0.1642  0.0817  0.2257
 1388TIP3   OH225722   1.140   6.303   1.205  0.2423  0.2215 -0.0303
 1388TIP3    H125723   1.075   6.235   1.219  1.1753 -0.2153  2.8289
 1388TIP3    H225724   1.124   6.366   1.275 -0.1642  2.6823 -2.1872
 1389TIP3   OH225725   1.082   1.681   8.326  0.0939  0.4893  0.5349
 1389TIP3    H125726   1.041   1.716   8.247  0.6803 -1.0317 -0.5008
 1389TIP3    H225727   1.175   1.673   8.303 -0.1158 -2.4787  0.3558
 1390TIP3   OH225728   3.351   0.550   6.558 -0.0288 -0.1666 -0.3091
 1390TIP3    H125729   3.403   0.568   6.637  0.1033 -0.2346 -0.3811
 1390TIP3    H225730   3.375   0.461   6.533 -0.8349 -0.5277  0.1596
 1391TIP3   OH225731   6.047   1.052   0.494 -0.1991 -0.2547  0.4832
 1391TIP3    H125732   6.045   0.981   0.558  0.8032  1.7851  2.9442
 1391TIP3    H225733   5.956   1.063   0.467 -0.5046 -1.7993  0.7866
 1392TIP3   OH225734   3.332   6.424   1.861 -0.2808 -0.4981 -0.2247
 1392TIP3    H125735   3.275   6.478   1.916  1.6295  1.6678 -0.2190
 1392TIP3    H225736   3.274   6.357   1.825 -2.4281  0.4932  1.1720
 1393TIP3   OH225737   0.216   3.917   1.222  0.3242 -0.0174  0.2318
 1393TIP3    H125738   0.140   3.930   1.279  1.4034 -1.5559  2.1269
 1393TIP3    H225739   0.279   3.983   1.250 -0.5573  1.9467 -2.0245
 1394TIP3   OH225740   2.475   2.535   6.885 -0.2710  0.2082  0.2159
 1394TIP3    H125741   2.501   2.625   6.905  1.3196 -0.0393 -0.5835
 1394TIP3    H225742   2.420   2.544   6.807 -0.4984  0.5316  0.4098
 1395TIP3   OH225743   2.123   4.641   7.208 -1.0259 -0.3967 -0.3069
 1395TIP3    H125744   2.138   4.568   7.148 -0.9808  0.2669 -1.1157
 1395TIP3    H225745   2.028   4.649   7.212 -1.0637 -1.0406  0.4692
 1396TIP3   OH225746   4.192   0.482   1.495 -0.0830 -0.7840  0.5049
 1396TIP3    H125747   4.125   0.437   1.547  0.6959 -0.2176  2.0810
 1396TIP3    H225748   4.143   0.523   1.424 -1.7263  0.9928  2.5025
 1397TIP3   OH225749   5.405   0.581   1.521 -0.1347  0.0642 -0.3817
 1397TIP3    H125750   5.347   0.601   1.448  2.2844  1.7878 -2.0070
 1397TIP3    H225751   5.448   0.500   1.495 -1.1880 -0.7917  0.4591
 1398TIP3   OH225752   1.005   0.609   1.534 -0.2149 -0.0250 -0.0315
 1398TIP3    H125753   0.927   0.662   1.515 -1.3403 -0.4426  2.8979
 1398TIP3    H225754   1.067   0.671   1.572  0.6512  0.1562 -1.6619
 1399TIP3   OH225755   5.550   2.646   7.885 -0.5255 -0.7443 -0.0050
 1399TIP3    H125756   5.624   2.640   7.945 -0.4423 -1.7961 -0.2027
 1399TIP3    H225757   5.473   2.649   7.943 -0.3143  1.7099  0.2584
 1400TIP3   OH225758   4.369   6.231   7.085  0.3526  0.3199  0.1718
 1400TIP3    H125759   4.403   6.195   7.003  0.6401 -2.1501  1.2815
 1400TIP3    H225760   4.445   6.239   7.142  0.1152  1.7547  0.3328
 1401TIP3   OH225761   0.049   3.280   1.221 -0.0647 -0.0313  0.0157
 1401TIP3    H125762  -0.028   3.255   1.170 -0.6059  1.5054  0.0419
 1401TIP3    H225763   0.029   3.253   1.310 -0.9670  1.1251  0.1859
 1402TIP3   OH225764   5.071   5.559   8.037 -0.0523 -0.0876 -0.0541
 1402TIP3    H125765   5.140   5.540   7.973 -0.1680  1.4996 -0.6980
 1402TIP3    H225766   5.002   5.601   7.986 -0.1289  1.2796  1.1075
 1403TIP3   OH225767   5.579   0.171   7.168  0.2302 -0.5510  0.7366
 1403TIP3    H125768   5.505   0.186   7.109 -1.1704 -1.3505  2.2303
 1403TIP3    H225769   5.625   0.096   7.130  0.0909 -0.2718 -0.0118
 1404TIP3   OH225770   4.280   5.106   1.433 -0.3530  0.3095  0.3526
 1404TIP3    H125771   4.311   5.132   1.346  0.4057 -2.0906 -0.1525
 1404TIP3    H225772   4.270   5.189   1.480  2.2287  1.5175 -1.0108
 1405TIP3   OH225773   4.093   5.730   6.758  0.6702  0.0053  0.2664
 1405TIP3    H125774   4.121   5.818   6.781 -2.1565  0.5488  2.2197
 1405TIP3    H225775   4.060   5.737   6.668  3.9229 -0.0837 -1.0703
 1406TIP3   OH225776   5.280   2.807   0.920 -0.0291  0.2371 -0.1585
 1406TIP3    H125777   5.189   2.784   0.940 -0.2135  1.3983  0.4490
 1406TIP3    H225778   5.273   2.889   0.872  0.7182  0.7627  0.6047
 1407TIP3   OH225779   1.114   2.466   0.808  0.0010 -0.4873 -0.1073
 1407TIP3    H125780   1.152   2.431   0.727 -1.5633 -2.2768 -0.1195
 1407TIP3    H225781   1.191   2.489   0.861  1.0828 -1.0902 -1.3336
 1408TIP3   OH225782   4.463   4.880   1.156  0.1299  0.0033  0.3943
 1408TIP3    H125783   4.443   4.973   1.146 -1.4637 -0.3550 -0.0410
 1408TIP3    H225784   4.520   4.875   1.233  2.4102  1.5824 -1.0661
 1409TIP3   OH225785   3.028   3.157   7.131 -0.6416  0.3131  0.1293
 1409TIP3    H125786   3.077   3.158   7.213 -1.4549 -1.5296  0.6755
 1409TIP3    H225787   3.090   3.122   7.067 -0.0752  1.5522 -0.0409
 1410TIP3   OH225788   2.895   6.604   8.289 -0.0644 -0.3397  0.2993
 1410TIP3    H125789   2.859   6.524   8.251 -0.1854 -1.1411  2.0123
 1410TIP3    H225790   2.874   6.597   8.382  1.1969  1.0086  0.7079
 1411TIP3   OH225791   2.725   0.478   1.435 -0.0528  0.0496  0.4542
 1411TIP3    H125792   2.653   0.459   1.495  1.1699 -1.4835  1.5080
 1411TIP3    H225793   2.733   0.400   1.380 -0.4671  1.0146 -1.0502
 1412TIP3   OH225794   2.579   2.328   6.393  0.1004 -0.1233  0.4053
 1412TIP3    H125795   2.550   2.273   6.320  0.7871 -0.1927  0.1802
 1412TIP3    H225796   2.499   2.346   6.442 -0.0509 -2.0629  0.9804
 1413TIP3   OH225797   1.928   4.203   7.868  0.0393  0.6687 -0.1443
 1413TIP3    H125798   1.859   4.212   7.801 -0.3895 -0.5087  0.1296
 1413TIP3    H225799   1.939   4.109   7.879  0.4661  0.8511  1.0952
 1414TIP3   OH225800   5.019   2.723   7.060  0.0908  0.4404 -0.0939
 1414TIP3    H125801   5.027   2.818   7.072 -2.1896  0.7791 -0.8193
 1414TIP3    H225802   5.032   2.709   6.967 -0.2702  0.1416 -0.1026
 1415TIP3   OH225803   6.514   4.800   2.745  0.0987 -0.1113  0.2427
 1415TIP3    H125804   6.518   4.781   2.652  0.6666 -1.3443  0.4897
 1415TIP3    H225805   6.421   4.799   2.766  0.0358 -1.3964 -0.0315
 1416TIP3   OH225806   0.265   0.583   6.316 -0.4363 -0.1864  0.9102
 1416TIP3    H125807   0.295   0.511   6.372 -1.0582 -0.3248  1.0724
 1416TIP3    H225808   0.254   0.657   6.375  1.1142  0.3333  0.5968
 1417TIP3   OH225809   4.428   4.022   0.993 -0.5200  0.6370 -0.0722
 1417TIP3    H125810   4.515   4.026   0.954 -0.0789 -1.5740  0.5289
 1417TIP3    H225811   4.412   3.928   1.006 -2.2292  1.0806  1.4972
 1418TIP3   OH225812   0.340   2.910   7.307  0.4166  0.3951  0.2235
 1418TIP3    H125813   0.267   2.853   7.282 -0.5562  1.2867  0.9017
 1418TIP3    H225814   0.393   2.917   7.228 -1.1241  1.0013 -0.8253
 1419TIP3   OH225815   4.919   0.771   8.318 -0.5431 -0.0781  0.5386
 1419TIP3    H125816   4.943   0.777   8.226 -0.5856 -0.6376  0.4841
 1419TIP3    H225817   4.934   0.859   8.353 -0.5777  0.1487 -0.0100
 1420TIP3   OH225818   2.464   4.681   8.576  0.6217  0.0170  0.3878
 1420TIP3    H125819   2.372   4.666   8.557  0.7929 -0.3475 -0.1685
 1420TIP3    H225820   2.511   4.632   8.508  1.2236  0.0756  0.7561
 1421TIP3   OH225821   1.749   4.385   1.200 -0.1466 -0.7265 -0.1765
 1421TIP3    H125822   1.776   4.373   1.109  1.0136 -1.8019  0.2749
 1421TIP3    H225823   1.676   4.324   1.212 -0.4788 -0.3828 -0.4654
 1422TIP3   OH225824   1.356   3.892   1.596  0.4168 -0.1088  0.0733
 1422TIP3    H125825   1.296   3.923   1.664 -0.8203 -0.7327 -0.6975
 1422TIP3    H225826   1.338   3.948   1.521  0.3237 -0.7180 -0.3691
 1423TIP3   OH225827   0.354   4.510   2.187  0.1500 -0.4744  0.3328
 1423TIP3    H125828   0.398   4.567   2.250 -1.4011 -0.4567  1.4511
 1423TIP3    H225829   0.362   4.422   2.224  0.3500 -0.6460 -0.1103
 1424TIP3   OH225830   3.507   4.184   8.156  0.2083  0.0346  0.6003
 1424TIP3    H125831   3.419   4.221   8.151 -0.0718 -0.7080 -0.2393
 1424TIP3    H225832   3.548   4.209   8.073  0.8461  0.5026  1.0522
 1425TIP3   OH225833   0.061   2.929   0.512 -0.1676  0.3171 -0.4387
 1425TIP3    H125834   0.151   2.941   0.543 -0.1154 -0.1528 -0.3963
 1425TIP3    H225835   0.055   2.835   0.495 -0.9087  0.2192  0.3392
 1426TIP3   OH225836   5.192   2.363   1.675  0.4848  0.1871  0.5222
 1426TIP3    H125837   5.264   2.426   1.684  0.1807  0.7247 -0.6582
 1426TIP3    H225838   5.234   2.285   1.638  0.5068  0.4195  0.0512
 1427TIP3   OH225839   5.643   5.069   1.756 -0.0136 -0.1261  1.4362
 1427TIP3    H125840   5.578   5.064   1.827 -1.4265 -0.2743  0.1774
 1427TIP3    H225841   5.726   5.085   1.801 -0.7644 -0.8572  3.1731
 1428TIP3   OH225842   3.266   4.514   0.459  0.5553  0.3993  0.5007
 1428TIP3    H125843   3.225   4.590   0.418  1.2693  1.4797  1.7105
 1428TIP3    H225844   3.359   4.526   0.445  0.5957 -1.4518 -1.2290
 1429TIP3   OH225845   3.078   3.544   1.653 -0.4961 -0.2270  0.0791
 1429TIP3    H125846   3.078   3.584   1.740 -0.5577 -1.1456  0.5084
 1429TIP3    H225847   3.049   3.455   1.667 -2.6730  0.2183 -1.1890
 1430TIP3   OH225848   5.502   3.527   7.727 -0.4117 -0.0560 -0.1840
 1430TIP3    H125849   5.427   3.582   7.748 -1.5457 -1.4592 -0.4836
 1430TIP3    H225850   5.533   3.495   7.811 -0.6837 -0.1719 -0.1285
 1431TIP3   OH225851   0.250   4.854   7.773 -0.2739  0.2068 -0.2432
 1431TIP3    H125852   0.305   4.833   7.698  0.4850  0.2891  0.2811
 1431TIP3    H225853   0.241   4.950   7.769  0.5155  0.3074  0.2788
 1432TIP3   OH225854   4.289   3.072   6.332  0.1358 -0.0294 -0.0921
 1432TIP3    H125855   4.257   3.127   6.403  1.3589  0.4841  0.0938
 1432TIP3    H225856   4.384   3.071   6.344  0.1969 -1.6493 -0.4807
 1433TIP3   OH225857   5.888   4.617   7.434 -0.5123  0.1432 -0.0854
 1433TIP3    H125858   5.821   4.623   7.503 -1.4727  0.4220 -1.0098
 1433TIP3    H225859   5.906   4.524   7.425  1.0169  0.1811  1.8030
 1434TIP3   OH225860   3.207   2.699   7.459  0.2030  0.2405 -0.0674
 1434TIP3    H125861   3.116   2.705   7.487 -0.1560  0.8705 -1.3314
 1434TIP3    H225862   3.231   2.608   7.478 -0.0074  0.5856  2.1909
 1435TIP3   OH225863   0.156   3.797   7.651  0.6182  0.0163  0.0203
 1435TIP3    H125864   0.247   3.797   7.681  0.3219  0.6513  0.9495
 1435TIP3    H225865   0.115   3.871   7.695 -0.1843  0.1697 -0.9352
 1436TIP3   OH225866   6.492   4.877   8.120 -0.3120 -0.1877 -0.4820
 1436TIP3    H125867   6.412   4.825   8.128 -0.1059 -0.5187 -0.5503
 1436TIP3    H225868   6.559   4.813   8.096 -0.3013  0.2993 -1.8656
 1437TIP3   OH225869   4.412   6.623   7.508  0.4398 -0.4692 -0.0161
 1437TIP3    H125870   4.503   6.648   7.489  0.6689 -0.6828  0.7938
 1437TIP3    H225871   4.390   6.561   7.439  0.2262  1.1095 -1.4374
 1438TIP3   OH225872   0.398   6.518   7.617 -0.6767  0.4532 -0.4008
 1438TIP3    H125873   0.437   6.431   7.622 -0.0650  0.7350 -0.2048
 1438TIP3    H225874   0.332   6.519   7.686 -0.5271  0.2208 -0.2540
 1439TIP3   OH225875   0.725   3.123   7.888  0.1239  0.1575 -0.2268
 1439TIP3    H125876   0.664   3.198   7.890 -0.0128  0.0808 -1.0810
 1439TIP3    H225877   0.806   3.157   7.926  0.4166  1.0753 -1.6166
 1440TIP3   OH225878   6.274   6.869   8.318  0.1193  0.0442 -0.0831
 1440TIP3    H125879   6.294   6.849   8.410 -0.8446 -1.1790 -0.1092
 1440TIP3    H225880   6.245   6.961   8.320  1.5050  0.4986  0.5829
 1441TIP3   OH225881   3.382   4.211   7.419  0.5364 -0.5935  0.0358
 1441TIP3    H125882   3.407   4.236   7.330  0.3097  2.4766  0.7164
 1441TIP3    H225883   3.465   4.188   7.461  1.4630  2.7237  0.3063
 1442TIP3   OH225884   4.424   4.616   7.037 -0.1928 -0.2151  0.2927
 1442TIP3    H125885   4.371   4.693   7.014 -0.3386 -0.1751  0.7622
 1442TIP3    H225886   4.451   4.580   6.952 -1.2083 -0.4043  0.0470
 1443TIP3   OH225887   1.717   6.302   8.459  0.5273 -0.1861  0.1858
 1443TIP3    H125888   1.778   6.338   8.523  0.2300  0.5602  0.0599
 1443TIP3    H225889   1.770   6.245   8.404  1.2554  0.9650 -0.3324
 1444TIP3   OH225890   5.653   0.566   6.367  0.3132  0.9892  0.4126
 1444TIP3    H125891   5.679   0.486   6.411 -1.4605 -0.7929 -1.5776
 1444TIP3    H225892   5.558   0.573   6.382 -0.0340  1.2541 -1.5489
 1445TIP3   OH225893   6.805   4.891   0.824  0.3757 -0.1667 -0.2032
 1445TIP3    H125894   6.869   4.947   0.868 -1.9912  1.4290  1.4732
 1445TIP3    H225895   6.808   4.809   0.873  1.3278 -0.2262 -0.3453
 1446TIP3   OH225896   0.825   6.132   7.095  0.6175 -0.1637  0.5225
 1446TIP3    H125897   0.849   6.053   7.143  0.4753  0.2931  1.3790
 1446TIP3    H225898   0.802   6.195   7.164  1.1505  0.7620 -0.1277
 1447TIP3   OH225899   3.569   5.269   8.503  0.2975  1.1753  0.8078
 1447TIP3    H125900   3.475   5.291   8.504  0.0277  0.1631  0.0328
 1447TIP3    H225901   3.595   5.281   8.412  0.8845  1.2790  0.9886
 1448TIP3   OH225902   5.818   3.042   7.378 -0.2901 -0.0670  0.0576
 1448TIP3    H125903   5.740   2.987   7.387 -1.3036  1.6066  3.3074
 1448TIP3    H225904   5.891   2.982   7.391 -1.3166 -0.9325  2.6929
 1449TIP3   OH225905   5.676   2.313   0.117  0.4748  0.5901 -0.2746
 1449TIP3    H125906   5.671   2.332   0.024  2.6447  0.6716 -0.4367
 1449TIP3    H225907   5.666   2.398   0.160 -3.0668  0.2627 -0.2142
 1450TIP3   OH225908   4.836   3.601   1.382  0.0392  0.6895  0.2233
 1450TIP3    H125909   4.927   3.611   1.409  0.4140  1.9108 -1.2841
 1450TIP3    H225910   4.801   3.691   1.383 -1.8541  0.0245  2.9031
 1451TIP3   OH225911   3.462   1.590   0.155 -0.2046  0.0639 -0.1878
 1451TIP3    H125912   3.463   1.565   0.248 -0.4454 -0.7481 -0.4000
 1451TIP3    H225913   3.470   1.507   0.108  2.8929  0.6213 -0.8898
 1452TIP3   OH225914   6.439   4.810   0.529 -0.2535 -0.2971  0.2270
 1452TIP3    H125915   6.483   4.741   0.478  1.5650  0.7494  0.2964
 1452TIP3    H225916   6.506   4.876   0.543 -2.3074  2.3090 -1.2349
 1453TIP3   OH225917   6.738   6.383   8.675  0.2493  0.6193 -0.1951
 1453TIP3    H125918   6.828   6.408   8.693  0.6386 -1.0293  0.3479
 1453TIP3    H225919   6.693   6.465   8.657  1.4971  1.6280  1.0826
 1454TIP3   OH225920   3.865   2.478   6.520  0.0124  0.1781  0.1005
 1454TIP3    H125921   3.795   2.542   6.509  0.7956  1.2300  1.0012
 1454TIP3    H225922   3.946   2.527   6.503  0.5384 -1.2317 -1.8690
 1455TIP3   OH225923   0.012   6.122   7.999 -0.0486 -0.2847 -0.1954
 1455TIP3    H125924   0.080   6.111   8.066 -0.4892  0.0221  0.3135
 1455TIP3    H225925  -0.012   6.215   8.005  0.2087 -0.1582 -1.0787
 1456TIP3   OH225926   5.711   1.760   2.244 -0.1735  0.1674 -0.3916
 1456TIP3    H125927   5.621   1.730   2.255 -1.0343  0.5471 -4.6610
 1456TIP3    H225928   5.759   1.681   2.219  0.1285  0.3435 -0.3650
 1457TIP3   OH225929   0.280   2.726   0.560 -0.2670 -0.2710  0.3784
 1457TIP3    H125930   0.219   2.691   0.495 -0.5761  0.3985  0.3072
 1457TIP3    H225931   0.366   2.717   0.519 -0.6463  2.4561 -1.2198
 1458TIP3   OH225932   3.872   2.496   7.813  0.5195 -0.8597 -0.2622
 1458TIP3    H125933   3.954   2.505   7.860  1.5686  2.0469 -2.3813
 1458TIP3    H225934   3.894   2.442   7.737  1.6698  2.8475 -2.8512
 1459TIP3   OH225935   1.096   1.109   6.565  0.0754 -0.4059  0.0171
 1459TIP3    H125936   1.177   1.096   6.516  0.4023 -1.7727  0.8445
 1459TIP3    H225937   1.121   1.165   6.638 -0.0502  0.3166 -0.4883
 1460TIP3   OH225938   0.993   4.109   7.845  0.1754  0.6359  0.0372
 1460TIP3    H125939   1.028   4.161   7.773  0.3039  3.2230  1.8047
 1460TIP3    H225940   1.066   4.054   7.873  1.5165  2.6927  0.8118
 1461TIP3   OH225941   1.038   1.989   2.335 -0.1649 -0.2275 -0.1680
 1461TIP3    H125942   1.033   1.922   2.404  0.7237 -0.3065 -0.1695
 1461TIP3    H225943   0.978   1.958   2.268  1.0316 -1.6364 -0.6589
 1462TIP3   OH225944   1.797   3.776   7.038 -0.3257 -0.4886 -0.2127
 1462TIP3    H125945   1.751   3.850   6.997 -1.5501 -1.3038 -0.3400
 1462TIP3    H225946   1.884   3.811   7.058 -0.5259  0.6756 -1.2379
 1463TIP3   OH225947   1.744   5.602   7.190 -0.5524 -0.6326 -0.7217
 1463TIP3    H125948   1.652   5.619   7.170  0.1821  0.9868 -3.0884
 1463TIP3    H225949   1.741   5.537   7.261 -3.5345  1.6737  1.5511
 1464TIP3   OH225950   0.556   0.492   0.924 -0.7246  0.0985  0.1076
 1464TIP3    H125951   0.539   0.535   1.008 -0.2974 -0.4184  0.4682
 1464TIP3    H225952   0.647   0.514   0.904 -0.1491 -1.4292  0.8080
 1465TIP3   OH225953   5.117   0.693   8.692 -0.6249  0.1325 -0.2973
 1465TIP3    H125954   5.152   0.698   8.781  0.7218  1.1904 -0.8391
 1465TIP3    H225955   5.131   0.602   8.666  2.9855  0.6943 -0.8797
 1466TIP3   OH225956   6.627   4.166   2.191 -0.5500 -0.0049  0.0969
 1466TIP3    H125957   6.613   4.131   2.103  0.3395 -2.2139  0.7531
 1466TIP3    H225958   6.650   4.089   2.244  0.0951  1.4193  2.0065
 1467TIP3   OH225959   4.828   0.653   0.594  0.3172 -0.1349 -0.1464
 1467TIP3    H125960   4.765   0.644   0.665  0.6511  0.3927  0.2270
 1467TIP3    H225961   4.910   0.676   0.638  0.9783 -1.5751 -0.5423
 1468TIP3   OH225962   5.171   1.977   7.639  0.0829  0.2738 -0.5079
 1468TIP3    H125963   5.216   1.919   7.700 -0.7999 -0.1820 -0.2805
 1468TIP3    H225964   5.242   2.025   7.595  0.8587 -1.2952 -1.0407
 1469TIP3   OH225965   3.872   4.809   8.253  0.3057 -0.1483  0.4443
 1469TIP3    H125966   3.863   4.894   8.210 -1.2938 -0.3789  0.2750
 1469TIP3    H225967   3.867   4.829   8.347 -1.0680 -0.1278  0.3881
 1470TIP3   OH225968   3.398   0.594   8.631  0.0863  0.4802 -0.0733
 1470TIP3    H125969   3.329   0.621   8.692  0.5915 -1.7529  1.6608
 1470TIP3    H225970   3.359   0.521   8.582  1.2322 -1.1178  1.2480
 1471TIP3   OH225971   6.490   5.807   2.007  0.2988  0.3493  0.5000
 1471TIP3    H125972   6.532   5.879   1.960  1.2061  0.6667  1.7316
 1471TIP3    H225973   6.561   5.744   2.023 -0.4568 -0.7945 -0.4704
 1472TIP3   OH225974   0.177   3.982   2.328 -0.1416 -0.0119  0.0940
 1472TIP3    H125975   0.271   3.975   2.311  0.2512  2.0802  1.1809
 1472TIP3    H225976   0.168   3.961   2.421 -0.9333 -1.2317 -0.2259
 1473TIP3   OH225977   0.108   2.722   6.633 -0.3791 -0.1702  0.6322
 1473TIP3    H125978   0.153   2.723   6.549 -0.1291 -1.9288  0.7121
 1473TIP3    H225979   0.111   2.813   6.663 -0.6689  0.5352 -1.3392
 1474TIP3   OH225980   5.276   0.499   7.060 -0.0147  0.4640  0.2348
 1474TIP3    H125981   5.327   0.456   6.991 -1.1987  2.3224 -1.9186
 1474TIP3    H225982   5.342   0.525   7.125  1.1714 -1.0367 -0.2933
 1475TIP3   OH225983   0.728   2.345   8.406  0.4930 -0.2041 -0.6240
 1475TIP3    H125984   0.652   2.340   8.348 -0.9640  2.1777  0.8845
 1475TIP3    H225985   0.791   2.400   8.359 -0.6453  1.6474 -0.1129
 1476TIP3   OH225986   3.222   5.352   7.987  0.3359 -0.2832  0.5346
 1476TIP3    H125987   3.195   5.385   7.901  1.0425  1.4487  0.9466
 1476TIP3    H225988   3.214   5.257   7.979 -0.1046 -0.1366 -1.2770
 1477TIP3   OH225989   3.839   5.073   8.211 -0.4944 -0.3080  0.1548
 1477TIP3    H125990   3.770   5.139   8.201 -0.5309 -0.5021 -0.9708
 1477TIP3    H225991   3.873   5.087   8.300 -1.8267 -0.0722  0.6491
 1478TIP3   OH225992   1.892   0.177   1.680 -0.4682 -0.1571 -0.2882
 1478TIP3    H125993   1.950   0.225   1.622 -1.2524  0.8437 -0.2673
 1478TIP3    H225994   1.890   0.088   1.644 -0.6439  0.3474 -1.5706
 1479TIP3   OH225995   6.352   5.920   0.867 -0.6129  0.0868  0.7884
 1479TIP3    H125996   6.312   5.833   0.864  0.5592 -0.4671  0.8219
 1479TIP3    H225997   6.423   5.912   0.931 -0.8896  1.2482  1.2694
 1480TIP3   OH225998   1.807   0.045   8.437 -0.6225  0.6929 -0.0660
 1480TIP3    H125999   1.773  -0.038   8.404 -1.6014  1.0780 -0.0473
 1480TIP3    H226000   1.900   0.044   8.413 -0.9238  0.1838 -1.2502
 1481TIP3   OH226001   2.144   1.418   6.819 -0.5120  0.4414 -0.1029
 1481TIP3    H126002   2.209   1.380   6.878  0.7748 -0.3793 -1.9673
 1481TIP3    H226003   2.125   1.348   6.756 -1.3234  1.5149 -1.0949
 1482TIP3   OH226004   3.127   5.172   1.520 -0.0241 -0.7852 -0.3620
 1482TIP3    H126005   3.112   5.123   1.601  2.7523  0.3394  0.9905
 1482TIP3    H226006   3.056   5.235   1.516 -1.2498 -2.0883  0.1639
 1483TIP3   OH226007   0.518   0.911   1.669  0.4398  1.3110 -0.3051
 1483TIP3    H126008   0.547   0.965   1.743 -1.6455  0.2040  1.4254
 1483TIP3    H226009   0.485   0.831   1.709  0.2516  0.1884 -2.5636
 1484TIP3   OH226010   0.265   3.580   7.404  0.1049 -0.6989  0.1947
 1484TIP3    H126011   0.301   3.663   7.372 -0.6753 -0.3684  0.1499
 1484TIP3    H226012   0.319   3.513   7.362  1.0238 -0.2183  0.5629
 1485TIP3   OH226013   1.199   4.969   1.294  0.6166  0.0145 -0.1340
 1485TIP3    H126014   1.107   4.954   1.315  0.1115  2.1978 -0.5691
 1485TIP3    H226015   1.212   4.927   1.209 -0.5154  1.3267 -0.9894
 1486TIP3   OH226016   4.879   6.067   6.668  0.3609  0.5715  0.3515
 1486TIP3    H126017   4.955   6.080   6.725  0.0100  0.9456  0.7415
 1486TIP3    H226018   4.819   6.138   6.691 -0.8555 -0.7014  1.2733
 1487TIP3   OH226019   5.603   1.636   1.782  0.5217  0.2921  0.7630
 1487TIP3    H126020   5.508   1.646   1.784  0.4863 -0.0366  2.0899
 1487TIP3    H226021   5.622   1.574   1.853  1.8024  1.1674  1.2359
 1488TIP3   OH226022   5.371   3.182   1.891 -0.0211  0.3625 -0.4808
 1488TIP3    H126023   5.450   3.237   1.889  0.0094  0.3371 -0.1327
 1488TIP3    H226024   5.329   3.197   1.807  0.1193  0.7273 -0.4880
 1489TIP3   OH226025   0.723   0.952   8.150 -0.5833 -0.5248 -0.2576
 1489TIP3    H126026   0.739   0.906   8.232 -1.5125 -0.6214 -0.1115
 1489TIP3    H226027   0.807   0.950   8.104 -0.5013 -2.0329 -0.0935
 1490TIP3   OH226028   3.921   4.464   7.517  0.5285  0.0788 -0.4794
 1490TIP3    H126029   3.844   4.426   7.476 -0.1100 -1.9401  2.3228
 1490TIP3    H226030   3.981   4.390   7.529  1.2390  0.8391  0.9025
 1491TIP3   OH226031   1.542   6.196   2.042  0.2970  0.3511  0.0118
 1491TIP3    H126032   1.552   6.111   1.999 -0.5234  0.7451 -1.0173
 1491TIP3    H226033   1.615   6.248   2.008 -0.1242  0.5396 -0.6272
 1492TIP3   OH226034   2.607   4.148   8.182  0.2819  0.0585 -0.2199
 1492TIP3    H126035   2.632   4.202   8.107 -0.3140  1.0255  0.2657
 1492TIP3    H226036   2.690   4.114   8.216  0.7498  1.2733 -0.0924
 1493TIP3   OH226037   3.580   5.574   0.546  0.2088  0.1430 -0.2475
 1493TIP3    H126038   3.491   5.565   0.510  0.0644 -1.4222  0.3981
 1493TIP3    H226039   3.635   5.588   0.469 -0.2072 -2.2470 -1.0843
 1494TIP3   OH226040   0.801   0.789   1.590  0.0046  0.2718  0.6975
 1494TIP3    H126041   0.714   0.818   1.562 -0.9172 -2.0667  0.9543
 1494TIP3    H226042   0.834   0.862   1.643 -1.0401  1.9214 -0.8125
 1495TIP3   OH226043   1.944   5.869   7.309 -0.2106  0.3131 -0.7608
 1495TIP3    H126044   1.951   5.789   7.361 -1.9252  0.8674  0.4346
 1495TIP3    H226045   2.012   5.861   7.243  1.3633 -0.9400  0.9184
 1496TIP3   OH226046   6.539   5.301   0.563  0.1518 -0.0948 -0.0315
 1496TIP3    H126047   6.475   5.236   0.590  1.2026  0.1830  3.7448
 1496TIP3    H226048   6.491   5.384   0.563 -0.4338 -0.3795 -1.7384
 1497TIP3   OH226049   6.074   6.048   0.775  0.5540  0.1170  0.6163
 1497TIP3    H126050   6.167   6.041   0.796  0.5872 -0.0048  0.4347
 1497TIP3    H226051   6.070   6.031   0.681  0.3531  0.1650  0.6166
 1498TIP3   OH226052   4.982   1.082   1.201  0.2484  0.2844 -0.4006
 1498TIP3    H126053   4.916   1.150   1.210 -0.9661 -0.8276 -0.5628
 1498TIP3    H226054   5.025   1.078   1.286 -2.1492 -1.1798  0.8444
 1499TIP3   OH226055   2.152   0.355   8.090 -0.4057  0.2601  0.0338
 1499TIP3    H126056   2.177   0.427   8.033 -1.7304  0.3270 -0.4867
 1499TIP3    H226057   2.234   0.326   8.129  0.3446  1.0591 -0.9075
 1500TIP3   OH226058   6.624   1.232   0.866  0.4486  0.6149  0.3966
 1500TIP3    H126059   6.629   1.202   0.956  0.6657 -1.8641 -0.3603
 1500TIP3    H226060   6.530   1.231   0.845  0.5418 -1.2316 -0.0918
 1501TIP3   OH226061   3.488   6.733   2.025  0.3307 -0.2154 -0.3072
 1501TIP3    H126062   3.446   6.759   2.107 -1.1878 -0.5738 -0.9385
 1501TIP3    H226063   3.439   6.780   1.958  1.0534 -0.5343 -1.0721
 1502TIP3   OH226064   6.797   2.034   0.004 -0.1970  1.0935  0.3197
 1502TIP3    H126065   6.830   2.040  -0.085  0.2506 -1.6964  0.2238
 1502TIP3    H226066   6.851   1.968   0.046 -1.4177  1.1884  2.2003
 1503TIP3   OH226067   4.760   2.694   0.708 -0.0193  0.2249 -0.0850
 1503TIP3    H126068   4.725   2.607   0.695  1.5985 -0.5609  0.4745
 1503TIP3    H226069   4.813   2.712   0.630  2.2904 -0.7177  1.1459
 1504TIP3   OH226070   0.115   4.035   8.586 -0.1019  0.4594 -0.1031
 1504TIP3    H126071   0.090   3.984   8.663 -0.0792  2.4253  1.2760
 1504TIP3    H226072   0.032   4.051   8.541 -0.2338  0.0865  0.0001
 1505TIP3   OH226073   4.633   2.535   7.500  0.5831 -0.2122  0.9746
 1505TIP3    H126074   4.662   2.570   7.416  0.1711 -1.4881  0.2731
 1505TIP3    H226075   4.596   2.610   7.546  2.0614  0.7850  0.5939
 1506TIP3   OH226076   2.624   6.345   0.919  0.2003  0.1355  0.1518
 1506TIP3    H126077   2.687   6.275   0.937 -0.1590 -0.2831 -0.1806
 1506TIP3    H226078   2.620   6.349   0.823  0.1775  0.5688  0.1727
 1507TIP3   OH226079   5.962   3.621   1.076  0.3427  0.2889  0.4292
 1507TIP3    H126080   5.879   3.582   1.049 -0.9352 -0.1645  4.3949
 1507TIP3    H226081   5.944   3.714   1.083 -0.3223  0.0506  2.5056
 1508TIP3   OH226082   5.697   6.435   0.041 -0.5921 -0.1064 -0.2196
 1508TIP3    H126083   5.770   6.377   0.019 -0.6126 -0.5536  0.8467
 1508TIP3    H226084   5.621   6.377   0.048 -1.2946  0.4669 -2.2585
 1509TIP3   OH226085   0.622   3.502   7.325  0.5716 -0.1018  0.0545
 1509TIP3    H126086   0.569   3.555   7.265 -0.2845 -0.9108  0.0740
 1509TIP3    H226087   0.575   3.419   7.331  1.1632 -0.3748  1.0937
 1510TIP3   OH226088   0.604   6.728   1.760 -0.2415 -0.4866 -0.0369
 1510TIP3    H126089   0.680   6.776   1.728  0.8400 -2.2082 -0.1420
 1510TIP3    H226090   0.623   6.711   1.852 -0.6396 -0.6801  0.0117
 1511TIP3   OH226091   4.909   6.366   6.967 -0.2448 -0.0430 -0.0011
 1511TIP3    H126092   4.844   6.317   6.916 -1.3889  0.3694  1.0171
 1511TIP3    H226093   4.871   6.453   6.976  0.5091  0.2394  0.5443
 1512TIP3   OH226094   0.554   5.548   7.993 -0.2303  0.3636 -0.1433
 1512TIP3    H126095   0.572   5.626   7.941 -2.1332  0.8923 -0.0714
 1512TIP3    H226096   0.555   5.475   7.930 -0.8837  0.7837 -0.6517
 1513TIP3   OH226097   6.515   6.071   8.444  0.0469 -0.3609 -0.3725
 1513TIP3    H126098   6.463   6.148   8.467  0.0339 -0.8705  1.4550
 1513TIP3    H226099   6.543   6.035   8.528 -0.1299 -2.4805 -1.1510
 1514TIP3   OH226100   2.965   6.566   0.691  0.1015 -0.1002  0.0729
 1514TIP3    H126101   2.924   6.612   0.618 -0.7400 -0.7748  0.0959
 1514TIP3    H226102   2.906   6.492   0.708  0.2779  0.0512  1.4434
 1515TIP3   OH226103   2.430   1.559   6.204  0.5121 -0.2817  0.1887
 1515TIP3    H126104   2.418   1.620   6.132 -1.8093 -0.9764 -0.0939
 1515TIP3    H226105   2.397   1.475   6.170  0.1763 -0.8146  1.7466
 1516TIP3   OH226106   2.670   3.350   1.130  0.0718  0.5018  0.1984
 1516TIP3    H126107   2.693   3.288   1.061 -0.1063  0.8546 -0.1847
 1516TIP3    H226108   2.593   3.313   1.171  0.4168  0.0849  0.4804
 1517TIP3   OH226109   5.166   5.279   1.096 -0.1290  0.4741 -0.1862
 1517TIP3    H126110   5.244   5.294   1.149 -0.5475 -0.2604  0.6714
 1517TIP3    H226111   5.192   5.213   1.032  0.2403  1.0036 -0.5926
 1518TIP3   OH226112   2.824   0.018   8.351  0.0304 -0.5432  0.1137
 1518TIP3    H126113   2.870  -0.062   8.327  0.8655 -0.5872  1.6973
 1518TIP3    H226114   2.812   0.064   8.269  3.5766 -0.1803 -0.3754
 1519TIP3   OH226115   3.227   2.620   2.375 -0.1416  0.7380 -0.6615
 1519TIP3    H126116   3.276   2.620   2.293  0.6906  3.3273 -0.2515
 1519TIP3    H226117   3.270   2.553   2.429  1.1895  1.0649 -1.2884
 1520TIP3   OH226118   2.791   2.382   8.606 -0.2354  0.1496 -0.4637
 1520TIP3    H126119   2.703   2.345   8.600 -0.2114 -1.0400  3.5873
 1520TIP3    H226120   2.780   2.473   8.578 -2.9139  0.1993  0.4049
 1521TIP3   OH226121   4.928   2.317   0.662  0.0418  0.4796 -0.0569
 1521TIP3    H126122   4.924   2.312   0.757  0.6952  1.5370  0.0371
 1521TIP3    H226123   4.841   2.347   0.635 -0.0281  0.5311  0.2295
 1522TIP3   OH226124   5.185   6.571   0.774  0.1807 -0.1193  0.1974
 1522TIP3    H126125   5.148   6.546   0.689  0.7973 -0.5981  0.0616
 1522TIP3    H226126   5.115   6.551   0.837 -0.3453  0.4126 -0.2077
 1523TIP3   OH226127   1.392   4.999   6.511  0.0277 -0.6773 -0.0762
 1523TIP3    H126128   1.474   4.999   6.562  0.7355 -0.7758 -1.1919
 1523TIP3    H226129   1.343   4.924   6.545  0.2009 -0.3601  0.9081
 1524TIP3   OH226130   3.044   1.322   6.591 -0.0012 -0.4699 -0.4796
 1524TIP3    H126131   3.030   1.247   6.534 -0.5712  0.2267 -1.2922
 1524TIP3    H226132   3.135   1.348   6.575  0.1937 -0.9643 -0.2031
 1525TIP3   OH226133   5.088   3.799   2.769 -0.4038 -0.0081 -0.0231
 1525TIP3    H126134   5.151   3.811   2.698 -1.1561  1.9160 -0.4260
 1525TIP3    H226135   5.079   3.704   2.777  0.0190 -0.2877 -2.2234
 1526TIP3   OH226136   2.769   4.414   7.546  0.4085 -0.1648 -0.5004
 1526TIP3    H126137   2.798   4.496   7.508  0.6083  0.2164  0.4537
 1526TIP3    H226138   2.735   4.438   7.632 -1.3878 -0.7957 -0.9804
 1527TIP3   OH226139   5.725   0.009   6.586  0.7971 -0.4432 -0.0671
 1527TIP3    H126140   5.631   0.021   6.601  0.8161 -1.0678  0.6634
 1527TIP3    H226141   5.731  -0.077   6.543  1.0168 -0.2731 -0.3789
 1528TIP3   OH226142   5.243   1.697   6.975  0.4835 -0.1493 -0.5556
 1528TIP3    H126143   5.334   1.710   7.002  0.3693  0.0302 -0.2551
 1528TIP3    H226144   5.240   1.606   6.946  1.0761  0.2151 -1.8323
 1529TIP3   OH226145   0.813   3.002   0.695  0.2070 -0.5283  0.6347
 1529TIP3    H126146   0.813   2.946   0.617  0.0036  0.6843 -0.2585
 1529TIP3    H226147   0.875   3.072   0.674 -0.0192 -0.0648  1.4778
 1530TIP3   OH226148   4.033   5.537   7.082  0.4178  0.0300 -0.1509
 1530TIP3    H126149   3.941   5.541   7.107  0.7755 -0.3905  1.2943
 1530TIP3    H226150   4.074   5.482   7.148  1.5048 -0.7699 -1.4387
 1531TIP3   OH226151   4.608   5.377   8.018 -0.5527 -0.2167 -0.5324
 1531TIP3    H126152   4.641   5.460   8.053  0.0203 -0.2063 -1.0853
 1531TIP3    H226153   4.642   5.311   8.078 -0.1592 -0.1364 -0.6633
 1532TIP3   OH226154   4.490   2.058   1.800  0.4019 -0.2585  0.2275
 1532TIP3    H126155   4.421   2.115   1.836  0.5615 -1.2268  2.2200
 1532TIP3    H226156   4.453   2.025   1.718 -1.0842  0.0914  0.7142
 1533TIP3   OH226157   4.683   1.844   1.415 -0.1110 -0.5333 -0.1688
 1533TIP3    H126158   4.735   1.823   1.493  1.9731  1.5244 -0.9024
 1533TIP3    H226159   4.611   1.781   1.417  0.2242 -0.9915  3.0446
 1534TIP3   OH226160   3.231   1.769   8.127  0.5675 -0.6011  0.1773
 1534TIP3    H126161   3.300   1.713   8.165  2.0140  1.0051  0.0682
 1534TIP3    H226162   3.279   1.840   8.086 -1.2086  0.8782  0.5576
 1535TIP3   OH226163   2.025   3.002   1.048 -0.4249  0.7609  0.1187
 1535TIP3    H126164   2.058   2.997   0.959 -0.5874  2.9020 -0.1136
 1535TIP3    H226165   1.930   3.010   1.039 -0.5236  0.1374  0.5339
 1536TIP3   OH226166   6.821   1.121   0.130 -0.3116 -0.0660 -0.3022
 1536TIP3    H126167   6.829   1.039   0.178 -1.0927  0.2413  0.3944
 1536TIP3    H226168   6.731   1.121   0.096 -1.1029  1.4483  1.5856
 1537TIP3   OH226169   2.292   6.776   7.610  0.7441  0.6099  0.5813
 1537TIP3    H126170   2.227   6.843   7.589 -1.5623 -1.6294  0.1877
 1537TIP3    H226171   2.363   6.791   7.547  0.0500  2.3041  0.1428
 1538TIP3   OH226172   2.134   0.345   7.148 -0.0268  0.8623 -0.6392
 1538TIP3    H126173   2.061   0.385   7.100 -1.4968 -0.1769  0.5994
 1538TIP3    H226174   2.115   0.252   7.148  2.4042  0.2967 -1.9505
 1539TIP3   OH226175   0.687   5.774   8.217  1.0114  0.2159 -0.4944
 1539TIP3    H126176   0.606   5.723   8.210  1.8472 -1.0252 -1.6469
 1539TIP3    H226177   0.716   5.761   8.307  0.2167  0.2138 -0.2345
 1540TIP3   OH226178   2.191   4.671   8.523  0.4784  0.8769  0.1188
 1540TIP3    H126179   2.185   4.766   8.532  1.0602  0.9482 -0.1936
 1540TIP3    H226180   2.163   4.637   8.608 -2.9795  1.1870 -0.7703
 1541TIP3   OH226181   5.931   4.955   7.202  0.1216 -0.1297 -0.1367
 1541TIP3    H126182   5.988   4.945   7.279 -0.3213  1.7713  0.4934
 1541TIP3    H226183   5.907   5.047   7.203  0.9525  0.2064 -3.1898
 1542TIP3   OH226184   0.917   5.813   0.250  0.2035 -0.1306  0.3034
 1542TIP3    H126185   0.991   5.789   0.194  0.1950  1.8847 -0.6518
 1542TIP3    H226186   0.958   5.841   0.332  0.4545  0.1778  0.0768
 1543TIP3   OH226187   0.505   2.117   0.307  0.0142  0.3539 -0.4587
 1543TIP3    H126188   0.502   2.151   0.218  0.0868  1.6634  0.0167
 1543TIP3    H226189   0.426   2.150   0.349 -0.6083 -1.2019 -0.3385
 1544TIP3   OH226190   4.530   5.174   1.798  0.4901 -0.4261 -0.0802
 1544TIP3    H126191   4.526   5.251   1.740 -0.2479 -0.3652  0.0416
 1544TIP3    H226192   4.516   5.100   1.740  0.1051 -0.3897 -0.0361
 1545TIP3   OH226193   6.347   6.678   7.669 -0.5976  0.0388 -0.1866
 1545TIP3    H126194   6.396   6.597   7.656 -2.4700 -0.9807 -1.2086
 1545TIP3    H226195   6.294   6.661   7.747 -1.0711  0.2463 -0.4656
 1546TIP3   OH226196   2.922   0.878   7.558  0.0155 -0.0436  0.7505
 1546TIP3    H126197   2.897   0.955   7.609  0.8285  0.0295  1.0451
 1546TIP3    H226198   3.017   0.877   7.560  0.0196 -1.0695  0.7609
 1547TIP3   OH226199   1.433   4.039   0.649  0.0559 -0.4264 -0.3940
 1547TIP3    H126200   1.398   4.127   0.663 -0.9739 -1.0098  0.8961
 1547TIP3    H226201   1.523   4.044   0.683 -0.0320  0.0974 -0.2149
 1548TIP3   OH226202   4.637   3.730   7.368 -0.8506  0.5584  0.5026
 1548TIP3    H126203   4.634   3.811   7.318 -3.0197  1.3397  1.7747
 1548TIP3    H226204   4.698   3.747   7.440 -0.5842  0.7311  0.2349
 1549TIP3   OH226205   2.657   6.545   7.563 -0.0608  0.0256 -0.9014
 1549TIP3    H126206   2.670   6.572   7.653 -0.8526  0.2133 -0.8374
 1549TIP3    H226207   2.745   6.545   7.525  0.5126 -1.7590  0.3261
 1550TIP3   OH226208   0.666   1.529   7.652 -0.1015  0.0583 -0.0990
 1550TIP3    H126209   0.627   1.586   7.586 -0.8452  0.4382  0.6343
 1550TIP3    H226210   0.668   1.442   7.611  3.2219  0.9225 -2.1235
 1551TIP3   OH226211   5.496   3.625   8.226  0.1284 -0.2252 -0.7715
 1551TIP3    H126212   5.499   3.685   8.300 -1.7746 -2.7698  1.5460
 1551TIP3    H226213   5.535   3.544   8.259  0.4105 -1.0712 -3.0056
 1552TIP3   OH226214   2.811   3.261   7.460 -0.0153 -0.1945  0.0034
 1552TIP3    H126215   2.826   3.318   7.536  1.3184  0.0072 -0.3884
 1552TIP3    H226216   2.738   3.205   7.486 -0.9555  1.2801  0.6309
 1553TIP3   OH226217   6.854   0.477   1.758  0.4597 -0.1446 -0.3242
 1553TIP3    H126218   6.943   0.481   1.725 -0.1630 -0.1838 -2.1461
 1553TIP3    H226219   6.813   0.407   1.707 -0.8000  0.3661 -0.0539
 1554TIP3   OH226220   6.024   2.045   7.857 -0.1543  0.8889 -0.2362
 1554TIP3    H126221   5.940   2.065   7.814 -0.2908  1.3283  0.2315
 1554TIP3    H226222   6.003   1.974   7.918  0.5643 -1.7277 -2.7687
 1555TIP3   OH226223   1.484   6.334   0.494  0.1839 -0.3300  0.1240
 1555TIP3    H126224   1.466   6.376   0.410  0.5446 -0.2092  0.1037
 1555TIP3    H226225   1.482   6.406   0.558  0.5575 -0.3173  0.1239
 1556TIP3   OH226226   4.362   3.798   7.551  0.8897 -0.3557  0.2699
 1556TIP3    H126227   4.278   3.762   7.580  0.9551 -0.3235  0.5021
 1556TIP3    H226228   4.424   3.772   7.619  0.7326  1.1314  1.0258
 1557TIP3   OH226229   5.800   1.817   0.103  0.6565 -0.3381  0.3820
 1557TIP3    H126230   5.849   1.759   0.045 -0.6151  1.4452 -2.7399
 1557TIP3    H226231   5.845   1.811   0.187  2.4456 -3.3515 -0.6556
 1558TIP3   OH226232   0.207   1.877   7.986  0.2910  0.6275 -0.6282
 1558TIP3    H126233   0.112   1.889   7.992  0.2564  0.3873 -0.7132
 1558TIP3    H226234   0.240   1.963   7.959  0.2209  1.0699  0.6421
 1559TIP3   OH226235   4.357   5.502   7.245  0.4221 -0.0397  0.3228
 1559TIP3    H126236   4.382   5.432   7.305 -0.3056 -0.0382  0.6374
 1559TIP3    H226237   4.348   5.460   7.160 -2.5628 -0.9058  0.9605
 1560TIP3   OH226238   3.760   3.465   0.958  0.3716  0.2198 -0.0929
 1560TIP3    H126239   3.765   3.466   0.863  0.6989 -0.1890 -0.0794
 1560TIP3    H226240   3.844   3.428   0.987  1.0707  2.0686  0.4073
 1561TIP3   OH226241   4.017   4.252   0.002  0.1287  0.2102 -0.2670
 1561TIP3    H126242   4.019   4.337   0.046 -1.0148 -0.5245  1.3412
 1561TIP3    H226243   3.946   4.204   0.046  0.7488 -1.5767 -1.1077
 1562TIP3   OH226244   0.245   0.047   1.247 -0.9326 -0.5181 -0.0639
 1562TIP3    H126245   0.156   0.016   1.259 -0.9872 -0.8928 -1.3056
 1562TIP3    H226246   0.242   0.140   1.270 -2.1923  0.0663 -2.3397
 1563TIP3   OH226247   1.271   3.328   8.072 -0.0276 -0.7390 -0.2980
 1563TIP3    H126248   1.353   3.325   8.023 -0.4889 -2.2346 -1.0554
 1563TIP3    H226249   1.204   3.346   8.005 -0.1598  2.9510  0.6302
 1564TIP3   OH226250   1.843   3.479   2.020  0.2315 -0.2127  0.3238
 1564TIP3    H126251   1.772   3.435   1.973 -0.3823 -0.1863  1.2085
 1564TIP3    H226252   1.807   3.564   2.045  1.0361  0.3646 -0.3973
 1565TIP3   OH226253   5.940   4.044   7.178  0.9589 -0.3509 -0.7208
 1565TIP3    H126254   5.926   4.004   7.263  0.7469  1.4160  0.1343
 1565TIP3    H226255   6.034   4.033   7.161  0.9355 -1.0152 -0.4214
 1566TIP3   OH226256   5.615   2.895   8.191  0.4013  0.0855  0.7937
 1566TIP3    H126257   5.603   2.867   8.282 -0.7311 -1.8103  0.1099
 1566TIP3    H226258   5.666   2.826   8.150  0.4891  0.6839 -0.1408
 1567TIP3   OH226259   5.691   4.839   7.543 -0.0252  0.6935  0.4911
 1567TIP3    H126260   5.738   4.914   7.578  1.4984 -0.6427  1.4644
 1567TIP3    H226261   5.715   4.837   7.451 -0.4081  1.6267  0.3630
 1568TIP3   OH226262   1.973   3.667   1.368  0.2954 -0.0241  0.7647
 1568TIP3    H126263   2.050   3.620   1.399  1.4736  0.6293 -1.0353
 1568TIP3    H226264   1.968   3.647   1.274 -0.7209  1.3124  0.4938
 1569TIP3   OH226265   4.706   5.452   1.102  0.1526  0.2984 -0.8916
 1569TIP3    H126266   4.797   5.454   1.073  1.1306 -1.6054  1.6655
 1569TIP3    H226267   4.656   5.428   1.023  1.9438  0.3903 -2.1139
 1570TIP3   OH226268   3.634   2.407   7.902  0.3749 -0.7819  0.5413
 1570TIP3    H126269   3.717   2.444   7.870  0.7307 -1.4815  0.6386
 1570TIP3    H226270   3.627   2.323   7.857 -0.8870 -0.2152 -0.3978
 1571TIP3   OH226271   2.720   4.086   7.558  0.5763  0.2664  0.0770
 1571TIP3    H126272   2.653   4.112   7.495 -0.6383 -1.8592  0.3846
 1571TIP3    H226273   2.787   4.042   7.506  1.0126  1.0523 -0.0436
 1572TIP3   OH226274   6.146   0.532   1.010  0.1207  0.1277  0.2953
 1572TIP3    H126275   6.179   0.491   0.930  1.7411  2.4064 -0.3426
 1572TIP3    H226276   6.133   0.460   1.071  0.3741 -1.5291 -1.5042
 1573TIP3   OH226277   5.152   6.771   2.849 -0.9379  0.0701 -0.0343
 1573TIP3    H126278   5.089   6.789   2.780 -0.2030 -0.5013 -0.8785
 1573TIP3    H226279   5.162   6.855   2.895  0.5544  1.2540 -2.3148
 1574TIP3   OH226280   6.178   6.521   0.924  0.1641 -0.0066  0.2654
 1574TIP3    H126281   6.158   6.454   0.859  0.5263 -1.2254  1.3603
 1574TIP3    H226282   6.273   6.516   0.935  0.2210  0.8344  0.2260
 1575TIP3   OH226283   2.404   5.516   7.945 -0.4269 -0.1549 -0.0563
 1575TIP3    H126284   2.460   5.444   7.917  0.5299  0.3664  0.4438
 1575TIP3    H226285   2.318   5.477   7.958 -0.0409 -1.0986 -0.2807
 1576TIP3   OH226286   0.603   0.815   0.660 -0.8384 -0.6875  0.0042
 1576TIP3    H126287   0.615   0.879   0.590 -1.6689 -0.0322  0.4417
 1576TIP3    H226288   0.640   0.856   0.737  0.1696 -1.4502 -0.0538
 1577TIP3   OH226289   4.532   6.030   1.038  0.4528 -0.7098 -0.5029
 1577TIP3    H126290   4.600   6.036   1.105 -0.6801 -0.6015  0.6642
 1577TIP3    H226291   4.544   5.943   0.999  0.8708 -0.9355  0.1168
 1578TIP3   OH226292   1.103   1.873   7.879  0.0032 -0.4069 -0.2870
 1578TIP3    H126293   1.178   1.815   7.876 -0.2494 -0.7151 -0.8014
 1578TIP3    H226294   1.032   1.823   7.839 -1.4180 -1.4528  3.2060
 1579TIP3   OH226295   1.116   5.830   8.357  0.5813  0.6130  0.2272
 1579TIP3    H126296   1.072   5.829   8.272 -1.1554 -1.3255  1.0416
 1579TIP3    H226297   1.158   5.744   8.362 -1.5043 -0.3744  2.2987
 1580TIP3   OH226298   5.412   1.550   6.735 -0.4148 -0.4850 -0.3996
 1580TIP3    H126299   5.354   1.487   6.778 -0.2954 -0.9452 -0.9108
 1580TIP3    H226300   5.354   1.623   6.712 -0.5144 -0.3104  0.3718
 1581TIP3   OH226301   1.895   6.330   7.176  0.2549  0.0632 -0.4012
 1581TIP3    H126302   1.956   6.403   7.179 -0.8434  1.0198 -0.4593
 1581TIP3    H226303   1.919   6.275   7.250  1.7970 -0.1229 -0.9940
 1582TIP3   OH226304   5.138   2.858   2.224  0.4527 -0.2021 -0.2144
 1582TIP3    H126305   5.205   2.906   2.177  0.5767 -0.6173 -0.4695
 1582TIP3    H226306   5.092   2.808   2.156 -3.2708  3.5621 -0.8953
 1583TIP3   OH226307   0.369   3.129   0.727  0.0075  0.3113 -0.3984
 1583TIP3    H126308   0.420   3.208   0.712 -1.1664  1.0367 -0.7159
 1583TIP3    H226309   0.314   3.150   0.803  1.8109 -1.2899  1.4621
 1584TIP3   OH226310   4.773   2.039   8.176  0.2053 -0.2785  0.5901
 1584TIP3    H126311   4.730   1.985   8.110 -0.5721  0.9774  0.0450
 1584TIP3    H226312   4.831   2.097   8.126 -2.8374  3.0333  0.5420
 1585TIP3   OH226313   2.634   0.680   2.313 -0.4696  0.0529  0.7847
 1585TIP3    H126314   2.640   0.776   2.306 -1.8805  0.0751 -1.0619
 1585TIP3    H226315   2.550   0.665   2.357 -1.0978 -0.3127 -0.4904
 1586TIP3   OH226316   2.281   3.502   2.690 -0.5151 -0.9419  0.5958
 1586TIP3    H126317   2.283   3.594   2.715  0.4122 -1.1182  1.2015
 1586TIP3    H226318   2.190   3.476   2.703 -1.5513  0.6454 -2.4971
 1587TIP3   OH226319   5.341   1.351   8.586  0.3775  0.3047 -0.5381
 1587TIP3    H126320   5.309   1.415   8.523  1.6440  0.1354 -1.4052
 1587TIP3    H226321   5.291   1.367   8.666 -0.6587  1.0944 -1.3295
 1588TIP3   OH226322   4.660   3.592   0.000 -0.6904 -0.2936 -0.2683
 1588TIP3    H126323   4.587   3.653  -0.011  0.0006  0.4077 -1.1379
 1588TIP3    H226324   4.706   3.594  -0.084 -0.3306 -1.6051 -0.1231
 1589TIP3   OH226325   1.145   2.892   7.464 -0.4400  0.0709 -0.2481
 1589TIP3    H126326   1.233   2.895   7.501 -0.2298  1.3382 -0.7847
 1589TIP3    H226327   1.087   2.895   7.540 -0.0126  1.8123  0.0646
 1590TIP3   OH226328   0.393   0.724   0.401  0.2751  0.0858 -0.3231
 1590TIP3    H126329   0.315   0.689   0.358 -0.2009  0.2470  0.4042
 1590TIP3    H226330   0.461   0.658   0.384 -0.4911 -1.0022  0.6442
 1591TIP3   OH226331   1.091   3.974   0.190 -0.0894  0.2877  0.3721
 1591TIP3    H126332   1.120   3.914   0.122  1.7984  0.0016  1.3749
 1591TIP3    H226333   1.165   4.033   0.204 -0.9487  1.2051  1.2304
 1592TIP3   OH226334   4.097   5.502   8.674 -0.3272  0.0411 -0.1219
 1592TIP3    H126335   4.016   5.520   8.626  0.3773  1.2692 -0.8979
 1592TIP3    H226336   4.142   5.586   8.676  0.4016 -0.3558  1.3322
 1593TIP3   OH226337   4.557   3.727   7.782 -0.2922  0.1783  0.4799
 1593TIP3    H126338   4.617   3.657   7.806  1.1777  1.0544 -0.4699
 1593TIP3    H226339   4.600   3.807   7.812 -0.7093  0.8726 -0.7041
 1594TIP3   OH226340   1.231   3.543   0.942  0.3265  0.5393 -0.5158
 1594TIP3    H126341   1.144   3.538   0.981  0.3033  0.9149 -0.5168
 1594TIP3    H226342   1.246   3.636   0.927 -0.1834  0.3369 -2.5949
 1595TIP3   OH226343   3.446   2.612   2.164 -0.1683 -0.0287 -0.3531
 1595TIP3    H126344   3.523   2.657   2.129 -0.7340  2.0033  0.8531
 1595TIP3    H226345   3.372   2.657   2.124 -0.7893 -2.0607 -1.6156
 1596TIP3   OH226346   1.898   0.795   0.989 -0.5334  0.2485  0.5245
 1596TIP3    H126347   1.956   0.795   1.065  2.8591 -0.7746 -1.8133
 1596TIP3    H226348   1.926   0.719   0.938 -2.7710  0.7737 -1.6673
 1597TIP3   OH226349   6.086   3.955   6.867 -0.5860  0.2387 -0.4453
 1597TIP3    H126350   6.122   4.003   6.793  0.2065  0.9278  0.3583
 1597TIP3    H226351   6.135   3.988   6.943 -1.6197 -0.1802  0.4325
 1598TIP3   OH226352   0.001   3.482   8.617  0.0427  0.2491  0.2689
 1598TIP3    H126353   0.083   3.502   8.571 -0.8966  2.4265 -0.5866
 1598TIP3    H226354   0.027   3.421   8.686  2.3961  0.8680  0.0268
 1599TIP3   OH226355   3.848   4.816   8.543 -0.5680 -0.6842 -0.1318
 1599TIP3    H126356   3.830   4.908   8.564  0.5674 -0.6021  0.5670
 1599TIP3    H226357   3.806   4.767   8.613  1.1130 -0.5341  1.0397
 1600TIP3   OH226358   4.283   5.103   0.184  0.3171  0.0293 -0.7613
 1600TIP3    H126359   4.300   5.014   0.215  0.7405  0.5981  0.7484
 1600TIP3    H226360   4.370   5.143   0.175  0.2333 -0.1678 -3.0177
 1601TIP3   OH226361   6.507   2.653   1.245  0.3348 -0.0765 -0.2727
 1601TIP3    H126362   6.541   2.627   1.330  2.1233 -0.2065 -0.9925
 1601TIP3    H226363   6.471   2.573   1.207 -1.5119  0.2021  0.7812
 1602TIP3   OH226364   1.939   3.159   8.131  0.0807  0.1923 -0.1214
 1602TIP3    H126365   2.008   3.093   8.121 -1.4692 -1.5906  0.3083
 1602TIP3    H226366   1.943   3.211   8.051  0.6177 -1.1706 -1.0021
 1603TIP3   OH226367   0.584   5.019   8.326 -0.6817  0.1834  0.0530
 1603TIP3    H126368   0.523   5.002   8.254  0.7592  1.9176 -1.6848
 1603TIP3    H226369   0.625   4.934   8.342 -1.2636 -0.3136 -0.9679
 1604TIP3   OH226370   3.162   3.204   7.774  0.1260  0.9042 -0.1356
 1604TIP3    H126371   3.191   3.140   7.839  1.6640  2.2776  0.5922
 1604TIP3    H226372   3.124   3.275   7.826 -0.7562  0.9951 -0.8797
 1605TIP3   OH226373   4.788   0.955   2.578  0.5029 -0.6346 -0.1619
 1605TIP3    H126374   4.783   0.992   2.490  1.4992 -1.2396 -0.4910
 1605TIP3    H226375   4.740   1.016   2.633  0.1441 -0.0777 -1.0741
 1606TIP3   OH226376   5.128   6.076   1.195  0.1486  0.4796 -0.8505
 1606TIP3    H126377   5.090   6.150   1.147  0.9453  1.5292  0.0945
 1606TIP3    H226378   5.167   6.116   1.273  3.3249 -0.4758 -1.7956
 1607TIP3   OH226379   6.816   0.436   0.358 -0.3072 -0.1127 -0.7582
 1607TIP3    H126380   6.832   0.500   0.427  2.2190 -0.0687 -1.2919
 1607TIP3    H226381   6.863   0.358   0.385 -0.8084 -0.7122 -1.5649
 1608TIP3   OH226382   2.890   2.422   6.701 -0.1694 -0.3457 -0.2159
 1608TIP3    H126383   2.978   2.393   6.680  0.1417  1.4860 -1.7442
 1608TIP3    H226384   2.834   2.380   6.635 -0.1739 -0.1153 -0.3622
 1609TIP3   OH226385   4.585   4.216   6.619  0.3460 -0.2573  0.4515
 1609TIP3    H126386   4.666   4.263   6.599  1.6963 -2.8955 -0.7650
 1609TIP3    H226387   4.516   4.278   6.596  1.9827  1.6453  0.3304
 1610TIP3   OH226388   3.905   3.601   2.744 -0.1495  0.1876 -0.0463
 1610TIP3    H126389   3.925   3.675   2.801  0.5529 -0.2257  0.2568
 1610TIP3    H226390   3.928   3.524   2.795 -1.3185 -0.2693 -0.1794
 1611TIP3   OH226391   4.360   2.371   6.949  0.2865  0.6262 -0.5783
 1611TIP3    H126392   4.323   2.450   6.910 -1.4225  0.6667  0.9642
 1611TIP3    H226393   4.397   2.323   6.875  0.2308  2.2567 -1.7267
 1612TIP3   OH226394   4.206   5.238   8.350 -0.2323 -0.5694 -0.4072
 1612TIP3    H126395   4.273   5.272   8.409 -0.8967 -0.0231  0.0603
 1612TIP3    H226396   4.204   5.301   8.277  0.6315 -1.2780 -1.0547
 1613TIP3   OH226397   1.625   6.866   7.831  0.3888 -0.4859 -0.2376
 1613TIP3    H126398   1.654   6.832   7.746  0.3824 -1.4665  0.1397
 1613TIP3    H226399   1.596   6.789   7.879  0.4036  0.0588  0.6652
 1614TIP3   OH226400   4.846   1.331   1.175  0.3105  0.1817  0.3453
 1614TIP3    H126401   4.867   1.401   1.113 -0.5037 -0.3414 -0.5409
 1614TIP3    H226402   4.848   1.374   1.261  0.6378  1.0973 -0.1080
 1615TIP3   OH226403   6.639   1.021   1.417  0.2785  0.3674  0.4126
 1615TIP3    H126404   6.711   0.958   1.413  0.6289  0.5030  3.0354
 1615TIP3    H226405   6.682   1.106   1.414  0.1109  0.4567  0.5493
 1616TIP3   OH226406   5.998   4.744   6.797 -0.5848  0.2892  0.3564
 1616TIP3    H126407   5.940   4.816   6.774  0.7011  1.1314 -0.3939
 1616TIP3    H226408   5.971   4.672   6.740 -0.4852  0.8799 -0.4541
 1617TIP3   OH226409   2.742   2.207   6.546 -0.1255 -0.0757  0.2173
 1617TIP3    H126410   2.700   2.268   6.485  0.5071 -0.2179 -0.3712
 1617TIP3    H226411   2.695   2.125   6.533 -1.4885  0.4383  1.5554
 1618TIP3   OH226412   5.325   6.306   0.807  0.0093  0.3591  0.5462
 1618TIP3    H126413   5.277   6.385   0.834 -2.6089 -1.5684  1.9564
 1618TIP3    H226414   5.271   6.267   0.739  0.1690 -1.2456  1.2883
 1619TIP3   OH226415   6.538   5.214   2.030  0.2747  0.0260  0.1873
 1619TIP3    H126416   6.631   5.196   2.040  0.7744  2.0277 -0.4404
 1619TIP3    H226417   6.517   5.275   2.101 -0.5446 -0.3626  0.2900
 1620TIP3   OH226418   4.775   2.695   2.299  0.2078 -0.9020 -0.0771
 1620TIP3    H126419   4.766   2.652   2.385 -1.1526 -1.3125 -0.3872
 1620TIP3    H226420   4.842   2.644   2.254  1.0595 -0.5791  0.7928
 1621TIP3   OH226421   6.774   0.704   7.760 -0.2792 -0.2114  0.6151
 1621TIP3    H126422   6.775   0.790   7.801  2.4527  0.2506 -0.2250
 1621TIP3    H226423   6.749   0.644   7.830  1.1254  0.9053  2.1280
 1622TIP3   OH226424   3.369   5.399   2.246 -0.7011 -0.2569  0.1709
 1622TIP3    H126425   3.404   5.375   2.332 -0.8794  0.5133  0.4695
 1622TIP3    H226426   3.288   5.349   2.238  0.9498 -2.9163 -0.9993
 1623TIP3   OH226427   2.791   4.792   8.607  0.3690 -0.0839  0.2545
 1623TIP3    H126428   2.706   4.827   8.578 -0.1458 -0.0326  1.7374
 1623TIP3    H226429   2.827   4.749   8.529 -0.5511  0.7708 -0.6784
 1624TIP3   OH226430   1.555   5.415   6.872 -0.1029  0.3398  0.2242
 1624TIP3    H126431   1.621   5.484   6.862  0.6831 -0.5146 -0.6570
 1624TIP3    H226432   1.495   5.428   6.799 -0.4843  0.6408  0.5837
 1625TIP3   OH226433   1.472   2.165   7.411 -0.1045  0.2799 -0.0365
 1625TIP3    H126434   1.417   2.141   7.337 -1.5836 -1.4990  1.5549
 1625TIP3    H226435   1.428   2.240   7.450 -0.0591  0.3737 -0.1632
 1626TIP3   OH226436   0.172   0.918   8.109 -0.0067  0.4654  0.1790
 1626TIP3    H126437   0.256   0.872   8.108 -0.9087 -1.2774 -0.1444
 1626TIP3    H226438   0.170   0.966   8.026  0.4400  0.0693 -0.0688
 1627TIP3   OH226439   5.160   0.582   7.949  0.0937 -0.3497 -0.0736
 1627TIP3    H126440   5.084   0.633   7.920  0.4046 -0.9494 -2.0847
 1627TIP3    H226441   5.136   0.551   8.036 -1.5600  0.2842 -0.2624
 1628TIP3   OH226442   1.453   4.029   8.558 -0.0137  0.1402 -0.7438
 1628TIP3    H126443   1.438   4.037   8.464  0.3719  1.8101 -0.6835
 1628TIP3    H226444   1.481   4.116   8.586 -1.5679  0.0942  1.1830
 1629TIP3   OH226445   2.186   0.381   1.314 -0.0957  0.3466 -0.1961
 1629TIP3    H126446   2.279   0.357   1.310 -0.4174 -0.9027 -0.6795
 1629TIP3    H226447   2.143   0.303   1.348 -1.0438  0.7152 -0.5230
 1630TIP3   OH226448   4.050   6.162   0.487 -0.2302  0.3568 -0.6619
 1630TIP3    H126449   4.070   6.243   0.535 -1.0724 -0.9495  2.1224
 1630TIP3    H226450   4.096   6.094   0.535 -2.1763 -1.2121 -0.8873
 1631TIP3   OH226451   1.190   2.352   0.185 -0.1457  0.1862 -0.0246
 1631TIP3    H126452   1.186   2.405   0.265  3.8082  0.0636  0.4509
 1631TIP3    H226453   1.111   2.377   0.136 -1.8180  1.5586  3.0794
 1632TIP3   OH226454   0.892   6.801   1.932  0.0344 -0.4932 -0.8568
 1632TIP3    H126455   0.885   6.755   2.015  0.1757 -0.6131 -0.9098
 1632TIP3    H226456   0.961   6.866   1.947  0.7755 -1.1905 -1.1853
 1633TIP3   OH226457   5.686   6.527   7.251 -0.4997 -0.2108  0.1761
 1633TIP3    H126458   5.643   6.451   7.290  1.0644 -2.3778 -2.0447
 1633TIP3    H226459   5.763   6.542   7.307 -0.7653 -0.2979  0.5689
 1634TIP3   OH226460   4.715   5.475   1.857 -0.5137  0.5562  0.4593
 1634TIP3    H126461   4.650   5.468   1.786 -1.6622 -1.7083  1.6294
 1634TIP3    H226462   4.676   5.538   1.918 -0.1293  1.5148 -0.2484
 1635TIP3   OH226463   6.276   2.922   0.789 -0.0561  0.2122 -0.3771
 1635TIP3    H126464   6.236   2.836   0.777 -1.4994  0.5456  1.6165
 1635TIP3    H226465   6.230   2.979   0.727  0.7825 -0.3561 -1.5759
 1636TIP3   OH226466   4.755   1.788   8.282 -0.2746  0.7753  0.0633
 1636TIP3    H126467   4.798   1.873   8.274 -1.0233  1.2155  0.5769
 1636TIP3    H226468   4.816   1.726   8.240  0.3896  1.5184 -0.0971
 1637TIP3   OH226469   0.135   1.632   0.201  0.2778 -0.8059 -0.0083
 1637TIP3    H126470   0.117   1.538   0.212  2.0253 -1.3824 -1.5329
 1637TIP3    H226471   0.128   1.646   0.107  1.9947  0.1482 -0.0160
 1638TIP3   OH226472   6.821   5.222   7.472 -0.0689 -0.0312 -0.0352
 1638TIP3    H126473   6.861   5.200   7.388 -0.4038  1.0578 -0.4976
 1638TIP3    H226474   6.802   5.137   7.512 -0.6439 -0.5799 -1.4073
 1639TIP3   OH226475   2.731   6.134   0.082  0.4684  0.0618 -0.2548
 1639TIP3    H126476   2.645   6.097   0.062  0.0389  0.9263 -0.0574
 1639TIP3    H226477   2.718   6.229   0.079  2.1883  0.3361 -3.6968
 1640TIP3   OH226478   0.447   0.682   0.087  0.1929 -0.0611  0.4622
 1640TIP3    H126479   0.461   0.747   0.157 -0.7914 -0.0780  0.6821
 1640TIP3    H226480   0.396   0.613   0.129 -0.4601 -0.0449 -0.2927
 1641TIP3   OH226481   1.619   0.441   0.580  0.0304  0.0469 -0.0752
 1641TIP3    H126482   1.526   0.423   0.593 -0.4592  2.4510  0.3495
 1641TIP3    H226483   1.620   0.528   0.539  2.0633 -0.5817 -1.4906
 1642TIP3   OH226484   4.523   4.940   0.383  0.0633 -0.2428  0.0803
 1642TIP3    H126485   4.501   4.873   0.447 -1.4584  0.7644  0.6588
 1642TIP3    H226486   4.559   4.891   0.308  0.6298 -1.5285  1.1575
 1643TIP3   OH226487   2.013   4.157   1.484 -1.1274 -0.1377  0.4561
 1643TIP3    H126488   2.007   4.134   1.577  0.2653  1.3806  0.9635
 1643TIP3    H226489   1.964   4.238   1.476 -0.3554  0.3023  0.0902
 1644TIP3   OH226490   6.701   1.778   8.634  0.3676 -0.1728 -0.3597
 1644TIP3    H126491   6.696   1.871   8.614  0.0433  0.1105  0.9340
 1644TIP3    H226492   6.792   1.755   8.618  0.6985  0.6171  0.3087
 1645TIP3   OH226493   3.254   4.745   7.343  0.1796 -0.5528 -0.1091
 1645TIP3    H126494   3.161   4.723   7.345  0.2351 -1.0955 -1.7995
 1645TIP3    H226495   3.297   4.672   7.388 -0.1829 -0.5146  0.2966
 1646TIP3   OH226496   2.648   4.147   2.657 -0.3884  0.0641  0.7426
 1646TIP3    H126497   2.623   4.059   2.684 -0.6089 -0.0763  0.0900
 1646TIP3    H226498   2.609   4.158   2.570 -0.5857  0.9009  0.9231
 1647TIP3   OH226499   6.457   1.508   1.550  0.5645 -0.0218 -0.3888
 1647TIP3    H126500   6.474   1.415   1.567 -1.2155 -0.2856  0.1917
 1647TIP3    H226501   6.544   1.546   1.538  1.3945 -1.5794  0.3035
 1648TIP3   OH226502   4.353   4.030   2.106  0.4302  0.4437  0.3847
 1648TIP3    H126503   4.436   4.058   2.069 -0.5260  0.1081 -2.2574
 1648TIP3    H226504   4.367   3.939   2.132  0.4226 -0.2773 -1.9329
 1649TIP3   OH226505   1.997   0.065   7.860  0.5780 -0.3438  0.1290
 1649TIP3    H126506   2.084   0.075   7.897  0.3869  0.8829  0.2911
 1649TIP3    H226507   1.942   0.039   7.934  0.8937 -1.7661 -0.0960
 1650TIP3   OH226508   4.483   6.404   0.843 -0.1385  0.5367  0.0291
 1650TIP3    H126509   4.502   6.318   0.807 -1.9458  0.8134 -1.7560
 1650TIP3    H226510   4.558   6.458   0.817  0.5030 -0.2140  0.2551
 1651TIP3   OH226511   5.517   1.748   0.203 -0.0161  0.2246  0.3277
 1651TIP3    H126512   5.502   1.722   0.112 -0.0316 -1.2677  0.7329
 1651TIP3    H226513   5.574   1.824   0.197  0.3638 -0.1396 -0.9161
 1652TIP3   OH226514   0.110   2.377   7.934 -0.1667 -0.7584  0.6939
 1652TIP3    H126515   0.149   2.292   7.916 -0.0630 -0.9607  1.7958
 1652TIP3    H226516   0.169   2.441   7.893  1.9359 -0.9784  3.1174
 1653TIP3   OH226517   0.379   5.888   2.013 -0.0936 -0.0760 -0.4508
 1653TIP3    H126518   0.386   5.980   2.037  1.2677 -0.2791  0.0145
 1653TIP3    H226519   0.396   5.886   1.919 -0.0946  0.1367 -0.4564
 1654TIP3   OH226520   5.363   0.406   2.411 -0.6478  0.3758 -0.4541
 1654TIP3    H126521   5.315   0.338   2.364 -1.4387  0.8419 -0.3342
 1654TIP3    H226522   5.295   0.456   2.456 -0.0072  0.7696  0.0825
 1655TIP3   OH226523   3.822   1.988   1.098  0.2394 -0.3212  0.0697
 1655TIP3    H126524   3.745   1.974   1.152  0.0098  2.1219  0.4912
 1655TIP3    H226525   3.790   1.981   1.008 -0.8823  2.1016  0.2072
 1656TIP3   OH226526   3.785   1.578   1.706  0.2355  0.0458  0.0339
 1656TIP3    H126527   3.871   1.599   1.670 -0.0762  0.9917 -0.1996
 1656TIP3    H226528   3.755   1.503   1.654 -0.1067  1.2421 -1.5809
 1657TIP3   OH226529   2.873   5.478   2.027 -0.0622 -0.2520  0.1819
 1657TIP3    H126530   2.938   5.435   2.083  1.0982 -0.7646 -1.4707
 1657TIP3    H226531   2.894   5.571   2.032 -0.0354 -0.2829  0.6725
 1658TIP3   OH226532   2.998   1.773   7.926 -0.2274 -0.0540  0.0619
 1658TIP3    H126533   3.073   1.760   7.985 -0.3809 -0.5524  0.1537
 1658TIP3    H226534   2.954   1.850   7.961  1.0424  1.1382 -0.8457
 1659TIP3   OH226535   0.423   1.548   1.872 -0.1532  0.2158  0.8323
 1659TIP3    H126536   0.478   1.626   1.868  1.0010 -0.5069  1.8718
 1659TIP3    H226537   0.343   1.577   1.915  0.3488  0.7794  1.3999
 1660TIP3   OH226538   6.070   1.920   0.045  0.2113 -0.1916  0.1678
 1660TIP3    H126539   6.018   1.966   0.111  0.0005 -2.5930  1.8007
 1660TIP3    H226540   6.148   1.891   0.092  2.2075  1.6845 -1.7695
 1661TIP3   OH226541   3.486   6.219   1.969 -0.5490  0.1594  0.0674
 1661TIP3    H126542   3.455   6.285   1.907 -0.0686 -0.7488 -1.1959
 1661TIP3    H226543   3.523   6.150   1.913 -0.0826 -0.6859  1.3814
 1662TIP3   OH226544   5.350   2.611   1.541  0.1072  0.3999  0.1597
 1662TIP3    H126545   5.379   2.561   1.617 -2.1473  0.2391  0.9808
 1662TIP3    H226546   5.426   2.666   1.518  0.5904  1.0835  3.0452
 1663TIP3   OH226547   5.836   6.405   0.888  0.0638 -0.1683  0.2546
 1663TIP3    H126548   5.824   6.384   0.796  2.4401 -0.0311 -0.1582
 1663TIP3    H226549   5.871   6.494   0.889  0.3894 -0.2857  1.2439
 1664TIP3   OH226550   6.663   6.620   1.197 -0.2097  0.3554 -0.0033
 1664TIP3    H126551   6.594   6.556   1.184  0.0724 -0.0128  0.2909
 1664TIP3    H226552   6.624   6.704   1.171 -0.8192  0.1800  0.3417
 1665TIP3   OH226553   6.537   0.113   6.934  0.8048  0.4488  0.6398
 1665TIP3    H126554   6.504   0.120   6.845  1.8558 -0.7047  0.1394
 1665TIP3    H226555   6.458   0.108   6.988  0.1470 -0.3569 -0.3579
 1666TIP3   OH226556   5.257   5.035   0.577 -0.1532  0.3347 -0.2833
 1666TIP3    H126557   5.319   5.108   0.586  1.0156 -0.6369 -0.2667
 1666TIP3    H226558   5.227   5.040   0.486  0.6018  0.3035 -0.5361
 1667TIP3   OH226559   5.586   1.238   8.562 -0.1330  0.1649 -0.9329
 1667TIP3    H126560   5.614   1.254   8.653 -0.2694 -1.6685 -0.5312
 1667TIP3    H226561   5.496   1.271   8.559 -0.9269 -1.7077  0.2790
 1668TIP3   OH226562   1.705   1.977   8.649  0.4881  0.0269  0.3045
 1668TIP3    H126563   1.616   1.970   8.683 -0.0179 -0.3357 -1.0402
 1668TIP3    H226564   1.726   2.070   8.656  0.4840 -0.0603  1.7546
 1669TIP3   OH226565   5.011   5.084   2.393  0.4688  0.1334  0.0667
 1669TIP3    H126566   4.930   5.086   2.443  0.8018 -0.5012  0.6647
 1669TIP3    H226567   4.997   5.017   2.326  1.0592 -1.2275  1.2350
 1670TIP3   OH226568   5.571   5.841   1.661 -0.0938  0.2221  0.0069
 1670TIP3    H126569   5.507   5.801   1.602  0.5369 -2.6177  1.0910
 1670TIP3    H226570   5.621   5.900   1.604 -1.4319 -0.1146 -1.6111
 1671TIP3   OH226571   3.524   6.445   2.201  0.0618 -0.2092  0.0593
 1671TIP3    H126572   3.525   6.420   2.108 -0.5015 -2.3200  0.5652
 1671TIP3    H226573   3.467   6.521   2.205  1.8119  1.2826 -1.6051
 1672TIP3   OH226574   4.528   5.767   8.417 -0.1531  0.2227 -0.4505
 1672TIP3    H126575   4.598   5.703   8.431  0.8308  1.2387 -0.5702
 1672TIP3    H226576   4.515   5.807   8.503 -0.0930  0.5248 -0.5817
 1673TIP3   OH226577   2.106   3.795   0.177  0.0875 -0.5849 -0.2565
 1673TIP3    H126578   2.133   3.777   0.087  0.4326  1.4680 -0.6089
 1673TIP3    H226579   2.148   3.727   0.229  0.7183 -1.2013 -1.5362
 1674TIP3   OH226580   0.759   2.681   1.363  0.3856  0.0724 -0.0688
 1674TIP3    H126581   0.807   2.634   1.431  1.8073  0.2801 -0.8989
 1674TIP3    H226582   0.668   2.652   1.373  0.5019  0.2910  2.0614
 1675TIP3   OH226583   0.828   2.449   8.002  0.7897  0.1329  0.0702
 1675TIP3    H126584   0.773   2.527   8.008  1.1531  0.4998 -1.1452
 1675TIP3    H226585   0.771   2.383   7.963  1.4362  0.8004 -2.1531
 1676TIP3   OH226586   0.894   5.831   1.123  0.1436  0.0301 -0.3453
 1676TIP3    H126587   0.964   5.858   1.183  0.0243 -1.1719  0.3804
 1676TIP3    H226588   0.868   5.745   1.155 -2.5864  0.9607  0.2579
 1677TIP3   OH226589   1.999   3.823   7.693 -0.0229  0.1659  0.0547
 1677TIP3    H126590   1.945   3.749   7.721  0.0420  0.1302  0.0868
 1677TIP3    H226591   2.067   3.829   7.760 -0.1626  0.4026  0.1779
 1678TIP3   OH226592   6.858   2.006   7.017  0.3535 -0.0819  0.6026
 1678TIP3    H126593   6.946   2.032   6.989  0.3919 -1.1083 -0.2972
 1678TIP3    H226594   6.825   2.082   7.065  1.5520  0.4923  0.5560
 1679TIP3   OH226595   0.589   0.210   6.998  0.4376 -0.2979 -0.2121
 1679TIP3    H126596   0.597   0.244   6.910  2.4734 -1.7268 -0.6628
 1679TIP3    H226597   0.521   0.263   7.039 -0.9872  0.0063 -2.7948
 1680TIP3   OH226598   2.625   2.029   0.585 -0.1412  0.0089 -0.3783
 1680TIP3    H126599   2.587   2.087   0.519 -0.3608 -0.0370 -0.2936
 1680TIP3    H226600   2.550   1.983   0.622  0.0905 -0.7275 -0.8185
 1681TIP3   OH226601   0.054   4.498   7.230 -0.2116 -1.0399  0.2653
 1681TIP3    H126602   0.121   4.564   7.214  1.6455 -3.1420 -1.1435
 1681TIP3    H226603  -0.019   4.524   7.173  0.4771 -0.2024 -0.2538
 1682TIP3   OH226604   2.680   1.501   6.993 -0.0539  0.5227 -0.3048
 1682TIP3    H126605   2.754   1.545   7.034 -0.2268 -1.4532  2.3807
 1682TIP3    H226606   2.703   1.408   6.996 -1.4140  0.0564 -2.1258
 1683TIP3   OH226607   6.313   5.804   0.094  0.1388  0.1273  0.7628
 1683TIP3    H126608   6.268   5.747   0.031  1.5924  0.9555 -1.1062
 1683TIP3    H226609   6.342   5.744   0.163  0.4666 -1.1962 -0.4633
 1684TIP3   OH226610   5.981   0.791   0.150  0.1900  0.1261  0.2544
 1684TIP3    H126611   5.943   0.800   0.237  1.2462  2.0003  0.5762
 1684TIP3    H226612   5.905   0.781   0.092 -0.7511  2.0991  1.0495
 1685TIP3   OH226613   1.885   6.664   0.187 -0.0707  0.6048  0.3096
 1685TIP3    H126614   1.846   6.688   0.271 -0.0683 -0.2098  0.5580
 1685TIP3    H226615   1.814   6.626   0.136  0.5060 -1.8173  1.1368
 1686TIP3   OH226616   5.753   2.632   8.112  0.3220 -0.2214 -0.1191
 1686TIP3    H126617   5.842   2.660   8.091  0.2661  0.6837  0.7475
 1686TIP3    H226618   5.764   2.561   8.174  0.4481 -1.2026 -1.2382
 1687TIP3   OH226619   0.090   0.066   1.858  0.4619  0.0424  0.4678
 1687TIP3    H126620   0.075   0.156   1.886  2.4744  0.8242 -0.7690
 1687TIP3    H226621   0.116   0.073   1.767  0.3848 -1.8435  0.2608
 1688TIP3   OH226622   6.323   4.576   0.337  0.3429  0.0990 -0.5556
 1688TIP3    H126623   6.284   4.597   0.422 -1.3243  0.8290 -1.4472
 1688TIP3    H226624   6.337   4.481   0.339  0.7509  0.1735  0.6870
 1689TIP3   OH226625   2.645   1.736   1.435  0.2060  0.0889  0.1022
 1689TIP3    H126626   2.595   1.669   1.481 -1.4009  0.0680 -1.5738
 1689TIP3    H226627   2.618   1.818   1.475  0.0212 -0.0459  0.2569
 1690TIP3   OH226628   2.420   2.099   7.559 -0.7635  0.3764  0.0862
 1690TIP3    H126629   2.442   2.023   7.506 -1.7900 -1.9676  2.7599
 1690TIP3    H226630   2.326   2.110   7.548 -0.6775  1.0597 -0.0123
 1691TIP3   OH226631   0.680   2.930   8.466 -0.3433  0.1056  0.3885
 1691TIP3    H126632   0.721   3.004   8.420  0.8066 -0.2798  0.7759
 1691TIP3    H226633   0.602   2.911   8.414  1.9885 -1.7553 -2.8045
 1692TIP3   OH226634   2.046   2.404   0.987 -0.5419  0.1024 -0.1390
 1692TIP3    H126635   1.953   2.386   0.979 -0.4285 -2.1045  2.1263
 1692TIP3    H226636   2.052   2.471   1.055 -0.4861  1.1854 -1.1803
 1693TIP3   OH226637   2.067   1.886   7.501  0.0437  0.0641 -0.0958
 1693TIP3    H126638   2.095   1.822   7.435 -1.0174 -1.1375  0.5872
 1693TIP3    H226639   1.974   1.900   7.483 -0.2703 -0.3158  1.1618
 1694TIP3   OH226640   1.000   4.028   0.724  0.2121  0.3397 -0.2669
 1694TIP3    H126641   1.040   4.051   0.807 -0.1064  1.1550 -0.3356
 1694TIP3    H226642   1.058   3.960   0.688 -1.0815 -2.0359  1.8146
 1695TIP3   OH226643   3.360   2.168   1.155  0.3251 -0.3714  0.1684
 1695TIP3    H126644   3.313   2.090   1.184  0.7082 -0.9686 -0.7841
 1695TIP3    H226645   3.452   2.145   1.166  0.5290 -0.9543 -2.2551
 1696TIP3   OH226646   5.919   6.305   2.628  0.3809 -0.0437  0.4196
 1696TIP3    H126647   5.917   6.224   2.679 -0.8469  0.6284  1.4851
 1696TIP3    H226648   5.858   6.363   2.673  1.8277  1.7616  0.1376
 1697TIP3   OH226649   0.195   4.041   0.312 -0.6584  0.2594  0.2903
 1697TIP3    H126650   0.102   4.033   0.333 -0.9711  0.7285 -0.8634
 1697TIP3    H226651   0.215   4.134   0.327 -0.4820  0.2500  0.1207
 1698TIP3   OH226652   4.862   3.948   6.738  0.3718 -0.4698 -0.3249
 1698TIP3    H126653   4.937   3.893   6.758  1.7692  1.2370 -0.7056
 1698TIP3    H226654   4.892   4.037   6.753 -1.2762  0.3299 -1.4315
 1699TIP3   OH226655   0.265   4.429   6.523 -0.5224  0.0365  0.4712
 1699TIP3    H126656   0.253   4.335   6.511  1.2059 -0.1047 -0.3951
 1699TIP3    H226657   0.316   4.436   6.604  1.9893 -0.0064 -1.0228
 1700TIP3   OH226658   2.654   4.463   0.288  0.1293  0.1604 -0.0209
 1700TIP3    H126659   2.561   4.468   0.310  0.3187  1.2931  0.6010
 1700TIP3    H226660   2.657   4.484   0.194 -0.0192  3.1809  0.5635
 1701TIP3   OH226661   0.509   0.249   8.628  0.4458  0.1805  1.1224
 1701TIP3    H126662   0.505   0.217   8.718 -0.0997 -1.3335  0.5918
 1701TIP3    H226663   0.569   0.189   8.583  1.2333  1.3126  0.6083
 1702TIP3   OH226664   5.380   5.671   7.255 -0.4400 -0.0512 -0.1997
 1702TIP3    H126665   5.419   5.741   7.203  0.1850  1.0582  1.6565
 1702TIP3    H226666   5.320   5.715   7.314 -0.6726 -1.1835  0.4359
 1703TIP3   OH226667   0.647   6.669   2.028 -0.4313 -0.0055 -0.1455
 1703TIP3    H126668   0.664   6.575   2.021 -2.7871 -0.5670  0.7115
 1703TIP3    H226669   0.693   6.696   2.107 -0.6369 -0.7162  0.2302
 1704TIP3   OH226670   5.604   4.711   2.674 -0.6309  0.1653 -0.9499
 1704TIP3    H126671   5.674   4.720   2.739  0.2084  0.7737 -1.8986
 1704TIP3    H226672   5.555   4.634   2.702  0.7837 -0.6369 -0.5741
 1705TIP3   OH226673   0.429   4.681   8.508  0.2191 -0.0705 -0.6822
 1705TIP3    H126674   0.398   4.650   8.593 -0.1984  0.3628 -0.6729
 1705TIP3    H226675   0.362   4.744   8.479 -0.6028 -1.5507 -2.1760
 1706TIP3   OH226676   6.797   2.210   8.381  0.0040  0.2020 -0.0833
 1706TIP3    H126677   6.810   2.116   8.395  0.4402  0.3043  0.2310
 1706TIP3    H226678   6.860   2.251   8.440 -0.1225  0.6920 -0.2892
 1707TIP3   OH226679   6.274   1.468   0.422  0.1926  0.2837 -0.1601
 1707TIP3    H126680   6.181   1.449   0.438  0.1467  0.4444 -0.2307
 1707TIP3    H226681   6.310   1.386   0.390  0.6361 -0.5160  2.2424
 1708TIP3   OH226682   0.554   1.764   8.691  0.2353 -0.1417 -0.3932
 1708TIP3    H126683   0.637   1.716   8.685 -0.5162 -1.6858  0.7554
 1708TIP3    H226684   0.548   1.791   8.782 -1.2631 -1.5280 -0.0300
 1709TIP3   OH226685   6.754   5.122   7.893 -0.0838  1.3106 -0.3344
 1709TIP3    H126686   6.835   5.121   7.943  0.7628 -1.5188 -1.6045
 1709TIP3    H226687   6.762   5.201   7.838  1.2841  1.6657  0.3164
 1710TIP3   OH226688   2.245   5.301   1.363 -0.1088  0.1617 -0.0738
 1710TIP3    H126689   2.157   5.265   1.350 -0.5336  0.8869  0.7424
 1710TIP3    H226690   2.298   5.226   1.389 -0.5904 -0.1979 -0.1128
 1711TIP3   OH226691   6.386   2.338   8.167  0.3926  0.1823  0.4499
 1711TIP3    H126692   6.424   2.262   8.123 -0.0597 -0.7533  1.6132
 1711TIP3    H226693   6.404   2.324   8.259 -0.5908  0.9749  0.7890
 1712TIP3   OH226694   2.803   0.125   2.125 -0.3191 -0.4248 -0.1522
 1712TIP3    H126695   2.765   0.038   2.137  0.7408 -0.9606 -0.6253
 1712TIP3    H226696   2.728   0.185   2.135 -0.8771 -1.3012  1.2036
 1713TIP3   OH226697   2.118   2.496   1.247  0.6372 -0.0778 -0.7332
 1713TIP3    H126698   2.174   2.467   1.319 -1.3887 -1.1917  0.4860
 1713TIP3    H226699   2.097   2.588   1.268  0.3337 -0.2948 -0.0536
 1714TIP3   OH226700   3.547   1.151   8.183 -0.0392  0.5086  0.2674
 1714TIP3    H126701   3.552   1.081   8.248  2.5269 -0.2744 -0.6513
 1714TIP3    H226702   3.634   1.191   8.184 -1.0661  2.9506 -0.0856
 1715TIP3   OH226703   5.529   1.847   6.861 -0.4115 -0.0779  0.4574
 1715TIP3    H126704   5.530   1.931   6.906 -1.4702  0.3633 -0.3059
 1715TIP3    H226705   5.622   1.823   6.852 -0.0151  1.7601 -0.7062
 1716TIP3   OH226706   4.172   4.278   2.340 -1.0036  0.2326  0.1955
 1716TIP3    H126707   4.252   4.327   2.360 -0.4330 -0.3819 -0.4947
 1716TIP3    H226708   4.128   4.267   2.424 -0.8633  1.4246  0.4441
 1717TIP3   OH226709   5.951   2.001   0.305  0.2949  0.1955  0.0471
 1717TIP3    H126710   5.887   2.070   0.320  0.5132  0.4606 -0.2227
 1717TIP3    H226711   5.930   1.934   0.370  0.9645  1.1342  1.2828
 1718TIP3   OH226712   2.982   0.649   1.176 -0.3560 -0.2778  0.4106
 1718TIP3    H126713   2.928   0.674   1.251 -0.5972 -0.8546  0.4299
 1718TIP3    H226714   2.930   0.584   1.130 -0.5429  0.5974 -0.6696
 1719TIP3   OH226715   1.321   0.006   0.265 -0.5321 -0.1122  0.0517
 1719TIP3    H126716   1.292  -0.062   0.204 -0.8241 -0.6296  0.7539
 1719TIP3    H226717   1.351   0.077   0.209 -0.2195 -0.8226 -0.6995
 1720TIP3   OH226718   4.844   0.406   7.520 -0.1044  0.2294  0.2477
 1720TIP3    H126719   4.793   0.331   7.549 -1.7156  0.9636 -0.5783
 1720TIP3    H226720   4.820   0.477   7.580 -0.1078  0.5977 -0.1788
 1721TIP3   OH226721   1.852   5.745   6.957  0.1759  0.4798 -0.0642
 1721TIP3    H126722   1.810   5.690   7.023 -0.3183  0.4453 -0.4046
 1721TIP3    H226723   1.800   5.732   6.878  2.9244 -2.5489 -1.6419
 1722TIP3   OH226724   2.740   6.630   7.805  0.1029  0.0893  0.9318
 1722TIP3    H126725   2.799   6.555   7.807  0.7863  0.5913  0.0714
 1722TIP3    H226726   2.719   6.647   7.897  1.0078 -0.3145  1.2161
 1723TIP3   OH226727   4.824   5.806   7.498  0.1382 -0.1060 -0.0737
 1723TIP3    H126728   4.820   5.892   7.540  0.5424 -0.3108  0.4067
 1723TIP3    H226729   4.856   5.748   7.568  0.4241 -0.5351 -0.5565
 1724TIP3   OH226730   1.181   0.393   7.549 -0.1509 -0.0580 -0.0503
 1724TIP3    H126731   1.200   0.324   7.485  0.1434  0.1704 -0.2131
 1724TIP3    H226732   1.149   0.466   7.496  1.1704  0.5376 -0.0657
 1725TIP3   OH226733   2.001   2.056   8.347  0.4127 -0.1416 -0.6530
 1725TIP3    H126734   1.987   2.142   8.307  0.2974 -0.5263 -1.4640
 1725TIP3    H226735   2.089   2.062   8.385 -0.8087  1.4373  2.2577
 1726TIP3   OH226736   2.977   3.779   1.300 -0.3910  0.3384 -0.8146
 1726TIP3    H126737   2.985   3.869   1.269 -0.1666  0.4028 -0.5732
 1726TIP3    H226738   3.048   3.769   1.364  0.0855 -0.2616 -1.4274
 1727TIP3   OH226739   6.657   4.395   8.299 -0.1102  0.2834 -0.1952
 1727TIP3    H126740   6.601   4.319   8.288  0.1044 -0.1660  1.4974
 1727TIP3    H226741   6.731   4.364   8.351  0.7512  1.3091 -0.7452
 1728TIP3   OH226742   4.971   5.782   1.680 -0.2225 -0.0582  0.5333
 1728TIP3    H126743   5.022   5.780   1.761 -0.4388 -1.7094  0.6654
 1728TIP3    H226744   4.897   5.724   1.697 -0.3704 -0.2804 -0.7798
 1729TIP3   OH226745   1.954   6.379   8.607  0.3727 -0.2449  0.7591
 1729TIP3    H126746   1.941   6.445   8.539 -0.2560 -0.8373  0.2805
 1729TIP3    H226747   2.022   6.415   8.663  0.6812  0.4005 -0.0084
 1730TIP3   OH226748   6.355   0.448   7.006 -0.2144 -0.2813 -0.2322
 1730TIP3    H126749   6.425   0.412   6.951  0.1674 -1.1500  0.7982
 1730TIP3    H226750   6.400   0.503   7.070 -0.4947 -0.6333  0.2719
 1731TIP3   OH226751   5.126   4.668   0.475 -0.2228  0.7826  0.0661
 1731TIP3    H126752   5.080   4.597   0.520 -0.4508  0.1071 -1.1961
 1731TIP3    H226753   5.173   4.714   0.545 -1.3741  0.3956  1.1261
 1732TIP3   OH226754   5.635   4.527   7.524 -0.2198 -0.2331 -0.2911
 1732TIP3    H126755   5.605   4.599   7.579 -0.6871 -0.0077 -0.8277
 1732TIP3    H226756   5.579   4.531   7.447 -1.3708 -2.1900  0.3821
 1733TIP3   OH226757   3.199   2.259   0.948  0.6805 -0.1666  0.5386
 1733TIP3    H126758   3.238   2.242   1.033  0.4087  0.5084  0.8045
 1733TIP3    H226759   3.104   2.260   0.965  0.6441  0.4634  0.3257
 1734TIP3   OH226760   2.193   4.260   6.476  0.2573 -0.0257  0.4015
 1734TIP3    H126761   2.202   4.168   6.498  0.0417 -0.3612 -0.8450
 1734TIP3    H226762   2.273   4.301   6.509  0.6061 -0.7607  0.4832
 1735TIP3   OH226763   2.146   2.500   0.729  0.4939  0.2950 -0.7324
 1735TIP3    H126764   2.177   2.587   0.752 -2.3717  1.2185 -0.0023
 1735TIP3    H226765   2.112   2.464   0.810  1.4545 -1.4818 -1.0658
 1736TIP3   OH226766   1.341   2.279   7.743 -0.0509  0.4517 -0.2651
 1736TIP3    H126767   1.333   2.270   7.838  1.8369 -0.3955 -0.1360
 1736TIP3    H226768   1.370   2.192   7.714 -1.0798  0.5529 -1.6948
 1737TIP3   OH226769   5.391   3.003   7.616 -0.6768  0.3496  0.5003
 1737TIP3    H126770   5.332   3.056   7.669 -1.5675 -1.2729  1.1840
 1737TIP3    H226771   5.345   2.920   7.603  2.0553 -1.6496  2.4284
 1738TIP3   OH226772   1.118   4.022   0.980  0.3099 -0.1817  0.2951
 1738TIP3    H126773   1.125   4.117   0.987  1.1549 -0.3308  2.1384
 1738TIP3    H226774   1.037   4.001   1.026 -1.0139 -0.2264 -1.9469
 1739TIP3   OH226775   5.081   4.987   0.789  0.5230  0.4787  0.7688
 1739TIP3    H126776   5.124   5.015   0.708 -0.1775  0.3955  0.3555
 1739TIP3    H226777   4.988   4.984   0.766  0.4712 -1.2420  1.0681
 1740TIP3   OH226778   4.148   0.337   6.749  0.1316 -0.4082  0.0617
 1740TIP3    H126779   4.148   0.251   6.791 -2.7411 -0.3143  0.4799
 1740TIP3    H226780   4.135   0.398   6.821 -1.3888  0.0394 -0.5494
 1741TIP3   OH226781   4.515   2.397   1.906  0.5346 -0.2470  0.5806
 1741TIP3    H126782   4.499   2.348   1.986  0.4198  0.2473  0.8605
 1741TIP3    H226783   4.477   2.483   1.921  1.9143  0.3926  0.6111
 1742TIP3   OH226784   4.722   0.951   0.659  0.2257 -0.6342 -0.1650
 1742TIP3    H126785   4.743   0.860   0.638  0.4283 -0.1157 -2.4886
 1742TIP3    H226786   4.687   0.987   0.577  1.5505  1.7987  0.2525
 1743TIP3   OH226787   3.472   4.710   6.873 -0.0480  0.4911 -0.4963
 1743TIP3    H126788   3.490   4.784   6.816 -1.2065  1.9016  0.8622
 1743TIP3    H226789   3.558   4.675   6.895  0.4369 -0.2997 -3.2361
 1744TIP3   OH226790   4.867   1.056   0.158  0.2048 -0.0343  0.0155
 1744TIP3    H126791   4.788   1.051   0.212  1.8994 -1.6236  2.6231
 1744TIP3    H226792   4.911   0.972   0.174  1.3709 -0.1337 -3.1259
 1745TIP3   OH226793   3.302   2.532   8.100  0.1888 -0.0221 -0.1854
 1745TIP3    H126794   3.254   2.612   8.123  1.0100  0.2023  0.8402
 1745TIP3    H226795   3.270   2.509   8.013 -3.0021 -0.8218  1.0558
 1746TIP3   OH226796   4.092   0.066   7.662  0.0458 -0.8878  0.1791
 1746TIP3    H126797   4.128   0.153   7.676 -0.9730 -0.5226  0.6740
 1746TIP3    H226798   4.131   0.036   7.580 -0.2568  0.3925 -0.4575
 1747TIP3   OH226799   1.572   1.141   0.004 -0.3251  0.1175 -0.0871
 1747TIP3    H126800   1.525   1.118  -0.075 -0.3154  0.0098 -0.0613
 1747TIP3    H226801   1.576   1.237   0.003 -1.6151  0.1964  0.5300
 1748TIP3   OH226802   1.452   1.934   0.059 -0.7507  0.0396  0.1440
 1748TIP3    H126803   1.383   1.990   0.022  0.7160  0.1624 -2.6405
 1748TIP3    H226804   1.412   1.847   0.064 -1.4061  0.2840 -0.5677
 1749TIP3   OH226805   2.949   4.530   2.951  0.3779 -0.0916  0.4623
 1749TIP3    H126806   2.985   4.553   2.866  0.6191 -1.2144  0.2475
 1749TIP3    H226807   2.871   4.478   2.932  1.0637 -1.3348  0.8916
 1750TIP3   OH226808   2.359   0.052   2.533 -0.0590  0.6835 -0.2248
 1750TIP3    H126809   2.404  -0.018   2.580  0.9687  1.5114  0.0728
 1750TIP3    H226810   2.373   0.031   2.441 -0.0359  0.3239 -0.1419
 1751TIP3   OH226811   6.436   2.049   1.382  0.3423 -0.7530 -0.8468
 1751TIP3    H126812   6.501   2.112   1.351 -1.5439  1.4215 -0.6373
 1751TIP3    H226813   6.362   2.102   1.411 -1.7408 -3.1051 -1.4499
 1752TIP3   OH226814   6.180   5.699   0.403  0.4970 -0.0440  0.0132
 1752TIP3    H126815   6.108   5.693   0.467 -0.6165  3.5887 -0.6992
 1752TIP3    H226816   6.144   5.660   0.323  0.0688 -0.0952  0.2277
 1753TIP3   OH226817   1.333   1.039   8.202 -0.4207  0.3460  0.2038
 1753TIP3    H126818   1.384   0.970   8.160 -0.1664  0.3466  0.5136
 1753TIP3    H226819   1.255   0.994   8.235 -0.9507  0.4584 -0.8461
 1754TIP3   OH226820   5.180   3.606   0.320  0.9359 -0.3248 -0.7327
 1754TIP3    H126821   5.215   3.666   0.254  0.8304 -0.9348 -1.3470
 1754TIP3    H226822   5.095   3.578   0.286  1.1433 -1.1079 -0.6287
 1755TIP3   OH226823   0.159   1.906   0.175 -0.3787  0.0586  0.2133
 1755TIP3    H126824   0.154   1.833   0.237  1.8942  0.3520  0.8195
 1755TIP3    H226825   0.215   1.873   0.104  1.8059  1.5927  1.1398
 1756TIP3   OH226826   5.221   6.810   8.273  0.2360  0.0014  0.2725
 1756TIP3    H126827   5.166   6.761   8.213  1.3963 -2.6206  1.1728
 1756TIP3    H226828   5.164   6.832   8.346 -0.3281  0.0159 -0.1708
 1757TIP3   OH226829   0.704   6.788   2.317 -0.7444 -0.5180  0.0711
 1757TIP3    H126830   0.782   6.758   2.270 -1.1814  0.0117 -1.0234
 1757TIP3    H226831   0.737   6.818   2.402  0.2458 -0.2658 -0.3946
 1758TIP3   OH226832   3.189   0.404   1.428 -0.3188 -0.1993 -0.0308
 1758TIP3    H126833   3.165   0.311   1.425 -0.3098 -0.3077  2.1191
 1758TIP3    H226834   3.284   0.403   1.437 -0.3058  0.0330 -0.1454
 1759TIP3   OH226835   5.522   1.882   8.375 -0.3067 -0.6244 -0.1335
 1759TIP3    H126836   5.563   1.806   8.333  1.7011  0.2423  0.1403
 1759TIP3    H226837   5.508   1.944   8.303 -4.7736 -2.2111 -0.9653
 1760TIP3   OH226838   0.161   1.171   6.526  0.1803 -0.0615 -0.4046
 1760TIP3    H126839   0.114   1.096   6.561 -0.1013  0.2747 -0.0645
 1760TIP3    H226840   0.252   1.157   6.553  0.3899 -0.9794 -1.5048
 1761TIP3   OH226841   1.670   1.007   1.173  0.5883 -0.4921 -0.1346
 1761TIP3    H126842   1.641   0.916   1.159  0.7730 -0.7949  1.3105
 1761TIP3    H226843   1.601   1.060   1.132 -0.9362 -1.2519  1.3215
 1762TIP3   OH226844   0.953   5.815   6.960 -0.3868 -0.3755  0.2894
 1762TIP3    H126845   0.932   5.897   7.005 -1.6755 -0.2153 -0.5766
 1762TIP3    H226846   1.035   5.787   7.000 -0.8798  0.3698  1.9172
 1763TIP3   OH226847   1.784   3.372   1.641  0.8164  0.3768 -0.0708
 1763TIP3    H126848   1.754   3.414   1.722 -1.1651 -1.2441  0.1308
 1763TIP3    H226849   1.730   3.411   1.573 -1.0518 -1.6940  0.1203
 1764TIP3   OH226850   1.862   0.856   0.688  0.3255 -0.3921 -0.1366
 1764TIP3    H126851   1.858   0.868   0.783 -2.1189 -1.0384 -0.0813
 1764TIP3    H226852   1.821   0.771   0.673  0.8141 -0.3681 -1.7668
 1765TIP3   OH226853   1.054   0.296   8.260  0.4385 -0.1493  0.2725
 1765TIP3    H126854   1.069   0.302   8.355 -0.3540 -1.4588  0.4970
 1765TIP3    H226855   1.077   0.383   8.227  2.2351 -0.1285  1.4390
 1766TIP3   OH226856   0.019   0.733   0.878 -0.3809 -0.3932 -0.4994
 1766TIP3    H126857   0.011   0.798   0.809 -0.4316 -1.3005 -1.3709
 1766TIP3    H226858  -0.071   0.722   0.911 -0.6775 -1.2574 -1.5335
 1767TIP3   OH226859   6.150   6.587   1.642  0.5730  0.0393  0.0857
 1767TIP3    H126860   6.134   6.544   1.558 -0.5755 -0.1639  0.3817
 1767TIP3    H226861   6.200   6.523   1.692 -1.7946 -1.4013  0.8162
 1768TIP3   OH226862   5.700   1.304   1.592 -0.0988  0.0380 -0.1264
 1768TIP3    H126863   5.616   1.350   1.593 -0.3300 -0.3775  1.0693
 1768TIP3    H226864   5.755   1.353   1.653 -0.6059 -1.6624  1.8147
 1769TIP3   OH226865   0.831   1.291   8.268 -0.1347 -0.3569  0.2318
 1769TIP3    H126866   0.778   1.262   8.343  0.1252  0.8122  0.9016
 1769TIP3    H226867   0.767   1.324   8.205 -0.3125 -0.7370  0.2085
 1770TIP3   OH226868   4.726   0.127   2.363  0.2913  0.3464  0.7379
 1770TIP3    H126869   4.817   0.113   2.390  0.6614 -2.0052 -1.3090
 1770TIP3    H226870   4.685   0.041   2.372 -0.4925  0.2818 -2.3580
 1771TIP3   OH226871   4.812   4.409   6.609 -0.3579  0.2848  0.1744
 1771TIP3    H126872   4.900   4.423   6.574 -1.4140  0.6342 -2.6069
 1771TIP3    H226873   4.790   4.489   6.656  0.4169  0.5998 -0.0017
 1772TIP3   OH226874   3.551   6.857   8.088  0.1763 -0.2654  0.0033
 1772TIP3    H126875   3.603   6.933   8.061 -1.1805  0.4966 -0.5576
 1772TIP3    H226876   3.581   6.786   8.031  0.2636  0.2828 -0.6412
 1773TIP3   OH226877   5.864   5.591   0.992 -0.2389 -0.0040  0.4292
 1773TIP3    H126878   5.835   5.668   1.041 -1.1353  0.0576 -0.1776
 1773TIP3    H226879   5.789   5.567   0.938  0.9739  0.4607 -1.6015
 1774TIP3   OH226880   2.170   4.349   7.332 -0.0898  0.0924 -0.0500
 1774TIP3    H126881   2.256   4.380   7.362 -0.6102  1.3247  0.2422
 1774TIP3    H226882   2.179   4.343   7.237  0.7351 -1.1546  0.0873
 1775TIP3   OH226883   3.053   6.150   7.800 -0.2788  0.6159  0.0374
 1775TIP3    H126884   3.049   6.176   7.707 -1.7054  0.6661  0.0837
 1775TIP3    H226885   3.003   6.068   7.804  0.8253 -0.0442  0.5649
 1776TIP3   OH226886   5.683   1.349   7.464  0.3193 -0.0737 -0.1455
 1776TIP3    H126887   5.671   1.270   7.517 -2.0385 -0.1951 -0.7357
 1776TIP3    H226888   5.652   1.325   7.377  2.9168  0.5065 -1.3182
 1777TIP3   OH226889   4.651   6.181   7.159  0.3140  0.2516  0.0650
 1777TIP3    H126890   4.624   6.117   7.224  1.6595  0.3803  0.7912
 1777TIP3    H226891   4.714   6.135   7.104  0.4264  0.6211 -0.1214
 1778TIP3   OH226892   0.730   1.992   0.733 -1.2340  0.0238  0.1997
 1778TIP3    H126893   0.754   2.041   0.812 -0.7721 -0.0775  0.1216
 1778TIP3    H226894   0.656   2.041   0.697  0.9158  2.3375 -1.4203
 1779TIP3   OH226895   5.186   3.169   0.220  0.1185 -0.2208  0.0101
 1779TIP3    H126896   5.243   3.230   0.268  0.3928 -0.4886  0.0328
 1779TIP3    H226897   5.180   3.206   0.132  0.8211 -0.5028 -0.1627
 1780TIP3   OH226898   1.734   3.929   7.728 -0.1901 -0.1416 -0.2501
 1780TIP3    H126899   1.825   3.902   7.720  0.0639 -0.2070  2.1039
 1780TIP3    H226900   1.684   3.849   7.712  0.2857 -0.6180  0.5715
 1781TIP3   OH226901   0.871   6.454   6.332  0.1242 -0.2940 -0.0393
 1781TIP3    H126902   0.830   6.407   6.405  0.3179 -0.3885  0.0083
 1781TIP3    H226903   0.799   6.470   6.271 -0.4026  1.3214  0.9422
 1782TIP3   OH226904   1.261   1.376   0.111  0.1518 -0.1190  0.5181
 1782TIP3    H126905   1.268   1.286   0.140  1.5307  0.0129  0.6608
 1782TIP3    H226906   1.331   1.423   0.158  1.5093  0.3856 -1.8084
 1783TIP3   OH226907   3.888   6.176   6.652 -0.5423 -0.4313 -0.0326
 1783TIP3    H126908   3.971   6.178   6.602 -0.6249 -1.8216 -0.2809
 1783TIP3    H226909   3.851   6.090   6.632 -1.8581  0.0156  0.4081
 1784TIP3   OH226910   6.241   0.114   1.880  0.1233 -0.4490  0.2998
 1784TIP3    H126911   6.329   0.150   1.893  0.2726 -1.0384  1.0356
 1784TIP3    H226912   6.255   0.035   1.828 -0.2310  0.6390 -1.5394
 1785TIP3   OH226913   4.586   6.723   1.980 -0.0634  0.4364 -0.0457
 1785TIP3    H126914   4.673   6.744   1.947 -0.0963  0.6235 -0.0096
 1785TIP3    H226915   4.569   6.789   2.047 -0.6258  0.9682 -0.7106
 1786TIP3   OH226916   5.021   0.466   7.202 -0.3173 -0.5894 -0.0343
 1786TIP3    H126917   5.105   0.487   7.243 -1.2656 -0.9811  2.2251
 1786TIP3    H226918   5.001   0.377   7.231 -1.0291 -0.9276 -1.4498
 1787TIP3   OH226919   5.535   2.552   7.627 -0.3159  0.0381  0.5247
 1787TIP3    H126920   5.439   2.553   7.630 -0.3174 -0.4921  0.8551
 1787TIP3    H226921   5.561   2.581   7.715 -0.1712  0.3819  0.3690
 1788TIP3   OH226922   0.224   0.818   6.525  0.1712 -0.2347  0.0978
 1788TIP3    H126923   0.131   0.838   6.529  0.3175  0.3213  1.9861
 1788TIP3    H226924   0.263   0.894   6.480 -0.2221 -0.2152 -0.2125
 1789TIP3   OH226925   5.149   1.966   1.820  0.5540  0.0097 -0.1491
 1789TIP3    H126926   5.095   1.899   1.862  1.1586 -1.3530 -1.4513
 1789TIP3    H226927   5.087   2.035   1.795 -0.2728 -0.6421  0.0721
 1790TIP3   OH226928   1.351   2.152   0.651  0.0279 -0.2439 -0.1156
 1790TIP3    H126929   1.309   2.234   0.625  0.4622 -0.0308 -0.1441
 1790TIP3    H226930   1.296   2.119   0.722  0.7089  0.8423  0.9438
 1791TIP3   OH226931   4.793   5.854   2.147  0.3171  0.1730  0.1541
 1791TIP3    H126932   4.775   5.948   2.145 -1.4956 -0.1577 -0.4194
 1791TIP3    H226933   4.868   5.846   2.206 -0.3113  1.8517  1.2662
 1792TIP3   OH226934   0.547   0.811   7.923  0.0284 -0.2421  0.2473
 1792TIP3    H126935   0.538   0.811   8.018  1.5399  0.1417  0.4186
 1792TIP3    H226936   0.641   0.821   7.907 -0.2760  0.6161 -1.2909
 1793TIP3   OH226937   0.962   1.839   0.072 -0.2619  0.2417 -1.0868
 1793TIP3    H126938   1.034   1.901   0.073 -0.5394  0.5669 -0.2985
 1793TIP3    H226939   0.907   1.867  -0.001  0.8792 -0.5908 -2.3194
 1794TIP3   OH226940   2.503   2.233   1.144  0.3973  0.9954 -0.1113
 1794TIP3    H126941   2.534   2.237   1.235  1.7434  0.5718 -0.5347
 1794TIP3    H226942   2.407   2.228   1.152  0.5501 -0.3965  1.3364
 1795TIP3   OH226943   2.357   3.707   7.625  0.3429  0.9797  0.3138
 1795TIP3    H126944   2.389   3.793   7.597 -1.4722  1.1312 -1.6579
 1795TIP3    H226945   2.320   3.721   7.712 -0.1289  2.2635 -0.0817
 1796TIP3   OH226946   3.198   3.894   7.311 -0.0685 -0.4114  0.3297
 1796TIP3    H126947   3.153   3.930   7.234 -0.4910  1.2909  1.3283
 1796TIP3    H226948   3.286   3.931   7.306 -0.0206 -0.4951  0.5428
 1797TIP3   OH226949   1.303   4.195   0.193 -0.1234 -0.0062  0.7145
 1797TIP3    H126950   1.286   4.247   0.114  1.5030  0.9959  0.9763
 1797TIP3    H226951   1.290   4.257   0.265  0.0474 -0.4610  1.1421
 1798TIP3   OH226952   0.668   4.737   1.104 -0.0912  0.2299 -0.1682
 1798TIP3    H126953   0.604   4.787   1.054 -0.7154  0.3160  0.6901
 1798TIP3    H226954   0.628   4.727   1.191  0.8839 -0.0671  0.2591
 1799TIP3   OH226955   5.871   0.908   7.000 -0.8298  0.6350  0.1350
 1799TIP3    H126956   5.838   0.892   7.088  0.5397  2.2086  0.9885
 1799TIP3    H226957   5.815   0.978   6.965 -0.2145  1.3260  0.5019
 1800TIP3   OH226958   0.270   4.299   8.652  0.3313 -0.4976  0.3686
 1800TIP3    H126959   0.314   4.220   8.618 -0.9555 -0.7882 -0.6879
 1800TIP3    H226960   0.212   4.266   8.720 -2.8723 -1.0889 -2.4017
 1801TIP3   OH226961   3.539   1.591   6.940  0.1503 -0.0365 -0.1237
 1801TIP3    H126962   3.537   1.508   6.892  1.0067 -0.5995  0.7883
 1801TIP3    H226963   3.490   1.652   6.884  0.7741 -0.7686 -1.5311
 1802TIP3   OH226964   6.423   4.381   7.676  0.0117  0.3143 -0.4564
 1802TIP3    H126965   6.362   4.356   7.606  1.0774 -0.9231 -0.9975
 1802TIP3    H226966   6.465   4.299   7.700  3.0431  1.4043 -1.6260
 1803TIP3   OH226967   1.784   4.764   1.748 -0.2061 -0.6573  0.5689
 1803TIP3    H126968   1.863   4.816   1.758  0.7124 -1.5883 -1.2366
 1803TIP3    H226969   1.775   4.716   1.830 -0.1137  1.0002  1.5929
 1804TIP3   OH226970   2.104   3.778   0.923  0.1083  0.0888 -0.6948
 1804TIP3    H126971   2.141   3.691   0.938 -1.4725 -0.5626 -0.2709
 1804TIP3    H226972   2.159   3.837   0.974 -0.4603 -1.0762  1.3980
 1805TIP3   OH226973   3.135   4.835   2.511 -0.0909  0.4728  0.5332
 1805TIP3    H126974   3.076   4.887   2.566  0.5254  1.2191  0.5053
 1805TIP3    H226975   3.208   4.894   2.492 -0.0120  0.0300 -0.6038
 1806TIP3   OH226976   1.168   5.869   2.198  0.1389  0.5365  0.5754
 1806TIP3    H126977   1.256   5.888   2.231  0.4492  0.5145 -0.1996
 1806TIP3    H226978   1.179   5.789   2.147 -0.5774 -0.1326  1.4454
 1807TIP3   OH226979   4.287   2.891   7.481  0.1581  0.0787 -0.0364
 1807TIP3    H126980   4.231   2.890   7.404  3.1103  0.2099 -2.3520
 1807TIP3    H226981   4.282   2.981   7.514 -0.2127  0.3404 -0.7958
 1808TIP3   OH226982   6.826   4.264   1.745  0.1371  0.1011  0.1242
 1808TIP3    H126983   6.837   4.250   1.651 -0.2579  1.6001 -0.1614
 1808TIP3    H226984   6.756   4.328   1.752 -0.9591 -1.1864  1.5181
 1809TIP3   OH226985   5.961   2.119   6.630  0.9986 -0.5310 -0.7961
 1809TIP3    H126986   6.032   2.058   6.647  0.8407 -0.8135 -1.1512
 1809TIP3    H226987   5.911   2.080   6.558 -0.4029 -1.0920  0.4310
 1810TIP3   OH226988   2.004   3.536   7.962 -0.0391  0.0254  0.0336
 1810TIP3    H126989   1.986   3.530   8.056 -0.1922  0.9356  0.0685
 1810TIP3    H226990   2.044   3.451   7.940  1.6050  0.4121  1.2760
 1811TIP3   OH226991   4.302   3.040   1.257 -0.6129  0.1897 -0.3593
 1811TIP3    H126992   4.278   2.948   1.248  0.1744  0.0292 -0.8725
 1811TIP3    H226993   4.343   3.063   1.174  1.4661  0.3093  0.6321
 1812TIP3   OH226994   6.032   2.262   0.447  0.3995 -0.2251 -0.5610
 1812TIP3    H126995   6.015   2.169   0.463  0.8777 -0.4310 -1.1920
 1812TIP3    H226996   6.064   2.265   0.357 -0.9801  0.7253 -1.0502
 1813TIP3   OH226997   1.728   3.287   1.124 -0.3881  0.0259 -0.3193
 1813TIP3    H126998   1.713   3.282   1.029  0.8159  1.6057 -0.6297
 1813TIP3    H226999   1.641   3.280   1.162 -1.1947  1.8170 -1.6759
 1814TIP3   OH227000   5.018   0.020   8.444 -0.4951  0.6721  0.0917
 1814TIP3    H127001   4.953   0.052   8.382 -0.1593  0.8415 -0.1746
 1814TIP3    H227002   5.031   0.093   8.505 -0.7363  0.5486  0.2948
 1815TIP3   OH227003   5.225   0.668   1.333 -0.2758  0.2528  0.1029
 1815TIP3    H127004   5.162   0.609   1.289 -0.7320  0.2288  0.7753
 1815TIP3    H227005   5.170   0.722   1.390  0.0236  1.9409 -1.1386
 1816TIP3   OH227006   3.417   6.075   7.422  0.1979 -0.1582 -0.1592
 1816TIP3    H127007   3.371   6.115   7.496 -0.1295  0.9816 -0.9475
 1816TIP3    H227008   3.510   6.085   7.443  0.1128 -1.0150  0.6859
 1817TIP3   OH227009   6.300   3.947   0.959 -0.2291  0.0261 -0.3272
 1817TIP3    H127010   6.227   3.890   0.933  1.3020 -3.2337  1.8624
 1817TIP3    H227011   6.378   3.904   0.925  0.9663  1.4282  0.4991
 1818TIP3   OH227012   0.817   2.989   1.480  0.3459  0.3699 -0.3775
 1818TIP3    H127013   0.843   3.076   1.449  0.2392  0.4516 -0.2386
 1818TIP3    H227014   0.831   2.932   1.405  1.8642  0.2313 -0.0153
 1819TIP3   OH227015   2.573   1.332   0.552 -0.1863  0.0290  0.0273
 1819TIP3    H127016   2.641   1.342   0.619 -0.2594 -0.9896  0.2733
 1819TIP3    H227017   2.524   1.255   0.579 -1.2982  0.6153 -0.2843
 1820TIP3   OH227018   0.632   4.730   0.690 -0.6570  0.4726  0.7030
 1820TIP3    H127019   0.622   4.665   0.759  0.2420  1.3493  1.6970
 1820TIP3    H227020   0.722   4.718   0.659 -0.4809  1.2415  0.9034
 1821TIP3   OH227021   5.002   3.532   7.769  0.2262 -0.3878 -0.1052
 1821TIP3    H127022   4.933   3.533   7.702 -2.3919  2.9657  2.2663
 1821TIP3    H227023   4.973   3.467   7.833  0.3838 -0.4609 -0.1073
 1822TIP3   OH227024   3.567   6.239   0.900 -0.3637  0.7721  1.0215
 1822TIP3    H127025   3.584   6.281   0.984  1.6984 -0.5483  1.3100
 1822TIP3    H227026   3.562   6.146   0.920 -2.2168  0.5957 -0.0081
 1823TIP3   OH227027   4.094   4.187   7.536 -0.4287  0.0473 -0.2329
 1823TIP3    H127028   4.163   4.211   7.598 -0.6381 -2.0681  0.8988
 1823TIP3    H227029   4.140   4.174   7.453  0.0814  1.4409 -0.1963
 1824TIP3   OH227030   3.690   5.542   2.051  0.1118 -0.4026  0.0216
 1824TIP3    H127031   3.695   5.448   2.069  1.0023 -0.8099 -2.0973
 1824TIP3    H227032   3.718   5.584   2.132  1.6281 -2.0135  0.3847
 1825TIP3   OH227033   5.461   0.079   7.488  0.0623  0.4175 -0.2035
 1825TIP3    H127034   5.502   0.127   7.560 -0.6154 -1.1538  1.2973
 1825TIP3    H227035   5.509  -0.004   7.485 -1.9598 -0.8432  0.5972
 1826TIP3   OH227036   4.910   4.199   0.777 -0.0362 -0.4091 -0.3407
 1826TIP3    H127037   4.842   4.242   0.828  0.0560 -0.8498  0.1603
 1826TIP3    H227038   4.989   4.207   0.831  0.7067  1.5142 -1.6136
 1827TIP3   OH227039   4.690   2.853   7.472  0.0488  0.0796  0.1438
 1827TIP3    H127040   4.693   2.785   7.405  0.6031 -1.4234  1.6486
 1827TIP3    H227041   4.638   2.815   7.543  0.0782  1.3598  0.8808
 1828TIP3   OH227042   4.748   0.179   7.673 -0.6043  0.4638  0.1038
 1828TIP3    H127043   4.832   0.198   7.715 -0.7208  1.6320 -0.1484
 1828TIP3    H227044   4.724   0.093   7.706  1.4838 -0.6777 -1.1025
 1829TIP3   OH227045   3.345   2.613   1.080 -0.5745 -0.4952  0.0859
 1829TIP3    H127046   3.372   2.645   1.166 -0.2948 -2.1158  0.6300
 1829TIP3    H227047   3.249   2.610   1.086 -0.7219  1.5422 -0.4890
 1830TIP3   OH227048   3.761   5.631   0.268 -0.2893  0.2309 -0.5649
 1830TIP3    H127049   3.796   5.703   0.216 -1.7773  1.8643  0.6007
 1830TIP3    H227050   3.683   5.603   0.220 -0.8573  0.7771  0.0351
 1831TIP3   OH227051   5.314   5.929   1.050 -0.0953  0.4978  1.0297
 1831TIP3    H127052   5.276   5.989   1.114  0.0568  0.2302  1.3752
 1831TIP3    H227053   5.381   5.980   1.006 -0.9341  1.0136  0.3277
 1832TIP3   OH227054   0.213   3.271   0.948 -0.0096  0.9266  0.2491
 1832TIP3    H127055   0.248   3.359   0.954 -0.2993  0.9812  1.4793
 1832TIP3    H227056   0.121   3.284   0.925  0.1835  0.8880 -0.5786
 1833TIP3   OH227057   4.297   6.552   1.948  0.2500  0.1859  0.1432
 1833TIP3    H127058   4.274   6.509   1.866  0.4601 -0.6306  0.4961
 1833TIP3    H227059   4.314   6.643   1.924  0.2812 -0.0343 -0.7053
 1834TIP3   OH227060   4.977   4.373   0.083 -0.0138 -0.0952 -0.0290
 1834TIP3    H127061   4.906   4.336   0.135 -1.5555  1.2608 -1.1156
 1834TIP3    H227062   4.938   4.445   0.034  1.6049 -0.6201 -2.2748
 1835TIP3   OH227063   6.667   2.919   0.657 -0.3819  0.4365  0.4039
 1835TIP3    H127064   6.683   2.841   0.604  0.8880 -0.0810  1.4823
 1835TIP3    H227065   6.745   2.973   0.645 -0.6902  0.9491  0.6747
 1836TIP3   OH227066   3.732   1.827   0.646 -0.7975 -0.0705 -0.1036
 1836TIP3    H127067   3.734   1.807   0.553 -0.7498  0.2100 -0.1637
 1836TIP3    H227068   3.772   1.750   0.688  0.8463  0.5563 -0.4546
 1837TIP3   OH227069   0.388   0.683   1.798 -0.3245  0.2799 -0.3019
 1837TIP3    H127070   0.320   0.656   1.859 -1.0525 -0.1988 -1.2813
 1837TIP3    H227071   0.430   0.601   1.770  0.9667  0.6010  0.6180
 1838TIP3   OH227072   4.116   2.653   7.283 -0.1801 -0.1238 -0.1290
 1838TIP3    H127073   4.083   2.737   7.316  1.0992  0.6417 -0.7055
 1838TIP3    H227074   4.188   2.677   7.224 -1.1263 -1.5340 -1.9677
 1839TIP3   OH227075   2.995   3.419   7.611  0.1324  0.3530  0.2364
 1839TIP3    H127076   3.039   3.502   7.628 -1.3642  1.1737  0.3420
 1839TIP3    H227077   3.016   3.364   7.687  2.8551 -0.1875 -0.7949
 1840TIP3   OH227078   1.125   4.419   0.683  1.5746  0.1801  0.0871
 1840TIP3    H127079   1.056   4.400   0.620  0.7631 -0.2619  1.0730
 1840TIP3    H227080   1.157   4.506   0.658  0.7357  0.3516 -0.4568
 1841TIP3   OH227081   6.370   1.981   0.742 -0.4170 -0.4793  0.4109
 1841TIP3    H127082   6.423   1.955   0.667  0.4679 -2.7645  1.7576
 1841TIP3    H227083   6.293   2.022   0.702  0.3824 -0.8853 -1.7157
 1842TIP3   OH227084   4.042   4.299   0.553 -0.0377  0.9493  0.6246
 1842TIP3    H127085   4.073   4.389   0.566 -0.4496  1.1813  0.0217
 1842TIP3    H227086   4.095   4.247   0.614  1.3731  1.3587 -0.2018
 1843TIP3   OH227087   3.170   0.813   1.746  0.1418 -0.5413 -0.2204
 1843TIP3    H127088   3.225   0.783   1.818 -1.2293  0.0294  1.1076
 1843TIP3    H227089   3.085   0.771   1.761  0.1934 -1.5898 -2.3545
 1844TIP3   OH227090   4.857   1.675   2.692  0.4640 -0.6227 -0.0455
 1844TIP3    H127091   4.777   1.702   2.738 -0.2218 -1.9858 -0.3906
 1844TIP3    H227092   4.919   1.747   2.708 -0.7239  0.3308  0.4642
 1845TIP3   OH227093   2.680   2.508   6.158 -0.4076  0.3951 -0.1692
 1845TIP3    H127094   2.757   2.453   6.171 -1.0843 -0.0685  2.6071
 1845TIP3    H227095   2.608   2.458   6.196 -1.9089  1.3174 -1.6493
 1846TIP3   OH227096   6.623   3.028   8.178 -0.1595 -0.2268 -0.4334
 1846TIP3    H127097   6.569   3.067   8.110  1.5159  1.2546 -0.9590
 1846TIP3    H227098   6.594   3.070   8.259 -1.5268 -1.3390 -0.2985
 1847TIP3   OH227099   1.941   3.104   8.409  0.1198 -0.5935 -0.2602
 1847TIP3    H127100   1.970   3.013   8.406 -0.6568 -0.8976  0.7114
 1847TIP3    H227101   1.936   3.131   8.318 -2.4590 -2.4747 -0.7750
 1848TIP3   OH227102   0.808   3.791   8.533 -0.5443  0.0709 -0.1514
 1848TIP3    H127103   0.826   3.734   8.608  0.8991  0.2415 -0.3539
 1848TIP3    H227104   0.815   3.733   8.457  2.3284  0.7174 -0.4784
 1849TIP3   OH227105   6.779   4.301   7.975 -0.3038 -0.4625 -0.6508
 1849TIP3    H127106   6.782   4.305   7.880  1.5670 -0.7315 -0.6367
 1849TIP3    H227107   6.780   4.392   8.003 -2.6535 -0.3140 -0.8669
 1850TIP3   OH227108   0.901   6.812   6.858  0.1079 -0.4302  0.0266
 1850TIP3    H127109   0.983   6.774   6.889 -0.1660 -0.7046  0.4347
 1850TIP3    H227110   0.926   6.896   6.820  0.7155 -1.0156 -0.8776
 1851TIP3   OH227111   5.096   1.134   8.237  0.8858  0.3884 -0.0945
 1851TIP3    H127112   5.110   1.228   8.250 -0.1791  0.4289  0.9534
 1851TIP3    H227113   5.009   1.128   8.198  0.1396 -0.2259  1.5676
 1852TIP3   OH227114   2.753   1.496   6.711  0.3326 -0.3468 -0.1212
 1852TIP3    H127115   2.744   1.540   6.795  0.5659  0.5777 -0.5644
 1852TIP3    H227116   2.668   1.510   6.668  0.9595  1.1632 -0.9416
 1853TIP3   OH227117   2.009   4.632   0.761 -0.2844 -0.0773  0.6346
 1853TIP3    H127118   1.995   4.662   0.672 -0.0037  0.1845  0.6749
 1853TIP3    H227119   2.095   4.589   0.759 -0.3411 -0.1969  0.7446
 1854TIP3   OH227120   5.601   6.055   8.214 -0.2663  0.0251 -0.2901
 1854TIP3    H127121   5.636   5.967   8.200  1.2634  0.4064  0.8560
 1854TIP3    H227122   5.564   6.052   8.302 -0.2756  0.5088 -0.2779
 1855TIP3   OH227123   5.413   1.058   0.010  0.5430  0.0725 -0.1250
 1855TIP3    H127124   5.501   1.095   0.017 -0.1503  1.9931 -0.7044
 1855TIP3    H227125   5.365   1.121  -0.044 -1.2970 -0.7146  0.5060
 1856TIP3   OH227126   3.328   5.766   6.808 -0.1213  0.4107 -0.3862
 1856TIP3    H127127   3.292   5.677   6.810 -0.6721  0.5344  3.2539
 1856TIP3    H227128   3.293   5.805   6.728 -0.4303 -2.3962 -1.7241
 1857TIP3   OH227129   6.281   3.700   1.183  0.4796  0.4250  0.1022
 1857TIP3    H127130   6.191   3.733   1.176  0.4313  0.4528  0.7498
 1857TIP3    H227131   6.309   3.687   1.093 -0.3449 -0.0449 -0.0943
 1858TIP3   OH227132   4.398   4.107   7.088  0.0001  0.3961 -0.3044
 1858TIP3    H127133   4.462   4.171   7.122  1.0589 -1.0798  0.5972
 1858TIP3    H227134   4.314   4.138   7.122  0.6295  0.7450  1.0243
 1859TIP3   OH227135   3.492   2.167   7.071  0.2537  0.3511  0.3700
 1859TIP3    H127136   3.410   2.126   7.042 -0.6545  1.7450  0.8522
 1859TIP3    H227137   3.526   2.210   6.993  1.2045 -1.2333 -0.1356
 1860TIP3   OH227138   6.516   4.760   6.718 -0.4499 -0.5995 -0.1629
 1860TIP3    H127139   6.503   4.764   6.813  0.2083 -0.8928 -0.0510
 1860TIP3    H227140   6.452   4.821   6.682 -0.9365 -0.7447  0.4497
 1861TIP3   OH227141   1.854   0.567   7.359  0.0744  0.6811  0.3404
 1861TIP3    H127142   1.903   0.494   7.397  0.7208  1.3377  0.8015
 1861TIP3    H227143   1.869   0.559   7.265 -0.8516 -0.4708  0.2746
 1862TIP3   OH227144   0.133   2.423   8.439 -0.2604 -0.1400  0.6336
 1862TIP3    H127145   0.156   2.441   8.348  0.6647  1.7098  1.1805
 1862TIP3    H227146   0.085   2.502   8.468 -2.4560 -1.5718  1.1674
 1863TIP3   OH227147   0.308   0.259   8.182  0.2666 -0.1123 -0.4650
 1863TIP3    H127148   0.343   0.303   8.105  1.2626 -0.9680 -0.5253
 1863TIP3    H227149   0.383   0.212   8.219 -0.9421 -2.6576 -1.0249
 1864TIP3   OH227150   3.939   2.979   0.653  0.1806  0.0615  0.2351
 1864TIP3    H127151   3.853   2.957   0.619 -0.8131  1.3848  1.7430
 1864TIP3    H227152   3.923   3.052   0.712  2.4873  1.0322 -0.2275
 1865TIP3   OH227153   6.003   5.593   1.453  0.6067  0.2629  0.2393
 1865TIP3    H127154   6.083   5.605   1.505  0.4323 -1.2783  0.9273
 1865TIP3    H227155   6.016   5.647   1.376  2.3608 -0.0080  0.3032
 1866TIP3   OH227156   5.918   3.790   1.863  0.1313  0.0447  0.4943
 1866TIP3    H127157   5.974   3.850   1.814 -0.7133  1.4106  1.1374
 1866TIP3    H227158   5.944   3.703   1.833  1.3605  0.7212 -0.5051
 1867TIP3   OH227159   2.822   6.642   8.570  0.0017 -0.0796 -0.6930
 1867TIP3    H127160   2.770   6.715   8.604 -1.7198 -1.6166  0.1533
 1867TIP3    H227161   2.901   6.641   8.624 -1.3097 -0.6069  1.3035
 1868TIP3   OH227162   6.301   3.657   6.552 -0.0485 -0.0080 -0.1888
 1868TIP3    H127163   6.229   3.707   6.514  1.0418  1.5799 -0.2459
 1868TIP3    H227164   6.263   3.571   6.570 -1.7948  0.6028 -0.7319
 1869TIP3   OH227165   3.750   0.334   7.270  0.3483 -0.5357  0.0495
 1869TIP3    H127166   3.768   0.284   7.350 -0.1961 -0.6633  0.0971
 1869TIP3    H227167   3.802   0.290   7.202 -0.1326 -1.1900  0.0898
 1870TIP3   OH227168   2.904   5.442   1.152  0.0031  0.7429 -0.0668
 1870TIP3    H127169   2.978   5.388   1.123 -0.5383 -0.2309  0.3080
 1870TIP3    H227170   2.927   5.531   1.125  2.2116  0.7954  1.7132
 1871TIP3   OH227171   1.627   1.395   1.232  0.3175  0.4016 -0.1134
 1871TIP3    H127172   1.598   1.393   1.323  1.0415  0.9111  0.1420
 1871TIP3    H227173   1.604   1.483   1.201  0.3391  0.3321 -0.3282
 1872TIP3   OH227174   6.035   4.844   7.486 -0.3634  0.2467 -0.1122
 1872TIP3    H127175   6.103   4.850   7.419 -1.2880  2.0624 -0.9566
 1872TIP3    H227176   5.979   4.772   7.457 -0.3186  0.5213 -0.9069
 1873TIP3   OH227177   1.705   5.622   0.740  0.9087  0.6780  0.6676
 1873TIP3    H127178   1.664   5.698   0.781  0.2428  0.5856  0.1830
 1873TIP3    H227179   1.785   5.608   0.791  1.4428  2.1671  0.3023
 1874TIP3   OH227180   3.772   1.073   7.957  0.1035 -0.2251  0.0500
 1874TIP3    H127181   3.803   1.158   7.989 -0.3428 -0.0130 -0.0879
 1874TIP3    H227182   3.720   1.038   8.029 -1.1997  0.4089 -0.5597
 1875TIP3   OH227183   3.292   2.263   7.815 -0.6383 -0.2923  0.5681
 1875TIP3    H127184   3.386   2.254   7.830 -0.3675 -2.8375 -1.7693
 1875TIP3    H227185   3.281   2.353   7.785  1.4391 -0.5043 -1.0553
 1876TIP3   OH227186   0.725   3.522   7.850  0.3338  0.1719  0.2143
 1876TIP3    H127187   0.674   3.587   7.897  1.8954  1.5449  0.0809
 1876TIP3    H227188   0.746   3.563   7.766 -1.1835 -1.6867 -1.1830
 1877TIP3   OH227189   0.329   5.337   0.110 -0.4028 -0.2891 -0.5533
 1877TIP3    H127190   0.253   5.303   0.064 -1.2857  0.7686  0.0775
 1877TIP3    H227191   0.365   5.404   0.052 -0.9982  0.4298 -0.1093
 1878TIP3   OH227192   2.908   2.236   0.938 -0.6021 -0.4802 -0.2964
 1878TIP3    H127193   2.873   2.206   0.854 -0.7957  1.6071 -1.0200
 1878TIP3    H227194   2.874   2.325   0.947  1.3542  0.2136  0.8450
 1879TIP3   OH227195   4.677   5.217   8.225  0.0422 -0.3320  0.0606
 1879TIP3    H127196   4.648   5.131   8.256  0.0418  1.0201  4.4591
 1879TIP3    H227197   4.773   5.210   8.221 -0.0202 -0.8268 -0.7530
 1880TIP3   OH227198   6.810   4.212   2.483  0.5801 -0.1532  0.2272
 1880TIP3    H127199   6.803   4.117   2.477  3.6394 -0.6029  1.6174
 1880TIP3    H227200   6.720   4.244   2.475 -0.6521 -3.2040  0.6134
 1881TIP3   OH227201   0.051   1.986   8.453 -0.4847 -0.0671 -0.2249
 1881TIP3    H127202   0.060   1.904   8.403 -0.3508  0.2209 -0.6799
 1881TIP3    H227203   0.124   2.040   8.424 -0.5290  0.1893  0.1316
 1882TIP3   OH227204   5.903   3.919   6.658  0.2060  0.4531 -0.0097
 1882TIP3    H127205   5.982   3.954   6.618  0.4668  0.2591  0.3254
 1882TIP3    H227206   5.924   3.916   6.752 -0.6870  1.7045  0.2599
 1883TIP3   OH227207   3.072   6.432   0.356  0.1657 -0.4825 -0.6233
 1883TIP3    H127208   3.102   6.519   0.381  0.8681 -0.9004  0.0297
 1883TIP3    H227209   3.056   6.387   0.439  1.7927 -1.6368 -0.8644
 1884TIP3   OH227210   4.876   5.997   0.944  0.2465  0.1378 -0.6653
 1884TIP3    H127211   4.945   5.984   0.879 -0.6371  0.6745 -1.7490
 1884TIP3    H227212   4.903   6.075   0.992  0.7219 -0.0378 -0.6463
 1885TIP3   OH227213   1.250   2.407   2.375  0.0454 -0.1901  0.5898
 1885TIP3    H127214   1.307   2.400   2.298 -1.4594 -1.3669 -0.4703
 1885TIP3    H227215   1.265   2.496   2.408 -0.1206  0.7698 -1.7496
 1886TIP3   OH227216   5.230   6.030   7.089  0.6523  0.2906 -0.1067
 1886TIP3    H127217   5.312   6.043   7.041  0.1511  1.6028 -0.6450
 1886TIP3    H227218   5.210   6.116   7.126 -0.4008 -0.0555  0.1605
 1887TIP3   OH227219   5.866   0.161   0.556  0.1754 -0.3453  0.3722
 1887TIP3    H127220   5.882   0.079   0.510  3.1412 -0.6297  1.6625
 1887TIP3    H227221   5.810   0.212   0.497  2.9630 -1.0024 -3.1580
 1888TIP3   OH227222   1.301   5.893   1.562 -0.1231  0.0300  0.1992
 1888TIP3    H127223   1.255   5.972   1.536 -0.5985 -0.3730 -0.2220
 1888TIP3    H227224   1.251   5.822   1.521 -0.5144 -0.5925  1.7195
 1889TIP3   OH227225   4.723   1.113   1.561 -0.3572 -0.2697 -0.1392
 1889TIP3    H127226   4.653   1.076   1.507  0.0469 -1.8316  0.3475
 1889TIP3    H227227   4.680   1.181   1.613 -1.9825 -2.3060  1.3855
 1890TIP3   OH227228   3.288   5.672   8.011 -0.0423  0.0978 -0.0976
 1890TIP3    H127229   3.330   5.586   8.020  0.3922  0.4014  0.9466
 1890TIP3    H227230   3.197   5.652   7.991 -0.3031 -0.6764  1.6184
 1891TIP3   OH227231   6.199   4.610   1.447  0.7789  0.0310  0.0433
 1891TIP3    H127232   6.104   4.605   1.454  0.5372  1.5476 -1.4897
 1891TIP3    H227233   6.221   4.698   1.480  1.4232  0.3973 -1.3094
 1892TIP3   OH227234   2.184   6.370   1.815  0.5825 -0.5461  0.0130
 1892TIP3    H127235   2.101   6.385   1.861  0.9298 -0.6987  0.6976
 1892TIP3    H227236   2.249   6.419   1.866  0.9897 -0.7898 -0.2659
 1893TIP3   OH227237   5.869   5.439   0.298 -0.1724  0.0656  0.3192
 1893TIP3    H127238   5.928   5.508   0.266 -0.5170 -0.2540 -1.0781
 1893TIP3    H227239   5.786   5.457   0.253  0.1614 -2.1559 -1.3239
 1894TIP3   OH227240   1.587   1.075   0.809  0.0185  0.8051 -0.4572
 1894TIP3    H127241   1.547   1.113   0.887 -1.4634  0.1263 -0.8551
 1894TIP3    H227242   1.631   0.996   0.841  0.5310  1.2191 -0.1186
 1895TIP3   OH227243   5.928   0.428   0.136  0.2146 -0.0770 -0.2419
 1895TIP3    H127244   5.963   0.357   0.190  1.8466 -0.4731 -1.7439
 1895TIP3    H227245   5.839   0.441   0.169  0.4115 -1.7625  1.0948
 1896TIP3   OH227246   0.444   4.889   1.024 -0.2716  0.1412 -0.0552
 1896TIP3    H127247   0.377   4.833   1.063  0.5334  0.3385  1.7395
 1896TIP3    H227248   0.401   4.930   0.949 -1.6472 -0.9421  0.1053
 1897TIP3   OH227249   3.515   0.571   0.922 -0.8588 -0.6430 -0.1609
 1897TIP3    H127250   3.539   0.487   0.960  0.2713  0.9114  2.9065
 1897TIP3    H227251   3.432   0.594   0.965 -0.6253  0.2545 -0.1708
 1898TIP3   OH227252   0.997   6.676   7.590  0.0861  0.1579  0.0902
 1898TIP3    H127253   1.060   6.609   7.564  2.7382  2.2433  0.7147
 1898TIP3    H227254   0.947   6.694   7.510  0.2401 -1.5664 -0.4319
 1899TIP3   OH227255   5.199   1.172   2.082  0.0011 -0.1523 -0.5171
 1899TIP3    H127256   5.215   1.156   1.989 -0.0642  2.5239 -1.0590
 1899TIP3    H227257   5.110   1.206   2.085 -0.1996 -0.7331  0.6240
 1900TIP3   OH227258   4.521   1.518   0.627  0.3286  0.2926  0.1394
 1900TIP3    H127259   4.604   1.498   0.584 -1.2866 -2.4314 -2.0086
 1900TIP3    H227260   4.535   1.494   0.718  1.3328 -2.2114 -0.5921
 1901TIP3   OH227261   2.221   2.823   7.132  0.1091  1.0198 -0.5708
 1901TIP3    H127262   2.236   2.729   7.116 -1.5077  0.7571 -0.7824
 1901TIP3    H227263   2.151   2.846   7.071  0.1550  2.2499 -0.1799
 1902TIP3   OH227264   5.451   6.254   1.982 -0.1144 -0.2385  0.9370
 1902TIP3    H127265   5.501   6.324   1.940  3.8264 -1.9858  2.2544
 1902TIP3    H227266   5.458   6.273   2.076 -4.2263  0.7020  1.2484
 1903TIP3   OH227267   3.614   1.699   1.263 -0.0569  0.0842 -1.0054
 1903TIP3    H127268   3.668   1.636   1.311 -0.6166  0.3917  0.0623
 1903TIP3    H227269   3.525   1.664   1.269 -0.7856  2.0762  1.6326
 1904TIP3   OH227270   4.175   2.046   0.037  0.1797 -0.1692  0.4110
 1904TIP3    H127271   4.108   1.978   0.044  0.9457 -0.8784  1.1405
 1904TIP3    H227272   4.142   2.106  -0.030  0.3243 -2.2241 -1.6316
 1905TIP3   OH227273   1.138   0.859   1.175  1.0432 -0.3095 -0.0058
 1905TIP3    H127274   1.229   0.865   1.203  1.1738  0.4405 -0.5634
 1905TIP3    H227275   1.128   0.930   1.111  0.0528 -0.3394  0.1056
 1906TIP3   OH227276   2.783   6.593   6.790  0.0860  0.5884  0.6159
 1906TIP3    H127277   2.873   6.611   6.816  0.8857 -0.5237 -1.2315
 1906TIP3    H227278   2.787   6.582   6.695 -2.2807  2.1086  0.2589
 1907TIP3   OH227279   0.061   0.452   0.079  0.2102  0.0591 -0.6453
 1907TIP3    H127280   0.027   0.425   0.165  2.1753  0.2937  0.2490
 1907TIP3    H227281  -0.015   0.447   0.021 -1.1087 -0.3781  1.0392
 1908TIP3   OH227282   0.779   3.411   0.174 -0.3630 -0.0783 -0.4828
 1908TIP3    H127283   0.805   3.323   0.201 -1.1776 -0.6346 -1.4552
 1908TIP3    H227284   0.728   3.445   0.247 -2.5670 -1.5753 -1.2189
 1909TIP3   OH227285   1.854   0.865   1.604  0.4939  0.0634 -0.2500
 1909TIP3    H127286   1.761   0.887   1.609  0.4649 -0.1012 -0.0085
 1909TIP3    H227287   1.900   0.948   1.618  0.3819  0.1864 -0.6123
 1910TIP3   OH227288   3.966   1.237   0.871  0.1021  0.0276 -0.9084
 1910TIP3    H127289   3.883   1.254   0.824  0.0358  0.2103 -0.7245
 1910TIP3    H227290   3.974   1.141   0.869 -0.8473 -0.1023  0.3243
 1911TIP3   OH227291   4.643   2.382   0.651 -0.5147  0.6490  0.1198
 1911TIP3    H127292   4.586   2.373   0.576  0.6193 -0.8021 -0.6154
 1911TIP3    H227293   4.601   2.330   0.720  0.6158 -1.8234 -0.9050
 1912TIP3   OH227294   6.149   0.904   1.016 -0.7134  0.2717  0.6339
 1912TIP3    H127295   6.117   0.986   1.054 -0.1332  0.0231  1.6897
 1912TIP3    H227296   6.241   0.921   0.996 -1.2584  0.7847 -1.8332
 1913TIP3   OH227297   6.560   5.935   1.560 -0.1932  0.1918 -0.0968
 1913TIP3    H127298   6.520   5.875   1.623  2.0857  0.6120  1.8784
 1913TIP3    H227299   6.582   6.013   1.611 -0.4623  1.5654 -1.9711
 1914TIP3   OH227300   5.427   6.334   7.296  0.3716  0.1614 -0.6134
 1914TIP3    H127301   5.427   6.238   7.293  1.4436  0.1580 -1.4571
 1914TIP3    H227302   5.425   6.360   7.203  1.9422  0.8991 -0.4861
 1915TIP3   OH227303   1.384   5.863   7.606  0.1797 -0.1742 -0.0920
 1915TIP3    H127304   1.433   5.808   7.546  2.1991 -1.5652  2.6031
 1915TIP3    H227305   1.449   5.922   7.644 -0.6508 -0.4267  1.8627
 1916TIP3   OH227306   4.614   2.730   8.528 -0.4046 -0.9250 -0.4875
 1916TIP3    H127307   4.683   2.762   8.471 -0.3911  1.9633  1.0041
 1916TIP3    H227308   4.609   2.636   8.509  5.2791 -1.8181  0.6972
 1917TIP3   OH227309   1.879   3.326   2.439 -0.1541  0.0644  0.0936
 1917TIP3    H127310   1.862   3.417   2.465  1.2188 -0.4010  3.0464
 1917TIP3    H227311   1.958   3.302   2.488 -0.1873 -2.5761 -1.0207
 1918TIP3   OH227312   6.330   2.231   2.333 -0.2031 -0.4996 -0.0297
 1918TIP3    H127313   6.358   2.249   2.243  0.0479 -0.7360 -0.0006
 1918TIP3    H227314   6.238   2.206   2.325 -0.0071 -1.1703 -0.3015
 1919TIP3   OH227315   2.427   3.617   0.070  0.0115 -1.0623  0.1591
 1919TIP3    H127316   2.513   3.634   0.032 -0.1363 -0.9009 -0.1077
 1919TIP3    H227317   2.445   3.570   0.152  0.2904 -2.5242 -0.6966
 1920TIP3   OH227318   0.716   1.609   0.284  0.3733 -0.1770  0.1577
 1920TIP3    H127319   0.673   1.524   0.297 -0.3936 -0.0577 -1.3540
 1920TIP3    H227320   0.679   1.665   0.353 -2.2864  0.0235 -1.2728
 1921TIP3   OH227321   0.147   0.284   7.689 -0.6364  0.3270 -0.3118
 1921TIP3    H127322   0.170   0.279   7.597 -1.1122 -1.2375 -0.3727
 1921TIP3    H227323   0.174   0.372   7.716 -0.2412  0.7054 -1.8571
 1922TIP3   OH227324   3.860   5.934   7.834 -0.0950 -0.7937  0.4479
 1922TIP3    H127325   3.924   6.003   7.851  0.3677 -0.5246 -1.9683
 1922TIP3    H227326   3.853   5.886   7.916  1.0399  0.9210  1.6097
 1923TIP3   OH227327   5.033   2.124   6.939 -0.1009 -0.5577  0.0673
 1923TIP3    H127328   5.020   2.030   6.949 -0.3250 -0.5848 -0.4489
 1923TIP3    H227329   4.979   2.148   6.864 -2.1237  0.4410  1.7412
 1924TIP3   OH227330   1.509   6.811   0.796 -0.1798  0.2064 -0.2036
 1924TIP3    H127331   1.603   6.795   0.795  0.1051  1.6031  1.1392
 1924TIP3    H227332   1.472   6.732   0.837  0.4211 -0.2245 -0.4745
 1925TIP3   OH227333   1.584   1.424   0.016 -0.1963  0.6730 -0.2626
 1925TIP3    H127334   1.672   1.428   0.053  0.1109 -1.0566 -0.7436
 1925TIP3    H227335   1.530   1.470   0.080  0.8655  0.7578  0.6087
 1926TIP3   OH227336   1.132   0.623   0.327 -0.5703  0.1985 -0.4913
 1926TIP3    H127337   1.058   0.598   0.382 -0.2220 -0.4269 -0.3023
 1926TIP3    H227338   1.182   0.684   0.382  0.6407 -1.6340  0.5353
 1927TIP3   OH227339   5.197   6.155   0.577  0.9012  0.2582  0.7718
 1927TIP3    H127340   5.289   6.139   0.554  0.9905  2.9750 -1.0920
 1927TIP3    H227341   5.161   6.202   0.503 -2.1796 -1.0309  1.2994
 1928TIP3   OH227342   6.421   2.392   8.622 -0.1706  0.3457 -0.3005
 1928TIP3    H127343   6.435   2.450   8.697 -1.6077 -0.3488  0.5584
 1928TIP3    H227344   6.497   2.335   8.621  0.1550  0.7600  0.2600
 1929TIP3   OH227345   4.615   2.350   1.543 -0.5436 -0.3084 -0.5072
 1929TIP3    H127346   4.612   2.275   1.483  0.4405 -0.1671 -0.7413
 1929TIP3    H227347   4.523   2.374   1.555 -0.8597 -1.3926 -0.6254
 1930TIP3   OH227348   5.979   5.857   7.219 -0.1545  0.2362 -0.5002
 1930TIP3    H127349   5.884   5.856   7.208 -0.5082  0.3657  1.8914
 1930TIP3    H227350   6.003   5.766   7.233  0.0109  0.2421 -0.7485
 1931TIP3   OH227351   0.898   5.761   7.528  0.0433 -0.0690 -0.5623
 1931TIP3    H127352   0.821   5.709   7.550 -2.0466  2.4990 -1.3095
 1931TIP3    H227353   0.972   5.706   7.554 -1.9835 -2.7366  0.0402
 1932TIP3   OH227354   2.565   5.061   7.477  0.0305 -0.4713  0.1111
 1932TIP3    H127355   2.530   5.132   7.532  0.0383  0.4268 -1.0179
 1932TIP3    H227356   2.542   5.086   7.388  2.0389 -0.7301 -0.5208
 1933TIP3   OH227357   6.059   5.827   2.669  0.0887  0.2529 -0.9394
 1933TIP3    H127358   6.024   5.741   2.647 -0.5288  0.8003 -2.1992
 1933TIP3    H227359   6.106   5.814   2.751  2.8421 -2.0709 -2.6839
 1934TIP3   OH227360   3.720   1.268   8.447  0.6126 -0.1629  0.3884
 1934TIP3    H127361   3.764   1.312   8.520 -0.2258 -1.8670  1.9988
 1934TIP3    H227362   3.643   1.322   8.430 -0.2895 -0.7622  2.2031
 1935TIP3   OH227363   5.734   4.253   8.305 -0.1272  0.2540  0.3694
 1935TIP3    H127364   5.715   4.247   8.211 -0.4016 -0.8739  0.4882
 1935TIP3    H227365   5.795   4.327   8.312  0.4919 -0.1197 -0.7969
 1936TIP3   OH227366   3.652   2.495   0.366 -0.3487 -1.0096  0.1128
 1936TIP3    H127367   3.745   2.503   0.384 -0.5760 -0.0642  0.9563
 1936TIP3    H227368   3.645   2.505   0.271  0.0564  3.2679  0.3361
 1937TIP3   OH227369   5.444   6.730   8.455 -0.1630  0.0172  0.2324
 1937TIP3    H127370   5.453   6.816   8.414 -0.8426  0.4264  0.9217
 1937TIP3    H227371   5.508   6.675   8.409 -0.6469  0.5459 -1.1297
 1938TIP3   OH227372   4.482   2.077   2.758  0.0326  0.0741  0.4922
 1938TIP3    H127373   4.492   2.150   2.820 -0.1532 -0.9906  1.8109
 1938TIP3    H227374   4.531   2.105   2.681  0.5318  1.3100  1.2247
 1939TIP3   OH227375   5.460   3.260   0.475 -0.0075 -0.0268 -0.2822
 1939TIP3    H127376   5.404   3.319   0.525  0.9112  1.1906 -0.6436
 1939TIP3    H227377   5.448   3.287   0.383 -1.7188 -2.2631 -0.8099
 1940TIP3   OH227378   5.789   1.608   0.487  0.6861  0.2041  0.1120
 1940TIP3    H127379   5.758   1.553   0.415  1.4716 -0.2428  0.0982
 1940TIP3    H227380   5.724   1.596   0.556  0.2615  0.1327 -0.2957
 1941TIP3   OH227381   4.910   0.507   0.369 -0.2061  0.1047  0.0130
 1941TIP3    H127382   4.888   0.563   0.444  2.5056  2.4598 -0.7649
 1941TIP3    H227383   4.836   0.516   0.310 -1.0133  0.7042  1.0734
 1942TIP3   OH227384   1.698   3.358   8.122 -0.2746 -0.3931 -0.1728
 1942TIP3    H127385   1.735   3.270   8.125 -0.3964 -0.5014 -1.2321
 1942TIP3    H227386   1.628   3.352   8.057 -1.6181  0.0179  1.2003
 1943TIP3   OH227387   6.722   4.538   0.000  0.1940  1.1197  0.3163
 1943TIP3    H127388   6.790   4.591  -0.041  1.1816 -1.0594 -1.0361
 1943TIP3    H227389   6.642   4.562  -0.047  0.8128  0.7031 -0.9920
 1944TIP3   OH227390   6.408   2.631   8.438 -0.2123  0.3001 -0.2496
 1944TIP3    H127391   6.450   2.716   8.452  0.2946  0.3756 -2.0038
 1944TIP3    H227392   6.462   2.570   8.487 -1.4381  1.1194  2.2977
 1945TIP3   OH227393   1.024   3.489   2.618 -0.0483  0.4584 -0.1221
 1945TIP3    H127394   1.116   3.467   2.631 -0.1787  0.7146  1.4016
 1945TIP3    H227395   0.977   3.406   2.629 -0.1288  0.6182  0.8651
 1946TIP3   OH227396   6.719   5.367   7.787  0.2146  0.6451  0.7599
 1946TIP3    H127397   6.801   5.416   7.788 -0.1171  1.2055  1.0281
 1946TIP3    H227398   6.657   5.423   7.834 -0.2325  0.0715  0.8683
 1947TIP3   OH227399   2.243   0.937   7.829 -0.3898 -0.5489 -0.5601
 1947TIP3    H127400   2.275   0.924   7.740  3.7366  0.5159  0.5979
 1947TIP3    H227401   2.252   1.030   7.845 -0.8056 -0.7618  1.1059
 1948TIP3   OH227402   3.739   5.056   8.561 -0.1103 -0.3675  0.8794
 1948TIP3    H127403   3.818   5.104   8.537  0.3945 -0.4082  2.3036
 1948TIP3    H227404   3.667   5.117   8.548  0.0128 -0.6260 -1.3237
 1949TIP3   OH227405   5.511   2.274   8.002  0.1184 -0.5147  0.3653
 1949TIP3    H127406   5.444   2.223   7.956  0.3132 -0.6271  0.2083
 1949TIP3    H227407   5.577   2.292   7.936  0.9397 -1.6127  0.8594
 1950TIP3   OH227408   4.722   0.287   1.562 -0.3068 -0.3011  0.2946
 1950TIP3    H127409   4.708   0.332   1.478 -2.0160  3.5389  2.3565
 1950TIP3    H227410   4.816   0.294   1.578 -0.1371  0.0008 -0.7463
 1951TIP3   OH227411   2.769   0.272   1.275 -1.0703  0.3207 -0.0201
 1951TIP3    H127412   2.830   0.208   1.312 -1.9100 -0.2707  0.3694
 1951TIP3    H227413   2.776   0.259   1.180 -0.8228  0.0492  0.0344
 1952TIP3   OH227414   4.904   2.745   8.546  0.9529 -0.1571 -0.2186
 1952TIP3    H127415   4.897   2.702   8.631 -0.3419  1.9150  0.8033
 1952TIP3    H227416   4.964   2.818   8.561 -0.7067  1.3386 -0.5373
 1953TIP3   OH227417   6.107   2.328   8.075  0.2476 -0.3855 -0.4033
 1953TIP3    H127418   6.199   2.331   8.100 -0.1408 -2.2940  1.5663
 1953TIP3    H227419   6.104   2.266   8.002  0.5084 -0.3357 -0.4591
 1954TIP3   OH227420   6.365   1.308   0.819  0.1893  0.1160  0.5591
 1954TIP3    H127421   6.332   1.344   0.901 -1.8057  1.4735 -0.7352
 1954TIP3    H227422   6.390   1.385   0.768  0.3660 -0.6207 -0.5018
 1955TIP3   OH227423   6.722   2.490   0.704 -0.6787  0.3399  0.0228
 1955TIP3    H127424   6.724   2.534   0.789  0.4538  0.2783  0.0386
 1955TIP3    H227425   6.671   2.410   0.719 -1.3536  0.8294  0.3868
 1956TIP3   OH227426   3.663   2.716   8.613 -0.3072 -0.1508 -0.4123
 1956TIP3    H127427   3.591   2.763   8.656  0.8291 -0.1528  1.6538
 1956TIP3    H227428   3.728   2.784   8.594 -0.3037 -0.3322 -1.0645
 1957TIP3   OH227429   1.157   2.177   2.762 -0.3511 -0.4531  0.3719
 1957TIP3    H127430   1.082   2.119   2.752 -0.4633 -0.2403 -0.0193
 1957TIP3    H227431   1.142   2.222   2.845 -1.1567  0.3176 -0.1739
 1958TIP3   OH227432   2.142   3.043   0.788 -0.0591  0.0291  0.0101
 1958TIP3    H127433   2.233   3.049   0.762 -0.3382 -0.4848 -1.1332
 1958TIP3    H227434   2.117   3.133   0.809  0.8409  0.1000  0.8352
 1959TIP3   OH227435   0.654   4.796   7.555 -0.0965 -0.1719  0.1403
 1959TIP3    H127436   0.597   4.865   7.588  0.2181 -0.2427  0.8482
 1959TIP3    H227437   0.720   4.843   7.503 -0.7656 -0.0894 -0.6644
 1960TIP3   OH227438   5.731   4.360   1.095 -0.2548  0.6504 -0.5273
 1960TIP3    H127439   5.801   4.353   1.030 -0.1126  3.1225 -0.7565
 1960TIP3    H227440   5.660   4.308   1.059  0.2974  0.8691 -2.0195
 1961TIP3   OH227441   4.564   6.267   0.524  0.1088  0.0085  0.0548
 1961TIP3    H127442   4.560   6.204   0.596 -0.0530  0.3041  0.3107
 1961TIP3    H227443   4.531   6.349   0.562  0.5177  0.3045 -0.2099
 1962TIP3   OH227444   3.952   3.165   8.667 -0.3041  0.0945  0.4361
 1962TIP3    H127445   3.970   3.143   8.758 -2.5205  0.8326  1.1272
 1962TIP3    H227446   3.978   3.088   8.618  2.3493  0.2487  1.4748
 1963TIP3   OH227447   6.479   1.761   7.714  0.2231  0.2327 -0.4110
 1963TIP3    H127448   6.429   1.682   7.697  1.7913 -1.1767  1.1217
 1963TIP3    H227449   6.421   1.815   7.769 -0.2053 -0.6613  0.0371
 1964TIP3   OH227450   4.489   5.616   0.549 -0.6149  0.3118 -0.1122
 1964TIP3    H127451   4.493   5.709   0.530 -0.0081  0.0380 -1.4691
 1964TIP3    H227452   4.403   5.588   0.518 -0.4877  0.2860 -0.4524
 1965TIP3   OH227453   3.898   6.073   7.416 -0.3197 -0.0649  0.1841
 1965TIP3    H127454   3.958   6.039   7.482  2.6555 -0.6669 -2.5860
 1965TIP3    H227455   3.924   6.165   7.406  0.5301 -0.4331 -1.3112
 1966TIP3   OH227456   1.853   5.105   7.831  0.0510  0.8389  0.1408
 1966TIP3    H127457   1.894   5.175   7.882  1.8476 -0.8426  1.1475
 1966TIP3    H227458   1.908   5.028   7.848 -1.7978 -0.8123 -0.9612
 1967TIP3   OH227459   1.939   1.762   1.616  0.6457 -0.0598 -0.1589
 1967TIP3    H127460   1.947   1.740   1.523  0.6134  1.1953 -0.4713
 1967TIP3    H227461   1.913   1.679   1.658 -0.7505 -0.3260 -1.4625
 1968TIP3   OH227462   3.211   4.137   1.727 -0.5073 -1.1473 -0.6282
 1968TIP3    H127463   3.249   4.091   1.803  0.2366 -2.0910 -1.5319
 1968TIP3    H227464   3.257   4.100   1.652  1.2035  2.0789 -1.3667
 1969TIP3   OH227465   0.758   6.569   0.563 -0.9395  0.2397  0.2231
 1969TIP3    H127466   0.678   6.556   0.615 -0.2632 -1.1873  0.9745
 1969TIP3    H227467   0.726   6.582   0.474 -2.0277 -3.1112 -0.0337
 1970TIP3   OH227468   4.323   5.378   8.553 -0.4674  0.2375 -0.6870
 1970TIP3    H127469   4.366   5.382   8.638 -1.3728 -1.4189 -0.1019
 1970TIP3    H227470   4.232   5.404   8.570 -0.2276  1.7517 -1.5306
 1971TIP3   OH227471   1.806   1.223   1.009 -0.0452 -0.1286  0.2329
 1971TIP3    H127472   1.889   1.243   1.051  1.4839 -2.5135 -1.4106
 1971TIP3    H227473   1.777   1.142   1.051 -0.1321 -0.7616 -0.9805
 1972TIP3   OH227474   5.279   2.768   0.468  0.2319 -0.4665  0.3112
 1972TIP3    H127475   5.279   2.827   0.543  0.2487 -0.8945  0.6490
 1972TIP3    H227476   5.317   2.820   0.397 -1.2811  0.4793  0.1600
 1973TIP3   OH227477   5.104   0.259   8.235 -0.0323  0.1577  0.5112
 1973TIP3    H127478   5.040   0.295   8.295 -0.2114 -0.6568  0.8189
 1973TIP3    H227479   5.057   0.190   8.188 -0.3460  1.7145 -1.6391
 1974TIP3   OH227480   5.641   0.456   6.771 -0.2482 -0.4288  0.4227
 1974TIP3    H127481   5.712   0.443   6.708 -0.6992 -1.3847  0.0809
 1974TIP3    H227482   5.597   0.536   6.741 -0.7160 -1.0944 -0.7797
 1975TIP3   OH227483   4.237   4.210   0.776 -0.2827 -0.0518  0.6897
 1975TIP3    H127484   4.200   4.297   0.792 -0.5120  0.1496 -0.7525
 1975TIP3    H227485   4.219   4.161   0.856 -0.4979  1.1127  1.3742
 1976TIP3   OH227486   4.237   0.414   8.636  0.1681  0.2951 -0.3576
 1976TIP3    H127487   4.271   0.496   8.672  0.7548  0.4321 -1.1985
 1976TIP3    H227488   4.157   0.398   8.686  0.5819  0.8408  0.5166
 1977TIP3   OH227489   0.596   4.468   8.085 -0.3087  0.0757  0.3729
 1977TIP3    H127490   0.555   4.485   8.170 -0.9302  0.7435 -0.0437
 1977TIP3    H227491   0.526   4.485   8.022  0.8056  2.0137 -0.4176
 1978TIP3   OH227492   1.948   0.360   0.287 -0.1274  0.2110  0.1635
 1978TIP3    H127493   1.906   0.377   0.372 -0.4665 -0.5171  0.1523
 1978TIP3    H227494   2.027   0.414   0.288 -1.2627  1.9638  0.0188
 1979TIP3   OH227495   3.736   6.149   0.565  0.1075  0.4732  0.2662
 1979TIP3    H127496   3.785   6.153   0.648 -1.0565 -1.1852  1.0880
 1979TIP3    H227497   3.747   6.059   0.535  0.2556  0.9740 -1.2489
 1980TIP3   OH227498   5.715   2.356   8.517  0.7816 -0.6810 -0.6196
 1980TIP3    H127499   5.701   2.450   8.507  0.0128 -0.4815  1.8616
 1980TIP3    H227500   5.805   2.349   8.548  1.1503 -0.8650 -1.6839
 1981TIP3   OH227501   1.994   4.734   8.280  0.0284 -0.3554 -0.7543
 1981TIP3    H127502   1.954   4.794   8.343 -1.3913 -2.8823  0.9147
 1981TIP3    H227503   2.070   4.698   8.326 -0.2800 -1.2927 -0.9573
 1982TIP3   OH227504   5.459   5.937   8.431  0.7163  0.8740 -0.3275
 1982TIP3    H127505   5.417   5.947   8.516 -1.7794  0.0384 -1.3583
 1982TIP3    H227506   5.526   5.870   8.445  0.6178  1.0527  1.0703
 1983TIP3   OH227507   1.092   5.498   1.132 -0.4139 -0.0786  0.2000
 1983TIP3    H127508   0.998   5.518   1.137 -0.2526  0.6891  0.3131
 1983TIP3    H227509   1.099   5.408   1.164 -1.1592 -0.2858 -0.1915
 1984TIP3   OH227510   6.817   6.525   6.535  0.4219 -0.4957 -0.2061
 1984TIP3    H127511   6.912   6.513   6.532  0.4058 -1.0743  1.0254
 1984TIP3    H227512   6.798   6.582   6.460  1.2700 -3.3026 -2.7706
 1985TIP3   OH227513   4.107   4.425   0.869 -0.1252  0.3252 -0.0068
 1985TIP3    H127514   4.015   4.436   0.895 -0.5486 -1.5391 -0.6119
 1985TIP3    H227515   4.156   4.442   0.949 -0.8516  2.8527 -0.0141
 1986TIP3   OH227516   0.904   3.796   0.350  0.2029 -0.2468 -0.3970
 1986TIP3    H127517   0.977   3.844   0.309  0.3788 -1.0265 -1.0089
 1986TIP3    H227518   0.936   3.773   0.437  0.9154 -1.1035 -0.8799
 1987TIP3   OH227519   6.838   0.646   8.447  0.3948  0.3304  0.1658
 1987TIP3    H127520   6.769   0.690   8.496  0.3620 -0.7774  1.1730
 1987TIP3    H227521   6.906   0.712   8.436 -0.3500  1.1099  0.1509
 1988TIP3   OH227522   0.610   1.670   8.167 -0.1234  0.6080  0.0167
 1988TIP3    H127523   0.623   1.577   8.151  1.6269 -0.0263  3.9627
 1988TIP3    H227524   0.515   1.681   8.171 -0.3898 -0.6773 -1.7007
 1989TIP3   OH227525   4.908   2.211   8.641 -0.7090 -0.3060  0.2501
 1989TIP3    H127526   4.934   2.299   8.612  1.1720 -0.1540  2.1271
 1989TIP3    H227527   4.819   2.200   8.608 -0.2990  1.5311 -1.6597
 1990TIP3   OH227528   5.141   6.270   7.696 -0.0191  0.1255 -0.0086
 1990TIP3    H127529   5.124   6.364   7.686  0.6768  0.3272  0.5168
 1990TIP3    H227530   5.075   6.240   7.759 -0.8688  0.0411 -0.9228
 1991TIP3   OH227531   2.222   0.318   8.509 -0.0417  0.3985  0.1696
 1991TIP3    H127532   2.127   0.311   8.500 -0.0031  0.6348 -0.4579
 1991TIP3    H227533   2.254   0.231   8.486 -0.1699 -0.0267  1.5034
 1992TIP3   OH227534   0.014   0.293   1.978 -0.5679 -0.0710 -0.5853
 1992TIP3    H127535  -0.045   0.356   1.937 -1.3780 -1.1298 -1.0967
 1992TIP3    H227536  -0.038   0.250   2.046  0.5995  1.2583  1.2378
 1993TIP3   OH227537   2.141   6.806   1.856  0.1325 -0.0794  0.4553
 1993TIP3    H127538   2.186   6.750   1.793  0.9767  1.1673 -0.1039
 1993TIP3    H227539   2.048   6.788   1.842  0.3324 -0.2967 -0.7028
 1994TIP3   OH227540   6.164   0.769   6.515 -0.3344  0.7538  0.5173
 1994TIP3    H127541   6.225   0.837   6.545  1.2404  0.1795 -1.1890
 1994TIP3    H227542   6.162   0.779   6.419 -1.9965 -0.0501  0.4207
 1995TIP3   OH227543   2.636   3.341   7.733  0.5378  0.3594  0.0296
 1995TIP3    H127544   2.623   3.414   7.672  0.4665  0.5996  0.3326
 1995TIP3    H227545   2.615   3.263   7.681 -1.9276  0.6925  0.4100
 1996TIP3   OH227546   2.744   5.872   6.945  0.7844 -0.4638  0.4877
 1996TIP3    H127547   2.808   5.943   6.939  1.4158 -0.9349  1.3896
 1996TIP3    H227548   2.689   5.883   6.867  1.8288  0.0798 -0.2045
 1997TIP3   OH227549   0.602   0.168   6.259  0.7112  0.0487  0.5863
 1997TIP3    H127550   0.524   0.154   6.312  1.1662  0.9736  1.5441
 1997TIP3    H227551   0.569   0.179   6.170 -0.4414  2.2059  1.2232
 1998TIP3   OH227552   5.305   2.775   7.484  0.2109 -0.1287 -0.0851
 1998TIP3    H127553   5.281   2.793   7.393 -1.4836 -0.4773  0.2583
 1998TIP3    H227554   5.333   2.683   7.484 -0.5237 -0.3617 -0.1420
 1999TIP3   OH227555   3.369   3.170   8.132  0.2833  0.4537 -0.5745
 1999TIP3    H127556   3.343   3.158   8.224  0.5884 -0.4258 -0.5922
 1999TIP3    H227557   3.311   3.112   8.083 -0.6506  1.7733 -1.0757
 2000TIP3   OH227558   1.791   1.860   7.382  0.0228  0.5954 -0.5368
 2000TIP3    H127559   1.766   1.871   7.290 -0.8218 -0.2877 -0.4368
 2000TIP3    H227560   1.745   1.780   7.409 -1.3340  1.8953  1.2057
 2001TIP3   OH227561   0.305   5.695   7.462  0.1889 -0.7114  0.0759
 2001TIP3    H127562   0.225   5.678   7.413  0.2258 -0.1834 -0.1786
 2001TIP3    H227563   0.349   5.766   7.414  0.9295 -1.1562  0.0803
 2002TIP3   OH227564   5.066   3.908   2.201 -0.8106  0.2417 -0.0818
 2002TIP3    H127565   5.028   3.832   2.245 -1.6443 -0.3612 -1.7666
 2002TIP3    H227566   5.057   3.979   2.265 -0.3291 -0.9632  1.3880
 2003TIP3   OH227567   1.655   3.202   1.386 -0.2515 -0.1354 -0.4169
 2003TIP3    H127568   1.681   3.129   1.330  1.2641  0.9070 -1.1593
 2003TIP3    H227569   1.699   3.278   1.348  0.0778  0.7824  1.6422
 2004TIP3   OH227570   0.642   1.251   7.261  0.2007 -0.5771 -0.0035
 2004TIP3    H127571   0.604   1.166   7.285 -0.4970 -0.4246 -0.5149
 2004TIP3    H227572   0.577   1.290   7.202  0.4562  0.3665  0.3233
 2005TIP3   OH227573   3.748   2.481   6.764  0.1422 -0.2771 -0.3743
 2005TIP3    H127574   3.776   2.468   6.673 -0.8819  1.5715 -0.9946
 2005TIP3    H227575   3.828   2.468   6.815  1.0389 -0.0105 -1.6523
 2006TIP3   OH227576   5.904   2.132   7.055  0.3287 -0.1794 -0.5375
 2006TIP3    H127577   5.952   2.092   7.127  0.6467  0.4573 -0.3946
 2006TIP3    H227578   5.884   2.059   6.996 -2.4458 -1.2847  1.5256
 2007TIP3   OH227579   4.030   1.626   1.623  0.3120 -0.3866 -0.6624
 2007TIP3    H127580   4.032   1.684   1.548 -1.5902  1.2500  0.4622
 2007TIP3    H227581   4.121   1.604   1.640  0.9118  0.7845 -2.2477
 2008TIP3   OH227582   4.566   0.759   7.540  0.0746  0.4346  0.1062
 2008TIP3    H127583   4.602   0.840   7.577  1.5089 -0.2494  0.2807
 2008TIP3    H227584   4.513   0.722   7.611 -0.9361  1.4043 -0.1157
 2009TIP3   OH227585   2.928   2.260   1.460  0.4749  0.1603 -0.1712
 2009TIP3    H127586   2.951   2.275   1.368 -1.0392  1.6113 -0.3766
 2009TIP3    H227587   2.958   2.338   1.506  0.9627 -0.4269  0.5372
 2010TIP3   OH227588   3.423   5.885   8.119  0.4945 -0.9189  0.5375
 2010TIP3    H127589   3.377   5.808   8.084 -1.9787  0.6510  0.1099
 2010TIP3    H227590   3.406   5.954   8.055  0.7462  0.5454  1.9803
 2011TIP3   OH227591   2.288   3.544   8.249  0.3011 -0.2016 -0.4343
 2011TIP3    H127592   2.351   3.479   8.279 -0.2869  0.4154  2.4675
 2011TIP3    H227593   2.204   3.498   8.249 -0.1655  0.5100  1.9164
 2012TIP3   OH227594   4.250   5.896   0.207  0.1733  0.4612  0.4080
 2012TIP3    H127595   4.307   5.819   0.211  1.0299  0.9345 -1.4873
 2012TIP3    H227596   4.182   5.872   0.144 -0.0145  0.9780  0.4059
 2013TIP3   OH227597   1.662   4.012   6.959 -0.0771 -0.0697  0.3495
 2013TIP3    H127598   1.664   4.050   6.871  0.6375 -1.2823 -0.1815
 2013TIP3    H227599   1.657   4.088   7.017  0.1957  0.7955 -0.7094
 2014TIP3   OH227600   6.685   3.117   1.229  0.5158 -0.2470 -0.5512
 2014TIP3    H127601   6.666   3.169   1.306  0.7444 -0.0502 -0.6283
 2014TIP3    H227602   6.600   3.080   1.203  0.3627  0.0523 -0.4734
 2015TIP3   OH227603   6.274   1.706   1.508  0.5818 -0.1775 -0.0465
 2015TIP3    H127604   6.343   1.643   1.526  0.6912  0.2118  0.9311
 2015TIP3    H227605   6.223   1.667   1.437  0.1356 -1.7620  1.1037
 2016TIP3   OH227606   5.362   0.226   1.794 -0.4254 -0.2513 -0.5366
 2016TIP3    H127607   5.396   0.313   1.814 -3.2668  0.5659  1.2383
 2016TIP3    H227608   5.438   0.168   1.806  0.7971  1.6093  1.5208
 2017TIP3   OH227609   6.273   0.880   1.999 -0.0275 -0.1646 -0.2065
 2017TIP3    H127610   6.350   0.898   1.945 -0.5014  0.2746 -0.7553
 2017TIP3    H227611   6.278   0.943   2.071  0.0008  0.0279 -0.3765
 2018TIP3   OH227612   1.291   6.102   0.495  0.1047 -0.6239 -0.2254
 2018TIP3    H127613   1.354   6.132   0.561  1.3256  1.6529 -2.3011
 2018TIP3    H227614   1.207   6.101   0.541  0.9412  0.6683  1.4317
 2019TIP3   OH227615   6.281   3.378   7.693 -0.3573  0.5773 -0.5018
 2019TIP3    H127616   6.365   3.362   7.650  0.0210 -0.1234  0.4814
 2019TIP3    H227617   6.216   3.354   7.627  0.1991  1.1929 -1.2998
 2020TIP3   OH227618   0.031   2.738   0.786 -0.5043  0.2131 -0.2111
 2020TIP3    H127619   0.024   2.696   0.700  0.4327  1.0015 -0.6787
 2020TIP3    H227620   0.098   2.687   0.832 -1.7512 -0.8804  0.4792
 2021TIP3   OH227621   3.835   6.212   0.819 -0.1096  0.0540  0.0058
 2021TIP3    H127622   3.822   6.280   0.886 -0.8514  0.0145 -0.0943
 2021TIP3    H227623   3.793   6.134   0.856  0.1340 -0.1690 -0.1857
 2022TIP3   OH227624   0.940   1.424   1.209 -0.4340 -0.7486 -0.3803
 2022TIP3    H127625   0.891   1.506   1.222 -0.7184 -1.0086  0.2812
 2022TIP3    H227626   1.031   1.452   1.201 -0.6589 -0.2661 -1.4918
 2023TIP3   OH227627   6.678   4.180   0.765 -0.2997 -0.6332 -0.2036
 2023TIP3    H127628   6.618   4.201   0.694  0.5990 -0.5273 -0.9562
 2023TIP3    H227629   6.739   4.254   0.768  0.7709 -1.4744 -0.5417
 2024TIP3   OH227630   6.606   4.431   1.754 -0.7784  0.0310 -0.3522
 2024TIP3    H127631   6.523   4.437   1.708 -0.9540  2.5079  0.1173
 2024TIP3    H227632   6.612   4.513   1.803  1.1088 -0.8767  1.0736
 2025TIP3   OH227633   1.506   1.031   1.466  0.2477 -0.6170 -0.1052
 2025TIP3    H127634   1.520   0.964   1.533  1.5531 -0.2739 -0.0085
 2025TIP3    H227635   1.558   1.105   1.496  1.0748 -0.5535 -1.6418
 2026TIP3   OH227636   0.462   1.890   7.842 -0.0176 -0.0746 -0.2093
 2026TIP3    H127637   0.428   1.802   7.858  2.3739 -1.0451 -0.1186
 2026TIP3    H227638   0.451   1.903   7.748 -0.1447 -0.5542 -0.2632
 2027TIP3   OH227639   3.552   4.067   1.713 -0.2038 -0.0119  0.1308
 2027TIP3    H127640   3.569   4.052   1.806 -2.0891  2.6165  1.0312
 2027TIP3    H227641   3.635   4.096   1.677  0.0885  0.9986  1.5368
 2028TIP3   OH227642   4.958   3.010   0.120  0.5801 -0.5006 -0.0647
 2028TIP3    H127643   4.950   2.995   0.026  3.3842  0.8153 -0.6247
 2028TIP3    H227644   5.039   3.061   0.129 -0.5658  1.0071  2.9109
 2029TIP3   OH227645   1.030   0.130   7.578  0.2647  0.5005 -0.3268
 2029TIP3    H127646   1.097   0.199   7.569  1.5198 -0.5846  0.3674
 2029TIP3    H227647   1.075   0.059   7.625 -1.2671 -0.4340 -0.2206
 2030TIP3   OH227648   0.250   4.305   0.326  0.4291 -0.0706  0.3660
 2030TIP3    H127649   0.188   4.336   0.259  0.1207 -0.1157  0.6265
 2030TIP3    H227650   0.266   4.381   0.382 -1.1424 -0.6065  1.6270
 2031TIP3   OH227651   6.304   1.767   8.447  0.8049  0.1690  0.2760
 2031TIP3    H127652   6.220   1.810   8.431  0.3782 -0.7960 -0.1836
 2031TIP3    H227653   6.293   1.724   8.532  0.8996  0.2048  0.3065
 2032TIP3   OH227654   4.312   6.064   7.440  0.3685 -0.4173 -0.6112
 2032TIP3    H127655   4.298   6.001   7.369 -0.3657 -0.8064 -0.1358
 2032TIP3    H227656   4.233   6.118   7.439  1.1206  0.6940 -1.1997
 2033TIP3   OH227657   2.033   3.167   2.594 -0.0676 -0.6164 -0.6304
 2033TIP3    H127658   1.981   3.087   2.595 -1.0746 -0.0532  2.2329
 2033TIP3    H227659   2.063   3.177   2.684  1.6608  1.2252 -1.3457
 2034TIP3   OH227660   5.396   1.863   7.746  0.8119  0.0738  0.5239
 2034TIP3    H127661   5.381   1.775   7.779  1.6794  0.0095  0.7683
 2034TIP3    H227662   5.471   1.854   7.686 -0.4770  0.2467 -1.2039
 2035TIP3   OH227663   0.589   3.606   1.096  0.7782 -0.1631  0.1191
 2035TIP3    H127664   0.620   3.669   1.031  0.8715 -0.8129 -0.4737
 2035TIP3    H227665   0.558   3.660   1.169  0.1550  0.6032 -0.6862
 2036TIP3   OH227666   0.112   5.069   0.952 -0.3218  0.0031 -0.0413
 2036TIP3    H127667   0.205   5.053   0.936  0.0215 -0.5967  2.1205
 2036TIP3    H227668   0.106   5.080   1.047 -2.5826 -0.9089  0.0014
 2037TIP3   OH227669   4.540   0.507   8.479  0.9532 -0.9345  0.5092
 2037TIP3    H127670   4.624   0.552   8.481  0.4731 -0.0368  1.5081
 2037TIP3    H227671   4.556   0.425   8.527  1.2171 -0.7019  0.8217
 2038TIP3   OH227672   4.581   4.157   7.708 -0.0954  0.4741  0.3021
 2038TIP3    H127673   4.613   4.123   7.624 -2.5115 -0.9570 -0.1211
 2038TIP3    H227674   4.615   4.246   7.712 -1.7088  1.4541 -3.3186
 2039TIP3   OH227675   5.955   4.774   8.169  0.5038  0.7577  0.7004
 2039TIP3    H127676   6.035   4.789   8.220  1.8832  0.1414 -1.1675
 2039TIP3    H227677   5.977   4.805   8.081 -1.2329  0.2882  0.0705
 2040TIP3   OH227678   2.994   6.176   7.497  0.0880 -0.1101 -0.4806
 2040TIP3    H127679   3.044   6.110   7.449  0.4688 -0.1162 -0.0750
 2040TIP3    H227680   3.032   6.259   7.469 -2.5605  0.2557 -3.6432
 2041TIP3   OH227681   0.986   2.241   0.447  0.5978 -0.3372 -0.2532
 2041TIP3    H127682   0.968   2.329   0.415  0.4893 -0.2290  0.1051
 2041TIP3    H227683   0.900   2.198   0.448  0.5171 -0.1671  0.4121
 2042TIP3   OH227684   3.486   1.700   0.645 -0.0271  0.3349 -0.1100
 2042TIP3    H127685   3.477   1.687   0.740 -0.3047 -0.1334 -0.1949
 2042TIP3    H227686   3.571   1.744   0.635  3.4806 -5.3191  0.0191
 2043TIP3   OH227687   4.396   0.052   7.494  0.1506  0.1609  0.1282
 2043TIP3    H127688   4.362   0.086   7.412  0.3118 -0.0550 -0.0271
 2043TIP3    H227689   4.419  -0.039   7.476 -4.3703 -1.5401  1.6461
 2044TIP3   OH227690   0.419   2.388   7.791  0.6765 -0.1153 -0.1794
 2044TIP3    H127691   0.507   2.351   7.796  1.0137  0.6502 -0.1748
 2044TIP3    H227692   0.432   2.482   7.806 -0.2522 -0.1135  0.6983
 2045TIP3   OH227693   0.556   5.815   7.886  0.7498  0.4089 -0.2216
 2045TIP3    H127694   0.590   5.898   7.851  1.6923  0.8822  1.6887
 2045TIP3    H227695   0.511   5.840   7.967  0.2963 -0.8540 -0.0615
 2046TIP3   OH227696   5.985   4.113   8.029  0.2001  0.3559  0.1174
 2046TIP3    H127697   6.041   4.040   8.002 -1.7186 -1.3989  0.6347
 2046TIP3    H227698   5.962   4.092   8.120 -2.2000  0.3710 -0.4346
 2047TIP3   OH227699   2.869   1.739   8.627 -0.1223  0.4285 -0.3566
 2047TIP3    H127700   2.868   1.788   8.545  3.3460 -0.5685 -1.1662
 2047TIP3    H227701   2.899   1.801   8.693  0.0652  0.4672 -0.4797
 2048TIP3   OH227702   6.201   1.101   0.273 -0.3277 -0.3773  0.2339
 2048TIP3    H127703   6.152   1.093   0.355 -0.7703 -2.0497 -0.1615
 2048TIP3    H227704   6.144   1.155   0.217 -1.0530 -1.0818  0.2789
 2049TIP3   OH227705   6.744   3.426   0.236  0.0251  0.3794  0.1274
 2049TIP3    H127706   6.655   3.396   0.255  0.2072 -0.2615 -0.0035
 2049TIP3    H227707   6.737   3.521   0.236 -0.9957  0.3355 -1.4600
 2050TIP3   OH227708   1.167   3.457   0.219 -0.6102 -0.1575  0.3061
 2050TIP3    H127709   1.154   3.488   0.129 -1.0465  0.4295  0.5620
 2050TIP3    H227710   1.186   3.364   0.210  1.5755  0.2943 -0.5582
 2051TIP3   OH227711   2.678   1.158   1.273 -0.2127  0.1043 -0.1232
 2051TIP3    H127712   2.714   1.125   1.355 -0.8865  0.3212  0.2661
 2051TIP3    H227713   2.585   1.140   1.279 -0.1654 -0.5900 -1.1833
 2052TIP3   OH227714   3.465   1.384   8.049 -0.2649  0.3289 -0.0767
 2052TIP3    H127715   3.392   1.400   8.109 -0.6739  0.2439 -0.5378
 2052TIP3    H227716   3.516   1.314   8.090 -2.2881 -2.0267 -1.2588
 2053TIP3   OH227717   5.325   0.303   8.072 -0.0240 -0.0385 -0.2195
 2053TIP3    H127718   5.373   0.223   8.097  0.8533  0.4541 -0.2833
 2053TIP3    H227719   5.247   0.303   8.127  0.1399 -0.7655  0.0218
 2054TIP3   OH227720   3.862   2.015   7.646  0.1547  0.4535 -0.4429
 2054TIP3    H127721   3.835   2.097   7.603 -3.0457 -0.5510 -0.5715
 2054TIP3    H227722   3.887   1.958   7.573  0.5704  0.6951 -0.4936
 2055TIP3   OH227723   0.301   5.308   0.642 -0.2012 -0.5706 -0.3063
 2055TIP3    H127724   0.214   5.322   0.605 -0.0702  0.0706 -0.3795
 2055TIP3    H227725   0.359   5.364   0.590 -0.2847  1.8644  2.0036
 2056TIP3   OH227726   3.724   2.111   2.387  0.1439  0.2559  0.3370
 2056TIP3    H127727   3.708   2.043   2.322  2.3385  0.1293 -0.1628
 2056TIP3    H227728   3.736   2.064   2.469 -0.5762  0.2404  0.4360
 2057TIP3   OH227729   0.503   5.429   6.888  0.1078 -0.9886 -0.1382
 2057TIP3    H127730   0.455   5.482   6.952  2.1067 -0.3778  0.9359
 2057TIP3    H227731   0.459   5.448   6.804  0.0304  1.5015  0.3800
 2058TIP3   OH227732   4.762   1.258   2.492 -0.1164 -0.2909  0.4449
 2058TIP3    H127733   4.694   1.234   2.555 -0.9003 -0.2546 -0.3669
 2058TIP3    H227734   4.741   1.207   2.414 -0.8147  1.6974 -0.7401
 2059TIP3   OH227735   2.187   2.229   0.353 -0.5245  0.3980  0.2925
 2059TIP3    H127736   2.212   2.263   0.267 -1.0127 -0.2750 -0.1317
 2059TIP3    H227737   2.251   2.160   0.371 -1.5961 -0.8489 -0.4766
 2060TIP3   OH227738   4.442   1.483   7.210 -0.3667 -0.9410  0.2211
 2060TIP3    H127739   4.502   1.508   7.140 -0.2091  0.1440  0.7317
 2060TIP3    H227740   4.356   1.475   7.167 -0.1036 -1.2014 -0.2610
 2061TIP3   OH227741   3.463   0.419   1.819 -0.6219 -0.8119 -0.7901
 2061TIP3    H127742   3.372   0.402   1.792 -0.1512 -0.0912 -3.0529
 2061TIP3    H227743   3.514   0.400   1.741  0.9396  1.0620 -0.2902
 2062TIP3   OH227744   3.622   3.163   6.804 -0.0531 -0.0454 -0.1335
 2062TIP3    H127745   3.574   3.085   6.777 -0.0694  0.2619 -1.0351
 2062TIP3    H227746   3.598   3.230   6.740 -0.0750  0.7210  0.6466
 2063TIP3   OH227747   5.382   2.526   0.842 -0.3240  0.1179  0.4819
 2063TIP3    H127748   5.396   2.619   0.828  1.8895  0.1807  2.4962
 2063TIP3    H227749   5.319   2.521   0.914 -0.3448  0.0456  0.4598
 2064TIP3   OH227750   1.854   4.117   1.945 -0.6175  0.4664  0.0552
 2064TIP3    H127751   1.763   4.144   1.960 -0.2118  1.7183  0.3856
 2064TIP3    H227752   1.863   4.035   1.993 -1.7776 -0.0779 -0.6071
 2065TIP3   OH227753   0.747   3.702   1.761  0.3890  0.0044  0.3902
 2065TIP3    H127754   0.832   3.690   1.719  0.8366  0.2247  1.2086
 2065TIP3    H227755   0.765   3.693   1.854  0.0157  2.6116  0.7910
 2066TIP3   OH227756   4.976   5.582   0.055  0.0661  0.3631  0.0211
 2066TIP3    H127757   4.956   5.657  -0.002 -0.7223 -0.2892 -0.5805
 2066TIP3    H227758   4.897   5.571   0.108 -0.0520 -0.4060 -0.3051
 2067TIP3   OH227759   3.054   3.904   8.670 -0.2063 -0.1331 -0.7294
 2067TIP3    H127760   3.135   3.951   8.655 -0.6996  0.2539 -2.3781
 2067TIP3    H227761   3.059   3.827   8.613 -0.3109 -0.9943  0.3790
 2068TIP3   OH227762   5.514   4.223   0.965 -0.3395 -0.0116 -0.2772
 2068TIP3    H127763   5.531   4.282   0.892  2.8239  0.5373  0.7276
 2068TIP3    H227764   5.528   4.135   0.930 -1.0169  0.0935 -0.8217
 2069TIP3   OH227765   1.459   3.272   0.171 -0.5935 -0.1475  0.1633
 2069TIP3    H127766   1.444   3.347   0.114  0.8664  2.1158  2.5286
 2069TIP3    H227767   1.553   3.257   0.167 -0.6066 -0.5795  1.1699
 2070TIP3   OH227768   4.809   1.984   6.795  0.2692 -0.2332  0.6121
 2070TIP3    H127769   4.833   2.060   6.743  0.7964 -1.0274 -0.3463
 2070TIP3    H227770   4.776   1.921   6.731 -0.1273 -0.8186  1.3796
 2071TIP3   OH227771   4.186   0.950   8.637 -0.9139 -0.2356  0.0383
 2071TIP3    H127772   4.098   0.977   8.663 -0.7228 -1.1305  1.8376
 2071TIP3    H227773   4.231   0.936   8.720  0.6952 -0.5440 -0.8531
 2072TIP3   OH227774   3.659   0.785   0.528  0.1402  0.0748 -0.4739
 2072TIP3    H127775   3.635   0.708   0.580  0.1440  0.3121 -0.1193
 2072TIP3    H227776   3.663   0.752   0.438  0.5541 -0.4356 -0.2762
 2073TIP3   OH227777   5.586   6.709   7.570 -0.3671 -0.5499 -0.4190
 2073TIP3    H127778   5.502   6.712   7.615 -0.7875  0.2562 -1.2268
 2073TIP3    H227779   5.607   6.616   7.563 -0.4899 -0.7111  1.0449
 2074TIP3   OH227780   5.251   2.190   8.317  0.5409 -0.2423  0.2085
 2074TIP3    H127781   5.290   2.124   8.260  4.0338  1.1503  0.7076
 2074TIP3    H227782   5.283   2.168   8.404 -0.8923  0.3270  0.9156
 2075TIP3   OH227783   4.844   0.700   7.163 -0.0816 -0.6749 -0.6951
 2075TIP3    H127784   4.913   0.664   7.219 -1.0345 -0.8536  0.4113
 2075TIP3    H227785   4.815   0.627   7.109 -0.3923 -0.9834 -0.1217
 2076TIP3   OH227786   3.609   5.402   0.866  0.1019  0.4034  0.3273
 2076TIP3    H127787   3.689   5.418   0.817 -0.1238  1.1826  0.1994
 2076TIP3    H227788   3.629   5.431   0.955  0.1640 -0.0022  0.4483
 2077TIP3   OH227789   3.154   0.121   7.954  0.0796  0.3798 -0.3813
 2077TIP3    H127790   3.070   0.121   7.999  0.8612 -1.3946  1.2080
 2077TIP3    H227791   3.159   0.208   7.913 -1.4430  1.4524  1.5203
 2078TIP3   OH227792   3.550   1.415   2.367 -0.0805  0.3439  0.0998
 2078TIP3    H127793   3.549   1.329   2.407 -0.9505 -0.4726 -1.5693
 2078TIP3    H227794   3.467   1.422   2.320  0.5919  1.4632 -1.0276
 2079TIP3   OH227795   5.440   2.015   1.323  0.2501  0.0111  0.5660
 2079TIP3    H127796   5.426   2.029   1.416  2.4709 -0.5630  1.0291
 2079TIP3    H227797   5.476   1.926   1.317 -0.8744 -0.3993 -0.9658
 2080TIP3   OH227798   0.410   6.123   2.145  0.3031  0.0821  0.3034
 2080TIP3    H127799   0.449   6.167   2.221  0.6258 -1.8925  1.3406
 2080TIP3    H227800   0.318   6.149   2.147  0.5376  0.9470  0.6749
 2081TIP3   OH227801   1.595   0.937   7.953 -0.1369 -0.1112 -0.6066
 2081TIP3    H127802   1.559   0.891   8.029 -0.9709  1.1249 -0.2276
 2081TIP3    H227803   1.632   0.867   7.898  0.0526 -1.0608  0.6980
 2082TIP3   OH227804   5.033   2.746   2.008 -0.2493  0.2135 -0.7015
 2082TIP3    H127805   5.012   2.765   1.916 -2.0119 -0.5068 -0.4838
 2082TIP3    H227806   4.987   2.664   2.027  0.6239  0.0059  0.6524
 2083TIP3   OH227807   2.083   1.383   7.751  0.2183 -0.1146 -0.6197
 2083TIP3    H127808   2.089   1.455   7.688  0.2512 -0.5098 -1.0741
 2083TIP3    H227809   2.014   1.410   7.812  0.8588  0.7154 -0.2444
 2084TIP3   OH227810   0.908   6.774   7.819  0.1818 -0.0043 -0.5524
 2084TIP3    H127811   0.939   6.758   7.729 -1.0748  0.7279 -1.1373
 2084TIP3    H227812   0.816   6.749   7.818  0.2384 -0.3443  0.6578
 2085TIP3   OH227813   4.582   4.320   0.425 -0.0035 -0.7828 -0.0738
 2085TIP3    H127814   4.515   4.294   0.362 -0.5157  0.8231 -0.2433
 2085TIP3    H227815   4.584   4.249   0.489  0.5334 -2.4640 -1.8632
 2086TIP3   OH227816   4.938   2.333   7.074 -0.5546  0.6172 -0.1687
 2086TIP3    H127817   4.960   2.245   7.044 -2.3108  0.5543 -1.3944
 2086TIP3    H227818   4.967   2.390   7.003 -0.1661  0.9705  0.2645
 2087TIP3   OH227819   0.888   0.462   7.809 -0.5063  0.3483 -0.1448
 2087TIP3    H127820   0.940   0.526   7.760  0.0408 -0.3651 -0.5207
 2087TIP3    H227821   0.797   0.484   7.790 -0.3465 -1.0128 -3.0569
 2088TIP3   OH227822   6.477   0.518   6.757 -0.1177 -0.3885 -0.4519
 2088TIP3    H127823   6.474   0.602   6.803  0.1579 -0.5638 -0.1121
 2088TIP3    H227824   6.422   0.531   6.680  0.2302  0.2267 -0.6013
 2089TIP3   OH227825   0.033   4.328   0.519  0.7081 -0.3221  0.1551
 2089TIP3    H127826   0.123   4.344   0.492  0.5955 -0.3616 -0.2465
 2089TIP3    H227827   0.033   4.343   0.614  1.0308  0.1381  0.0828
 2090TIP3   OH227828   2.056   0.096   0.438 -0.2045  0.4213 -0.3427
 2090TIP3    H127829   2.033   0.140   0.356  0.3973  2.7462  0.6457
 2090TIP3    H227830   2.151   0.110   0.447  0.3265 -2.4113 -0.6638
 2091TIP3   OH227831   0.659   3.663   7.546  0.2476  0.0623 -0.3552
 2091TIP3    H127832   0.702   3.739   7.506  0.1922  0.0519 -0.4345
 2091TIP3    H227833   0.642   3.604   7.472 -0.4695  0.3351 -0.4153
 2092TIP3   OH227834   3.516   0.337   7.656 -0.3823 -0.0336 -0.2281
 2092TIP3    H127835   3.434   0.321   7.608 -0.4558 -0.8339  0.1454
 2092TIP3    H227836   3.542   0.251   7.688  1.6214 -0.1151 -1.9208
 2093TIP3   OH227837   6.423   0.850   1.498 -0.2657  0.1523 -0.0438
 2093TIP3    H127838   6.485   0.790   1.538 -1.5569 -0.4162  1.1695
 2093TIP3    H227839   6.474   0.930   1.483  0.5303  0.0317  1.7847
 2094TIP3   OH227840   3.078   3.807   0.433 -0.3737  0.2078  0.6237
 2094TIP3    H127841   3.063   3.787   0.525  0.6338  0.8670  0.9537
 2094TIP3    H227842   3.072   3.903   0.428 -1.4582  0.1143 -0.2053
 2095TIP3   OH227843   2.873   1.589   8.249  0.2212 -0.0430  0.4040
 2095TIP3    H127844   2.904   1.569   8.161  1.5516  0.3633  0.7560
 2095TIP3    H227845   2.925   1.665   8.276 -0.0311 -0.2806  1.6111
 2096TIP3   OH227846   2.912   1.592   6.469 -0.2561 -0.5001 -0.3407
 2096TIP3    H127847   2.817   1.596   6.455 -0.4382  2.3144  0.8571
 2096TIP3    H227848   2.923   1.528   6.539 -1.2134 -1.2227 -0.8300
 2097TIP3   OH227849   2.660   3.296   1.913 -0.3399  0.0037 -0.1379
 2097TIP3    H127850   2.625   3.297   2.002  1.8047  0.3000  0.7601
 2097TIP3    H227851   2.724   3.225   1.913  0.6195  0.8361 -1.0611
 2098TIP3   OH227852   2.241   3.252   7.500 -0.3160  0.1489  0.2812
 2098TIP3    H127853   2.216   3.190   7.432 -2.3763  1.5874 -0.3736
 2098TIP3    H227854   2.273   3.329   7.452  0.5993  0.2507  1.0252
 2099TIP3   OH227855   1.969   6.513   8.353 -0.6260 -0.0202 -0.3544
 2099TIP3    H127856   1.975   6.421   8.327  0.9421  0.2395 -1.0586
 2099TIP3    H227857   1.997   6.561   8.276  2.4190  0.8693  1.1446
 2100TIP3   OH227858   0.626   6.030   7.430  0.8138  0.2757  1.0711
 2100TIP3    H127859   0.645   6.080   7.509  1.7144 -2.0144  2.4238
 2100TIP3    H227860   0.686   6.065   7.364  0.8058  1.5044  1.6878
 2101TIP3   OH227861   3.801   5.602   7.188 -0.9188 -0.5877 -0.7052
 2101TIP3    H127862   3.782   5.674   7.247  2.1226 -0.5242  0.3337
 2101TIP3    H227863   3.772   5.524   7.236  1.1204 -0.4995  0.8241
 2102TIP3   OH227864   4.250   6.033   1.084  0.3840 -0.0370  0.2109
 2102TIP3    H127865   4.337   5.995   1.077  0.2495 -0.4289  0.6398
 2102TIP3    H227866   4.265   6.128   1.082  0.8767 -0.0925  0.8883
 2103TIP3   OH227867   5.677   2.502   1.926 -0.3153  0.8007 -0.4273
 2103TIP3    H127868   5.679   2.408   1.907  0.3805  0.6991  0.1236
 2103TIP3    H227869   5.761   2.520   1.966  0.9801  2.2964 -3.4915
 2104TIP3   OH227870   1.721   0.656   6.588 -0.1834 -0.4113  0.7396
 2104TIP3    H127871   1.674   0.621   6.513 -0.2415  0.4914  0.3368
 2104TIP3    H227872   1.810   0.674   6.555 -0.2992  0.2899  0.7821
 2105TIP3   OH227873   3.320   2.870   6.328 -0.3841 -0.0756 -0.1164
 2105TIP3    H127874   3.415   2.859   6.324 -0.6590 -2.8498 -3.2599
 2105TIP3    H227875   3.303   2.952   6.281  0.3856 -1.0410 -2.1977
 2106TIP3   OH227876   6.663   5.891   6.879 -0.1237  0.1001  0.0127
 2106TIP3    H127877   6.577   5.931   6.862 -0.3365 -0.7144 -0.9124
 2106TIP3    H227878   6.673   5.826   6.810  0.4773 -1.0279  1.1194
 2107TIP3   OH227879   1.200   0.965   0.231 -0.5037 -0.1734  0.0717
 2107TIP3    H127880   1.278   1.020   0.234 -0.6952  0.1214 -0.3582
 2107TIP3    H227881   1.128   1.025   0.213 -0.9782 -0.2973  1.4321
 2108TIP3   OH227882   5.403   6.563   1.331  0.3035 -0.3981 -0.2163
 2108TIP3    H127883   5.405   6.607   1.246  1.0407  1.0761  0.5243
 2108TIP3    H227884   5.492   6.574   1.366 -0.3984  0.4835  1.4283
 2109TIP3   OH227885   1.735   4.225   8.680  0.2712  0.6063  0.1605
 2109TIP3    H127886   1.740   4.224   8.776 -0.2395  0.7600  0.1913
 2109TIP3    H227887   1.648   4.260   8.661  0.0462 -0.2102 -0.3560
 2110TIP3   OH227888   5.987   4.315   6.554  0.0221  0.2459  0.6110
 2110TIP3    H127889   6.035   4.330   6.472 -2.5991 -0.9835 -1.3042
 2110TIP3    H227890   5.919   4.382   6.554 -1.5716 -1.3125  0.4271
 2111TIP3   OH227891   2.840   2.188   0.672 -0.1708 -0.8149  0.0808
 2111TIP3    H127892   2.873   2.194   0.583 -0.1264  0.1178  0.1486
 2111TIP3    H227893   2.773   2.119   0.669  1.2208 -2.2002 -0.2102
 2112TIP3   OH227894   3.575   0.681   8.436 -0.0907  0.0884 -0.1265
 2112TIP3    H127895   3.552   0.630   8.358  0.3776 -1.0710  0.4637
 2112TIP3    H227896   3.512   0.654   8.502  0.5679 -0.2356  0.3834
 2113TIP3   OH227897   6.074   5.450   8.280 -0.3534  0.4525  0.0019
 2113TIP3    H127898   6.117   5.453   8.366 -1.7391 -0.4082  0.7698
 2113TIP3    H227899   6.029   5.365   8.279 -1.5098  1.0396 -1.0029
 2114TIP3   OH227900   3.322   3.972   1.190 -0.1788 -0.3974  0.2338
 2114TIP3    H127901   3.320   3.877   1.184  0.1469 -0.3047 -1.7680
 2114TIP3    H227902   3.413   3.996   1.178 -0.1381  0.1736  1.4335
 2115TIP3   OH227903   3.964   4.132   8.175  0.4564  0.4073  0.9007
 2115TIP3    H127904   3.963   4.150   8.269 -1.8887 -1.2560  1.2849
 2115TIP3    H227905   4.006   4.047   8.167  2.0398  1.2093  0.2202
 2116TIP3   OH227906   4.055   1.588   6.740 -0.5295 -0.0888 -0.1225
 2116TIP3    H127907   4.043   1.508   6.688  0.8585 -0.9008  0.7097
 2116TIP3    H227908   4.144   1.616   6.720 -0.5703  0.5389  0.5385
 2117TIP3   OH227909   4.195   5.241   0.789  0.3223  0.0207 -0.0784
 2117TIP3    H127910   4.127   5.184   0.754 -0.2825  1.0227 -0.5813
 2117TIP3    H227911   4.237   5.278   0.711  1.5086 -0.6445  0.2192
 2118TIP3   OH227912   0.341   6.822   0.748  0.9657 -0.2341  0.3005
 2118TIP3    H127913   0.276   6.848   0.683  0.8345 -0.5303  0.3138
 2118TIP3    H227914   0.354   6.901   0.801 -0.2505 -0.5169  1.0455
 2119TIP3   OH227915   0.352   1.012   0.500 -0.0421  0.1219 -0.0429
 2119TIP3    H127916   0.301   0.986   0.577 -0.8797  2.6550  0.3288
 2119TIP3    H227917   0.360   0.931   0.449 -4.1685 -0.5667  0.0511
 2120TIP3   OH227918   5.882   2.402   8.259 -0.3840  0.2459  0.1362
 2120TIP3    H127919   5.806   2.347   8.242 -1.0682  1.0102  0.6033
 2120TIP3    H227920   5.938   2.392   8.182 -0.7857 -0.6070 -0.0518
 2121TIP3   OH227921   3.246   0.607   1.007  0.5534  0.0252  0.0059
 2121TIP3    H127922   3.158   0.645   1.011  0.9718  0.9716  1.2039
 2121TIP3    H227923   3.242   0.531   1.065  0.9462  1.0888  1.4891
 2122TIP3   OH227924   5.477   0.122   0.047 -0.0713 -0.3851 -0.1418
 2122TIP3    H127925   5.569   0.137   0.026  0.1894 -2.1592 -0.4637
 2122TIP3    H227926   5.460   0.177   0.124  1.7105 -1.1903  0.9001
 2123TIP3   OH227927   2.206   0.894   1.614  0.4523  0.6159 -0.0849
 2123TIP3    H127928   2.154   0.893   1.694  1.5375 -0.4341  0.6532
 2123TIP3    H227929   2.216   0.801   1.591 -0.6952  0.9151 -2.0401
 2124TIP3   OH227930   6.033   0.452   8.106  0.2405  0.5900  0.1252
 2124TIP3    H127931   6.033   0.392   8.181  1.9627 -1.4296 -1.3983
 2124TIP3    H227932   5.958   0.425   8.053  1.0798 -0.3460 -0.6163
 2125TIP3   OH227933   3.673   3.775   2.740 -1.0083 -0.1490  0.0843
 2125TIP3    H127934   3.586   3.735   2.744 -1.4899  0.6915 -1.2783
 2125TIP3    H227935   3.734   3.701   2.747 -1.8363 -0.8167  0.4173
 2126TIP3   OH227936   1.527   2.701   0.731 -0.5514 -0.5178 -0.3487
 2126TIP3    H127937   1.524   2.613   0.694  1.0543 -0.9104  0.3575
 2126TIP3    H227938   1.621   2.722   0.735 -0.8809  0.9681  0.0802
 2127TIP3   OH227939   6.833   5.913   8.386  0.7050  0.0460 -0.0494
 2127TIP3    H127940   6.827   5.869   8.301  0.2021 -1.0124  0.5117
 2127TIP3    H227941   6.821   6.005   8.366 -0.7589 -0.3130 -0.9943
 2128TIP3   OH227942   1.942   4.000   1.697 -0.6555  0.5155 -0.3366
 2128TIP3    H127943   1.899   4.033   1.776 -1.5443 -0.1023 -0.5456
 2128TIP3    H227944   1.957   3.907   1.715  2.2093  1.0354  0.4224
 2129TIP3   OH227945   0.413   2.694   1.925 -0.2647  0.3527  0.1367
 2129TIP3    H127946   0.352   2.687   1.998 -0.4633 -0.1650 -0.0814
 2129TIP3    H227947   0.494   2.725   1.965  0.9658 -3.8299  1.3201
 2130TIP3   OH227948   0.323   3.522   0.972 -0.6459  0.0902  0.0698
 2130TIP3    H127949   0.405   3.550   1.011 -0.1557  0.4911 -1.2061
 2130TIP3    H227950   0.309   3.583   0.899 -1.1817 -1.0246 -0.7887
 2131TIP3   OH227951   4.744   0.088   0.061  0.7315 -1.0435 -0.7330
 2131TIP3    H127952   4.658   0.127   0.051  1.3598  0.3658 -0.8038
 2131TIP3    H227953   4.737   0.002   0.019 -0.6379 -0.9694 -0.6828
 2132TIP3   OH227954   1.937   1.412   7.056 -0.3259  0.8081  0.4596
 2132TIP3    H127955   1.885   1.349   7.106  1.9093 -0.6536  1.0443
 2132TIP3    H227956   1.871   1.470   7.017 -2.5747 -2.0422 -0.4121
 2133TIP3   OH227957   6.635   6.848   8.617 -0.0986  0.2031 -0.3699
 2133TIP3    H127958   6.637   6.877   8.525 -0.2971 -0.3167 -0.5424
 2133TIP3    H227959   6.556   6.890   8.653 -0.6785 -0.5199 -0.7626
 2134TIP3   OH227960   6.214   0.450   7.308  0.6394  0.1120  0.8578
 2134TIP3    H127961   6.222   0.390   7.382  0.8554 -2.4395 -1.1089
 2134TIP3    H227962   6.304   0.472   7.285  0.5589  2.0767  2.1277
 2135TIP3   OH227963   2.570   5.854   6.702 -0.0462  0.4455 -0.2314
 2135TIP3    H127964   2.490   5.859   6.651 -0.1355 -2.5770 -0.5995
 2135TIP3    H227965   2.619   5.932   6.678 -2.3086  1.7337 -0.9374
 2136TIP3   OH227966   4.131   0.474   0.411 -0.0064 -0.2710 -0.3130
 2136TIP3    H127967   4.167   0.480   0.499  0.0215 -1.9233 -0.1877
 2136TIP3    H227968   4.170   0.548   0.364  0.4202  0.2883  0.9020
 2137TIP3   OH227969   3.336   1.373   1.691 -0.3760 -0.2551 -0.1729
 2137TIP3    H127970   3.365   1.458   1.723 -2.4447 -0.2672  1.9907
 2137TIP3    H227971   3.249   1.389   1.655 -0.3874 -1.3078 -0.6653
 2138TIP3   OH227972   2.146   0.808   6.878 -0.6782  0.0707 -0.3434
 2138TIP3    H127973   2.177   0.876   6.937  1.0481 -0.4269 -0.6108
 2138TIP3    H227974   2.225   0.777   6.834 -1.3886 -2.1502 -0.1834
 2139TIP3   OH227975   0.052   6.590   7.275  0.2197  0.5412  0.0627
 2139TIP3    H127976   0.064   6.543   7.358 -1.4198 -0.2042 -0.0818
 2139TIP3    H227977   0.046   6.682   7.301  0.6299  0.4141  0.6532
 2140TIP3   OH227978   0.205   2.590   7.767  0.1813  0.0725 -0.1525
 2140TIP3    H127979   0.159   2.661   7.813  0.4331  0.0485  0.1396
 2140TIP3    H227980   0.291   2.628   7.746 -0.4866  0.6375 -2.0352
 2141TIP3   OH227981   4.482   6.826   8.029  0.0155 -0.1935  0.1883
 2141TIP3    H127982   4.432   6.751   8.061 -1.4488  0.7095  0.1153
 2141TIP3    H227983   4.457   6.834   7.937 -1.7695  1.7840  0.7517
 2142TIP3   OH227984   4.420   4.219   0.201 -0.4552 -0.1097 -0.0596
 2142TIP3    H127985   4.410   4.292   0.140  1.2663 -0.6121 -1.0268
 2142TIP3    H227986   4.347   4.161   0.182  0.2366 -0.4286 -1.9606
 2143TIP3   OH227987   4.709   6.004   0.729  0.1781  0.4662  0.2148
 2143TIP3    H127988   4.738   5.987   0.819 -0.1025 -0.0233  0.2145
 2143TIP3    H227989   4.774   6.066   0.695 -0.2560  1.4041  1.0606
 2144TIP3   OH227990   5.372   5.882   1.443 -0.1151  0.0075  0.9124
 2144TIP3    H127991   5.359   5.975   1.424 -2.0172 -0.5176 -0.8019
 2144TIP3    H227992   5.283   5.846   1.445  0.6396 -2.2729 -1.4847
 2145TIP3   OH227993   2.892   0.981   7.113  0.6305 -0.4210 -0.5266
 2145TIP3    H127994   2.876   0.982   7.019  0.0234 -2.2704 -0.4698
 2145TIP3    H227995   2.899   0.889   7.136 -0.1948 -0.0484  1.4056
 2146TIP3   OH227996   1.121   1.970   0.427  0.2275 -0.5611  0.1315
 2146TIP3    H127997   1.108   1.916   0.505 -0.4827 -0.0262  0.3961
 2146TIP3    H227998   1.057   2.041   0.436  1.8967  0.9868  0.3815
 2147TIP3   OH227999   5.163   5.138   8.043  0.7336 -0.6311 -0.4214
 2147TIP3    H128000   5.235   5.187   8.081 -0.6861 -1.6620  4.2256
 2147TIP3    H228001   5.196   5.048   8.037 -0.0414 -1.1111  1.7456
 2148TIP3   OH228002   1.149   5.556   0.211 -0.5367 -0.1207  0.7239
 2148TIP3    H128003   1.136   5.554   0.116  1.7120  1.0706  0.3220
 2148TIP3    H228004   1.192   5.472   0.231 -1.2220 -0.4735  0.7507
 2149TIP3   OH228005   5.184   1.439   7.125 -0.3542  0.7159  0.8064
 2149TIP3    H128006   5.254   1.435   7.060  0.2265  0.4930  1.4327
 2149TIP3    H228007   5.186   1.353   7.167 -0.1839  1.1296  1.6592
 2150TIP3   OH228008   6.753   5.545   2.697 -0.7454 -0.6552 -0.2434
 2150TIP3    H128009   6.742   5.544   2.792  1.1399  1.9992  0.0883
 2150TIP3    H228010   6.785   5.633   2.677  1.2564 -1.8693 -3.0464
 2151TIP3   OH228011   4.248   1.551   8.644 -0.2801  0.0391 -0.2664
 2151TIP3    H128012   4.337   1.523   8.665  0.1710  1.5890  0.0741
 2151TIP3    H228013   4.201   1.547   8.727 -0.1079  0.6199 -0.1356
 2152TIP3   OH228014   4.557   1.901   7.095 -0.3760  0.3770  0.0280
 2152TIP3    H128015   4.480   1.860   7.135 -0.1254 -0.8528 -0.7067
 2152TIP3    H228016   4.524   1.983   7.059 -1.4683 -0.3266 -0.6586
 2153TIP3   OH228017   2.417   3.049   0.735  0.0470  0.1574  0.0780
 2153TIP3    H128018   2.461   3.101   0.668  1.0850  0.2477  0.8240
 2153TIP3    H228019   2.415   2.960   0.698  1.3946  0.0298  0.2928
 2154TIP3   OH228020   4.731   5.068   7.717  0.4161  0.0981  0.0045
 2154TIP3    H128021   4.730   5.092   7.624 -1.3974  1.2169  0.2534
 2154TIP3    H228022   4.644   5.093   7.749  1.8089  2.2679  2.6161
 2155TIP3   OH228023   2.756   0.785   8.156  0.1164  0.3525  0.1787
 2155TIP3    H128024   2.828   0.746   8.205 -0.4454  0.3638  1.0456
 2155TIP3    H228025   2.685   0.722   8.164  0.3295 -0.1662 -1.5761
 2156TIP3   OH228026   5.739   5.649   2.182 -0.0376 -0.4262 -0.1676
 2156TIP3    H128027   5.797   5.720   2.153  0.2945 -0.5795  0.1071
 2156TIP3    H228028   5.740   5.656   2.278 -0.3418 -0.5362 -0.1565
 2157TIP3   OH228029   6.232   2.684   7.349  0.6614 -0.1316  0.7519
 2157TIP3    H128030   6.278   2.715   7.427  0.7251 -2.0669  1.5577
 2157TIP3    H228031   6.302   2.673   7.283  0.7208  0.7811  0.6519
 2158TIP3   OH228032   1.021   6.289   0.808 -0.8487 -0.6147  0.1230
 2158TIP3    H128033   1.028   6.257   0.897 -2.1480 -1.5830 -0.0954
 2158TIP3    H228034   0.927   6.303   0.794 -0.7535 -1.1896 -1.3122
 2159TIP3   OH228035   0.553   2.003   8.563 -0.6098  0.1608 -0.7513
 2159TIP3    H128036   0.518   2.065   8.627  0.4710 -0.7037  0.7544
 2159TIP3    H228037   0.573   1.924   8.615  1.4816 -0.1362 -1.9017
 2160TIP3   OH228038   4.738   2.188   0.311 -0.5518  0.3103 -0.3495
 2160TIP3    H128039   4.822   2.233   0.320 -0.2174 -0.2764 -0.4726
 2160TIP3    H228040   4.692   2.237   0.243  1.2400 -1.5644 -3.1251
 2161TIP3   OH228041   1.074   4.462   2.167  0.4582  0.0294  0.4263
 2161TIP3    H128042   1.131   4.435   2.239 -0.4228 -1.0905  0.7355
 2161TIP3    H228043   0.994   4.493   2.210  0.0154 -0.4297 -0.0571
 2162TIP3   OH228044   0.909   3.837   1.434 -0.0079 -0.2784 -0.7257
 2162TIP3    H128045   0.856   3.770   1.392  1.3027 -2.3763  0.7793
 2162TIP3    H228046   0.996   3.799   1.440  0.2491  0.5143  2.3792
 2163TIP3   OH228047   5.804   3.758   2.200  0.0232  0.0028  0.1787
 2163TIP3    H128048   5.724   3.713   2.228 -0.5329 -0.1873 -1.5958
 2163TIP3    H228049   5.871   3.729   2.262 -1.0450 -0.6928  1.0359
 2164TIP3   OH228050   5.631   2.571   6.987  0.1181  0.1309  0.5361
 2164TIP3    H128051   5.634   2.507   7.058 -0.3434 -0.5194 -0.0249
 2164TIP3    H228052   5.624   2.655   7.032  0.6408 -0.2088  1.2772
 2165TIP3   OH228053   0.295   5.258   7.129 -0.4193  0.2790 -0.1415
 2165TIP3    H128054   0.294   5.353   7.122  1.7784  0.5026  1.4472
 2165TIP3    H228055   0.207   5.235   7.158 -1.2390  1.7085 -1.3456
 2166TIP3   OH228056   2.408   1.883   0.768 -0.7258 -0.2390  0.1331
 2166TIP3    H128057   2.340   1.892   0.702 -1.8537 -0.7517  1.1890
 2166TIP3    H228058   2.391   1.799   0.810 -1.2205  0.8912  2.3430
 2167TIP3   OH228059   4.444   1.651   7.595 -0.5358 -0.0539 -0.3460
 2167TIP3    H128060   4.522   1.669   7.647 -0.0701 -0.6249 -0.8289
 2167TIP3    H228061   4.431   1.556   7.603 -1.1219  0.0247 -0.3481
 2168TIP3   OH228062   3.309   0.537   0.369  0.6389 -0.0103 -0.1914
 2168TIP3    H128063   3.326   0.451   0.408  2.0133  0.3717  0.1052
 2168TIP3    H228064   3.301   0.596   0.443  1.2573  0.3743 -0.4177
 2169TIP3   OH228065   6.302   2.518   1.492 -0.2975 -0.5105 -0.1493
 2169TIP3    H128066   6.319   2.500   1.585  2.0149 -1.2158 -0.6427
 2169TIP3    H228067   6.292   2.613   1.487 -1.0957 -0.5212  0.8820
 2170TIP3   OH228068   0.084   5.563   7.874 -0.2791  0.0373  0.1948
 2170TIP3    H128069   0.137   5.484   7.879  0.6866  0.5804 -0.8829
 2170TIP3    H228070   0.126   5.625   7.933  0.7335  0.6818 -1.1338
 2171TIP3   OH228071   5.257   1.931   8.620 -0.3028  0.0293  0.3599
 2171TIP3    H128072   5.342   1.967   8.596  0.1841 -1.4368 -0.2476
 2171TIP3    H228073   5.196   1.966   8.555  0.4881 -1.6067 -1.3562
 2172TIP3   OH228074   6.630   6.126   7.013  0.7042 -0.0848  0.1518
 2172TIP3    H128075   6.567   6.097   6.947  1.1925  0.5909 -0.6372
 2172TIP3    H228076   6.709   6.146   6.963  0.8436  1.1771  0.8322
 2173TIP3   OH228077   0.238   2.778   1.151 -0.4513 -0.0213  0.0088
 2173TIP3    H128078   0.292   2.783   1.072  0.2097  0.6490  0.4985
 2173TIP3    H228079   0.164   2.836   1.133 -1.4493 -1.4964 -0.9606
 2174TIP3   OH228080   3.764   6.267   1.796 -0.4518  0.2746  0.0523
 2174TIP3    H128081   3.700   6.337   1.787 -1.7140 -0.5397  2.0548
 2174TIP3    H228082   3.781   6.262   1.890  2.7592  0.5778 -0.4035
 2175TIP3   OH228083   3.078   4.270   6.523  0.3212  0.2882  0.1702
 2175TIP3    H128084   3.158   4.300   6.565 -0.1132 -0.9927  2.0249
 2175TIP3    H228085   3.092   4.177   6.508 -0.7950  0.0629  0.4381
 2176TIP3   OH228086   6.267   4.651   0.071 -0.2639  0.5140  0.5358
 2176TIP3    H128087   6.254   4.740   0.102  0.4204  0.6282  0.5091
 2176TIP3    H228088   6.259   4.597   0.149  1.4255  0.7988  0.9444
 2177TIP3   OH228089   4.713   0.281   0.404 -0.1348  0.2242  0.3938
 2177TIP3    H128090   4.681   0.203   0.359 -0.0105  0.3046  0.1676
 2177TIP3    H228091   4.799   0.297   0.367 -0.0715  0.3463  0.5919
 2178TIP3   OH228092   3.960   0.761   1.138 -0.3453  0.0318 -0.1747
 2178TIP3    H128093   3.879   0.738   1.185  0.5748 -2.7901  0.1793
 2178TIP3    H228094   4.013   0.805   1.205 -0.6782 -0.1730  0.2346
 2179TIP3   OH228095   3.249   0.154   8.518 -0.3253 -0.1426  0.2885
 2179TIP3    H128096   3.203   0.113   8.445  0.7630  0.5298 -0.8130
 2179TIP3    H228097   3.273   0.241   8.486  1.1078 -0.2266  1.0510
 2180TIP3   OH228098   0.312   2.294   0.278 -0.1827  0.9054  0.2257
 2180TIP3    H128099   0.289   2.377   0.236  1.6333  0.5252 -1.7357
 2180TIP3    H228100   0.265   2.228   0.227 -0.4532  0.6345  0.8233
 2181TIP3   OH228101   1.104   4.519   1.317  0.0358  0.0921 -0.8329
 2181TIP3    H128102   1.040   4.548   1.252  0.1812 -0.3425 -1.1768
 2181TIP3    H228103   1.073   4.555   1.399 -0.2422  0.5149 -1.1177
 2182TIP3   OH228104   0.082   4.847   7.978 -0.5774 -0.1010  0.1108
 2182TIP3    H128105   0.008   4.794   7.949 -0.3182  0.1476 -1.0625
 2182TIP3    H228106   0.150   4.832   7.913 -0.5330  1.7250 -0.3385
 2183TIP3   OH228107   2.173   2.590   1.838 -0.1614 -0.2540  0.1011
 2183TIP3    H128108   2.250   2.639   1.869  0.5386 -1.8255  0.9458
 2183TIP3    H228109   2.099   2.636   1.877  0.3380  1.0908 -0.4506
 2184TIP3   OH228110   0.939   6.831   0.514 -0.2053  0.4689 -0.2637
 2184TIP3    H128111   1.022   6.845   0.561 -0.6861  2.1443  0.1529
 2184TIP3    H228112   0.965   6.801   0.427  0.8997  1.6064 -0.3588
 2185TIP3   OH228113   3.095   5.639   8.329  0.8376  0.3115  0.2073
 2185TIP3    H128114   3.133   5.727   8.323 -0.2632  0.7443 -1.1440
 2185TIP3    H228115   3.103   5.604   8.240 -0.8873  0.0235  0.1212
 2186TIP3   OH228116   6.464   4.046   7.254 -0.1147  0.2394 -0.6171
 2186TIP3    H128117   6.509   4.084   7.329  0.6548  0.3196 -1.1074
 2186TIP3    H228118   6.371   4.063   7.271  0.1962  3.2730 -1.2663
 2187TIP3   OH228119   3.416   3.232   6.454 -0.1927 -0.2893  0.0740
 2187TIP3    H128120   3.349   3.271   6.399 -0.8383 -1.6379 -0.1527
 2187TIP3    H228121   3.475   3.188   6.393  0.2842 -0.0172  0.3354
 2188TIP3   OH228122   0.084   5.837   2.148 -0.1528 -0.5067  0.1680
 2188TIP3    H128123  -0.003   5.807   2.175  0.2589  0.7235  3.3015
 2188TIP3    H228124   0.081   5.932   2.161  1.6911 -0.4579  0.3852
 2189TIP3   OH228125   3.583   6.850   8.389 -0.6790 -0.3758  0.0247
 2189TIP3    H128126   3.613   6.763   8.416 -1.2310 -0.2661  1.0552
 2189TIP3    H228127   3.575   6.845   8.294  0.7927 -0.9687 -0.0953
 2190TIP3   OH228128   2.351   4.919   8.347 -0.1121  0.1073 -0.1714
 2190TIP3    H128129   2.328   4.977   8.274  0.8787 -1.2595 -1.6173
 2190TIP3    H228130   2.428   4.871   8.317 -0.5853 -1.5957  1.1523
 2191TIP3   OH228131   4.457   4.118   2.360 -0.5983 -0.2197  0.2196
 2191TIP3    H128132   4.406   4.087   2.286  0.1103 -1.6167  0.2931
 2191TIP3    H228133   4.545   4.083   2.345  0.9952  3.7283 -0.9571
 2192TIP3   OH228134   6.602   6.100   6.550  0.9259  0.2517  0.2151
 2192TIP3    H128135   6.622   6.008   6.567 -0.8190 -0.7767 -2.5777
 2192TIP3    H228136   6.688   6.141   6.542  1.8010 -1.5682 -0.3425
 2193TIP3   OH228137   5.573   2.066   1.014 -0.0720 -0.6004 -0.5512
 2193TIP3    H128138   5.577   1.983   1.061 -0.7709  0.0408  0.6767
 2193TIP3    H228139   5.575   2.041   0.921 -0.4016 -1.9819 -0.2066
 2194TIP3   OH228140   4.831   3.736   7.044  0.0236 -0.3097  0.4453
 2194TIP3    H128141   4.854   3.715   6.953 -0.4978 -1.9749  0.6520
 2194TIP3    H228142   4.847   3.655   7.092 -0.9708  0.1392  1.5955
 2195TIP3   OH228143   0.968   4.333   7.606  0.1030  0.3212  0.3417
 2195TIP3    H128144   0.897   4.356   7.547 -0.3027 -0.9883  0.2848
 2195TIP3    H228145   0.979   4.410   7.662 -1.2447  0.6103  0.2313
 2196TIP3   OH228146   1.761   2.316   7.593  0.6058  0.3174 -0.2925
 2196TIP3    H128147   1.749   2.223   7.610  0.2441  0.2589 -0.8620
 2196TIP3    H228148   1.741   2.327   7.500  2.4575  0.6648 -0.6760
 2197TIP3   OH228149   0.076   4.390   1.142 -0.4604  0.2968 -0.1806
 2197TIP3    H128150   0.122   4.445   1.206 -1.1657  0.2463  0.3810
 2197TIP3    H228151   0.038   4.452   1.081 -1.1125  0.4383  0.3567
 2198TIP3   OH228152   0.710   0.572   0.625  0.4992 -0.1713  0.0838
 2198TIP3    H128153   0.668   0.658   0.619 -1.1654 -0.8990  0.5888
 2198TIP3    H228154   0.750   0.571   0.712 -0.1850 -0.1967  0.4038
 2199TIP3   OH228155   3.182   5.240   7.480  0.0108 -0.1348 -0.2519
 2199TIP3    H128156   3.170   5.311   7.543  0.9141 -0.0646 -0.1474
 2199TIP3    H228157   3.227   5.281   7.406 -1.0893 -0.2020 -0.9839
 2200TIP3   OH228158   3.542   0.048   6.975 -0.2055 -0.0956  0.5265
 2200TIP3    H128159   3.473  -0.002   7.018  0.0005 -1.6891 -0.8822
 2200TIP3    H228160   3.514   0.053   6.883  0.5402  1.0671  0.3392
 2201TIP3   OH228161   5.396   5.331   0.888 -0.0873 -0.0613 -0.0931
 2201TIP3    H128162   5.412   5.377   0.971  1.7375 -0.5573 -0.1256
 2201TIP3    H228163   5.390   5.239   0.913 -0.7106 -0.0983 -0.3768
 2202TIP3   OH228164   0.498   3.670   7.139 -0.1480 -0.3853  0.4949
 2202TIP3    H128165   0.412   3.703   7.115 -0.6051 -0.0810  2.3995
 2202TIP3    H228166   0.560   3.724   7.090 -0.9994 -1.6157 -2.1161
 2203TIP3   OH228167   1.246   4.491   2.385 -0.3490 -0.0316  0.0308
 2203TIP3    H128168   1.278   4.580   2.400 -0.3010 -0.1019  0.3423
 2203TIP3    H228169   1.248   4.449   2.471  1.7536 -1.0582 -0.4376
 2204TIP3   OH228170   3.862   4.883   7.666  0.0640  0.0795 -0.1538
 2204TIP3    H128171   3.831   4.794   7.647 -2.4468  0.7919  0.2007
 2204TIP3    H228172   3.827   4.902   7.753  2.3778  0.7034  0.6954
 2205TIP3   OH228173   0.003   3.926   8.261  0.4883  0.1992  0.2852
 2205TIP3    H128174  -0.003   3.908   8.168 -0.7019 -1.3388  0.6006
 2205TIP3    H228175   0.060   3.857   8.296  0.0987  0.1277  0.8109
 2206TIP3   OH228176   0.010   4.354   0.144 -0.5259  0.1508  0.2666
 2206TIP3    H128177  -0.033   4.416   0.085 -0.8370 -0.3201 -0.0106
 2206TIP3    H228178  -0.028   4.269   0.121 -1.1795  0.0384  1.6066
 2207TIP3   OH228179   6.047   5.193   1.529 -0.4941 -0.5162  0.0627
 2207TIP3    H128180   6.139   5.188   1.506 -0.7914 -0.5191 -1.2009
 2207TIP3    H228181   6.023   5.103   1.553  0.1055 -0.2916  1.6177
 2208TIP3   OH228182   1.210   2.360   0.555 -0.1464 -0.4828  0.2311
 2208TIP3    H128183   1.128   2.320   0.525 -1.2809  1.0324  1.1804
 2208TIP3    H228184   1.230   2.426   0.489  0.2100 -0.7087  0.1104
 2209TIP3   OH228185   3.403   4.052   0.581 -0.0031 -0.2318 -0.0615
 2209TIP3    H128186   3.468   4.044   0.650 -0.0278 -0.3479 -0.0516
 2209TIP3    H228187   3.381   4.145   0.580  1.5948  0.1796 -1.3781
 2210TIP3   OH228188   6.124   1.710   7.206  0.2056 -0.1401  0.9181
 2210TIP3    H128189   6.172   1.658   7.141  1.0514  1.0072  0.5757
 2210TIP3    H228190   6.035   1.676   7.203 -0.0514  0.5383 -1.6235
 2211TIP3   OH228191   2.567   4.749   2.005 -0.1351  0.0414  0.0509
 2211TIP3    H128192   2.581   4.837   1.968 -1.4161  0.1543 -0.1892
 2211TIP3    H228193   2.622   4.692   1.950 -1.5249  0.2908 -1.7007
 2212TIP3   OH228194   0.347   5.432   1.588 -0.3136 -0.2067 -0.2677
 2212TIP3    H128195   0.350   5.400   1.678 -0.6020  1.9877  0.6084
 2212TIP3    H228196   0.439   5.444   1.563 -0.2361  1.0753  0.5302
 2213TIP3   OH228197   2.836   3.280   2.478 -0.3955  0.8967  0.1313
 2213TIP3    H128198   2.869   3.192   2.464  0.2365  1.0780  0.4693
 2213TIP3    H228199   2.747   3.277   2.443 -0.8742 -0.2506  1.3682
 2214TIP3   OH228200   3.477   4.722   8.652 -0.3704  0.2566 -0.0071
 2214TIP3    H128201   3.537   4.762   8.716 -1.0279  0.1223  0.7059
 2214TIP3    H228202   3.478   4.629   8.673  0.0023  0.0970 -0.7000
 2215TIP3   OH228203   5.081   4.200   0.979  0.2115 -0.2265  0.2125
 2215TIP3    H128204   5.033   4.149   1.044 -4.2685  1.9347 -1.0206
 2215TIP3    H228205   5.117   4.274   1.029  3.2664 -2.2273  1.2754
 2216TIP3   OH228206   5.001   1.154   1.478 -0.1451 -0.2686  0.6267
 2216TIP3    H128207   4.907   1.173   1.487 -0.2813 -0.6617  0.0553
 2216TIP3    H228208   5.043   1.213   1.541 -0.6702  0.8536 -0.0284
 2217TIP3   OH228209   0.700   4.725   1.423  0.1729  0.0222  0.3325
 2217TIP3    H128210   0.772   4.680   1.466 -0.3618 -1.2633 -0.0668
 2217TIP3    H228211   0.691   4.808   1.471  1.9604  0.2682  0.3131
 2218TIP3   OH228212   4.802   6.345   7.468  0.0662 -0.3400  0.1153
 2218TIP3    H128213   4.855   6.297   7.404  0.9870 -0.9182  1.2694
 2218TIP3    H228214   4.715   6.349   7.428  0.6991 -0.3281 -1.3423
 2219TIP3   OH228215   4.971   0.853   0.319 -0.1204 -0.0069  0.3988
 2219TIP3    H128216   4.919   0.782   0.281  0.0275 -0.9107  1.8225
 2219TIP3    H228217   5.012   0.814   0.396  1.0503  1.2661  0.4455
 2220TIP3   OH228218   2.651   4.631   1.550 -0.4749 -0.0532  0.3174
 2220TIP3    H128219   2.714   4.563   1.527  0.8667  0.9966  0.7892
 2220TIP3    H228220   2.566   4.595   1.523  0.2307 -1.7777  0.3024
 2221TIP3   OH228221   1.775   3.085   0.694  0.1244 -0.2291  0.2798
 2221TIP3    H128222   1.823   3.016   0.649 -0.7733  1.0856 -3.0572
 2221TIP3    H228223   1.709   3.040   0.746  0.4577 -1.9298 -0.7000
 2222TIP3   OH228224   2.977   5.054   7.670 -0.1909  0.0951 -0.0455
 2222TIP3    H128225   3.067   5.068   7.640 -0.7216  0.9316 -1.3800
 2222TIP3    H228226   2.953   4.968   7.637  0.4569 -0.5946  1.2400
 2223TIP3   OH228227   0.359   2.477   0.789 -0.0051 -0.3785 -0.0360
 2223TIP3    H128228   0.300   2.539   0.747 -0.5906 -0.2884  0.8822
 2223TIP3    H228229   0.379   2.413   0.721  0.9019  0.9888 -1.1145
 2224TIP3   OH228230   2.933   3.803   6.947  0.3265 -0.5700  0.7252
 2224TIP3    H128231   3.012   3.814   6.895  1.2690 -0.6566  2.0951
 2224TIP3    H228232   2.861   3.817   6.885  1.3874  2.2590 -0.0202
 2225TIP3   OH228233   6.468   6.307   8.153 -0.4498  0.0023 -0.3506
 2225TIP3    H128234   6.444   6.399   8.148 -1.8070 -0.3867 -1.9738
 2225TIP3    H228235   6.516   6.299   8.235  2.5237  2.7476 -1.6035
 2226TIP3   OH228236   1.500   4.774   1.150 -0.0078 -0.7402 -0.0149
 2226TIP3    H128237   1.594   4.774   1.168 -0.0765 -0.4906  0.3594
 2226TIP3    H228238   1.461   4.731   1.227 -0.2069 -0.7668 -0.1296
 2227TIP3   OH228239   2.093   1.021   0.660 -0.2281  0.2872  0.9935
 2227TIP3    H128240   2.178   1.013   0.704 -0.9920 -0.7448  2.3463
 2227TIP3    H228241   2.047   0.940   0.681 -0.4808 -0.4953 -2.1541
 2228TIP3   OH228242   4.459   3.765   0.226  0.1472 -0.5574  0.1401
 2228TIP3    H128243   4.429   3.703   0.159 -0.1086 -0.0978 -0.1793
 2228TIP3    H228244   4.387   3.828   0.234  1.2196  0.9246 -1.0844
 2229TIP3   OH228245   2.637   3.165   1.526 -0.1770 -0.1272  0.1962
 2229TIP3    H128246   2.549   3.128   1.521  0.6582 -2.2617  0.0053
 2229TIP3    H228247   2.687   3.101   1.578  1.3026  0.9428  0.1721
 2230TIP3   OH228248   2.761   6.861   1.179  0.2975 -0.0812 -0.2805
 2230TIP3    H128249   2.778   6.774   1.142 -2.5139 -0.7076 -0.2759
 2230TIP3    H228250   2.824   6.918   1.134  2.4396 -2.1154 -0.0423
 2231TIP3   OH228251   3.016   4.825   1.498 -0.4306 -0.4794 -0.1098
 2231TIP3    H128252   3.060   4.748   1.533  0.2882 -0.5963 -1.1976
 2231TIP3    H228253   3.000   4.881   1.574 -0.8023 -1.6132  0.6648
 2232TIP3   OH228254   6.223   6.075   0.149  0.1812 -0.4085 -0.4044
 2232TIP3    H128255   6.139   6.066   0.193 -0.9759  1.3452 -2.0720
 2232TIP3    H228256   6.231   5.996   0.095 -0.8524 -0.2144 -0.8779
 2233TIP3   OH228257   4.020   1.023   1.615  0.1857  0.1235 -0.2276
 2233TIP3    H128258   3.954   1.074   1.663 -1.1136 -0.0720 -1.7081
 2233TIP3    H228259   4.061   0.968   1.681  0.4483  1.8513  1.1296
 2234TIP3   OH228260   0.149   5.209   6.832 -0.1005 -0.2778  0.3124
 2234TIP3    H128261   0.124   5.123   6.865 -0.3776  0.0291  0.9163
 2234TIP3    H228262   0.102   5.271   6.888 -0.5894  0.2580 -0.6470
 2235TIP3   OH228263   5.092   3.027   1.292  0.2296  0.7715 -0.1209
 2235TIP3    H128264   5.035   2.962   1.250  0.5280  0.5611 -0.1973
 2235TIP3    H228265   5.174   2.981   1.308  0.1955  0.9102  0.5022
 2236TIP3   OH228266   2.931   1.681   0.850 -0.0991  0.0800 -0.3499
 2236TIP3    H128267   3.013   1.679   0.800  0.1211  1.5166 -0.0978
 2236TIP3    H228268   2.952   1.732   0.929 -1.4172  1.1411 -0.6450
 2237TIP3   OH228269   1.598   2.857   8.203  0.5679  0.5427  0.1070
 2237TIP3    H128270   1.672   2.795   8.209 -0.2165 -0.5035 -0.6340
 2237TIP3    H228271   1.523   2.802   8.182  0.1955  1.9510 -2.7416
 2238TIP3   OH228272   5.322   2.600   7.131 -0.2732 -0.0441 -0.1109
 2238TIP3    H128273   5.295   2.598   7.040  0.3605  1.9274 -0.3932
 2238TIP3    H228274   5.244   2.631   7.178 -0.1700  0.3517 -0.1942
 2239TIP3   OH228275   1.839   4.630   7.468 -0.3588  0.3992  0.8301
 2239TIP3    H128276   1.783   4.604   7.395  0.8540  2.0334 -0.7546
 2239TIP3    H228277   1.836   4.555   7.527 -2.4277 -0.4541 -0.2330
 2240TIP3   OH228278   3.673   1.770   1.871  0.6643  0.4965  0.2839
 2240TIP3    H128279   3.728   1.708   1.822  0.6529  2.7074 -2.8766
 2240TIP3    H228280   3.735   1.827   1.916  0.7230 -0.5047  1.5180
 2241TIP3   OH228281   2.946   0.096   0.810  0.1547 -0.1509 -0.0638
 2241TIP3    H128282   2.889   0.143   0.872 -0.7405 -1.3482  0.0659
 2241TIP3    H228283   2.915   0.123   0.724  1.2139  1.2977 -0.0256
 2242TIP3   OH228284   1.439   4.125   7.791  0.6329  0.2848  0.1877
 2242TIP3    H128285   1.505   4.165   7.735  0.9014 -1.1739 -0.6137
 2242TIP3    H228286   1.455   4.031   7.783 -2.3462 -0.2437 -1.1546
 2243TIP3   OH228287   3.851   3.626   0.453 -0.3774  0.1790 -0.0534
 2243TIP3    H128288   3.761   3.649   0.430 -0.1025  0.6357 -0.7156
 2243TIP3    H228289   3.897   3.710   0.457 -0.2453  0.0489  1.4822
 2244TIP3   OH228290   1.588   5.230   1.413  0.5641  0.6275 -0.6236
 2244TIP3    H128291   1.495   5.240   1.434  0.8120  2.1976 -0.1103
 2244TIP3    H228292   1.625   5.186   1.489  0.6231  2.1326  0.2752
 2245TIP3   OH228293   3.525   0.906   0.298 -0.4447  0.4706 -0.3171
 2245TIP3    H128294   3.470   0.947   0.231  1.4708  2.5976 -0.7485
 2245TIP3    H228295   3.469   0.898   0.375 -1.5721  1.7510 -0.9669
 2246TIP3   OH228296   3.998   3.871   0.478  0.1601  0.1562 -0.1572
 2246TIP3    H128297   3.975   3.932   0.548  1.8725  0.9954 -0.2934
 2246TIP3    H228298   4.093   3.869   0.478  0.1591 -0.9803 -1.4941
 2247TIP3   OH228299   6.315   5.125   0.651 -0.6127 -0.2769  0.9524
 2247TIP3    H128300   6.258   5.050   0.634 -0.8709  0.0231  0.4896
 2247TIP3    H228301   6.319   5.130   0.747  0.8592 -1.9743  1.0319
 2248TIP3   OH228302   0.692   5.161   0.108  0.2129  0.2431 -0.5080
 2248TIP3    H128303   0.639   5.165   0.028 -0.4838  3.8240 -0.0261
 2248TIP3    H228304   0.636   5.198   0.176  2.5047  2.1156  0.4980
 2249TIP3   OH228305   2.240   6.670   8.392 -0.2365 -0.1377 -0.4260
 2249TIP3    H128306   2.291   6.610   8.338 -1.2392 -0.2323 -1.3084
 2249TIP3    H228307   2.164   6.691   8.339  0.2937  2.3047 -0.3417
 2250TIP3   OH228308   5.607   1.808   1.064 -0.1820 -0.7578 -0.1880
 2250TIP3    H128309   5.578   1.775   1.149 -1.7408  0.2751 -0.2764
 2250TIP3    H228310   5.676   1.748   1.038 -0.8398 -2.1193  1.0273
 2251TIP3   OH228311   6.358   6.051   7.785  0.2312  0.0025  0.4384
 2251TIP3    H128312   6.400   5.996   7.719 -0.5431  0.3526 -0.3614
 2251TIP3    H228313   6.430   6.104   7.821  0.6231 -0.0309 -0.2802
 2252TIP3   OH228314   4.381   2.269   7.680 -0.4078 -0.3528 -0.1080
 2252TIP3    H128315   4.344   2.345   7.636  1.9930  0.5105 -0.8041
 2252TIP3    H228316   4.322   2.197   7.658 -1.5359  0.8662 -1.2717
 2253TIP3   OH228317   3.328   0.241   8.154 -0.4223  0.0404  0.4229
 2253TIP3    H128318   3.254   0.221   8.212 -0.4042 -0.1514  0.3803
 2253TIP3    H228319   3.326   0.172   8.088  0.6971 -0.8491  1.2805
 2254TIP3   OH228320   6.159   0.389   1.786 -0.2926  0.4661  0.5687
 2254TIP3    H128321   6.180   0.445   1.861  1.6101 -0.5671  0.8619
 2254TIP3    H228322   6.134   0.305   1.824 -0.5616  0.3084  0.0588
 2255TIP3   OH228323   5.356   1.240   7.682  0.7696 -0.7232  0.4438
 2255TIP3    H128324   5.305   1.175   7.634  0.5739  0.0239 -0.3829
 2255TIP3    H228325   5.366   1.313   7.621  2.4875 -0.6810  0.7309
 2256TIP3   OH228326   1.725   2.770   7.154  0.2789 -0.1460  0.2161
 2256TIP3    H128327   1.811   2.745   7.123  0.9337 -0.1731  1.9269
 2256TIP3    H228328   1.729   2.865   7.165  0.6700 -0.3223  1.8411
 2257TIP3   OH228329   5.069   1.450   0.408  0.2239  0.0739  0.1869
 2257TIP3    H128330   5.021   1.467   0.327  0.9943  2.0223  0.0921
 2257TIP3    H228331   5.014   1.387   0.455 -0.4788 -0.7180 -1.6067
 2258TIP3   OH228332   4.391   5.894   1.904 -0.0292  0.0378  0.5076
 2258TIP3    H128333   4.295   5.898   1.903 -0.0567  2.9254  2.5345
 2258TIP3    H228334   4.417   5.921   1.816 -1.1058  1.4952  0.6015
 2259TIP3   OH228335   2.396   2.497   0.061 -0.1237  0.3421 -0.7488
 2259TIP3    H128336   2.391   2.507   0.156 -1.7721 -0.0767 -0.7728
 2259TIP3    H228337   2.391   2.587   0.027  1.1779  0.5472 -0.4356
 2260TIP3   OH228338   0.276   0.607   8.509 -0.1912 -0.1121 -0.5963
 2260TIP3    H128339   0.184   0.606   8.535 -0.0123 -1.2433  0.0466
 2260TIP3    H228340   0.320   0.552   8.574  1.2717  1.9515  0.2578
 2261TIP3   OH228341   1.492   1.775   7.304 -0.2261  0.1478  0.0252
 2261TIP3    H128342   1.541   1.720   7.366  1.3202  0.6706 -0.6841
 2261TIP3    H228343   1.499   1.729   7.221 -0.1689  0.6784 -0.2691
 2262TIP3   OH228344   2.738   2.215   2.310 -0.1514  0.0955 -0.0381
 2262TIP3    H128345   2.816   2.170   2.340 -0.1860  0.3269  0.4074
 2262TIP3    H228346   2.726   2.287   2.372 -2.7015 -1.9306  2.0815
 2263TIP3   OH228347   0.082   4.809   2.444 -0.5157 -0.0265 -0.1309
 2263TIP3    H128348   0.154   4.871   2.461  1.0983 -1.5777 -0.9294
 2263TIP3    H228349   0.070   4.764   2.528 -1.9071  1.4789  0.5438
 2264TIP3   OH228350   1.740   4.086   1.452  0.2436 -0.1657 -0.3447
 2264TIP3    H128351   1.696   4.137   1.521 -1.9832 -0.5393 -1.3806
 2264TIP3    H228352   1.831   4.115   1.454 -0.4157  2.0359  0.7196
 2265TIP3   OH228353   0.982   5.860   0.588  0.6596 -0.0485 -0.5671
 2265TIP3    H128354   0.988   5.955   0.576 -0.0483  0.3277  1.7073
 2265TIP3    H228355   1.054   5.825   0.534  2.4258  1.9478  0.3537
 2266TIP3   OH228356   4.820   4.516   6.877  0.2615  0.0777  0.2312
 2266TIP3    H128357   4.847   4.506   6.969 -0.4009  1.6561  0.6223
 2266TIP3    H228358   4.773   4.599   6.874 -1.5476 -0.9323 -1.1424
 2267TIP3   OH228359   2.207   3.502   8.621 -0.1310 -0.2245  0.5862
 2267TIP3    H128360   2.292   3.518   8.661 -0.6960  0.5330  1.5229
 2267TIP3    H228361   2.162   3.443   8.681 -0.4586 -0.2103  0.3615
 2268TIP3   OH228362   2.770   0.499   2.191  0.1748  0.6857 -0.3187
 2268TIP3    H128363   2.796   0.453   2.271  0.5857  1.0993 -0.2091
 2268TIP3    H228364   2.715   0.571   2.222 -0.9047 -0.0324 -0.5306
 2269TIP3   OH228365   1.822   6.487   8.034  0.0092 -0.1515  0.1414
 2269TIP3    H128366   1.760   6.451   7.971  0.0659  0.5233 -0.3046
 2269TIP3    H228367   1.773   6.491   8.116  0.3335 -2.3112  0.5057
 2270TIP3   OH228368   4.792   6.087   7.623 -0.5603 -0.6107 -0.3101
 2270TIP3    H128369   4.724   6.080   7.691 -0.4899  1.2621  0.0131
 2270TIP3    H228370   4.764   6.162   7.570  0.5040 -0.7290 -1.0567
 2271TIP3   OH228371   2.880   4.692   0.330  0.0173  0.1852 -0.1699
 2271TIP3    H128372   2.861   4.688   0.424  1.2306 -0.3184  0.0634
 2271TIP3    H228373   2.889   4.601   0.303  1.1329  0.3664 -0.4571
 2272TIP3   OH228374   4.791   3.508   7.599 -0.3785  0.0508 -0.7284
 2272TIP3    H128375   4.764   3.457   7.522 -3.6934  0.0411  0.2652
 2272TIP3    H228376   4.709   3.527   7.644  1.3293  1.1780  2.1482
 2273TIP3   OH228377   2.739   6.508   1.638  0.2092 -0.1846  0.2642
 2273TIP3    H128378   2.830   6.508   1.667  0.1533  0.9832  0.4477
 2273TIP3    H228379   2.741   6.552   1.553 -0.4837  1.8594  1.2625
 2274TIP3   OH228380   5.642   2.207   1.366  0.1877 -0.2657  0.1996
 2274TIP3    H128381   5.630   2.113   1.356 -0.4014 -0.3250  1.3097
 2274TIP3    H228382   5.560   2.245   1.334  0.6831 -0.0734 -0.8796
 2275TIP3   OH228383   6.695   1.312   2.203  0.2260  0.1238  0.2262
 2275TIP3    H128384   6.610   1.268   2.207 -0.9949  2.3361  0.1128
 2275TIP3    H228385   6.694   1.373   2.276  2.1151 -0.4241  0.7488
 2276TIP3   OH228386   1.544   0.765   1.336 -0.2847  0.1671 -0.7126
 2276TIP3    H128387   1.539   0.861   1.328  0.0275  0.0805 -2.2731
 2276TIP3    H228388   1.635   0.745   1.315  0.3571 -0.3135  2.0836
 2277TIP3   OH228389   6.348   2.960   1.844 -0.1976  0.0944 -0.2256
 2277TIP3    H128390   6.267   2.965   1.894 -0.4465 -2.1544 -0.3292
 2277TIP3    H228391   6.418   2.968   1.909 -0.4490  1.7297 -0.1043
 2278TIP3   OH228392   5.342   1.984   0.825 -0.0502  0.3527  0.3427
 2278TIP3    H128393   5.319   2.075   0.841  2.2704  1.3306 -1.2635
 2278TIP3    H228394   5.299   1.935   0.896 -1.5110  2.6390  1.1322
 2279TIP3   OH228395   3.423   4.470   2.346 -0.2740 -0.3050  0.1581
 2279TIP3    H128396   3.460   4.475   2.434 -3.1817 -1.0421  1.5653
 2279TIP3    H228397   3.413   4.377   2.329  1.0672 -0.2193 -1.4133
 2280TIP3   OH228398   6.744   1.856   7.506 -0.1325 -0.3444  0.1015
 2280TIP3    H128399   6.677   1.839   7.573 -0.6806 -0.4238 -0.4613
 2280TIP3    H228400   6.726   1.944   7.474  1.5471  0.6555  1.6615
 2281TIP3   OH228401   0.728   0.966   0.089  0.0679  0.2366  0.6586
 2281TIP3    H128402   0.769   0.925   0.165  1.4957  1.2192  0.4600
 2281TIP3    H228403   0.636   0.975   0.113  0.1998 -0.8537  1.6551
 2282TIP3   OH228404   3.790   3.083   1.056 -0.2279 -0.2261 -0.4760
 2282TIP3    H128405   3.841   3.156   1.020 -0.5726 -0.3984 -1.3206
 2282TIP3    H228406   3.752   3.119   1.136 -1.8236  1.1058 -1.7537
 2283TIP3   OH228407   6.117   5.583   0.157  0.8388 -0.7158  0.0292
 2283TIP3    H128408   6.096   5.621   0.072  0.2239 -0.4377  0.2987
 2283TIP3    H228409   6.144   5.493   0.138 -2.6525 -1.8427 -0.1736
 2284TIP3   OH228410   3.444   2.458   8.494  0.1010 -0.0205 -0.1209
 2284TIP3    H128411   3.520   2.421   8.451  1.3586  0.3654  1.6396
 2284TIP3    H228412   3.386   2.383   8.510  1.5112 -0.8951  1.2063
 2285TIP3   OH228413   6.669   6.572   8.284 -0.2658 -0.3563  0.3381
 2285TIP3    H128414   6.747   6.625   8.269  0.8091 -1.7586  0.7902
 2285TIP3    H228415   6.602   6.612   8.228  1.3273 -0.3559 -1.6666
 2286TIP3   OH228416   4.258   4.057   8.676 -0.0405  0.2836 -0.1560
 2286TIP3    H128417   4.198   4.130   8.694 -0.0767  0.1741  0.1925
 2286TIP3    H228418   4.201   3.980   8.673  0.1706  0.0522  1.0724
 2287TIP3   OH228419   0.878   5.575   8.541  0.1820 -0.2245  0.1994
 2287TIP3    H128420   0.858   5.668   8.557 -0.0302 -0.4832  1.5525
 2287TIP3    H228421   0.967   5.565   8.572  0.3213 -0.4039 -0.2615
 2288TIP3   OH228422   5.475   0.723   7.537 -0.1654  0.1912 -0.1042
 2288TIP3    H128423   5.486   0.817   7.531 -1.0745  0.2813 -0.7177
 2288TIP3    H228424   5.437   0.709   7.624  3.6238 -0.0587  1.7016
 2289TIP3   OH228425   1.925   0.733   0.175 -0.0302  0.3709  0.0723
 2289TIP3    H128426   1.904   0.714   0.084 -1.9197  0.1430  0.5105
 2289TIP3    H228427   1.949   0.826   0.175  0.6204  0.2146 -0.7330
 2290TIP3   OH228428   0.176   1.818   1.994  0.6389 -0.0927 -0.6621
 2290TIP3    H128429   0.171   1.815   2.089 -1.7770 -1.8668 -0.7632
 2290TIP3    H228430   0.246   1.881   1.976  0.7660  0.7449  2.2512
 2291TIP3   OH228431   0.089   4.395   2.631  0.3361  0.2794  0.1434
 2291TIP3    H128432   0.051   4.344   2.560 -1.9189  2.1693 -0.1412
 2291TIP3    H228433   0.014   4.425   2.682  1.8197 -0.4967  3.0378
 2292TIP3   OH228434   6.567   0.052   0.216 -0.2910 -0.0975 -0.3596
 2292TIP3    H128435   6.605   0.138   0.196 -1.0801  0.2163 -0.5128
 2292TIP3    H228436   6.643  -0.007   0.217  0.1462  0.4299 -1.1986
 2293TIP3   OH228437   4.620   4.931   1.384 -0.4803  0.2969  0.2326
 2293TIP3    H128438   4.705   4.894   1.358 -0.0306  1.4801 -0.0444
 2293TIP3    H228439   4.632   4.957   1.476 -0.0501  1.7829 -0.2171
 2294TIP3   OH228440   4.955   0.292   1.691  0.0096  0.4853  0.0195
 2294TIP3    H128441   4.991   0.341   1.765  1.4068 -0.2035 -0.1677
 2294TIP3    H228442   5.025   0.293   1.626 -0.8685  0.3165 -0.9578
 2295TIP3   OH228443   5.278   1.471   7.505 -0.6036  0.2867 -0.2153
 2295TIP3    H128444   5.285   1.551   7.556 -0.3174 -0.3270  0.7304
 2295TIP3    H228445   5.348   1.478   7.440 -1.2943  1.3025 -0.8885
 2296TIP3   OH228446   3.997   3.334   8.010 -0.2823 -0.5066  0.1602
 2296TIP3    H128447   3.980   3.427   7.994 -1.0487 -0.4251  1.3074
 2296TIP3    H228448   4.030   3.331   8.100 -0.3069 -1.3403  0.1436
 2297TIP3   OH228449   0.870   6.235   1.693 -0.0666 -0.6090 -0.9280
 2297TIP3    H128450   0.936   6.287   1.646  1.3979 -1.2250  0.3468
 2297TIP3    H228451   0.798   6.295   1.709  2.2180  1.6205  1.9380
 2298TIP3   OH228452   0.339   4.232   6.690 -0.5304  0.1814  0.3951
 2298TIP3    H128453   0.255   4.219   6.734 -1.3670 -0.0318 -1.1846
 2298TIP3    H228454   0.380   4.145   6.692 -0.7708  0.0639  0.3598
 2299TIP3   OH228455   5.742   0.433   0.784 -0.5192  0.4488  0.2501
 2299TIP3    H128456   5.768   0.391   0.866  1.3578  1.3952  0.2034
 2299TIP3    H228457   5.678   0.499   0.811 -1.0577 -0.2476  0.7297
 2300TIP3   OH228458   5.345   4.429   1.346 -0.2758 -0.0138  0.3460
 2300TIP3    H128459   5.282   4.456   1.413 -0.2499  1.5573 -0.2198
 2300TIP3    H228460   5.414   4.496   1.349  0.6244 -0.8908 -0.0620
 2301TIP3   OH228461   1.746   3.345   7.155  0.0966 -0.1879 -0.5601
 2301TIP3    H128462   1.684   3.347   7.082  0.6293  2.6506 -1.0808
 2301TIP3    H228463   1.691   3.353   7.233 -0.3536 -1.0912 -0.7729
 2302TIP3   OH228464   5.215   4.404   1.093  0.2508  0.3920  0.4420
 2302TIP3    H128465   5.277   4.452   1.148  0.8028  0.4003 -0.1689
 2302TIP3    H228466   5.174   4.472   1.040  0.3107  0.3012  0.2773
 2303TIP3   OH228467   2.574   4.126   1.594 -0.2837  0.2209  0.1808
 2303TIP3    H128468   2.653   4.105   1.544  1.3299  2.4251  1.6225
 2303TIP3    H228469   2.566   4.055   1.658 -0.9018 -1.2637 -1.4633
 2304TIP3   OH228470   0.344   3.197   8.199  0.2113 -0.0275 -0.4689
 2304TIP3    H128471   0.403   3.123   8.187  0.3553  0.2389 -1.4935
 2304TIP3    H228472   0.277   3.186   8.131  0.5403  1.0646 -0.9848
 2305TIP3   OH228473   4.132   4.852   8.239 -0.0360 -0.1532 -0.4338
 2305TIP3    H128474   4.043   4.823   8.220 -0.2983  0.9977 -1.1024
 2305TIP3    H228475   4.146   4.831   8.331  0.3209 -3.5873 -1.1356
 2306TIP3   OH228476   2.742   2.140   1.838 -0.3475  0.0102 -0.1007
 2306TIP3    H128477   2.703   2.082   1.905 -1.6539  0.8085 -0.1372
 2306TIP3    H228478   2.830   2.104   1.824 -0.0525 -0.2249  2.0004
 2307TIP3   OH228479   2.508   3.214   7.325 -0.3837 -0.0269  0.2808
 2307TIP3    H128480   2.565   3.154   7.373  0.0665  0.2511  0.0997
 2307TIP3    H228481   2.448   3.157   7.277 -2.0487 -0.3261  2.5357
 2308TIP3   OH228482   5.574   3.520   7.230  0.2346 -0.4533 -0.8124
 2308TIP3    H128483   5.566   3.587   7.162 -1.0373 -1.0513 -1.2797
 2308TIP3    H228484   5.543   3.439   7.188 -1.1089 -0.7368  0.6282
 2309TIP3   OH228485   3.757   0.529   7.873  0.1926  0.2691 -0.0934
 2309TIP3    H128486   3.676   0.571   7.844 -2.0344 -1.7219  2.6788
 2309TIP3    H228487   3.800   0.593   7.929 -0.6824  0.5557  0.2616
 2310TIP3   OH228488   5.455   4.880   2.867 -0.5190 -0.0437  0.0135
 2310TIP3    H128489   5.517   4.817   2.830  0.2082  1.1674 -0.9134
 2310TIP3    H228490   5.458   4.954   2.807 -2.8851  0.0751 -0.0570
 2311TIP3   OH228491   0.151   5.781   7.166 -0.5943 -0.3172 -0.4226
 2311TIP3    H128492   0.056   5.791   7.169 -0.5151  0.2452  0.4003
 2311TIP3    H228493   0.185   5.854   7.216  0.2783 -0.5944 -0.5865
 2312TIP3   OH228494   1.855   5.328   0.762 -0.1447 -0.1263  0.0510
 2312TIP3    H128495   1.851   5.351   0.855  1.9227 -0.1893  0.2056
 2312TIP3    H228496   1.767   5.297   0.741 -0.6482 -0.1484  2.0016
 2313TIP3   OH228497   5.814   4.313   1.391  0.0113  0.2842  0.1436
 2313TIP3    H128498   5.797   4.315   1.296  1.8005  1.4177 -0.1941
 2313TIP3    H228499   5.787   4.226   1.418 -1.8275  0.3808 -1.1401
 2314TIP3   OH228500   1.149   2.582   0.372  0.2891  0.7992 -0.6921
 2314TIP3    H128501   1.089   2.628   0.430  0.2609  0.6684 -0.6159
 2314TIP3    H228502   1.207   2.650   0.338  2.6083  0.4884  2.2206
 2315TIP3   OH228503   6.775   3.593   2.415 -0.0939  0.4499 -0.4955
 2315TIP3    H128504   6.839   3.535   2.457 -1.8959 -0.7519  0.7013
 2315TIP3    H228505   6.695   3.582   2.466 -0.8133  3.2628 -0.8398
 2316TIP3   OH228506   1.234   4.500   1.747 -0.2068  0.7282  0.0863
 2316TIP3    H128507   1.206   4.541   1.665  3.6560  0.4242 -1.6097
 2316TIP3    H228508   1.264   4.413   1.721 -1.7509 -0.5980  2.4399
 2317TIP3   OH228509   0.130   0.808   7.303  0.9359 -0.3119  0.7272
 2317TIP3    H128510   0.137   0.811   7.207 -0.8562 -2.7823  0.4228
 2317TIP3    H228511   0.084   0.889   7.326 -2.1610 -1.3825 -1.0305
 2318TIP3   OH228512   4.574   3.707   0.701  0.1937 -0.0953 -0.0031
 2318TIP3    H128513   4.570   3.706   0.605  1.1847 -1.5941 -0.0719
 2318TIP3    H228514   4.498   3.656   0.728  0.3559 -0.3609 -0.0378
 2319TIP3   OH228515   2.029   5.554   2.223 -0.4484 -0.0850  0.2432
 2319TIP3    H128516   2.093   5.626   2.224 -0.4098 -0.1297  0.9971
 2319TIP3    H228517   2.006   5.541   2.314  0.5033 -1.8955  0.2644
 2320TIP3   OH228518   4.077   5.585   7.653  0.1975  0.6095 -0.6415
 2320TIP3    H128519   4.006   5.522   7.635  0.9600 -0.1115 -1.1968
 2320TIP3    H228520   4.143   5.567   7.586  3.3810 -2.4716  2.8320
 2321TIP3   OH228521   2.300   5.847   8.178 -0.9628 -0.5624  0.2612
 2321TIP3    H128522   2.328   5.784   8.112 -0.4231  0.0570 -0.1110
 2321TIP3    H228523   2.205   5.835   8.185 -0.6396 -2.8304  1.6773
 2322TIP3   OH228524   0.909   3.446   8.294  0.5578  0.4262  0.5094
 2322TIP3    H128525   0.885   3.439   8.386 -0.0313  0.4728  0.3645
 2322TIP3    H228526   0.851   3.514   8.259 -0.4555 -0.7771 -0.2855
 2323TIP3   OH228527   6.333   1.668   1.122  0.2075 -0.2647 -0.0336
 2323TIP3    H128528   6.339   1.760   1.094 -2.0033  0.0927  0.5235
 2323TIP3    H228529   6.405   1.658   1.184 -0.7637  1.7230  1.5087
 2324TIP3   OH228530   0.643   4.405   7.726 -0.0229  0.1203 -0.4957
 2324TIP3    H128531   0.674   4.444   7.808 -1.0558 -2.3333  1.1631
 2324TIP3    H228532   0.548   4.416   7.729 -0.3267 -2.2717 -0.0578
 2325TIP3   OH228533   0.059   6.404   8.157 -0.3833 -0.1501  0.3477
 2325TIP3    H128534   0.086   6.494   8.174 -1.4514  0.4045 -0.7831
 2325TIP3    H228535   0.043   6.367   8.244 -0.5560  0.9572  0.8038
 2326TIP3   OH228536   3.974   3.322   1.338  0.1216 -0.5063 -0.4287
 2326TIP3    H128537   4.001   3.230   1.338 -1.2843 -0.9483 -0.2090
 2326TIP3    H228538   3.885   3.320   1.303  0.7617  1.0143 -2.2961
 2327TIP3   OH228539   5.622   1.841   0.760 -0.3032  0.4559 -0.6073
 2327TIP3    H128540   5.578   1.835   0.845  0.6989 -0.3548 -0.1137
 2327TIP3    H228541   5.670   1.759   0.753 -0.8712  0.2206 -2.2673
 2328TIP3   OH228542   5.883   4.572   2.219  0.0413  0.0755  0.3533
 2328TIP3    H128543   5.857   4.565   2.311 -1.0116 -0.3038  0.0393
 2328TIP3    H228544   5.943   4.498   2.206 -0.5657 -0.4532  0.4960
 2329TIP3   OH228545   4.222   2.855   0.294 -0.3216 -0.0183 -0.0295
 2329TIP3    H128546   4.181   2.899   0.220 -0.4116 -0.1463 -0.0561
 2329TIP3    H228547   4.241   2.767   0.262  1.0977  0.4076 -0.4125
 2330TIP3   OH228548   4.448   4.291   8.521 -0.6961  0.4763  0.5884
 2330TIP3    H128549   4.389   4.337   8.581  0.7947  3.4192 -0.0400
 2330TIP3    H228550   4.531   4.337   8.529  0.3338 -0.8224 -1.6988
 2331TIP3   OH228551   3.359   4.166   7.812  0.6715  0.3609  0.4879
 2331TIP3    H128552   3.442   4.213   7.798  1.3296 -0.7585  0.5381
 2331TIP3    H228553   3.379   4.075   7.790  0.0257 -0.3309  2.5287
 2332TIP3   OH228554   3.999   6.485   1.619 -0.1063  0.1242 -0.1882
 2332TIP3    H128555   4.091   6.473   1.644  0.0538  1.7437  0.1077
 2332TIP3    H228556   3.981   6.412   1.560  1.4381 -0.1026 -0.4262
 2333TIP3   OH228557   5.074   1.659   1.784 -0.9413 -0.1663 -0.0943
 2333TIP3    H128558   5.001   1.608   1.748 -0.3535 -1.8767  1.0268
 2333TIP3    H228559   5.114   1.602   1.849  0.2809  1.4400  0.6495
 2334TIP3   OH228560   5.530   4.805   7.939  0.0037  0.4281  0.3781
 2334TIP3    H128561   5.573   4.727   7.905  1.3295  1.5883 -0.7017
 2334TIP3    H228562   5.487   4.844   7.863 -1.0384  0.5407  1.0018
 2335TIP3   OH228563   5.937   1.294   8.389  0.6471  0.3830 -0.0086
 2335TIP3    H128564   6.002   1.313   8.321  0.5465  1.0278  0.0683
 2335TIP3    H228565   5.861   1.348   8.365  0.1387 -0.3626 -0.0942
 2336TIP3   OH228566   0.519   2.664   0.454 -0.2626 -0.4932 -0.3418
 2336TIP3    H128567   0.546   2.586   0.405 -1.5440 -0.5866 -0.9548
 2336TIP3    H228568   0.600   2.713   0.469  0.6435 -2.1459  0.4531
 2337TIP3   OH228569   4.084   6.352   8.582 -0.4966 -0.1601 -0.4384
 2337TIP3    H128570   4.023   6.348   8.508 -0.4751  0.5636 -0.4988
 2337TIP3    H228571   4.086   6.262   8.616 -1.9004 -0.1172 -0.1791
 2338TIP3   OH228572   1.413   4.732   0.142 -0.3609 -0.0174 -0.5895
 2338TIP3    H128573   1.459   4.657   0.181 -0.5691 -0.1984 -0.6840
 2338TIP3    H228574   1.360   4.767   0.213  0.2082  0.4305 -0.3751
 2339TIP3   OH228575   5.455   5.355   1.857 -0.5215 -0.2495  0.2437
 2339TIP3    H128576   5.401   5.411   1.801 -0.3570  1.4421  1.6922
 2339TIP3    H228577   5.403   5.275   1.868 -1.3872  0.1438 -0.7671
 2340TIP3   OH228578   5.297   6.065   6.663  0.5187 -0.1824  0.6347
 2340TIP3    H128579   5.235   6.125   6.622  0.1960  0.1662  1.6219
 2340TIP3    H228580   5.288   6.080   6.757  1.3264 -0.8942  0.8439
 2341TIP3   OH228581   4.335   1.761   7.190  0.0839  0.0943 -0.3184
 2341TIP3    H128582   4.243   1.778   7.173 -0.0381 -0.0563  0.1898
 2341TIP3    H228583   4.340   1.666   7.207  0.2937  0.1385 -0.1175
 2342TIP3   OH228584   1.964   2.698   1.953  0.0990 -0.0248 -0.3271
 2342TIP3    H128585   1.902   2.769   1.969  1.8877  1.0567  2.5933
 2342TIP3    H228586   1.918   2.619   1.983  0.0813  0.7525  1.8207
 2343TIP3   OH228587   5.764   1.776   6.618  0.5890 -0.4076  0.3057
 2343TIP3    H128588   5.697   1.716   6.587  0.5257  0.4149 -1.2470
 2343TIP3    H228589   5.793   1.823   6.540  0.7203  1.5010  1.4193
 2344TIP3   OH228590   4.702   2.922   8.231  0.0943 -0.0360 -0.6151
 2344TIP3    H128591   4.736   2.990   8.172  1.0219 -0.5322 -0.6857
 2344TIP3    H228592   4.632   2.964   8.280  1.4804  1.3629  0.2592
 2345TIP3   OH228593   2.330   0.088   8.449 -0.2854  0.2022 -0.1147
 2345TIP3    H128594   2.345   0.087   8.543  0.1077  2.8457 -0.0880
 2345TIP3    H228595   2.286   0.005   8.431  0.4420 -0.7755  2.2295
 2346TIP3   OH228596   1.107   0.896   7.805 -0.8118  0.2802 -0.3064
 2346TIP3    H128597   1.064   0.949   7.738  1.7374  3.3710  0.2163
 2346TIP3    H228598   1.135   0.960   7.871  1.9661 -1.8111  0.7394
 2347TIP3   OH228599   2.809   1.531   7.662  0.6748 -0.4830  0.0896
 2347TIP3    H128600   2.781   1.622   7.647  1.8665 -0.1658 -0.3450
 2347TIP3    H228601   2.782   1.484   7.583  1.3154 -0.1830 -0.3197
 2348TIP3   OH228602   3.926   5.421   8.275  0.5697  0.0987  0.4693
 2348TIP3    H128603   3.920   5.436   8.369 -0.0706  0.0934  0.4352
 2348TIP3    H228604   3.835   5.422   8.245  0.6572 -1.3344  0.0693
 2349TIP3   OH228605   1.611   5.101   1.859  1.1577 -0.1562 -0.2105
 2349TIP3    H128606   1.671   5.092   1.933  3.2230 -3.6080 -2.0730
 2349TIP3    H228607   1.529   5.062   1.890  0.6952  1.8660  1.3686
 2350TIP3   OH228608   0.546   2.991   0.265 -0.6067 -0.2592 -0.0468
 2350TIP3    H128609   0.494   3.020   0.341 -1.1174 -0.2351 -0.4003
 2350TIP3    H228610   0.619   2.944   0.304 -0.3293  0.5826  0.5070
 2351TIP3   OH228611   6.528   1.355   8.194  0.5347 -0.7625  0.3390
 2351TIP3    H128612   6.484   1.305   8.126 -1.4749  2.1550 -0.7470
 2351TIP3    H228613   6.456   1.394   8.244  1.9759 -1.4752  3.1440
 2352TIP3   OH228614   4.511   0.362   7.754 -0.1001  0.0141 -0.4921
 2352TIP3    H128615   4.513   0.355   7.850 -1.5336 -0.6120 -0.4854
 2352TIP3    H228616   4.577   0.299   7.724 -0.2471 -0.4154  0.0691
 2353TIP3   OH228617   3.448   1.599   1.783 -0.2889  0.5554  0.1997
 2353TIP3    H128618   3.530   1.647   1.787 -0.9741  1.9527 -1.1986
 2353TIP3    H228619   3.392   1.651   1.724 -2.4871  0.1525  1.7876
 2354TIP3   OH228620   5.244   0.080   7.019  0.3394 -0.3638  0.4360
 2354TIP3    H128621   5.245   0.046   7.109 -2.4695 -0.1774  0.6152
 2354TIP3    H228622   5.167   0.136   7.015  1.5653  1.3311 -1.5474
 2355TIP3   OH228623   3.041   3.491   0.499 -0.4684  0.3069 -0.2498
 2355TIP3    H128624   3.055   3.422   0.563 -0.6421  0.0579 -0.4769
 2355TIP3    H228625   3.009   3.565   0.550 -0.0964  0.2851  0.0218
 2356TIP3   OH228626   2.450   1.586   1.573 -0.2300  0.0228  0.7797
 2356TIP3    H128627   2.484   1.499   1.552 -0.3339  0.2232 -0.2623
 2356TIP3    H228628   2.382   1.570   1.637 -0.0241 -0.6361  0.8418
 2357TIP3   OH228629   3.458   2.880   1.323  0.0481 -0.4434 -0.5770
 2357TIP3    H128630   3.379   2.895   1.375 -1.2260 -1.8553 -2.0183
 2357TIP3    H228631   3.483   2.790   1.342  1.8734  0.2415  0.5178
 2358TIP3   OH228632   3.099   0.550   7.629  0.0623  0.6731  0.7077
 2358TIP3    H128633   3.055   0.591   7.554  0.3706 -1.3554 -0.6759
 2358TIP3    H228634   3.184   0.522   7.594  0.4021  0.1028  1.9382
 2359TIP3   OH228635   1.664   0.715   7.817  0.4795  0.1524  0.2399
 2359TIP3    H128636   1.624   0.631   7.839  0.7595  0.1905  0.9332
 2359TIP3    H228637   1.697   0.704   7.728  0.1636 -0.3397  0.1829
 2360TIP3   OH228638   4.837   0.358   7.994 -0.0865  0.0092  0.1477
 2360TIP3    H128639   4.859   0.296   7.925  1.9394 -0.8979  1.5123
 2360TIP3    H228640   4.795   0.304   8.062  0.5238  0.3550  0.8089
 2361TIP3   OH228641   1.712   6.809   7.044 -0.5308 -0.1275 -0.2240
 2361TIP3    H128642   1.685   6.795   7.135 -1.0027  1.7063 -0.0396
 2361TIP3    H228643   1.693   6.727   7.000 -1.3569 -0.6760  1.0949
 2362TIP3   OH228644   3.186   1.798   7.668 -0.2925  0.0954  0.1730
 2362TIP3    H128645   3.114   1.849   7.706 -0.2234  0.2612  0.0851
 2362TIP3    H228646   3.207   1.733   7.734  0.0616  0.6043  0.5742
 2363TIP3   OH228647   3.583   4.284   8.395 -0.0095 -0.3052 -0.3682
 2363TIP3    H128648   3.600   4.249   8.307 -0.2710 -2.2837  0.3390
 2363TIP3    H228649   3.540   4.368   8.378  0.5571 -0.3127 -2.1260
 2364TIP3   OH228650   2.866   1.418   0.295 -0.2604  0.2768  0.6537
 2364TIP3    H128651   2.854   1.506   0.330 -0.1978 -0.5185  2.9024
 2364TIP3    H228652   2.779   1.377   0.304 -0.5048  0.3176 -1.1475
 2365TIP3   OH228653   5.703   6.869   1.671  0.0916 -0.1906 -0.1529
 2365TIP3    H128654   5.713   6.779   1.702 -3.0535 -0.9548 -1.0109
 2365TIP3    H228655   5.685   6.920   1.750 -0.5665 -0.7676  0.0716
 2366TIP3   OH228656   2.361   3.296   1.166  0.9495  0.9987  0.4981
 2366TIP3    H128657   2.392   3.213   1.131  0.6089  1.5630 -1.2246
 2366TIP3    H228658   2.310   3.272   1.244 -0.2771 -0.5517 -0.7238
 2367TIP3   OH228659   6.752   0.347   2.387 -0.7756  0.2072 -0.6304
 2367TIP3    H128660   6.795   0.386   2.463  1.3916 -2.9654  0.0073
 2367TIP3    H228661   6.792   0.391   2.312  0.8566 -0.0321  0.0461
 2368TIP3   OH228662   0.302   1.563   6.739 -0.1481 -0.1738 -0.6638
 2368TIP3    H128663   0.224   1.568   6.685 -0.6583  0.4881  0.1216
 2368TIP3    H228664   0.300   1.642   6.794  1.1991 -0.0019 -0.8079
 2369TIP3   OH228665   2.367   1.942   7.797 -0.7480  0.1047 -0.3259
 2369TIP3    H128666   2.385   2.000   7.723 -1.2246  2.1788  1.1146
 2369TIP3    H228667   2.274   1.921   7.789 -0.6759 -0.1130 -0.6046
 2370TIP3   OH228668   3.766   2.755   1.390  0.1601  0.3258 -0.6222
 2370TIP3    H128669   3.723   2.815   1.329 -0.3886 -0.5291 -1.1008
 2370TIP3    H228670   3.860   2.768   1.375  0.0509 -0.6583 -2.4759
 2371TIP3   OH228671   3.105   2.475   7.596  0.2420 -0.2580  0.1165
 2371TIP3    H128672   3.146   2.437   7.519  0.9716  2.7568 -1.1287
 2371TIP3    H228673   3.012   2.481   7.574  0.3668  0.0968 -0.3197
 2372TIP3   OH228674   1.911   4.201   0.461 -0.2442  0.1821 -0.1926
 2372TIP3    H128675   1.951   4.114   0.462 -0.4276  0.0941 -0.4052
 2372TIP3    H228676   1.848   4.197   0.389  0.8672  0.9899 -1.2526
 2373TIP3   OH228677   0.617   6.078   7.808 -0.0531  0.6069  0.1104
 2373TIP3    H128678   0.676   6.131   7.754  0.0568 -0.1959 -0.5677
 2373TIP3    H228679   0.537   6.130   7.813  0.2864  1.1516  0.0285
 2374TIP3   OH228680   4.114   5.108   0.426 -0.1414  0.3573 -0.2222
 2374TIP3    H128681   4.178   5.120   0.356  0.2729  2.2068  0.4004
 2374TIP3    H228682   4.146   5.033   0.475 -0.5361 -1.0937 -2.0556
 2375TIP3   OH228683   0.812   2.363   1.176 -0.1720  0.0756 -0.7814
 2375TIP3    H128684   0.725   2.398   1.198 -0.6035 -0.4854 -1.5265
 2375TIP3    H228685   0.844   2.421   1.107 -0.1971 -0.0568 -0.9035
 2376TIP3   OH228686   2.572   0.243   6.737  0.0573  0.4961  0.1073
 2376TIP3    H128687   2.570   0.195   6.820  0.6483  1.2430  0.5639
 2376TIP3    H228688   2.649   0.209   6.692  0.0724  0.5129  0.1205
 2377TIP3   OH228689   3.270   6.487   8.007  0.5836 -0.6076 -0.0005
 2377TIP3    H128690   3.256   6.581   8.015 -2.1047 -0.8461 -1.0773
 2377TIP3    H228691   3.261   6.453   8.096 -0.7581 -0.0670  0.0911
 2378TIP3   OH228692   1.705   5.797   1.090 -0.9888 -0.3653 -0.0114
 2378TIP3    H128693   1.655   5.769   1.167 -0.2070 -0.4817  0.4679
 2378TIP3    H228694   1.783   5.741   1.091  0.5824  1.7116  0.9119
 2379TIP3   OH228695   0.052   2.681   1.743 -0.0954  0.2570  0.5293
 2379TIP3    H128696  -0.005   2.675   1.820  0.6807 -1.2880  1.0197
 2379TIP3    H228697  -0.008   2.692   1.669 -0.8592  1.6489  1.3130
 2380TIP3   OH228698   1.408   1.373   2.200  0.5564 -0.1587 -1.3586
 2380TIP3    H128699   1.341   1.329   2.253  1.7432  0.9558  1.2300
 2380TIP3    H228700   1.454   1.302   2.156  0.1458 -1.2397 -0.1064
 2381TIP3   OH228701   0.453   5.441   7.358  0.1025  0.8079  0.5642
 2381TIP3    H128702   0.507   5.448   7.279 -1.5271  0.5480 -0.6477
 2381TIP3    H228703   0.425   5.531   7.376 -1.2691  0.6354 -0.5023
 2382TIP3   OH228704   2.645   0.130   7.883 -1.0913  0.2725 -0.7299
 2382TIP3    H128705   2.637   0.163   7.794 -0.5136 -0.1118 -0.9322
 2382TIP3    H228706   2.609   0.041   7.880 -2.9648  0.9538 -0.1096
 2383TIP3   OH228707   0.836   4.514   7.933 -0.7837 -0.0235 -0.5446
 2383TIP3    H128708   0.753   4.502   7.980 -0.9834  0.6510 -0.7007
 2383TIP3    H228709   0.895   4.449   7.970 -0.9811  0.3947  0.5440
 2384TIP3   OH228710   1.524   2.851   8.525  0.1383 -0.4318  0.3010
 2384TIP3    H128711   1.497   2.764   8.497  1.0683 -1.3150  2.0272
 2384TIP3    H228712   1.618   2.844   8.540  0.4931  1.2600 -0.8118
 2385TIP3   OH228713   6.274   4.860   1.636  0.2308  0.0057 -0.8554
 2385TIP3    H128714   6.220   4.924   1.682  1.6403 -0.2172  1.2375
 2385TIP3    H228715   6.361   4.902   1.630  0.0614  0.1471 -3.6683
 2386TIP3   OH228716   6.223   6.850   0.792 -0.0195 -0.2785 -0.3445
 2386TIP3    H128717   6.178   6.910   0.851 -0.6095 -1.4908  0.4960
 2386TIP3    H228718   6.298   6.819   0.843  0.1597 -0.4114 -0.6872
 2387TIP3   OH228719   1.214   0.178   1.431 -1.0198  0.2548  0.2913
 2387TIP3    H128720   1.234   0.247   1.494 -1.0274  0.4303  0.0994
 2387TIP3    H228721   1.129   0.202   1.395 -0.0613  1.3263 -1.3793
 2388TIP3   OH228722   1.980   2.784   7.489 -0.4194 -0.4516  0.2431
 2388TIP3    H128723   2.007   2.694   7.506  1.9581  0.0957 -0.3239
 2388TIP3    H228724   1.891   2.789   7.523  0.7902 -1.8776  4.1004
 2389TIP3   OH228725   0.848   1.956   7.164  0.3573 -0.4083 -0.2673
 2389TIP3    H128726   0.768   2.001   7.191  0.1996 -0.6279 -0.3622
 2389TIP3    H228727   0.844   1.956   7.068  0.8465  0.2513 -0.2941
 2390TIP3   OH228728   3.311   6.463   1.100 -0.3447  0.5958 -0.0566
 2390TIP3    H128729   3.267   6.540   1.135 -1.3023  0.3072 -0.6066
 2390TIP3    H228730   3.303   6.472   1.005 -0.3430 -0.1182 -0.1276
 2391TIP3   OH228731   4.673   0.312   2.594 -0.0378  0.3254 -0.4493
 2391TIP3    H128732   4.616   0.374   2.547  1.9030  1.2951 -1.6552
 2391TIP3    H228733   4.705   0.253   2.526  1.0243  0.3139  0.0398
 2392TIP3   OH228734   5.524   2.066   7.008 -0.0933  0.5529 -0.1194
 2392TIP3    H128735   5.434   2.099   6.999 -0.4390 -0.6479 -1.3759
 2392TIP3    H228736   5.543   2.074   7.102 -1.5748  0.6734  0.1944
 2393TIP3   OH228737   1.662   2.228   8.571 -0.7644  0.0885  0.7583
 2393TIP3    H128738   1.735   2.288   8.556 -0.5451 -0.7005 -1.7949
 2393TIP3    H228739   1.605   2.274   8.633  0.0334  2.3808 -0.1007
 2394TIP3   OH228740   3.894   2.767   8.134  0.1391 -0.1531 -0.4250
 2394TIP3    H128741   3.863   2.701   8.196 -1.5894 -0.0757 -1.1367
 2394TIP3    H228742   3.818   2.785   8.079  0.9086  1.5837 -0.9908
 2395TIP3   OH228743   2.335   2.447   7.244 -0.7278 -0.4569 -0.3477
 2395TIP3    H128744   2.240   2.450   7.231 -0.8792 -0.6403  0.6565
 2395TIP3    H228745   2.356   2.354   7.245 -0.8865 -0.5075  1.6836
 2396TIP3   OH228746   2.393   4.219   0.337  0.0128  0.2451 -0.5984
 2396TIP3    H128747   2.326   4.281   0.366  2.3003  2.2400  0.7081
 2396TIP3    H228748   2.419   4.251   0.250 -0.4407 -0.3461 -0.9661
 2397TIP3   OH228749   3.300   0.220   1.651 -0.0944  0.7823 -0.4131
 2397TIP3    H128750   3.257   0.233   1.735  0.0569 -1.2781  0.0453
 2397TIP3    H228751   3.228   0.210   1.588 -0.2802 -0.2221 -0.0628
 2398TIP3   OH228752   5.025   5.634   8.282 -0.1088  0.0138 -0.0202
 2398TIP3    H128753   5.085   5.708   8.278  0.2134 -0.2927 -1.8113
 2398TIP3    H228754   5.038   5.588   8.199  0.3785 -2.5953  1.3930
 2399TIP3   OH228755   5.159   0.057   0.218  0.1450 -0.2045  0.4257
 2399TIP3    H128756   5.159  -0.025   0.267  0.3941 -0.4116  0.0832
 2399TIP3    H228757   5.228   0.046   0.152  1.0861  0.7687  1.1903
 2400TIP3   OH228758   3.581   3.069   6.308  0.3616 -0.5324  0.2848
 2400TIP3    H128759   3.589   2.982   6.347  2.3079 -1.6204 -2.2939
 2400TIP3    H228760   3.653   3.075   6.246 -0.5246  2.4208 -0.6415
 2401TIP3   OH228761   5.214   2.972   0.670 -0.3516 -0.2263 -0.3326
 2401TIP3    H128762   5.193   3.065   0.663 -0.6158  0.0439  2.6041
 2401TIP3    H228763   5.132   2.927   0.646 -0.4577  0.3115 -0.9987
 2402TIP3   OH228764   6.580   3.539   8.105  0.1851 -1.0071  0.0607
 2402TIP3    H128765   6.621   3.556   8.189 -1.6848  2.9115  0.4348
 2402TIP3    H228766   6.641   3.574   8.040  0.0233 -0.5755  0.1361
 2403TIP3   OH228767   0.144   1.771   1.706  0.5973 -0.4550 -0.5120
 2403TIP3    H128768   0.204   1.782   1.779  0.5323 -1.5564 -0.2673
 2403TIP3    H228769   0.177   1.693   1.660 -0.4387 -0.8787 -0.5646
 2404TIP3   OH228770   0.800   3.462   8.551  0.1418 -0.8197  0.4065
 2404TIP3    H128771   0.709   3.482   8.531 -0.2559  0.4578  3.0581
 2404TIP3    H228772   0.796   3.407   8.630  1.6592 -0.9976  0.3955
 2405TIP3   OH228773   0.836   1.046   7.180 -0.5889  0.0516 -0.4304
 2405TIP3    H128774   0.899   1.090   7.237  0.1020  0.0963 -1.1964
 2405TIP3    H228775   0.756   1.097   7.188  0.1830  1.4736 -1.2708
 2406TIP3   OH228776   5.618   1.180   7.725  0.2398 -0.0935  0.2732
 2406TIP3    H128777   5.525   1.201   7.725  0.6188  1.7763 -1.3353
 2406TIP3    H228778   5.626   1.107   7.664  0.2344  2.2031 -2.6751
 2407TIP3   OH228779   1.957   5.415   0.104 -0.4933  0.0559  0.0508
 2407TIP3    H128780   1.991   5.326   0.095 -1.0685 -0.2359  0.6833
 2407TIP3    H228781   2.019   5.469   0.056  0.8873 -0.4594  1.1792
 2408TIP3   OH228782   4.877   2.396   7.833  0.1561  0.2956  0.9155
 2408TIP3    H128783   4.786   2.401   7.802  0.0531 -2.3550  0.4787
 2408TIP3    H228784   4.928   2.381   7.753  1.0324  1.9337  1.1408
 2409TIP3   OH228785   1.624   4.307   2.099  0.4697  0.6902 -0.0504
 2409TIP3    H128786   1.553   4.319   2.163  1.9368  0.2414  1.7462
 2409TIP3    H228787   1.696   4.358   2.135  2.0303 -1.3173 -0.1943
 2410TIP3   OH228788   2.161   5.131   1.113  0.1711  0.0918 -0.2151
 2410TIP3    H128789   2.257   5.135   1.117  0.1280  0.1647  1.3039
 2410TIP3    H228790   2.134   5.112   1.202 -1.2735  0.7756 -0.4765
 2411TIP3   OH228791   0.410   1.014   6.451  0.3610  0.6085  0.0092
 2411TIP3    H128792   0.425   0.998   6.358 -0.2533  1.3170 -0.2180
 2411TIP3    H228793   0.462   1.093   6.470 -0.1086  0.9004  0.0891
 2412TIP3   OH228794   4.368   5.227   7.148  0.1540  0.0255  0.3024
 2412TIP3    H128795   4.411   5.157   7.195 -1.6738 -1.5385 -0.2341
 2412TIP3    H228796   4.359   5.194   7.058 -2.1971  0.2058  0.4180
 2413TIP3   OH228797   1.425   3.346   8.323 -0.1472  0.2815 -0.0652
 2413TIP3    H128798   1.368   3.376   8.252 -1.4581 -1.2545  0.2764
 2413TIP3    H228799   1.409   3.252   8.328 -0.2248  0.3657  2.3649
 2414TIP3   OH228800   5.762   2.193   7.404 -0.0536 -0.6751  0.0929
 2414TIP3    H128801   5.700   2.256   7.440  0.4191  1.4561 -2.4761
 2414TIP3    H228802   5.848   2.226   7.432  0.1908 -0.2345 -1.1295
 2415TIP3   OH228803   4.588   0.701   7.955  0.1991 -0.0267  0.3358
 2415TIP3    H128804   4.521   0.684   8.022 -0.5403  0.2837 -0.3095
 2415TIP3    H228805   4.548   0.766   7.897  1.1139  0.2604  0.0048
 2416TIP3   OH228806   0.641   6.089   8.253 -0.2467 -0.1768  0.0860
 2416TIP3    H128807   0.588   6.100   8.331 -0.3143  0.4190 -0.0414
 2416TIP3    H228808   0.662   5.995   8.251 -0.1924 -0.1854  0.8437
 2417TIP3   OH228809   2.009   2.039   0.634 -0.6862  0.3265 -0.0282
 2417TIP3    H128810   2.018   2.063   0.542 -1.7638 -0.9371 -0.4922
 2417TIP3    H228811   1.975   1.950   0.632 -0.0976  0.0336  1.6071
 2418TIP3   OH228812   6.205   4.264   6.815  0.3636 -0.8921  0.2884
 2418TIP3    H128813   6.195   4.194   6.750 -0.6647 -0.7886  0.3180
 2418TIP3    H228814   6.116   4.287   6.840  0.6907  0.2487  0.4871
 2419TIP3   OH228815   6.047   5.355   7.417  0.2483  0.1532  0.1031
 2419TIP3    H128816   6.073   5.277   7.466 -0.3850 -0.1684 -0.0594
 2419TIP3    H228817   6.046   5.425   7.482  1.5891  0.2076  0.0994
 2420TIP3   OH228818   6.726   0.238   1.177  0.1103  0.0572 -0.3757
 2420TIP3    H128819   6.727   0.326   1.215  1.6354 -0.1732  0.1978
 2420TIP3    H228820   6.777   0.246   1.096  2.3904 -0.7317  0.8784
 2421TIP3   OH228821   4.596   6.532   8.613  0.6160 -0.4293  0.3534
 2421TIP3    H128822   4.672   6.485   8.578  0.4368 -0.9955  0.7063
 2421TIP3    H228823   4.529   6.464   8.625  0.2267 -0.0222  0.5302
 2422TIP3   OH228824   5.275   0.023   2.049 -0.3733  0.0604 -0.3127
 2422TIP3    H128825   5.255  -0.052   2.106  1.3322  0.3325  0.7062
 2422TIP3    H228826   5.272  -0.013   1.960  1.7942 -1.6185  0.2005
 2423TIP3   OH228827   2.969   4.019   7.143 -0.1841  0.1986  0.0898
 2423TIP3    H128828   2.941   3.970   7.066 -2.4485  0.5070  0.6523
 2423TIP3    H228829   2.958   4.111   7.118  0.2813  0.3308  0.3623
 2424TIP3   OH228830   1.654   3.877   8.663 -0.1170  0.0536  0.0009
 2424TIP3    H128831   1.659   3.888   8.758 -1.1149  2.1623 -0.1159
 2424TIP3    H228832   1.592   3.944   8.635  0.5866 -0.1344 -2.2061
 2425TIP3   OH228833   0.347   4.918   2.428 -0.1065 -0.5125  0.0846
 2425TIP3    H128834   0.347   4.994   2.486  1.1923 -0.6562  0.3270
 2425TIP3    H228835   0.345   4.954   2.340  0.9492 -0.1420  0.1882
 2426TIP3   OH228836   2.921   4.427   0.298  0.9176  0.6647 -0.3638
 2426TIP3    H128837   2.827   4.425   0.279  0.2706  1.3631  2.2665
 2426TIP3    H228838   2.954   4.343   0.267 -1.1845 -0.8378  1.1875
 2427TIP3   OH228839   3.525   3.975   7.691 -0.4028  0.1714  0.1814
 2427TIP3    H128840   3.508   3.882   7.678  1.9623 -0.4068  0.7580
 2427TIP3    H228841   3.529   4.012   7.603 -0.7584 -0.3839 -0.0697
 2428TIP3   OH228842   4.372   3.202   7.429  0.4202  0.3212 -0.2745
 2428TIP3    H128843   4.416   3.170   7.508 -0.7036 -1.0077 -0.1411
 2428TIP3    H228844   4.283   3.222   7.457  0.5265  1.6751 -0.8226
 2429TIP3   OH228845   2.694   2.477   1.474 -0.4632  0.0953 -0.1592
 2429TIP3    H128846   2.632   2.502   1.543  0.1632  1.0521  0.0777
 2429TIP3    H228847   2.780   2.476   1.518 -0.0789  0.5650 -0.8820
 2430TIP3   OH228848   4.831   0.609   1.434 -0.1142  0.1622 -0.3596
 2430TIP3    H128849   4.773   0.577   1.503 -1.2265  0.0571 -1.3082
 2430TIP3    H228850   4.876   0.531   1.402 -1.9185 -0.3593 -1.8356
 2431TIP3   OH228851   2.873   5.107   0.891  0.0192  0.3016  0.3208
 2431TIP3    H128852   2.835   5.124   0.805 -0.7433  0.3645  0.6596
 2431TIP3    H228853   2.806   5.138   0.953  0.0061 -0.9101  0.9360
 2432TIP3   OH228854   0.092   0.549   2.545  0.3048 -0.2393 -0.3097
 2432TIP3    H128855   0.011   0.600   2.540 -0.8352 -1.8618  0.6521
 2432TIP3    H228856   0.150   0.590   2.481 -1.6265  0.3626 -1.7872
 2433TIP3   OH228857   2.582   3.918   8.448 -0.1318  0.2024  0.0263
 2433TIP3    H128858   2.523   3.982   8.488  0.1338 -0.0791  0.8841
 2433TIP3    H228859   2.630   3.967   8.381  0.6335  1.1036  1.2092
 2434TIP3   OH228860   0.370   0.700   0.783  0.1057  0.5577  0.1318
 2434TIP3    H128861   0.444   0.733   0.732  1.1270  1.6851  2.1984
 2434TIP3    H228862   0.402   0.619   0.823  0.4200  1.2696  1.3718
 2435TIP3   OH228863   0.025   5.131   7.209  0.2908  0.5685  0.1133
 2435TIP3    H128864   0.039   5.040   7.180  0.6342  1.2495 -2.0951
 2435TIP3    H228865  -0.039   5.166   7.147  0.5164  1.9729  0.6391
 2436TIP3   OH228866   1.117   4.003   1.716 -0.2518  0.3860 -0.4332
 2436TIP3    H128867   1.023   3.988   1.704 -0.4508 -0.0827  1.3464
 2436TIP3    H228868   1.129   4.096   1.699 -1.4629  0.9342  1.3875
 2437TIP3   OH228869   1.652   6.566   6.633  0.3901 -0.3698 -0.3184
 2437TIP3    H128870   1.651   6.657   6.603 -0.9490 -0.1529  0.3286
 2437TIP3    H228871   1.693   6.518   6.561  0.1449  0.5825 -1.1201
 2438TIP3   OH228872   0.740   5.632   6.936 -0.2873  0.8949  0.1070
 2438TIP3    H128873   0.747   5.589   6.851  1.5237  0.9390  0.1771
 2438TIP3    H228874   0.829   5.663   6.954 -0.8194  1.6626  1.6196
 2439TIP3   OH228875   2.450   5.498   0.093  0.2949 -0.0317 -0.0513
 2439TIP3    H128876   2.509   5.449   0.036 -0.6070 -0.0406 -1.0214
 2439TIP3    H228877   2.506   5.536   0.160  1.1513 -1.4631  0.0618
 2440TIP3   OH228878   5.991   3.203   8.591  0.0401 -0.4790 -0.2914
 2440TIP3    H128879   5.954   3.190   8.678 -0.0801  0.2829 -0.2248
 2440TIP3    H228880   5.970   3.293   8.568  1.5767 -0.1072 -0.3794
 2441TIP3   OH228881   5.521   6.108   7.468 -0.2872 -0.4696  0.3051
 2441TIP3    H128882   5.455   6.124   7.536  0.2004 -0.4473  0.7745
 2441TIP3    H228883   5.483   6.039   7.413 -0.3028 -1.1253  1.1193
 2442TIP3   OH228884   3.400   1.806   1.466  0.6455 -0.1578  0.0722
 2442TIP3    H128885   3.373   1.714   1.466  0.3159 -0.0660  0.2699
 2442TIP3    H228886   3.363   1.842   1.385 -2.2568  0.6284  1.5749
 2443TIP3   OH228887   5.793   5.946   0.582 -0.0250  0.1245 -0.4121
 2443TIP3    H128888   5.807   5.976   0.492  1.6378 -0.6325 -0.4567
 2443TIP3    H228889   5.791   6.026   0.634  0.7201  0.5018 -0.9396
 2444TIP3   OH228890   3.777   1.880   1.482 -0.9365 -0.1624 -0.3125
 2444TIP3    H128891   3.778   1.840   1.569  0.3422  0.8892  0.1792
 2444TIP3    H228892   3.865   1.866   1.447 -1.8027 -1.7509 -2.0327
 2445TIP3   OH228893   6.186   4.975   0.933  0.2435  0.5644  0.7507
 2445TIP3    H128894   6.091   4.966   0.944  0.1159  1.0907  0.1709
 2445TIP3    H228895   6.203   5.067   0.950  0.3756  0.8808 -0.9301
 2446TIP3   OH228896   6.787   1.429   7.036 -0.1821  0.0021 -0.5553
 2446TIP3    H128897   6.877   1.410   7.062 -0.6069  1.0377  1.9476
 2446TIP3    H228898   6.796   1.496   6.968  0.9535 -0.7500 -1.1683
 2447TIP3   OH228899   3.147   4.178   7.545  0.4123 -0.1188  0.0581
 2447TIP3    H128900   3.237   4.165   7.516  0.4916 -0.7928  0.5858
 2447TIP3    H228901   3.113   4.247   7.488  0.3360 -1.8188 -2.0708
 2448TIP3   OH228902   3.129   2.107   6.278 -0.1158  0.5053  0.0974
 2448TIP3    H128903   3.220   2.078   6.270 -0.4076 -0.2243 -0.7281
 2448TIP3    H228904   3.135   2.203   6.285  0.6844  0.5301 -0.7263
 2449TIP3   OH228905   1.124   1.967   8.326 -0.2764 -0.0672 -0.2146
 2449TIP3    H128906   1.214   1.970   8.358 -0.9956  0.5633  1.9008
 2449TIP3    H228907   1.103   1.874   8.321  0.4162 -0.2141 -0.5932
 2450TIP3   OH228908   1.746   0.398   1.520  0.3530  1.0317 -0.1469
 2450TIP3    H128909   1.814   0.396   1.453  0.1760  0.4707 -0.3092
 2450TIP3    H228910   1.663   0.395   1.471  0.2251  0.0690  0.1098
 2451TIP3   OH228911   0.231   3.143   7.458 -0.7481  0.3295  0.1989
 2451TIP3    H128912   0.195   3.091   7.530  1.1548  0.8638  1.6201
 2451TIP3    H228913   0.297   3.087   7.418  0.9522  1.3405  1.4140
 2452TIP3   OH228914   3.393   6.326   2.434  0.5751 -0.7160 -0.3741
 2452TIP3    H128915   3.439   6.312   2.516 -0.4436  1.8812  0.7630
 2452TIP3    H228916   3.459   6.363   2.375  0.8717 -0.7603 -0.0736
 2453TIP3   OH228917   2.207   4.540   7.576  0.1432  0.0354 -0.0550
 2453TIP3    H128918   2.146   4.484   7.529 -0.0510  0.5618 -0.4416
 2453TIP3    H228919   2.187   4.525   7.668 -0.9662  0.6293 -0.1865
 2454TIP3   OH228920   1.380   6.230   8.153 -0.0148  0.5965 -0.5217
 2454TIP3    H128921   1.345   6.318   8.147 -0.3921  0.5799  1.0918
 2454TIP3    H228922   1.328   6.179   8.090 -1.3795  1.0451  0.2007
 2455TIP3   OH228923   1.844   4.799   1.418 -0.7001  0.2734  0.1246
 2455TIP3    H128924   1.862   4.752   1.337 -1.3986  1.2089 -0.5994
 2455TIP3    H228925   1.836   4.891   1.391 -0.7508  0.6286  1.2826
 2456TIP3   OH228926   6.371   3.584   0.271  0.0880  0.1415 -0.2793
 2456TIP3    H128927   6.431   3.539   0.330 -2.6217 -1.2147  1.6688
 2456TIP3    H228928   6.388   3.677   0.285  1.7701 -0.2082  0.1146
 2457TIP3   OH228929   2.378   5.587   1.976 -0.3493 -0.1504 -0.0474
 2457TIP3    H128930   2.393   5.648   2.048  1.1364 -0.7054  0.1375
 2457TIP3    H228931   2.351   5.642   1.903 -1.5608  0.4529  0.8187
 2458TIP3   OH228932   3.519   4.927   8.443  0.1338 -0.8365 -0.1490
 2458TIP3    H128933   3.542   4.917   8.350 -0.1830  1.9541 -0.6173
 2458TIP3    H228934   3.602   4.946   8.486 -0.1808  2.6131 -0.7547
 2459TIP3   OH228935   1.689   0.855   8.459  1.0849  0.2631  0.9985
 2459TIP3    H128936   1.716   0.943   8.434  2.5423 -0.3101  0.4039
 2459TIP3    H228937   1.652   0.864   8.546  1.6695  1.3898  1.1423
 2460TIP3   OH228938   3.211   6.426   7.049  0.3293 -0.1291  0.3488
 2460TIP3    H128939   3.275   6.449   6.981 -0.7115  1.5330 -0.1109
 2460TIP3    H228940   3.144   6.376   7.003  1.0799 -1.6329  0.7831
 2461TIP3   OH228941   1.589   0.688   7.070 -0.0382  0.6559  0.1763
 2461TIP3    H128942   1.556   0.627   7.135 -1.6729  1.5767  0.2524
 2461TIP3    H228943   1.601   0.770   7.118 -0.6313  1.1694 -0.5381
 2462TIP3   OH228944   3.135   6.757   8.297  0.4447  0.6187 -0.2027
 2462TIP3    H128945   3.182   6.758   8.214  0.3425 -0.0768 -0.2787
 2462TIP3    H228946   3.070   6.687   8.287  0.7686  0.1781  0.6320
 2463TIP3   OH228947   4.790   4.210   0.257  0.2044  0.1491 -0.2908
 2463TIP3    H128948   4.727   4.138   0.251 -2.7805  2.5429 -0.0422
 2463TIP3    H228949   4.738   4.286   0.284  3.0910  2.5521 -0.9018
 2464TIP3   OH228950   1.887   0.441   6.750 -0.0818  0.3421  0.2435
 2464TIP3    H128951   1.941   0.448   6.671  0.7447  0.9519  0.8477
 2464TIP3    H228952   1.928   0.371   6.801 -0.6488 -0.0901  0.1171
 2465TIP3   OH228953   3.248   4.257   0.878  0.0883 -0.2189 -0.5570
 2465TIP3    H128954   3.178   4.257   0.813 -0.4205  0.4997 -0.0301
 2465TIP3    H228955   3.321   4.300   0.834  0.4053 -1.4713 -1.2997
 2466TIP3   OH228956   6.065   0.496   0.411  0.2560 -0.5023  0.3044
 2466TIP3    H128957   6.027   0.557   0.348  2.1160 -0.0186 -0.4341
 2466TIP3    H228958   6.045   0.534   0.496  0.3883  0.5370 -0.1164
 2467TIP3   OH228959   0.046   5.400   6.993  0.4240  0.0685 -0.2978
 2467TIP3    H128960   0.058   5.461   6.921 -0.2758  0.6262  0.0446
 2467TIP3    H228961  -0.031   5.433   7.040  1.0370 -0.1246  0.8723
 2468TIP3   OH228962   5.287   0.720   2.417 -0.3547 -0.2752  0.2136
 2468TIP3    H128963   5.361   0.760   2.463 -0.3607  0.1377 -0.1233
 2468TIP3    H228964   5.226   0.695   2.486  0.3144 -1.0855  0.5329
 2469TIP3   OH228965   5.017   1.115   7.414  0.3075 -0.0113  0.0665
 2469TIP3    H128966   5.105   1.117   7.377  0.1130 -2.3438 -0.7296
 2469TIP3    H228967   4.972   1.046   7.365 -1.6553  0.4253  1.1306
 2470TIP3   OH228968   1.216   1.832   8.615  0.0486 -0.0229 -0.6824
 2470TIP3    H128969   1.190   1.902   8.556 -1.1669  1.1732  1.1967
 2470TIP3    H228970   1.134   1.789   8.639  0.4958 -0.3198  0.3450
 2471TIP3   OH228971   4.073   6.325   7.690  0.1369 -0.9026 -0.1954
 2471TIP3    H128972   4.103   6.415   7.685  0.1002 -0.8701  0.1449
 2471TIP3    H228973   4.099   6.286   7.606  1.8278 -1.0962  0.3837
 2472TIP3   OH228974   2.937   6.227   8.375  0.3915  0.1945  0.4397
 2472TIP3    H128975   2.912   6.169   8.446 -1.0415 -0.6165 -0.6820
 2472TIP3    H228976   2.881   6.304   8.386  0.8876  0.5098  0.7738
 2473TIP3   OH228977   6.792   5.478   0.120 -0.1657  1.1701 -0.8285
 2473TIP3    H128978   6.725   5.442   0.178  0.0467 -1.7711 -2.2346
 2473TIP3    H228979   6.862   5.507   0.178 -0.3143 -0.9173  0.4887
 2474TIP3   OH228980   5.749   5.936   1.286  0.1050 -0.2541  0.1522
 2474TIP3    H128981   5.827   5.900   1.328  0.7879  0.6740 -0.2727
 2474TIP3    H228982   5.760   5.914   1.193 -1.0149 -1.6342  0.3345
 2475TIP3   OH228983   3.857   0.861   6.860 -0.0383 -0.0602  0.0447
 2475TIP3    H128984   3.931   0.881   6.802 -0.5268 -0.2402 -0.6643
 2475TIP3    H228985   3.821   0.779   6.824 -0.5917  0.0399  0.3637
 2476TIP3   OH228986   0.336   5.660   7.769 -0.1279  0.4649  0.3747
 2476TIP3    H128987   0.303   5.677   7.857 -2.0780 -1.2372  0.0769
 2476TIP3    H228988   0.398   5.730   7.752 -2.8071  3.3584  1.4975
 2477TIP3   OH228989   2.157   5.831   1.710 -0.4998 -0.1669 -0.3945
 2477TIP3    H128990   2.135   5.814   1.802  0.2257 -0.0125 -0.1903
 2477TIP3    H228991   2.152   5.927   1.702 -2.3156 -0.2689 -0.9715
 2478TIP3   OH228992   4.609   5.952   7.298 -0.4605  0.0769  0.4487
 2478TIP3    H128993   4.680   5.895   7.267  1.5993  3.0044 -0.6580
 2478TIP3    H228994   4.529   5.905   7.275  1.0484 -3.2495  1.4759
 2479TIP3   OH228995   5.258   3.649   7.811 -0.2632  0.3582 -0.5557
 2479TIP3    H128996   5.162   3.651   7.808 -0.2918  0.6946  0.3415
 2479TIP3    H228997   5.279   3.622   7.900  0.4825  1.2101 -0.4635
 2480TIP3   OH228998   6.036   4.974   0.544  0.1267 -0.1308 -0.4157
 2480TIP3    H128999   5.972   4.925   0.492 -0.8214  0.6459 -0.0006
 2480TIP3    H229000   5.992   4.991   0.627  1.2164 -0.3830  0.2359
 2481TIP3   OH229001   4.997   6.244   1.007 -0.5543 -0.8440  0.0082
 2481TIP3    H129002   5.035   6.284   1.085 -0.3916  0.3357 -0.6568
 2481TIP3    H229003   4.945   6.313   0.967 -1.0462 -1.5834 -0.6634
 2482TIP3   OH229004   3.706   3.092   0.797  0.1350 -0.0380 -0.2082
 2482TIP3    H129005   3.669   3.084   0.885 -0.1670 -1.6812 -0.4662
 2482TIP3    H229006   3.757   3.012   0.785  2.1092  1.2138 -0.6708
 2483TIP3   OH229007   0.372   5.598   1.057 -0.4080  0.2326 -0.2043
 2483TIP3    H129008   0.350   5.541   1.131 -1.0945 -1.2002 -1.4545
 2483TIP3    H229009   0.425   5.668   1.096  0.0176 -0.9542  1.4843
 2484TIP3   OH229010   2.899   4.185   0.144  0.1079  0.0414 -0.2203
 2484TIP3    H129011   2.839   4.121   0.107 -0.6453  0.6086 -0.0250
 2484TIP3    H229012   2.911   4.250   0.075 -0.1397  0.3404  0.0121
 2485TIP3   OH229013   4.838   0.586   6.708  0.1656 -0.4539  0.0765
 2485TIP3    H129014   4.821   0.600   6.801 -1.7573  1.1510 -0.4336
 2485TIP3    H229015   4.776   0.517   6.683  0.0213 -0.2288 -0.1914
 2486TIP3   OH229016   3.956   2.223   6.445  0.3961 -0.2093  0.3884
 2486TIP3    H129017   3.954   2.255   6.535  1.9894  2.2669 -0.3666
 2486TIP3    H229018   3.928   2.297   6.392  0.5731 -1.2607 -1.2534
 2487TIP3   OH229019   2.552   3.908   7.008  0.5486  0.2815  0.4099
 2487TIP3    H129020   2.460   3.882   7.018  0.2590  0.7657 -0.8290
 2487TIP3    H229021   2.600   3.825   7.009 -0.1179 -0.1568 -0.9291
 2488TIP3   OH229022   6.362   2.886   0.372  0.2772 -0.1974 -0.4720
 2488TIP3    H129023   6.356   2.889   0.277 -0.3509 -0.2303 -0.4407
 2488TIP3    H229024   6.436   2.829   0.391  1.5487  1.2366 -0.9538
 2489TIP3   OH229025   3.847   0.059   0.488 -0.1731  0.2687 -0.0510
 2489TIP3    H129026   3.917   0.008   0.529 -0.9672 -0.0644  0.9470
 2489TIP3    H229027   3.870   0.150   0.505  0.0441  0.1628  0.2326
 2490TIP3   OH229028   1.034   2.266   8.478  0.3446 -0.3555 -0.2593
 2490TIP3    H129029   1.005   2.238   8.565 -1.1662 -0.4484 -0.7498
 2490TIP3    H229030   1.035   2.186   8.426 -1.2586  0.0139 -0.9447
 2491TIP3   OH229031   4.754   0.083   7.398  0.5057  0.1692  0.1147
 2491TIP3    H129032   4.745   0.104   7.491  1.0514 -2.0795  0.7590
 2491TIP3    H229033   4.722  -0.007   7.391  0.0609  0.4348 -1.9809
 2492TIP3   OH229034   3.974   1.286   0.102  0.7469 -0.2599 -0.4047
 2492TIP3    H129035   3.953   1.196   0.078  0.0443  0.4516 -2.8739
 2492TIP3    H229036   4.054   1.280   0.153  1.2258 -2.2304 -1.2767
 2493TIP3   OH229037   1.735   4.485   6.936 -0.6502  0.0678  0.0630
 2493TIP3    H129038   1.764   4.555   6.995 -0.9814 -0.1637  0.5047
 2493TIP3    H229039   1.724   4.408   6.993 -2.3260  0.1908 -0.0374
 2494TIP3   OH229040   5.291   4.090   0.492  0.1152  0.2049 -0.0790
 2494TIP3    H129041   5.352   4.083   0.566  0.6455 -1.4278 -0.6268
 2494TIP3    H229042   5.328   4.160   0.438  0.9540 -0.0631  0.1180
 2495TIP3   OH229043   4.423   2.851   7.947  0.9370 -0.1475  0.5298
 2495TIP3    H129044   4.398   2.916   8.013 -0.2017  0.3427 -0.3424
 2495TIP3    H229045   4.507   2.817   7.977  1.0099  0.9193  1.6041
 2496TIP3   OH229046   0.343   5.341   7.591 -0.3511  0.1593  0.3163
 2496TIP3    H129047   0.423   5.348   7.642 -0.6197  2.2496  0.5244
 2496TIP3    H229048   0.365   5.376   7.505 -1.5226  2.8709  1.0288
 2497TIP3   OH229049   4.841   4.040   2.071  0.2237  0.1353  0.1925
 2497TIP3    H129050   4.918   4.004   2.114  0.1392  1.1733  1.2668
 2497TIP3    H229051   4.842   4.001   1.984  2.1569  0.4066  0.0494
 2498TIP3   OH229052   3.688   5.970   8.165  0.1028 -0.1403 -0.3628
 2498TIP3    H129053   3.733   5.892   8.132 -0.3475 -1.4650  1.8804
 2498TIP3    H229054   3.596   5.943   8.171  0.0775  0.1927  1.3215
 2499TIP3   OH229055   6.173   2.483   7.115  0.5221 -0.5161 -0.5193
 2499TIP3    H129056   6.097   2.524   7.155 -0.5966 -1.9567 -1.0507
 2499TIP3    H229057   6.209   2.427   7.184  2.2803  1.5549  0.3313
 2500TIP3   OH229058   5.331   5.805   0.241 -0.1605 -0.0383  0.3072
 2500TIP3    H129059   5.250   5.855   0.242  0.8444  1.7106 -0.4786
 2500TIP3    H229060   5.327   5.754   0.160  0.1185  1.1512 -0.4847
 2501TIP3   OH229061   2.458   3.567   1.364 -0.2452 -0.0354  0.4203
 2501TIP3    H129062   2.443   3.474   1.346 -2.1676  0.4076 -0.5267
 2501TIP3    H229063   2.554   3.575   1.366 -0.0258 -2.0413  0.6884
 2502TIP3   OH229064   3.782   2.553   1.163 -0.4629  0.2761 -0.0744
 2502TIP3    H129065   3.715   2.531   1.098 -1.4923 -1.3044  1.3967
 2502TIP3    H229066   3.770   2.646   1.179 -1.7205  0.2155 -0.5221
 2503TIP3   OH229067   3.302   5.330   8.465  0.1328  0.1708 -0.1675
 2503TIP3    H129068   3.215   5.297   8.439 -0.0208  1.0843 -0.8907
 2503TIP3    H229069   3.285   5.380   8.544  0.0731 -0.0238 -0.0561
 2504TIP3   OH229070   2.073   5.055   1.358 -0.4687 -0.0137  0.5033
 2504TIP3    H129071   2.041   4.984   1.304  3.1879  0.1447 -2.2725
 2504TIP3    H229072   2.028   5.044   1.442 -2.8913 -3.1943 -1.0137
 2505TIP3   OH229073   5.826   6.622   0.204  0.2831 -0.8849  0.3191
 2505TIP3    H129074   5.786   6.580   0.128  1.2420  0.0703 -0.7607
 2505TIP3    H229075   5.770   6.597   0.278 -1.5204 -0.6740 -0.9148
 2506TIP3   OH229076   6.841   5.060   8.398  0.2717  0.9549  0.3888
 2506TIP3    H129077   6.849   5.044   8.492  0.6095  0.9225  0.3520
 2506TIP3    H229078   6.827   4.974   8.360 -2.4528  1.1672  0.6670
 2507TIP3   OH229079   0.463   0.550   6.618  0.0896 -0.7364 -0.0780
 2507TIP3    H129080   0.422   0.496   6.551  0.5083 -1.3692  0.1692
 2507TIP3    H229081   0.520   0.610   6.570 -0.2542 -0.6205 -0.3404
 2508TIP3   OH229082   2.808   2.763   1.155  0.1162  0.3552  0.1041
 2508TIP3    H129083   2.769   2.681   1.183 -0.2924  0.5063 -0.0180
 2508TIP3    H229084   2.781   2.827   1.222 -1.1097  0.7813 -0.7608
 2509TIP3   OH229085   1.441   2.631   8.126 -0.1604 -0.0152 -0.0539
 2509TIP3    H129086   1.505   2.560   8.135  0.3488  0.4703  0.1960
 2509TIP3    H229087   1.369   2.592   8.076  0.2846 -0.5976 -0.2485
 2510TIP3   OH229088   4.413   4.868   8.675  0.0251 -0.7672 -0.3579
 2510TIP3    H129089   4.423   4.841   8.584 -3.0065  0.1469 -1.0924
 2510TIP3    H229090   4.322   4.897   8.681  0.5463  0.6142  2.6086
 2511TIP3   OH229091   6.112   1.209   7.172 -0.4463  0.0997  0.2534
 2511TIP3    H129092   6.188   1.239   7.222  0.5526 -0.5635 -0.8201
 2511TIP3    H229093   6.041   1.205   7.236  0.9190 -1.2849  1.7436
 2512TIP3   OH229094   4.297   2.791   6.389 -0.3252 -0.2108 -0.1862
 2512TIP3    H129095   4.344   2.772   6.308  2.0920  0.8627  0.8500
 2512TIP3    H229096   4.270   2.882   6.380  0.1681 -0.0119  0.2780
 2513TIP3   OH229097   0.057   4.604   6.653  0.1077  1.0541 -0.1108
 2513TIP3    H129098   0.054   4.689   6.610  0.6971  0.5108 -1.2761
 2513TIP3    H229099   0.110   4.549   6.595 -1.1358 -0.4133  0.0531
 2514TIP3   OH229100   4.667   1.624   7.371  0.5507  1.4630  0.5019
 2514TIP3    H129101   4.643   1.597   7.460  2.3035  1.5220  1.0268
 2514TIP3    H229102   4.593   1.597   7.317 -0.1644  0.6250  1.8468
 2515TIP3   OH229103   5.600   4.899   1.172  0.2474 -0.1734  0.6349
 2515TIP3    H129104   5.671   4.901   1.236  2.5041 -1.8644 -1.5882
 2515TIP3    H229105   5.625   4.829   1.111 -2.8743 -0.1605 -0.8510
 2516TIP3   OH229106   6.123   5.697   8.593 -0.1248  0.1667 -0.1159
 2516TIP3    H129107   6.172   5.697   8.511  2.4964  0.2488  1.3608
 2516TIP3    H229108   6.086   5.785   8.598 -0.5914  0.0644 -1.3282
 2517TIP3   OH229109   1.753   3.856   0.233  0.5930 -0.0757  0.0077
 2517TIP3    H129110   1.831   3.868   0.288  1.7906  1.0326 -1.8415
 2517TIP3    H229111   1.694   3.804   0.288  1.4544  1.4551  2.5621
 2518TIP3   OH229112   0.742   0.136   7.608  0.1864 -0.0683  0.2007
 2518TIP3    H129113   0.718   0.049   7.640 -0.4829 -0.2299 -0.7039
 2518TIP3    H229114   0.838   0.137   7.610  0.1795 -0.4929  1.0569
 2519TIP3   OH229115   6.008   4.233   0.239 -0.2040  0.3381 -0.1440
 2519TIP3    H129116   5.922   4.275   0.235 -0.1646  0.4005 -0.3359
 2519TIP3    H229117   6.063   4.296   0.285 -0.6267 -0.3299  1.3551
 2520TIP3   OH229118   6.756   3.730   0.767  0.4185 -0.5288 -0.3305
 2520TIP3    H129119   6.840   3.744   0.723  0.2119  0.9190 -0.2973
 2520TIP3    H229120   6.773   3.753   0.858  0.2549 -1.3232 -0.0897
 2521TIP3   OH229121   0.824   5.545   1.117  0.6274 -0.0518 -0.3145
 2521TIP3    H129122   0.758   5.555   1.186  1.2841  0.0073  0.3077
 2521TIP3    H229123   0.782   5.487   1.053  0.4034 -0.9792  0.6385
 2522TIP3   OH229124   4.838   1.766   0.040  0.1873  0.5718 -0.6123
 2522TIP3    H129125   4.846   1.822   0.118 -1.6692 -0.3692  0.3244
 2522TIP3    H229126   4.777   1.812  -0.017 -1.6021 -0.5627  0.3048
 2523TIP3   OH229127   2.625   0.545   6.295  0.0469 -0.1577  0.6174
 2523TIP3    H129128   2.694   0.497   6.339  1.2121  0.6392 -0.2854
 2523TIP3    H229129   2.656   0.556   6.205 -0.4156  1.7424  0.6336
 2524TIP3   OH229130   6.158   6.712   0.548 -0.1785 -0.5737 -0.1759
 2524TIP3    H129131   6.196   6.753   0.626  1.7678 -0.1902 -1.2561
 2524TIP3    H229132   6.168   6.618   0.563 -0.3567 -0.5266  0.2769
 2525TIP3   OH229133   3.307   2.018   8.368 -0.4020  0.4498 -0.3398
 2525TIP3    H129134   3.315   1.926   8.395 -1.2627  0.6418  0.6295
 2525TIP3    H229135   3.362   2.025   8.290  0.8513 -0.5314  0.4187
 2526TIP3   OH229136   5.282   0.788   7.744 -0.4813  0.5460 -0.0516
 2526TIP3    H129137   5.275   0.757   7.835  1.9250 -0.0086 -0.0098
 2526TIP3    H229138   5.212   0.741   7.698 -2.3878  1.5520  1.6306
 2527TIP3   OH229139   1.602   4.833   7.698  0.0513  0.0055  0.1809
 2527TIP3    H129140   1.584   4.757   7.642 -0.5013  0.4974 -0.3299
 2527TIP3    H229141   1.692   4.820   7.728  0.5283 -0.0644 -1.1889
 2528TIP3   OH229142   6.599   0.623   1.462 -0.3364 -0.8336  0.2601
 2528TIP3    H129143   6.589   0.611   1.368  1.6660  0.6465 -0.2359
 2528TIP3    H229144   6.597   0.535   1.499 -0.9665 -1.4431 -1.1803
 2529TIP3   OH229145   4.898   1.915   0.672  0.6283 -0.3902  0.0985
 2529TIP3    H129146   4.957   1.857   0.721 -1.6739 -3.4348 -0.4215
 2529TIP3    H229147   4.869   1.862   0.598 -1.6759  1.4466 -0.4180
 2530TIP3   OH229148   3.125   1.857   0.696  0.4177  0.6051  0.0674
 2530TIP3    H129149   3.171   1.807   0.628 -0.4074 -0.1899  0.0698
 2530TIP3    H229150   3.088   1.932   0.650  0.5125  0.4790 -0.2154
 2531TIP3   OH229151   4.177   0.207   0.312 -0.6056 -0.1701 -0.0876
 2531TIP3    H129152   4.175   0.298   0.342  0.0097  0.0968 -0.8313
 2531TIP3    H229153   4.086   0.186   0.291 -0.8598  0.0284  0.7873
 2532TIP3   OH229154   6.028   4.972   1.759 -0.4344  0.0410 -0.1739
 2532TIP3    H129155   5.999   4.889   1.795 -1.5885  0.1787 -0.7517
 2532TIP3    H229156   5.985   5.038   1.812 -0.1892  0.2707 -0.2559
 2533TIP3   OH229157   0.188   4.474   7.952  0.0859 -0.0235  0.3385
 2533TIP3    H129158   0.230   4.513   8.028 -0.6823 -0.4945  1.0226
 2533TIP3    H229159   0.121   4.538   7.926 -0.0520 -0.1295  0.4300
 2534TIP3   OH229160   4.531   5.214   7.813 -0.2290  0.1957 -0.1425
 2534TIP3    H129161   4.485   5.261   7.744 -1.5531  2.1972  1.9173
 2534TIP3    H229162   4.567   5.284   7.869  2.0922 -1.3130  0.4193
 2535TIP3   OH229163   2.072   6.177   0.270 -0.3359 -0.0818 -0.0154
 2535TIP3    H129164   2.053   6.249   0.210 -0.7829 -0.9927 -1.0158
 2535TIP3    H229165   2.085   6.218   0.355  0.2828  1.2536 -0.7216
 2536TIP3   OH229166   1.742   4.697   8.583 -0.0256 -0.1064 -0.6235
 2536TIP3    H129167   1.776   4.615   8.619 -1.2907 -0.3017  0.2253
 2536TIP3    H229168   1.772   4.765   8.644  0.6003 -0.0026 -1.0462
 2537TIP3   OH229169   6.180   0.961   7.056 -0.0028 -0.0758 -0.4079
 2537TIP3    H129170   6.149   1.051   7.061 -0.8832 -0.4366  1.6189
 2537TIP3    H229171   6.146   0.919   7.135  0.3692 -2.1997 -1.2930
 2538TIP3   OH229172   6.584   1.035   8.688 -0.3457 -0.8291  0.5641
 2538TIP3    H129173   6.523   1.103   8.658  1.7694  0.3892 -1.2759
 2538TIP3    H229174   6.583   0.970   8.618  1.7424  0.1068 -0.4086
 2539TIP3   OH229175   1.645   5.639   1.301 -0.8850 -0.4335  0.0449
 2539TIP3    H129176   1.692   5.609   1.379 -1.4001 -0.2021  0.4460
 2539TIP3    H229177   1.626   5.558   1.252  0.4626 -0.4840 -0.4390
 2540TIP3   OH229178   1.507   6.064   0.728  0.4369 -0.1749  0.6700
 2540TIP3    H129179   1.441   6.133   0.722  0.6064 -0.1189 -1.2535
 2540TIP3    H229180   1.579   6.104   0.776  1.2286  1.6637 -1.8255
 2541TIP3   OH229181   1.968   2.991   0.213 -0.1884  0.3371 -0.4967
 2541TIP3    H129182   1.917   3.024   0.140  0.5496 -0.4993 -1.4166
 2541TIP3    H229183   1.903   2.950   0.271 -0.8927  1.8610 -0.1574
 2542TIP3   OH229184   4.274   6.051   1.395  0.0261 -0.3203  0.1653
 2542TIP3    H129185   4.302   5.961   1.379  0.8116 -0.1981  0.7833
 2542TIP3    H229186   4.191   6.042   1.442  0.3691 -0.7407  0.7063
 2543TIP3   OH229187   3.276   5.173   0.414  0.8203 -0.2448 -0.5952
 2543TIP3    H129188   3.329   5.155   0.492  0.8104  0.3844 -0.4394
 2543TIP3    H229189   3.260   5.086   0.376 -2.9309 -1.2263  2.5001
 2544TIP3   OH229190   1.808   6.576   7.657  0.2210  0.3667  0.5233
 2544TIP3    H129191   1.869   6.605   7.725 -0.6411 -1.1832  2.0328
 2544TIP3    H229192   1.846   6.495   7.623 -0.2745  0.1373  0.4979
 2545TIP3   OH229193   3.843   6.705   1.573  0.2072  0.4277  0.3818
 2545TIP3    H129194   3.879   6.624   1.610 -0.4462  0.2582  0.6603
 2545TIP3    H229195   3.896   6.774   1.612 -0.6178  0.2722  1.8640
 2546TIP3   OH229196   0.289   3.442   1.326  0.2519 -0.2319  0.1073
 2546TIP3    H129197   0.205   3.469   1.362  0.5603  1.0320 -0.0748
 2546TIP3    H229198   0.268   3.372   1.264 -0.7226  0.3933 -0.2881
 2547TIP3   OH229199   4.007   1.869   7.463 -0.7628 -0.1493  0.1194
 2547TIP3    H129200   4.070   1.872   7.391  0.1040  3.8560  0.7915
 2547TIP3    H229201   4.062   1.867   7.542 -1.6210 -0.6825  0.7169
 2548TIP3   OH229202   2.188   2.258   0.078  0.7565  0.0402 -0.1055
 2548TIP3    H129203   2.162   2.272  -0.013 -1.1704 -2.6944 -0.0863
 2548TIP3    H229204   2.246   2.182   0.075  1.4768  0.5334  0.8676
 2549TIP3   OH229205   5.849   4.478   0.666  1.2009  0.5934  0.1737
 2549TIP3    H129206   5.908   4.454   0.595 -0.3896 -1.0486 -0.6843
 2549TIP3    H229207   5.852   4.404   0.727 -0.7973 -0.0851 -0.4836
 2550TIP3   OH229208   0.518   3.410   2.273  1.0502 -1.1463 -0.2800
 2550TIP3    H129209   0.502   3.429   2.365  2.3564 -0.0069 -0.2679
 2550TIP3    H229210   0.521   3.314   2.268 -0.5887 -1.2710  0.5601
 2551TIP3   OH229211   5.714   1.700   1.512 -0.0494  0.1466  0.1782
 2551TIP3    H129212   5.793   1.752   1.528  0.6253 -1.1541  1.1784
 2551TIP3    H229213   5.684   1.674   1.599 -1.4461  0.4114 -0.2082
 2552TIP3   OH229214   1.252   1.311   1.358  0.2337  0.2945 -0.0031
 2552TIP3    H129215   1.260   1.227   1.312  0.4538  1.0133 -1.3265
 2552TIP3    H229216   1.208   1.289   1.439  1.1098 -1.2553  0.1083
 2553TIP3   OH229217   2.400   5.952   7.564  0.5154  0.0079  0.3491
 2553TIP3    H129218   2.412   5.901   7.484  0.2208 -1.1118  0.9883
 2553TIP3    H229219   2.310   5.984   7.559 -0.1617 -1.6724  1.0885
 2554TIP3   OH229220   2.049   4.785   1.816  0.2661 -0.3445 -0.9223
 2554TIP3    H129221   2.054   4.831   1.899  3.3435 -0.6817 -0.7996
 2554TIP3    H229222   2.135   4.745   1.805 -0.6093 -1.8219 -3.4389
 2555TIP3   OH229223   6.197   3.444   8.470  0.6443  0.1408  0.0049
 2555TIP3    H129224   6.210   3.489   8.387 -1.0308  1.1705  0.2471
 2555TIP3    H229225   6.127   3.381   8.452 -0.2040  0.8449  0.7806
 2556TIP3   OH229226   6.859   4.467   2.244 -0.1215 -0.3050 -0.5667
 2556TIP3    H129227   6.763   4.461   2.241 -0.1845  0.3573  0.0529
 2556TIP3    H229228   6.888   4.376   2.239 -0.8199 -0.6094  0.6313
 2557TIP3   OH229229   4.163   4.053   0.967 -0.1728  0.2854  0.0032
 2557TIP3    H129230   4.247   4.015   0.995 -0.5805 -0.9443 -0.3814
 2557TIP3    H229231   4.120   4.076   1.049  1.1428  2.3701  0.1817
 2558TIP3   OH229232   1.063   4.985   0.105  0.0959  0.2068  0.1550
 2558TIP3    H129233   1.042   4.933   0.027 -2.2647  1.1561  0.0987
 2558TIP3    H229234   1.016   4.943   0.176 -0.0482  0.9845  0.5285
 2559TIP3   OH229235   1.581   4.201   1.698 -0.2022 -0.2808 -0.3407
 2559TIP3    H129236   1.634   4.277   1.723 -1.8392  0.8484 -0.1410
 2559TIP3    H229237   1.552   4.164   1.781 -1.7237  0.6145 -0.4316
 2560TIP3   OH229238   3.343   1.786   8.544  0.2457  0.4228 -0.5896
 2560TIP3    H129239   3.437   1.769   8.555 -0.1440 -1.4412  0.3721
 2560TIP3    H229240   3.303   1.699   8.549 -1.5975  1.2434 -0.2812
 2561TIP3   OH229241   1.414   2.647   0.986 -0.1179 -0.5180  0.3053
 2561TIP3    H129242   1.466   2.686   0.916 -0.7239 -0.3053 -0.0259
 2561TIP3    H229243   1.421   2.709   1.058  0.9616 -1.0007  0.6365
 2562TIP3   OH229244   5.084   6.823   7.850  0.5842  0.2978 -0.0416
 2562TIP3    H129245   5.179   6.829   7.865  1.0279  1.0417 -2.5285
 2562TIP3    H229246   5.077   6.807   7.755 -1.7836 -0.5610  0.2160
 2563TIP3   OH229247   6.813   0.453   6.916  0.1748  0.1969  0.2229
 2563TIP3    H129248   6.818   0.364   6.948 -0.1565 -0.1088 -0.5563
 2563TIP3    H229249   6.878   0.501   6.968  0.1062 -0.4088  0.8840
 2564TIP3   OH229250   5.264   0.586   1.744 -0.1229  0.0440  0.3046
 2564TIP3    H129251   5.323   0.613   1.673  0.2901 -1.6352 -0.0301
 2564TIP3    H229252   5.322   0.556   1.813 -0.5608 -0.6074  0.3965
 2565TIP3   OH229253   0.461   5.127   7.328 -0.1564 -0.2567  0.3878
 2565TIP3    H129254   0.392   5.187   7.299 -0.6026 -0.8605  0.1834
 2565TIP3    H229255   0.528   5.184   7.365 -0.5185  0.3801  0.0827
 2566TIP3   OH229256   4.117   1.202   7.093 -0.5224  0.8990  0.5568
 2566TIP3    H129257   4.126   1.208   6.997  1.7075 -1.2403  0.5338
 2566TIP3    H229258   4.207   1.203   7.125 -1.1352 -0.6494  2.4695
 2567TIP3   OH229259   0.337   0.394   7.442  0.1048  0.1480 -0.2665
 2567TIP3    H129260   0.431   0.389   7.462  0.3128 -0.4055 -1.2912
 2567TIP3    H229261   0.325   0.331   7.371 -1.1540 -0.1653  0.2131
 2568TIP3   OH229262   4.445   1.401   8.119 -0.5042 -0.5938  0.1433
 2568TIP3    H129263   4.454   1.421   8.212 -0.7629 -1.0384  0.2657
 2568TIP3    H229264   4.467   1.483   8.075 -0.9959 -0.2028  0.6152
 2569TIP3   OH229265   6.299   5.106   1.454  0.6170 -0.5394  0.3507
 2569TIP3    H129266   6.348   5.054   1.517  0.1651 -0.8447  0.4545
 2569TIP3    H229267   6.286   5.047   1.380  1.0194 -0.2295  0.0268
 2570TIP3   OH229268   0.123   5.044   1.538  0.0383  0.5875 -0.4458
 2570TIP3    H129269   0.191   4.983   1.568  0.1230  0.3096 -1.1639
 2570TIP3    H229270   0.171   5.122   1.511  0.0485  0.5204 -0.6289
 2571TIP3   OH229271   4.986   2.295   0.285  0.6071  0.1159  0.2901
 2571TIP3    H129272   5.057   2.357   0.300 -0.3459  1.2702  0.2062
 2571TIP3    H229273   5.025   2.224   0.235  1.8150  0.4677  0.7099
 2572TIP3   OH229274   5.812   0.863   1.814  0.0592  0.6184  0.2797
 2572TIP3    H129275   5.800   0.875   1.908 -1.0994 -0.8907  0.3654
 2572TIP3    H229276   5.754   0.790   1.792 -0.0232  1.2314 -1.6944
 2573TIP3   OH229277   6.332   2.193   6.531 -0.3049  0.2214 -0.1106
 2573TIP3    H129278   6.266   2.191   6.461  0.3716  0.9679 -0.8001
 2573TIP3    H229279   6.415   2.180   6.485  0.0572 -0.4386  0.7127
 2574TIP3   OH229280   0.403   1.871   0.923  0.1658 -0.3976  0.0631
 2574TIP3    H129281   0.429   1.801   0.863  0.0872  0.8541 -1.5028
 2574TIP3    H229282   0.312   1.890   0.898  0.3438  0.5700  0.1372
 2575TIP3   OH229283   0.393   3.708   1.273 -0.6481  0.1351 -0.3882
 2575TIP3    H129284   0.309   3.754   1.272 -0.1044  1.2064  0.7132
 2575TIP3    H229285   0.370   3.616   1.286 -1.7217  0.1717 -1.7697
 2576TIP3   OH229286   3.880   1.488   0.296  0.4097 -0.7580 -0.4563
 2576TIP3    H129287   3.861   1.439   0.376  2.2238 -1.8161 -0.6264
 2576TIP3    H229288   3.896   1.421   0.230 -0.3209  0.1067 -1.5374
 2577TIP3   OH229289   0.089   3.203   0.557 -0.2574 -0.1494 -0.0978
 2577TIP3    H129290   0.077   3.109   0.543 -0.5188 -0.2029  0.4288
 2577TIP3    H229291   0.013   3.228   0.611 -0.2530  0.3856 -0.3416
 2578TIP3   OH229292   1.362   6.506   6.608  0.2523  0.0211 -0.3609
 2578TIP3    H129293   1.406   6.423   6.590 -1.1851 -0.9859  0.5299
 2578TIP3    H229294   1.433   6.567   6.629  1.3163 -1.0502 -0.7255
 2579TIP3   OH229295   2.745   0.446   6.615 -0.6034  0.2599  0.1833
 2579TIP3    H129296   2.668   0.458   6.671 -1.2896  0.5406 -0.7804
 2579TIP3    H229297   2.770   0.355   6.626 -1.5509 -0.0406 -0.0599
 2580TIP3   OH229298   1.162   1.581   7.213 -0.2824 -0.0450  0.5069
 2580TIP3    H129299   1.168   1.584   7.117 -0.5245 -0.3743  0.4777
 2580TIP3    H229300   1.096   1.646   7.235 -0.2440  0.0138  0.4479
 2581TIP3   OH229301   1.727   5.222   6.586 -0.9137  0.0103  0.1399
 2581TIP3    H129302   1.635   5.243   6.575 -0.9506 -0.2832 -0.1332
 2581TIP3    H229303   1.753   5.185   6.501 -0.7153 -0.5407  0.4395
 2582TIP3   OH229304   5.209   5.950   8.614  0.5294 -0.3416  0.1350
 2582TIP3    H129305   5.271   5.890   8.658  3.3098  0.4289 -2.3788
 2582TIP3    H229306   5.217   6.032   8.663 -0.4719 -0.9406  1.3448
 2583TIP3   OH229307   6.205   5.292   0.416  0.3214  0.0255 -0.5268
 2583TIP3    H129308   6.233   5.222   0.474  1.0277 -0.3087 -1.2443
 2583TIP3    H229309   6.247   5.371   0.452  2.0636 -0.4264 -1.4329
 2584TIP3   OH229310   5.940   6.185   8.290 -0.0632 -0.1853  0.1096
 2584TIP3    H129311   5.935   6.091   8.308 -1.2510 -0.2028 -0.2325
 2584TIP3    H229312   5.943   6.192   8.195  0.1451  0.1163  0.1358
 2585TIP3   OH229313   3.967   0.648   0.670 -0.7945  0.0298  0.3607
 2585TIP3    H129314   3.897   0.688   0.722 -1.5763 -2.6539  1.5519
 2585TIP3    H229315   4.038   0.633   0.733  0.1620  1.0179 -0.4383
 2586TIP3   OH229316   5.492   0.078   2.803  0.1607  0.2582 -0.2726
 2586TIP3    H129317   5.400   0.081   2.829 -0.1445 -0.8529 -1.1252
 2586TIP3    H229318   5.496   0.130   2.723 -0.0381 -0.8280 -1.0181
 2587TIP3   OH229319   6.505   0.546   2.326 -0.0957 -0.0187  0.0572
 2587TIP3    H129320   6.449   0.612   2.288 -0.8028 -0.7636 -0.2155
 2587TIP3    H229321   6.583   0.594   2.354  0.1170  0.6643 -1.6187
 2588TIP3   OH229322   1.783   1.069   0.545 -0.1852 -0.0039  0.0897
 2588TIP3    H129323   1.810   0.991   0.594 -1.0855  0.0534  0.7089
 2588TIP3    H229324   1.793   1.141   0.608  1.4207  0.5304 -0.7224
 2589TIP3   OH229325   6.394   3.108   8.396  0.3712 -0.1332  0.2237
 2589TIP3    H129326   6.393   3.183   8.455  1.4190  0.8876 -0.9757
 2589TIP3    H229327   6.401   3.147   8.309 -0.2400 -1.6105 -0.5247
 2590TIP3   OH229328   1.878   6.558   0.990 -0.5241 -0.2640  0.2121
 2590TIP3    H129329   1.884   6.493   1.060 -2.1117  0.1284  0.7688
 2590TIP3    H229330   1.859   6.640   1.036 -1.7752 -0.0361 -0.6748
 2591TIP3   OH229331   3.152   1.999   1.682  0.2003  0.1657  0.2054
 2591TIP3    H129332   3.144   1.959   1.768 -0.3558  1.1232  0.6128
 2591TIP3    H229333   3.063   1.996   1.646  0.1533  0.9574  0.2267
 2592TIP3   OH229334   2.494   3.259   6.482 -0.0458 -0.2751  0.6280
 2592TIP3    H129335   2.539   3.202   6.420  0.3013  0.5067  0.1325
 2592TIP3    H229336   2.562   3.285   6.544  0.1107  0.5864  0.1149
 2593TIP3   OH229337   4.663   3.097   7.570  0.1751 -0.5895 -0.2128
 2593TIP3    H129338   4.671   3.087   7.664  2.3009  0.1610 -0.2658
 2593TIP3    H229339   4.671   3.008   7.535 -3.8093 -1.3727  0.3591
 2594TIP3   OH229340   4.512   5.087   6.594 -0.1049  0.3506 -0.0372
 2594TIP3    H129341   4.494   4.994   6.601 -0.0813  0.1190 -2.3792
 2594TIP3    H229342   4.607   5.093   6.590 -0.1369  0.2617 -1.6743
 2595TIP3   OH229343   1.876   4.811   7.828 -0.3635 -0.3200 -0.6224
 2595TIP3    H129344   1.922   4.776   7.904 -0.2247  1.7976  0.3595
 2595TIP3    H229345   1.904   4.757   7.755  1.2148 -1.0643  0.4798
 2596TIP3   OH229346   3.579   0.023   0.531  0.0291  0.0686 -0.1196
 2596TIP3    H129347   3.574  -0.071   0.548  0.8910  0.1630  0.7924
 2596TIP3    H229348   3.669   0.038   0.503  0.4358  0.8390  1.4412
 2597TIP3   OH229349   3.754   6.207   8.043 -0.2086 -0.0765  0.3040
 2597TIP3    H129350   3.845   6.217   8.015 -0.0691  0.0768  0.7913
 2597TIP3    H229351   3.749   6.116   8.074  0.1451  0.2934  1.5178
 2598TIP3   OH229352   6.835   3.667   1.290  0.3252  0.5932  0.2470
 2598TIP3    H129353   6.892   3.657   1.214  1.5743  1.7498  0.9810
 2598TIP3    H229354   6.795   3.754   1.279 -1.0060 -0.0252 -0.0383
 2599TIP3   OH229355   6.843   1.372   0.656 -0.1499 -0.1188  0.1334
 2599TIP3    H129356   6.891   1.360   0.738 -2.4849  0.1323  1.6328
 2599TIP3    H229357   6.783   1.298   0.652 -1.8906  1.2064  0.0697
 2600TIP3   OH229358   3.239   3.553   7.219 -0.2029 -0.1709  0.1449
 2600TIP3    H129359   3.268   3.621   7.280 -1.2635  1.0398 -0.6632
 2600TIP3    H229360   3.224   3.476   7.275  2.2092 -0.1696  0.9057
 2601TIP3   OH229361   2.355   0.325   2.543  0.2517  0.6395  0.2106
 2601TIP3    H129362   2.312   0.358   2.464  0.4141  1.3141  0.3956
 2601TIP3    H229363   2.343   0.231   2.540 -0.0982  0.7028 -0.4132
 2602TIP3   OH229364   6.270   5.965   2.525  0.3143 -0.1447 -0.5545
 2602TIP3    H129365   6.233   5.941   2.610  1.4571 -0.6160 -0.1801
 2602TIP3    H229366   6.212   5.923   2.462  0.2026 -0.8820  0.0229
 2603TIP3   OH229367   5.659   5.453   0.866 -0.5314 -0.2954  0.0091
 2603TIP3    H129368   5.632   5.544   0.858  1.5881  0.3875 -0.0663
 2603TIP3    H229369   5.602   5.405   0.807 -1.6697  0.9837  0.0338
 2604TIP3   OH229370   1.982   0.830   7.658 -0.3545 -0.5388  0.2641
 2604TIP3    H129371   1.940   0.904   7.702 -1.5991 -1.1719  0.1929
 2604TIP3    H229372   2.066   0.819   7.703  0.3332  1.5554 -0.3956
 2605TIP3   OH229373   6.552   2.241   0.763 -0.2796 -1.0471 -0.1239
 2605TIP3    H129374   6.550   2.221   0.669 -0.5770 -1.0917 -0.1102
 2605TIP3    H229375   6.476   2.195   0.799 -0.4088 -0.6904  0.0691
 2606TIP3   OH229376   0.693   0.499   1.413  0.3250 -0.5996  0.0974
 2606TIP3    H129377   0.656   0.575   1.459  2.4886  0.2716  0.4924
 2606TIP3    H229378   0.651   0.424   1.455  0.0612  0.2925  1.5162
 2607TIP3   OH229379   4.280   6.605   0.304 -0.0396 -0.1330  0.2048
 2607TIP3    H129380   4.194   6.598   0.264 -0.1481 -0.1480  0.4386
 2607TIP3    H229381   4.277   6.686   0.355  0.1216 -0.0752  0.1234
 2608TIP3   OH229382   4.916   0.691   2.384 -0.1868 -0.1229  0.2273
 2608TIP3    H129383   4.949   0.604   2.361 -1.1780 -1.4588  3.2618
 2608TIP3    H229384   4.842   0.673   2.443 -2.2989  2.7885 -1.3080
 2609TIP3   OH229385   3.855   5.053   0.941  1.0185 -0.0089  0.3151
 2609TIP3    H129386   3.907   5.049   0.861 -1.3491  2.9458 -1.6140
 2609TIP3    H229387   3.865   5.143   0.972 -1.4623  0.1939  0.7865
 2610TIP3   OH229388   3.541   3.158   8.487  0.4919  0.0426  0.2399
 2610TIP3    H129389   3.548   3.187   8.397 -0.0493 -0.7561 -0.0717
 2610TIP3    H229390   3.450   3.128   8.496  0.2008  1.1962  1.3838
 2611TIP3   OH229391   5.169   4.494   2.120 -0.0296 -0.0308 -0.5267
 2611TIP3    H129392   5.191   4.406   2.090  0.4240 -1.1462  2.7042
 2611TIP3    H229393   5.093   4.482   2.177 -0.0714  1.6981 -0.1561
 2612TIP3   OH229394   1.451   1.913   1.048 -0.3352 -0.2964 -0.2491
 2612TIP3    H129395   1.498   1.885   0.969  0.3411 -0.3059  0.1566
 2612TIP3    H229396   1.422   1.832   1.089  0.3252 -0.3529  0.1253
 2613TIP3   OH229397   2.463   4.678   1.335  0.0147  0.0600 -0.6431
 2613TIP3    H129398   2.558   4.666   1.342  0.1032  0.7198 -0.7054
 2613TIP3    H229399   2.452   4.758   1.285 -0.5947 -0.7623 -1.8680
 2614TIP3   OH229400   5.040   0.475   1.868  0.2334  0.1260 -0.7390
 2614TIP3    H129401   5.091   0.432   1.936 -0.4972  2.3140  1.3415
 2614TIP3    H229402   5.105   0.510   1.807  1.1745  1.0875  0.7460
 2615TIP3   OH229403   5.420   0.108   6.555 -0.2893 -0.0852  0.0615
 2615TIP3    H129404   5.344   0.096   6.498  0.4634 -2.0705 -0.5885
 2615TIP3    H229405   5.424   0.028   6.608  0.6148  0.5557  1.0133
 2616TIP3   OH229406   4.232   1.073   2.022 -0.3619 -0.4104 -0.0423
 2616TIP3    H129407   4.232   1.079   2.118  0.1086 -0.8353 -0.0172
 2616TIP3    H229408   4.187   0.991   2.003 -4.7669  1.7652 -0.3432
 2617TIP3   OH229409   2.224   4.465   8.217 -0.0147  0.2525  0.3639
 2617TIP3    H129410   2.136   4.437   8.240 -0.6731  0.3447 -1.8216
 2617TIP3    H229411   2.269   4.385   8.190  0.4694  0.2732  1.0565
 2618TIP3   OH229412   6.407   4.355   7.278 -0.0047  0.2248  0.2619
 2618TIP3    H129413   6.411   4.318   7.189  1.7885 -1.4535  0.9845
 2618TIP3    H229414   6.395   4.449   7.263  3.5444  0.5135 -1.9221
 2619TIP3   OH229415   1.741   2.996   1.693  0.3874 -0.2335 -0.5667
 2619TIP3    H129416   1.733   2.907   1.661  0.1222 -0.3562 -0.1636
 2619TIP3    H229417   1.696   2.996   1.777 -0.9246  0.6559 -1.2407
 2620TIP3   OH229418   3.913   2.980   1.795  0.0489  0.0872 -0.8513
 2620TIP3    H129419   3.875   3.049   1.739 -2.5267  0.1321  0.7855
 2620TIP3    H229420   3.867   2.900   1.769 -0.7353 -0.0054  0.7014
 2621TIP3   OH229421   5.392   5.046   7.000 -0.0618 -0.2178 -0.1309
 2621TIP3    H129422   5.416   5.058   7.092 -1.0427  0.4405  0.0569
 2621TIP3    H229423   5.461   4.990   6.965 -0.8475 -2.4537  1.5892
 2622TIP3   OH229424   6.190   5.958   2.050 -0.8795 -0.4622 -0.0358
 2622TIP3    H129425   6.188   6.036   2.105 -0.7625 -1.2919  1.1882
 2622TIP3    H229426   6.257   5.902   2.089 -1.3023 -1.3852 -0.5814
 2623TIP3   OH229427   6.103   0.960   1.797 -0.1375 -0.2501  0.4597
 2623TIP3    H129428   6.068   1.018   1.865  1.7155  0.3677  0.9203
 2623TIP3    H229429   6.152   0.893   1.845  0.6911 -0.1553 -0.2279
 2624TIP3   OH229430   6.334   0.771   7.400  0.0207  0.2665 -0.2941
 2624TIP3    H129431   6.354   0.707   7.467 -1.7265  1.5965  1.5981
 2624TIP3    H229432   6.318   0.853   7.448 -1.7109  1.1863 -2.2594
 2625TIP3   OH229433   1.492   4.547   7.547 -0.3287 -0.4556 -0.1254
 2625TIP3    H129434   1.491   4.573   7.455  0.6591  1.7805  0.4407
 2625TIP3    H229435   1.411   4.584   7.582 -0.8577 -1.5715 -0.1335
 2626TIP3   OH229436   0.792   0.651   0.126 -0.5990  0.4841  0.1463
 2626TIP3    H129437   0.855   0.580   0.144  0.2909  0.4606 -2.5035
 2626TIP3    H229438   0.819   0.722   0.183  0.5529 -0.2503  0.5608
 2627TIP3   OH229439   4.357   4.167   7.411 -0.0181  0.6030 -0.1102
 2627TIP3    H129440   4.445   4.130   7.419  0.2827  1.0244 -1.2795
 2627TIP3    H229441   4.367   4.258   7.439 -0.3513  0.3235  0.9367
 2628TIP3   OH229442   4.069   2.257   8.029 -0.4443 -0.4741 -0.1496
 2628TIP3    H129443   4.041   2.225   7.943 -1.6608 -1.0042  0.4240
 2628TIP3    H229444   4.144   2.201   8.050 -0.3387 -0.5610 -0.7144
 2629TIP3   OH229445   4.639   5.657   2.411  0.3632  0.0426  0.4037
 2629TIP3    H129446   4.653   5.634   2.319 -0.4781 -0.4160  0.3811
 2629TIP3    H229447   4.555   5.617   2.433  0.8418 -0.3753  1.5456
 2630TIP3   OH229448   2.759   5.370   7.018 -0.2738  0.0949  0.2694
 2630TIP3    H129449   2.749   5.450   6.967 -1.8927  0.2518  0.7749
 2630TIP3    H229450   2.853   5.352   7.017 -0.0875  0.9691 -1.3928
 2631TIP3   OH229451   4.871   6.342   8.541 -0.1993  0.2744 -0.1488
 2631TIP3    H129452   4.913   6.423   8.514  1.3573  0.1960  1.8074
 2631TIP3    H229453   4.931   6.273   8.514  0.0648  0.0224  1.0412
 2632TIP3   OH229454   0.942   6.032   2.147  0.2429 -0.2209 -0.4294
 2632TIP3    H129455   0.858   5.996   2.178  0.0115 -1.0483 -1.9507
 2632TIP3    H229456   1.003   5.959   2.156  0.6397  0.1531 -0.0537
 2633TIP3   OH229457   0.854   5.524   7.343  0.4439  0.3064  0.8587
 2633TIP3    H129458   0.894   5.611   7.337 -0.1022  0.5089 -0.0757
 2633TIP3    H229459   0.926   5.463   7.323 -0.0003  0.7346 -2.8209
 2634TIP3   OH229460   2.187   6.162   0.537  0.2858 -0.2579 -0.0779
 2634TIP3    H129461   2.121   6.122   0.594  0.4813 -1.1469 -0.4599
 2634TIP3    H229462   2.234   6.223   0.594 -1.5478  1.2175 -0.0520
 2635TIP3   OH229463   5.319   3.467   1.670  0.0664  0.0416 -0.2872
 2635TIP3    H129464   5.362   3.382   1.661 -0.3480 -0.2583  0.4330
 2635TIP3    H229465   5.302   3.475   1.764 -0.7398  0.5037 -0.4666
 2636TIP3   OH229466   3.484   1.406   8.455 -0.0184 -0.1250  0.7721
 2636TIP3    H129467   3.405   1.406   8.509  0.5681 -0.7703  1.6704
 2636TIP3    H229468   3.532   1.485   8.483 -0.9356  1.0255 -0.7311
 2637TIP3   OH229469   1.987   1.177   7.320  0.0348 -0.4573 -0.2617
 2637TIP3    H129470   1.975   1.182   7.415  1.1653  1.5500 -0.1846
 2637TIP3    H229471   1.905   1.209   7.284  0.6274  1.6173  0.1144
 2638TIP3   OH229472   2.426   0.153   7.335  0.0334 -0.5077  0.2576
 2638TIP3    H129473   2.473   0.204   7.268 -0.2993 -0.1364  0.2982
 2638TIP3    H229474   2.493   0.125   7.396  0.2256 -0.1101  0.2324
 2639TIP3   OH229475   1.383   4.549   1.293  0.0745 -0.1788 -0.5540
 2639TIP3    H129476   1.288   4.545   1.282 -0.4848  2.9180  1.6147
 2639TIP3    H229477   1.405   4.467   1.337 -1.7588 -0.5507 -0.2251
 2640TIP3   OH229478   3.802   3.340   8.537 -0.1386 -0.1130 -0.3721
 2640TIP3    H129479   3.759   3.294   8.465 -0.7467 -0.3427  0.1297
 2640TIP3    H229480   3.869   3.279   8.567 -1.8032 -1.2685  1.1525
 2641TIP3   OH229481   6.277   6.436   7.386 -0.0072 -0.2521 -0.1486
 2641TIP3    H129482   6.246   6.526   7.394 -1.4068 -0.7530  0.4861
 2641TIP3    H229483   6.350   6.440   7.324 -0.8508  1.1292 -1.1049
 2642TIP3   OH229484   3.490   5.026   7.939  0.1842 -0.4968 -0.2112
 2642TIP3    H129485   3.492   5.061   7.850 -0.2251  0.2380  0.0648
 2642TIP3    H229486   3.410   5.062   7.977  2.3940  2.6981  1.8587
 2643TIP3   OH229487   2.147   0.771   8.528 -0.0497  0.2384  0.0294
 2643TIP3    H129488   2.212   0.804   8.466 -1.3029  0.2219 -1.3607
 2643TIP3    H229489   2.184   0.689   8.561  1.1890  0.8735  0.2731
 2644TIP3   OH229490   5.767   3.940   8.004  0.2232 -0.0256  0.5733
 2644TIP3    H129491   5.830   4.010   7.989  0.0687  0.1706  0.8206
 2644TIP3    H229492   5.688   3.985   8.035 -0.1601 -0.2377 -0.0787
 2645TIP3   OH229493   4.316   0.989   6.667 -0.6766  0.2975  0.1488
 2645TIP3    H129494   4.325   1.038   6.585 -0.6536  0.6845  0.3818
 2645TIP3    H229495   4.391   0.929   6.668 -1.6779 -1.0599 -1.0152
 2646TIP3   OH229496   2.820   4.004   8.334 -0.1882  0.4783  0.6744
 2646TIP3    H129497   2.891   4.058   8.300 -1.1290  1.5728  0.3923
 2646TIP3    H229498   2.829   3.921   8.289  0.1217  1.0556 -0.3456
 2647TIP3   OH229499   3.552   0.525   0.641  0.6731 -0.4752 -0.2570
 2647TIP3    H129500   3.554   0.545   0.735 -0.3461  0.6301 -0.4307
 2647TIP3    H229501   3.538   0.431   0.637  0.7826 -0.5458  0.7113
 2648TIP3   OH229502   6.214   2.007   8.256 -0.2653 -0.4383 -0.0240
 2648TIP3    H129503   6.193   2.086   8.306 -1.2324 -0.8490  0.2482
 2648TIP3    H229504   6.143   1.945   8.278  1.2782 -1.9338  0.9954
 2649TIP3   OH229505   2.954   0.229   0.469  0.0179 -0.1814 -0.0528
 2649TIP3    H129506   2.946   0.309   0.520 -1.0990  0.1937 -0.7852
 2649TIP3    H229507   2.891   0.239   0.398 -0.9157 -2.1580  0.4307
 2650TIP3   OH229508   3.719   2.128   0.696  0.3122  0.3434  0.9097
 2650TIP3    H129509   3.673   2.198   0.649 -0.2962  0.2699  1.3854
 2650TIP3    H229510   3.683   2.047   0.658  0.6951  0.2848  0.6674
 2651TIP3   OH229511   0.117   1.594   0.859 -0.3973 -0.1060  0.1316
 2651TIP3    H129512   0.177   1.584   0.933 -3.0216  0.1866  2.4697
 2651TIP3    H229513   0.094   1.687   0.859 -0.6116 -0.1465 -0.9210
 2652TIP3   OH229514   6.007   0.286   8.344 -0.0135  0.6408 -0.6799
 2652TIP3    H129515   5.972   0.244   8.423  1.3620 -0.3016 -0.5439
 2652TIP3    H229516   6.060   0.359   8.377  2.2290 -0.9560 -0.5460
 2653TIP3   OH229517   4.482   0.022   2.191 -0.1680  0.4317  0.2110
 2653TIP3    H129518   4.517  -0.013   2.272 -0.9989 -2.7497 -0.6782
 2653TIP3    H229519   4.388   0.006   2.196 -0.0308 -1.9222 -2.1609
 2654TIP3   OH229520   0.383   1.549   8.678 -0.7521 -0.2064 -0.3354
 2654TIP3    H129521   0.441   1.622   8.700  1.4608 -2.2413  1.0906
 2654TIP3    H229522   0.380   1.548   8.582  1.3333  0.1868 -0.4379
 2655TIP3   OH229523   3.814   0.844   8.125 -0.5977  0.4446  0.0730
 2655TIP3    H129524   3.883   0.807   8.070 -0.9868 -0.6863  0.3340
 2655TIP3    H229525   3.732   0.817   8.084 -0.9392  2.6423 -0.8188
 2656TIP3   OH229526   5.402   6.173   7.729 -0.2179 -0.2391 -0.3790
 2656TIP3    H129527   5.315   6.212   7.724  0.5843  1.4475 -2.3773
 2656TIP3    H229528   5.403   6.129   7.814 -2.9172 -0.1324 -0.1953
 2657TIP3   OH229529   0.167   2.971   1.955  0.4882  0.7823 -0.3494
 2657TIP3    H129530   0.227   2.996   2.025 -0.9669  0.1394  1.1752
 2657TIP3    H229531   0.119   2.896   1.989 -1.0593  1.1505 -1.5750
 2658TIP3   OH229532   1.480   5.332   1.760 -0.2790 -0.4290  0.1311
 2658TIP3    H129533   1.391   5.320   1.792 -0.5762  2.1166  0.4607
 2658TIP3    H229534   1.526   5.252   1.787 -2.4705 -1.9111 -0.2632
 2659TIP3   OH229535   1.192   1.960   1.373  0.8183  0.5814 -0.1727
 2659TIP3    H129536   1.237   1.888   1.329  1.7035  0.2860  1.1520
 2659TIP3    H229537   1.111   1.971   1.324  0.3163 -1.7914 -0.0098
 2660TIP3   OH229538   3.175   1.499   7.434  0.0487  0.0436  0.5585
 2660TIP3    H129539   3.098   1.467   7.386  0.3990 -2.0876  1.2685
 2660TIP3    H229540   3.141   1.524   7.520 -0.0968  0.7373  0.3005
 2661TIP3   OH229541   4.864   2.253   0.947  0.5203  0.2433  0.2766
 2661TIP3    H129542   4.852   2.318   1.016 -0.6540 -0.2489  0.5591
 2661TIP3    H229543   4.783   2.202   0.948  1.3943 -1.1938  0.0324
 2662TIP3   OH229544   0.091   0.621   8.060  0.1370  0.0596  0.4336
 2662TIP3    H129545   0.112   0.707   8.024  0.7160  0.8074  2.4641
 2662TIP3    H229546   0.152   0.609   8.133 -0.0063 -2.0363  0.2942
 2663TIP3   OH229547   1.556   0.420   1.070  0.1114  0.1824  0.0637
 2663TIP3    H129548   1.514   0.333   1.070  1.8259 -0.7100  1.4214
 2663TIP3    H229549   1.571   0.439   0.978 -1.4239 -0.3643 -0.3397
 2664TIP3   OH229550   6.336   5.652   8.380 -0.1138 -0.1175  0.4588
 2664TIP3    H129551   6.321   5.732   8.330  2.1154  0.2707  0.2880
 2664TIP3    H229552   6.374   5.591   8.317  0.1594 -0.5785  1.0602
 2665TIP3   OH229553   2.255   2.299   6.741  0.4273  0.2828  0.7807
 2665TIP3    H129554   2.253   2.373   6.681 -3.3030 -0.9502 -0.9171
 2665TIP3    H229555   2.270   2.222   6.686  0.1486 -0.5904  1.8603
 2666TIP3   OH229556   4.522   6.285   7.766 -0.2080 -0.8269  0.4023
 2666TIP3    H129557   4.472   6.207   7.790 -1.3630 -0.5434 -0.9766
 2666TIP3    H229558   4.561   6.265   7.681 -0.3295  0.0030  0.1381
 2667TIP3   OH229559   6.428   6.007   6.817 -0.3253 -0.1560  0.6189
 2667TIP3    H129560   6.344   5.974   6.849 -1.0512 -1.8213 -2.6111
 2667TIP3    H229561   6.406   6.060   6.740  1.5498 -0.8804 -0.4917
 2668TIP3   OH229562   0.785   5.107   7.512 -0.2487 -0.0352 -0.2965
 2668TIP3    H129563   0.768   5.144   7.426  0.4485 -0.9205 -0.8400
 2668TIP3    H229564   0.796   5.183   7.569  1.4021  0.6476 -1.4213
 2669TIP3   OH229565   3.908   5.450   1.730 -0.3264  0.1329  0.3721
 2669TIP3    H129566   3.974   5.478   1.667 -0.5592 -1.4490 -0.6291
 2669TIP3    H229567   3.954   5.445   1.813  0.1820  1.4816  0.1971
 2670TIP3   OH229568   5.265   2.928   0.181 -0.2598 -0.2320  0.3101
 2670TIP3    H129569   5.243   3.020   0.189 -0.5945  0.0423 -2.6975
 2670TIP3    H229570   5.318   2.922   0.102 -1.3060 -2.7665 -0.3144
 2671TIP3   OH229571   2.428   0.499   8.422 -0.5983  0.5087 -0.1403
 2671TIP3    H129572   2.501   0.534   8.473 -1.4183  2.2966 -0.1181
 2671TIP3    H229573   2.356   0.493   8.484 -1.3271  1.7611 -0.8200
 2672TIP3   OH229574   6.078   3.247   0.278  0.0548 -0.0017  0.7217
 2672TIP3    H129575   5.987   3.219   0.269  0.1920 -0.3060  0.2582
 2672TIP3    H229576   6.083   3.328   0.227 -0.0287  0.1949  1.0164
 2673TIP3   OH229577   2.424   2.040   6.274  0.0763  0.2856 -0.1378
 2673TIP3    H129578   2.357   1.996   6.223  1.0075 -0.8342 -0.4450
 2673TIP3    H229579   2.469   2.096   6.211 -0.6222  1.1277  0.0932
 2674TIP3   OH229580   6.253   4.960   0.086  0.1809  0.0445  0.3081
 2674TIP3    H129581   6.244   4.967   0.181 -1.6324 -0.8682  0.2451
 2674TIP3    H229582   6.177   5.008   0.051  0.2384 -0.5199 -0.6336
 2675TIP3   OH229583   4.550   5.977   7.787 -0.0072  0.1485 -0.0674
 2675TIP3    H129584   4.587   5.890   7.800  1.9302  0.7325 -1.2185
 2675TIP3    H229585   4.456   5.962   7.776  0.1105 -1.6315  1.0362
 2676TIP3   OH229586   2.946   3.377   1.881 -0.3663 -0.2029  0.4590
 2676TIP3    H129587   2.985   3.456   1.918  1.7922 -1.5539  1.2187
 2676TIP3    H229588   2.863   3.407   1.843  0.6003  2.4937  0.2720
 2677TIP3   OH229589   6.382   3.929   1.257  0.1099 -0.1953  0.2463
 2677TIP3    H129590   6.463   3.951   1.213  0.7610 -1.7438  0.6129
 2677TIP3    H229591   6.368   3.836   1.239 -0.7625 -0.3355  1.4498
 2678TIP3   OH229592   0.058   1.857   1.444 -0.1552 -0.1665  0.0465
 2678TIP3    H129593   0.041   1.942   1.404  0.4967 -0.1002 -0.1110
 2678TIP3    H229594   0.080   1.878   1.535  0.4408 -0.1172 -0.1025
 2679TIP3   OH229595   1.011   6.226   7.838 -0.0813  0.3050 -0.1934
 2679TIP3    H129596   0.935   6.242   7.894  0.6370  0.8642  0.6487
 2679TIP3    H229597   0.976   6.176   7.764 -0.9132 -1.2502  1.1631
 2680TIP3   OH229598   1.553   5.783   1.593 -0.2592 -0.2333  0.4299
 2680TIP3    H129599   1.532   5.694   1.565 -2.3119  0.2091  0.4246
 2680TIP3    H229600   1.471   5.831   1.585  0.0732  0.9849  3.1663
 2681TIP3   OH229601   3.089   2.290   6.501 -0.0682  0.1421  0.2058
 2681TIP3    H129602   3.135   2.370   6.527  0.9418  0.4228 -2.1817
 2681TIP3    H229603   3.137   2.220   6.544 -1.3617  0.7597  2.8796
 2682TIP3   OH229604   1.622   5.397   1.114 -0.5852  0.1189 -0.6715
 2682TIP3    H129605   1.528   5.385   1.103 -0.4961 -0.6393 -0.6927
 2682TIP3    H229606   1.661   5.339   1.048 -0.1055 -0.3678  0.0205
 2683TIP3   OH229607   1.515   0.649   6.785 -0.2954 -0.2746 -0.5278
 2683TIP3    H129608   1.537   0.666   6.876  0.1252 -0.8562 -0.5080
 2683TIP3    H229609   1.600   0.635   6.742 -0.5086 -0.4153 -0.9170
 2684TIP3   OH229610   0.631   5.402   1.582 -0.2348  0.2069 -0.2377
 2684TIP3    H129611   0.660   5.316   1.550  0.6215  0.5083 -0.2880
 2684TIP3    H229612   0.685   5.419   1.659 -0.7112  0.5030  0.0337
 2685TIP3   OH229613   0.436   3.380   0.344  0.4900 -0.4663 -0.8038
 2685TIP3    H129614   0.369   3.421   0.398  0.9983 -0.2794 -0.2969
 2685TIP3    H229615   0.505   3.447   0.338  0.3862 -0.4426 -1.7880
 2686TIP3   OH229616   5.964   0.756   7.646  0.3242 -0.1660 -0.3498
 2686TIP3    H129617   5.996   0.747   7.557  1.2324  0.4619 -0.0968
 2686TIP3    H229618   6.042   0.755   7.701 -0.2631 -1.3670  0.5239
 2687TIP3   OH229619   0.398   5.585   2.007 -0.0270  0.8442 -0.0366
 2687TIP3    H129620   0.492   5.572   2.018  0.3555  1.5563 -2.1044
 2687TIP3    H229621   0.380   5.556   1.918 -1.9966 -0.2866  0.6663
 2688TIP3   OH229622   1.787   5.690   0.123 -0.4802 -0.4144  0.1091
 2688TIP3    H129623   1.842   5.613   0.138 -0.5706 -1.3547 -3.4936
 2688TIP3    H229624   1.698   5.659   0.136 -0.6082 -1.4159 -2.4547
 2689TIP3   OH229625   3.226   2.733   2.082  0.3050  0.3117  0.5565
 2689TIP3    H129626   3.180   2.729   1.998  0.3519 -0.2268  0.5496
 2689TIP3    H229627   3.245   2.826   2.095  0.5544  0.3659 -0.1722
 2690TIP3   OH229628   5.395   6.040   7.957 -0.5488 -0.6445 -0.3275
 2690TIP3    H129629   5.309   6.002   7.977 -0.7079 -0.7420 -1.1852
 2690TIP3    H229630   5.455   5.995   8.016 -1.0280 -0.8474  0.0111
 2691TIP3   OH229631   0.106   2.510   0.605 -0.0310  0.1249  0.4575
 2691TIP3    H129632   0.075   2.555   0.527  0.0957 -0.5412  0.0105
 2691TIP3    H229633   0.030   2.462   0.637  0.7008 -2.3833 -1.2581
 2692TIP3   OH229634   5.831   6.703   0.901 -0.1949  0.2488 -0.6353
 2692TIP3    H129635   5.903   6.704   0.964 -0.7063  2.4544  0.0058
 2692TIP3    H229636   5.872   6.674   0.819  0.7146 -1.5722  0.4000
 2693TIP3   OH229637   0.537   6.566   0.979  0.1006 -0.6310 -1.1157
 2693TIP3    H129638   0.443   6.569   0.997  0.1374 -1.7695 -0.6846
 2693TIP3    H229639   0.543   6.583   0.885 -0.5382 -0.6224 -1.1632
 2694TIP3   OH229640   3.852   1.165   1.748  0.0441 -0.4196 -0.4001
 2694TIP3    H129641   3.852   1.230   1.678  0.8054  0.2272  0.1788
 2694TIP3    H229642   3.782   1.194   1.808  0.2331 -0.2600 -0.2562
 2695TIP3   OH229643   1.388   0.625   8.383 -0.0599 -0.1634  0.0272
 2695TIP3    H129644   1.391   0.539   8.340 -0.9992  0.0389 -0.4810
 2695TIP3    H229645   1.387   0.605   8.476 -1.5336 -0.7902 -0.0849
 2696TIP3   OH229646   2.453   4.181   2.455 -0.0312 -0.3467 -0.1973
 2696TIP3    H129647   2.387   4.221   2.512  0.2287 -1.0667  0.6489
 2696TIP3    H229648   2.405   4.116   2.405 -0.4318  0.9097 -1.4890
 2697TIP3   OH229649   4.345   6.309   1.775 -0.4847  0.5258 -0.8835
 2697TIP3    H129650   4.250   6.326   1.780 -0.4963  0.1310  1.3099
 2697TIP3    H229651   4.382   6.391   1.742 -1.4827  1.1234 -0.5756
 2698TIP3   OH229652   3.821   0.260   7.837  0.1659  0.3501  0.2641
 2698TIP3    H129653   3.809   0.353   7.852  0.6933  0.0903  2.8482
 2698TIP3    H229654   3.906   0.253   7.795  0.4496  1.0069  0.7106
 2699TIP3   OH229655   3.779   4.167   7.943  0.2718  0.0258 -0.6258
 2699TIP3    H129656   3.846   4.121   7.993 -1.3872 -0.5120  1.2587
 2699TIP3    H229657   3.774   4.253   7.984 -1.6404 -0.6767  0.7727
 2700TIP3   OH229658   4.161   1.953   7.886  0.0858  0.4412 -0.0176
 2700TIP3    H129659   4.242   1.986   7.925 -0.4999  0.8723  0.8569
 2700TIP3    H229660   4.189   1.912   7.804  1.2656  0.0722  0.5458
 2701TIP3   OH229661   3.400   3.242   7.662 -0.1730  0.4068 -0.2596
 2701TIP3    H129662   3.446   3.307   7.715  2.4341 -1.3520 -0.1957
 2701TIP3    H229663   3.332   3.207   7.719  1.3618 -0.1161  1.3194
 2702TIP3   OH229664   5.843   4.051   1.971 -0.2975 -0.0965  0.0461
 2702TIP3    H129665   5.874   4.049   2.062 -1.0206 -1.9286  0.2992
 2702TIP3    H229666   5.847   3.960   1.943 -0.4906  0.3853 -1.6432
 2703TIP3   OH229667   2.233   0.272   2.225  0.3281  0.4537  0.0419
 2703TIP3    H129668   2.203   0.194   2.179  0.9478  0.0157  0.3727
 2703TIP3    H229669   2.153   0.311   2.259 -0.1729  0.8892 -1.5338
 2704TIP3   OH229670   2.162   2.124   8.117  0.1689 -0.5089 -0.0997
 2704TIP3    H129671   2.133   2.043   8.157  2.4458 -1.3325 -0.0027
 2704TIP3    H229672   2.154   2.109   8.023 -1.0607 -0.1615 -0.0706
 2705TIP3   OH229673   0.463   6.659   1.475  0.1837  0.1187 -0.2007
 2705TIP3    H129674   0.433   6.702   1.556 -0.0547  0.0529 -0.2548
 2705TIP3    H229675   0.527   6.720   1.438  0.1898  0.2136 -0.0348
 2706TIP3   OH229676   6.405   3.111   1.245  0.3309  0.4609  0.2825
 2706TIP3    H129677   6.341   3.069   1.303 -0.9689  0.2591 -1.2457
 2706TIP3    H229678   6.360   3.189   1.212  1.0046  0.5158 -0.5414
 2707TIP3   OH229679   6.003   3.337   8.265  0.2446  0.7126  0.1593
 2707TIP3    H129680   6.035   3.274   8.200 -3.1061  0.1786 -1.1895
 2707TIP3    H229681   5.997   3.420   8.216 -0.8154  0.6780  0.2135
 2708TIP3   OH229682   4.861   0.971   7.222  0.6951 -0.1439 -0.1439
 2708TIP3    H129683   4.859   0.878   7.202 -1.4203 -0.0492 -0.5823
 2708TIP3    H229684   4.889   1.012   7.140 -2.4645 -0.1571 -1.3400
 2709TIP3   OH229685   2.147   4.839   1.182  0.1799 -0.3114  0.0828
 2709TIP3    H129686   2.095   4.863   1.105  0.4108 -0.6672 -0.1878
 2709TIP3    H229687   2.192   4.759   1.156 -0.5563 -1.0334  0.9443
 2710TIP3   OH229688   1.923   3.948   6.779 -0.1505 -0.1873  0.1093
 2710TIP3    H129689   1.964   4.032   6.760 -0.7707  0.0960 -0.0164
 2710TIP3    H229690   1.995   3.886   6.786  0.5342  0.7644  2.4187
 2711TIP3   OH229691   2.058   6.459   0.181  0.3381  1.0198  0.1871
 2711TIP3    H129692   1.990   6.526   0.180 -0.3798  0.3174  0.7973
 2711TIP3    H229693   2.139   6.507   0.201 -0.6057  1.4009  4.0360
 2712TIP3   OH229694   4.183   3.135   0.875 -0.4882  0.1836  0.0051
 2712TIP3    H129695   4.271   3.153   0.909 -1.0109 -0.2219  1.6385
 2712TIP3    H229696   4.192   3.053   0.826  0.3717  1.0141 -1.3027
 2713TIP3   OH229697   4.182   0.886   2.241  0.6461 -0.3852  0.1878
 2713TIP3    H129698   4.263   0.836   2.247 -0.8328 -2.8793  0.6878
 2713TIP3    H229699   4.144   0.861   2.157  0.4552  0.9423 -0.1486
 2714TIP3   OH229700   5.547   5.287   1.583 -0.3663 -0.2800  0.0214
 2714TIP3    H129701   5.598   5.360   1.618  1.3201 -0.4235 -1.9181
 2714TIP3    H229702   5.563   5.215   1.643  0.0886  0.2388  0.5258
 2715TIP3   OH229703   4.048   1.642   8.419  0.4507 -0.0442 -0.4206
 2715TIP3    H129704   4.059   1.555   8.459 -1.1427 -0.9197 -1.7485
 2715TIP3    H229705   4.045   1.624   8.325 -1.7737  1.1873 -0.6479
 2716TIP3   OH229706   6.815   6.673   0.572 -0.2431 -0.0361 -0.6486
 2716TIP3    H129707   6.843   6.702   0.659 -1.0129  1.6467 -0.9310
 2716TIP3    H229708   6.890   6.689   0.515 -0.0881 -0.1987 -0.4925
 2717TIP3   OH229709   4.506   0.687   0.632  0.4381  0.0912  0.4580
 2717TIP3    H129710   4.448   0.749   0.588  0.7373  1.9363  2.5148
 2717TIP3    H229711   4.466   0.601   0.615 -1.0718  0.9938 -0.8408
 2718TIP3   OH229712   5.587   1.827   8.050 -0.5601 -0.0968  0.3245
 2718TIP3    H129713   5.663   1.824   7.992 -0.8604 -1.1957 -0.0365
 2718TIP3    H229714   5.589   1.744   8.097 -1.0746  0.2171  0.9234
 2719TIP3   OH229715   6.420   3.523   7.035  0.5767 -0.0706 -0.2822
 2719TIP3    H129716   6.512   3.520   7.008  0.6908 -0.9143  0.1537
 2719TIP3    H229717   6.410   3.448   7.094 -0.7376 -0.8199 -1.4072
 2720TIP3   OH229718   2.944   1.632   1.835  0.1926 -0.1955  0.2909
 2720TIP3    H129719   2.967   1.650   1.926  1.2022  0.9924 -0.1686
 2720TIP3    H229720   3.019   1.663   1.784  0.1282 -1.8250 -0.9004
 2721TIP3   OH229721   3.243   4.919   0.636 -0.6477  0.4935  0.0149
 2721TIP3    H129722   3.203   4.841   0.674  1.2460 -0.7852 -0.4815
 2721TIP3    H229723   3.191   4.992   0.671 -2.2880 -0.9383  0.7233
 2722TIP3   OH229724   6.754   2.028   0.728 -0.1663 -0.3475  0.5743
 2722TIP3    H129725   6.736   1.978   0.649  2.0022 -1.9545  1.0002
 2722TIP3    H229726   6.687   2.097   0.729 -2.5542 -2.4895 -0.6593
 2723TIP3   OH229727   3.934   1.021   7.728 -0.0520  0.1583  0.4867
 2723TIP3    H129728   3.872   0.994   7.796  1.0408  0.6910  1.7172
 2723TIP3    H229729   4.011   1.052   7.776  0.8731  0.2405 -1.0003
 2724TIP3   OH229730   4.962   1.068   2.292 -1.4002  0.2154  0.7058
 2724TIP3    H129731   4.872   1.048   2.317 -1.4978  1.1446  1.1564
 2724TIP3    H229732   4.953   1.142   2.231 -1.1165 -1.5059 -1.5280
 2725TIP3   OH229733   4.509   3.349   0.746 -0.0865 -0.0169 -0.4425
 2725TIP3    H129734   4.455   3.427   0.755  1.3270  0.8729  0.5634
 2725TIP3    H229735   4.540   3.330   0.835 -0.9291 -2.1307 -0.5398
 2726TIP3   OH229736   0.298   1.353   6.933 -0.2015  0.0963 -0.3080
 2726TIP3    H129737   0.217   1.302   6.928  0.3131 -0.7109 -0.4553
 2726TIP3    H229738   0.306   1.394   6.847 -0.8338  0.7861 -0.0530
 2727TIP3   OH229739   0.842   2.008   1.243  0.2009 -0.4893 -0.1709
 2727TIP3    H129740   0.799   2.020   1.158 -2.0733 -2.6766  0.5448
 2727TIP3    H229741   0.777   2.033   1.307  0.7770 -1.7706  0.9595
 2728TIP3   OH229742   2.499   3.754   1.561 -0.1404 -0.0800 -0.3565
 2728TIP3    H129743   2.587   3.782   1.536 -0.7057  1.9173 -0.2910
 2728TIP3    H229744   2.485   3.671   1.515  1.9408 -0.7019  0.0469
 2729TIP3   OH229745   0.259   4.052   8.363 -0.2654  0.3893 -0.3333
 2729TIP3    H129746   0.189   4.048   8.298  0.6518  1.0072 -1.3913
 2729TIP3    H229747   0.215   4.034   8.447 -2.3025  3.9506 -0.4625
 2730TIP3   OH229748   1.734   2.720   1.726  0.9873 -0.2020 -0.1525
 2730TIP3    H129749   1.680   2.643   1.740  1.5937 -0.7090 -0.5454
 2730TIP3    H229750   1.746   2.757   1.814  0.9010 -0.6912  0.0678
 2731TIP3   OH229751   5.479   3.988   1.695 -0.2385  0.5905  0.0317
 2731TIP3    H129752   5.398   3.941   1.717  0.2298 -0.3351 -0.1532
 2731TIP3    H229753   5.547   3.921   1.703  0.5670  1.4607  0.5948
 2732TIP3   OH229754   2.167   1.615   7.622  0.6838  0.3486 -0.8324
 2732TIP3    H129755   2.173   1.650   7.534 -0.8821  1.6143 -0.4842
 2732TIP3    H229756   2.257   1.594   7.646  1.5686  2.8654 -1.6220
 2733TIP3   OH229757   5.510   3.261   7.168  0.2039  0.2851 -0.0135
 2733TIP3    H129758   5.479   3.200   7.235 -0.7738  0.7328 -0.0342
 2733TIP3    H229759   5.464   3.235   7.088 -0.2095  1.0135 -0.0288
 2734TIP3   OH229760   1.241   4.450   7.978  0.0039  0.2307  0.2433
 2734TIP3    H129761   1.283   4.388   8.039 -1.0131  0.8518  1.6209
 2734TIP3    H229762   1.220   4.397   7.901 -0.4635 -1.0658  1.2216
 2735TIP3   OH229763   3.161   0.503   8.084  0.3846 -0.2956 -0.0653
 2735TIP3    H129764   3.216   0.424   8.086 -0.7959 -1.1591 -0.2780
 2735TIP3    H229765   3.168   0.535   7.994  1.6560  0.4462  0.2750
 2736TIP3   OH229766   3.881   1.057   8.347 -0.0465 -0.1373  0.6759
 2736TIP3    H129767   3.843   1.145   8.350  0.2452 -0.0320  2.2516
 2736TIP3    H229768   3.810   1.001   8.317 -0.9805  0.3096  1.9301
 2737TIP3   OH229769   3.129   5.941   7.366 -0.4115 -0.3194  0.0440
 2737TIP3    H129770   3.209   5.940   7.314 -1.0686  0.9084 -1.0708
 2737TIP3    H229771   3.144   5.878   7.436  1.0914 -0.9169 -0.7844
 2738TIP3   OH229772   0.544   5.817   7.057 -0.4638 -0.2166  0.3644
 2738TIP3    H129773   0.546   5.905   7.018 -0.8593  1.2814  3.4050
 2738TIP3    H229774   0.619   5.772   7.018  1.6649  2.5627  0.9097
 2739TIP3   OH229775   4.553   2.428   8.020 -0.4046 -0.3063  0.0793
 2739TIP3    H129776   4.490   2.480   7.970  0.2966  1.4024  0.9178
 2739TIP3    H229777   4.627   2.487   8.035 -0.0117 -1.2109  1.9336
 2740TIP3   OH229778   0.528   0.591   6.885 -0.3002  1.0796  0.3993
 2740TIP3    H129779   0.525   0.495   6.894 -0.2322  1.1653  1.5988
 2740TIP3    H229780   0.522   0.607   6.791 -0.1835 -0.1099  0.1720
 2741TIP3   OH229781   0.332   5.569   0.763 -0.3126 -0.5496 -0.3456
 2741TIP3    H129782   0.340   5.558   0.858  0.4910  1.1456 -0.1777
 2741TIP3    H229783   0.360   5.485   0.727  0.0693 -0.9830  0.9069
 2742TIP3   OH229784   2.129   4.480   7.821  0.2355 -0.1646 -0.6345
 2742TIP3    H129785   2.145   4.404   7.878  1.4647  0.7977  0.3856
 2742TIP3    H229786   2.087   4.544   7.878  3.2432  1.5626 -0.1321
 2743TIP3   OH229787   0.993   0.232   1.714 -0.0908  0.4636 -0.0013
 2743TIP3    H129788   1.007   0.244   1.808  1.0929  1.2220 -0.2654
 2743TIP3    H229789   0.950   0.312   1.685 -3.0993 -0.8548  0.3430
 2744TIP3   OH229790   5.123   6.532   7.726  0.0361 -0.2024  0.2731
 2744TIP3    H129791   5.202   6.549   7.675 -1.0153 -1.0138 -1.7393
 2744TIP3    H229792   5.124   6.599   7.795  1.7658  0.6517 -0.5186
 2745TIP3   OH229793   1.705   4.608   7.992  0.2716  0.0324 -0.1203
 2745TIP3    H129794   1.633   4.671   7.991 -0.6822 -0.6207  4.8336
 2745TIP3    H229795   1.662   4.524   8.008  1.9825 -0.7981  0.2569
 2746TIP3   OH229796   0.352   2.846   0.844  0.5755  1.0993  0.1765
 2746TIP3    H129797   0.326   2.808   0.760  1.8612  0.4810  0.0466
 2746TIP3    H229798   0.325   2.938   0.838  0.0560  0.9068 -0.6359
 2747TIP3   OH229799   1.522   2.281   8.156  0.6534  0.1996  0.4647
 2747TIP3    H129800   1.500   2.198   8.114  1.7043 -1.0200  2.1549
 2747TIP3    H229801   1.454   2.293   8.222 -1.6373  2.6672 -2.0665
 2748TIP3   OH229802   0.141   3.077   8.397 -0.9256 -0.4279  0.6656
 2748TIP3    H129803   0.199   3.133   8.449  3.3738 -1.1324 -2.7791
 2748TIP3    H229804   0.094   3.137   8.340  0.0856  0.0071  0.2523
 2749TIP3   OH229805   3.187   5.099   2.396  0.0533 -0.2046 -0.6127
 2749TIP3    H129806   3.146   5.185   2.388 -0.3271 -0.3778 -0.5013
 2749TIP3    H229807   3.278   5.118   2.420 -0.5223  0.1146  1.4841
 2750TIP3   OH229808   2.509   0.144   1.007  0.4811  0.2642 -0.7257
 2750TIP3    H129809   2.420   0.169   0.980  0.6604  0.1182 -1.4693
 2750TIP3    H229810   2.499   0.119   1.099 -0.6325 -1.5275 -1.2664
 2751TIP3   OH229811   5.855   1.417   7.905  0.3964 -0.0135  0.4678
 2751TIP3    H129812   5.782   1.425   7.843 -0.4196  0.4799  1.4562
 2751TIP3    H229813   5.889   1.506   7.914 -0.9473  0.3834  2.3850
 2752TIP3   OH229814   0.003   4.897   7.047 -0.2816  0.5772 -0.1763
 2752TIP3    H129815  -0.050   4.831   7.092 -1.3600  3.8880  4.0816
 2752TIP3    H229816  -0.059   4.942   6.990 -0.7079  0.7401  0.3992
 2753TIP3   OH229817   0.711   4.743   2.354 -0.3583 -0.0147 -0.4427
 2753TIP3    H129818   0.638   4.749   2.292 -1.6470  1.0552  1.1130
 2753TIP3    H229819   0.696   4.814   2.416  1.7932 -0.0363  0.1852
 2754TIP3   OH229820   3.856   4.704   1.167  0.3501  0.0794 -0.0515
 2754TIP3    H129821   3.800   4.719   1.243 -0.1919 -0.5187 -0.3228
 2754TIP3    H229822   3.804   4.733   1.093  0.5417 -0.1485 -0.2768
 2755TIP3   OH229823   5.217   6.466   1.509 -0.4783  0.3834 -0.0117
 2755TIP3    H129824   5.276   6.496   1.439 -1.5037  1.0531 -0.6044
 2755TIP3    H229825   5.161   6.541   1.527 -1.5455 -0.4333  0.1405
 2756TIP3   OH229826   1.571   2.500   1.802 -0.7264  0.2752 -0.0503
 2756TIP3    H129827   1.545   2.496   1.894  0.4291  0.4359  0.2972
 2756TIP3    H229828   1.560   2.410   1.770  0.0651 -0.0727  0.6049
 2757TIP3   OH229829   3.972   0.836   7.368 -0.1342 -0.0854 -0.0026
 2757TIP3    H129830   3.903   0.881   7.417  0.3925  0.5633  0.1725
 2757TIP3    H229831   3.943   0.840   7.277 -0.1335  0.5665  0.0166
 2758TIP3   OH229832   1.368   1.400   8.489  0.0623  0.0937  0.7776
 2758TIP3    H129833   1.341   1.382   8.580 -1.6637 -0.7411  0.1514
 2758TIP3    H229834   1.389   1.313   8.454 -0.4260  0.2559  0.0632
 2759TIP3   OH229835   4.359   0.565   1.684 -0.2086  0.3124 -0.7733
 2759TIP3    H129836   4.308   0.534   1.609  0.0044  1.9844 -1.6633
 2759TIP3    H229837   4.294   0.605   1.742 -0.0216  2.4732 -1.9227
 2760TIP3   OH229838   4.493   0.273   2.028  0.5503 -0.3149  0.3433
 2760TIP3    H129839   4.501   0.183   2.058 -0.0187 -0.6436 -0.4483
 2760TIP3    H229840   4.491   0.266   1.932 -2.3955  0.2415  0.2860
 2761TIP3   OH229841   2.542   5.760   2.217  0.1343 -0.2171 -0.3471
 2761TIP3    H129842   2.630   5.751   2.253  0.5782  1.2353 -0.9957
 2761TIP3    H229843   2.488   5.701   2.270  0.9891  0.8483  1.8010
 2762TIP3   OH229844   4.662   1.726   6.886  0.0202  0.1335 -0.3069
 2762TIP3    H129845   4.630   1.645   6.924  0.0444 -0.2095 -1.0005
 2762TIP3    H229846   4.586   1.765   6.844 -0.8431  2.1788  2.7828
 2763TIP3   OH229847   5.590   0.772   6.916  0.0790 -0.6526  0.1526
 2763TIP3    H129848   5.586   0.858   6.958 -0.0974 -0.1047 -0.9391
 2763TIP3    H229849   5.551   0.786   6.829  0.0140 -1.8455 -0.0244
 2764TIP3   OH229850   0.896   6.505   6.818 -0.0710  0.0567 -0.4203
 2764TIP3    H129851   0.810   6.516   6.779 -0.8062  0.4257  1.2185
 2764TIP3    H229852   0.957   6.533   6.750 -1.2313 -0.1236 -1.5746
 2765TIP3   OH229853   3.122   0.436   2.345  0.4990 -0.0430  0.4954
 2765TIP3    H129854   3.040   0.481   2.368 -0.0109 -0.8953  0.4116
 2765TIP3    H229855   3.177   0.447   2.422  0.8223  1.6725  0.0545
 2766TIP3   OH229856   2.285   5.085   1.736  0.4911  0.3145  0.1100
 2766TIP3    H129857   2.264   5.163   1.787 -0.9688 -0.3164  0.5013
 2766TIP3    H229858   2.210   5.073   1.678 -0.2101 -1.8947  1.3867
 2767TIP3   OH229859   2.506   1.758   6.043 -0.0674 -0.3661  0.3225
 2767TIP3    H129860   2.548   1.816   5.980 -0.9062 -0.8552 -0.7165
 2767TIP3    H229861   2.563   1.762   6.120  1.9324 -1.0753 -1.0381
 2768TIP3   OH229862   1.474   2.842   7.936  0.7157  0.1705  0.2742
 2768TIP3    H129863   1.553   2.814   7.890  0.3798 -0.1651 -0.1074
 2768TIP3    H229864   1.473   2.789   8.016  0.9602  0.2857  0.3520
 2769TIP3   OH229865   5.431   6.642   1.745  0.2899  0.8034 -0.3728
 2769TIP3    H129866   5.467   6.639   1.833  1.9932 -0.6071 -1.0680
 2769TIP3    H229867   5.370   6.716   1.747 -1.4509 -0.5394  2.5900
 2770TIP3   OH229868   0.781   0.214   8.204 -0.4676 -0.7443  0.0681
 2770TIP3    H129869   0.870   0.193   8.230 -0.6033 -1.3880  0.0280
 2770TIP3    H229870   0.765   0.301   8.241  0.5269 -0.1732 -0.7855
 2771TIP3   OH229871   0.781   4.558   7.501  0.2323 -0.1229 -0.1121
 2771TIP3    H129872   0.843   4.567   7.574 -0.3279 -1.0314  0.5000
 2771TIP3    H229873   0.708   4.616   7.524  0.8241  0.9138 -0.8114
 2772TIP3   OH229874   1.560   0.219   7.692  0.1648 -0.1207 -0.2389
 2772TIP3    H129875   1.570   0.133   7.733  1.0024 -0.1147 -0.4023
 2772TIP3    H229876   1.589   0.206   7.602  2.3420  0.7599  0.2578
 2773TIP3   OH229877   3.579   0.952   8.359 -0.1110 -0.6628  0.1008
 2773TIP3    H129878   3.609   0.865   8.384 -0.2118 -0.5785  0.5100
 2773TIP3    H229879   3.499   0.966   8.409  0.5400  0.1426  0.9612
 2774TIP3   OH229880   2.905   4.990   8.342 -0.1308  0.2644 -0.2211
 2774TIP3    H129881   2.906   5.039   8.424 -3.1667 -1.1565  0.7889
 2774TIP3    H229882   2.820   5.010   8.302 -0.9168 -2.9773 -0.4424
 2775TIP3   OH229883   5.317   4.030   1.425 -0.3276  0.4181 -0.0244
 2775TIP3    H129884   5.270   4.104   1.462  1.4584  1.6694 -0.1303
 2775TIP3    H229885   5.360   4.065   1.347  0.1846 -0.8527 -0.3456
 2776TIP3   OH229886   2.501   5.722   0.273  0.4059 -0.0517  0.1427
 2776TIP3    H129887   2.488   5.660   0.345  0.4397  0.7964  0.8972
 2776TIP3    H229888   2.494   5.808   0.314  0.7000  0.4485 -0.8288
 2777TIP3   OH229889   2.135   2.876   7.758 -0.4610  0.4025  0.0384
 2777TIP3    H129890   2.222   2.841   7.742 -0.4022  1.1051 -1.3976
 2777TIP3    H229891   2.077   2.819   7.707 -0.4833  1.6713 -1.4210
 2778TIP3   OH229892   0.635   4.874   1.847  0.0826  0.4482 -0.0474
 2778TIP3    H129893   0.583   4.951   1.825  0.8314  0.5508 -1.6256
 2778TIP3    H229894   0.571   4.809   1.875 -0.8859  0.7196 -1.4835
 2779TIP3   OH229895   4.652   6.314   1.164  0.4615  0.4005  0.3116
 2779TIP3    H129896   4.620   6.288   1.078  0.9820  1.2562 -0.1515
 2779TIP3    H229897   4.582   6.290   1.224 -0.2335  0.5111 -0.4492
 2780TIP3   OH229898   6.209   3.167   1.026  0.5367 -0.1859 -0.1030
 2780TIP3    H129899   6.231   3.194   0.937  1.1285  2.4885  0.7535
 2780TIP3    H229900   6.155   3.089   1.015  0.1669  0.3610 -2.8218
 2781TIP3   OH229901   2.804   5.405   2.311 -0.3656 -0.0684 -0.0239
 2781TIP3    H129902   2.793   5.474   2.245 -1.1305 -0.2005 -0.0540
 2781TIP3    H229903   2.717   5.397   2.351 -0.3001 -1.0438 -0.0554
 2782TIP3   OH229904   3.535   6.300   8.583 -0.5609 -0.1747  0.5047
 2782TIP3    H129905   3.520   6.222   8.530  2.2869 -1.4442  1.3842
 2782TIP3    H229906   3.507   6.275   8.671  0.4738 -0.2731  0.8135
 2783TIP3   OH229907   0.471   1.068   0.179  0.3628 -0.5589  0.4794
 2783TIP3    H129908   0.444   1.141   0.123 -0.7519 -2.0548 -1.0483
 2783TIP3    H229909   0.437   1.091   0.265 -1.1955  0.1282 -0.2609
 2784TIP3   OH229910   1.441   5.604   6.279 -0.0109  0.5115  0.1031
 2784TIP3    H129911   1.355   5.603   6.239  0.2172  2.2537 -0.4938
 2784TIP3    H229912   1.437   5.672   6.345 -0.7096 -2.9232  4.0382
 2785TIP3   OH229913   1.346   4.982   7.630  0.2524 -0.1436 -0.3569
 2785TIP3    H129914   1.284   4.934   7.686  0.6835 -3.2677 -2.2819
 2785TIP3    H229915   1.432   4.961   7.666  0.6785 -3.6722 -2.8848
 2786TIP3   OH229916   2.533   0.708   0.612  0.2641 -0.4798  0.3552
 2786TIP3    H129917   2.621   0.713   0.649  0.0423  0.5335  0.7963
 2786TIP3    H229918   2.480   0.763   0.669 -0.3540  0.0961 -0.7340
 2787TIP3   OH229919   3.360   2.156   1.676 -0.1878  0.3284 -0.4705
 2787TIP3    H129920   3.281   2.104   1.664 -0.2714  0.6917 -1.6183
 2787TIP3    H229921   3.341   2.240   1.633  0.6565  0.5767 -0.3801
 2788TIP3   OH229922   2.086   4.165   7.501 -0.4436 -0.2635 -0.7708
 2788TIP3    H129923   1.997   4.198   7.515 -0.5885 -0.8406 -0.2834
 2788TIP3    H229924   2.122   4.222   7.433 -1.1900 -0.0308 -0.9857
 2789TIP3   OH229925   0.879   5.877   7.274  0.1455 -0.5600 -0.0899
 2789TIP3    H129926   0.935   5.815   7.227 -1.6934 -1.4706 -1.1944
 2789TIP3    H229927   0.899   5.862   7.366  2.9236  0.3751 -0.4407
 2790TIP3   OH229928   3.146   2.138   0.246  0.1483 -0.5637 -0.1222
 2790TIP3    H129929   3.242   2.128   0.247  0.1319 -0.7152  0.2846
 2790TIP3    H229930   3.132   2.232   0.230  0.3640 -0.5706 -0.3484
 2791TIP3   OH229931   6.470   6.272   7.598  0.4251  0.2251  0.5975
 2791TIP3    H129932   6.448   6.315   7.681  0.8007  0.6087  0.4977
 2791TIP3    H229933   6.393   6.218   7.579 -0.4361  1.5304  0.2678
 2792TIP3   OH229934   4.206   2.244   0.383  0.8289 -0.2925  0.6915
 2792TIP3    H129935   4.281   2.302   0.392  0.4611  0.0995  1.2886
 2792TIP3    H229936   4.200   2.199   0.468  0.1137  0.0182  0.8121
 2793TIP3   OH229937   2.752   4.519   7.811 -0.5578 -0.0072  0.3639
 2793TIP3    H129938   2.727   4.496   7.900 -0.5565  1.8591  0.8820
 2793TIP3    H229939   2.726   4.611   7.801  1.5960  0.5491 -0.7526
 2794TIP3   OH229940   4.403   0.107   7.188 -0.1758 -0.3278 -0.7561
 2794TIP3    H129941   4.494   0.099   7.215 -0.2470 -1.7142 -0.8118
 2794TIP3    H229942   4.400   0.065   7.102 -1.0140 -1.1215 -0.3665
 2795TIP3   OH229943   2.764   3.284   0.722  0.3516 -0.7909 -0.3528
 2795TIP3    H129944   2.856   3.266   0.704  1.1739  0.9516  1.6519
 2795TIP3    H229945   2.758   3.282   0.818 -1.3937  0.4508 -0.3976
 2796TIP3   OH229946   0.951   0.988   7.619 -0.4190  0.7020 -0.4791
 2796TIP3    H129947   0.900   0.920   7.576 -2.0133  1.7128 -0.2764
 2796TIP3    H229948   0.999   1.032   7.548  0.9781 -0.8680 -0.5567
 2797TIP3   OH229949   2.744   1.249   0.767 -0.3084 -0.3583  0.1403
 2797TIP3    H129950   2.679   1.197   0.815 -0.4189  0.3942  0.8131
 2797TIP3    H229951   2.782   1.307   0.832 -0.0633  0.2896 -0.5638
 2798TIP3   OH229952   0.577   1.625   6.575 -0.2802  0.7245 -0.3464
 2798TIP3    H129953   0.560   1.555   6.637 -0.1911  0.8556 -0.1706
 2798TIP3    H229954   0.644   1.679   6.618  3.0434 -1.4882 -2.2974
 2799TIP3   OH229955   6.376   2.569   6.930 -0.2165  0.7364 -0.0882
 2799TIP3    H129956   6.452   2.530   6.974  0.3325  0.0513 -1.5548
 2799TIP3    H229957   6.301   2.524   6.966  0.3586 -1.2458 -1.2252
 2800TIP3   OH229958   5.604   4.579   1.271 -0.1393  0.3120 -0.1045
 2800TIP3    H129959   5.621   4.503   1.216 -1.5931 -0.6581  0.7127
 2800TIP3    H229960   5.688   4.626   1.275  0.5816 -0.8397 -1.2215
 2801TIP3   OH229961   4.839   2.303   7.345 -0.7846 -0.5333 -0.2659
 2801TIP3    H129962   4.877   2.319   7.259  1.0768 -1.9552  0.2203
 2801TIP3    H229963   4.770   2.238   7.330  1.0593 -2.5636 -0.4846
 2802TIP3   OH229964   6.502   3.792   1.990 -0.0211  0.4912 -0.6384
 2802TIP3    H129965   6.443   3.721   1.965  0.0424  1.2354 -3.2738
 2802TIP3    H229966   6.468   3.868   1.943 -0.6782  2.5305  2.8535
 2803TIP3   OH229967   2.667   5.837   0.080  0.5392 -0.2012 -0.5633
 2803TIP3    H129968   2.604   5.799   0.142 -0.0749  0.7155 -0.6036
 2803TIP3    H229969   2.752   5.808   0.113  0.2296  0.2674  0.7331
 2804TIP3   OH229970   3.395   6.501   6.870  0.4319 -0.7552 -0.2030
 2804TIP3    H129971   3.444   6.543   6.799  0.7422  0.4374  0.6757
 2804TIP3    H229972   3.433   6.414   6.878  3.4611  0.5529  1.3336
 2805TIP3   OH229973   5.402   6.362   0.415  0.6969 -0.9197 -0.2521
 2805TIP3    H129974   5.437   6.325   0.334  0.3882 -0.6391 -0.5183
 2805TIP3    H229975   5.458   6.437   0.433 -0.6154  0.4313 -1.4853
 2806TIP3   OH229976   4.899   2.123   7.737 -0.2904 -0.2101  0.3819
 2806TIP3    H129977   4.857   2.192   7.685 -0.2711 -0.7842 -0.4197
 2806TIP3    H229978   4.914   2.052   7.674 -1.8073 -1.5977  1.5017
 2807TIP3   OH229979   4.292   2.858   0.766  0.3666 -0.2075  0.1767
 2807TIP3    H129980   4.379   2.869   0.728 -0.4173  1.3758 -1.3360
 2807TIP3    H229981   4.239   2.825   0.693 -0.5757  0.1804  0.6723
 2808TIP3   OH229982   1.888   0.576   8.623  0.1491  0.2172  0.7382
 2808TIP3    H129983   1.984   0.585   8.618  0.0099  2.1966  0.6881
 2808TIP3    H229984   1.859   0.585   8.532  0.0307 -3.3732  0.2885
 2809TIP3   OH229985   6.407   4.102   6.774  0.5661  0.1560  0.0802
 2809TIP3    H129986   6.331   4.148   6.809  0.9681  0.4117  0.6142
 2809TIP3    H229987   6.481   4.159   6.793  0.8612  0.0727 -0.7456
 2810TIP3   OH229988   1.216   2.689   7.088 -0.1605 -0.1500 -0.2438
 2810TIP3    H129989   1.310   2.702   7.079 -0.1633 -0.0702 -0.1623
 2810TIP3    H229990   1.204   2.594   7.086  0.1536 -0.2855  1.8506
 2811TIP3   OH229991   3.771   2.595   8.308  0.3813 -0.5273 -0.1668
 2811TIP3    H129992   3.685   2.576   8.269  0.1979  2.2722 -1.3594
 2811TIP3    H229993   3.751   2.625   8.397  0.3353 -1.6715  0.2301
 2812TIP3   OH229994   5.482   3.181   7.888 -0.0496  0.5911 -0.3659
 2812TIP3    H129995   5.395   3.149   7.912  1.4150 -2.4628  1.3140
 2812TIP3    H229996   5.497   3.147   7.800  1.0669 -2.8239  1.0007
 2813TIP3   OH229997   1.125   0.090   8.667 -0.1021 -0.0600 -0.0753
 2813TIP3    H129998   1.166   0.175   8.685  0.1471 -0.0609 -0.6041
 2813TIP3    H229999   1.127   0.083   8.571 -2.4491  0.4837 -0.2207
 2814TIP3   OH230000   1.363   2.155   7.124 -0.0443  0.4015  0.0445
 2814TIP3    H130001   1.289   2.215   7.111 -0.4196 -0.2633 -1.0420
 2814TIP3    H230002   1.322   2.069   7.137  0.5235  0.1640  0.3112
 2815TIP3   OH230003   6.180   0.275   7.510 -0.5771 -0.3319  0.6545
 2815TIP3    H130004   6.101   0.226   7.487  1.4144 -3.1421 -0.8618
 2815TIP3    H230005   6.245   0.207   7.529  1.0960  1.8510  3.4824
 2816TIP3   OH230006   0.011   6.483   1.280  0.5219  0.0652  0.1362
 2816TIP3    H130007  -0.055   6.541   1.241 -0.2263  0.1580  1.4765
 2816TIP3    H230008   0.017   6.409   1.219  0.9788  1.1859 -1.2403
 2817TIP3   OH230009   4.356   4.038   8.431  0.0739 -0.4783  0.5245
 2817TIP3    H130010   4.304   4.039   8.511 -0.5024  0.5687  0.1500
 2817TIP3    H230011   4.404   4.121   8.432  0.2117 -0.5411 -0.1107
 2818TIP3   OH230012   3.399   2.069   0.871 -0.5181 -0.3095  0.0386
 2818TIP3    H130013   3.379   2.060   0.778 -0.9959 -1.5390  0.2294
 2818TIP3    H230014   3.338   2.135   0.903  0.2242  0.7390 -0.6779
 2819TIP3   OH230015   5.152   0.756   6.889  0.2794  0.5416  0.3525
 2819TIP3    H130016   5.230   0.760   6.944  1.9085 -2.8746 -1.3886
 2819TIP3    H230017   5.187   0.749   6.800 -2.0706  0.0209 -0.5883
 2820TIP3   OH230018   2.024   1.242   8.673  0.4667  0.0540  0.4051
 2820TIP3    H130019   2.102   1.296   8.685  0.7984  0.7455 -3.5146
 2820TIP3    H230020   2.048   1.180   8.604 -2.6450  0.9410 -1.6836
 2821TIP3   OH230021   2.503   1.052   7.015 -0.1086  0.0482  0.5641
 2821TIP3    H130022   2.536   0.966   6.990  2.1741  0.6445  1.2168
 2821TIP3    H230023   2.459   1.037   7.099 -0.9371 -0.6755  0.0178
 2822TIP3   OH230024   0.716   0.891   6.313 -0.1843  0.6207 -0.2944
 2822TIP3    H130025   0.719   0.802   6.277  0.9855  0.9548 -1.0896
 2822TIP3    H230026   0.654   0.937   6.256 -0.3026  0.4852 -0.2787
 2823TIP3   OH230027   0.801   3.748   2.058 -0.2265  0.2075 -0.5607
 2823TIP3    H130028   0.861   3.676   2.077  0.0976  0.7532  0.6289
 2823TIP3    H230029   0.851   3.827   2.081 -0.8988  0.7485 -0.9340
 2824TIP3   OH230030   1.045   2.915   2.188 -0.0853  0.4075 -0.1565
 2824TIP3    H130031   1.110   2.857   2.150  0.8678  2.4903 -1.8939
 2824TIP3    H230032   1.063   2.913   2.282  0.9923 -0.7769 -0.3662
 2825TIP3   OH230033   2.915   4.725   7.095 -0.2205 -0.4384 -0.0870
 2825TIP3    H130034   2.986   4.712   7.032 -0.5252  0.3804 -0.6116
 2825TIP3    H230035   2.837   4.738   7.041 -0.1962  2.0880  0.3745
 2826TIP3   OH230036   4.057   4.504   0.101 -0.8232  0.0227  0.3454
 2826TIP3    H130037   3.988   4.570   0.113 -0.1631  0.8633 -0.3836
 2826TIP3    H230038   4.097   4.526   0.017  0.0118 -0.7539  0.5293
 2827TIP3   OH230039   0.057   5.346   0.540  0.9179 -0.2658  0.4901
 2827TIP3    H130040   0.007   5.404   0.598  0.1064 -0.1786 -0.2795
 2827TIP3    H230041  -0.009   5.294   0.495  1.4581  0.4237 -1.1524
 2828TIP3   OH230042   0.865   0.524   8.104 -0.0906 -0.1640 -1.1446
 2828TIP3    H130043   0.903   0.555   8.022  1.0154 -1.7959 -1.2843
 2828TIP3    H230044   0.928   0.551   8.171 -0.4168  0.1573 -0.9663
 2829TIP3   OH230045   5.779   0.120   7.873 -0.0536  0.3769  0.1210
 2829TIP3    H130046   5.803   0.211   7.887  0.9641  0.3949 -1.5660
 2829TIP3    H230047   5.856   0.080   7.833 -1.3925 -0.5575 -1.6759
 2830TIP3   OH230048   1.856   4.703   7.113  0.1894 -0.2954  0.1821
 2830TIP3    H130049   1.779   4.695   7.169 -0.1275 -2.4974 -0.4513
 2830TIP3    H230050   1.838   4.778   7.057 -1.8087 -1.1075 -0.3431
 2831TIP3   OH230051   5.000   1.123   0.435  0.5453 -0.3160  0.3356
 2831TIP3    H130052   5.028   1.032   0.447  0.1978 -0.4079  0.4746
 2831TIP3    H230053   4.930   1.118   0.370  1.1263 -0.0393 -0.3186
 2832TIP3   OH230054   3.204   2.773   0.070  0.1569 -0.0900  0.4860
 2832TIP3    H130055   3.197   2.678   0.068  0.5384 -0.1301  0.7421
 2832TIP3    H230056   3.275   2.793   0.009  0.1322  0.0242  0.4940
 2833TIP3   OH230057   3.595   2.028   8.430 -0.1784 -0.3579  0.0586
 2833TIP3    H130058   3.606   2.020   8.335  0.3323 -1.0034  0.1706
 2833TIP3    H230059   3.500   2.028   8.443 -0.2560 -0.0284 -0.4667
 2834TIP3   OH230060   0.815   0.846   7.880 -0.2456 -0.0653  0.6756
 2834TIP3    H130061   0.850   0.825   7.794  0.1894  3.4013 -0.1286
 2834TIP3    H230062   0.892   0.868   7.933 -0.6379 -0.4065  1.4081
 2835TIP3   OH230063   2.463   3.914   7.502 -0.5605 -0.2225 -0.0383
 2835TIP3    H130064   2.495   4.004   7.504 -1.7992  0.2648 -1.0017
 2835TIP3    H230065   2.497   3.878   7.420 -0.1784 -0.5935  0.2803
 2836TIP3   OH230066   3.337   1.004   0.132 -0.2003 -0.4915 -0.3817
 2836TIP3    H130067   3.249   0.974   0.150  0.2989 -1.2294  0.9035
 2836TIP3    H230068   3.340   1.093   0.168 -0.6489 -0.1582 -1.1482
 2837TIP3   OH230069   6.790   4.433   7.454  0.2985  0.1526  0.1651
 2837TIP3    H130070   6.804   4.400   7.365 -0.3108 -0.0241  0.1284
 2837TIP3    H230071   6.832   4.519   7.455  0.5561  0.0307 -0.2065
 2838TIP3   OH230072   1.103   3.386   7.863  0.5825 -0.0915  0.3813
 2838TIP3    H130073   1.108   3.447   7.790 -1.3084 -0.8255 -0.4183
 2838TIP3    H230074   1.076   3.303   7.823  0.7219 -0.8248  1.7510
 2839TIP3   OH230075   1.028   6.379   1.476  0.3609  0.0047 -0.3913
 2839TIP3    H130076   1.040   6.464   1.519 -1.5780  0.8621 -1.4306
 2839TIP3    H230077   0.939   6.381   1.443  0.4306 -2.2769 -0.8741
 2840TIP3   OH230078   2.424   0.487   7.037 -0.0308  0.0921  0.2486
 2840TIP3    H130079   2.384   0.564   7.077  0.3609  0.3386  0.1751
 2840TIP3    H230080   2.354   0.423   7.032 -0.2891  0.3467  0.5746
 2841TIP3   OH230081   3.300   0.453   8.411  0.0808  0.3419  0.3288
 2841TIP3    H130082   3.243   0.494   8.346  0.5406 -1.2134 -1.1298
 2841TIP3    H230083   3.375   0.421   8.360  1.2203  0.4400  1.8735
 2842TIP3   OH230084   3.350   2.380   2.452 -0.3065 -0.3376 -0.8038
 2842TIP3    H130085   3.312   2.297   2.423 -1.1666 -0.2947  0.1216
 2842TIP3    H230086   3.442   2.374   2.429 -0.5921 -1.0481 -1.8389
 2843TIP3   OH230087   5.883   3.491   1.683 -0.4360  0.1457  0.2226
 2843TIP3    H130088   5.949   3.444   1.633 -0.0256  0.3067  0.6058
 2843TIP3    H230089   5.896   3.583   1.659 -0.5333  0.1752  0.2828
 2844TIP3   OH230090   6.646   6.323   8.391  0.3507  1.1162 -0.1355
 2844TIP3    H130091   6.587   6.344   8.464 -1.6598 -0.0381 -1.3254
 2844TIP3    H230092   6.652   6.405   8.341  2.2705  2.1081  1.5770
 2845TIP3   OH230093   2.353   0.562   0.930  0.7071  0.6060  0.1163
 2845TIP3    H130094   2.354   0.655   0.909  0.8193  0.3854 -0.8835
 2845TIP3    H230095   2.438   0.529   0.901 -0.1354 -0.2220 -1.5101
 2846TIP3   OH230096   6.817   3.816   0.466  0.0182 -0.6781  0.2644
 2846TIP3    H130097   6.873   3.771   0.528 -1.0675 -1.3774  0.7636
 2846TIP3    H230098   6.827   3.767   0.384  0.4003 -0.5728  0.2437
 2847TIP3   OH230099   2.255   2.772   2.300 -0.3602 -0.3672  0.0365
 2847TIP3    H130100   2.201   2.704   2.342 -0.2789 -0.4420  0.0206
 2847TIP3    H230101   2.259   2.843   2.364 -1.0882 -0.0581 -0.2516
 2848TIP3   OH230102   6.732   0.612   8.202  0.4010 -0.4053 -0.2458
 2848TIP3    H130103   6.758   0.634   8.291 -0.9744  1.6893 -0.2788
 2848TIP3    H230104   6.813   0.616   8.152  0.7531  1.7664  0.3668
 2849TIP3   OH230105   2.718   6.401   8.351 -0.1419 -0.2733  0.0224
 2849TIP3    H130106   2.664   6.322   8.357  0.7897 -0.8363  1.8695
 2849TIP3    H230107   2.660   6.472   8.380 -0.2916 -0.6536  0.6645
 2850TIP3   OH230108   3.055   6.722   7.685 -0.0242  0.6440 -0.3354
 2850TIP3    H130109   2.995   6.772   7.629  0.5418  1.9043  0.1430
 2850TIP3    H230110   3.029   6.631   7.672  0.4383  0.8292 -3.0439
 2851TIP3   OH230111   5.279   6.212   8.651 -0.1154 -0.1249 -0.0058
 2851TIP3    H130112   5.284   6.237   8.558 -1.1501  0.5863  0.1007
 2851TIP3    H230113   5.250   6.292   8.695  1.3658 -0.1573  1.0976
 2852TIP3   OH230114   3.396   0.963   7.726  0.3011  0.6235  0.2670
 2852TIP3    H130115   3.435   1.032   7.780  0.6984  1.3401 -0.9008
 2852TIP3    H230116   3.471   0.907   7.702  0.3229  0.9756 -0.4980
 2853TIP3   OH230117   0.606   3.533   2.042  0.1497  0.1422  0.0869
 2853TIP3    H130118   0.673   3.596   2.069  0.5492 -0.6202  0.9444
 2853TIP3    H230119   0.570   3.501   2.124 -1.0262  0.2713 -0.3644
 2854TIP3   OH230120   5.381   1.440   2.155 -0.2730  0.2442  0.2929
 2854TIP3    H130121   5.360   1.470   2.244  1.1332 -0.8676  1.0486
 2854TIP3    H230122   5.350   1.349   2.153 -1.3049  0.5981 -0.7608
 2855TIP3   OH230123   0.305   1.615   7.640 -0.3121  0.2028 -0.0706
 2855TIP3    H130124   0.365   1.634   7.567  0.6112  2.7206  1.2100
 2855TIP3    H230125   0.225   1.661   7.616 -0.3477  0.1857  0.0181
 2856TIP3   OH230126   2.797   5.573   8.591 -0.1869 -0.2351 -0.6486
 2856TIP3    H130127   2.875   5.517   8.592 -0.9237 -1.2738  0.2889
 2856TIP3    H230128   2.763   5.568   8.681  0.5288  2.8933 -0.0767
 2857TIP3   OH230129   2.726   6.066   6.633 -0.3836  0.0998  0.4930
 2857TIP3    H130130   2.681   6.147   6.605  0.4425  0.4715  0.2232
 2857TIP3    H230131   2.816   6.093   6.648 -0.0136 -0.8583  0.0305
 2858TIP3   OH230132   4.240   4.370   1.100 -0.4471  0.1921  0.1941
 2858TIP3    H130133   4.187   4.295   1.127 -0.9579  0.1169 -0.9331
 2858TIP3    H230134   4.313   4.372   1.161 -0.9412 -0.6391  0.8308
 2859TIP3   OH230135   0.526   2.005   8.289 -0.3627 -0.1277 -0.0410
 2859TIP3    H130136   0.525   2.023   8.383 -1.3499 -0.3365 -0.0035
 2859TIP3    H230137   0.613   1.968   8.273  0.1768  0.7901  0.6118
 2860TIP3   OH230138   2.014   5.822   8.314  0.2730  0.3222  0.3206
 2860TIP3    H130139   2.027   5.764   8.239  0.0524 -0.5730  0.9512
 2860TIP3    H230140   1.945   5.882   8.286  0.4392  0.2217 -0.3192
 2861TIP3   OH230141   3.986   5.595   0.979 -0.4074  0.1711  0.2893
 2861TIP3    H130142   3.943   5.651   1.043 -1.2996  1.0315 -1.0244
 2861TIP3    H230143   3.979   5.643   0.896  2.9882  0.3410 -0.0555
 2862TIP3   OH230144   0.711   3.820   0.958 -0.0208 -0.1959  0.0225
 2862TIP3    H130145   0.627   3.854   0.929 -0.2300  0.4860  1.3560
 2862TIP3    H230146   0.747   3.776   0.881 -2.1991 -1.7134 -0.1958
 2863TIP3   OH230147   0.631   5.531   8.469  0.3181  0.4868  0.0666
 2863TIP3    H130148   0.628   5.487   8.384 -0.8491 -0.3305  0.5048
 2863TIP3    H230149   0.723   5.551   8.482  0.4421  1.3134 -1.7223
 2864TIP3   OH230150   1.158   0.519   1.844  0.4117  0.1810  0.0986
 2864TIP3    H130151   1.150   0.478   1.931  1.1089 -1.5062 -0.5866
 2864TIP3    H230152   1.074   0.561   1.830 -0.5243 -1.3899  0.7065
 2865TIP3   OH230153   0.422   4.283   7.385  0.1576 -0.2419  0.5915
 2865TIP3    H130154   0.381   4.245   7.463 -1.4006  1.8101  0.8615
 2865TIP3    H230155   0.361   4.260   7.314 -0.6319  1.3632  0.7081
 2866TIP3   OH230156   0.055   4.755   7.443 -0.0106 -0.0407 -0.4800
 2866TIP3    H130157   0.150   4.754   7.438  0.3344 -2.2730  3.1415
 2866TIP3    H230158   0.034   4.844   7.473  0.9781  0.2648 -0.6479
 2867TIP3   OH230159   0.968   4.876   0.371  0.0453 -0.0766 -0.6489
 2867TIP3    H130160   0.884   4.882   0.326 -0.0557 -0.1632 -0.4750
 2867TIP3    H230161   0.961   4.939   0.443 -0.5435 -1.3109  0.4214
 2868TIP3   OH230162   3.693   5.610   7.509  0.1643 -0.1942  0.0432
 2868TIP3    H130163   3.611   5.568   7.535  0.2608 -0.6993 -0.4613
 2868TIP3    H230164   3.758   5.540   7.513  0.8268  0.4608  1.6306
 2869TIP3   OH230165   6.194   0.217   1.502  0.0443 -0.3347 -0.7051
 2869TIP3    H130166   6.167   0.129   1.529  1.2445 -0.6594 -0.5253
 2869TIP3    H230167   6.285   0.207   1.474  0.2384  0.8741 -0.5548
 2870TIP3   OH230168   1.584   0.846   0.051  0.3559  0.2933  0.3690
 2870TIP3    H130169   1.595   0.941   0.048 -0.1487  0.3745  0.9119
 2870TIP3    H230170   1.637   0.818   0.125 -0.1591  0.2584  0.7334
 2871TIP3   OH230171   3.383   4.308   0.606  0.3322  0.2893 -0.2089
 2871TIP3    H130172   3.342   4.377   0.553 -0.1986  1.0516  1.1472
 2871TIP3    H230173   3.477   4.326   0.600  0.4416 -0.6006 -2.1490
 2872TIP3   OH230174   5.751   0.742   8.680 -0.7430  0.4401 -0.1652
 2872TIP3    H130175   5.747   0.649   8.659 -0.5381  0.0769  1.2978
 2872TIP3    H230176   5.671   0.779   8.642 -0.4762 -0.1758 -1.3830
 2873TIP3   OH230177   5.693   5.550   0.078  0.5730 -0.2841  0.5466
 2873TIP3    H130178   5.715   5.632   0.121  0.6506  0.5679 -1.0507
 2873TIP3    H230179   5.603   5.562   0.047  1.4713  0.2805 -2.0291
 2874TIP3   OH230180   4.207   5.295   1.069  0.3178 -0.4978  0.2948
 2874TIP3    H130181   4.201   5.286   0.974  3.6616 -1.7245  0.0634
 2874TIP3    H230182   4.248   5.380   1.083  0.0306 -0.4125  0.6422
 2875TIP3   OH230183   1.060   3.289   0.867  0.1276  0.1700  0.2561
 2875TIP3    H130184   1.014   3.358   0.914 -0.1528 -1.6040  2.7913
 2875TIP3    H230185   1.002   3.267   0.794 -0.1671  1.9497 -0.0947
 2876TIP3   OH230186   6.359   1.967   7.888  0.1338 -0.2043  0.3683
 2876TIP3    H130187   6.412   2.038   7.923 -1.2818  0.0139  2.1854
 2876TIP3    H230188   6.270   2.000   7.891 -0.6361 -2.2253  1.8207
 2877TIP3   OH230189   4.050   1.746   7.170 -0.3625  0.0458  0.5930
 2877TIP3    H130190   3.995   1.818   7.139 -1.3791 -1.3981 -1.1688
 2877TIP3    H230191   4.039   1.677   7.104  2.3830 -0.8883  0.9901
 2878TIP3   OH230192   4.809   5.662   0.611 -0.0899  0.3428  0.0018
 2878TIP3    H130193   4.723   5.636   0.578 -1.1684  1.5247  1.7525
 2878TIP3    H230194   4.819   5.753   0.583  0.4825  0.2897  0.0276
 2879TIP3   OH230195   2.660   0.075   0.673 -0.4800 -0.0061 -0.2118
 2879TIP3    H130196   2.688  -0.005   0.719  0.6213 -1.0769 -2.5894
 2879TIP3    H230197   2.624   0.131   0.742 -0.3210 -2.1222  1.6922
 2880TIP3   OH230198   1.185   0.672   0.056 -0.5626 -0.1479  0.0697
 2880TIP3    H130199   1.177   0.667   0.151  0.5675 -1.0108  0.1363
 2880TIP3    H230200   1.279   0.666   0.039 -0.7293  0.2270 -1.0961
 2881TIP3   OH230201   1.267   0.666   7.975  0.1500 -0.3419  0.0954
 2881TIP3    H130202   1.245   0.587   7.926 -1.6406  0.0291  0.2398
 2881TIP3    H230203   1.244   0.738   7.916  2.2663  0.1183 -0.2459
 2882TIP3   OH230204   3.528   5.784   0.093  0.5329  0.0211  0.0865
 2882TIP3    H130205   3.605   5.791   0.037  0.2550 -2.2091 -0.6735
 2882TIP3    H230206   3.454   5.787   0.033 -0.0192  1.9576  0.7901
 2883TIP3   OH230207   1.130   1.880   0.688  0.2967 -0.4324 -0.1483
 2883TIP3    H130208   1.109   1.796   0.730 -2.6213 -0.7233 -1.9084
 2883TIP3    H230209   1.180   1.928   0.754  2.2636 -3.5737  0.8569
 2884TIP3   OH230210   2.607   5.772   7.159  0.2809  0.0343 -0.4060
 2884TIP3    H130211   2.668   5.799   7.091  2.0837 -1.8266  0.3669
 2884TIP3    H230212   2.576   5.686   7.130 -1.0228  0.3956 -0.1589
 2885TIP3   OH230213   6.711   0.093   1.444  0.1791  0.0029  0.2837
 2885TIP3    H130214   6.722   0.085   1.350  1.9511  0.6017  0.3947
 2885TIP3    H230215   6.677   0.008   1.472  1.3744 -0.8383 -0.6917
 2886TIP3   OH230216   0.335   6.493   6.944 -0.1237  0.2183  0.1991
 2886TIP3    H130217   0.350   6.436   6.869  3.1652 -0.7300  1.3993
 2886TIP3    H230218   0.352   6.581   6.912 -2.5279  0.3187 -1.0032
 2887TIP3   OH230219   4.349   1.623   0.360  0.2243 -0.0582 -0.1100
 2887TIP3    H130220   4.374   1.671   0.439  0.3698 -1.9081  1.0325
 2887TIP3    H230221   4.432   1.598   0.320  0.2148 -1.3945  0.6383
 2888TIP3   OH230222   3.351   1.505   1.410 -0.5551 -0.2369  0.2134
 2888TIP3    H130223   3.363   1.411   1.423 -1.0000 -0.3556 -0.1861
 2888TIP3    H230224   3.259   1.514   1.384 -0.9271  0.4709  1.6879
 2889TIP3   OH230225   2.985   1.442   8.016  0.0926 -0.2278  0.5897
 2889TIP3    H130226   3.003   1.356   7.977  1.3078 -0.0072  0.6154
 2889TIP3    H230227   3.005   1.505   7.947  0.7789  0.0972  1.0684
 2890TIP3   OH230228   6.662   3.168   0.047  0.3950 -0.2925  0.5218
 2890TIP3    H130229   6.568   3.170   0.031  0.4119 -0.8272  0.3096
 2890TIP3    H230230   6.680   3.245   0.100 -0.3260 -0.7269  1.4250
 2891TIP3   OH230231   6.423   6.449   7.823  0.1896 -0.3929 -0.1615
 2891TIP3    H130232   6.342   6.500   7.832  0.2800 -0.0497 -1.1974
 2891TIP3    H230233   6.493   6.511   7.839  0.2887 -0.2812 -1.0007
 2892TIP3   OH230234   5.366   2.119   7.539 -0.2016  0.4511 -0.6083
 2892TIP3    H130235   5.370   2.115   7.444  1.2389  1.0015 -0.5978
 2892TIP3    H230236   5.331   2.205   7.559  4.5959  2.7316 -0.7029
 2893TIP3   OH230237   3.689   5.870   8.595 -0.1756 -0.0583 -0.2512
 2893TIP3    H130238   3.767   5.914   8.561  1.0215 -0.7970  1.3803
 2893TIP3    H230239   3.616   5.926   8.569  0.7517  0.0914 -2.7895
 2894TIP3   OH230240   0.082   5.427   1.680 -0.0324  0.1911 -0.1226
 2894TIP3    H130241   0.092   5.397   1.771  0.6512 -0.8707 -0.5175
 2894TIP3    H230242   0.172   5.429   1.647 -0.2823  0.5647 -0.7768
 2895TIP3   OH230243   5.214   6.039   2.216 -0.4517  0.2710  0.0611
 2895TIP3    H130244   5.149   6.083   2.269 -1.7186 -0.5665 -0.7460
 2895TIP3    H230245   5.180   5.951   2.203  1.1688 -0.4171  0.1599
 2896TIP3   OH230246   1.897   1.514   1.798  0.2916 -0.1477  0.7307
 2896TIP3    H130247   1.946   1.574   1.855 -0.0637  0.0761  0.8002
 2896TIP3    H230248   1.845   1.461   1.857 -0.3990  0.3694  0.5913
 2897TIP3   OH230249   3.555   6.540   6.665  0.0042 -0.1616 -0.0065
 2897TIP3    H130250   3.620   6.606   6.640 -1.1732  0.6255 -1.1354
 2897TIP3    H230251   3.587   6.458   6.628  0.0585  0.3376 -1.0982
 2898TIP3   OH230252   3.480   3.727   7.637 -0.1423  0.2565 -0.7108
 2898TIP3    H130253   3.389   3.752   7.622  0.4749  3.3898  0.1152
 2898TIP3    H230254   3.478   3.677   7.718 -1.2193 -0.7762 -1.3348
 2899TIP3   OH230255   4.215   2.271   2.495 -0.0508 -0.2182  0.3860
 2899TIP3    H130256   4.234   2.330   2.423 -1.8055 -0.0891 -0.0079
 2899TIP3    H230257   4.203   2.328   2.571 -1.7837 -0.0280 -0.0024
 2900TIP3   OH230258   1.728   4.584   1.541 -0.3438  0.4476  0.3533
 2900TIP3    H130259   1.729   4.641   1.618  0.4349 -0.1235  0.7738
 2900TIP3    H230260   1.741   4.644   1.467 -3.1740  1.3095  0.4105
 2901TIP3   OH230261   5.265   0.147   0.538 -0.4135 -0.1530 -0.8974
 2901TIP3    H130262   5.267   0.238   0.508 -0.5470 -0.9088 -3.4502
 2901TIP3    H230263   5.171   0.126   0.543 -0.4523  0.3318  1.5125
 2902TIP3   OH230264   3.685   5.514   1.143 -0.2174 -0.4133  0.4196
 2902TIP3    H130265   3.695   5.603   1.109 -2.1407 -0.0018  0.8711
 2902TIP3    H230266   3.719   5.519   1.233  2.0580 -0.7980 -0.3406
 2903TIP3   OH230267   6.156   1.434   1.415 -0.2027  0.2744 -0.0346
 2903TIP3    H130268   6.160   1.390   1.500 -1.3960  1.8047  0.8433
 2903TIP3    H230269   6.234   1.401   1.368  0.1254 -1.0779  1.3733
 2904TIP3   OH230270   2.932   0.518   8.484 -0.5126  0.0653 -0.4237
 2904TIP3    H130271   2.940   0.513   8.388 -0.5349 -0.6779 -0.3905
 2904TIP3    H230272   2.949   0.610   8.504 -0.5475  0.2376 -1.1471
 2905TIP3   OH230273   2.903   1.178   7.304  0.1332  0.1912 -0.2893
 2905TIP3    H130274   2.834   1.132   7.352  0.8692  1.0045  1.6699
 2905TIP3    H230275   2.944   1.110   7.250  0.9776 -1.4659  2.2502
 2906TIP3   OH230276   4.820   1.183   8.171  0.2745 -0.7997 -0.5114
 2906TIP3    H130277   4.828   1.258   8.113  0.8333 -1.8818 -1.8916
 2906TIP3    H230278   4.744   1.203   8.226 -0.8075 -0.1023 -2.1856
 2907TIP3   OH230279   1.841   0.009   8.086  0.3062  0.0793  0.2741
 2907TIP3    H130280   1.748   0.027   8.070  1.0352  1.0736 -3.8862
 2907TIP3    H230281   1.859   0.051   8.170 -2.4431  2.0709  0.0065
 2908TIP3   OH230282   6.155   2.614   7.810 -0.2377 -0.0813 -0.2299
 2908TIP3    H130283   6.108   2.636   7.890 -1.5913 -0.2317 -0.9559
 2908TIP3    H230284   6.089   2.615   7.742  0.4610 -2.0051 -1.0314
 2909TIP3   OH230285   4.568   1.145   8.326  0.4278 -0.2424 -0.0749
 2909TIP3    H130286   4.479   1.116   8.349  0.4796 -1.1013 -0.8962
 2909TIP3    H230287   4.624   1.104   8.392  0.1728  0.8444  0.8533
 2910TIP3   OH230288   5.862   5.813   7.774  0.2449 -1.0305  0.6910
 2910TIP3    H130289   5.873   5.895   7.822  0.7507 -1.3603  1.1375
 2910TIP3    H230290   5.874   5.838   7.682  2.6369 -0.9636  0.9622
 2911TIP3   OH230291   1.400   1.491   7.368 -0.1438 -0.0646 -0.2063
 2911TIP3    H130292   1.401   1.538   7.452  0.4339  1.4294 -1.0003
 2911TIP3    H230293   1.323   1.527   7.322  0.5871  0.5130 -1.0195
 2912TIP3   OH230294   5.070   3.690   0.792 -0.1290  0.1728  0.0828
 2912TIP3    H130295   4.981   3.675   0.757 -0.4362  0.4477  0.7309
 2912TIP3    H230296   5.121   3.718   0.716 -0.1773 -1.6087 -0.6425
 2913TIP3   OH230297   0.425   6.185   1.700 -0.0238  0.2594 -0.4813
 2913TIP3    H130298   0.390   6.096   1.692 -1.9430  0.8851  0.4543
 2913TIP3    H230299   0.417   6.222   1.612 -0.8876  0.0768 -0.4879
 2914TIP3   OH230300   0.442   4.689   1.984  0.0144  0.0188  0.0451
 2914TIP3    H130301   0.366   4.651   2.029 -0.5407  0.8540 -0.1765
 2914TIP3    H230302   0.456   4.631   1.909 -0.6335  0.0545 -0.1140
 2915TIP3   OH230303   3.284   2.916   7.604 -0.4477  0.0743  0.3123
 2915TIP3    H130304   3.264   2.831   7.566  2.1320 -0.0592 -0.9647
 2915TIP3    H230305   3.358   2.899   7.663  1.3678  1.6445 -1.3814
 2916TIP3   OH230306   6.561   4.680   1.880  0.4527  0.2339 -0.3821
 2916TIP3    H130307   6.551   4.766   1.921  0.9313 -0.0108  0.2516
 2916TIP3    H230308   6.471   4.652   1.863  0.3041  1.0710 -1.0586
 2917TIP3   OH230309   5.602   2.886   1.993  0.4235  0.0297  0.3751
 2917TIP3    H130310   5.681   2.898   1.940 -0.1989  0.4826 -0.4751
 2917TIP3    H230311   5.634   2.850   2.076  1.2327 -2.8350 -1.0356
 2918TIP3   OH230312   3.748   3.769   7.268 -0.4331  0.7314 -0.5028
 2918TIP3    H130313   3.752   3.725   7.353  1.9459  1.4571 -0.1711
 2918TIP3    H230314   3.803   3.716   7.210  0.7248  2.0287 -0.6541
 2919TIP3   OH230315   3.954   4.529   8.520 -0.1637  0.1059  0.2235
 2919TIP3    H130316   3.894   4.597   8.549 -2.3277 -0.6372 -2.1532
 2919TIP3    H230317   3.921   4.449   8.561 -1.0195 -0.3377 -1.2408
 2920TIP3   OH230318   6.815   4.949   8.647  0.2608 -0.1555  0.0702
 2920TIP3    H130319   6.831   4.856   8.632 -0.7126 -0.3732  0.2848
 2920TIP3    H230320   6.720   4.955   8.660  0.5489  0.5732  2.1295
 2921TIP3   OH230321   4.329   1.724   1.703  0.1441  0.2994  0.1516
 2921TIP3    H130322   4.379   1.675   1.769 -3.7996 -2.4839  1.4283
 2921TIP3    H230323   4.273   1.782   1.754 -2.4119 -1.3276 -0.6295
 2922TIP3   OH230324   1.412   0.082   7.192 -0.3060  0.0099 -0.3815
 2922TIP3    H130325   1.507   0.092   7.190 -0.1385 -0.8986  1.5772
 2922TIP3    H230326   1.381   0.146   7.127  1.5502  1.4454  0.0352
 2923TIP3   OH230327   2.875   0.393   6.951  0.4649  0.7202  0.0892
 2923TIP3    H130328   2.879   0.299   6.934 -0.0137  0.5924  0.6411
 2923TIP3    H230329   2.933   0.432   6.886 -0.4525  0.1669 -1.0925
 2924TIP3   OH230330   0.922   6.543   1.021  0.3326 -0.0763 -0.2249
 2924TIP3    H130331   0.845   6.569   0.970 -0.6946 -2.3414  0.0232
 2924TIP3    H230332   0.996   6.559   0.964 -0.3477  1.7135 -0.6643
 2925TIP3   OH230333   3.114   4.612   2.699  0.0790 -0.3077  0.6575
 2925TIP3    H130334   3.197   4.572   2.723 -0.7671 -1.5151  1.7490
 2925TIP3    H230335   3.137   4.685   2.641  1.8045 -1.2918  0.0463
 2926TIP3   OH230336   0.651   5.886   6.412  0.2738  0.7141  0.1236
 2926TIP3    H130337   0.643   5.961   6.471  0.4859  1.3114 -0.5907
 2926TIP3    H230338   0.638   5.810   6.468 -4.5487  1.2674  0.2211
 2927TIP3   OH230339   0.914   4.700   0.614 -0.2753  0.4855 -0.2815
 2927TIP3    H130340   0.982   4.717   0.549  0.1687  0.1471  0.0846
 2927TIP3    H230341   0.953   4.635   0.673  0.5501  3.0523  2.2123
 2928TIP3   OH230342   4.259   2.495   8.436 -0.1009 -0.2280  0.1360
 2928TIP3    H130343   4.315   2.520   8.362 -0.4604  1.5115  0.4050
 2928TIP3    H230344   4.170   2.500   8.400 -0.2903  0.8329  0.7056
 2929TIP3   OH230345   6.489   4.648   8.587  0.3523  0.4499 -0.3051
 2929TIP3    H130346   6.480   4.617   8.497  0.8283  3.3977 -1.4769
 2929TIP3    H230347   6.406   4.626   8.629 -0.0560 -0.5592 -1.5836
 2930TIP3   OH230348   4.435   0.169   0.967  0.0697 -0.7407 -0.0017
 2930TIP3    H130349   4.409   0.115   0.892  1.1162 -1.0257 -0.1674
 2930TIP3    H230350   4.454   0.255   0.929 -0.7744 -0.4775  0.1462
 2931TIP3   OH230351   2.396   5.480   1.669 -0.4275 -0.2951 -0.2608
 2931TIP3    H130352   2.359   5.425   1.739 -1.2123 -2.6651 -2.3731
 2931TIP3    H230353   2.460   5.535   1.713 -1.7151 -0.8169  2.4953
 2932TIP3   OH230354   2.848   1.089   7.722  0.0989  0.1939  0.1037
 2932TIP3    H130355   2.784   1.156   7.743  0.5632  0.6857 -0.0398
 2932TIP3    H230356   2.831   1.019   7.785  2.4803  2.2482  3.2933
 2933TIP3   OH230357   1.036   2.273   2.177 -0.1676 -0.3219  0.2102
 2933TIP3    H130358   1.076   2.282   2.091  2.0765 -0.0608  1.2209
 2933TIP3    H230359   0.946   2.246   2.159 -0.2954  1.3974 -2.2640
 2934TIP3   OH230360   1.240   6.743   0.658  0.2336 -0.4589 -0.0393
 2934TIP3    H130361   1.238   6.826   0.609 -1.4890 -0.6016 -0.3019
 2934TIP3    H230362   1.244   6.770   0.750 -1.2062 -0.0111 -0.0782
 2935TIP3   OH230363   4.571   1.968   0.426  0.5364  0.1241  0.1329
 2935TIP3    H130364   4.493   1.976   0.372 -0.9668 -0.0947  2.1667
 2935TIP3    H230365   4.628   2.039   0.396  0.2277 -0.5543 -2.3321
 2936TIP3   OH230366   1.887   1.541   0.683 -0.1942 -0.3172  0.3258
 2936TIP3    H130367   1.885   1.448   0.662 -1.1964 -0.3400  0.4987
 2936TIP3    H230368   1.844   1.548   0.768  0.8841  0.1721  0.8517
 2937TIP3   OH230369   0.546   4.146   8.004 -0.4105  0.4845  0.2319
 2937TIP3    H130370   0.529   4.213   8.070  0.1329  0.4382  0.4284
 2937TIP3    H230371   0.482   4.163   7.935 -1.0014  0.5246  0.7765
 2938TIP3   OH230372   3.624   3.771   1.326  0.2587 -0.3023  0.4461
 2938TIP3    H130373   3.563   3.697   1.330  0.0026 -0.1056  0.2522
 2938TIP3    H230374   3.575   3.844   1.366  0.0904  0.0422 -0.3683
 2939TIP3   OH230375   3.372   5.648   0.318 -0.4258  0.3538 -0.1988
 2939TIP3    H130376   3.296   5.704   0.333  0.2877  1.0319  1.1246
 2939TIP3    H230377   3.427   5.697   0.257 -0.8221  0.0730 -0.7901
 2940TIP3   OH230378   0.066   1.403   7.348 -0.6087  0.0862  0.6673
 2940TIP3    H130379   0.078   1.452   7.429 -0.7922  1.0777  0.1185
 2940TIP3    H230380   0.102   1.460   7.280  1.0486 -1.4214  0.2224
 2941TIP3   OH230381   2.416   4.479   7.416  0.2868  0.2998  0.2110
 2941TIP3    H130382   2.353   4.507   7.483  1.3490  1.3404  0.8182
 2941TIP3    H230383   2.473   4.555   7.404  0.7694 -0.2450 -1.1111
 2942TIP3   OH230384   1.094   4.643   0.908 -0.3973 -0.2451  0.2409
 2942TIP3    H130385   1.100   4.734   0.937 -0.0709 -0.1227 -0.1961
 2942TIP3    H230386   1.039   4.601   0.973 -0.6216  0.2873  0.4024
 2943TIP3   OH230387   6.663   5.903   0.611 -0.4092  0.2998 -0.6625
 2943TIP3    H130388   6.636   5.817   0.579 -0.2085 -0.1588  0.3535
 2943TIP3    H230389   6.580   5.951   0.621 -0.9825 -1.0958  2.4153
 2944TIP3   OH230390   5.210   2.542   2.164  0.3473 -0.0537  0.1605
 2944TIP3    H130391   5.179   2.468   2.112 -1.1572  1.8513 -1.8093
 2944TIP3    H230392   5.268   2.590   2.106  0.2910  1.0108  0.9556
 2945TIP3   OH230393   0.853   2.752   8.615  0.1713  0.3343  0.2350
 2945TIP3    H130394   0.819   2.833   8.577  1.2754  0.0734 -1.4173
 2945TIP3    H230395   0.948   2.762   8.611  0.3371 -1.2007 -0.3973
 2946TIP3   OH230396   6.181   6.073   8.517 -0.0466  0.1891  0.8176
 2946TIP3    H130397   6.146   6.162   8.520 -1.5998 -0.3296 -0.7035
 2946TIP3    H230398   6.250   6.076   8.451  0.3168  0.3766  1.1981
 2947TIP3   OH230399   0.956   4.370   0.467 -0.0118 -0.6507  0.0128
 2947TIP3    H130400   0.864   4.392   0.482 -0.1841 -0.5348 -1.0888
 2947TIP3    H230401   0.963   4.361   0.372  1.0348 -1.0412  0.1127
 2948TIP3   OH230402   2.599   1.211   7.807  0.7783  0.6392 -0.1389
 2948TIP3    H130403   2.600   1.268   7.884  1.3969 -0.3051  0.5826
 2948TIP3    H230404   2.517   1.231   7.763  0.2742  0.9991  0.9250
 2949TIP3   OH230405   4.629   4.191   0.680 -0.0642 -0.3723 -0.0520
 2949TIP3    H130406   4.712   4.175   0.634 -1.1267  0.0563 -2.2557
 2949TIP3    H230407   4.653   4.244   0.756  1.8639 -1.6245  0.2821
 2950TIP3   OH230408   6.312   1.142   1.442 -0.0595 -0.1854 -0.7008
 2950TIP3    H130409   6.290   1.077   1.376  0.8792  0.3874 -1.5922
 2950TIP3    H230410   6.343   1.218   1.393 -1.3127  1.0374  0.3008
 2951TIP3   OH230411   6.017   5.098   0.052  0.4813 -0.6225 -0.5456
 2951TIP3    H130412   5.964   5.063   0.123  1.1343 -0.4950  0.0117
 2951TIP3    H230413   5.956   5.106  -0.022 -0.6720  1.0022  0.5121
 2952TIP3   OH230414   2.196   4.244   7.942  0.2074  0.3732  0.1310
 2952TIP3    H130415   2.191   4.189   8.020 -0.5492 -1.4453 -1.1225
 2952TIP3    H230416   2.106   4.247   7.910  0.4136  1.5949 -0.3499
 2953TIP3   OH230417   6.671   4.444   1.378 -0.2003 -0.1906 -0.1661
 2953TIP3    H130418   6.728   4.500   1.431  0.2811 -1.1590  0.3718
 2953TIP3    H230419   6.639   4.501   1.308  2.4676  0.0765 -1.2616
 2954TIP3   OH230420   5.923   0.712   8.053 -0.1444  0.1109 -0.0055
 2954TIP3    H130421   5.966   0.627   8.045  2.0089  1.1904 -0.8206
 2954TIP3    H230422   5.846   0.705   7.996  1.8140 -0.3005 -2.8377
 2955TIP3   OH230423   0.524   3.312   7.882  0.3560 -0.0591  0.0816
 2955TIP3    H130424   0.578   3.376   7.837 -0.8858  0.9537 -0.0103
 2955TIP3    H230425   0.486   3.360   7.955 -0.6171 -0.6873  0.0013
 2956TIP3   OH230426   1.272   1.902   7.180 -0.0640  0.4419  0.2774
 2956TIP3    H130427   1.336   1.870   7.244 -0.1830  0.7199  0.5407
 2956TIP3    H230428   1.188   1.869   7.211 -0.1561  0.8001  0.4166
 2957TIP3   OH230429   6.192   1.356   6.734 -0.2368 -0.4559  0.0261
 2957TIP3    H130430   6.259   1.380   6.670 -0.5367  0.4057  0.0162
 2957TIP3    H230431   6.166   1.267   6.710 -1.5517  0.4236 -2.1507
 2958TIP3   OH230432   1.830   3.635   7.778  0.1677 -0.0385  0.7033
 2958TIP3    H130433   1.881   3.583   7.840  1.6156 -1.2790 -1.3913
 2958TIP3    H230434   1.757   3.578   7.753  0.1772  0.0452  0.4866
 2959TIP3   OH230435   3.838   5.457   0.715 -0.5943  0.2244  0.5192
 2959TIP3    H130436   3.864   5.545   0.687  0.7958  0.2565  1.8143
 2959TIP3    H230437   3.887   5.398   0.658  0.8273  0.3013  1.6137
 2960TIP3   OH230438   5.729   1.457   1.368 -0.3053 -0.2262  0.4560
 2960TIP3    H130439   5.759   1.544   1.392 -0.1240 -0.0032 -0.5219
 2960TIP3    H230440   5.746   1.403   1.445 -1.2182  0.7749  1.3804
 2961TIP3   OH230441   2.768   5.835   0.929 -0.1908 -0.0573  0.0248
 2961TIP3    H130442   2.787   5.928   0.946 -1.2898 -0.2112  2.6861
 2961TIP3    H230443   2.837   5.788   0.976 -1.9266 -0.5177  2.3445
 2962TIP3   OH230444   6.124   2.753   8.450 -0.1645  0.4921  0.0931
 2962TIP3    H130445   6.208   2.706   8.454 -0.8941 -0.7838  1.6858
 2962TIP3    H230446   6.149   2.844   8.436  1.3999 -0.0704 -1.1807
 2963TIP3   OH230447   5.666   3.775   1.679 -0.2802  0.2344 -0.6129
 2963TIP3    H130448   5.758   3.754   1.660 -0.1546  1.0068 -0.9061
 2963TIP3    H230449   5.616   3.716   1.623  0.0200 -0.5686 -0.0594
 2964TIP3   OH230450   0.300   1.930   8.531  0.8277 -0.5247  0.0140
 2964TIP3    H130451   0.391   1.946   8.557  0.1911  0.1283  2.0864
 2964TIP3    H230452   0.297   1.954   8.438  2.6490 -0.0716  0.0242
 2965TIP3   OH230453   4.642   0.551   1.690 -0.3488 -0.0203  0.5448
 2965TIP3    H130454   4.654   0.465   1.649 -0.6257  0.1783  0.0395
 2965TIP3    H230455   4.548   0.558   1.702 -0.2650 -0.0953  1.2650
 2966TIP3   OH230456   2.898   1.863   0.440  0.6703  0.6717  0.4808
 2966TIP3    H130457   2.831   1.804   0.475 -0.8594  0.7777 -2.0374
 2966TIP3    H230458   2.946   1.811   0.377  1.0278  1.4095  0.1360
 2967TIP3   OH230459   5.457   4.210   1.265 -0.0550 -0.3291  0.4210
 2967TIP3    H130460   5.458   4.234   1.172  0.4267  0.1695  0.5532
 2967TIP3    H230461   5.421   4.287   1.309 -1.2791 -0.9495  0.5468
 2968TIP3   OH230462   6.382   4.918   6.969 -0.4080  0.2809  0.2348
 2968TIP3    H130463   6.420   4.964   6.894  0.5896 -1.6233 -0.4856
 2968TIP3    H230464   6.332   4.846   6.931  0.8859 -1.3001  1.3644
 2969TIP3   OH230465   5.512   2.503   0.258 -0.2197  0.1073 -0.1843
 2969TIP3    H130466   5.546   2.592   0.264 -0.5378  0.1952  0.3539
 2969TIP3    H230467   5.487   2.481   0.347  1.2642 -1.0845 -0.0079
 2970TIP3   OH230468   4.098   5.823   1.220 -0.4910  0.4881 -0.0403
 2970TIP3    H130469   4.095   5.832   1.315  0.4079  0.5822 -0.0082
 2970TIP3    H230470   4.159   5.891   1.191  0.4703 -0.5434 -0.5244
 2971TIP3   OH230471   4.920   2.506   2.159  0.0246 -0.0587 -0.6430
 2971TIP3    H130472   4.979   2.450   2.209 -0.9115 -0.3125  0.1898
 2971TIP3    H230473   4.907   2.460   2.077 -1.2652 -1.4275  0.2845
 2972TIP3   OH230474   3.255   4.026   1.975 -0.3036  0.1993  0.7553
 2972TIP3    H130475   3.217   4.092   2.033 -0.6667  1.9735 -1.3359
 2972TIP3    H230476   3.209   3.945   1.996 -3.2729  1.6480  0.3137
 2973TIP3   OH230477   4.997   5.490   1.862  0.1624  0.2763 -0.2597
 2973TIP3    H130478   5.016   5.452   1.948  0.5924  1.3749  0.1525
 2973TIP3    H230479   4.902   5.503   1.862  0.0026 -0.8149 -0.4259
 2974TIP3   OH230480   6.593   4.459   2.295  0.1520  0.9901 -0.2416
 2974TIP3    H130481   6.569   4.398   2.365 -0.2805 -0.1785 -1.3532
 2974TIP3    H230482   6.511   4.476   2.249  0.6023  0.8765 -1.1136
 2975TIP3   OH230483   5.602   5.660   8.437 -0.4099 -0.2150 -0.1366
 2975TIP3    H130484   5.557   5.583   8.471 -0.1929 -0.3586 -0.1768
 2975TIP3    H230485   5.686   5.662   8.482 -1.3449  1.3503  1.6758
 2976TIP3   OH230486   4.833   1.718   7.179  0.5363 -0.3266 -0.1392
 2976TIP3    H130487   4.913   1.746   7.222  0.6401  1.0933 -1.1963
 2976TIP3    H230488   4.775   1.691   7.250  1.2093  0.6020  0.7781
 2977TIP3   OH230489   6.279   4.657   1.801 -0.4122 -0.0367  0.4001
 2977TIP3    H130490   6.260   4.727   1.737 -0.7885  1.1286  1.7407
 2977TIP3    H230491   6.208   4.664   1.865 -0.4082 -1.6209  0.6086
 2978TIP3   OH230492   4.365   3.606   8.334  0.3544 -0.0761 -0.4104
 2978TIP3    H130493   4.308   3.682   8.322 -0.6654 -0.4960  1.3211
 2978TIP3    H230494   4.306   3.537   8.367  1.4970 -1.1941 -0.6258
 2979TIP3   OH230495   1.355   2.587   7.712 -0.4839 -0.0078 -0.5547
 2979TIP3    H130496   1.383   2.633   7.791 -1.6850  1.9072 -1.1952
 2979TIP3    H230497   1.342   2.496   7.742  1.7345  0.0295  0.7808
 2980TIP3   OH230498   1.390   3.671   7.129 -0.7604  0.0753  0.7200
 2980TIP3    H130499   1.296   3.687   7.125 -0.6604  0.9058  1.2456
 2980TIP3    H230500   1.398   3.581   7.161 -1.3998 -2.5143 -5.1885
 2981TIP3   OH230501   5.074   1.240   0.105  0.5787  0.3764  0.3121
 2981TIP3    H130502   5.002   1.304   0.108 -0.0855 -0.2327 -1.4807
 2981TIP3    H230503   5.035   1.159   0.139  1.4902  0.8929  2.8269
 2982TIP3   OH230504   0.515   2.800   7.497  0.1992  0.0844 -0.2625
 2982TIP3    H130505   0.436   2.835   7.456 -0.1927  0.7349  0.9880
 2982TIP3    H230506   0.563   2.758   7.425 -0.6051  0.8937 -1.3066
 2983TIP3   OH230507   6.650   3.488   1.239 -0.0716 -0.3463 -0.2795
 2983TIP3    H130508   6.655   3.420   1.306 -0.0379 -1.3271 -1.2524
 2983TIP3    H230509   6.713   3.555   1.268  1.1794 -1.5263 -0.1798
 2984TIP3   OH230510   3.244   2.706   1.674  0.6233 -0.2710  0.2829
 2984TIP3    H130511   3.334   2.716   1.706  0.3917 -1.3555  1.3084
 2984TIP3    H230512   3.192   2.762   1.731  0.6922  0.8586 -0.7081
 2985TIP3   OH230513   2.224   1.706   7.349 -0.0890  0.2743  0.1309
 2985TIP3    H130514   2.308   1.728   7.309  0.6038 -2.7478 -0.3295
 2985TIP3    H230515   2.175   1.662   7.279 -0.9893 -0.3532  1.1223
 2986TIP3   OH230516   5.482   3.726   0.909 -0.1043  0.3890  0.3066
 2986TIP3    H130517   5.398   3.727   0.864  0.2059  0.3879 -0.2783
 2986TIP3    H230518   5.527   3.648   0.875  0.1286  0.3810  0.6247
 2987TIP3   OH230519   5.046   5.602   6.806  0.4582 -0.3091 -0.1454
 2987TIP3    H130520   5.077   5.669   6.868  1.1138 -0.6446 -0.1027
 2987TIP3    H230521   5.104   5.611   6.730  0.5444 -0.8202 -0.1445
 2988TIP3   OH230522   5.324   5.081   2.452  0.3408  0.4132 -0.3461
 2988TIP3    H130523   5.334   5.006   2.393 -0.7477  0.0235 -0.0515
 2988TIP3    H230524   5.234   5.110   2.440  0.8228  1.8912 -0.6750
 2989TIP3   OH230525   1.577   0.789   1.617 -0.3701  0.1657  0.0158
 2989TIP3    H130526   1.515   0.732   1.661 -0.3469 -1.4147 -1.8367
 2989TIP3    H230527   1.558   0.777   1.524  1.2157  1.3819 -0.5098
 2990TIP3   OH230528   6.701   4.054   1.888  0.2621  0.0774 -0.8660
 2990TIP3    H130529   6.740   3.967   1.890  0.6501  0.1982  1.9818
 2990TIP3    H230530   6.771   4.112   1.860  0.5172 -0.3342 -1.0823
 2991TIP3   OH230531   0.017   2.794   7.912  0.9554 -0.1031 -0.2841
 2991TIP3    H130532   0.057   2.853   7.975  2.1016 -1.5483  0.3909
 2991TIP3    H230533  -0.077   2.805   7.925  1.1714  0.7877  0.5592
 2992TIP3   OH230534   1.901   1.265   0.693  0.0388  0.1976 -0.1066
 2992TIP3    H130535   1.890   1.251   0.787 -0.4550  0.3601 -0.1385
 2992TIP3    H230536   1.994   1.248   0.677  0.3220  1.0415  0.5595
 2993TIP3   OH230537   0.999   0.489   1.282  0.3295  0.4104  0.1542
 2993TIP3    H130538   1.015   0.530   1.367  0.9612 -0.3770  0.4335
 2993TIP3    H230539   0.959   0.558   1.229  0.3335  1.0416  0.9494
 2994TIP3   OH230540   3.308   3.613   7.841  0.1447  0.0273  0.1971
 2994TIP3    H130541   3.312   3.523   7.872  2.1623  0.0913  0.2532
 2994TIP3    H230542   3.230   3.616   7.785  1.7336 -2.6234 -2.3962
 2995TIP3   OH230543   4.276   6.547   7.862  0.1126  0.0643  0.6814
 2995TIP3    H130544   4.303   6.478   7.802  0.1590 -1.2125  2.1228
 2995TIP3    H230545   4.327   6.624   7.835  1.6037 -1.0108  0.3372
 2996TIP3   OH230546   6.435   3.174   6.318  0.7512  0.9500 -0.2734
 2996TIP3    H130547   6.471   3.262   6.323  0.3923  1.2913 -2.4736
 2996TIP3    H230548   6.491   3.121   6.374  0.5716  2.6663  1.6204
 2997TIP3   OH230549   6.713   3.035   1.555  0.3363  0.4982 -0.7750
 2997TIP3    H130550   6.637   2.976   1.560  1.1434 -0.7593 -2.4814
 2997TIP3    H230551   6.741   3.045   1.646 -1.2496  0.1613 -0.2201
 2998TIP3   OH230552   4.897   6.233   1.282  0.1609 -0.4112 -0.6595
 2998TIP3    H130553   4.824   6.255   1.225 -0.4714  1.2823  0.6865
 2998TIP3    H230554   4.921   6.317   1.323  0.4594 -1.5311  1.6342
 2999TIP3   OH230555   3.144   5.093   8.007 -0.1625  0.0888 -0.3660
 2999TIP3    H130556   3.188   5.027   8.060  0.6169  1.0275  0.1814
 2999TIP3    H230557   3.065   5.048   7.975 -1.9777  0.1040  3.4564
 3000TIP3   OH230558   5.879   2.487   0.269  0.4828 -0.7236  0.0370
 3000TIP3    H130559   5.928   2.465   0.190 -0.5155 -1.3698 -0.4177
 3000TIP3    H230560   5.922   2.566   0.302  0.7496 -0.2795 -1.2973
 3001TIP3   OH230561   0.004   0.189   0.519  0.4262  0.0501 -0.2187
 3001TIP3    H130562  -0.035   0.261   0.570  0.0198 -1.5433  1.8369
 3001TIP3    H230563  -0.071   0.139   0.487  0.6386  1.2856 -3.0081
 3002TIP3   OH230564   3.348   2.431   7.216 -0.0315  0.4811 -0.3151
 3002TIP3    H130565   3.315   2.475   7.138 -0.8093  1.1776  0.3856
 3002TIP3    H230566   3.283   2.363   7.235  0.7792 -0.5098 -0.9540
 3003TIP3   OH230567   5.806   2.866   1.831 -0.1776 -0.0506 -0.3647
 3003TIP3    H130568   5.839   2.900   1.747 -0.0641 -0.0899 -0.3362
 3003TIP3    H230569   5.761   2.785   1.807 -1.9632  0.9843 -0.6699
 3004TIP3   OH230570   3.896   3.634   8.159 -0.0637  0.4706  0.2364
 3004TIP3    H130571   3.903   3.584   8.241 -1.1976 -1.7857 -0.9482
 3004TIP3    H230572   3.859   3.718   8.185 -0.0960 -0.0762  2.0848
 3005TIP3   OH230573   1.726   4.799   0.582  0.1360  0.8245  0.1720
 3005TIP3    H130574   1.784   4.754   0.520  0.5728  1.8758 -0.2006
 3005TIP3    H230575   1.653   4.830   0.528 -0.7309 -0.3350  0.6076
 3006TIP3   OH230576   6.733   1.230   8.311 -0.5624  0.0366  0.0244
 3006TIP3    H130577   6.696   1.142   8.303 -0.6143  0.1723 -1.5303
 3006TIP3    H230578   6.673   1.286   8.261  0.3673  0.6835 -0.3797
 3007TIP3   OH230579   2.812   4.404   1.730 -0.1546 -0.4931 -0.2038
 3007TIP3    H130580   2.784   4.425   1.641  0.8240  0.6474 -0.2766
 3007TIP3    H230581   2.850   4.317   1.723 -0.4077 -0.5579 -0.8352
 3008TIP3   OH230582   3.830   2.225   6.999  0.5192 -0.0595  0.5486
 3008TIP3    H130583   3.913   2.263   7.029  0.5753 -1.1689  1.8924
 3008TIP3    H230584   3.774   2.227   7.076 -0.3378 -0.3303 -0.0578
 3009TIP3   OH230585   2.012   5.026   7.597 -0.0400  0.3062 -0.4288
 3009TIP3    H130586   2.000   4.932   7.610 -0.5637  0.3631 -0.4940
 3009TIP3    H230587   1.960   5.068   7.666  2.4775  0.5388  1.4590
 3010TIP3   OH230588   6.792   4.739   1.751  0.2282 -0.4595  0.3185
 3010TIP3    H130589   6.842   4.809   1.792 -0.8362  0.0861  0.7427
 3010TIP3    H230590   6.715   4.729   1.808 -0.2991 -1.0347 -0.4765
 3011TIP3   OH230591   5.806   1.956   1.394 -0.5313 -0.3002  0.5114
 3011TIP3    H130592   5.901   1.944   1.390 -0.4933  0.2531 -0.5347
 3011TIP3    H230593   5.771   1.875   1.357 -0.3453  1.1373 -3.1507
 3012TIP3   OH230594   3.429   5.729   7.541  0.2058  0.1040  0.2995
 3012TIP3    H130595   3.363   5.759   7.603 -0.5560  0.1647 -0.5350
 3012TIP3    H230596   3.510   5.770   7.572 -0.4081  1.2387  0.4582
 3013TIP3   OH230597   6.236   4.591   0.582 -0.1825 -0.0730 -0.5231
 3013TIP3    H130598   6.274   4.679   0.580 -0.3567  0.0268  0.1454
 3013TIP3    H230599   6.253   4.560   0.671  2.1771 -1.7484 -1.4561
 3014TIP3   OH230600   2.293   6.519   6.866  0.4342 -0.8526  0.5958
 3014TIP3    H130601   2.226   6.542   6.931 -0.4941  0.1607 -0.6603
 3014TIP3    H230602   2.260   6.438   6.827 -1.5574  0.9740 -1.8467
 3015TIP3   OH230603   2.104   0.127   7.616  0.1599 -0.3202  0.8040
 3015TIP3    H130604   2.065   0.136   7.703  0.8931  0.5949  1.0660
 3015TIP3    H230605   2.040   0.167   7.557 -0.4208 -1.1058  0.8884
 3016TIP3   OH230606   3.074   5.094   1.224 -0.4317  0.4054 -0.2403
 3016TIP3    H130607   3.113   5.056   1.145 -0.8732 -0.4050 -0.0765
 3016TIP3    H230608   3.149   5.125   1.275  0.0186 -1.0486  0.0271
 3017TIP3   OH230609   3.850   4.372   7.245 -0.2406  0.2531  0.4574
 3017TIP3    H130610   3.853   4.315   7.167  1.0471  0.7859  0.0833
 3017TIP3    H230611   3.832   4.459   7.210 -1.4343  0.2209  0.9548
 3018TIP3   OH230612   1.007   4.372   0.191 -0.1563  0.1831  0.1465
 3018TIP3    H130613   0.945   4.426   0.141 -0.1546  0.2687  0.2356
 3018TIP3    H230614   1.075   4.348   0.128  0.7693  1.7285  0.4998
 3019TIP3   OH230615   0.198   6.767   2.041  0.4167 -0.7265 -0.0732
 3019TIP3    H130616   0.150   6.833   1.991 -1.7416 -1.4467  0.9473
 3019TIP3    H230617   0.175   6.785   2.132  0.4120 -2.3799  0.2824
 3020TIP3   OH230618   1.233   3.566   7.354 -0.1528 -0.1136  0.1140
 3020TIP3    H130619   1.147   3.587   7.316 -1.1872 -1.7462  1.4180
 3020TIP3    H230620   1.269   3.499   7.296  0.1447  0.3780 -0.2808
 3021TIP3   OH230621   1.971   4.174   7.035 -0.0222  0.1448 -0.1321
 3021TIP3    H130622   1.967   4.188   6.941  0.5174  0.8018 -0.0690
 3021TIP3    H230623   2.060   4.143   7.051  0.1440  0.7746  0.2398
 3022TIP3   OH230624   4.154   5.036   1.057  0.3570  0.0061 -0.1070
 3022TIP3    H130625   4.061   5.026   1.076  0.6127 -2.1243  0.3047
 3022TIP3    H230626   4.171   5.129   1.068 -1.6736  0.4193 -0.0291
 3023TIP3   OH230627   6.593   2.519   1.480 -0.0289  0.3666 -0.0951
 3023TIP3    H130628   6.518   2.530   1.538 -0.6805 -0.6422 -0.7019
 3023TIP3    H230629   6.669   2.543   1.533 -0.6415 -0.1583  1.0538
 3024TIP3   OH230630   4.852   6.741   7.969 -0.2652  0.6725 -0.0812
 3024TIP3    H130631   4.941   6.770   7.949  0.3409 -0.6122  0.6424
 3024TIP3    H230632   4.853   6.646   7.954 -1.2569  0.4945  0.8124
 3025TIP3   OH230633   1.338   6.808   8.359 -0.0351  0.2077  0.5213
 3025TIP3    H130634   1.248   6.803   8.327  0.3821  0.0847 -0.7027
 3025TIP3    H230635   1.353   6.901   8.374  0.0619  0.3935 -0.6246
 3026TIP3   OH230636   4.525   4.492   7.409  0.2140 -0.2481 -0.2137
 3026TIP3    H130637   4.517   4.455   7.321 -1.2226  0.3601 -0.3538
 3026TIP3    H230638   4.610   4.537   7.408  0.2456 -0.3054 -1.2552
 3027TIP3   OH230639   4.781   5.537   2.191  0.6859  0.0236  0.5654
 3027TIP3    H130640   4.761   5.594   2.117  0.5058  0.1642  0.7197
 3027TIP3    H230641   4.872   5.554   2.212  0.2233  1.4044  1.5938
 3028TIP3   OH230642   1.225   4.609   7.616 -0.0741  0.4834 -0.3596
 3028TIP3    H130643   1.138   4.632   7.650 -0.9114  0.0843 -2.1129
 3028TIP3    H230644   1.207   4.549   7.544  1.7288 -0.4021 -0.1292
 3029TIP3   OH230645   3.767   2.184   0.138  0.5056 -0.2105 -0.5756
 3029TIP3    H130646   3.834   2.166   0.204 -1.6346  0.7819  2.0728
 3029TIP3    H230647   3.758   2.102   0.090  1.1070 -1.5259  1.4292
 3030TIP3   OH230648   4.909   4.983   7.936 -0.3789 -0.5393 -0.1791
 3030TIP3    H130649   4.869   5.021   7.857  0.1183 -1.2030 -0.7658
 3030TIP3    H230650   5.002   4.976   7.915  0.4146  2.4434  1.7383
 3031TIP3   OH230651   6.678   1.647   7.854 -0.0189  0.3571 -0.2210
 3031TIP3    H130652   6.599   1.674   7.807 -0.1114  1.0262  0.2979
 3031TIP3    H230653   6.701   1.723   7.909 -0.3088 -0.6239  1.3260
 3032TIP3   OH230654   2.075   6.695   7.046 -0.0984 -0.2923 -0.6409
 3032TIP3    H130655   2.111   6.782   7.065 -1.1436 -0.3000  1.7957
 3032TIP3    H230656   2.026   6.706   6.965 -0.3485  1.4669 -0.3031
 3033TIP3   OH230657   5.293   3.526   0.568 -0.1912 -0.1099  0.0043
 3033TIP3    H130658   5.236   3.555   0.496 -0.9736  3.6342  1.8895
 3033TIP3    H230659   5.236   3.474   0.624 -0.9469  0.9102  0.2294
 3034TIP3   OH230660   0.917   6.463   7.351 -0.0027  0.3318  0.1003
 3034TIP3    H130661   0.880   6.549   7.373 -1.1909 -0.7781  2.9260
 3034TIP3    H230662   0.867   6.434   7.275 -2.3059  0.5877  1.4272
 3035TIP3   OH230663   0.833   4.026   1.078 -0.1926 -0.0723 -0.8741
 3035TIP3    H130664   0.819   4.102   1.022  0.2791 -0.2676 -1.2730
 3035TIP3    H230665   0.775   3.958   1.042 -0.5966  0.0867 -0.5321
 3036TIP3   OH230666   0.565   3.586   8.423  0.5971 -0.3184 -0.2100
 3036TIP3    H130667   0.525   3.665   8.459 -1.1164 -0.1698 -2.2334
 3036TIP3    H230668   0.631   3.619   8.361  1.3031 -0.5181  0.4265
 3037TIP3   OH230669   4.989   2.176   1.754  0.2020  0.0193 -0.0108
 3037TIP3    H130670   5.034   2.252   1.717 -0.3202 -0.4109 -1.5964
 3037TIP3    H230671   4.896   2.193   1.737 -0.0415 -0.3034  0.9387
 3038TIP3   OH230672   3.381   4.856   0.899  0.0917  0.3688  0.4428
 3038TIP3    H130673   3.377   4.767   0.864 -0.3626  1.2336 -1.8979
 3038TIP3    H230674   3.298   4.867   0.945  0.5223 -0.6722  1.5263
 3039TIP3   OH230675   4.914   2.353   8.313 -0.2486 -0.2053 -0.6652
 3039TIP3    H130676   4.893   2.316   8.227 -1.0506  1.2221 -1.1234
 3039TIP3    H230677   4.990   2.409   8.298 -0.5786  0.2890 -0.5103
 3040TIP3   OH230678   0.074   0.054   7.864 -0.1180  0.2826  0.2331
 3040TIP3    H130679   0.038   0.055   7.775  0.0542  0.9189  0.1644
 3040TIP3    H230680   0.020   0.117   7.912  0.6367  0.9525  0.2290
 3041TIP3   OH230681   5.102   6.649   1.054 -0.0440 -0.1243 -0.3539
 3041TIP3    H130682   5.192   6.677   1.070 -0.3159  1.5869 -1.5482
 3041TIP3    H230683   5.049   6.705   1.111 -0.4120 -0.6350 -0.1828
 3042TIP3   OH230684   6.318   6.333   0.100 -0.3710 -0.1820  0.0703
 3042TIP3    H130685   6.272   6.381   0.169  0.5953  0.1509  0.4903
 3042TIP3    H230686   6.275   6.248   0.098 -0.6006 -0.0922  0.8737
 3043TIP3   OH230687   2.505   0.893   6.177  0.1671  0.1729 -0.2397
 3043TIP3    H130688   2.437   0.871   6.241  2.2253 -1.7642  1.4479
 3043TIP3    H230689   2.510   0.817   6.119  3.0410 -1.3250  1.7271
 3044TIP3   OH230690   4.289   1.030   0.747  0.5469 -0.6244 -0.2087
 3044TIP3    H130691   4.369   0.979   0.733  1.3848  0.8182 -0.8854
 3044TIP3    H230692   4.320   1.119   0.766 -0.8802  0.2279 -1.5696
 3045TIP3   OH230693   0.659   5.615   7.556  0.2873 -0.5508 -0.6240
 3045TIP3    H130694   0.669   5.529   7.515  2.3481 -0.0103 -1.3705
 3045TIP3    H230695   0.603   5.665   7.496  0.4987 -0.8256 -1.0489
 3046TIP3   OH230696   3.433   4.458   7.539 -0.4225 -0.2466 -0.5167
 3046TIP3    H130697   3.398   4.383   7.492  1.1699 -0.6031 -1.1928
 3046TIP3    H230698   3.463   4.422   7.623 -0.7551 -0.1346 -0.3489
 3047TIP3   OH230699   2.030   4.491   6.610 -0.5000  0.1487 -0.8948
 3047TIP3    H130700   2.102   4.494   6.672 -2.7289 -0.9199  1.9478
 3047TIP3    H230701   2.060   4.432   6.541  1.9402  1.1458 -0.8077
 3048TIP3   OH230702   4.283   6.303   1.034 -0.0204  0.0511 -0.1015
 3048TIP3    H130703   4.337   6.340   0.965  1.1836  1.7254  1.6352
 3048TIP3    H230704   4.194   6.331   1.012  0.3005  0.3508 -1.0778
 3049TIP3   OH230705   0.882   2.262   6.208 -0.4455  0.1155  0.1593
 3049TIP3    H130706   0.974   2.260   6.181 -0.4931  0.6460 -0.0457
 3049TIP3    H230707   0.876   2.336   6.268 -0.9799  0.7900 -0.7069
 3050TIP3   OH230708   6.616   0.745   0.453 -0.2286  0.3028 -0.3138
 3050TIP3    H130709   6.560   0.815   0.418 -0.3998  0.6066  0.5469
 3050TIP3    H230710   6.555   0.675   0.476 -0.0812 -0.0395 -0.9364
 3051TIP3   OH230711   6.339   0.812   0.210  0.3195  0.3572 -0.2649
 3051TIP3    H130712   6.298   0.798   0.295  1.4582 -0.0564  0.2372
 3051TIP3    H230713   6.395   0.889   0.223 -0.4893  1.0934 -1.0183
 3052TIP3   OH230714   5.212   5.570   1.031  1.0896  0.2657 -0.0267
 3052TIP3    H130715   5.156   5.647   1.045 -1.8892 -1.6524 -0.5688
 3052TIP3    H230716   5.212   5.558   0.936 -0.2950 -1.5582  0.1459
 3053TIP3   OH230717   0.665   5.911   0.583  0.4571 -0.1565  0.1044
 3053TIP3    H130718   0.656   5.987   0.641 -0.9488 -0.6397  0.5430
 3053TIP3    H230719   0.641   5.944   0.496 -3.1260 -0.7098  0.7536
 3054TIP3   OH230720   3.831   4.267   6.995 -0.5329  0.1711 -0.1009
 3054TIP3    H130721   3.858   4.226   6.913  0.6111  1.7884 -0.5590
 3054TIP3    H230722   3.735   4.261   6.995 -0.4436 -2.2324 -0.2483
 3055TIP3   OH230723   4.515   2.730   7.646  0.1227 -0.0663 -0.6940
 3055TIP3    H130724   4.493   2.679   7.724  0.0874 -0.1813 -0.7780
 3055TIP3    H230725   4.432   2.767   7.616  0.3204  1.0344  0.0533
 3056TIP3   OH230726   1.568   1.769   8.329 -0.2865 -0.7658 -0.6774
 3056TIP3    H130727   1.581   1.863   8.337  0.4131 -0.9082 -0.0577
 3056TIP3    H230728   1.625   1.731   8.395  1.2100 -1.7305 -2.4493
 3057TIP3   OH230729   3.403   1.675   7.546  0.0234 -0.3694 -0.1314
 3057TIP3    H130730   3.321   1.725   7.551  0.2430 -0.0514  0.2909
 3057TIP3    H230731   3.401   1.617   7.621  0.9186  0.7704  0.8132
 3058TIP3   OH230732   6.406   2.185   0.182  0.4124 -0.5240 -0.2888
 3058TIP3    H130733   6.491   2.219   0.153  1.0662 -2.6270 -1.0297
 3058TIP3    H230734   6.409   2.189   0.277  0.5870  1.0993 -0.3354
 3059TIP3   OH230735   3.314   5.156   1.313  0.4635  0.0528  0.1136
 3059TIP3    H130736   3.362   5.227   1.272 -2.1013  1.7455 -0.1707
 3059TIP3    H230737   3.260   5.199   1.380 -2.0700 -1.3670 -0.8655
 3060TIP3   OH230738   2.607   5.274   1.362  0.4887  0.0991  0.2668
 3060TIP3    H130739   2.688   5.222   1.354 -0.6950 -1.7715 -0.1405
 3060TIP3    H230740   2.549   5.220   1.415 -0.2874  1.7217  1.1253
 3061TIP3   OH230741   2.884   2.347   6.291 -0.3575 -0.3318  0.6786
 3061TIP3    H130742   2.934   2.304   6.360  0.7078 -1.6033 -0.8007
 3061TIP3    H230743   2.946   2.406   6.248 -0.9782  0.3826  0.7345
 3062TIP3   OH230744   1.907   2.273   0.730  0.0193 -0.2916 -0.1416
 3062TIP3    H130745   1.827   2.227   0.705 -0.4648  0.7782 -0.6738
 3062TIP3    H230746   1.965   2.265   0.654  0.0923 -0.3683 -0.0778
 3063TIP3   OH230747   2.523   1.880   0.197  0.0113 -0.2093 -0.1384
 3063TIP3    H130748   2.453   1.908   0.256  1.6308  0.0040  1.8024
 3063TIP3    H230749   2.479   1.824   0.132 -1.7589 -1.1508  1.7465
 3064TIP3   OH230750   3.084   0.507   6.813 -0.0778 -0.6790 -0.5557
 3064TIP3    H130751   3.113   0.585   6.860 -0.3246  0.6651 -2.4902
 3064TIP3    H230752   3.163   0.454   6.803 -0.2471 -1.6621  2.3703
 3065TIP3   OH230753   3.549   2.588   7.376  0.1027 -0.7172 -0.0442
 3065TIP3    H130754   3.474   2.552   7.329 -0.9445 -0.2355  1.1837
 3065TIP3    H230755   3.621   2.528   7.356 -0.9559 -2.0109 -0.1294
 3066TIP3   OH230756   5.941   4.444   8.284 -0.4405  0.5208 -0.1614
 3066TIP3    H130757   5.983   4.528   8.300  0.7154 -0.4391  2.3840
 3066TIP3    H230758   5.994   4.403   8.215  0.2449  1.0323  0.0569
 3067TIP3   OH230759   1.202   6.832   0.953 -0.1649 -0.2071 -0.1095
 3067TIP3    H130760   1.133   6.895   0.975 -0.0767 -0.1229 -0.0715
 3067TIP3    H230761   1.236   6.804   1.038  0.1515  0.0907 -0.1380
 3068TIP3   OH230762   6.304   6.132   1.202 -0.1264  0.1990 -0.5914
 3068TIP3    H130763   6.221   6.097   1.168  0.2454  0.4328 -1.7771
 3068TIP3    H230764   6.362   6.056   1.207  0.4313  0.4636 -2.4051
 3069TIP3   OH230765   2.262   4.309   2.601  0.5513  0.2348 -0.0595
 3069TIP3    H130766   2.288   4.269   2.684  1.6336  1.4539  0.2275
 3069TIP3    H230767   2.232   4.397   2.625  0.1787  0.3420 -0.8823
 3070TIP3   OH230768   6.018   6.838   1.900  0.0738  0.4170 -0.1041
 3070TIP3    H130769   6.097   6.891   1.911  0.7950 -0.4780 -0.8251
 3070TIP3    H230770   5.964   6.889   1.840  0.3279  0.7966 -0.0139
 3071TIP3   OH230771   5.148   1.491   1.987  0.2155  0.6808  0.1959
 3071TIP3    H130772   5.133   1.510   2.079  1.0281 -1.0357  0.7224
 3071TIP3    H230773   5.226   1.434   1.986 -0.5371 -0.4092 -1.4166
 3072TIP3   OH230774   6.764   2.698   0.052  0.4140 -0.1554 -0.1795
 3072TIP3    H130775   6.786   2.786   0.022  0.9542 -0.5239 -0.9056
 3072TIP3    H230776   6.815   2.686   0.132  1.6246 -0.3906 -0.9577
 3073TIP3   OH230777   2.668   0.575   6.974 -0.4631  0.3621  0.7813
 3073TIP3    H130778   2.720   0.495   6.964 -0.8329  0.2079 -0.0614
 3073TIP3    H230779   2.578   0.546   6.960 -0.4554  1.2076 -1.4822
 3074TIP3   OH230780   2.233   0.179   1.760 -0.6030 -0.6619  0.4260
 3074TIP3    H130781   2.213   0.089   1.785 -1.1486 -0.9007 -0.8041
 3074TIP3    H230782   2.252   0.175   1.666  0.9818  0.2612  0.6665
 3075TIP3   OH230783   1.260   4.214   8.104 -0.4504  0.5553  0.0940
 3075TIP3    H130784   1.335   4.160   8.127 -0.6880  0.3109  0.2998
 3075TIP3    H230785   1.208   4.218   8.185 -1.0358  0.1113 -0.2580
 3076TIP3   OH230786   1.328   0.249   7.971  0.0745  0.3691 -0.4645
 3076TIP3    H130787   1.306   0.163   7.936 -1.5893 -0.6511  2.6944
 3076TIP3    H230788   1.297   0.311   7.904  1.0373 -1.3778 -2.6656
 3077TIP3   OH230789   6.737   2.782   8.271 -0.3829  0.2500  0.0971
 3077TIP3    H130790   6.695   2.707   8.228 -1.8933  0.0486  1.8204
 3077TIP3    H230791   6.695   2.859   8.231  0.2307  0.1651 -0.7381
 3078TIP3   OH230792   2.355   1.593   8.187  0.0646  0.3943 -0.1421
 3078TIP3    H130793   2.281   1.563   8.239  1.9509 -0.3629  2.3222
 3078TIP3    H230794   2.432   1.566   8.237  2.0141  2.3143 -1.8786
 3079TIP3   OH230795   5.905   1.829   0.565  0.0139  0.7887 -0.0298
 3079TIP3    H130796   5.868   1.745   0.538  1.7444  0.0619 -0.2020
 3079TIP3    H230797   5.829   1.879   0.595 -1.1023 -0.6767 -0.2870
 3080TIP3   OH230798   0.765   3.889   7.445 -0.4013  0.1225 -0.7090
 3080TIP3    H130799   0.835   3.954   7.454 -0.6656  0.4507 -0.9989
 3080TIP3    H230800   0.684   3.938   7.462 -0.5540 -0.2854 -0.2327
 3081TIP3   OH230801   4.741   6.300   8.086 -0.7061  0.5093  0.4704
 3081TIP3    H130802   4.740   6.208   8.061  0.5395  0.6233 -0.0860
 3081TIP3    H230803   4.723   6.300   8.180 -0.1522 -0.3430  0.5850
 3082TIP3   OH230804   1.723   0.021   1.010 -0.7428 -0.3791  0.2665
 3082TIP3    H130805   1.813   0.053   1.003 -0.7392 -0.5240 -0.4384
 3082TIP3    H230806   1.685   0.071   1.083 -1.1503  2.2868 -1.6227
 3083TIP3   OH230807   4.422   3.076   0.644  0.3459 -0.2895  0.5075
 3083TIP3    H130808   4.342   3.097   0.597 -1.6195 -0.8551  3.3582
 3083TIP3    H230809   4.449   3.158   0.684  1.8132  0.1148 -1.2022
 3084TIP3   OH230810   5.791   0.826   0.671  0.3417  0.3834 -0.1305
 3084TIP3    H130811   5.825   0.764   0.736  0.1497  0.5336  0.1113
 3084TIP3    H230812   5.819   0.912   0.702 -2.0930  0.7565  1.2695
 3085TIP3   OH230813   6.072   1.134   7.672 -0.4408  0.3699 -0.4846
 3085TIP3    H130814   6.074   1.221   7.632  0.3411 -0.3898 -2.1988
 3085TIP3    H230815   5.984   1.101   7.654 -0.2550  0.2330 -1.1815
 3086TIP3   OH230816   1.418   5.765   6.891 -0.9503 -0.0513 -0.6519
 3086TIP3    H130817   1.382   5.851   6.911 -2.2574 -0.0829 -2.5894
 3086TIP3    H230818   1.463   5.777   6.807 -1.5593 -1.3539 -1.1784
 3087TIP3   OH230819   0.796   4.061   0.520 -0.5709 -0.2819 -0.1858
 3087TIP3    H130820   0.867   4.047   0.582 -1.6455 -2.0935  0.7326
 3087TIP3    H230821   0.788   4.156   0.514  0.3091 -0.0465  1.5975
 3088TIP3   OH230822   5.636   0.688   0.340  0.0126  0.2464  0.1111
 3088TIP3    H130823   5.638   0.627   0.267  0.3724 -0.4973  0.7220
 3088TIP3    H230824   5.599   0.638   0.412  0.0989  0.8199  0.5625
 3089TIP3   OH230825   6.160   3.462   0.947  0.1199 -0.1271  0.1781
 3089TIP3    H130826   6.088   3.517   0.977 -1.1810 -1.8140  0.3178
 3089TIP3    H230827   6.189   3.415   1.025  1.8579  0.9747  0.2644
 3090TIP3   OH230828   4.615   6.541   6.772 -0.0725 -0.2764  0.0224
 3090TIP3    H130829   4.524   6.521   6.790  0.1031 -0.5679  0.6173
 3090TIP3    H230830   4.614   6.629   6.735 -0.2848  1.6336  3.9940
 3091TIP3   OH230831   4.501   3.191   0.354 -0.1882 -0.1736 -0.1142
 3091TIP3    H130832   4.570   3.168   0.292  1.4878  0.0730  1.5318
 3091TIP3    H230833   4.501   3.119   0.418 -3.0386 -1.2794 -1.2224
 3092TIP3   OH230834   3.332   4.431   6.586  0.0713 -0.0034  0.0316
 3092TIP3    H130835   3.298   4.519   6.598 -1.5691 -0.6850  0.7061
 3092TIP3    H230836   3.334   4.394   6.674  0.8371 -0.6152 -0.2292
 3093TIP3   OH230837   0.229   2.580   6.823  0.2118 -0.6470 -0.0266
 3093TIP3    H130838   0.166   2.633   6.774  0.0046  0.1433  1.0600
 3093TIP3    H230839   0.276   2.643   6.878  0.3933 -1.5153  0.8310
 3094TIP3   OH230840   4.817   6.594   1.523  0.4146  0.4024 -0.4712
 3094TIP3    H130841   4.818   6.559   1.434  0.1558  0.8538 -0.6556
 3094TIP3    H230842   4.797   6.687   1.512  3.5144  1.2049 -0.1837
 3095TIP3   OH230843   0.024   4.091   7.376  0.9424 -0.0387  0.0588
 3095TIP3    H130844  -0.068   4.065   7.377  0.6435  0.9625  0.8116
 3095TIP3    H230845   0.071   4.018   7.416  0.3179 -0.0514  0.7791
 3096TIP3   OH230846   2.422   2.283   6.947  0.2885 -0.4169 -0.3623
 3096TIP3    H130847   2.358   2.284   6.876 -0.3834 -0.6866  0.2261
 3096TIP3    H230848   2.442   2.375   6.962 -1.3606 -0.1749  0.6601
 3097TIP3   OH230849   5.723   2.825   0.535 -0.1406 -0.2396 -0.3302
 3097TIP3    H130850   5.684   2.761   0.594  1.8751 -1.0327  0.2090
 3097TIP3    H230851   5.679   2.907   0.558 -0.7965 -0.9002  0.9080
 3098TIP3   OH230852   1.226   3.281   1.560 -0.1494  0.2857 -0.6195
 3098TIP3    H130853   1.289   3.305   1.492 -0.0597  2.7265  0.2395
 3098TIP3    H230854   1.154   3.343   1.548 -0.3780  0.3927  1.1285
 3099TIP3   OH230855   2.332   6.164   0.169  0.1264  0.6762  0.4051
 3099TIP3    H130856   2.240   6.163   0.196  0.0883 -3.6434  0.7346
 3099TIP3    H230857   2.330   6.182   0.075 -1.1577 -0.2531  0.2346
 3100TIP3   OH230858   5.330   5.643   0.472 -0.0252  0.3391  0.2311
 3100TIP3    H130859   5.306   5.557   0.437 -0.1912 -0.2272  1.6920
 3100TIP3    H230860   5.304   5.705   0.403  1.7028 -0.8691 -1.6407
 3101TIP3   OH230861   2.815   4.253   7.290  0.0764  0.3667  0.0585
 3101TIP3    H130862   2.754   4.260   7.364  0.6423 -2.6177  0.9560
 3101TIP3    H230863   2.763   4.279   7.214 -1.5404  0.4226  1.1312
 3102TIP3   OH230864   1.847   0.707   8.040  0.2087 -1.1550  0.1716
 3102TIP3    H130865   1.794   0.751   7.973  2.2408 -0.5890 -1.1654
 3102TIP3    H230866   1.784   0.681   8.107 -2.0639 -2.3006 -2.2102
 3103TIP3   OH230867   3.990   2.188   8.501  0.3942 -0.2813 -0.5489
 3103TIP3    H130868   4.018   2.244   8.428 -1.3874 -0.7425 -1.6449
 3103TIP3    H230869   3.982   2.101   8.462 -1.1161 -0.4356  0.0529
 3104TIP3   OH230870   5.839   1.518   7.590 -0.3083  0.1286  0.2970
 3104TIP3    H130871   5.918   1.464   7.594 -0.7212 -0.4749  0.6471
 3104TIP3    H230872   5.775   1.462   7.545 -0.4189  0.7733 -0.3699
 3105TIP3   OH230873   5.351   3.692   6.845 -0.5334  0.2055  0.7492
 3105TIP3    H130874   5.372   3.653   6.760 -0.0368  0.3298  0.8093
 3105TIP3    H230875   5.423   3.665   6.902 -0.1742  1.2044  0.7942
 3106TIP3   OH230876   4.761   1.718   7.897 -0.2123 -0.8064  0.1448
 3106TIP3    H130877   4.791   1.807   7.882  1.5790 -1.6299 -1.5891
 3106TIP3    H230878   4.832   1.676   7.945 -1.2892 -1.1942  1.4819
 3107TIP3   OH230879   4.974   2.290   2.357 -0.2908 -0.6639  0.1994
 3107TIP3    H130880   5.035   2.231   2.313  0.3099 -0.0448  0.1964
 3107TIP3    H230881   5.001   2.287   2.449  0.2078  0.1710  0.0824
 3108TIP3   OH230882   4.878   1.518   1.386 -0.4615 -0.0083  0.4011
 3108TIP3    H130883   4.916   1.606   1.380 -0.2432 -0.0337  1.3148
 3108TIP3    H230884   4.792   1.532   1.427 -0.1591 -0.2803  1.1485
 3109TIP3   OH230885   1.006   0.674   7.674  0.0108  0.2178  0.2582
 3109TIP3    H130886   0.977   0.708   7.590 -1.2157  1.6932  1.2203
 3109TIP3    H230887   1.044   0.750   7.719 -2.1120  0.2544  2.1745
 3110TIP3   OH230888   6.640   1.468   0.282  0.2533  0.0404 -0.3381
 3110TIP3    H130889   6.619   1.415   0.205  1.2552  0.9707 -1.2942
 3110TIP3    H230890   6.735   1.475   0.280  0.3481 -0.4620  1.3864
 3111TIP3   OH230891   5.112   4.892   7.370  0.0029  0.5133  0.0021
 3111TIP3    H130892   5.018   4.880   7.375  0.0180  0.3075 -0.1913
 3111TIP3    H230893   5.124   4.987   7.373 -0.1720  0.5189  0.5959
 3112TIP3   OH230894   6.225   4.825   7.268 -0.5477  0.1829 -0.0587
 3112TIP3    H130895   6.312   4.865   7.273  0.7773 -2.5401  0.9501
 3112TIP3    H230896   6.229   4.772   7.188 -1.0622 -0.4256  0.3205
 3113TIP3   OH230897   5.034   4.012   7.147  0.4626 -0.4822  0.3425
 3113TIP3    H130898   5.076   3.929   7.126 -0.2234 -1.1239  1.3957
 3113TIP3    H230899   5.031   4.014   7.242 -0.4448  0.2798  0.3148
 3114TIP3   OH230900   5.965   5.090   6.950 -0.7043 -0.0567  0.5430
 3114TIP3    H130901   5.970   5.032   7.026  0.9274 -0.5864  0.0658
 3114TIP3    H230902   5.910   5.043   6.888 -1.2511 -0.0553  1.0183
 3115TIP3   OH230903   6.630   4.407   0.381  0.5626  0.1163  0.3963
 3115TIP3    H130904   6.724   4.401   0.394  0.3613 -0.1050  2.0711
 3115TIP3    H230905   6.615   4.381   0.290  2.0751 -0.1266  0.1996
 3116TIP3   OH230906   4.025   1.497   7.619 -0.4470 -0.3469  0.1706
 3116TIP3    H130907   4.008   1.524   7.529 -0.2325 -0.6231  0.0468
 3116TIP3    H230908   4.111   1.455   7.616  0.5857  1.5660  0.8929
 3117TIP3   OH230909   2.487   0.485   6.731 -0.5338 -0.1652  0.3721
 3117TIP3    H130910   2.396   0.495   6.759 -1.5151  1.6333 -2.9755
 3117TIP3    H230911   2.508   0.393   6.748 -3.2510 -0.8447  0.4657
 3118TIP3   OH230912   3.750   6.720   1.952 -0.3055 -0.0642 -0.7694
 3118TIP3    H130913   3.661   6.734   1.984 -0.4918  1.1487 -1.7459
 3118TIP3    H230914   3.760   6.625   1.951 -0.7326 -0.1904  1.5984
 3119TIP3   OH230915   1.128   3.378   6.841  0.2408 -0.0197  0.0307
 3119TIP3    H130916   1.215   3.376   6.881  1.1390  0.6556 -1.8132
 3119TIP3    H230917   1.077   3.317   6.894  2.2251 -1.5989  0.2579
 3120TIP3   OH230918   6.113   0.285   1.205  0.2647  0.0293  0.1617
 3120TIP3    H130919   6.109   0.363   1.261  1.4680  2.2353 -2.6030
 3120TIP3    H230920   6.190   0.238   1.236 -1.0523 -0.7671  2.5388
 3121TIP3   OH230921   2.584   0.352   7.235 -0.2139  0.0936  0.2131
 3121TIP3    H130922   2.571   0.404   7.155 -3.0611  0.2818  0.6723
 3121TIP3    H230923   2.620   0.413   7.298 -2.0499  1.1921  0.2769
 3122TIP3   OH230924   2.936   3.371   1.261  0.4394  0.5093  0.2965
 3122TIP3    H130925   3.012   3.381   1.203 -0.3305 -0.2107 -0.8891
 3122TIP3    H230926   2.860   3.374   1.202 -0.2893 -2.3493  0.9478
 3123TIP3   OH230927   5.143   1.769   0.355 -0.2258  0.3252 -0.5843
 3123TIP3    H130928   5.119   1.678   0.372 -0.9347  0.3459 -1.3786
 3123TIP3    H230929   5.066   1.819   0.382  0.6044  0.8213  0.9899
 3124TIP3   OH230930   0.827   4.846   8.149  0.8642  0.9146  0.0327
 3124TIP3    H130931   0.737   4.835   8.182  0.4518 -0.1517 -1.3417
 3124TIP3    H230932   0.816   4.861   8.055  2.1681 -0.9206 -0.4585
 3125TIP3   OH230933   3.139   2.310   0.624 -0.1277 -0.4451 -0.2722
 3125TIP3    H130934   3.139   2.287   0.716  1.1835  0.1887 -0.0884
 3125TIP3    H230935   3.123   2.227   0.578  1.0943 -1.1237  0.4706
 3126TIP3   OH230936   5.403   4.836   7.714 -0.4916  0.4339 -0.5666
 3126TIP3    H130937   5.324   4.872   7.675 -1.5307 -1.5039 -0.3498
 3126TIP3    H230938   5.415   4.751   7.671  0.0365 -0.4123  1.1765
 3127TIP3   OH230939   6.101   3.874   7.971  0.1742  0.1974 -0.0639
 3127TIP3    H130940   6.044   3.843   7.900 -0.6366  1.2205  0.1024
 3127TIP3    H230941   6.187   3.883   7.930  0.2116 -1.2714 -0.3559
 3128TIP3   OH230942   4.284   3.581   6.900  0.0655  0.0231  0.8523
 3128TIP3    H130943   4.277   3.485   6.903  0.1950 -0.0673 -0.8282
 3128TIP3    H230944   4.195   3.613   6.912 -0.0380 -0.3163  0.9912
 3129TIP3   OH230945   2.930   0.807   6.359  0.1091  0.0044 -0.5432
 3129TIP3    H130946   2.967   0.882   6.405  1.9809 -1.5150  0.5875
 3129TIP3    H230947   2.932   0.736   6.424 -0.2992 -1.3711 -1.9667
 3130TIP3   OH230948   2.201   2.091   1.375  0.1468  0.4175 -0.0893
 3130TIP3    H130949   2.228   2.003   1.402  0.5712  1.0334  1.6395
 3130TIP3    H230950   2.264   2.149   1.417 -0.3316  1.5775 -0.9294
 3131TIP3   OH230951   6.599   2.229   6.474  0.1681 -1.2184 -0.4325
 3131TIP3    H130952   6.618   2.153   6.528  1.7607  0.1340  1.0388
 3131TIP3    H230953   6.634   2.303   6.523 -1.6608  0.5427 -1.6106
 3132TIP3   OH230954   0.368   2.326   0.548  0.1113 -0.9474  0.6860
 3132TIP3    H130955   0.377   2.340   0.454  1.9303 -0.2119  0.9275
 3132TIP3    H230956   0.280   2.358   0.568 -1.2159 -3.1859 -1.0773
 3133TIP3   OH230957   6.801   1.930   8.135 -0.2087  0.0125 -0.1325
 3133TIP3    H130958   6.851   1.861   8.179 -0.7356  0.4262  1.1613
 3133TIP3    H230959   6.721   1.938   8.187 -0.2957  1.3895 -0.4447
 3134TIP3   OH230960   1.550   3.406   7.342 -0.1699 -0.0198  0.0632
 3134TIP3    H130961   1.497   3.346   7.394 -1.9947  0.3698 -1.2732
 3134TIP3    H230962   1.487   3.458   7.293  1.2262  4.0859  2.2187
 3135TIP3   OH230963   2.357   0.665   1.793  0.0235  0.2271  0.4567
 3135TIP3    H130964   2.315   0.582   1.773 -1.6214  1.3603 -1.0197
 3135TIP3    H230965   2.379   0.703   1.708  0.1245  1.6096  1.0598
 3136TIP3   OH230966   0.619   1.251   7.558  0.2904  0.0986  0.7025
 3136TIP3    H130967   0.578   1.237   7.473  1.1228  4.0309 -0.5398
 3136TIP3    H230968   0.545   1.251   7.620 -0.6628 -0.2180 -0.3900
 3137TIP3   OH230969   2.878   1.034   2.272  0.5020  0.2775 -0.1564
 3137TIP3    H130970   2.907   0.975   2.342 -2.5921 -0.9326  0.2868
 3137TIP3    H230971   2.807   1.084   2.312  0.3127  1.3336 -1.7606
 3138TIP3   OH230972   5.381   3.378   0.230  0.5666 -0.3040  0.2113
 3138TIP3    H130973   5.323   3.451   0.247 -0.7583 -1.2804  0.0271
 3138TIP3    H230974   5.448   3.414   0.172 -0.3714  0.6278 -0.3288
 3139TIP3   OH230975   0.442   5.256   2.180 -0.0574  0.1130  0.0740
 3139TIP3    H130976   0.390   5.333   2.160 -0.3996 -0.2635 -0.5052
 3139TIP3    H230977   0.497   5.243   2.103  0.6050  0.2653  0.5126
 3140TIP3   OH230978   4.083   1.241   7.371 -0.1482  0.5655  0.4063
 3140TIP3    H130979   4.087   1.245   7.276  0.9362 -0.7734  0.3678
 3140TIP3    H230980   4.158   1.292   7.401 -0.4417  0.9174  0.5578
 3141TIP3   OH230981   1.061   5.390   0.478 -0.0214 -0.7397 -0.0762
 3141TIP3    H130982   1.006   5.462   0.510  0.9906  0.5686 -1.2096
 3141TIP3    H230983   1.010   5.352   0.407  0.4926  0.4751 -1.1296
 3142TIP3   OH230984   6.519   2.121   8.034 -0.0507  0.1068 -0.1475
 3142TIP3    H130985   6.603   2.152   7.998  0.1686  1.3721  1.3656
 3142TIP3    H230986   6.542   2.081   8.117 -0.9204  0.1465  0.1158
 3143TIP3   OH230987   4.505   5.887   0.553  0.0565  0.6396  0.0619
 3143TIP3    H130988   4.566   5.934   0.609  1.1556  0.4244 -0.9294
 3143TIP3    H230989   4.419   5.924   0.575  0.8337  3.0026 -0.5381
 3144TIP3   OH230990   3.405   3.220   0.899  0.3181  0.4530  0.0031
 3144TIP3    H130991   3.454   3.147   0.936 -1.4951 -0.0489  1.5898
 3144TIP3    H230992   3.356   3.181   0.826  1.6512  0.8051 -1.1279
 3145TIP3   OH230993   2.791   3.109   2.141 -0.0322  0.3079  0.1609
 3145TIP3    H130994   2.709   3.062   2.124  1.2749 -1.2338 -2.6135
 3145TIP3    H230995   2.829   3.063   2.215 -1.2505  0.5148  0.9498
 3146TIP3   OH230996   2.069   4.950   2.067  0.1430  0.5644 -1.1743
 3146TIP3    H130997   2.025   5.033   2.085  1.2597  1.4243 -2.2791
 3146TIP3    H230998   2.075   4.908   2.153  0.5601  2.1369 -0.3808
 3147TIP3   OH230999   2.174   4.851   0.169  0.4506  0.2316  0.0759
 3147TIP3    H131000   2.081   4.867   0.155 -0.0443 -0.6226  2.0359
 3147TIP3    H231001   2.211   4.847   0.081 -1.3139  0.7926 -0.7420
 3148TIP3   OH231002   0.728   0.404   7.255  0.1756 -0.4138 -0.5758
 3148TIP3    H131003   0.657   0.457   7.217 -0.4436  0.0820  1.1859
 3148TIP3    H231004   0.803   0.419   7.197  0.3649  3.2918  0.3778
 3149TIP3   OH231005   0.403   5.716   8.275  0.4153  0.0777  0.5746
 3149TIP3    H131006   0.391   5.789   8.336  0.9835  0.2764  0.4624
 3149TIP3    H231007   0.355   5.644   8.315 -2.8249  1.2745 -0.8390
 3150TIP3   OH231008   2.547   0.567   8.129  0.1447 -0.0513 -0.4251
 3150TIP3    H131009   2.454   0.582   8.147  0.1662  0.9327 -1.0638
 3150TIP3    H231010   2.552   0.553   8.035  0.4580 -1.7931 -0.1853
 3151TIP3   OH231011   0.819   4.800   2.038  0.4425 -0.1078 -0.1406
 3151TIP3    H131012   0.873   4.836   2.107  0.1283 -2.1766  1.2791
 3151TIP3    H231013   0.736   4.847   2.044  0.1707 -0.7329  1.3982
 3152TIP3   OH231014   3.339   0.180   2.195  0.2898  0.5736 -0.0420
 3152TIP3    H131015   3.250   0.207   2.174 -0.2904 -0.2722  1.2375
 3152TIP3    H231016   3.334   0.085   2.208  1.8695  0.0895 -2.3302
 3153TIP3   OH231017   4.900   2.705   8.289 -0.9521 -0.2154 -0.2050
 3153TIP3    H131018   4.911   2.707   8.384 -0.6033  2.4313 -0.2197
 3153TIP3    H231019   4.828   2.767   8.272  1.2110  2.0395 -1.8160
 3154TIP3   OH231020   4.689   3.435   7.316 -0.0776  0.0914 -0.3769
 3154TIP3    H131021   4.668   3.528   7.301 -2.5732 -0.6272 -1.9636
 3154TIP3    H231022   4.752   3.414   7.248 -1.3543  0.0958 -1.6188
 3155TIP3   OH231023   1.952   6.798   0.654 -0.2226 -0.0183 -0.0671
 3155TIP3    H131024   1.951   6.890   0.627 -1.3371  0.3347  1.0782
 3155TIP3    H231025   2.025   6.791   0.715 -0.4194  0.2154  0.1952
 3156TIP3   OH231026   1.276   0.934   7.464  0.0233  0.3468 -0.6578
 3156TIP3    H131027   1.299   0.841   7.466 -0.3425  0.2247  1.9599
 3156TIP3    H231028   1.331   0.973   7.533 -1.7693  1.5280  0.1675
 3157TIP3   OH231029   0.230   4.641   7.110  0.1720  0.3375  0.0032
 3157TIP3    H131030   0.217   4.636   7.016 -0.2117  1.4689 -0.0253
 3157TIP3    H231031   0.238   4.735   7.128 -0.4858  0.1925  1.1846
 3158TIP3   OH231032   6.433   4.849   0.874  0.1838 -0.2153  0.1143
 3158TIP3    H131033   6.476   4.897   0.803  0.4033  0.3153  0.5964
 3158TIP3    H231034   6.346   4.890   0.881  1.1929  1.7481  2.0775
 3159TIP3   OH231035   2.084   1.340   8.081  0.0747 -0.5808 -0.1576
 3159TIP3    H131036   2.145   1.407   8.114 -1.4288  0.7111  0.1360
 3159TIP3    H231037   2.021   1.390   8.028 -1.8772 -1.5310  1.1404
 3160TIP3   OH231038   4.105   3.641   1.342  0.0417  0.1251 -0.9199
 3160TIP3    H131039   4.025   3.600   1.372 -0.0590 -1.0258 -2.6108
 3160TIP3    H231040   4.132   3.698   1.414 -1.8846 -0.0109 -0.0398
 3161TIP3   OH231041   4.103   4.217   2.597 -0.2019 -0.3517  0.1709
 3161TIP3    H131042   4.183   4.261   2.626  0.9735 -1.2544 -1.5482
 3161TIP3    H231043   4.109   4.129   2.634 -0.3787 -0.4357  0.0027
 3162TIP3   OH231044   2.633   4.602   2.737 -0.3744 -0.8005 -0.7473
 3162TIP3    H131045   2.695   4.532   2.755  0.2283 -0.1524 -0.2378
 3162TIP3    H231046   2.680   4.661   2.678  0.1790  0.5893  0.9879
 3163TIP3   OH231047   1.384   5.669   0.615  0.4226 -0.7879 -0.0244
 3163TIP3    H131048   1.460   5.655   0.672  0.5948 -0.1278 -0.0811
 3163TIP3    H231049   1.351   5.581   0.597 -0.1169 -0.9859  1.7543
 3164TIP3   OH231050   0.497   6.151   8.492  0.0290  0.4818  0.1958
 3164TIP3    H131051   0.574   6.208   8.482 -0.4296  0.9124 -0.9345
 3164TIP3    H231052   0.443   6.196   8.558  0.5106  0.4179  0.6442
 3165TIP3   OH231053   3.637   4.754   0.226 -0.2170  0.0041  0.0301
 3165TIP3    H131054   3.565   4.690   0.224 -0.4038  0.1611  1.1044
 3165TIP3    H231055   3.620   4.806   0.304  0.1459  1.1367 -0.6337
 3166TIP3   OH231056   5.862   3.424   7.629 -0.3509  0.2874 -0.9346
 3166TIP3    H131057   5.869   3.515   7.601 -2.7735  0.9884  0.4493
 3166TIP3    H231058   5.790   3.389   7.576 -1.3087  0.0544  0.4548
 3167TIP3   OH231059   1.482   6.487   0.222  0.4196  0.1970  0.2502
 3167TIP3    H131060   1.392   6.518   0.235  0.2816 -0.3401  0.6219
 3167TIP3    H231061   1.472   6.394   0.201  0.8603  0.2543 -0.2212
 3168TIP3   OH231062   5.829   3.002   2.278  0.1088 -0.0507  0.5243
 3168TIP3    H131063   5.785   2.919   2.258 -1.8305  0.8772  0.7530
 3168TIP3    H231064   5.887   2.980   2.351  0.7451 -1.5189 -0.3741
 3169TIP3   OH231065   1.271   2.081   2.520 -0.0599  0.5497  0.3691
 3169TIP3    H131066   1.233   2.099   2.606 -0.2205 -0.3050  0.4800
 3169TIP3    H231067   1.353   2.036   2.538 -1.4836 -2.4070  0.0820
 3170TIP3   OH231068   5.169   5.075   6.795 -0.6550 -0.0165  0.4136
 3170TIP3    H131069   5.244   5.103   6.847 -1.2104 -1.0922  1.8338
 3170TIP3    H231070   5.101   5.141   6.814 -0.6138  0.0126  0.4606
 3171TIP3   OH231071   4.956   4.591   8.586 -0.1478  0.5717 -0.1184
 3171TIP3    H131072   4.981   4.561   8.499 -3.3287 -0.9003 -0.6556
 3171TIP3    H231073   4.935   4.684   8.574  1.2639  0.8803 -0.4312
 3172TIP3   OH231074   4.014   3.220   7.171 -0.3450 -0.2353 -0.1716
 3172TIP3    H131075   3.943   3.192   7.114 -0.1758 -1.2449  0.0926
 3172TIP3    H231076   3.981   3.202   7.260  0.2023 -0.6264 -0.0469
 3173TIP3   OH231077   6.254   3.479   1.395 -0.6565 -0.7317  0.4623
 3173TIP3    H131078   6.308   3.529   1.333  0.4109  0.7035  2.4292
 3173TIP3    H231079   6.222   3.405   1.344  0.5233  0.1315 -1.6775
 3174TIP3   OH231080   3.179   4.382   1.802 -0.7838  0.1842 -1.0023
 3174TIP3    H131081   3.116   4.401   1.871  0.1466 -0.4351  0.0502
 3174TIP3    H231082   3.185   4.287   1.801  1.2559  0.2590 -0.0087
 3175TIP3   OH231083   6.325   5.038   2.124  0.2078 -0.3621 -0.4569
 3175TIP3    H131084   6.389   4.983   2.168 -1.6232 -1.1917  1.3220
 3175TIP3    H231085   6.350   5.128   2.146  0.5763 -0.6910  0.5086
 3176TIP3   OH231086   2.448   5.665   0.650  0.5223  0.1132  0.7059
 3176TIP3    H131087   2.376   5.728   0.660  0.7575  0.4046  0.5944
 3176TIP3    H231088   2.413   5.597   0.593  0.5157  0.5361  0.2041
 3177TIP3   OH231089   1.212   0.573   0.942  0.0982  0.4781 -0.4432
 3177TIP3    H131090   1.276   0.557   1.012 -1.2996  3.2108  1.6507
 3177TIP3    H231091   1.226   0.664   0.917  0.2884 -0.3080 -3.6234
 3178TIP3   OH231092   2.976   5.370   8.629  0.2982 -0.5249 -0.0812
 3178TIP3    H131093   2.988   5.312   8.704  1.1759  1.0825  1.0864
 3178TIP3    H231094   3.064   5.397   8.604 -0.0086 -0.6746 -1.4357
 3179TIP3   OH231095   1.741   2.667   0.163 -0.2895 -0.1720  0.1910
 3179TIP3    H131096   1.784   2.583   0.171  0.9389  0.1132 -2.4405
 3179TIP3    H231097   1.669   2.652   0.101  0.0442  0.7127 -0.4357
 3180TIP3   OH231098   1.753   3.252   7.646 -0.1533 -0.2220  0.1506
 3180TIP3    H131099   1.716   3.339   7.627 -1.8438 -1.0159 -0.3694
 3180TIP3    H231100   1.811   3.234   7.573 -0.5439  0.0749 -0.2399
 3181TIP3   OH231101   4.107   5.656   1.686  0.6132  0.0886 -0.2762
 3181TIP3    H131102   4.068   5.705   1.760 -1.6273 -0.6821 -0.8660
 3181TIP3    H231103   4.164   5.592   1.728 -1.7222 -1.3087  0.9685
 3182TIP3   OH231104   4.385   3.203   0.089 -0.0990  0.2346  0.2902
 3182TIP3    H131105   4.347   3.119   0.065 -1.5460  1.2082 -0.9924
 3182TIP3    H231106   4.411   3.193   0.180 -0.6988 -1.4280  0.3060
 3183TIP3   OH231107   1.701   2.678   1.061  0.1417  0.3220  0.2944
 3183TIP3    H131108   1.715   2.617   0.989 -2.3269 -0.0916  0.0777
 3183TIP3    H231109   1.642   2.632   1.120  0.2066  1.5757  1.3716
 3184TIP3   OH231110   3.482   0.185   1.975  0.1459  0.2269  0.3795
 3184TIP3    H131111   3.461   0.269   1.935  0.7071  0.7877  1.2230
 3184TIP3    H231112   3.444   0.189   2.063  0.7107 -0.1378  0.6534
 3185TIP3   OH231113   4.084   0.915   0.225  0.0832 -0.2493 -0.0118
 3185TIP3    H131114   4.177   0.922   0.249 -0.1426  0.9107  0.5853
 3185TIP3    H231115   4.048   1.002   0.243 -1.1114 -0.6667 -0.3125
 3186TIP3   OH231116   4.243   3.271   2.089 -0.1053 -0.1140 -0.1449
 3186TIP3    H131117   4.225   3.203   2.025 -1.1008  1.1222 -1.2152
 3186TIP3    H231118   4.225   3.230   2.174 -2.1267 -0.7638 -0.8434
 3187TIP3   OH231119   2.700   5.889   7.504  0.3018 -0.6645  0.0182
 3187TIP3    H131120   2.618   5.932   7.528  0.4734 -0.7788  0.8204
 3187TIP3    H231121   2.733   5.940   7.430 -0.4857 -0.6145 -0.3052
 3188TIP3   OH231122   4.377   5.231   7.569 -0.3111 -0.0867  0.4195
 3188TIP3    H131123   4.281   5.233   7.566 -0.3145 -0.8196 -1.5664
 3188TIP3    H231124   4.399   5.138   7.561  0.5869 -0.1866  3.1432
 3189TIP3   OH231125   1.199   1.470   1.156 -0.3791 -0.1377 -0.4274
 3189TIP3    H131126   1.230   1.429   1.237 -0.2542  0.5108 -0.1410
 3189TIP3    H231127   1.224   1.409   1.087  0.6826 -0.0793 -0.1064
 3190TIP3   OH231128   4.157   6.097   8.350  0.4743 -0.0270 -0.2444
 3190TIP3    H131129   4.096   6.030   8.383 -0.4832  0.5686 -0.7722
 3190TIP3    H231130   4.106   6.178   8.348  1.5673  0.6897  0.1953
 3191TIP3   OH231131   6.688   2.719   7.628  0.1562 -0.0361  0.0959
 3191TIP3    H131132   6.708   2.660   7.700 -0.3370 -1.6568 -1.0241
 3191TIP3    H231133   6.772   2.735   7.585  0.4895  1.1289  1.1307
 3192TIP3   OH231134   1.487   6.594   7.706  0.2135  0.0204  0.5221
 3192TIP3    H131135   1.554   6.526   7.708 -0.8557 -1.1185 -0.3643
 3192TIP3    H231136   1.418   6.561   7.765  0.1674  0.8912  0.9692
 3193TIP3   OH231137   4.074   5.750   8.203  0.3367 -0.1837 -0.0924
 3193TIP3    H131138   4.123   5.817   8.156  1.8898 -1.0296  0.2326
 3193TIP3    H231139   4.133   5.675   8.206 -0.4037 -0.7570  1.6420
 3194TIP3   OH231140   5.500   5.753   1.184 -0.0469 -0.3310  0.4178
 3194TIP3    H131141   5.495   5.817   1.256 -1.4185  0.9656 -0.7382
 3194TIP3    H231142   5.427   5.778   1.127  0.7041 -1.6498 -1.1604
 3195TIP3   OH231143   1.328   5.230   1.451  0.3174  0.0830 -0.1983
 3195TIP3    H131144   1.292   5.255   1.537  1.8712  0.0473  0.4966
 3195TIP3    H231145   1.275   5.280   1.388 -0.3525  0.7152  0.8183
 3196TIP3   OH231146   0.796   2.771   1.785  0.2254 -0.0155  0.0917
 3196TIP3    H131147   0.750   2.799   1.864 -1.8722 -2.4511 -0.1280
 3196TIP3    H231148   0.752   2.817   1.714  0.6264  0.4563  0.1394
 3197TIP3   OH231149   3.218   4.405   1.327  0.2084  0.4384 -0.5891
 3197TIP3    H131150   3.230   4.344   1.254  0.3255  0.3162 -0.4680
 3197TIP3    H231151   3.279   4.477   1.307  0.1484  0.4655 -0.6766
 3198TIP3   OH231152   0.417   6.378   0.726  0.2095  0.7429  0.1351
 3198TIP3    H131153   0.472   6.455   0.733  1.2140  0.2194 -1.4548
 3198TIP3    H231154   0.394   6.373   0.633 -0.8298 -0.1997  0.4185
 3199TIP3   OH231155   2.460   0.381   0.283 -0.0235 -0.0195 -0.4705
 3199TIP3    H131156   2.428   0.338   0.203 -0.6629 -0.2130 -0.1181
 3199TIP3    H231157   2.512   0.313   0.326 -1.2850 -0.5850  0.2403
 3200TIP3   OH231158   6.264   1.796   8.065 -0.2845  0.1493 -0.2816
 3200TIP3    H131159   6.260   1.871   8.125  0.2799 -0.2271  0.2361
 3200TIP3    H231160   6.301   1.832   7.985 -1.2326  0.7019 -0.4867
 3201TIP3   OH231161   3.586   1.965   1.248  0.1683 -0.1097  0.7983
 3201TIP3    H131162   3.519   1.934   1.188  0.2281  1.1459  0.0544
 3201TIP3    H231163   3.616   1.886   1.294 -0.9360 -0.8563  0.2663
 3202TIP3   OH231164   1.865   4.640   1.197  0.2369 -0.2407  0.3785
 3202TIP3    H131165   1.811   4.562   1.208  0.0262  0.0661  1.6153
 3202TIP3    H231166   1.954   4.607   1.185  0.4700 -0.6696  2.8083
 3203TIP3   OH231167   5.057   5.790   1.109 -0.5396 -0.3232 -0.2958
 3203TIP3    H131168   5.108   5.871   1.110  0.2348 -0.7706  2.0593
 3203TIP3    H231169   4.993   5.803   1.039 -0.6674  2.4590  0.2204
 3204TIP3   OH231170   4.867   0.833   2.128  0.5747  0.0026  0.0325
 3204TIP3    H131171   4.775   0.852   2.146  0.6601 -0.0532  0.5563
 3204TIP3    H231172   4.867   0.742   2.098  0.3231  0.3872 -1.1625
 3205TIP3   OH231173   5.189   4.595   8.384  0.2486 -0.4008 -0.5259
 3205TIP3    H131174   5.181   4.572   8.477  0.8741  1.6900  0.1133
 3205TIP3    H231175   5.168   4.688   8.381 -0.8765 -0.6611 -2.6933
 3206TIP3   OH231176   2.103   3.507   1.946 -0.1693 -0.2808 -0.4139
 3206TIP3    H131177   2.132   3.573   1.884  0.1474  1.1688  1.1959
 3206TIP3    H231178   2.007   3.516   1.948 -0.0985  0.4733  0.1220
 3207TIP3   OH231179   5.538   5.983   0.289 -0.2486  0.4579 -0.6528
 3207TIP3    H131180   5.459   5.931   0.275 -0.6461  0.4277  1.4195
 3207TIP3    H231181   5.610   5.928   0.256 -1.0847  0.8946 -3.5159
 3208TIP3   OH231182   0.728   2.140   0.438 -0.1855 -0.2513  0.6633
 3208TIP3    H131183   0.698   2.118   0.526 -0.9330 -0.8242  0.2809
 3208TIP3    H231184   0.652   2.124   0.382  0.0246  0.9009  0.0111
 3209TIP3   OH231185   6.216   2.359   7.664 -0.2473  0.4771  0.0733
 3209TIP3    H131186   6.307   2.377   7.640 -0.5180  1.3020 -0.3634
 3209TIP3    H231187   6.188   2.438   7.712 -0.7352  0.2358  0.1881
 3210TIP3   OH231188   4.030   0.911   7.088 -0.1493 -0.2506  0.0213
 3210TIP3    H131189   4.031   1.006   7.100  1.1142 -0.2043 -0.3348
 3210TIP3    H231190   3.970   0.897   7.015 -0.8336  0.2084  0.4787
 3211TIP3   OH231191   5.985   5.948   1.438 -0.8256  0.1564 -0.4696
 3211TIP3    H131192   6.008   5.871   1.386 -0.5762  0.7444 -1.2528
 3211TIP3    H231193   5.986   5.917   1.528 -1.7827 -1.0286 -0.8331
 3212TIP3   OH231194   2.693   3.502   7.297 -0.0959 -0.3839 -0.4597
 3212TIP3    H131195   2.709   3.409   7.315 -1.5291 -0.8430 -1.4176
 3212TIP3    H231196   2.762   3.547   7.346 -0.4328 -1.8431  1.5034
 3213TIP3   OH231197   1.307   1.239   7.076 -0.1448  0.0974 -0.2992
 3213TIP3    H131198   1.275   1.301   7.011 -2.7262  0.2146  0.9459
 3213TIP3    H231199   1.294   1.283   7.160  0.5700 -1.0743  0.4608
 3214TIP3   OH231200   5.162   4.131   7.410 -0.4254 -0.2700  0.6228
 3214TIP3    H131201   5.137   4.202   7.469  0.5894  1.3399 -0.7743
 3214TIP3    H231202   5.248   4.102   7.441 -0.0179  0.3848  0.1275
 3215TIP3   OH231203   0.278   1.204   8.513  0.1430 -0.1952 -0.1085
 3215TIP3    H131204   0.311   1.165   8.431  0.1099  0.1768 -0.2994
 3215TIP3    H231205   0.217   1.139   8.546  0.9944 -0.8554  0.2067
 3216TIP3   OH231206   4.575   5.468   7.697  0.7839  0.3447 -0.3264
 3216TIP3    H131207   4.597   5.521   7.620 -0.9379  0.2287 -0.9481
 3216TIP3    H231208   4.564   5.533   7.767  1.3674  0.5497 -0.4216
 3217TIP3   OH231209   1.285   3.791   0.931  0.0305 -0.5803  0.0393
 3217TIP3    H131210   1.368   3.836   0.916 -0.2087 -0.3944 -0.7564
 3217TIP3    H231211   1.218   3.860   0.925 -0.1319 -0.5767  1.5044
 3218TIP3   OH231212   5.836   0.687   6.859  0.4145 -0.1064 -0.9771
 3218TIP3    H131213   5.874   0.752   6.919 -0.3719 -0.4738 -0.0466
 3218TIP3    H231214   5.741   0.697   6.871  0.2629 -0.5510 -1.7824
 3219TIP3   OH231215   6.146   1.982   7.264 -0.0869 -0.1130 -0.7180
 3219TIP3    H131216   6.148   1.887   7.263  1.8813 -0.1186 -0.3710
 3219TIP3    H231217   6.119   2.004   7.354 -2.0104 -0.2861 -1.2012
 3220TIP3   OH231218   1.682   6.853   0.093  0.1390 -0.3657  0.1312
 3220TIP3    H131219   1.749   6.864   0.160  1.9965  0.1633 -1.6768
 3220TIP3    H231220   1.655   6.762   0.100  3.0422 -1.4098 -0.7255
 3221TIP3   OH231221   5.570   6.276   8.043  0.3035 -0.2101  0.0765
 3221TIP3    H131222   5.584   6.211   8.112 -0.1048 -0.8685 -0.4447
 3221TIP3    H231223   5.496   6.241   7.993  1.0958 -0.1533 -1.1702
 3222TIP3   OH231224   6.850   6.063   7.473  0.4032 -0.1320 -0.2710
 3222TIP3    H131225   6.814   6.117   7.403 -1.1635 -1.4888 -0.5859
 3222TIP3    H231226   6.888   6.125   7.535 -0.6808  1.2711 -0.9495
 3223TIP3   OH231227   4.648   2.135   1.374 -0.2928 -0.5111  0.1494
 3223TIP3    H131228   4.612   2.049   1.394  0.5943 -1.1245 -0.7469
 3223TIP3    H231229   4.626   2.149   1.282 -0.2124  0.0967  0.2227
 3224TIP3   OH231230   1.248   3.696   2.493  0.0370 -0.3612  0.0762
 3224TIP3    H131231   1.257   3.611   2.537 -1.2694 -0.3679  0.3731
 3224TIP3    H231232   1.232   3.758   2.563 -1.0686 -0.2122 -0.2777
 3225TIP3   OH231233   0.953   4.062   7.547 -0.2547 -0.3004  0.0610
 3225TIP3    H131234   1.045   4.085   7.553 -0.7065  2.4260 -1.6765
 3225TIP3    H231235   0.906   4.140   7.577 -2.0186 -1.2679  0.0010
 3226TIP3   OH231236   6.706   2.224   1.632  0.2596  0.3620 -0.3016
 3226TIP3    H131237   6.752   2.156   1.583  0.2173  1.0500 -1.3259
 3226TIP3    H231238   6.757   2.304   1.615 -0.7540  0.9474 -0.6699
 3227TIP3   OH231239   3.569   4.437   2.554 -0.6767 -0.1480  0.5387
 3227TIP3    H131240   3.595   4.445   2.645 -0.9905 -0.0281  0.6189
 3227TIP3    H231241   3.570   4.343   2.536 -2.9101 -0.3943  1.3523
 3228TIP3   OH231242   2.988   4.660   7.369 -0.2006 -0.2955 -0.3294
 3228TIP3    H131243   3.024   4.572   7.375 -0.3258 -0.3044  0.4173
 3228TIP3    H231244   2.929   4.657   7.294 -0.9159 -1.1097  0.2447
 3229TIP3   OH231245   3.068   2.672   1.482 -0.0710  0.0276 -0.1270
 3229TIP3    H131246   3.060   2.756   1.439  2.1507 -0.4073 -1.5000
 3229TIP3    H231247   3.129   2.687   1.554 -0.6583 -0.1429  0.4171
 3230TIP3   OH231248   2.062   0.156   1.411  0.6735 -0.6849  0.1211
 3230TIP3    H131249   2.136   0.110   1.451  0.9259  0.3220  0.8648
 3230TIP3    H231250   2.016   0.089   1.361  1.6056 -1.5142  0.3380
 3231TIP3   OH231251   4.359   0.642   0.037  0.5912  0.0928  0.7348
 3231TIP3    H131252   4.420   0.706   0.000  0.5187  0.1521  0.7179
 3231TIP3    H231253   4.352   0.666   0.130  1.5585 -0.6718  1.0237
 3232TIP3   OH231254   4.306   4.189   7.765  0.1411  0.2624  0.3842
 3232TIP3    H131255   4.390   4.149   7.740  0.4524  1.0768  0.0986
 3232TIP3    H231256   4.309   4.276   7.726 -0.4364  0.6475  1.1826
 3233TIP3   OH231257   3.398   2.134   6.291 -0.2760 -0.1183  0.1825
 3233TIP3    H131258   3.423   2.044   6.269 -0.2999  0.4098 -2.2195
 3233TIP3    H231259   3.455   2.189   6.237 -1.4752  1.2879  0.2862
 3234TIP3   OH231260   0.919   3.239   0.634 -0.3034 -0.0504  0.4279
 3234TIP3    H131261   0.841   3.222   0.581 -1.1589  1.5871  1.0801
 3234TIP3    H231262   0.975   3.293   0.577  0.1053 -0.7426  0.1659
 3235TIP3   OH231263   1.364   2.911   0.039 -0.7338  0.6664 -0.0555
 3235TIP3    H131264   1.339   3.002   0.021 -3.4303 -0.1291 -0.8445
 3235TIP3    H231265   1.415   2.884  -0.038 -1.1836  1.0944 -0.5089
 3236TIP3   OH231266   2.856   2.984   0.135  0.2454  0.2240  0.3587
 3236TIP3    H131267   2.855   3.075   0.166 -0.0583 -0.0411  1.1408
 3236TIP3    H231268   2.907   2.988   0.054  0.2228  1.0954  0.3698
 3237TIP3   OH231269   6.474   5.851   7.631  0.1290  0.2377  0.2122
 3237TIP3    H131270   6.520   5.798   7.696 -0.2947  0.6392  0.8398
 3237TIP3    H231271   6.508   5.820   7.547  1.6768  0.6338  0.6580
 3238TIP3   OH231272   1.674   3.821   8.301 -0.1994 -0.2904 -0.3800
 3238TIP3    H131273   1.765   3.790   8.293  0.1081  0.6154 -0.4822
 3238TIP3    H231274   1.621   3.745   8.276  0.5216 -0.8570 -0.2494
 3239TIP3   OH231275   3.120   1.480   7.084  0.8707  0.2589 -0.0371
 3239TIP3    H131276   3.115   1.490   6.989  0.4420 -0.2724 -0.0740
 3239TIP3    H231277   3.213   1.465   7.102  0.9528  0.3590 -0.3712
 3240TIP3   OH231278   2.017   5.014   0.722  0.4664  0.3176 -0.2526
 3240TIP3    H131279   1.996   4.967   0.641  0.2727  1.4252 -0.8673
 3240TIP3    H231280   2.000   4.951   0.792 -0.5039 -0.2825 -1.0066
 3241TIP3   OH231281   3.830   0.339   0.802  0.8015 -0.0635  0.0809
 3241TIP3    H131282   3.783   0.256   0.806 -1.3655  1.1115  1.0569
 3241TIP3    H231283   3.835   0.359   0.708  1.2775 -1.2250 -0.1599
 3242TIP3   OH231284   2.216   1.261   0.617  0.1495  0.0912  0.0327
 3242TIP3    H131285   2.237   1.264   0.523  0.5194 -3.4655 -0.1238
 3242TIP3    H231286   2.152   1.190   0.624  0.7961 -0.3098  2.5904
 3243TIP3   OH231287   3.704   6.692   7.877  0.0513  0.0464 -0.2780
 3243TIP3    H131288   3.683   6.602   7.900 -2.3067  0.9152  1.4345
 3243TIP3    H231289   3.792   6.688   7.840 -0.6426 -3.1485 -1.8858
 3244TIP3   OH231290   1.739   6.625   0.772 -0.6159  0.0635 -0.9161
 3244TIP3    H131291   1.811   6.648   0.713  0.1473 -0.3662 -0.1712
 3244TIP3    H231292   1.782   6.600   0.853 -1.6546  0.8261 -0.1075
 3245TIP3   OH231293   3.398   1.861   0.157  0.1971 -0.2567  0.2173
 3245TIP3    H131294   3.481   1.895   0.190 -0.9325  0.5446  2.4527
 3245TIP3    H231295   3.416   1.769   0.138  1.0625 -0.7932  3.0663
 3246TIP3   OH231296   2.430   5.849   1.895  0.3019  0.6495  0.1981
 3246TIP3    H131297   2.422   5.939   1.864 -1.0982  0.0790 -1.2598
 3246TIP3    H231298   2.389   5.850   1.981 -0.6300  1.2265 -0.2353
 3247TIP3   OH231299   1.252   4.120   6.750 -0.0311  0.2233  0.4208
 3247TIP3    H131300   1.262   4.173   6.828  1.0641  0.4778  0.1380
 3247TIP3    H231301   1.174   4.067   6.765 -1.3676  2.1618  0.5440
 3248TIP3   OH231302   0.636   0.729   8.337 -0.3398 -0.3440 -0.2417
 3248TIP3    H131303   0.677   0.690   8.414 -1.0241 -1.5278 -0.4549
 3248TIP3    H231304   0.608   0.655   8.284  1.9843  0.3625 -2.7175
 3249TIP3   OH231305   1.738   5.486   7.457  0.4479 -0.7420  0.3862
 3249TIP3    H131306   1.819   5.531   7.436  0.1783 -0.5599 -0.2805
 3249TIP3    H231307   1.755   5.394   7.437 -0.4706 -0.3214 -2.7920
 3250TIP3   OH231308   5.033   2.733   2.822 -0.0589 -0.2655 -0.0367
 3250TIP3    H131309   5.018   2.661   2.883 -0.4256  0.5044  0.7952
 3250TIP3    H231310   4.946   2.753   2.787 -0.0737  0.2489  0.2852
 3251TIP3   OH231311   2.810   0.722   1.384 -0.9048 -0.1619  0.0242
 3251TIP3    H131312   2.853   0.757   1.462  1.1830  0.2465 -1.2395
 3251TIP3    H231313   2.784   0.633   1.409  0.0781 -0.1772  1.0866
 3252TIP3   OH231314   1.910   1.288   1.257  0.1607  0.2446  0.4009
 3252TIP3    H131315   1.898   1.223   1.326  0.4726 -0.8354 -0.5404
 3252TIP3    H231316   1.825   1.332   1.251  0.7586  1.9766  3.0291
 3253TIP3   OH231317   2.644   6.788   7.262  0.6186  0.0250  0.0014
 3253TIP3    H131318   2.680   6.700   7.255 -2.5791 -1.2956 -1.7792
 3253TIP3    H231319   2.648   6.823   7.173  0.5701  1.1430  0.4228
 3254TIP3   OH231320   3.883   1.835   2.027  0.1681 -0.5013 -0.2313
 3254TIP3    H131321   3.816   1.847   2.095 -1.1383 -2.1910 -1.1322
 3254TIP3    H231322   3.966   1.846   2.073 -0.6941  0.3353  1.2137
 3255TIP3   OH231323   5.947   5.229   7.898  0.1069  0.0400  0.7006
 3255TIP3    H131324   5.910   5.313   7.873  0.1509 -0.4302 -1.1404
 3255TIP3    H231325   6.042   5.243   7.897  0.1168 -0.0402  0.3129
 3256TIP3   OH231326   0.976   4.599   7.727 -0.3570  0.1585 -0.5419
 3256TIP3    H131327   0.922   4.563   7.798  1.0316  0.1523  0.5580
 3256TIP3    H231328   0.988   4.691   7.749  1.3275 -0.1678  0.1068
 3257TIP3   OH231329   1.964   4.804   0.970  0.3977  0.1546  0.4861
 3257TIP3    H131330   1.954   4.733   0.906 -1.2733 -1.1565  2.0872
 3257TIP3    H231331   1.909   4.777   1.044  2.6804  1.3265  2.7450
 3258TIP3   OH231332   2.421   4.553   7.811 -0.1608 -0.1414  0.7571
 3258TIP3    H131333   2.458   4.481   7.760  1.5715 -1.1828  3.3244
 3258TIP3    H231334   2.332   4.524   7.832 -0.5095 -0.1789 -0.6339
 3259TIP3   OH231335   0.928   5.623   1.740  0.1600 -0.1669  0.2942
 3259TIP3    H131336   0.860   5.555   1.741  0.3409 -0.3435  0.7478
 3259TIP3    H231337   0.994   5.591   1.800  1.1995 -0.5654 -1.0210
 3260TIP3   OH231338   0.098   3.720   2.251  0.8450 -0.1077  0.2134
 3260TIP3    H131339   0.123   3.796   2.303  0.5795 -0.5080  0.9620
 3260TIP3    H231340   0.031   3.676   2.305  0.4700 -0.4676 -0.5355
 3261TIP3   OH231341   2.805   5.733   1.841 -0.0818 -0.1322 -0.4946
 3261TIP3    H131342   2.863   5.788   1.788 -0.9277  1.6184  0.3111
 3261TIP3    H231343   2.839   5.742   1.930 -0.7609 -0.1923 -0.2221
 3262TIP3   OH231344   1.403   6.653   8.585  0.4658  0.0716  0.2963
 3262TIP3    H131345   1.393   6.575   8.530 -1.4167  0.4158  0.0978
 3262TIP3    H231346   1.397   6.727   8.523  0.5759  0.4129  0.6888
 3263TIP3   OH231347   6.537   1.019   0.294 -0.1475 -0.2510 -0.4001
 3263TIP3    H131348   6.493   1.093   0.336 -1.0871 -1.2449  0.4405
 3263TIP3    H231349   6.565   1.052   0.209  0.1142  1.2717  0.2589
 3264TIP3   OH231350   6.719   3.277   0.654 -0.1639  0.4718 -0.2392
 3264TIP3    H131351   6.692   3.368   0.646 -1.5684  0.2257  1.2356
 3264TIP3    H231352   6.642   3.226   0.630  0.3036 -0.3293 -0.1066
 3265TIP3   OH231353   3.033   4.362   7.393  0.2324 -0.0188 -0.2000
 3265TIP3    H131354   2.946   4.326   7.378  0.3195  0.2267 -1.4477
 3265TIP3    H231355   3.069   4.375   7.305  1.6946 -0.5131  0.2898
 3266TIP3   OH231356   0.731   0.126   1.010 -0.0857  1.0616  0.3959
 3266TIP3    H131357   0.820   0.144   1.042  0.4293  1.5642 -1.2026
 3266TIP3    H231358   0.732   0.157   0.919 -1.8549  0.9113  0.2926
 3267TIP3   OH231359   4.755   0.545   7.760  0.5779  0.2407 -0.5781
 3267TIP3    H131360   4.783   0.491   7.835  0.7569  0.8595 -0.1926
 3267TIP3    H231361   4.680   0.594   7.793 -0.1631 -0.4452 -1.2123
 3268TIP3   OH231362   5.658   1.581   0.726  0.5743 -0.1383 -0.2053
 3268TIP3    H131363   5.573   1.565   0.766  0.0311  0.4377 -1.0899
 3268TIP3    H231364   5.721   1.545   0.788 -0.3839 -2.0432 -0.2510
 3269TIP3   OH231365   3.600   6.482   1.785 -0.0881  0.4115 -0.4367
 3269TIP3    H131366   3.506   6.500   1.788  0.1919  1.8718  1.2275
 3269TIP3    H231367   3.641   6.563   1.815  1.6091 -0.7583  0.6211
 3270TIP3   OH231368   3.872   0.352   0.513  0.0456 -0.8169  0.1876
 3270TIP3    H131369   3.939   0.416   0.491 -0.6637 -0.4913 -1.1096
 3270TIP3    H231370   3.796   0.377   0.460 -0.5341 -2.2006  0.3221
 3271TIP3   OH231371   1.029   1.001   8.064  0.4200 -0.1094 -0.3107
 3271TIP3    H131372   1.070   0.957   8.138  0.2477  0.0819 -0.1025
 3271TIP3    H231373   1.021   1.092   8.090  0.7478  0.0426 -0.7352
 3272TIP3   OH231374   4.693   5.107   7.130  0.5500 -0.0405 -0.4443
 3272TIP3    H131375   4.664   5.080   7.043 -2.0493  0.0640  0.2967
 3272TIP3    H231376   4.665   5.199   7.138 -1.3320 -0.6821  1.2437
 3273TIP3   OH231377   1.084   3.496   6.621 -0.2736 -0.4882  0.9566
 3273TIP3    H131378   1.115   3.482   6.710  2.1344  0.3929  0.3243
 3273TIP3    H231379   1.042   3.413   6.597 -0.6685 -0.8511  2.7585
 3274TIP3   OH231380   3.405   6.827   8.626  0.5696 -0.6858  0.0565
 3274TIP3    H131381   3.473   6.802   8.563  0.4156 -2.5622  0.5745
 3274TIP3    H231382   3.358   6.899   8.583  1.2022 -1.1296 -1.4628
 3275TIP3   OH231383   3.146   3.896   7.582  0.7253  0.4240  0.4238
 3275TIP3    H131384   3.135   3.990   7.599  0.6152  0.2535  1.3554
 3275TIP3    H231385   3.163   3.891   7.488 -1.7584  1.1799 -0.1528
 3276TIP3   OH231386   5.270   2.595   1.280 -0.3988  0.1676 -0.3075
 3276TIP3    H131387   5.205   2.527   1.293 -0.4380  0.3556  0.5028
 3276TIP3    H231388   5.302   2.616   1.368 -2.0681  2.8639 -0.2199
 3277TIP3   OH231389   0.799   4.285   0.955  0.0561  0.3452 -0.1556
 3277TIP3    H131390   0.891   4.303   0.973  0.0651  1.4625 -1.1608
 3277TIP3    H231391   0.776   4.346   0.884 -1.4486  0.0841  0.0659
 3278TIP3   OH231392   3.195   0.292   1.878 -0.1775  0.5936 -0.4713
 3278TIP3    H131393   3.106   0.263   1.898 -0.1131  0.2449 -0.6855
 3278TIP3    H231394   3.215   0.357   1.946 -0.3105  0.1155  0.0335
 3279TIP3   OH231395   6.781   5.647   8.578  0.3148 -0.0529 -0.0867
 3279TIP3    H131396   6.785   5.600   8.661  0.0094 -2.3889 -1.3037
 3279TIP3    H231397   6.714   5.600   8.527 -0.6561  2.2769 -1.1104
 3280TIP3   OH231398   5.728   2.413   0.527  0.1912 -0.2067  0.1634
 3280TIP3    H131399   5.774   2.427   0.444  0.8854 -3.6150 -0.1718
 3280TIP3    H231400   5.636   2.427   0.505  0.4919  0.4096 -0.7945
 3281TIP3   OH231401   3.709   1.278   0.774  0.4137 -0.2671  0.4894
 3281TIP3    H131402   3.696   1.204   0.716 -0.7532  1.1431 -1.1455
 3281TIP3    H231403   3.631   1.280   0.829 -0.2329  0.5331 -0.4258
 3282TIP3   OH231404   5.008   0.975   1.713  0.8641  0.0425 -0.4842
 3282TIP3    H131405   5.087   1.027   1.727  1.6047 -1.1181 -0.2408
 3282TIP3    H231406   4.970   1.010   1.633  0.6856  1.7461  0.2917
 3283TIP3   OH231407   1.419   3.778   6.460  0.4173  0.5925 -0.4126
 3283TIP3    H131408   1.462   3.708   6.411 -0.4031 -0.6510  0.5897
 3283TIP3    H231409   1.330   3.780   6.426  0.4512  1.1951 -0.4710
 3284TIP3   OH231410   5.985   1.436   1.193  0.1323  0.0491  0.2292
 3284TIP3    H131411   5.896   1.434   1.229  0.6121 -2.7641  1.5376
 3284TIP3    H231412   6.042   1.430   1.269  1.4579  1.1839 -0.6327
 3285TIP3   OH231413   1.505   4.108   1.977 -0.4229  0.1360  0.2096
 3285TIP3    H131414   1.563   4.171   2.019  0.8802 -0.8784 -0.0081
 3285TIP3    H231415   1.439   4.089   2.043  0.0081  0.6264  0.7987
 3286TIP3   OH231416   5.350   4.781   7.288  0.2668  0.6254 -0.2597
 3286TIP3    H131417   5.271   4.830   7.310 -0.7041  0.0474 -2.2120
 3286TIP3    H231418   5.417   4.849   7.277 -0.4703  1.3231 -0.6109
 3287TIP3   OH231419   1.490   0.674   0.500 -0.3190 -0.1655  0.3799
 3287TIP3    H131420   1.408   0.723   0.494 -0.1744  0.2721  1.7561
 3287TIP3    H231421   1.544   0.709   0.429 -1.4234 -0.7147 -0.7883
 3288TIP3   OH231422   6.504   5.448   8.229  0.5641 -0.2232 -0.4683
 3288TIP3    H131423   6.461   5.412   8.306  0.3481 -0.0183 -0.4941
 3288TIP3    H231424   6.585   5.397   8.221  0.6757 -0.1212 -0.0001
 3289TIP3   OH231425   4.465   0.118   0.263 -0.4134 -0.4671 -0.1455
 3289TIP3    H131426   4.374   0.114   0.294 -0.4610 -0.1000 -0.2351
 3289TIP3    H231427   4.461   0.172   0.185 -0.2463 -1.1429 -0.6334
 3290TIP3   OH231428   3.048   4.521   7.647 -0.2335 -0.0510 -0.1654
 3290TIP3    H131429   2.984   4.488   7.710  0.1157 -0.5711 -0.0773
 3290TIP3    H231430   3.043   4.460   7.573  0.4090 -0.3142 -0.0058
 3291TIP3   OH231431   6.690   6.805   7.193 -0.1738 -0.0017 -0.5552
 3291TIP3    H131432   6.630   6.862   7.242 -2.3567  0.6595 -3.6595
 3291TIP3    H231433   6.776   6.844   7.206 -0.8369  0.9832  1.4397
 3292TIP3   OH231434   2.708   1.843   7.118 -0.5320  0.3641 -0.1718
 3292TIP3    H131435   2.764   1.794   7.058 -1.8834 -1.7144  0.1725
 3292TIP3    H231436   2.677   1.918   7.067  1.0934  0.5703 -0.9167
 3293TIP3   OH231437   3.159   5.978   6.625 -0.3566  0.4200  0.3201
 3293TIP3    H131438   3.173   6.038   6.551 -0.2292 -1.2528 -1.0914
 3293TIP3    H231439   3.129   5.896   6.584 -0.1408 -0.6208  2.1216
 3294TIP3   OH231440   0.857   1.439   6.805 -0.6996  0.0296  0.0435
 3294TIP3    H131441   0.786   1.412   6.746  0.0076 -0.0313 -0.8044
 3294TIP3    H231442   0.929   1.462   6.746 -0.5587  1.7014  0.8051
 3295TIP3   OH231443   4.918   3.370   1.801  0.2149 -0.7093 -0.2940
 3295TIP3    H131444   4.910   3.445   1.743  0.5860 -0.9977 -0.7323
 3295TIP3    H231445   4.998   3.325   1.771 -0.5591 -1.8552 -0.7255
 3296TIP3   OH231446   2.506   5.105   7.211  0.2125  0.3845  0.2151
 3296TIP3    H131447   2.535   5.056   7.134 -0.1304  1.5993 -0.7073
 3296TIP3    H231448   2.413   5.082   7.219  0.0977  0.7393 -0.1029
 3297TIP3   OH231449   0.956   3.571   1.031 -0.2244  0.1796  0.4691
 3297TIP3    H131450   0.884   3.603   0.977 -1.3644 -1.0427  1.2174
 3297TIP3    H231451   0.935   3.601   1.120  0.9845  1.1008  0.4718
 3298TIP3   OH231452   2.199   0.973   7.109  0.6301  0.2046 -0.2493
 3298TIP3    H131453   2.120   0.930   7.142  3.2385 -4.2104  0.9301
 3298TIP3    H231454   2.231   1.025   7.183  0.5969 -0.7702  0.4720
 3299TIP3   OH231455   0.429   3.442   2.526 -0.1684 -0.4335  0.4715
 3299TIP3    H131456   0.434   3.391   2.607 -0.8714  1.3806  1.7257
 3299TIP3    H231457   0.345   3.488   2.532  0.0693  0.2415 -0.9969
 3300TIP3   OH231458   5.554   3.419   1.320  0.5716 -0.7545  0.1617
 3300TIP3    H131459   5.549   3.483   1.391  0.0002 -0.7601  0.1332
 3300TIP3    H231460   5.647   3.402   1.309  0.7272  0.1390  0.1042
 3301TIP3   OH231461   1.960   3.332   0.289  0.7477 -0.3533  0.1210
 3301TIP3    H131462   2.038   3.307   0.339  0.2519  0.2872  1.2525
 3301TIP3    H231463   1.891   3.342   0.354  0.1853  0.9561 -0.6313
 3302TIP3   OH231464   0.897   5.347   0.065 -0.3971  0.3621 -0.1352
 3302TIP3    H131465   0.840   5.270   0.069 -0.8417  0.5107 -2.4881
 3302TIP3    H231466   0.879   5.386  -0.020  1.3112  1.9315  0.1648
 3303TIP3   OH231467   6.622   1.839   0.208 -0.0458 -0.0680 -0.6341
 3303TIP3    H131468   6.572   1.758   0.209  1.7141 -1.2240 -0.1583
 3303TIP3    H231469   6.687   1.826   0.138  1.6663 -0.0521  0.8688
 3304TIP3   OH231470   6.243   6.698   7.378 -0.1108 -0.4636 -0.0483
 3304TIP3    H131471   6.242   6.733   7.467  0.3433 -0.2336 -0.1324
 3304TIP3    H231472   6.162   6.730   7.339  0.5052  0.8898 -0.2753
 3305TIP3   OH231473   5.587   3.821   7.330 -0.2183  0.2066 -0.5812
 3305TIP3    H131474   5.665   3.802   7.278  0.2308  1.4683 -0.4025
 3305TIP3    H231475   5.594   3.764   7.406  1.0632  1.0279 -0.0681
 3306TIP3   OH231476   1.944   5.379   6.510  0.4970  0.4582  0.4820
 3306TIP3    H131477   1.893   5.317   6.561  1.1893 -1.9094 -1.5012
 3306TIP3    H231478   1.884   5.452   6.494 -0.6800 -0.1011  2.0792
 3307TIP3   OH231479   6.692   0.452   8.628 -0.2307  0.2554  0.1288
 3307TIP3    H131480   6.666   0.541   8.649  0.8082  0.4221  0.8058
 3307TIP3    H231481   6.711   0.453   8.534 -2.7265  0.0760 -0.4455
 3308TIP3   OH231482   6.510   3.088   0.973  0.2775  0.3296 -0.0625
 3308TIP3    H131483   6.558   3.169   0.957  3.4668 -1.4246 -0.1182
 3308TIP3    H231484   6.460   3.104   1.053  0.9581  2.2628  0.0066
 3309TIP3   OH231485   3.411   0.914   8.570  0.3427  0.1300 -0.5419
 3309TIP3    H131486   3.374   0.961   8.644 -1.2473 -1.5303 -0.1854
 3309TIP3    H231487   3.461   0.842   8.610 -0.3740 -0.6677 -1.0376
 3310TIP3   OH231488   0.314   2.367   6.666 -0.1519  0.2414 -0.1876
 3310TIP3    H131489   0.272   2.431   6.723 -0.2600  0.2176 -0.2393
 3310TIP3    H231490   0.387   2.414   6.626 -0.0071  0.2247  0.0575
 3311TIP3   OH231491   3.009   6.671   7.028  0.2031 -0.2527 -0.0220
 3311TIP3    H131492   3.054   6.640   6.949 -1.3055 -0.5162 -0.8037
 3311TIP3    H231493   3.044   6.616   7.099 -0.7504 -2.2278 -1.0139
 3312TIP3   OH231494   2.393   5.081   1.475 -0.6447 -0.5073 -0.2767
 3312TIP3    H131495   2.385   4.986   1.462 -0.3008 -0.5580 -0.1309
 3312TIP3    H231496   2.400   5.092   1.570  0.5357 -0.4406 -0.3602
 3313TIP3   OH231497   2.836   5.133   7.882 -0.0743  0.5424 -0.5638
 3313TIP3    H131498   2.764   5.073   7.903  1.1497 -0.4067  1.1479
 3313TIP3    H231499   2.870   5.101   7.798 -0.9391  0.3236 -0.8366
 3314TIP3   OH231500   2.917   0.252   1.884  0.2823  0.6126  0.2277
 3314TIP3    H131501   2.871   0.200   1.951  1.5494 -1.9005 -0.7004
 3314TIP3    H231502   2.891   0.212   1.801 -0.5447  3.0815 -0.7900
 3315TIP3   OH231503   4.616   3.482   7.873  0.2144  0.2147 -0.1467
 3315TIP3    H131504   4.560   3.475   7.950 -0.1599 -0.2370 -0.4504
 3315TIP3    H231505   4.586   3.411   7.815 -1.5545  2.3182 -1.9943
 3316TIP3   OH231506   4.417   4.617   0.362  0.2851 -0.4157 -0.0891
 3316TIP3    H131507   4.435   4.659   0.446  0.0282  3.2474 -1.7126
 3316TIP3    H231508   4.337   4.567   0.378  0.7688 -0.6314  2.0435
 3317TIP3   OH231509   3.269   2.281   8.597  0.0168 -0.0794  0.7644
 3317TIP3    H131510   3.273   2.330   8.679 -0.0009 -0.8596  1.2338
 3317TIP3    H231511   3.282   2.190   8.622  2.3513 -0.1171 -0.3484
 3318TIP3   OH231512   3.581   5.978   6.846  0.5940  0.2083  0.5769
 3318TIP3    H131513   3.582   6.003   6.754  2.0346  0.3823  0.6258
 3318TIP3    H231514   3.633   5.897   6.850  1.2603  0.6605  1.3441
 3319TIP3   OH231515   4.045   0.948   6.669 -0.1784  0.1416  0.0544
 3319TIP3    H131516   4.124   0.995   6.694 -0.4859  0.7923 -0.1894
 3319TIP3    H231517   4.073   0.857   6.659  0.2212  0.0949  1.4665
 3320TIP3   OH231518   6.505   1.234   1.618  0.6118  0.2363  0.6491
 3320TIP3    H131519   6.435   1.185   1.575  0.8518  1.2409 -0.9617
 3320TIP3    H231520   6.585   1.203   1.576  0.9380  0.6370  0.9622
 3321TIP3   OH231521   6.035   1.974   7.513 -0.1575  0.1874 -0.7883
 3321TIP3    H131522   5.970   1.919   7.557  0.9508  0.3490  1.1420
 3321TIP3    H231523   6.028   2.059   7.557  2.5788 -0.2974  0.8192
 3322TIP3   OH231524   4.899   5.825   8.024  0.1057  0.1785  0.3133
 3322TIP3    H131525   4.958   5.798   7.954  2.1952 -1.7954  2.6514
 3322TIP3    H231526   4.877   5.916   8.004  4.3449  1.2093 -0.4779
 3323TIP3   OH231527   2.443   6.187   6.729 -0.3527  0.5272 -0.2535
 3323TIP3    H131528   2.436   6.097   6.759  1.8961  1.1627  2.7287
 3323TIP3    H231529   2.358   6.226   6.749 -0.3346 -0.2068  1.4079
 3324TIP3   OH231530   0.959   2.596   7.818 -0.3450  0.2404 -0.6986
 3324TIP3    H131531   1.015   2.660   7.860 -1.2153  0.0742  0.7875
 3324TIP3    H231532   0.938   2.533   7.887 -1.5624 -0.2300 -1.4594
 3325TIP3   OH231533   5.132   4.412   1.558  0.2119 -0.1209  0.3348
 3325TIP3    H131534   5.112   4.336   1.504  0.9561  0.9335 -1.5105
 3325TIP3    H231535   5.089   4.394   1.642 -1.3748 -1.6237 -0.7388
 3326TIP3   OH231536   4.947   4.428   0.483 -0.4532 -0.8479  0.0659
 3326TIP3    H131537   4.974   4.348   0.439  0.3702 -0.5455 -0.0024
 3326TIP3    H231538   5.003   4.432   0.561 -0.1004 -0.0658 -0.2167
 3327TIP3   OH231539   3.256   0.302   6.729  0.4875 -0.2403 -0.3091
 3327TIP3    H131540   3.178   0.281   6.678  1.2361 -2.1256 -0.7755
 3327TIP3    H231541   3.327   0.302   6.665  1.0532  0.1698  0.3029
 3328TIP3   OH231542   6.065   6.325   8.497 -0.2089  0.1499  0.0989
 3328TIP3    H131543   6.036   6.416   8.506 -1.4146 -0.3495  1.4982
 3328TIP3    H231544   6.029   6.297   8.413 -2.7457 -0.0240  1.1569
 3329TIP3   OH231545   1.327   1.738   7.844  0.3229  0.2225 -0.4774
 3329TIP3    H131546   1.383   1.692   7.906  1.9528  1.0410 -1.2825
 3329TIP3    H231547   1.277   1.669   7.800 -1.4875 -0.3489  2.2086
 3330TIP3   OH231548   4.154   2.106   6.316  0.0047  0.4691  0.4402
 3330TIP3    H131549   4.071   2.133   6.355 -0.3355 -0.9282  0.7356
 3330TIP3    H231550   4.202   2.187   6.304 -0.9552  1.1909  1.2993
 3331TIP3   OH231551   6.049   1.899   8.463 -0.2100 -0.4132 -0.3485
 3331TIP3    H131552   5.970   1.949   8.444 -1.1876 -2.0236 -0.6446
 3331TIP3    H231553   6.063   1.911   8.557 -0.1051  0.8472 -0.5152
 3332TIP3   OH231554   4.243   4.417   8.119 -0.0179 -0.3332 -0.1307
 3332TIP3    H131555   4.180   4.461   8.177  0.9138  1.4609 -0.4073
 3332TIP3    H231556   4.290   4.357   8.177  0.0286  0.4951  0.7254
 3333TIP3   OH231557   6.129   3.182   8.086  0.5387  0.1296 -0.2298
 3333TIP3    H131558   6.121   3.147   7.997 -1.7467  1.1369 -0.4952
 3333TIP3    H231559   6.196   3.128   8.127  1.6461 -0.3852 -2.5444
 3334TIP3   OH231560   5.858   5.008   0.765  0.5310 -0.0015  0.0164
 3334TIP3    H131561   5.850   5.019   0.860  0.9060 -0.3522  0.0942
 3334TIP3    H231562   5.865   4.913   0.753  3.2712  0.1343 -0.1061
 3335TIP3   OH231563   3.534   6.226   0.154  0.2836  0.3763  0.7289
 3335TIP3    H131564   3.562   6.138   0.177  0.2674 -0.2017 -1.2657
 3335TIP3    H231565   3.475   6.252   0.224  0.9554 -0.8476  1.7931
 3336TIP3   OH231566   1.518   3.494   0.987  0.0210  0.2020  0.7595
 3336TIP3    H131567   1.435   3.468   0.947  0.7633 -1.0151 -0.0522
 3336TIP3    H231568   1.584   3.440   0.943  0.9579 -0.8927  3.2948
 3337TIP3   OH231569   5.766   2.593   6.751  0.3802  0.2333 -0.0178
 3337TIP3    H131570   5.851   2.554   6.771 -0.0026 -0.9211 -0.5887
 3337TIP3    H231571   5.713   2.575   6.829  0.1818 -0.4722 -0.3097
 3338TIP3   OH231572   0.050   0.753   7.029  0.6228 -0.5903 -0.0469
 3338TIP3    H131573  -0.027   0.809   7.019  0.6407 -0.6097 -0.2824
 3338TIP3    H231574   0.099   0.763   6.948  2.4836  1.8344  1.2288
 3339TIP3   OH231575   5.971   6.707   7.276  0.1995 -0.5672  0.9835
 3339TIP3    H131576   6.026   6.768   7.226 -1.3328  0.1969  0.1693
 3339TIP3    H231577   5.889   6.754   7.289 -0.6098 -2.0231  1.3598
 3340TIP3   OH231578   2.682   1.284   6.137  0.2303 -0.4713  0.5771
 3340TIP3    H131579   2.707   1.192   6.151 -0.3343 -1.1315 -2.2083
 3340TIP3    H231580   2.586   1.281   6.129  0.1322  0.5063  1.2486
 3341TIP3   OH231581   5.550   0.431   8.140 -0.1033  0.1382 -0.3957
 3341TIP3    H131582   5.463   0.397   8.121  1.0153 -1.9230 -2.3168
 3341TIP3    H231583   5.558   0.426   8.235 -1.4623 -1.2285 -0.3272
 3342TIP3   OH231584   4.973   4.324   1.793  0.6225 -0.0777  0.7555
 3342TIP3    H131585   4.954   4.234   1.767  0.1108  0.1533  0.2984
 3342TIP3    H231586   4.934   4.333   1.880  0.3679 -0.1935  0.6529
 3343TIP3   OH231587   0.055   2.960   8.144 -0.2321 -0.2338  0.1075
 3343TIP3    H131588  -0.030   2.999   8.165  0.0869  1.0986 -0.9287
 3343TIP3    H231589   0.092   2.935   8.229 -0.9212  0.7774  0.7230
 3344TIP3   OH231590   5.664   1.368   8.338 -0.1714 -0.6695  0.7814
 3344TIP3    H131591   5.642   1.308   8.409  0.0818 -0.3094  1.1677
 3344TIP3    H231592   5.631   1.325   8.259 -0.1987 -1.2060  1.0812
 3345TIP3   OH231593   6.695   0.879   6.923 -0.0568 -0.0527 -0.0672
 3345TIP3    H131594   6.678   0.857   6.831 -1.4689 -0.7788  0.3231
 3345TIP3    H231595   6.618   0.930   6.950  0.4739  0.3901  0.6314
 3346TIP3   OH231596   3.144   6.665   7.353 -0.1700  0.1327  0.2569
 3346TIP3    H131597   3.185   6.584   7.323  0.0517  0.3946 -0.1498
 3346TIP3    H231598   3.199   6.695   7.425 -0.1818 -0.0103  0.3263
 3347TIP3   OH231599   0.684   4.928   7.295 -0.2305  0.2354  0.7339
 3347TIP3    H131600   0.724   4.994   7.239  0.3270  0.9856  1.9888
 3347TIP3    H231601   0.600   4.965   7.321 -0.2520  0.1230  0.8263
 3348TIP3   OH231602   3.637   6.143   1.522  0.1381  0.5176  0.7312
 3348TIP3    H131603   3.619   6.232   1.493  0.5877  0.3817  0.0298
 3348TIP3    H231604   3.676   6.153   1.609 -0.0182  0.9888  0.7468
 3349TIP3   OH231605   4.186   5.196   2.370 -0.4256  0.0757 -0.6631
 3349TIP3    H131606   4.165   5.103   2.370  0.3103 -0.0954 -0.6424
 3349TIP3    H231607   4.111   5.238   2.328 -1.9533 -0.2345  1.5719
 3350TIP3   OH231608   3.828   6.818   8.663  0.4281 -0.5565  0.1496
 3350TIP3    H131609   3.858   6.844   8.576 -0.3086 -0.3348 -0.0466
 3350TIP3    H231610   3.814   6.724   8.657 -0.1596 -0.4588 -0.1498
 3351TIP3   OH231611   2.869   1.337   1.453 -0.0313  0.0968  0.4203
 3351TIP3    H131612   2.826   1.322   1.368  0.2729 -0.9185  0.4401
 3351TIP3    H231613   2.866   1.252   1.497  1.3233  0.1977  0.7296
 3352TIP3   OH231614   5.608   1.065   1.487 -0.2780 -0.1065  0.0120
 3352TIP3    H131615   5.607   1.150   1.530 -0.4646  0.1636 -0.5066
 3352TIP3    H231616   5.693   1.027   1.509  0.7145  1.1342 -1.4714
 3353TIP3   OH231617   2.929   5.672   1.521 -0.0951  0.0358 -0.1029
 3353TIP3    H131618   2.849   5.622   1.541 -0.3850  0.6992  0.4376
 3353TIP3    H231619   3.000   5.609   1.535 -0.4122 -0.0672  1.2456
 3354TIP3   OH231620   1.017   4.303   1.746 -0.4627 -0.3695 -0.5567
 3354TIP3    H131621   1.024   4.399   1.755 -1.9245 -0.3630  1.3490
 3354TIP3    H231622   0.970   4.291   1.664  1.2388  0.4422 -1.6990
 3355TIP3   OH231623   1.604   5.076   8.236 -0.1230  0.2966 -0.0974
 3355TIP3    H131624   1.561   5.012   8.293 -1.2595  1.4049  0.3183
 3355TIP3    H231625   1.615   5.029   8.152 -1.3274 -0.3110  0.0652
 3356TIP3   OH231626   5.244   4.609   8.123 -0.0910  0.0312 -0.0652
 3356TIP3    H131627   5.200   4.602   8.208 -0.2309  0.0466 -0.1360
 3356TIP3    H231628   5.253   4.703   8.109 -1.0120  0.0581 -0.5501
 3357TIP3   OH231629   4.006   0.315   1.637  0.1256  0.3311  0.3115
 3357TIP3    H131630   4.055   0.236   1.615 -0.9442 -0.4762  0.7310
 3357TIP3    H231631   3.946   0.287   1.706 -0.4362  1.4579  0.2921
 3358TIP3   OH231632   2.597   3.718   0.450 -0.6253 -0.3094 -0.1414
 3358TIP3    H131633   2.566   3.651   0.511  2.6449 -1.2422  0.6870
 3358TIP3    H231634   2.663   3.766   0.499 -0.4562  1.3108 -1.8523
 3359TIP3   OH231635   3.690   6.621   6.895 -0.1718  0.4160  0.3679
 3359TIP3    H131636   3.667   6.572   6.974  0.3101  1.9119  1.4810
 3359TIP3    H231637   3.627   6.591   6.829  0.0175 -1.5589  1.0222
 3360TIP3   OH231638   2.270   0.278   0.940 -0.6984 -0.7071  0.8419
 3360TIP3    H131639   2.303   0.367   0.948 -1.5198 -0.3969  0.8662
 3360TIP3    H231640   2.240   0.271   0.849 -0.2397 -1.1064  0.7127
 3361TIP3   OH231641   5.118   2.248   7.294 -0.4404 -0.2567  0.2184
 3361TIP3    H131642   5.072   2.270   7.212 -0.8071 -0.8553  0.2540
 3361TIP3    H231643   5.053   2.265   7.363  0.7940  3.1984  0.7318
 3362TIP3   OH231644   3.875   5.330   1.053 -0.2303 -0.3606 -0.3037
 3362TIP3    H131645   3.927   5.395   1.006 -0.8602  0.4389  0.0721
 3362TIP3    H231646   3.807   5.382   1.097  0.6440 -0.9980  1.9438
 3363TIP3   OH231647   5.031   0.473   2.248  0.0117  0.2839  0.6371
 3363TIP3    H131648   5.092   0.421   2.300  0.4291 -0.2474 -0.3597
 3363TIP3    H231649   4.955   0.416   2.235  0.3717 -0.0204 -0.2564
 3364TIP3   OH231650   2.366   3.733   8.076  0.0947 -0.3448  0.1835
 3364TIP3    H131651   2.336   3.781   8.153 -1.1766 -0.0714 -0.4670
 3364TIP3    H231652   2.357   3.641   8.100 -1.7978 -0.2837 -0.1742
 3365TIP3   OH231653   3.652   3.234   0.587 -0.6930 -0.3318  0.0305
 3365TIP3    H131654   3.719   3.294   0.620  0.4623 -1.8692  0.5972
 3365TIP3    H231655   3.653   3.161   0.649 -0.2088 -2.1463 -1.9985
 3366TIP3   OH231656   5.719   2.120   2.536  0.0326  0.1242  0.1976
 3366TIP3    H131657   5.782   2.154   2.599  0.6698 -1.0819  0.2445
 3366TIP3    H231658   5.765   2.120   2.452  0.9442 -2.7419  0.5785
 3367TIP3   OH231659   0.856   3.155   0.229  0.6821  0.2556 -0.2388
 3367TIP3    H131660   0.935   3.178   0.180  1.2440  0.6219  0.8213
 3367TIP3    H231661   0.862   3.060   0.241  1.2165  0.3533  0.2697
 3368TIP3   OH231662   5.930   2.506   6.463 -0.6077  0.7218  0.5783
 3368TIP3    H131663   5.855   2.553   6.426 -1.3196 -0.5798  0.2829
 3368TIP3    H231664   5.960   2.560   6.535 -0.3235  2.4520 -0.7811
 3369TIP3   OH231665   3.740   3.640   7.512 -0.3284  0.5923  0.0598
 3369TIP3    H131666   3.671   3.674   7.570  0.7052 -1.8896  3.0241
 3369TIP3    H231667   3.813   3.623   7.571  1.2535 -0.9961 -2.2350
 3370TIP3   OH231668   2.467   2.201   0.874 -0.1784 -0.4161  0.1837
 3370TIP3    H131669   2.435   2.112   0.863  1.5324 -1.1641  0.8513
 3370TIP3    H231670   2.468   2.214   0.969  1.9077 -0.6590  0.2584
 3371TIP3   OH231671   2.793   3.006   1.711 -0.6668 -0.5077  0.0697
 3371TIP3    H131672   2.811   2.965   1.796 -0.6815 -2.2643 -0.7203
 3371TIP3    H231673   2.854   3.080   1.707  0.0894 -1.0372  1.1608
 3372TIP3   OH231674   6.720   1.018   0.511  1.0720  0.4370  0.1947
 3372TIP3    H131675   6.637   1.007   0.465  1.3194 -1.2438  0.0967
 3372TIP3    H231676   6.786   1.014   0.443  1.2688  1.2143  0.3370
 3373TIP3   OH231677   5.921   4.130   7.722  0.2781 -0.1660 -0.3541
 3373TIP3    H131678   6.006   4.168   7.743  0.0958  0.4831 -0.7684
 3373TIP3    H231679   5.938   4.071   7.649  0.6095 -1.1147  0.4643
 3374TIP3   OH231680   6.608   3.521   0.698 -0.0825  0.0880  0.1742
 3374TIP3    H131681   6.535   3.566   0.656 -1.5188 -0.4924  1.9562
 3374TIP3    H231682   6.659   3.592   0.738  1.1659  0.6224 -2.1852
 3375TIP3   OH231683   1.276   1.746   1.227  0.3928 -0.2586 -0.7716
 3375TIP3    H131684   1.262   1.658   1.263  1.9882 -1.6710 -3.3000
 3375TIP3    H231685   1.204   1.758   1.165 -0.9760  1.1585  0.9720
 3376TIP3   OH231686   2.185   5.229   7.567  0.2419  0.2762  0.0524
 3376TIP3    H131687   2.135   5.309   7.575  0.6093  0.3745  1.6744
 3376TIP3    H231688   2.119   5.160   7.558 -0.2748  0.3729  2.3997
 3377TIP3   OH231689   6.780   1.645   0.574  0.1854 -0.1079 -0.4342
 3377TIP3    H131690   6.708   1.584   0.561  0.2771 -0.5159  0.8930
 3377TIP3    H231691   6.838   1.602   0.637  1.3381  0.4323 -1.0920
 3378TIP3   OH231692   4.003   3.611   0.990  0.0417 -0.5103 -0.4608
 3378TIP3    H131693   4.076   3.575   1.039  1.9482  3.5991  0.1916
 3378TIP3    H231694   3.943   3.645   1.058  0.0948  0.5936 -0.9428
 3379TIP3   OH231695   4.968   1.632   8.538  0.1251 -0.0270 -0.2001
 3379TIP3    H131696   4.945   1.690   8.611  0.6990  1.2829 -1.0303
 3379TIP3    H231697   5.063   1.640   8.530  0.1942 -1.0181 -0.3956
 3380TIP3   OH231698   0.533   0.158   1.348 -0.6433 -0.3450 -0.1589
 3380TIP3    H131699   0.550   0.082   1.292 -0.3062 -0.7007  0.4208
 3380TIP3    H231700   0.510   0.228   1.287  1.7015 -0.1576 -0.9033
 3381TIP3   OH231701   3.809   6.337   7.597  0.1493 -0.2225 -0.6809
 3381TIP3    H131702   3.887   6.350   7.651 -0.5639 -0.7350  0.5053
 3381TIP3    H231703   3.774   6.425   7.584 -0.3585 -0.1945  0.7586
 3382TIP3   OH231704   4.399   3.422   2.754  0.0286  0.3430  0.3801
 3382TIP3    H131705   4.404   3.431   2.659  0.2144  1.4249  0.4710
 3382TIP3    H231706   4.373   3.331   2.769  3.0444 -0.8144 -0.6255
 3383TIP3   OH231707   0.445   4.983   6.867  0.3042  0.1454 -0.3771
 3383TIP3    H131708   0.512   4.917   6.847  1.0941  0.7187  0.2986
 3383TIP3    H231709   0.486   5.040   6.932 -1.8794 -1.1694  2.3246
 3384TIP3   OH231710   4.017   1.680   0.808  0.1006  0.2228 -0.4419
 3384TIP3    H131711   3.922   1.670   0.801  0.1800 -0.7518 -0.1849
 3384TIP3    H231712   4.038   1.753   0.750 -0.8109  0.4720 -0.4653
 3385TIP3   OH231713   1.231   6.263   0.230 -0.3636  0.5487  0.4724
 3385TIP3    H131714   1.233   6.350   0.271 -1.7669  0.5732  0.5377
 3385TIP3    H231715   1.270   6.205   0.296  0.5478  1.0960  0.4426
 3386TIP3   OH231716   4.290   0.480   0.632  0.3707 -0.3126  0.6373
 3386TIP3    H131717   4.341   0.409   0.593 -1.3229 -0.4290 -1.6151
 3386TIP3    H231718   4.237   0.438   0.699 -0.0386 -1.0634 -0.1401
 3387TIP3   OH231719   5.954   1.450   1.715 -0.0182 -0.3848  0.0678
 3387TIP3    H131720   5.991   1.524   1.763  0.0555  0.2294 -0.9085
 3387TIP3    H231721   6.029   1.408   1.674 -0.2583  0.1642 -0.9587
 3388TIP3   OH231722   3.915   3.535   8.398  0.4104  0.7116 -0.1244
 3388TIP3    H131723   3.880   3.615   8.437 -1.3386 -0.1715  0.2666
 3388TIP3    H231724   3.885   3.465   8.457  0.9341 -0.3182 -1.0382
 3389TIP3   OH231725   5.183   3.810   2.493  0.5578 -0.7336 -0.6504
 3389TIP3    H131726   5.106   3.769   2.453  0.7029 -2.0753  0.3771
 3389TIP3    H231727   5.256   3.784   2.436  0.8763 -3.2517  0.7418
 3390TIP3   OH231728   4.147   2.751   8.481 -0.7907  0.3330  0.6408
 3390TIP3    H131729   4.166   2.729   8.390 -0.5892  0.1222  0.7318
 3390TIP3    H231730   4.203   2.826   8.500 -1.5757  1.0169  0.2880
 3391TIP3   OH231731   5.797   1.123   0.691 -0.2924 -0.4073  0.1803
 3391TIP3    H131732   5.793   1.202   0.746 -0.3465  0.1379 -0.5912
 3391TIP3    H231733   5.707   1.093   0.685 -0.2461 -0.6480  0.6362
 3392TIP3   OH231734   2.443   1.047   1.913  0.2627  0.0048  0.0263
 3392TIP3    H131735   2.442   1.066   2.007 -2.9946 -1.0334  0.3251
 3392TIP3    H231736   2.386   0.970   1.904  1.6622 -0.8206 -2.6662
 3393TIP3   OH231737   4.924   0.307   8.438 -0.2976 -0.3501  0.5914
 3393TIP3    H131738   4.908   0.292   8.531 -0.8597  0.6419  0.6708
 3393TIP3    H231739   4.839   0.328   8.401 -0.2914 -1.9214 -0.4202
 3394TIP3   OH231740   2.906   5.920   7.746  0.6190  0.5681  0.0845
 3394TIP3    H131741   2.908   5.973   7.666  2.1872 -1.1953 -1.1278
 3394TIP3    H231742   2.830   5.863   7.734  1.0138  0.1121 -0.3147
 3395TIP3   OH231743   6.845   2.405   6.974 -0.0833  0.7131  0.3502
 3395TIP3    H131744   6.905   2.366   6.910  1.4852  0.4529  1.9250
 3395TIP3    H231745   6.817   2.487   6.932 -0.7153 -0.3958 -1.5155
 3396TIP3   OH231746   1.493   6.493   2.292 -0.5299 -0.4531  0.2515
 3396TIP3    H131747   1.586   6.513   2.303 -0.2263 -1.7359  0.1836
 3396TIP3    H231748   1.476   6.424   2.355 -1.2707 -0.7101 -0.2222
 3397TIP3   OH231749   1.128   2.462   7.350 -0.2177  0.1375  0.3186
 3397TIP3    H131750   1.072   2.465   7.428  1.3855 -0.4546  1.5516
 3397TIP3    H231751   1.097   2.386   7.301  1.5842 -2.3796  2.7373
 3398TIP3   OH231752   4.939   1.496   0.183  0.2515  0.1404  0.2457
 3398TIP3    H131753   4.973   1.573   0.139  0.2059  1.1165  1.8281
 3398TIP3    H231754   4.846   1.493   0.158  0.4519  0.0638 -0.5199
 3399TIP3   OH231755   6.497   3.566   1.606  0.1401 -0.2162 -0.4760
 3399TIP3    H131756   6.407   3.540   1.625 -0.2069  0.0798 -1.6404
 3399TIP3    H231757   6.489   3.642   1.549  1.1390  0.6995  0.5580
 3400TIP3   OH231758   3.957   3.159   0.256 -0.2061 -0.1074 -0.4116
 3400TIP3    H131759   3.946   3.253   0.265  0.7824 -0.0447  0.1746
 3400TIP3    H231760   3.867   3.125   0.255 -0.6375  0.9620 -2.2480
 3401TIP3   OH231761   4.126   4.778   7.212  0.1309  0.2793 -0.2099
 3401TIP3    H131762   4.120   4.685   7.192  0.0671  0.4666 -1.1041
 3401TIP3    H231763   4.198   4.810   7.158  0.7115  0.5878  0.7312
 3402TIP3   OH231764   2.921   4.373   8.339 -0.5527  0.2379  0.2001
 3402TIP3    H131765   2.952   4.296   8.388 -0.0538  1.7389  2.3659
 3402TIP3    H231766   2.829   4.381   8.364 -1.1167 -0.6461 -1.4454
 3403TIP3   OH231767   6.346   3.982   7.849  0.5733 -0.1563  0.2703
 3403TIP3    H131768   6.337   4.014   7.760 -0.3071  0.6327  0.6324
 3403TIP3    H231769   6.397   4.050   7.894  1.2417 -0.6711  0.3198
 3404TIP3   OH231770   4.111   3.908   8.066 -0.6693  0.4066  0.1938
 3404TIP3    H131771   4.067   3.922   7.983 -3.1378  0.4185  1.4095
 3404TIP3    H231772   4.193   3.956   8.058 -1.0743  0.8321 -2.0285
 3405TIP3   OH231773   0.676   2.301   7.783  0.5467 -0.4556  0.4871
 3405TIP3    H131774   0.731   2.276   7.708  1.2938 -1.8471  1.4489
 3405TIP3    H231775   0.640   2.218   7.814 -2.9135  0.4584 -0.6425
 3406TIP3   OH231776   6.170   5.338   2.306  1.2222  0.0268  0.3797
 3406TIP3    H131777   6.167   5.421   2.355  0.7625  0.8377 -0.9762
 3406TIP3    H231778   6.264   5.321   2.296  1.3603  1.2884 -0.7648
 3407TIP3   OH231779   4.210   3.360   1.482  0.2149 -0.0008 -0.6143
 3407TIP3    H131780   4.136   3.352   1.422 -0.2881 -2.4143  0.1972
 3407TIP3    H231781   4.178   3.414   1.554 -0.6231 -0.6113 -0.5107
 3408TIP3   OH231782   5.436   3.911   8.621 -0.0152  0.5485  0.3389
 3408TIP3    H131783   5.407   3.932   8.532  0.4007  1.0575  0.3178
 3408TIP3    H231784   5.476   3.992   8.653 -1.0755  0.7007  1.3700
 3409TIP3   OH231785   4.733   3.277   8.169 -0.3034  0.0970  0.1635
 3409TIP3    H131786   4.785   3.357   8.171 -1.0935  0.6891 -1.3593
 3409TIP3    H231787   4.770   3.223   8.239  0.3017  1.7408  1.1775
 3410TIP3   OH231788   5.056   1.793   6.687 -0.0801 -0.2430  0.1198
 3410TIP3    H131789   5.003   1.840   6.623  0.2546 -1.0063 -0.7445
 3410TIP3    H231790   5.146   1.804   6.656  0.0531 -0.9446  0.2438
 3411TIP3   OH231791   0.070   3.334   7.294 -0.6481  0.2436  0.2079
 3411TIP3    H131792   0.133   3.273   7.331 -2.2230 -1.6039  0.0316
 3411TIP3    H231793   0.077   3.412   7.348  1.3895 -0.0740  0.4914
 3412TIP3   OH231794   3.725   0.842   8.634  0.5491 -0.0211  0.2704
 3412TIP3    H131795   3.727   0.773   8.701  2.3119 -1.5532 -1.2296
 3412TIP3    H231796   3.697   0.797   8.554 -0.7814  1.6071 -0.2305
 3413TIP3   OH231797   6.323   4.293   0.297  0.6874  0.5312 -1.3346
 3413TIP3    H131798   6.299   4.201   0.287  1.4543 -0.0869  1.4641
 3413TIP3    H231799   6.400   4.304   0.242  1.2108 -0.8322 -0.9232
 3414TIP3   OH231800   6.362   4.227   2.203 -0.1793  0.4681  0.9504
 3414TIP3    H131801   6.455   4.209   2.218  0.1010  0.0382 -0.9721
 3414TIP3    H231802   6.343   4.304   2.257  0.6793 -0.7455  3.1376
 3415TIP3   OH231803   1.214   6.268   6.475  0.1353  0.5009  0.0567
 3415TIP3    H131804   1.261   6.296   6.397  0.8830  0.2101  0.3910
 3415TIP3    H231805   1.131   6.234   6.443  0.7354 -0.2903 -0.6829
 3416TIP3   OH231806   2.787   4.061   6.547  0.2954 -0.0455  0.4224
 3416TIP3    H131807   2.879   4.035   6.552  0.8183  1.4962 -0.3523
 3416TIP3    H231808   2.787   4.136   6.487 -1.3490  0.5241  1.0756
 3417TIP3   OH231809   1.518   5.076   1.027 -0.0294  0.2615  0.1723
 3417TIP3    H131810   1.497   5.012   1.095  0.0058  0.8579  0.7526
 3417TIP3    H231811   1.575   5.029   0.966  0.9589  0.0679  1.2128
 3418TIP3   OH231812   6.627   5.397   7.416  0.5439 -0.5619  0.2544
 3418TIP3    H131813   6.677   5.325   7.455 -0.2170 -0.4793  1.4331
 3418TIP3    H231814   6.536   5.370   7.425  0.2338  0.6077  0.8758
 3419TIP3   OH231815   6.373   6.283   8.535 -0.1916  0.3163  0.4958
 3419TIP3    H131816   6.350   6.317   8.621  0.2945  1.5419  0.1543
 3419TIP3    H231817   6.326   6.339   8.473 -1.9754 -1.6266 -0.0421
 3420TIP3   OH231818   3.543   0.468   8.239  0.3653  0.0537  0.4445
 3420TIP3    H131819   3.528   0.408   8.166 -0.4793  2.2608 -1.2863
 3420TIP3    H231820   3.592   0.416   8.303 -0.6125 -2.5562 -0.7901
 3421TIP3   OH231821   6.494   0.176   1.959  0.3298  0.3057 -0.3182
 3421TIP3    H131822   6.515   0.262   1.996  0.9936  1.2011 -2.5502
 3421TIP3    H231823   6.530   0.113   2.021  0.1219  1.6310  1.2133
 3422TIP3   OH231824   2.383   2.047   8.686 -0.0334 -0.0367 -0.0203
 3422TIP3    H131825   2.453   2.100   8.723 -1.0418  0.0592  1.8914
 3422TIP3    H231826   2.409   1.957   8.706  0.6656 -0.1934 -1.4484
 3423TIP3   OH231827   5.069   4.744   0.217  0.0446  0.4583  0.4054
 3423TIP3    H131828   5.106   4.700   0.141 -2.7543 -2.3471  0.4817
 3423TIP3    H231829   5.102   4.695   0.292  0.4360  1.3479  0.8311
 3424TIP3   OH231830   4.739   5.182   0.972 -0.5514 -0.0805 -0.0503
 3424TIP3    H131831   4.651   5.212   0.950 -0.8869 -0.4830  0.7445
 3424TIP3    H231832   4.744   5.093   0.936  0.8279  1.1916 -3.4262
 3425TIP3   OH231833   3.322   1.742   7.265 -0.1588  0.0739  0.5357
 3425TIP3    H131834   3.378   1.783   7.200 -0.7291  0.2981  0.1781
 3425TIP3    H231835   3.247   1.801   7.273 -1.5731 -1.4335 -0.8608
 3426TIP3   OH231836   2.690   5.732   1.220 -0.1600 -0.4379 -0.4035
 3426TIP3    H131837   2.617   5.794   1.221  0.4490  0.2931  0.2254
 3426TIP3    H231838   2.673   5.674   1.294  1.3645  1.5314  1.5832
 3427TIP3   OH231839   0.307   1.230   0.370 -0.3794 -0.7776 -0.0998
 3427TIP3    H131840   0.292   1.307   0.425  1.4299 -0.2094 -0.3354
 3427TIP3    H231841   0.321   1.158   0.431 -0.0816 -0.5011  0.1599
 3428TIP3   OH231842   2.937   0.286   8.639  0.2184 -0.5234 -0.2581
 3428TIP3    H131843   2.845   0.271   8.617 -0.5946  1.4590  1.5025
 3428TIP3    H231844   2.957   0.371   8.600  0.8456 -0.2510  0.6414
 3429TIP3   OH231845   5.572   5.309   6.449  0.3039  0.1307  0.0361
 3429TIP3    H131846   5.512   5.341   6.516 -0.7067 -1.3153 -0.1395
 3429TIP3    H231847   5.632   5.250   6.496  0.8999  0.7057  0.0134
 3430TIP3   OH231848   0.877   6.687   0.786  0.9471 -0.3585  0.2572
 3430TIP3    H131849   0.961   6.641   0.791  0.7075 -0.8598 -0.1631
 3430TIP3    H231850   0.841   6.660   0.702  2.4689  3.5714 -1.9053
 3431TIP3   OH231851   3.972   2.483   0.869  0.1169  0.1731  0.6017
 3431TIP3    H131852   3.910   2.431   0.920 -0.1650  0.4804  0.5751
 3431TIP3    H231853   4.056   2.437   0.879 -0.2350 -0.5963  0.1270
 3432TIP3   OH231854   5.143   0.995   0.774  0.2692 -0.4752 -0.3586
 3432TIP3    H131855   5.088   1.045   0.834  0.1398 -1.7247  0.6025
 3432TIP3    H231856   5.203   1.060   0.737 -0.0989  0.4432  0.6069
 3433TIP3   OH231857   0.853   4.761   8.597  0.1933  0.1153  0.3024
 3433TIP3    H131858   0.787   4.740   8.532 -0.1826  2.0338  0.0033
 3433TIP3    H231859   0.919   4.811   8.549  0.6166  0.3357  1.0988
 3434TIP3   OH231860   5.226   6.120   8.221 -0.4531  0.4769 -0.1723
 3434TIP3    H131861   5.313   6.117   8.262 -0.7745  1.9215  0.6810
 3434TIP3    H231862   5.169   6.157   8.288 -2.0811 -1.7910 -0.1924
 3435TIP3   OH231863   0.025   5.748   6.470 -0.6717 -0.2186  0.7611
 3435TIP3    H131864   0.042   5.658   6.496 -0.6883  0.0618  1.7614
 3435TIP3    H231865   0.102   5.773   6.418  0.7443  0.1032  2.8639
 3436TIP3   OH231866   3.934   5.324   0.496 -0.6699  0.2319  0.2020
 3436TIP3    H131867   4.009   5.275   0.460 -1.5643 -2.0028  1.2230
 3436TIP3    H231868   3.895   5.366   0.419  0.6692  0.0985 -0.5898
 3437TIP3   OH231869   5.423   5.538   0.035 -0.7041 -0.3737 -0.3677
 3437TIP3    H131870   5.417   5.457  -0.015  1.5371 -0.6141 -0.3439
 3437TIP3    H231871   5.344   5.539   0.089 -0.7843 -2.5483 -0.3529
 3438TIP3   OH231872   4.780   3.639   8.430  0.0230  0.1324 -0.0018
 3438TIP3    H131873   4.708   3.674   8.378  1.0738  1.4818 -0.6180
 3438TIP3    H231874   4.815   3.568   8.376  0.3008  0.6860 -0.5630
 3439TIP3   OH231875   4.134   1.632   0.196  0.4221 -0.1059 -1.0834
 3439TIP3    H131876   4.060   1.599   0.247 -0.2486  1.5650 -0.9222
 3439TIP3    H231877   4.209   1.624   0.255  0.0119 -0.0165 -0.5422
 3440TIP3   OH231878   6.217   2.709   1.882 -0.0229  0.0364 -0.0849
 3440TIP3    H131879   6.190   2.791   1.924  0.4073 -0.3868  1.0474
 3440TIP3    H231880   6.311   2.704   1.898 -0.2287 -1.2246  0.8459
 3441TIP3   OH231881   2.105   1.341   1.077 -0.1486 -0.1597  0.4809
 3441TIP3    H131882   2.038   1.326   1.145 -1.3008  0.9863 -0.3379
 3441TIP3    H231883   2.128   1.434   1.087 -1.0668  0.3109 -1.2730
 3442TIP3   OH231884   5.264   6.830   8.656  0.1290  0.4180 -0.2327
 3442TIP3    H131885   5.291   6.785   8.576  1.4786 -1.6010  1.2317
 3442TIP3    H231886   5.340   6.884   8.679  0.5961 -0.6154  0.7327
 3443TIP3   OH231887   0.441   2.195   8.045 -0.2533 -0.0610 -0.0134
 3443TIP3    H131888   0.510   2.130   8.052 -1.1932 -1.0153  0.6933
 3443TIP3    H231889   0.476   2.272   8.091  0.3511 -0.5149  0.3053
 3444TIP3   OH231890   6.281   5.863   8.168 -0.1439 -0.2704 -0.7896
 3444TIP3    H131891   6.370   5.891   8.189 -1.0902  1.3662  1.5432
 3444TIP3    H231892   6.236   5.944   8.142 -1.9486 -0.1385  2.2108
 3445TIP3   OH231893   4.346   6.498   1.394  0.5660 -0.0510 -0.6458
 3445TIP3    H131894   4.421   6.478   1.450 -0.8140 -1.9057  0.6568
 3445TIP3    H231895   4.381   6.558   1.328  2.9579 -0.1235  0.4515
 3446TIP3   OH231896   2.982   3.490   8.266  0.3563 -0.4852 -0.0827
 3446TIP3    H131897   2.956   3.398   8.265  1.2503 -0.7431 -0.0364
 3446TIP3    H231898   3.053   3.495   8.330 -0.7870  0.5526  1.1703
 3447TIP3   OH231899   2.302   3.515   7.075 -0.1786  0.0970 -0.2041
 3447TIP3    H131900   2.329   3.607   7.075 -1.1340  0.4031 -1.5743
 3447TIP3    H231901   2.380   3.468   7.046  0.0999  0.5588 -0.2233
 3448TIP3   OH231902   1.927   6.483   0.580 -0.6980  0.4646 -0.4359
 3448TIP3    H131903   2.017   6.493   0.548 -0.2885 -0.7337  0.2873
 3448TIP3    H231904   1.877   6.454   0.504 -0.3741  0.6511 -0.7213
 3449TIP3   OH231905   0.282   0.289   2.066  0.7172  0.2935 -0.4743
 3449TIP3    H131906   0.283   0.303   2.160  0.8392 -0.5445 -0.3419
 3449TIP3    H231907   0.189   0.291   2.042  0.6485 -0.0583 -0.2426
 3450TIP3   OH231908   4.161   0.067   0.782 -0.0537  0.3436  0.1249
 3450TIP3    H131909   4.244   0.038   0.743  0.3070  2.1318 -0.5006
 3450TIP3    H231910   4.173   0.160   0.796 -0.8089  0.0827  3.0124
 3451TIP3   OH231911   4.970   1.594   0.686 -0.6529 -0.6157 -0.4262
 3451TIP3    H131912   4.984   1.614   0.593 -1.3849 -0.1002 -0.4303
 3451TIP3    H231913   4.953   1.500   0.688 -0.9476 -0.5749 -0.8541
 3452TIP3   OH231914   1.929   3.245   1.346 -0.0494  0.2390  0.7318
 3452TIP3    H131915   1.897   3.220   1.260 -0.0599 -1.6447  1.2461
 3452TIP3    H231916   2.024   3.236   1.340 -0.0164  0.5234  0.8011
 3453TIP3   OH231917   1.164   0.528   6.997  0.1760 -0.3307 -0.4667
 3453TIP3    H131918   1.204   0.587   7.061 -1.2483  0.2403 -0.0458
 3453TIP3    H231919   1.165   0.578   6.916 -0.3486 -0.0154 -0.2833
 3454TIP3   OH231920   0.528   1.178   0.625  0.3748 -0.3361  0.3964
 3454TIP3    H131921   0.488   1.175   0.712 -0.1762 -0.2435  0.1498
 3454TIP3    H231922   0.466   1.132   0.569  0.1140  0.7029 -0.1894
 3455TIP3   OH231923   1.924   2.381   1.753 -0.2069 -0.0597 -0.0213
 3455TIP3    H131924   1.945   2.466   1.714 -0.3926  0.4002  0.8724
 3455TIP3    H231925   1.970   2.317   1.697  1.0815  0.7163  0.1239
 3456TIP3   OH231926   1.298   3.088   7.919  0.7650 -0.2267 -0.3878
 3456TIP3    H131927   1.366   3.027   7.889  0.1673 -0.4592 -1.3322
 3456TIP3    H231928   1.281   3.143   7.843  1.6655  1.5055  0.6180
 3457TIP3   OH231929   5.479   1.065   7.166 -0.2169  0.0126 -0.1599
 3457TIP3    H131930   5.521   1.041   7.248  0.2537  0.5120 -0.2528
 3457TIP3    H231931   5.550   1.096   7.110 -0.3823 -1.2023 -1.0992
 3458TIP3   OH231932   4.830   1.687   0.424  0.3474 -0.9584  0.0421
 3458TIP3    H131933   4.805   1.761   0.369 -1.4168  0.3528  2.4297
 3458TIP3    H231934   4.749   1.639   0.439  0.7927 -1.3497  1.3659
 3459TIP3   OH231935   5.931   3.222   1.596  0.0842  0.0716 -0.0241
 3459TIP3    H131936   5.923   3.216   1.501 -0.3062 -2.1123  0.0909
 3459TIP3    H231937   5.957   3.134   1.623  0.3646  0.7009  1.8886
 3460TIP3   OH231938   4.117   2.315   6.671 -0.1982  0.1759  0.3417
 3460TIP3    H131939   4.195   2.261   6.653  0.4739  0.6703  1.6249
 3460TIP3    H231940   4.119   2.384   6.605  0.2581 -0.0176  0.1495
 3461TIP3   OH231941   4.472   1.496   8.378  0.7946  0.1759 -0.4785
 3461TIP3    H131942   4.437   1.584   8.388 -1.3658 -0.7361  0.7953
 3461TIP3    H231943   4.548   1.494   8.437 -0.0472  0.7828  0.6812
 3462TIP3   OH231944   5.272   1.898   1.082 -0.5048 -0.1619 -0.1446
 3462TIP3    H131945   5.303   1.979   1.122 -0.9332  0.6598 -1.3997
 3462TIP3    H231946   5.184   1.920   1.050 -0.0172 -0.6125 -1.9110
 3463TIP3   OH231947   4.131   3.687   0.729 -0.1330 -0.1890 -0.3102
 3463TIP3    H131948   4.070   3.656   0.795 -1.7941 -1.6069 -2.3502
 3463TIP3    H231949   4.115   3.781   0.722  0.0086 -0.0383  1.1632
 3464TIP3   OH231950   0.212   4.197   7.997 -0.5091  0.2955  0.6312
 3464TIP3    H131951   0.287   4.210   8.055  1.4432 -0.6356 -1.5384
 3464TIP3    H231952   0.184   4.285   7.973  1.9981  0.7425 -0.9952
 3465TIP3   OH231953   2.571   1.341   8.636  0.1892 -0.5917 -0.4998
 3465TIP3    H131954   2.620   1.381   8.563  0.6219 -1.0006 -0.4400
 3465TIP3    H231955   2.561   1.250   8.610  2.6193 -1.4098  1.0641
 3466TIP3   OH231956   2.939   1.861   1.088 -0.5473  0.2057 -0.5841
 3466TIP3    H131957   2.921   1.954   1.102  0.1487  0.0112  2.3477
 3466TIP3    H231958   2.983   1.833   1.168  2.2407 -1.9506 -2.6646
 3467TIP3   OH231959   5.308   6.698   0.468  0.3260 -0.0193  0.4490
 3467TIP3    H131960   5.331   6.709   0.376 -2.2690  0.3850 -0.2289
 3467TIP3    H231961   5.222   6.657   0.467 -0.7226  1.8451  2.6058
 3468TIP3   OH231962   5.274   0.380   1.100 -0.4746  0.5509 -0.1198
 3468TIP3    H131963   5.309   0.363   1.013 -1.2273 -1.5371 -0.0675
 3468TIP3    H231964   5.250   0.473   1.099 -1.9843  0.2159 -2.6862
 3469TIP3   OH231965   1.368   0.877   2.611 -0.7954 -0.1953 -0.0068
 3469TIP3    H131966   1.338   0.811   2.548 -1.0460 -0.0718 -0.0165
 3469TIP3    H231967   1.441   0.920   2.568 -1.5712  0.5509 -0.6218
 3470TIP3   OH231968   4.947   6.325   0.130 -0.0829  0.5047  0.3802
 3470TIP3    H131969   4.900   6.398   0.169  0.4905  1.4420 -0.6293
 3470TIP3    H231970   4.912   6.318   0.041  3.0299  2.6767 -1.2252
 3471TIP3   OH231971   4.620   4.899   0.914 -0.1756 -0.0541 -0.0816
 3471TIP3    H131972   4.599   4.898   1.007  1.2458 -0.6132  0.2580
 3471TIP3    H231973   4.593   4.812   0.883 -1.3615  0.3970 -0.3940
 3472TIP3   OH231974   0.570   6.089   0.096  0.2481  0.1369  0.2407
 3472TIP3    H131975   0.541   6.006   0.059  0.4223 -0.4245  1.3060
 3472TIP3    H231976   0.666   6.086   0.089  0.2190  0.5803 -0.3907
 3473TIP3   OH231977   4.593   3.943   6.693 -0.3802 -0.4637 -0.1120
 3473TIP3    H131978   4.580   4.036   6.676 -0.8825 -0.1115  2.0479
 3473TIP3    H231979   4.687   3.934   6.708 -0.3028 -0.3624 -0.5165
 3474TIP3   OH231980   1.273   1.256   7.365  0.2289 -0.8036  0.8090
 3474TIP3    H131981   1.321   1.338   7.376 -1.6761  0.5627 -0.4866
 3474TIP3    H231982   1.280   1.212   7.450  1.5545  0.5425  1.4262
 3475TIP3   OH231983   4.755   5.033   1.596  0.1926 -0.3703  0.0713
 3475TIP3    H131984   4.837   5.034   1.547 -0.1261  2.0853 -0.5485
 3475TIP3    H231985   4.763   5.103   1.660 -1.4384 -0.0007 -0.0695
 3476TIP3   OH231986   4.193   0.947   6.337 -0.3014 -0.0893  0.4162
 3476TIP3    H131987   4.098   0.957   6.343 -0.3652 -0.8134  0.7440
 3476TIP3    H231988   4.228   1.019   6.388 -0.6136  1.4996 -1.4950
 3477TIP3   OH231989   3.822   2.592   0.647  0.3848  0.1879 -0.5421
 3477TIP3    H131990   3.846   2.561   0.734 -2.3859 -0.2563  0.1504
 3477TIP3    H231991   3.838   2.518   0.589  0.2493 -0.2294 -0.0485
 3478TIP3   OH231992   1.384   1.572   0.957 -0.1882 -0.3637 -0.2122
 3478TIP3    H131993   1.321   1.565   0.885 -0.9292  1.2237  0.2408
 3478TIP3    H231994   1.329   1.577   1.036  0.5228  0.4883  0.2376
 3479TIP3   OH231995   6.508   4.100   8.612 -0.0501 -0.0136 -0.5578
 3479TIP3    H131996   6.528   4.042   8.686 -0.3815 -0.2967 -0.6840
 3479TIP3    H231997   6.582   4.089   8.552  0.6512  0.8715  0.1082
 3480TIP3   OH231998   0.120   2.206   0.650  0.3848  0.0501 -0.0516
 3480TIP3    H131999   0.129   2.112   0.641 -1.5949 -0.1152 -0.7572
 3480TIP3    H232000   0.117   2.221   0.745 -1.2231 -0.8390  0.0626
 3481TIP3   OH232001   6.008   3.080   6.680  0.0967  0.3612  0.1116
 3481TIP3    H132002   5.972   2.992   6.694 -0.4837  0.4752 -0.6632
 3481TIP3    H232003   6.062   3.072   6.601 -1.6794  1.1807 -1.2503
 3482TIP3   OH232004   2.576   3.551   7.575 -0.4332 -0.4884  0.6706
 3482TIP3    H132005   2.599   3.548   7.483  0.0017 -0.4622  0.7776
 3482TIP3    H232006   2.494   3.600   7.578 -0.3563 -0.3385  0.3205
 3483TIP3   OH232007   6.149   2.581   1.018  0.4364 -0.0558 -0.6799
 3483TIP3    H132008   6.185   2.626   0.941 -1.1432  1.7054 -0.4633
 3483TIP3    H232009   6.065   2.546   0.988  0.1626 -0.0128  0.0258
 3484TIP3   OH232010   6.253   4.235   8.326  0.0713 -0.1909 -0.0927
 3484TIP3    H132011   6.184   4.184   8.282 -0.9318  0.3265  0.8484
 3484TIP3    H232012   6.236   4.223   8.419  0.9234  0.4068  0.1497
 3485TIP3   OH232013   2.347   4.700   0.345  0.0557 -0.1087  0.2894
 3485TIP3    H132014   2.416   4.765   0.337 -0.2578  0.9570  4.0984
 3485TIP3    H232015   2.281   4.726   0.280  0.9251  2.0301  0.1914
 3486TIP3   OH232016   0.014   3.224   1.487 -0.8969  0.1151 -0.2949
 3486TIP3    H132017  -0.053   3.159   1.510 -0.7336 -0.3667 -1.1360
 3486TIP3    H232018  -0.024   3.308   1.514 -0.0824 -0.4790  3.1294
 3487TIP3   OH232019   3.615   6.008   7.228 -0.3889  0.3504 -0.3553
 3487TIP3    H132020   3.532   6.025   7.272 -1.4169 -0.7153 -1.7650
 3487TIP3    H232021   3.640   5.921   7.257 -0.5274  0.0808 -1.0118
 3488TIP3   OH232022   3.277   0.976   1.044  0.3401  0.0647  0.3424
 3488TIP3    H132023   3.237   0.904   0.995  0.3997  0.7688 -0.7646
 3488TIP3    H232024   3.205   1.011   1.097  0.0776 -0.2065  0.1699
 3489TIP3   OH232025   6.236   4.201   1.938 -0.5175  0.3090 -0.1074
 3489TIP3    H132026   6.297   4.230   2.006 -1.5730  1.0969  0.5356
 3489TIP3    H232027   6.277   4.123   1.901  0.3065  0.1303  1.1124
 3490TIP3   OH232028   0.459   6.832   0.441 -0.3289 -0.3456  0.1911
 3490TIP3    H132029   0.540   6.806   0.485 -0.1632 -1.4574 -0.7073
 3490TIP3    H232030   0.415   6.890   0.502  0.4402 -0.9201  1.3211
 3491TIP3   OH232031   4.096   6.745   1.338  0.2301 -0.5387 -0.0617
 3491TIP3    H132032   4.070   6.653   1.344  1.4625 -0.8394  0.9803
 3491TIP3    H232033   4.102   6.762   1.244 -2.8170 -0.6604 -0.4024
 3492TIP3   OH232034   2.261   2.939   2.106  0.5485 -0.1482  0.1063
 3492TIP3    H132035   2.199   2.996   2.152  0.0782  0.0421 -0.7598
 3492TIP3    H232036   2.257   2.856   2.155 -1.7625 -0.7551 -0.9809
 3493TIP3   OH232037   2.979   2.032   8.515  0.1820 -0.3602  0.2052
 3493TIP3    H132038   2.980   2.018   8.609 -0.3114  1.1314  0.4631
 3493TIP3    H232039   2.889   2.060   8.495  0.7082  1.0297 -0.3976
 3494TIP3   OH232040   4.528   0.909   0.837  0.1024 -0.0992 -0.4090
 3494TIP3    H132041   4.547   0.819   0.864 -0.1887  0.1083  0.5222
 3494TIP3    H232042   4.588   0.925   0.764  0.9121 -0.6925  0.1023
 3495TIP3   OH232043   3.257   5.774   1.066 -0.0201 -0.2070  0.1809
 3495TIP3    H132044   3.240   5.820   0.984 -0.3145 -1.1915 -0.3323
 3495TIP3    H232045   3.329   5.822   1.106  1.6852 -0.9888 -1.7322
 3496TIP3   OH232046   0.258   5.149   8.252 -0.3552  0.0022 -0.2750
 3496TIP3    H132047   0.294   5.166   8.340  1.5035 -0.4163 -0.9034
 3496TIP3    H232048   0.231   5.058   8.254  0.9279 -0.4017 -0.5065
 3497TIP3   OH232049   1.709   6.125   7.633  0.1216  0.6108  0.1371
 3497TIP3    H132050   1.710   6.034   7.602  0.9833  0.8139 -0.4714
 3497TIP3    H232051   1.622   6.136   7.672  0.6107 -0.9717  1.7821
 3498TIP3   OH232052   5.504   6.115   6.417 -0.1458 -0.2669 -0.1528
 3498TIP3    H132053   5.451   6.147   6.344  2.3686  1.1589 -1.5021
 3498TIP3    H232054   5.538   6.194   6.459  2.6930 -1.0086 -0.7971
 3499TIP3   OH232055   5.981   2.988   2.507 -0.1063 -0.8388 -0.3500
 3499TIP3    H132056   5.908   3.033   2.549  0.9456  0.8221 -0.1732
 3499TIP3    H232057   6.018   2.933   2.576 -0.0316 -0.1860  0.1452
 3500TIP3   OH232058   0.461   2.836   1.298 -0.5218 -0.9051 -0.1078
 3500TIP3    H132059   0.500   2.917   1.263 -1.9670 -0.3092 -0.3971
 3500TIP3    H232060   0.392   2.815   1.236  0.0229 -2.5528 -0.1874
 3501TIP3   OH232061   1.777   0.314   8.509 -0.0100  0.2404  0.6249
 3501TIP3    H132062   1.841   0.372   8.468 -0.9859 -0.0818 -1.5235
 3501TIP3    H232063   1.805   0.226   8.484 -1.0045  0.0740 -0.0029
 3502TIP3   OH232064   1.099   2.830   7.911  0.5506 -0.2388  0.6989
 3502TIP3    H132065   1.149   2.908   7.887 -1.0020  1.2029  1.8434
 3502TIP3    H232066   1.141   2.798   7.991  0.8756 -0.2637  0.5179
 3503TIP3   OH232067   3.317   1.196   1.332  0.5471 -0.8305  0.1120
 3503TIP3    H132068   3.281   1.232   1.251  1.7999  1.3535  0.4629
 3503TIP3    H232069   3.261   1.121   1.352 -1.0165 -0.2035 -1.6760
 3504TIP3   OH232070   5.402   5.068   1.003 -0.1160 -0.1393 -0.1485
 3504TIP3    H132071   5.353   4.985   0.995  0.1929 -0.3248 -0.1329
 3504TIP3    H232072   5.474   5.047   1.063 -0.2272  0.2325  0.1195
 3505TIP3   OH232073   0.487   0.854   6.710  0.0689 -0.1286 -0.2350
 3505TIP3    H132074   0.527   0.794   6.648 -1.3707 -1.0338 -0.3291
 3505TIP3    H232075   0.426   0.906   6.658  1.3899  1.5678 -0.1829
 3506TIP3   OH232076   1.326   1.598   2.310 -0.8284  0.1104 -0.7451
 3506TIP3    H132077   1.283   1.592   2.225 -0.6862  0.1187 -0.8189
 3506TIP3    H232078   1.376   1.516   2.318 -1.3019 -0.1529 -0.4129
 3507TIP3   OH232079   0.944   6.492   7.921 -0.1918 -0.2207  0.0318
 3507TIP3    H132080   1.024   6.492   7.869  0.3186 -0.5830  0.8033
 3507TIP3    H232081   0.882   6.542   7.868  0.1415 -1.0179 -1.1726
 3508TIP3   OH232082   4.125   2.668   6.137 -0.2601 -0.3220  0.2634
 3508TIP3    H132083   4.217   2.692   6.146 -0.2858  0.4646 -1.2859
 3508TIP3    H232084   4.127   2.578   6.105 -0.0676 -0.6358  1.1279
 3509TIP3   OH232085   6.768   3.638   7.936 -0.3823 -0.4094  0.0364
 3509TIP3    H132086   6.831   3.710   7.924 -0.3046 -0.5521 -0.4057
 3509TIP3    H232087   6.760   3.598   7.850 -0.0127 -1.2800  0.3881
 3510TIP3   OH232088   4.714   2.220   1.743  0.1385 -0.4489 -0.2190
 3510TIP3    H132089   4.671   2.136   1.728 -0.9666 -0.2440  1.5357
 3510TIP3    H232090   4.653   2.285   1.706 -0.7043 -0.2220  1.4746
 3511TIP3   OH232091   2.078   5.631   0.665  0.3822 -0.0874 -0.3623
 3511TIP3    H132092   2.012   5.622   0.596  0.3865  0.5627 -0.4532
 3511TIP3    H232093   2.095   5.725   0.670  1.5648 -0.2778 -0.5835
 3512TIP3   OH232094   5.329   0.843   7.090 -0.2673 -0.8802  0.4693
 3512TIP3    H132095   5.392   0.909   7.122  0.9316 -2.1472  0.8227
 3512TIP3    H232096   5.280   0.817   7.168 -1.2125  0.0429  0.2092
 3513TIP3   OH232097   2.928   4.849   0.119  0.0477 -0.6461 -0.3856
 3513TIP3    H132098   2.856   4.832   0.058 -1.1928  1.1556  0.4997
 3513TIP3    H232099   2.898   4.812   0.203  1.4407 -2.4800 -0.6244
 3514TIP3   OH232100   0.973   6.010   1.805  0.1056  0.4464 -0.3261
 3514TIP3    H132101   0.889   5.983   1.842 -0.7904 -1.1398 -3.2549
 3514TIP3    H232102   0.953   6.088   1.754  0.6380  0.6948 -0.1617
 3515TIP3   OH232103   3.475   2.595   0.583  0.3879 -0.4367  0.5960
 3515TIP3    H132104   3.531   2.554   0.518  1.5880  1.0241  0.6699
 3515TIP3    H232105   3.389   2.600   0.541  1.6228  2.6143 -1.9312
 3516TIP3   OH232106   2.424   4.376   0.855  0.0874  0.4128 -1.0548
 3516TIP3    H132107   2.516   4.364   0.834  0.3635  1.7837 -0.7719
 3516TIP3    H232108   2.419   4.363   0.950  0.4461  2.5014 -0.6947
 3517TIP3   OH232109   2.020   1.125   0.379  0.3376 -0.1687  0.5005
 3517TIP3    H132110   1.980   1.083   0.455  0.8937  1.3749  1.7128
 3517TIP3    H232111   1.972   1.091   0.304 -1.4311 -0.4008  1.6891
 3518TIP3   OH232112   6.442   1.981   8.532  0.3934  0.0785  1.0041
 3518TIP3    H132113   6.379   1.924   8.488  0.3860  0.6770  0.2247
 3518TIP3    H232114   6.437   1.955   8.624 -1.2807  0.3921  1.0204
 3519TIP3   OH232115   2.539   4.995   1.816  0.2704 -0.5587  0.2250
 3519TIP3    H132116   2.445   5.008   1.807 -0.1552  0.9344  4.5242
 3519TIP3    H232117   2.578   5.064   1.762 -1.2377  0.8103  0.8051
 3520TIP3   OH232118   5.535   5.026   7.267  0.1087 -0.2449 -0.0082
 3520TIP3    H132119   5.614   4.971   7.266  2.4931  2.9042 -1.6340
 3520TIP3    H232120   5.539   5.073   7.350 -0.3432 -0.3722  0.0911
 3521TIP3   OH232121   3.807   5.550   7.950 -0.0344 -0.2895  0.0520
 3521TIP3    H132122   3.808   5.455   7.935 -1.0350 -0.6080  1.7305
 3521TIP3    H232123   3.734   5.582   7.898 -0.3054 -0.5901  0.2467
 3522TIP3   OH232124   6.806   2.375   0.269  0.3843  1.0326  0.3838
 3522TIP3    H132125   6.865   2.446   0.244  1.3888  0.3989  0.8724
 3522TIP3    H232126   6.816   2.368   0.364 -0.2057  0.6730  0.4243
 3523TIP3   OH232127   0.071   4.046   7.801 -0.2202 -0.8844  0.1799
 3523TIP3    H132128  -0.014   4.015   7.832 -0.3997  1.3922  2.3037
 3523TIP3    H232129   0.099   4.109   7.868  1.3910  1.2696 -2.3437
 3524TIP3   OH232130   5.964   0.537   0.682 -0.0277  0.1155 -0.0696
 3524TIP3    H132131   5.895   0.471   0.689 -0.0078 -0.0299 -1.0937
 3524TIP3    H232132   5.962   0.583   0.766  0.0514 -1.2686  0.7212
 3525TIP3   OH232133   3.688   2.825   7.440  0.3159  0.1366  0.2228
 3525TIP3    H132134   3.772   2.802   7.477  0.6900  1.3243  0.1453
 3525TIP3    H232135   3.636   2.744   7.445  0.1521  0.3103  3.7478
 3526TIP3   OH232136   6.512   3.787   0.045  0.2012  0.2188  0.6461
 3526TIP3    H132137   6.418   3.800   0.037  0.5612  2.2393 -1.3178
 3526TIP3    H232138   6.540   3.756  -0.041  1.5874  2.0755  0.3421
 3527TIP3   OH232139   5.569   0.766   8.451  0.5708  0.6318  0.1194
 3527TIP3    H132140   5.655   0.796   8.422  0.9630 -0.5081  0.0522
 3527TIP3    H232141   5.509   0.796   8.383  1.2128 -0.3674 -0.9181
 3528TIP3   OH232142   4.408   0.940   1.105 -0.3731  0.5745  0.3472
 3528TIP3    H132143   4.365   0.856   1.093  1.5376 -0.4361  0.2398
 3528TIP3    H232144   4.467   0.949   1.030 -1.3735  2.5877 -0.2767
 3529TIP3   OH232145   4.314   2.382   6.345  0.2979  0.0980  0.0005
 3529TIP3    H132146   4.390   2.376   6.404  0.4222 -2.7662 -0.3001
 3529TIP3    H232147   4.352   2.370   6.258 -0.2609  0.9091 -0.3553
 3530TIP3   OH232148   4.149   3.467   0.454 -0.1788  0.2645  0.2812
 3530TIP3    H132149   4.081   3.451   0.388 -0.1453  1.6338 -0.1224
 3530TIP3    H232150   4.115   3.539   0.507  1.6909  2.2717 -1.0894
 3531TIP3   OH232151   3.214   6.520   8.445  0.4173  0.2025 -0.0933
 3531TIP3    H132152   3.303   6.535   8.477  0.5678 -1.3587  0.2814
 3531TIP3    H232153   3.184   6.607   8.418  2.5518  0.5748 -1.5470
 3532TIP3   OH232154   1.826   0.736   1.872 -0.1016 -0.5074 -0.6180
 3532TIP3    H132155   1.755   0.770   1.926  0.5300  0.0924 -0.1626
 3532TIP3    H232156   1.824   0.790   1.793  0.3285 -0.0095 -0.2838
 3533TIP3   OH232157   6.650   2.392   6.729  0.2523  1.0011 -0.2548
 3533TIP3    H132158   6.622   2.478   6.698  0.0400  1.7061  1.7074
 3533TIP3    H232159   6.741   2.405   6.757  0.0189  0.7672  0.6434
 3534TIP3   OH232160   6.361   1.917   0.092  0.0301 -0.7072  0.4004
 3534TIP3    H132161   6.417   1.852   0.134 -0.3996 -0.2983  1.6804
 3534TIP3    H232162   6.377   1.997   0.142  0.6664  0.2329 -1.2403
 3535TIP3   OH232163   3.234   0.894   8.351  0.4666 -0.3847  0.1361
 3535TIP3    H132164   3.218   0.968   8.292  0.4732  0.0328  0.6486
 3535TIP3    H232165   3.302   0.926   8.411  0.0777 -0.6132  0.7059
 3536TIP3   OH232166   2.513   3.498   0.880 -0.0877 -0.1982  0.5622
 3536TIP3    H132167   2.497   3.409   0.912  0.7137 -1.3128 -1.9232
 3536TIP3    H232168   2.445   3.513   0.815  1.6331 -0.2941 -1.3502
 3537TIP3   OH232169   6.610   2.568   7.348  0.0095 -0.0420  0.2301
 3537TIP3    H132170   6.583   2.512   7.421  0.7588  0.1176  0.6358
 3537TIP3    H232171   6.706   2.570   7.353  0.0131  0.8947 -0.0749
 3538TIP3   OH232172   2.763   0.485   0.908  0.4612 -0.2826 -0.2397
 3538TIP3    H132173   2.833   0.543   0.879  1.2886 -0.8207  0.6072
 3538TIP3    H232174   2.714   0.537   0.972  1.6425 -0.7041  1.0701
 3539TIP3   OH232175   1.385   4.312   0.693 -0.2777  0.4521  0.0962
 3539TIP3    H132176   1.433   4.342   0.770 -0.9382 -1.0975  1.1476
 3539TIP3    H232177   1.293   4.313   0.720 -0.4366 -1.1196 -0.2783
 3540TIP3   OH232178   2.812   5.300   7.667  0.3746  0.5022 -0.1527
 3540TIP3    H132179   2.844   5.233   7.606 -0.2424  0.5253 -0.5154
 3540TIP3    H232180   2.784   5.251   7.744 -2.3628  0.0169 -1.3400
 3541TIP3   OH232181   1.228   0.316   0.339 -0.0444 -0.2580 -0.0213
 3541TIP3    H132182   1.160   0.372   0.301  1.1628  1.9592  0.8884
 3541TIP3    H232183   1.298   0.315   0.274  0.7754  1.0410  0.8004
 3542TIP3   OH232184   6.841   5.793   1.397  0.6488  0.5724 -0.2939
 3542TIP3    H132185   6.793   5.731   1.341 -0.7159  0.4172  0.9874
 3542TIP3    H232186   6.930   5.758   1.401  0.2995 -0.4237 -0.8778
 3543TIP3   OH232187   1.300   3.104   0.297  0.1341  0.5463 -0.2599
 3543TIP3    H132188   1.215   3.121   0.256  0.4933 -1.2857 -1.8921
 3543TIP3    H232189   1.360   3.163   0.252  0.3042 -0.5849 -1.5723
 3544TIP3   OH232190   4.458   1.190   1.498  0.3450  0.2939 -0.1765
 3544TIP3    H132191   4.367   1.159   1.497  0.6758 -0.7482  0.2006
 3544TIP3    H232192   4.486   1.183   1.407  0.8378 -1.9386  0.0936
 3545TIP3   OH232193   2.143   1.580   7.129  0.3824  0.8943  0.1969
 3545TIP3    H132194   2.224   1.556   7.084 -0.5660 -0.8364 -0.6940
 3545TIP3    H232195   2.078   1.518   7.096 -0.4406 -0.3825  3.8385
 3546TIP3   OH232196   6.619   0.020   8.325  0.0393  0.3833  0.4316
 3546TIP3    H132197   6.623   0.100   8.273 -1.0513 -1.2612 -2.4155
 3546TIP3    H232198   6.541  -0.025   8.293  2.1907 -3.2083 -0.2957
 3547TIP3   OH232199   1.126   2.383   1.838  0.1324  0.2540 -0.3013
 3547TIP3    H132200   1.165   2.471   1.834 -0.0503  0.7067  3.5854
 3547TIP3    H232201   1.032   2.399   1.826  0.3014  0.2321 -1.8194
 3548TIP3   OH232202   5.129   5.771   1.420  0.5755  0.3305 -0.6384
 3548TIP3    H132203   5.057   5.829   1.443  0.7903  0.5778 -0.5794
 3548TIP3    H232204   5.110   5.743   1.331  1.7229  2.4583 -1.6284
 3549TIP3   OH232205   5.705   5.866   8.664  0.1157 -0.2886 -0.6680
 3549TIP3    H132206   5.727   5.835   8.751 -0.3146  1.2508  0.0134
 3549TIP3    H232207   5.784   5.911   8.633  0.3083 -0.9294 -1.1364
 3550TIP3   OH232208   5.624   2.584   8.688 -0.1215 -0.6962 -0.1122
 3550TIP3    H132209   5.556   2.633   8.734  0.5604  2.7411 -2.4192
 3550TIP3    H232210   5.705   2.605   8.735 -0.0231 -0.9459 -0.1681
 3551TIP3   OH232211   0.286   4.556   0.037 -0.1975 -0.2626 -0.4024
 3551TIP3    H132212   0.217   4.589  -0.020  2.4169  1.6155 -2.8125
 3551TIP3    H232213   0.303   4.467   0.006  0.2768  0.2705 -1.7762
 3552TIP3   OH232214   4.529   0.058   1.455  0.5048 -0.3453  0.7231
 3552TIP3    H132215   4.491  -0.014   1.505 -1.2828 -0.6730 -0.9822
 3552TIP3    H232216   4.455   0.096   1.407  1.9316  0.5643 -0.8950
 3553TIP3   OH232217   6.278   2.908   8.104  0.2305  0.5832  0.2931
 3553TIP3    H132218   6.286   2.922   8.010  0.9262 -1.5917 -0.0408
 3553TIP3    H232219   6.289   2.813   8.114  0.4566  0.8142  2.6026
 3554TIP3   OH232220   1.410   6.562   6.935  0.2765 -0.1607 -0.2692
 3554TIP3    H132221   1.360   6.626   6.884  1.1223 -0.1295 -1.0750
 3554TIP3    H232222   1.448   6.613   7.006 -0.9534 -0.2144  0.4618
 3555TIP3   OH232223   3.784   3.535   2.491  0.0228  0.0117 -0.6261
 3555TIP3    H132224   3.819   3.535   2.580  0.6005 -0.1012 -0.8507
 3555TIP3    H232225   3.714   3.600   2.493 -0.3790 -0.4292  0.0691
 3556TIP3   OH232226   5.328   2.826   8.607 -0.1868 -0.2188 -0.2500
 3556TIP3    H132227   5.251   2.797   8.557 -0.5599  0.0673  0.1465
 3556TIP3    H232228   5.333   2.920   8.589  0.5705 -0.3856 -0.9364
 3557TIP3   OH232229   2.460   1.495   0.132 -0.1675 -0.5935  0.0761
 3557TIP3    H132230   2.509   1.499   0.214  1.0353  0.3952 -0.6497
 3557TIP3    H232231   2.523   1.459   0.069 -0.6217 -0.0265 -0.7160
 3558TIP3   OH232232   6.250   4.956   0.352  0.4447 -0.4064 -0.4516
 3558TIP3    H132233   6.324   4.915   0.396  0.9434  1.1700  0.2709
 3558TIP3    H232234   6.179   4.954   0.417  0.1175 -1.0855 -0.8143
 3559TIP3   OH232235   4.614   4.030   0.113 -0.3718 -0.2574  1.1181
 3559TIP3    H132236   4.563   4.099   0.156 -0.4793 -1.7764  3.6456
 3559TIP3    H232237   4.548   3.973   0.074 -0.4642 -0.6000  1.7643
 3560TIP3   OH232238   4.421   5.784   2.203 -0.7386  0.1934 -0.5917
 3560TIP3    H132239   4.372   5.710   2.166 -0.0709  0.1953 -1.5154
 3560TIP3    H232240   4.402   5.781   2.297 -2.2433  0.0014 -0.8721
 3561TIP3   OH232241   1.107   6.568   0.790 -0.0243  0.7691 -0.3528
 3561TIP3    H132242   1.132   6.476   0.793 -0.1087  0.7682  0.8162
 3561TIP3    H232243   1.162   6.605   0.721 -0.6316 -0.3279 -1.4526
 3562TIP3   OH232244   0.358   6.667   8.054  0.1346 -0.6519  0.6190
 3562TIP3    H132245   0.293   6.674   8.124 -0.5420 -1.4310  0.0792
 3562TIP3    H232246   0.341   6.742   7.998 -0.4638 -0.9916  0.3435
 3563TIP3   OH232247   6.124   1.699   7.664 -0.1857  0.3649 -0.9193
 3563TIP3    H132248   6.105   1.628   7.603  0.2937  0.5316 -1.2611
 3563TIP3    H232249   6.057   1.765   7.646 -0.3289  0.2164 -0.9387
 3564TIP3   OH232250   1.353   5.274   6.979  0.3531 -0.0066  0.1163
 3564TIP3    H132251   1.431   5.326   6.962  0.8628 -1.2655 -1.7077
 3564TIP3    H232252   1.353   5.208   6.910 -0.2901 -2.3901  2.2576
 3565TIP3   OH232253   5.238   2.878   7.237 -0.1982  0.1662  0.4260
 3565TIP3    H132254   5.183   2.897   7.161  0.5593  0.9270  0.0489
 3565TIP3    H232255   5.255   2.963   7.277 -0.2684 -0.1833  1.2267
 3566TIP3   OH232256   4.124   5.942   1.841  0.0302  0.2931  0.0558
 3566TIP3    H132257   4.068   5.960   1.916  0.1085 -0.1503  0.2193
 3566TIP3    H232258   4.066   5.952   1.765 -0.0806  0.6043  0.1795
 3567TIP3   OH232259   4.813   0.109   8.146  0.7138  0.5260 -0.0035
 3567TIP3    H132260   4.829   0.023   8.107  0.8313  0.5620 -0.0344
 3567TIP3    H232261   4.796   0.090   8.238 -1.7810  0.2112 -0.4680
 3568TIP3   OH232262   1.544   2.546   8.448 -0.3749 -0.0933 -0.5957
 3568TIP3    H132263   1.532   2.479   8.515  0.6774  0.3434  0.0518
 3568TIP3    H232264   1.455   2.571   8.423 -0.7927 -1.4625 -0.6020
 3569TIP3   OH232265   6.399   1.949   0.461 -0.1541 -0.4864 -0.0583
 3569TIP3    H132266   6.382   2.040   0.437 -0.9823 -0.2081  1.4234
 3569TIP3    H232267   6.493   1.938   0.447 -0.1837  0.3312 -1.0458
 3570TIP3   OH232268   4.847   5.206   8.667 -0.0996 -0.0263  0.1860
 3570TIP3    H132269   4.771   5.264   8.675 -1.8044 -2.0769 -0.1866
 3570TIP3    H232270   4.920   5.265   8.648 -1.8267  1.9233 -0.8679
 3571TIP3   OH232271   0.077   5.587   2.002 -0.2197 -0.3651  0.3475
 3571TIP3    H132272   0.084   5.667   1.951  1.3837 -1.0390 -0.5658
 3571TIP3    H232273  -0.013   5.585   2.032 -0.5918  1.1918 -0.5840
 3572TIP3   OH232274   1.659   6.581   0.057 -0.6681  0.1119  0.3658
 3572TIP3    H132275   1.581   6.567   0.110 -1.6150 -1.4774 -1.3292
 3572TIP3    H232276   1.631   6.562  -0.033  1.4532  0.3087 -0.3945
 3573TIP3   OH232277   2.490   0.859   8.634 -0.2608 -0.1121 -0.2318
 3573TIP3    H132278   2.470   0.805   8.711 -0.7673  1.0822  0.5123
 3573TIP3    H232279   2.450   0.813   8.561  0.6428 -1.5254  0.1306
 3574TIP3   OH232280   2.477   4.928   0.816 -0.1801 -0.5664  0.6002
 3574TIP3    H132281   2.389   4.957   0.836 -0.3238 -1.4619  1.3293
 3574TIP3    H232282   2.493   4.854   0.875  0.3532 -1.6316 -0.8013
 3575TIP3   OH232283   4.684   5.624   7.073 -0.2965 -0.2864  0.0555
 3575TIP3    H132284   4.678   5.616   6.978  2.1486 -4.3582  0.0481
 3575TIP3    H232285   4.753   5.689   7.087 -0.6061  0.2716 -0.8716
 3576TIP3   OH232286   5.600   2.669   0.719 -0.8900 -0.2128 -0.3327
 3576TIP3    H132287   5.612   2.724   0.796 -0.2330  1.4165 -1.5464
 3576TIP3    H232288   5.612   2.579   0.752  1.4094  0.5322  1.0959
 3577TIP3   OH232289   3.769   0.938   7.510  0.0380 -0.2662 -0.5228
 3577TIP3    H132290   3.812   0.986   7.580 -0.5785  0.2779 -0.5057
 3577TIP3    H232291   3.707   0.881   7.555  0.2990 -0.5962 -0.5790
 3578TIP3   OH232292   3.641   1.117   7.329  0.4574  0.2814 -0.0104
 3578TIP3    H132293   3.700   1.176   7.376 -0.8907  0.7827  1.1357
 3578TIP3    H232294   3.669   1.029   7.356  0.9205  0.4951  0.2187
 3579TIP3   OH232295   5.170   5.148   7.390  0.2861  0.1212  0.0566
 3579TIP3    H132296   5.236   5.185   7.449  1.9114 -0.0444 -1.5789
 3579TIP3    H232297   5.116   5.224   7.364 -0.2925  0.2343  1.4926
 3580TIP3   OH232298   0.580   4.450   8.496  0.3021 -0.3165 -0.5397
 3580TIP3    H132299   0.506   4.510   8.484 -0.8564 -1.8666 -1.4921
 3580TIP3    H232300   0.649   4.485   8.440  0.6849  1.6626  1.0311
 3581TIP3   OH232301   5.382   5.387   2.198  0.2589 -0.0919 -0.5307
 3581TIP3    H132302   5.295   5.348   2.185 -0.7229  1.4583  0.9023
 3581TIP3    H232303   5.368   5.481   2.181  2.0656 -0.0355 -1.9175
 3582TIP3   OH232304   6.343   6.267   1.441  0.4204 -0.5722  0.6030
 3582TIP3    H132305   6.315   6.198   1.381 -0.1753  0.1334  0.0468
 3582TIP3    H232306   6.343   6.225   1.527 -3.5521 -0.3987  0.8624
 3583TIP3   OH232307   5.317   4.785   0.682 -0.4467 -0.1933 -0.1067
 3583TIP3    H132308   5.296   4.872   0.650  1.2571  0.2379 -0.1503
 3583TIP3    H232309   5.345   4.798   0.773 -3.0991 -1.1226  0.9278
 3584TIP3   OH232310   0.522   5.882   1.086  0.3458 -0.6499  0.5818
 3584TIP3    H132311   0.600   5.923   1.123  0.3268 -0.1609  0.1065
 3584TIP3    H232312   0.449   5.928   1.128  0.3250  0.1913 -0.3453
 3585TIP3   OH232313   3.710   3.266   1.264 -0.1906 -0.5322  0.1659
 3585TIP3    H132314   3.630   3.285   1.214  0.4796 -1.1358 -1.1836
 3585TIP3    H232315   3.678   3.225   1.345 -1.2247 -2.3242 -1.0728
 3586TIP3   OH232316   1.457   4.925   8.624  0.9787  0.3286  0.0477
 3586TIP3    H132317   1.453   4.844   8.676  1.8729 -0.7380 -1.4587
 3586TIP3    H232318   1.506   4.986   8.679 -0.6742  0.2746  1.6850
 3587TIP3   OH232319   0.638   6.433   7.800 -0.3587  0.2726 -0.0006
 3587TIP3    H132320   0.658   6.434   7.893  0.9337 -0.5509 -0.2483
 3587TIP3    H232321   0.611   6.523   7.781  1.1413  0.9201  0.8091
 3588TIP3   OH232322   1.441   1.515   1.408  0.3748  0.4918 -0.2133
 3588TIP3    H132323   1.379   1.442   1.405  2.7403 -1.7015  0.3737
 3588TIP3    H232324   1.441   1.542   1.500 -0.2997  1.0702 -0.3773
 3589TIP3   OH232325   0.797   5.875   8.458  0.2966 -0.1891 -0.6994
 3589TIP3    H132326   0.753   5.935   8.519  0.2012 -0.8327 -0.1253
 3589TIP3    H232327   0.852   5.932   8.404 -0.1647  0.4715 -0.4904
 3590TIP3   OH232328   1.024   2.751   1.637 -0.3044  0.0695  0.4137
 3590TIP3    H132329   0.960   2.736   1.707 -0.2855  0.8850  0.6088
 3590TIP3    H232330   1.011   2.842   1.611 -0.1369 -0.1451 -0.4804
 3591TIP3   OH232331   3.435   4.096   7.101 -0.3042 -0.1954  0.1645
 3591TIP3    H132332   3.447   4.183   7.064 -1.5825  0.7217  1.7695
 3591TIP3    H232333   3.523   4.065   7.119  0.1512  0.9951  0.0663
 3592TIP3   OH232334   1.293   2.339   1.296  0.3978  0.2253  0.2253
 3592TIP3    H132335   1.292   2.258   1.347 -0.7106  0.3059  0.3481
 3592TIP3    H232336   1.344   2.400   1.350  0.2597 -0.0470  0.6690
 3593TIP3   OH232337   5.820   4.356   1.931 -0.0371  0.0719 -0.5310
 3593TIP3    H132338   5.748   4.399   1.977  0.1807  0.1594 -0.2673
 3593TIP3    H232339   5.812   4.264   1.955  0.3430  0.1812  0.0570
 3594TIP3   OH232340   5.805   6.085   6.904  0.6974 -0.2598 -0.8316
 3594TIP3    H132341   5.769   6.130   6.828  1.4924  1.4648 -0.2402
 3594TIP3    H232342   5.846   6.006   6.869  0.2382  0.0316 -2.0543
 3595TIP3   OH232343   1.767   5.010   1.256  0.1725 -0.1318 -0.8075
 3595TIP3    H132344   1.697   5.067   1.289  0.9698  0.9292 -0.9091
 3595TIP3    H232345   1.779   5.038   1.166 -0.3192 -1.3707 -1.2748
 3596TIP3   OH232346   5.597   4.448   6.232  0.2877 -0.0167 -0.0493
 3596TIP3    H132347   5.559   4.474   6.316  1.1230  0.8880  0.0705
 3596TIP3    H232348   5.687   4.424   6.254  0.5880  0.4760 -0.7251
 3597TIP3   OH232349   4.471   3.081   1.455  0.0383  0.0528 -0.3391
 3597TIP3    H132350   4.529   3.154   1.436 -1.2682  1.2559  0.0834
 3597TIP3    H232351   4.424   3.066   1.373  0.7850 -0.7925 -0.6268
 3598TIP3   OH232352   6.786   2.322   1.237  0.1223  0.0356  0.3825
 3598TIP3    H132353   6.802   2.286   1.150  1.5846  0.2319  0.5419
 3598TIP3    H232354   6.693   2.307   1.253  0.3463 -2.2332 -0.1876
 3599TIP3   OH232355   6.383   5.461   2.655 -0.0521 -0.9066  0.1691
 3599TIP3    H132356   6.307   5.465   2.713 -0.6908 -2.6838 -0.4838
 3599TIP3    H232357   6.428   5.380   2.680  0.5194 -0.8885 -0.7565
 3600TIP3   OH232358   4.670   2.335   7.041  0.1985  0.0846 -0.3859
 3600TIP3    H132359   4.638   2.292   7.120 -0.1073 -1.0630 -1.1088
 3600TIP3    H232360   4.763   2.350   7.058  0.1150 -0.0667  0.2263
 3601TIP3   OH232361   4.952   0.108   2.069 -0.1156 -0.4751 -0.0960
 3601TIP3    H132362   5.032   0.159   2.055  0.6987 -1.1927  1.7187
 3601TIP3    H232363   4.887   0.173   2.098  0.5492 -0.2353  0.9095
 3602TIP3   OH232364   1.850   1.089   1.424 -0.4384 -0.0110 -1.0872
 3602TIP3    H132365   1.792   1.058   1.355 -0.2014 -1.3202 -0.7315
 3602TIP3    H232366   1.793   1.098   1.501 -0.4713  0.3000 -1.1441
 3603TIP3   OH232367   5.985   5.978   6.618  0.1232  0.5145 -0.0659
 3603TIP3    H132368   5.978   5.910   6.685  2.5688 -0.0113 -0.2779
 3603TIP3    H232369   5.918   5.955   6.553 -2.1661  0.9098  1.9866
 3604TIP3   OH232370   3.022   2.562   8.242  0.4286  0.7150 -0.1438
 3604TIP3    H132371   2.949   2.603   8.196 -3.1110 -0.6121  3.6316
 3604TIP3    H232372   3.087   2.632   8.251 -1.7897  3.0369 -0.9101
 3605TIP3   OH232373   4.435   0.804   8.323  0.2257 -0.5719  0.3039
 3605TIP3    H132374   4.509   0.810   8.262 -1.0441 -0.6512 -1.3316
 3605TIP3    H232375   4.407   0.895   8.335  0.2291 -0.5918  0.4602
 3606TIP3   OH232376   3.748   3.228   7.930 -0.1389  0.5710  0.7262
 3606TIP3    H132377   3.822   3.277   7.965  0.0227  0.3887  0.6411
 3606TIP3    H232378   3.778   3.137   7.930 -0.5460  0.4308  1.1688
 3607TIP3   OH232379   2.983   3.058   8.590  0.0724  0.4761  0.0471
 3607TIP3    H132380   3.000   3.151   8.576  1.2909  0.1486 -0.7945
 3607TIP3    H232381   3.017   3.016   8.511 -1.0290 -0.6327  0.1434
 3608TIP3   OH232382   1.258   4.610   8.664 -0.1065 -0.4637 -0.0012
 3608TIP3    H132383   1.325   4.667   8.701  0.1213 -0.0093 -1.0756
 3608TIP3    H232384   1.179   4.629   8.715  0.6305 -1.2674  1.5207
 3609TIP3   OH232385   3.270   2.973   1.525 -0.9896 -0.4962  0.1571
 3609TIP3    H132386   3.324   2.954   1.603 -0.0324 -1.0479 -0.6161
 3609TIP3    H232387   3.215   3.046   1.552  0.1988  0.1474  0.9669
 3610TIP3   OH232388   2.948   4.168   1.858  0.0730 -0.6109 -0.5464
 3610TIP3    H132389   2.933   4.120   1.777  1.6752  0.9562 -1.8520
 3610TIP3    H232390   3.030   4.132   1.892 -1.2743 -2.2486  1.2367
 3611TIP3   OH232391   4.137   3.625   8.036 -0.2768 -0.6575  0.3728
 3611TIP3    H132392   4.051   3.650   8.072 -1.0703 -0.6691 -1.4137
 3611TIP3    H232393   4.168   3.703   7.992 -0.0531 -1.0967 -0.2559
 3612TIP3   OH232394   4.951   5.414   0.953 -0.4557 -0.1046  0.1173
 3612TIP3    H132395   5.041   5.429   0.983  1.0210 -0.6985 -3.5448
 3612TIP3    H232396   4.936   5.321   0.967 -0.5203 -0.0107  0.7058
 3613TIP3   OH232397   3.157   3.191   1.628 -0.5503  0.5320 -0.0607
 3613TIP3    H132398   3.147   3.184   1.723 -0.4446  1.4244  0.0252
 3613TIP3    H232399   3.071   3.217   1.596 -0.0374  2.5443  0.0624
 3614TIP3   OH232400   0.219   4.698   0.276 -0.1081  0.1237 -0.3153
 3614TIP3    H132401   0.259   4.701   0.189  0.9868  0.9674  0.1820
 3614TIP3    H232402   0.265   4.627   0.321  2.0270  2.0581  0.7570
 3615TIP3   OH232403   3.610   2.382   2.332 -0.3114 -0.2418 -0.5744
 3615TIP3    H132404   3.623   2.417   2.244 -0.5481 -1.2447 -1.0164
 3615TIP3    H232405   3.639   2.291   2.326 -4.1431 -1.6310 -0.7502
 3616TIP3   OH232406   3.937   4.709   0.787  0.4088  0.8981  0.4329
 3616TIP3    H132407   3.991   4.655   0.729  1.2845  0.4815  1.5802
 3616TIP3    H232408   3.998   4.737   0.856 -0.5131  1.6479  0.9611
 3617TIP3   OH232409   4.994   1.710   8.071  0.0041 -0.5976  0.0942
 3617TIP3    H132410   5.009   1.770   7.998 -0.0034  0.7051  1.1169
 3617TIP3    H232411   5.079   1.702   8.114 -0.4512  0.4549  1.2430
 3618TIP3   OH232412   4.531   0.870   8.612  0.1069  0.2623  0.6873
 3618TIP3    H132413   4.622   0.899   8.602 -0.0195  0.2432 -0.7718
 3618TIP3    H232414   4.511   0.827   8.529 -1.6601  1.4820  0.4280
 3619TIP3   OH232415   5.590   4.996   2.006  0.2486  0.0014 -0.3584
 3619TIP3    H132416   5.623   4.936   2.073 -1.7080 -2.1428 -1.1725
 3619TIP3    H232417   5.507   5.028   2.041  0.8787  1.6556 -0.2987
 3620TIP3   OH232418   3.782   3.172   7.024 -0.5345  0.3757 -0.1546
 3620TIP3    H132419   3.746   3.094   7.065 -0.9208  1.7802  2.3523
 3620TIP3    H232420   3.725   3.187   6.949 -0.4302 -1.7044 -0.7285
 3621TIP3   OH232421   1.225   2.051   0.886 -0.3491 -0.2869 -0.5707
 3621TIP3    H132422   1.275   1.998   0.948 -0.1056 -2.1113 -2.2152
 3621TIP3    H232423   1.168   2.105   0.940 -0.8007 -2.4261  1.2172
 3622TIP3   OH232424   2.033   5.693   8.078  0.3193  0.6707 -0.8406
 3622TIP3    H132425   2.085   5.614   8.070 -2.4954 -1.5252  0.4852
 3622TIP3    H232426   1.962   5.682   8.014 -0.9540  1.3208  0.3843
 3623TIP3   OH232427   0.291   4.703   1.134  0.3375  0.1094  0.1940
 3623TIP3    H132428   0.215   4.750   1.166  0.9353 -0.1618  2.1774
 3623TIP3    H232429   0.301   4.629   1.194  0.6078 -1.4103 -1.6290
 3624TIP3   OH232430   1.851   4.457   8.672  0.2174 -0.6804  0.1976
 3624TIP3    H132431   1.930   4.425   8.627 -0.8238  0.0342 -2.3286
 3624TIP3    H232432   1.792   4.382   8.675 -0.1900 -0.4200 -0.8497
 3625TIP3   OH232433   6.473   0.515   8.309  0.5600 -1.3926  0.8695
 3625TIP3    H132434   6.438   0.603   8.328  0.4711 -0.9849 -1.0113
 3625TIP3    H232435   6.557   0.532   8.267  0.1632 -2.1655 -0.2673
 3626TIP3   OH232436   4.561   4.210   2.099  0.2319 -0.3063  0.3350
 3626TIP3    H132437   4.481   4.263   2.096  0.5511  0.1204 -1.4084
 3626TIP3    H232438   4.609   4.243   2.175  0.1230  1.4842 -0.3308
 3627TIP3   OH232439   1.244   3.000   1.276  0.1701 -0.0521 -0.2076
 3627TIP3    H132440   1.240   3.043   1.190 -0.3630  1.4537  0.5356
 3627TIP3    H232441   1.160   2.954   1.283  0.0144  0.2114 -0.3042
 3628TIP3   OH232442   5.065   1.173   0.968  0.0429  0.4884 -0.1080
 3628TIP3    H132443   4.970   1.174   0.962 -0.1135  0.1607  1.6462
 3628TIP3    H232444   5.083   1.142   1.057  1.7596  1.4664 -0.0622
 3629TIP3   OH232445   3.356   1.267   7.748 -0.1149 -0.7310 -0.7338
 3629TIP3    H132446   3.320   1.263   7.836 -0.1624  4.4727 -0.1799
 3629TIP3    H232447   3.450   1.279   7.762 -0.1980  0.7759 -1.2347
 3630TIP3   OH232448   4.799   4.370   7.435  0.5841 -0.4224 -0.1521
 3630TIP3    H132449   4.816   4.437   7.369  0.8160  1.0754  1.3878
 3630TIP3    H232450   4.886   4.343   7.465  0.4867  1.0493  1.6024
 3631TIP3   OH232451   0.854   2.652   0.184  0.0477  0.2230 -0.0882
 3631TIP3    H132452   0.881   2.566   0.217  1.0387  1.2136  1.8172
 3631TIP3    H232453   0.784   2.632   0.122 -0.4654 -1.9073  1.0534
 3632TIP3   OH232454   5.672   0.479   1.359  0.0423  0.8847  0.6040
 3632TIP3    H132455   5.666   0.559   1.411 -1.4332  1.4222 -0.3164
 3632TIP3    H232456   5.716   0.416   1.416 -0.8858  1.6489  2.2401
 3633TIP3   OH232457   6.136   5.463   2.825 -0.2912 -0.6109  0.3629
 3633TIP3    H132458   6.117   5.541   2.877  1.2253 -0.1102  0.2191
 3633TIP3    H232459   6.065   5.459   2.761  0.3142  1.4638 -0.5273
 3634TIP3   OH232460   2.712   5.203   1.085 -0.1004 -0.2177  0.2173
 3634TIP3    H132461   2.748   5.170   1.167 -0.4925  1.2962  1.0315
 3634TIP3    H232462   2.743   5.294   1.080 -1.6966  0.3304 -0.3221
 3635TIP3   OH232463   4.087   1.376   8.090 -0.5379  0.0760  0.0819
 3635TIP3    H132464   4.086   1.355   8.183 -0.2886  1.2285  0.3699
 3635TIP3    H232465   4.125   1.464   8.087 -0.5402  0.0439 -1.1100
 3636TIP3   OH232466   5.104   0.188   1.214  0.2650  0.5927 -0.0454
 3636TIP3    H132467   5.162   0.244   1.162  1.0240  0.7487  0.9283
 3636TIP3    H232468   5.162   0.121   1.249 -0.5944 -0.6874 -0.9894
 3637TIP3   OH232469   5.762   6.434   7.582  0.0196 -0.3681 -0.6793
 3637TIP3    H132470   5.767   6.394   7.495  3.2053 -2.1164  0.1768
 3637TIP3    H232471   5.693   6.386   7.627  0.4845 -1.6338 -1.2656
 3638TIP3   OH232472   2.814   2.921   7.226 -0.1336  0.0378  0.1278
 3638TIP3    H132473   2.856   3.003   7.201  0.0052  0.0107  0.2662
 3638TIP3    H232474   2.733   2.919   7.177  0.8956 -0.7864 -1.6381
 3639TIP3   OH232475   5.930   3.896   1.059  0.0573 -0.3775  0.1027
 3639TIP3    H132476   5.845   3.936   1.075 -0.5025 -1.3074 -0.4671
 3639TIP3    H232477   5.989   3.937   1.123 -0.4875  1.3095 -0.4427
 3640TIP3   OH232478   6.306   1.239   1.895 -0.1355 -0.0023  0.4088
 3640TIP3    H132479   6.382   1.186   1.870 -0.6020 -0.7858  0.6362
 3640TIP3    H232480   6.278   1.204   1.979 -2.3734 -1.5468 -0.8730
 3641TIP3   OH232481   6.389   4.029   6.452 -0.1657 -0.0594 -0.5817
 3641TIP3    H132482   6.417   4.038   6.543 -0.3806  0.0185 -0.5225
 3641TIP3    H232483   6.423   3.944   6.425 -0.1641 -0.1154 -0.4058
 3642TIP3   OH232484   4.541   6.055   1.702 -0.0205  0.7451 -0.3422
 3642TIP3    H132485   4.613   6.115   1.684  0.4858  0.2205 -0.1033
 3642TIP3    H232486   4.465   6.094   1.658  0.9061  0.1369 -2.6440
 3643TIP3   OH232487   0.320   5.326   1.842 -0.5826 -0.2256  0.1411
 3643TIP3    H132488   0.409   5.304   1.870 -0.2538  0.7200 -0.1029
 3643TIP3    H232489   0.272   5.340   1.923 -0.6281 -1.1609  0.2847
 3644TIP3   OH232490   2.361   2.841   0.266  0.5838  0.7530  0.2588
 3644TIP3    H132491   2.300   2.768   0.267  0.8174  0.5562  0.5410
 3644TIP3    H232492   2.334   2.896   0.340 -0.4537  1.6879 -0.7776
 3645TIP3   OH232493   4.114   4.830   0.059 -0.8226  0.1649  0.5459
 3645TIP3    H132494   4.143   4.828   0.150  0.8354  1.2373  0.1050
 3645TIP3    H232495   4.074   4.916   0.048  0.3872  0.6767 -0.0861
 3646TIP3   OH232496   2.005   6.421   1.217 -0.0475 -0.6626  0.5738
 3646TIP3    H132497   2.078   6.465   1.174 -0.1943 -2.0833 -1.2262
 3646TIP3    H232498   1.989   6.474   1.296  0.8270  1.5153 -0.6141
 3647TIP3   OH232499   4.365   3.910   7.317  0.3506  0.0066  0.2889
 3647TIP3    H132500   4.389   3.849   7.387  0.7212 -0.8360 -0.5447
 3647TIP3    H232501   4.325   3.984   7.363 -0.0486 -0.8210  1.3474
 3648TIP3   OH232502   0.548   1.020   7.353  0.3210  0.2857  0.5735
 3648TIP3    H132503   0.482   0.962   7.315 -1.0881  1.0749  1.7008
 3648TIP3    H232504   0.568   0.982   7.438 -0.8320  1.5503  1.4483
 3649TIP3   OH232505   0.553   5.146   8.558  0.4987  0.2774 -0.3750
 3649TIP3    H132506   0.554   5.119   8.466  0.9685  0.2145 -0.3558
 3649TIP3    H232507   0.478   5.204   8.566  0.4524  0.2752 -0.8001
 3650TIP3   OH232508   5.950   4.547   7.890 -0.2295 -0.1064 -0.1313
 3650TIP3    H132509   5.926   4.473   7.834  2.9647 -2.0704  0.8388
 3650TIP3    H232510   6.003   4.603   7.834 -1.2170  0.6098 -0.3827
 3651TIP3   OH232511   2.128   0.687   7.463  0.2884 -0.1809  0.1949
 3651TIP3    H132512   2.208   0.640   7.486 -0.0626 -0.5974  0.6004
 3651TIP3    H232513   2.118   0.753   7.532  1.4429  1.3564 -1.0356
 3652TIP3   OH232514   2.612   2.758   6.767  0.3480 -0.3240  0.1086
 3652TIP3    H132515   2.662   2.807   6.701  1.1609 -0.2516  0.7634
 3652TIP3    H232516   2.533   2.730   6.721  0.5159  0.4259 -0.6673
 3653TIP3   OH232517   1.563   3.881   0.448  0.1027  0.8798 -0.1240
 3653TIP3    H132518   1.537   3.943   0.516  0.0630  1.0604 -0.3035
 3653TIP3    H232519   1.544   3.926   0.366 -0.8786  0.2313 -0.2632
 3654TIP3   OH232520   1.883   5.304   1.393  0.1943  0.1229 -0.2491
 3654TIP3    H132521   1.796   5.275   1.365 -0.0100  0.8647 -0.3790
 3654TIP3    H232522   1.930   5.322   1.311  0.8002 -1.1843 -0.2220
 3655TIP3   OH232523   1.688   5.082   7.618 -0.0418 -0.0133  0.1860
 3655TIP3    H132524   1.748   5.105   7.689 -2.5317  2.9226  1.5451
 3655TIP3    H232525   1.635   5.011   7.654  0.4204 -0.3755  0.1804
 3656TIP3   OH232526   0.087   6.705   6.975  0.2558 -0.3899 -0.7629
 3656TIP3    H132527   0.025   6.731   7.043  0.6148 -0.6526 -0.3303
 3656TIP3    H232528   0.129   6.787   6.949 -0.4074 -0.1806 -1.1989
 3657TIP3   OH232529   0.662   1.322   6.648  0.4241 -0.1344 -0.2701
 3657TIP3    H132530   0.573   1.332   6.615  0.3280  1.4186  0.3972
 3657TIP3    H232531   0.710   1.283   6.575 -0.7289 -0.7647 -0.7250
 3658TIP3   OH232532   6.754   6.287   0.717  0.1609  0.1022 -0.7119
 3658TIP3    H132533   6.748   6.193   0.705  1.4791 -0.1104  0.1161
 3658TIP3    H232534   6.844   6.309   0.692 -0.1932  1.1778 -1.1203
 3659TIP3   OH232535   6.709   2.125   7.475 -0.2779 -0.8577 -0.2104
 3659TIP3    H132536   6.706   2.189   7.403 -3.6467 -2.7692 -2.0247
 3659TIP3    H232537   6.685   2.175   7.553 -2.2212  0.2825 -1.4616
 3660TIP3   OH232538   1.216   2.691   1.866  0.0245  0.4514  0.3086
 3660TIP3    H132539   1.261   2.776   1.871  1.9598 -0.4712 -0.4388
 3660TIP3    H232540   1.159   2.699   1.789  1.7222  0.4446 -1.0131
 3661TIP3   OH232541   4.017   5.058   0.722 -0.1921 -0.0917 -0.2884
 3661TIP3    H132542   4.066   4.990   0.676  0.7946  0.2084  0.2838
 3661TIP3    H232543   3.935   5.067   0.672 -0.2976 -1.6064 -0.4380
 3662TIP3   OH232544   5.056   3.003   8.276  0.2369  0.1917 -0.2367
 3662TIP3    H132545   5.087   2.920   8.240  0.3628  0.6602 -1.2390
 3662TIP3    H232546   5.114   3.069   8.238 -0.1502  0.7882  0.1896
 3663TIP3   OH232547   3.812   1.288   7.481 -0.1508  0.5363  1.0406
 3663TIP3    H132548   3.779   1.376   7.460  0.8645  0.8027  0.5117
 3663TIP3    H232549   3.904   1.290   7.455 -0.4841 -1.1651 -0.4511
 3664TIP3   OH232550   0.798   0.008   1.655 -0.0012  0.4528 -0.6640
 3664TIP3    H132551   0.775  -0.004   1.562 -0.6034  0.7952 -0.5678
 3664TIP3    H232552   0.864   0.077   1.655 -1.2011  1.6458 -0.7293
 3665TIP3   OH232553   5.622   2.728   0.311  0.2331  0.1008  0.1458
 3665TIP3    H132554   5.679   2.775   0.250  1.0728 -1.2889 -0.1888
 3665TIP3    H232555   5.658   2.749   0.397  2.2495 -1.8838 -0.1111
 3666TIP3   OH232556   3.137   4.386   7.146  0.3317  0.1184  0.2738
 3666TIP3    H132557   3.149   4.329   7.071 -1.8506  1.3205 -1.0804
 3666TIP3    H232558   3.201   4.457   7.133 -0.2978  0.5312 -0.7191
 3667TIP3   OH232559   0.063   0.492   5.835 -0.4908 -0.1971 -0.4892
 3667TIP3    H132560  -0.020   0.537   5.816  0.6322  1.5815 -1.4611
 3667TIP3    H232561   0.096   0.535   5.914  0.6123  0.7919 -1.4467
 3668TIP3   OH232562   0.746   5.109   0.478 -0.0377  0.0008 -0.2271
 3668TIP3    H132563   0.740   5.185   0.420 -2.5515  0.8278  0.9561
 3668TIP3    H232564   0.666   5.060   0.462 -0.5997  0.0177  2.1595
 3669TIP3   OH232565   0.847   6.150   0.988  0.3574 -0.1278  0.4118
 3669TIP3    H132566   0.753   6.164   0.980 -0.0240 -1.8395  1.4346
 3669TIP3    H232567   0.865   6.161   1.081  0.7050 -2.1022  0.6337
 3670TIP3   OH232568   2.886   4.551   2.550 -0.6475 -0.2834 -0.3862
 3670TIP3    H132569   2.839   4.634   2.537 -0.5376 -0.5232 -2.5809
 3670TIP3    H232570   2.964   4.576   2.600 -1.0862  0.7828 -0.2034
 3671TIP3   OH232571   2.762   0.576   0.107  0.1513  0.2474 -0.1204
 3671TIP3    H132572   2.854   0.600   0.101  0.9658 -1.4206  3.4375
 3671TIP3    H232573   2.725   0.634   0.173 -1.6088  1.2423 -1.8391
 3672TIP3   OH232574   3.842   2.887   2.053  0.1310 -0.0298 -0.2732
 3672TIP3    H132575   3.915   2.925   2.104  1.8814 -0.8350 -2.0369
 3672TIP3    H232576   3.855   2.921   1.965 -1.5654 -0.3572 -0.6692
 3673TIP3   OH232577   0.960   6.602   1.650  0.2490  0.4262  0.4464
 3673TIP3    H132578   0.876   6.583   1.608  0.4327 -1.7464  0.9302
 3673TIP3    H232579   0.939   6.667   1.717 -0.8330  0.7076 -0.1409
 3674TIP3   OH232580   3.121   6.215   0.588  0.3107  0.4927 -0.0168
 3674TIP3    H132581   3.183   6.144   0.570  1.0840  1.0009  0.6094
 3674TIP3    H232582   3.039   6.170   0.609  0.8779 -0.2308  0.6895
 3675TIP3   OH232583   1.487   0.485   7.558 -0.1278 -0.1484 -0.3264
 3675TIP3    H132584   1.425   0.415   7.577  0.6829 -0.8394 -0.2149
 3675TIP3    H232585   1.525   0.509   7.643 -0.2922  0.3348 -0.3817
 3676TIP3   OH232586   3.095   3.650   7.698  0.5666 -0.0186  0.8050
 3676TIP3    H132587   3.104   3.741   7.672 -0.2742 -0.4387 -1.0984
 3676TIP3    H232588   3.000   3.638   7.710  0.5100 -1.0212 -0.4931
 3677TIP3   OH232589   4.492   0.325   0.084  0.5347  0.1342 -0.1134
 3677TIP3    H132590   4.448   0.362   0.008 -0.1747  0.0695  0.2551
 3677TIP3    H232591   4.458   0.376   0.158  0.7558 -0.2017  0.2204
 3678TIP3   OH232592   4.146   5.589   7.388 -0.6092  0.0133  0.1135
 3678TIP3    H132593   4.217   5.563   7.329 -0.0081  2.6235 -0.4345
 3678TIP3    H232594   4.070   5.542   7.355 -0.2378  1.1641 -2.6702
 3679TIP3   OH232595   2.926   3.292   1.539 -0.3773  0.2269  0.6215
 3679TIP3    H132596   2.939   3.310   1.446  0.5925 -1.1136  0.4736
 3679TIP3    H232597   2.839   3.328   1.558 -0.7707  0.1536 -0.8985
 3680TIP3   OH232598   1.001   0.086   7.094 -0.7826 -0.4262  0.1925
 3680TIP3    H132599   0.987   0.174   7.129  0.2163 -0.3516  0.4518
 3680TIP3    H232600   0.915   0.057   7.065 -1.7507 -0.5682  2.9019
 3681TIP3   OH232601   6.550   4.605   0.867  0.3779  0.3784  0.3406
 3681TIP3    H132602   6.579   4.615   0.776  1.8475  2.6410  0.9726
 3681TIP3    H232603   6.497   4.683   0.884 -2.2226 -1.3569  0.6901
 3682TIP3   OH232604   4.723   2.387   2.380 -0.4157 -0.0121  0.6365
 3682TIP3    H132605   4.796   2.345   2.334  0.2281  1.8178 -0.1301
 3682TIP3    H232606   4.763   2.461   2.425 -1.5763  0.1194  1.4894
 3683TIP3   OH232607   3.146   6.867   2.022 -0.3417 -0.1775 -0.2923
 3683TIP3    H132608   3.103   6.929   2.080  1.1791  0.8722 -0.2343
 3683TIP3    H232609   3.099   6.874   1.939 -0.3247  0.8922 -0.2181
 3684TIP3   OH232610   0.599   6.175   0.680  0.2607  0.0329 -0.0645
 3684TIP3    H132611   0.537   6.164   0.752 -0.8376 -0.5440 -1.0598
 3684TIP3    H232612   0.641   6.259   0.698 -1.2231  0.7278  0.3641
 3685TIP3   OH232613   3.705   2.810   1.094 -0.1467  0.0939  0.5624
 3685TIP3    H132614   3.622   2.844   1.060 -2.1702 -1.0883  3.9005
 3685TIP3    H232615   3.769   2.879   1.075 -1.8810  1.1366 -1.9155
 3686TIP3   OH232616   0.977   3.641   7.332  0.4682  0.4577  0.1736
 3686TIP3    H132617   0.895   3.654   7.284 -0.4153  1.2925  1.8008
 3686TIP3    H232618   0.974   3.706   7.402  2.6498  0.6592  0.1539
 3687TIP3   OH232619   5.690   3.428   0.153  0.8172 -0.0068 -0.5009
 3687TIP3    H132620   5.711   3.335   0.157  1.2686  0.0835 -0.6973
 3687TIP3    H232621   5.720   3.455   0.066 -1.1021 -0.1080 -1.2567
 3688TIP3   OH232622   6.618   1.402   7.404  0.0713  0.3951  0.2078
 3688TIP3    H132623   6.658   1.330   7.356  0.4685  1.2230 -0.7264
 3688TIP3    H232624   6.692   1.454   7.435 -0.2366  1.6383 -1.0716
 3689TIP3   OH232625   1.316   5.477   7.456 -0.0028 -0.5879  0.0121
 3689TIP3    H132626   1.342   5.392   7.490 -2.6730 -2.0490 -1.3131
 3689TIP3    H232627   1.281   5.459   7.369 -0.2929  1.9566 -0.4966
 3690TIP3   OH232628   4.956   5.809   8.616 -0.0699  0.0327  0.1232
 3690TIP3    H132629   4.900   5.868   8.666  2.6426  0.9956  2.2305
 3690TIP3    H232630   5.040   5.854   8.610  1.2237 -2.3351 -0.8616
 3691TIP3   OH232631   4.266   2.610   0.185 -0.2641 -0.8428 -0.2632
 3691TIP3    H132632   4.345   2.566   0.152 -1.4395 -3.2531 -0.1013
 3691TIP3    H232633   4.205   2.607   0.111 -1.0419 -1.3016  0.3797
 3692TIP3   OH232634   1.844   4.360   1.448  0.2856  0.4427  0.1983
 3692TIP3    H132635   1.818   4.446   1.478  1.3366  1.0827 -0.6282
 3692TIP3    H232636   1.809   4.354   1.359  1.7609  0.7980 -0.4419
 3693TIP3   OH232637   1.842   6.044   1.099 -0.0899 -0.1648 -0.3102
 3693TIP3    H132638   1.818   5.960   1.060  0.6642 -0.5022 -0.0610
 3693TIP3    H232639   1.767   6.101   1.079 -0.4648 -0.7942 -0.7710
 3694TIP3   OH232640   5.888   4.135   8.551 -0.3992  0.7922  0.0270
 3694TIP3    H132641   5.885   4.227   8.578 -0.2025  0.4600  1.2155
 3694TIP3    H232642   5.928   4.089   8.624 -0.3751 -0.2373 -0.6059
 3695TIP3   OH232643   0.682   6.483   1.198 -0.4826  0.0697 -0.5280
 3695TIP3    H132644   0.620   6.523   1.136 -2.0468 -0.5942  0.5427
 3695TIP3    H232645   0.768   6.511   1.167 -1.2359  0.1624 -2.7041
 3696TIP3   OH232646   6.098   2.929   7.086 -0.0189  0.3470  0.3523
 3696TIP3    H132647   6.176   2.875   7.077  0.7368  1.1085  1.9283
 3696TIP3    H232648   6.025   2.868   7.078  0.7923 -0.8488  1.6760
 3697TIP3   OH232649   3.862   3.796   1.195  0.1876  0.1569  0.3447
 3697TIP3    H132650   3.773   3.770   1.215 -1.2400  3.2864 -1.2090
 3697TIP3    H232651   3.910   3.785   1.277 -1.9889 -0.0918  1.6493
 3698TIP3   OH232652   1.012   2.698   0.571  0.2482  0.2595  0.0158
 3698TIP3    H132653   1.022   2.615   0.617 -0.7714  0.0627 -0.0958
 3698TIP3    H232654   1.080   2.754   0.608  0.0646 -0.1950  1.0930
 3699TIP3   OH232655   3.941   2.420   7.281 -0.0720  0.3314 -0.2614
 3699TIP3    H132656   4.012   2.467   7.237  0.1659  0.1727 -0.0573
 3699TIP3    H232657   3.861   2.450   7.238  0.2105 -0.4572 -1.3884
 3700TIP3   OH232658   3.225   0.188   0.125  0.4270 -0.5791 -0.6769
 3700TIP3    H132659   3.195   0.191   0.034  0.8429 -0.4356 -0.8086
 3700TIP3    H232660   3.318   0.207   0.120  0.4953 -0.8014 -0.2411
 3701TIP3   OH232661   6.580   5.937   8.692 -0.0902 -0.2750  0.0077
 3701TIP3    H132662   6.503   5.898   8.732 -0.0161 -0.2060  0.2200
 3701TIP3    H232663   6.598   6.015   8.745  0.9006 -0.9949  0.7644
 3702TIP3   OH232664   1.586   0.937   2.486  1.0364  0.7148 -0.2828
 3702TIP3    H132665   1.627   0.876   2.425 -0.3626  2.2902 -2.9834
 3702TIP3    H232666   1.589   1.021   2.441 -1.7627  1.6090  0.9858
 3703TIP3   OH232667   1.957   2.330   7.873  0.2470  0.0620  0.2092
 3703TIP3    H132668   1.961   2.378   7.956  0.6002  0.9284 -0.3040
 3703TIP3    H232669   1.875   2.359   7.833 -1.1942 -2.1836  1.3275
 3704TIP3   OH232670   1.969   0.734   6.491 -0.2406 -0.2478 -0.4483
 3704TIP3    H132671   2.058   0.701   6.498  0.0619  0.7376  0.8594
 3704TIP3    H232672   1.960   0.762   6.400  0.3643 -1.4568 -0.8926
 3705TIP3   OH232673   0.787   2.813   0.470 -0.0647 -0.8699 -0.4614
 3705TIP3    H132674   0.857   2.767   0.517 -0.8178 -1.3341  0.2282
 3705TIP3    H232675   0.820   2.822   0.380  1.8404  0.9166  0.3254
 3706TIP3   OH232676   2.059   1.833   7.062  0.1748  0.2057 -0.0630
 3706TIP3    H132677   2.097   1.901   7.117  0.1446 -0.8809  1.3729
 3706TIP3    H232678   2.099   1.752   7.093 -1.3369 -0.6652 -0.2922
 3707TIP3   OH232679   4.843   2.773   1.338 -0.5188 -0.1572 -0.2192
 3707TIP3    H132680   4.911   2.765   1.405 -1.3848 -1.8158  0.5302
 3707TIP3    H232681   4.814   2.683   1.322 -2.8838  0.5257 -0.1483
 3708TIP3   OH232682   2.588   4.307   1.879 -0.3040 -0.1345 -0.1118
 3708TIP3    H132683   2.664   4.360   1.855  0.0057  0.2116  1.4940
 3708TIP3    H232684   2.515   4.344   1.829  0.7005 -1.0978 -2.4467
 3709TIP3   OH232685   5.677   4.042   1.221 -0.6138 -0.6725  0.1975
 3709TIP3    H132686   5.606   4.104   1.240 -1.1296 -1.9606  2.7391
 3709TIP3    H232687   5.729   4.039   1.301  0.0905 -2.6432 -0.2869
 3710TIP3   OH232688   1.875   3.700   1.652 -0.6485 -0.8267 -0.0648
 3710TIP3    H132689   1.779   3.701   1.655 -0.6553 -1.2465  0.0340
 3710TIP3    H232690   1.897   3.692   1.559 -0.7063 -0.6102 -0.0973
 3711TIP3   OH232691   5.808   5.882   2.384  0.4738  0.5341 -0.2659
 3711TIP3    H132692   5.902   5.878   2.364  0.2998  0.2772 -1.0714
 3711TIP3    H232693   5.787   5.796   2.421  0.5346  0.5645 -0.1592
 3712TIP3   OH232694   6.108   3.307   7.498  0.2546  0.0931 -0.0518
 3712TIP3    H132695   6.023   3.349   7.508  0.6541  1.0063 -0.4005
 3712TIP3    H232696   6.115   3.287   7.404  0.4888  0.1717 -0.0534
 3713TIP3   OH232697   1.283   5.992   6.938 -0.7624  0.4424  0.6380
 3713TIP3    H132698   1.250   6.042   6.863 -0.6315 -0.6594 -0.1826
 3713TIP3    H232699   1.279   6.053   7.012 -1.7543  1.2650 -0.0778
 3714TIP3   OH232700   2.971   5.196   1.850 -0.2072  0.5220 -0.3354
 3714TIP3    H132701   2.891   5.228   1.891 -0.1944  0.2609 -0.1029
 3714TIP3    H232702   3.035   5.193   1.921  0.1178  1.0812 -0.5917
 3715TIP3   OH232703   1.752   0.742   7.554  0.0722 -0.0801  0.5274
 3715TIP3    H132704   1.825   0.794   7.590 -0.4467 -0.1372  1.7015
 3715TIP3    H232705   1.793   0.688   7.486  0.8939  0.7787  0.3115
 3716TIP3   OH232706   4.755   0.302   2.178  0.6682  0.0035  0.0882
 3716TIP3    H132707   4.692   0.303   2.106 -0.1808 -0.0064  0.8216
 3716TIP3    H232708   4.728   0.229   2.233  2.4403 -1.1796 -0.5399
 3717TIP3   OH232709   0.495   4.980   0.411  0.2674 -0.2942  0.0365
 3717TIP3    H132710   0.401   4.989   0.430  0.6681 -0.2969  2.2642
 3717TIP3    H232711   0.514   4.889   0.430  0.8630 -0.1327  0.2123
 3718TIP3   OH232712   5.042   6.140   6.876  0.1111 -0.2189  0.4297
 3718TIP3    H132713   5.111   6.102   6.930  2.7798  1.6245 -1.4112
 3718TIP3    H232714   5.022   6.223   6.919  1.0614  0.4925 -0.4537
 3719TIP3   OH232715   3.439   2.975   1.020  0.1577  0.1674  0.6378
 3719TIP3    H132716   3.411   2.922   1.095  1.2479 -0.0070  0.9362
 3719TIP3    H232717   3.407   2.927   0.944 -0.6320  0.1497  0.9638
 3720TIP3   OH232718   1.629   6.003   0.464 -0.1668  0.0383 -0.5319
 3720TIP3    H132719   1.610   5.978   0.374 -2.0699 -1.7911  0.2974
 3720TIP3    H232720   1.548   6.045   0.495 -0.5941 -1.8643  1.1103
 3721TIP3   OH232721   6.538   4.549   7.887 -0.1517 -0.6374  0.2024
 3721TIP3    H132722   6.520   4.491   7.812 -0.1855 -1.0219  0.5074
 3721TIP3    H232723   6.527   4.637   7.851 -0.8835 -0.8318 -0.0668
 3722TIP3   OH232724   2.410   2.773   0.002 -0.6237 -0.4519 -0.1755
 3722TIP3    H132725   2.483   2.819  -0.040 -1.1472  0.1861 -0.3901
 3722TIP3    H232726   2.401   2.817   0.087 -1.8382  0.5809 -0.8246
 3723TIP3   OH232727   2.210   1.565   1.178 -0.1847  0.5240 -0.1870
 3723TIP3    H132728   2.234   1.510   1.253 -0.4904  1.4468  0.6127
 3723TIP3    H232729   2.288   1.616   1.160  0.0763 -0.1004 -0.8852
 3724TIP3   OH232730   2.371   6.005   1.122  0.4402  0.3717 -0.2590
 3724TIP3    H132731   2.356   5.924   1.171 -0.9055  0.3277 -0.6990
 3724TIP3    H232732   2.424   5.978   1.047  0.7227  0.0547  0.0487
 3725TIP3   OH232733   4.523   6.435   8.007 -0.8375 -0.1816  0.0884
 3725TIP3    H132734   4.587   6.382   8.055  0.1625  0.3434 -0.6216
 3725TIP3    H232735   4.532   6.406   7.916 -2.0882 -0.5550  0.0610
 3726TIP3   OH232736   4.380   2.406   6.088 -0.9986  0.4889 -0.5024
 3726TIP3    H132737   4.404   2.327   6.039  0.2837 -0.2507  1.2163
 3726TIP3    H232738   4.462   2.454   6.099 -1.1926  0.5160  1.0686
 3727TIP3   OH232739   6.248   4.106   1.547  0.5746 -0.1068 -0.7293
 3727TIP3    H132740   6.335   4.140   1.528 -0.0331  1.3068 -1.0782
 3727TIP3    H232741   6.187   4.170   1.509 -0.6435 -1.9308 -2.0513
 3728TIP3   OH232742   1.657   4.397   0.766  0.5413  0.5119  0.0933
 3728TIP3    H132743   1.709   4.392   0.846 -0.2060  1.0045  0.6171
 3728TIP3    H232744   1.676   4.315   0.720 -0.0630 -0.4149  1.4228
 3729TIP3   OH232745   0.795   1.651   1.178 -0.2823  0.5981  0.2261
 3729TIP3    H132746   0.709   1.610   1.163  0.3242 -0.8918  0.5852
 3729TIP3    H232747   0.814   1.697   1.096 -1.1850  0.5122 -0.0491
 3730TIP3   OH232748   4.238   0.810   8.025 -0.2797 -0.3551  0.1576
 3730TIP3    H132749   4.207   0.878   8.085 -3.5986 -0.7152 -0.9195
 3730TIP3    H232750   4.210   0.728   8.065 -1.7261 -0.6516 -1.3396
 3731TIP3   OH232751   6.643   5.419   1.419 -0.9752 -0.0603 -0.0281
 3731TIP3    H132752   6.625   5.469   1.499 -1.5573  0.5269 -0.5178
 3731TIP3    H232753   6.664   5.486   1.353  2.3431 -0.6026  0.2752
 3732TIP3   OH232754   2.569   6.621   8.417  0.3911 -0.4763  0.3384
 3732TIP3    H132755   2.643   6.680   8.436 -0.3523  0.5240  0.1938
 3732TIP3    H232756   2.525   6.610   8.501  0.3759 -0.6092  0.3125
 3733TIP3   OH232757   1.641   2.025   8.365 -0.1012 -0.3604 -0.0046
 3733TIP3    H132758   1.690   2.055   8.289 -1.8671  0.7381 -0.7693
 3733TIP3    H232759   1.698   2.045   8.439  0.2195  1.8364 -0.7717
 3734TIP3   OH232760   4.497   5.316   6.867  0.2095 -0.0861  0.0007
 3734TIP3    H132761   4.453   5.231   6.856  1.7586 -0.9814  0.4357
 3734TIP3    H232762   4.532   5.314   6.956  2.0483  0.1111 -0.6692
 3735TIP3   OH232763   4.976   2.923   2.507 -0.3232 -0.8657  0.4661
 3735TIP3    H132764   4.909   2.864   2.472 -0.8091  0.8165 -1.6631
 3735TIP3    H232765   4.942   2.950   2.592 -2.4190 -0.0529 -0.5693
 3736TIP3   OH232766   6.422   0.545   0.256 -0.7062 -0.4840  0.1056
 3736TIP3    H132767   6.408   0.482   0.186 -1.0922 -0.9317  0.5767
 3736TIP3    H232768   6.368   0.620   0.232 -0.4184 -0.4219 -0.3475
 3737TIP3   OH232769   6.357   1.054   0.687  0.0148  0.3368  0.0517
 3737TIP3    H132770   6.338   1.139   0.727 -0.3586 -0.3811  1.4435
 3737TIP3    H232771   6.271   1.012   0.678  0.4087 -0.9218  1.7743
 3738TIP3   OH232772   4.821   2.743   7.849  0.0548  0.4940 -0.0684
 3738TIP3    H132773   4.912   2.772   7.857  0.3187 -0.8069  2.5940
 3738TIP3    H232774   4.824   2.673   7.784  1.3336 -0.7922  1.3084
 3739TIP3   OH232775   0.472   1.903   7.230  0.6024 -0.2583 -0.5933
 3739TIP3    H132776   0.443   1.982   7.184  1.1920  0.6904  0.5967
 3739TIP3    H232777   0.555   1.929   7.272  0.1871 -1.1023  0.8291
 3740TIP3   OH232778   5.151   0.394   7.761  0.3314  0.1295 -0.3665
 3740TIP3    H132779   5.239   0.362   7.780 -0.0591 -0.6071  0.2855
 3740TIP3    H232780   5.143   0.474   7.813  0.3108 -0.2841  0.2781
 3741TIP3   OH232781   5.889   4.718   0.773 -0.2579  0.2269 -0.3492
 3741TIP3    H132782   5.979   4.690   0.785 -0.8453 -1.2389  0.9492
 3741TIP3    H232783   5.851   4.651   0.716 -0.4763  0.9724 -1.1005
 3742TIP3   OH232784   2.592   1.950   6.479 -0.6960 -0.1131 -0.1655
 3742TIP3    H132785   2.569   2.004   6.403  1.5916 -0.7912 -1.4529
 3742TIP3    H232786   2.634   1.872   6.441  1.0013 -0.2443  1.7931
 3743TIP3   OH232787   0.244   2.799   8.570 -0.5826  0.2428 -0.0102
 3743TIP3    H132788   0.185   2.868   8.541 -0.0532  0.2406 -1.1441
 3743TIP3    H232789   0.191   2.719   8.564 -0.0634  0.0198 -2.5220
 3744TIP3   OH232790   5.599   3.477   0.797  0.0701 -0.9422  0.7715
 3744TIP3    H132791   5.602   3.382   0.807  1.1074 -0.9286  0.6205
 3744TIP3    H232792   5.642   3.494   0.713 -0.3114 -0.3482  0.6823
 3745TIP3   OH232793   0.363   1.388   8.291 -0.1362 -0.4536  0.0519
 3745TIP3    H132794   0.317   1.317   8.336 -2.3203  1.8100  1.6207
 3745TIP3    H232795   0.309   1.407   8.214 -1.1576  1.2854  1.1430
 3746TIP3   OH232796   4.982   0.059   0.923 -0.1967 -0.3577 -0.0343
 3746TIP3    H132797   4.983   0.014   1.008 -0.4158 -3.0260 -1.3283
 3746TIP3    H232798   4.894   0.095   0.915  0.3768  1.5874  1.5914
 3747TIP3   OH232799   0.440   5.785   2.302  0.2477  0.2518 -0.2627
 3747TIP3    H132800   0.488   5.706   2.328  0.9556  0.4069 -1.0490
 3747TIP3    H232801   0.504   5.837   2.253 -0.1474  1.4087  0.4007
 3748TIP3   OH232802   0.292   0.590   8.238  0.0448  0.5166 -0.0667
 3748TIP3    H132803   0.368   0.542   8.204  0.8989  1.1875  0.8556
 3748TIP3    H232804   0.317   0.615   8.327 -1.4097  0.4310  0.3972
 3749TIP3   OH232805   5.993   1.433   7.340 -0.2834 -0.2077  0.1845
 3749TIP3    H132806   5.939   1.355   7.348 -0.1002 -0.2580  1.0013
 3749TIP3    H232807   5.947   1.487   7.275 -0.7237 -0.7301  0.0560
 3750TIP3   OH232808   1.036   2.211   7.297 -0.5562 -0.3116 -0.5121
 3750TIP3    H132809   1.021   2.138   7.357  0.1102 -2.5591 -2.8988
 3750TIP3    H232810   0.964   2.205   7.234 -0.3975  1.0102 -0.8467
 3751TIP3   OH232811   2.846   0.334   0.188 -0.0261 -0.1225 -0.1683
 3751TIP3    H132812   2.902   0.295   0.121 -0.5694  1.6104 -1.7038
 3751TIP3    H232813   2.811   0.413   0.147 -1.7482  0.0871  1.5717
 3752TIP3   OH232814   2.182   5.780   2.274  0.1124  0.5961 -0.1805
 3752TIP3    H132815   2.239   5.710   2.303 -0.9493 -0.0291  0.4301
 3752TIP3    H232816   2.237   5.832   2.215  0.4984 -1.6000 -1.8892
 3753TIP3   OH232817   5.849   0.992   7.644  0.3325  0.2721  0.7123
 3753TIP3    H132818   5.874   0.900   7.640  0.2574  0.2490  0.7711
 3753TIP3    H232819   5.770   0.998   7.591  2.0428  0.8954 -1.9591
 3754TIP3   OH232820   3.106   0.269   6.511 -0.6673  0.1010 -0.0578
 3754TIP3    H132821   3.104   0.274   6.416 -1.3891  1.0880 -0.0132
 3754TIP3    H232822   3.017   0.241   6.535 -0.7769  0.7561  0.3466
 3755TIP3   OH232823   3.909   1.484   7.864 -0.5165  0.3310 -0.2910
 3755TIP3    H132824   3.982   1.426   7.886 -1.6476 -0.8076  0.6154
 3755TIP3    H232825   3.917   1.497   7.770  0.9436  0.3638 -0.1852
 3756TIP3   OH232826   5.573   1.442   1.018 -0.3707 -0.0094  0.1385
 3756TIP3    H132827   5.517   1.519   1.006 -1.3871 -0.7157  0.2130
 3756TIP3    H232828   5.550   1.410   1.105  0.3186 -0.1945  0.2599
 3757TIP3   OH232829   6.825   1.028   7.472  0.4563  0.2750  0.1180
 3757TIP3    H132830   6.734   1.005   7.487  0.4840 -1.2161 -1.6727
 3757TIP3    H232831   6.851   1.075   7.551 -2.0629  1.4600  0.3318
 3758TIP3   OH232832   5.031   0.907   7.600  0.4657  0.5981  0.0651
 3758TIP3    H132833   5.113   0.944   7.567  1.1314  0.2572  1.2900
 3758TIP3    H232834   4.963   0.966   7.567  1.3266  1.7083  0.2416
 3759TIP3   OH232835   2.251   1.267   0.298  0.2383 -0.5313 -0.0908
 3759TIP3    H132836   2.277   1.247   0.208 -0.6517 -2.8187  0.1050
 3759TIP3    H232837   2.184   1.202   0.319  0.8127 -0.4143  2.4303
 3760TIP3   OH232838   1.965   6.837   1.256 -0.1723 -0.5650  0.0311
 3760TIP3    H132839   1.900   6.890   1.211  0.7906 -0.1831 -0.9673
 3760TIP3    H232840   1.936   6.747   1.242 -0.6441 -0.3896 -0.1438
 3761TIP3   OH232841   6.103   6.828   1.568 -0.5635 -0.0126 -0.2834
 3761TIP3    H132842   6.198   6.840   1.563 -0.6505  1.4612  0.9189
 3761TIP3    H232843   6.092   6.747   1.619  0.0421 -0.1059 -0.2933
 3762TIP3   OH232844   4.094   3.553   7.334  0.0683  0.3410 -0.1184
 3762TIP3    H132845   4.097   3.584   7.425  0.7796  0.9790 -0.3466
 3762TIP3    H232846   4.170   3.496   7.326  0.1660  0.5050 -0.3842
 3763TIP3   OH232847   3.488   2.942   0.471  0.1711 -0.3724 -0.3315
 3763TIP3    H132848   3.570   2.894   0.474 -0.2333 -1.0275  0.6893
 3763TIP3    H232849   3.491   2.999   0.548 -1.2344 -1.9668  0.9711
 3764TIP3   OH232850   4.499   2.531   0.951  0.1289 -0.0048 -0.2630
 3764TIP3    H132851   4.569   2.524   1.015  1.1423 -1.7231 -1.4570
 3764TIP3    H232852   4.420   2.547   1.002  1.2059  0.7864  1.2110
 3765TIP3   OH232853   0.467   2.292   7.517  0.4599 -0.1725  0.6104
 3765TIP3    H132854   0.378   2.300   7.554 -0.0409 -0.5165 -0.4775
 3765TIP3    H232855   0.517   2.359   7.563 -0.4800  0.3312  0.9464
 3766TIP3   OH232856   4.499   4.354   7.133  0.2287 -0.2145  0.6128
 3766TIP3    H132857   4.446   4.424   7.097  0.3483 -1.1039 -1.3958
 3766TIP3    H232858   4.543   4.315   7.058  2.5056 -0.5504  1.9941
 3767TIP3   OH232859   1.908   3.691   8.675  0.2616  0.0337  0.7367
 3767TIP3    H132860   1.914   3.739   8.757  0.0084  1.1403  0.1326
 3767TIP3    H232861   1.866   3.752   8.614  1.8800 -0.1469 -0.6660
 3768TIP3   OH232862   2.144   5.313   8.318  0.0483  0.1013  0.5371
 3768TIP3    H132863   2.163   5.406   8.306 -1.5999  0.3454 -0.3682
 3768TIP3    H232864   2.167   5.296   8.410  0.8807  1.2465  0.5713
 3769TIP3   OH232865   0.502   1.020   6.204  0.4653 -0.1186  0.3293
 3769TIP3    H132866   0.498   1.116   6.212  2.5881 -0.0190  0.8367
 3769TIP3    H232867   0.500   1.005   6.109  0.3411  0.4604  0.2317
 3770TIP3   OH232868   1.218   4.849   7.881  0.1757  0.4077  0.5198
 3770TIP3    H132869   1.228   4.905   7.957  1.6534  0.8536  0.0224
 3770TIP3    H232870   1.270   4.771   7.901  1.3802  0.9378 -0.3819
 3771TIP3   OH232871   2.496   2.315   7.878  0.0159  0.0170  0.3029
 3771TIP3    H132872   2.413   2.333   7.922 -0.3779 -0.7069 -0.1268
 3771TIP3    H232873   2.559   2.374   7.920 -0.9888  1.6051 -0.3020
 3772TIP3   OH232874   2.349   6.447   0.703  0.0558 -0.2917 -0.3346
 3772TIP3    H132875   2.311   6.534   0.717 -0.5817 -0.4419 -1.0574
 3772TIP3    H232876   2.334   6.400   0.785 -0.1343  0.0850 -0.1502
 3773TIP3   OH232877   0.819   4.041   0.208  0.0487  0.3539 -0.3791
 3773TIP3    H132878   0.795   4.011   0.296 -1.3186  1.0956 -0.4723
 3773TIP3    H232879   0.914   4.048   0.211  0.0013  0.8609  1.2082
 3774TIP3   OH232880   1.470   5.541   0.895 -0.1785  0.0591 -0.0023
 3774TIP3    H132881   1.484   5.479   0.824  2.5448 -0.5359  0.9321
 3774TIP3    H232882   1.550   5.594   0.897 -0.3000  0.2552  2.3691
 3775TIP3   OH232883   0.874   2.486   0.913  0.6178  0.0390  0.4155
 3775TIP3    H132884   0.959   2.474   0.870  0.3882 -0.7865  0.1671
 3775TIP3    H232885   0.834   2.559   0.865  0.8802 -0.0554  0.0410
 3776TIP3   OH232886   3.477   3.699   7.271  0.6753  0.1908  0.2148
 3776TIP3    H132887   3.559   3.740   7.245  1.1377 -0.3905  0.7424
 3776TIP3    H232888   3.502   3.612   7.302 -0.1284  0.0425  0.4676
 3777TIP3   OH232889   6.174   6.611   7.844  0.1613 -0.8198 -0.3629
 3777TIP3    H132890   6.154   6.572   7.929  1.0105 -0.2589  0.1169
 3777TIP3    H232891   6.100   6.588   7.788 -1.2952  0.2898  1.0151
 3778TIP3   OH232892   2.307   5.086   2.091 -0.0084  0.0641 -0.0517
 3778TIP3    H132893   2.234   5.029   2.067  0.5707 -0.5041 -0.5178
 3778TIP3    H232894   2.289   5.169   2.047  0.2038 -0.4429 -1.1257
 3779TIP3   OH232895   0.607   3.840   0.408 -0.2888 -0.0221  0.1467
 3779TIP3    H132896   0.690   3.882   0.431 -0.8573  0.3248  1.6873
 3779TIP3    H232897   0.560   3.906   0.357 -0.5201  0.6482  1.1980
 3780TIP3   OH232898   3.793   1.329   8.070 -0.4574 -0.0155 -0.1305
 3780TIP3    H132899   3.785   1.405   8.011  0.1507 -0.8009 -1.2747
 3780TIP3    H232900   3.869   1.349   8.124  0.3659 -0.2516 -1.1605
 3781TIP3   OH232901   3.497   4.825   0.584  0.2885 -0.1771  0.0357
 3781TIP3    H132902   3.408   4.846   0.614  0.6764  2.1123 -0.2268
 3781TIP3    H232903   3.522   4.900   0.530  2.3464 -0.8346 -0.0047
 3782TIP3   OH232904   3.262   6.869   7.715 -0.0171 -0.3966  0.3236
 3782TIP3    H132905   3.201   6.795   7.717 -0.3314 -0.1314  1.6950
 3782TIP3    H232906   3.254   6.909   7.802  0.7300  0.7767 -0.1237
 3783TIP3   OH232907   4.424   3.823   6.858 -0.0130 -0.1983  0.2542
 3783TIP3    H132908   4.478   3.854   6.786  1.5756 -0.0967  1.4320
 3783TIP3    H232909   4.425   3.727   6.849  1.1760 -0.2605  0.7760
 3784TIP3   OH232910   5.672   2.202   1.908  0.7128 -0.0050  0.5274
 3784TIP3    H132911   5.584   2.170   1.893  0.4353  0.7031  0.6206
 3784TIP3    H232912   5.721   2.124   1.936 -0.3871 -0.0555  2.5727
 3785TIP3   OH232913   0.491   2.648   0.978 -0.1130  0.1101 -0.0249
 3785TIP3    H132914   0.467   2.571   0.927  0.0984 -0.0311  0.0864
 3785TIP3    H232915   0.447   2.721   0.934 -0.3149 -0.0744 -0.1280
 3786TIP3   OH232916   5.092   4.671   7.543  0.2354 -0.1850 -0.5165
 3786TIP3    H132917   5.098   4.750   7.489  0.8991 -1.0387 -1.7580
 3786TIP3    H232918   5.009   4.631   7.517 -0.2114  0.2010  0.2791
 3787TIP3   OH232919   6.217   4.262   0.620  0.3906  0.1538 -0.5749
 3787TIP3    H132920   6.177   4.269   0.707  0.1011  1.0438 -0.7604
 3787TIP3    H232921   6.186   4.178   0.586 -3.0674  1.6316 -1.5210
 3788TIP3   OH232922   5.559   1.794   8.626  0.5612 -0.3277 -0.4300
 3788TIP3    H132923   5.598   1.860   8.684  0.3402 -0.6082  0.0453
 3788TIP3    H232924   5.553   1.837   8.541  0.7512  0.1414 -0.2105
 3789TIP3   OH232925   0.439   1.626   6.320 -0.6615  0.2567 -0.5628
 3789TIP3    H132926   0.365   1.573   6.350 -0.0903  0.2522  0.9044
 3789TIP3    H232927   0.494   1.636   6.397  0.7831  0.4241 -1.5791
 3790TIP3   OH232928   4.335   6.826   7.788  0.6771  0.7037  0.6064
 3790TIP3    H132929   4.391   6.828   7.710  0.6595 -0.2905  0.5472
 3790TIP3    H232930   4.248   6.848   7.755  0.3570 -1.2268  0.0160
 3791TIP3   OH232931   3.721   2.974   8.643  0.7366 -0.4715 -0.5018
 3791TIP3    H132932   3.709   3.012   8.729 -1.5777 -1.5930 -0.2432
 3791TIP3    H232933   3.716   3.048   8.582  0.0320  0.0518  0.1859
 3792TIP3   OH232934   3.650   0.356   1.160  0.0081 -0.0741 -0.2549
 3792TIP3    H132935   3.650   0.265   1.130 -0.5166  0.1329 -0.9116
 3792TIP3    H232936   3.719   0.398   1.109 -0.2326  0.0537 -0.4813
 3793TIP3   OH232937   3.305   2.436   1.625 -0.0278  0.5276  0.0777
 3793TIP3    H132938   3.281   2.528   1.612  0.4995  0.9227  1.7452
 3793TIP3    H232939   3.306   2.399   1.536  0.9882  2.4395 -0.7574
 3794TIP3   OH232940   4.846   3.247   8.642  0.1790  0.2126 -0.2724
 3794TIP3    H132941   4.827   3.185   8.712  0.3075 -0.4441 -0.8129
 3794TIP3    H232942   4.766   3.298   8.633 -1.3222 -2.2814 -2.3045
 3795TIP3   OH232943   2.695   0.863   1.174 -0.3641  0.3118 -0.1724
 3795TIP3    H132944   2.717   0.825   1.259 -0.8938 -2.1090 -1.0465
 3795TIP3    H232945   2.610   0.904   1.187 -0.7624 -0.6476  0.3203
 3796TIP3   OH232946   0.366   6.580   1.852  0.3721  0.0085 -0.2332
 3796TIP3    H132947   0.340   6.491   1.875  0.8381  0.0131  0.3458
 3796TIP3    H232948   0.295   6.612   1.796 -1.2766  0.2581  1.8398
 3797TIP3   OH232949   0.565   3.299   8.314  0.1638 -0.2409 -0.0885
 3797TIP3    H132950   0.475   3.275   8.293  0.0152  0.8023 -0.7589
 3797TIP3    H232951   0.560   3.393   8.331  1.5929  0.5688 -3.3018
 3798TIP3   OH232952   1.124   5.248   1.262  0.2223 -0.1492 -0.2121
 3798TIP3    H132953   1.167   5.162   1.265  0.9944  0.1580 -1.5186
 3798TIP3    H232954   1.031   5.228   1.258  0.3432 -0.8974  0.5314
 3799TIP3   OH232955   3.749   5.303   7.886  0.2868  0.0223  0.0255
 3799TIP3    H132956   3.753   5.213   7.855  0.8007  0.0756 -0.0652
 3799TIP3    H232957   3.669   5.338   7.846  0.1651 -0.3433 -0.0609
 3800TIP3   OH232958   1.122   0.843   8.261 -0.0437 -1.0341  0.0835
 3800TIP3    H132959   1.162   0.757   8.250  0.1108 -0.8580 -0.7755
 3800TIP3    H232960   1.110   0.852   8.356  1.1894 -1.4447  0.2952
 3801TIP3   OH232961   1.865   1.449   7.924 -0.8265  0.7619  0.0758
 3801TIP3    H132962   1.807   1.450   8.000 -0.3430 -0.7847  0.4873
 3801TIP3    H232963   1.806   1.434   7.850 -1.0851  0.3186  0.3677
 3802TIP3   OH232964   5.343   5.317   8.131  0.8060 -0.5634 -0.6047
 3802TIP3    H132965   5.268   5.355   8.178  0.2596 -1.2154 -0.9264
 3802TIP3    H232966   5.418   5.369   8.160  0.7406 -1.8191  2.1054
 3803TIP3   OH232967   0.461   1.662   7.419  0.0276 -0.1286 -0.1521
 3803TIP3    H132968   0.403   1.717   7.366 -0.4316 -1.3484 -0.9558
 3803TIP3    H232969   0.535   1.643   7.362  0.5407  0.2510  0.3776
 3804TIP3   OH232970   3.137   0.129   1.435  0.5198 -0.0192  0.3117
 3804TIP3    H132971   3.120   0.042   1.470 -0.8324 -0.0353 -0.3570
 3804TIP3    H232972   3.158   0.115   1.343  1.6285  0.2566  0.5032
 3805TIP3   OH232973   2.398   1.582   2.297  0.3092  0.1694  0.1991
 3805TIP3    H132974   2.317   1.602   2.251 -1.0266 -0.1283  2.2778
 3805TIP3    H232975   2.431   1.668   2.327 -1.2721  0.0826  2.4669
 3806TIP3   OH232976   4.368   1.986   7.382  0.3163 -0.7290 -0.2682
 3806TIP3    H132977   4.387   1.927   7.309  1.2894  0.0557 -0.6764
 3806TIP3    H232978   4.443   1.977   7.440  0.5034  0.1210 -0.3596
 3807TIP3   OH232979   3.032   0.789   8.551  0.6250  0.5548 -0.0198
 3807TIP3    H132980   3.001   0.876   8.577 -3.2705 -0.4104 -0.7690
 3807TIP3    H232981   3.072   0.803   8.465 -1.3393  1.5160 -0.8551
 3808TIP3   OH232982   2.251   4.965   8.611  0.7722  0.6960 -0.4670
 3808TIP3    H132983   2.252   4.953   8.516 -0.4189 -2.1506 -0.1883
 3808TIP3    H232984   2.223   5.056   8.623 -0.5107  0.6835 -2.8143
 3809TIP3   OH232985   6.124   4.945   8.460 -0.5167 -0.0241  0.6347
 3809TIP3    H132986   6.119   4.849   8.466 -3.0531  0.0048  0.0826
 3809TIP3    H232987   6.096   4.975   8.547 -1.8725  0.1730  0.1623
 3810TIP3   OH232988   4.361   3.409   7.256 -0.3339  0.0195  0.9477
 3810TIP3    H132989   4.389   3.325   7.293 -0.7089 -1.1556 -1.3173
 3810TIP3    H232990   4.308   3.387   7.180  0.8963  2.2727 -0.7239
 3811TIP3   OH232991   5.575   4.865   1.575  0.4702  0.5337 -0.6518
 3811TIP3    H132992   5.669   4.849   1.569  0.3848 -1.0194  1.1792
 3811TIP3    H232993   5.568   4.941   1.633  0.5992  0.6298 -0.7613
 3812TIP3   OH232994   5.790   4.085   6.955 -0.2926 -0.2136 -0.2468
 3812TIP3    H132995   5.828   4.071   7.041 -0.1774 -1.8677 -0.5283
 3812TIP3    H232996   5.859   4.127   6.904 -0.3152  0.6456  0.4028
 3813TIP3   OH232997   1.154   2.787   1.013 -0.4342  0.3567 -0.0258
 3813TIP3    H132998   1.071   2.744   1.036 -0.8153  0.9241 -0.3251
 3813TIP3    H232999   1.221   2.725   1.041 -0.9807 -0.6651 -0.9100
 3814TIP3   OH233000   4.299   4.944   0.823 -0.2718  0.0139 -0.0614
 3814TIP3    H133001   4.353   5.002   0.877  0.0315 -0.4668  0.1572
 3814TIP3    H233002   4.211   4.951   0.860  0.3274 -2.0043  1.9558
 3815TIP3   OH233003   0.315   6.286   8.152  0.6541 -0.1889 -0.4307
 3815TIP3    H133004   0.245   6.339   8.189  1.6567  0.7348  0.2307
 3815TIP3    H233005   0.393   6.311   8.202  1.1885 -2.2921 -0.1062
 3816TIP3   OH233006   1.704   1.529   6.704  0.2157  0.4763  0.0159
 3816TIP3    H133007   1.771   1.591   6.733  0.9613 -0.1549 -0.3199
 3816TIP3    H233008   1.621   1.576   6.715  0.5988  0.8354  1.5864
 3817TIP3   OH233009   6.366   2.902   0.111  0.5047  1.0171  0.3269
 3817TIP3    H133010   6.287   2.851   0.091  0.4449 -0.4023  3.4521
 3817TIP3    H233011   6.410   2.913   0.027 -0.8999 -1.8380 -0.9166
 3818TIP3   OH233012   2.964   6.579   1.797 -0.0478 -0.0882  0.3491
 3818TIP3    H133013   3.057   6.556   1.786  0.2930  1.4947 -0.2583
 3818TIP3    H233014   2.956   6.601   1.890 -0.0684 -1.2015  0.6326
 3819TIP3   OH233015   5.842   5.071   7.639 -0.1777  0.2529  0.2164
 3819TIP3    H133016   5.877   5.064   7.728 -0.4586 -0.3329  0.2850
 3819TIP3    H233017   5.918   5.093   7.585  0.1291 -0.1097  0.4936
 3820TIP3   OH233018   3.043   3.028   0.606  0.2631 -0.4770  0.5836
 3820TIP3    H133019   2.983   3.051   0.536  0.3782 -0.7490  0.3947
 3820TIP3    H233020   2.988   2.983   0.671  0.1774 -0.3173  0.6237
 3821TIP3   OH233021   4.489   4.347   1.731 -0.0759  0.5193  0.1230
 3821TIP3    H133022   4.512   4.325   1.822 -0.2877 -0.2123  0.0102
 3821TIP3    H233023   4.513   4.269   1.681 -1.1220  0.4286 -0.2583
 3822TIP3   OH233024   4.853   4.644   7.337  0.1690 -0.2976  0.6472
 3822TIP3    H133025   4.782   4.635   7.274  0.2473 -1.2883  0.6808
 3822TIP3    H233026   4.868   4.738   7.343  0.0080 -0.1672 -0.6485
 3823TIP3   OH233027   0.768   2.158   0.942  0.0493  0.4798  0.5605
 3823TIP3    H133028   0.707   2.095   0.980  0.8605 -0.3329  0.5307
 3823TIP3    H233029   0.717   2.239   0.936 -1.4456 -0.4842 -0.6381
 3824TIP3   OH233030   5.377   5.337   7.206  0.4042 -0.2700 -0.1814
 3824TIP3    H133031   5.339   5.395   7.140 -1.2784 -0.4485  0.5681
 3824TIP3    H233032   5.317   5.342   7.280  1.2803 -1.4484  0.6601
 3825TIP3   OH233033   4.786   0.692   0.882  0.3542 -0.8096  0.5962
 3825TIP3    H133034   4.841   0.763   0.916 -1.6171  0.9818  0.2332
 3825TIP3    H233035   4.713   0.687   0.943 -1.0250 -0.5064 -0.9588
 3826TIP3   OH233036   0.811   4.221   1.569 -0.2477  0.4592  0.3191
 3826TIP3    H133037   0.832   4.191   1.481 -0.0948 -0.3185  0.6162
 3826TIP3    H233038   0.784   4.142   1.616 -2.2163  1.1594  0.4304
 3827TIP3   OH233039   1.221   4.911   7.387  0.1032 -0.3056  0.1343
 3827TIP3    H133040   1.137   4.906   7.433  0.2930 -1.6598  0.3863
 3827TIP3    H233041   1.286   4.923   7.457  0.1889 -0.0064  0.0051
 3828TIP3   OH233042   4.678   5.043   6.851  0.3733  0.1771 -0.8132
 3828TIP3    H133043   4.734   5.098   6.797  0.1735  2.4628  1.1395
 3828TIP3    H233044   4.592   5.084   6.847  0.3970  0.5881  1.3349
 3829TIP3   OH233045   5.802   1.512   2.192 -0.3056  0.8823  0.2459
 3829TIP3    H133046   5.843   1.457   2.125 -2.3823  0.0206 -0.4018
 3829TIP3    H233047   5.841   1.483   2.274 -1.2380 -1.5281 -0.0933
 3830TIP3   OH233048   4.160   2.732   8.176 -0.4023  0.7676 -0.1118
 3830TIP3    H133049   4.067   2.749   8.163 -0.4010  0.2507 -0.9072
 3830TIP3    H233050   4.201   2.819   8.169 -0.7152  0.8655 -0.9014
 3831TIP3   OH233051   3.777   6.125   1.200 -0.1425 -0.1129  0.2653
 3831TIP3    H133052   3.701   6.179   1.182  0.2075  0.3735  0.2389
 3831TIP3    H233053   3.741   6.044   1.236 -0.6216  0.4072  0.9660
 3832TIP3   OH233054   2.358   2.048   1.663 -0.4010  0.6179 -0.3245
 3832TIP3    H133055   2.279   1.998   1.684 -0.7628  1.1872 -0.3356
 3832TIP3    H233056   2.397   2.001   1.589 -1.1560  0.7927 -0.8407
 3833TIP3   OH233057   4.613   2.889   1.612  0.3718 -0.2910  0.0126
 3833TIP3    H133058   4.541   2.936   1.570  0.9325 -0.3896 -1.1038
 3833TIP3    H233059   4.687   2.948   1.606  0.1894  0.1970  2.0126
 3834TIP3   OH233060   4.211   2.407   2.733  0.9119  0.0936 -0.4635
 3834TIP3    H133061   4.306   2.399   2.720  0.9016 -0.0931 -0.4191
 3834TIP3    H233062   4.202   2.473   2.802  1.0439 -0.5954  0.2260
 3835TIP3   OH233063   3.785   2.003   2.625 -0.1642  0.0036  0.4659
 3835TIP3    H133064   3.788   2.069   2.693 -0.8764  0.9179 -0.3606
 3835TIP3    H233065   3.874   1.969   2.621  0.3211  1.2161  0.6206
 3836TIP3   OH233066   6.115   4.229   1.249 -0.0693 -0.3657 -0.2247
 3836TIP3    H133067   6.104   4.272   1.334  2.5349  0.0206  0.0056
 3836TIP3    H233068   6.109   4.136   1.269  0.7913 -0.2923  0.4779
 3837TIP3   OH233069   3.584   2.511   8.143 -0.1291 -0.4451  0.2530
 3837TIP3    H133070   3.618   2.462   8.068  0.9122 -1.7205  1.4893
 3837TIP3    H233071   3.495   2.477   8.155  0.6458 -2.3263  1.2285
 3838TIP3   OH233072   6.742   0.740   1.673 -0.3943 -0.1500 -0.0979
 3838TIP3    H133073   6.762   0.663   1.727 -2.1536  0.3842  1.4274
 3838TIP3    H233074   6.691   0.706   1.600 -0.4604 -0.5449  0.1306
 3839TIP3   OH233075   4.811   3.047   1.414  0.5658  0.0886 -0.3022
 3839TIP3    H133076   4.801   2.956   1.384 -1.8942  0.8440 -2.1296
 3839TIP3    H233077   4.880   3.083   1.359 -0.4985  0.0904 -1.6808
 3840TIP3   OH233078   1.083   2.574   1.265 -0.1585  0.0221 -0.1921
 3840TIP3    H133079   1.170   2.535   1.257 -0.6753 -1.1832 -0.0453
 3840TIP3    H233080   1.035   2.515   1.323 -1.3584  0.1698 -1.0044
 3841TIP3   OH233081   2.981   5.410   0.858 -0.0784  0.2693  0.2545
 3841TIP3    H133082   2.892   5.444   0.854 -0.2684 -0.0275  1.5401
 3841TIP3    H233083   2.972   5.321   0.892  0.5970 -0.3389 -1.0469
 3842TIP3   OH233084   2.300   6.562   7.994 -0.1380 -0.3065 -0.6210
 3842TIP3    H133085   2.205   6.569   7.992 -0.6225 -4.3731 -0.3056
 3842TIP3    H233086   2.325   6.608   8.074 -1.7784  0.9312 -0.7611
 3843TIP3   OH233087   4.756   2.858   2.088 -0.1083 -0.7000 -0.2704
 3843TIP3    H133088   4.774   2.803   2.164 -0.4055 -1.7471 -0.9352
 3843TIP3    H233089   4.837   2.854   2.037 -0.1841 -0.6409 -0.3934
 3844TIP3   OH233090   3.935   6.688   6.777  0.5434  0.3047 -0.2535
 3844TIP3    H133091   3.851   6.648   6.800  1.0780 -0.1637  0.9608
 3844TIP3    H233092   3.937   6.770   6.827  0.7281  0.4147 -0.4380
 3845TIP3   OH233093   1.798   2.959   1.295  0.8047 -0.0208  0.1770
 3845TIP3    H133094   1.875   2.902   1.302  0.5206 -0.5444 -0.7564
 3845TIP3    H233095   1.771   2.951   1.204 -1.5538 -1.4539  0.9097
 3846TIP3   OH233096   3.499   0.585   7.754  0.2415 -0.7137 -0.6144
 3846TIP3    H133097   3.529   0.496   7.738 -0.0785 -0.7147 -1.2186
 3846TIP3    H233098   3.542   0.637   7.685 -0.8313 -0.6526 -1.2500
 3847TIP3   OH233099   5.730   6.287   2.179 -0.3584 -1.2330  0.5113
 3847TIP3    H133100   5.643   6.254   2.202 -0.4877 -0.3955  1.2569
 3847TIP3    H233101   5.718   6.326   2.092 -0.8538 -0.7045  0.8048
 3848TIP3   OH233102   1.355   1.485   6.867  0.2094  0.0215 -0.2651
 3848TIP3    H133103   1.341   1.459   6.776  0.0232 -2.3082  0.3573
 3848TIP3    H233104   1.382   1.576   6.862 -0.2994  0.1048 -2.6104
 3849TIP3   OH233105   4.218   5.314   6.169  0.8463 -0.3631  0.2083
 3849TIP3    H133106   4.303   5.299   6.211  1.0344  2.9770  1.3689
 3849TIP3    H233107   4.155   5.307   6.241  0.6438  0.9987  0.1893
 3850TIP3   OH233108   2.648   1.862   0.917 -0.4723 -0.1238  0.2471
 3850TIP3    H133109   2.722   1.872   0.857 -0.3983  3.8348  0.6949
 3850TIP3    H233110   2.574   1.841   0.861  0.4578 -1.2814 -0.5736
 3851TIP3   OH233111   1.556   2.106   1.251  0.0200  0.0032 -0.3235
 3851TIP3    H133112   1.494   2.123   1.322 -0.7162  0.6524 -1.1003
 3851TIP3    H233113   1.513   2.038   1.198 -0.6570  1.3641 -1.5820
 3852TIP3   OH233114   0.083   5.222   0.046 -0.4299 -0.2073  0.1119
 3852TIP3    H133115   0.053   5.202   0.135 -0.7221 -0.7606 -0.1063
 3852TIP3    H233116   0.011   5.194  -0.010  0.0972 -0.6374 -0.3570
 3853TIP3   OH233117   5.059   2.121   0.541  0.4907  0.0925  0.0559
 3853TIP3    H133118   5.010   2.195   0.578 -0.2013 -0.2491 -0.1495
 3853TIP3    H233119   5.002   2.046   0.555  0.2734 -0.0804 -1.5376
 3854TIP3   OH233120   3.324   1.124   8.016 -0.1906  0.5221  0.0415
 3854TIP3    H133121   3.403   1.151   8.062 -0.7419  1.8766  0.2523
 3854TIP3    H233122   3.322   1.029   8.024  0.8895  0.5564  0.8850
 3855TIP3   OH233123   5.507   0.236   2.588  0.1758 -0.2412  0.1628
 3855TIP3    H133124   5.589   0.265   2.547 -0.1343  0.0870 -0.2359
 3855TIP3    H233125   5.438   0.276   2.534 -0.2427  1.2648  1.7176
 3856TIP3   OH233126   6.020   1.258   0.160 -0.3658 -0.2333 -1.4415
 3856TIP3    H133127   5.957   1.192   0.131 -1.0768 -0.5720  0.7021
 3856TIP3    H233128   5.969   1.316   0.217  0.7291  0.9579 -1.6161
 3857TIP3   OH233129   5.922   6.222   1.460 -0.0063 -0.0284  0.2829
 3857TIP3    H133130   5.874   6.206   1.541  0.9883 -1.3763  0.6410
 3857TIP3    H233131   5.954   6.136   1.433 -0.1425  0.4176 -1.4454
 3858TIP3   OH233132   0.048   4.296   1.456 -0.4890 -0.5399  0.0206
 3858TIP3    H133133   0.023   4.375   1.505  1.8331  0.1277  0.2329
 3858TIP3    H233134  -0.018   4.289   1.387 -0.7287  1.6507 -0.0583
 3859TIP3   OH233135   3.912   3.787   7.738  0.2428  0.4223 -0.0930
 3859TIP3    H133136   3.987   3.846   7.742  1.5461 -1.0614 -1.2765
 3859TIP3    H233137   3.849   3.832   7.682  0.3069  1.6002  0.7542
 3860TIP3   OH233138   3.285   4.529   6.965 -0.1446  0.0480 -0.3333
 3860TIP3    H133139   3.353   4.596   6.955  0.8049 -0.5658  1.4525
 3860TIP3    H233140   3.320   4.452   6.921  0.7442 -0.5108  1.2734
 3861TIP3   OH233141   2.451   4.084   0.725 -0.0350  0.4473  0.1868
 3861TIP3    H133142   2.401   4.083   0.807 -0.5686 -0.9863 -0.1330
 3861TIP3    H233143   2.401   4.140   0.666 -0.9479 -0.4844  0.0677
 3862TIP3   OH233144   0.395   4.894   1.507  0.6230 -0.4202  0.3520
 3862TIP3    H133145   0.473   4.884   1.562  1.9122 -1.6106 -1.5754
 3862TIP3    H233146   0.414   4.969   1.452 -1.3070  1.7405  2.3946
 3863TIP3   OH233147   0.934   2.340   0.059  0.6671  0.3510  0.3474
 3863TIP3    H133148   0.851   2.375   0.027  1.3649  0.4982 -1.4279
 3863TIP3    H233149   0.910   2.279   0.129 -0.8622  0.9860  0.4015
 3864TIP3   OH233150   5.648   6.508   1.408 -0.3321 -0.0167  0.0600
 3864TIP3    H133151   5.718   6.570   1.425 -1.7310  1.8593 -0.5981
 3864TIP3    H233152   5.691   6.431   1.371  1.3432  1.1387 -0.4732
 3865TIP3   OH233153   0.001   4.387   6.891  0.5480  0.3575  0.4295
 3865TIP3    H133154   0.051   4.308   6.872  1.0319  0.9020 -0.6817
 3865TIP3    H233155  -0.023   4.422   6.805 -1.5068  0.2952  0.9171
 3866TIP3   OH233156   5.467   5.259   0.163  0.0752  0.0808  0.1177
 3866TIP3    H133157   5.421   5.200   0.102  0.1982 -1.4474  1.4559
 3866TIP3    H233158   5.559   5.237   0.152  0.2170  0.7489 -0.0827
 3867TIP3   OH233159   1.735   4.169   0.271  0.2932 -0.3640  0.0285
 3867TIP3    H133160   1.672   4.205   0.334 -0.9286 -0.4046 -1.1330
 3867TIP3    H233161   1.709   4.078   0.260  0.5997 -0.3994 -0.4263
 3868TIP3   OH233162   6.143   6.205   7.856 -0.1535  0.2553 -0.0102
 3868TIP3    H133163   6.205   6.136   7.835 -2.3007 -1.2337 -2.0135
 3868TIP3    H233164   6.121   6.244   7.771 -1.8383  0.7618  0.6145
 3869TIP3   OH233165   2.258   3.163   0.193 -0.2505 -0.5040  0.1879
 3869TIP3    H133166   2.327   3.140   0.131  0.4665 -0.2479  0.8750
 3869TIP3    H233167   2.179   3.170   0.139  0.5848  0.9624 -0.9360
 3870TIP3   OH233168   5.427   0.035   6.815 -0.2792  0.2080 -1.1047
 3870TIP3    H133169   5.440  -0.059   6.826  0.9236  0.2588 -1.9467
 3870TIP3    H233170   5.376   0.061   6.892  1.9577 -0.6204  0.7922
 3871TIP3   OH233171   1.273   5.845   7.302  0.3837 -0.5019  0.0647
 3871TIP3    H133172   1.366   5.827   7.285  0.1822 -1.2180 -0.3029
 3871TIP3    H233173   1.274   5.900   7.381  1.1707  0.4070 -0.5581
 3872TIP3   OH233174   5.658   0.771   6.163 -0.1028  0.4088  0.1744
 3872TIP3    H133175   5.710   0.826   6.221 -1.2188  0.6216  1.0012
 3872TIP3    H233176   5.638   0.693   6.215 -1.2395  0.6633  0.1424
 3873TIP3   OH233177   3.100   4.744   0.773  1.0903  0.1402  0.0905
 3873TIP3    H133178   3.106   4.649   0.787  0.4139  0.3496  2.2187
 3873TIP3    H233179   3.105   4.781   0.861 -1.2197  1.9493 -0.4519
 3874TIP3   OH233180   0.024   2.467   1.453 -0.6249  0.4354  0.1610
 3874TIP3    H133181   0.008   2.550   1.408 -0.9767  0.3632  0.1474
 3874TIP3    H233182   0.009   2.401   1.385 -0.0160  0.3742  0.0830
 3875TIP3   OH233183   1.550   6.398   0.935  0.3483 -0.0123  0.2293
 3875TIP3    H133184   1.557   6.490   0.962  0.6893 -0.1462  0.6126
 3875TIP3    H233185   1.639   6.373   0.911  0.3248 -0.3464  0.4803
 3876TIP3   OH233186   0.783   6.268   8.602  0.4026 -0.2020 -0.1689
 3876TIP3    H133187   0.848   6.309   8.544  1.6194 -0.8550  0.6705
 3876TIP3    H233188   0.836   6.221   8.667 -0.9278 -0.3467  0.8491
 3877TIP3   OH233189   4.213   6.846   1.885 -0.2667 -0.8344 -0.5131
 3877TIP3    H133190   4.134   6.817   1.839 -1.3108  4.3972 -2.7236
 3877TIP3    H233191   4.184   6.863   1.974 -0.9050 -1.4834 -0.5867
 3878TIP3   OH233192   3.018   0.555   0.766 -0.2651  0.0475  0.0213
 3878TIP3    H133193   3.065   0.638   0.767 -1.6629  0.8792  0.4597
 3878TIP3    H233194   3.007   0.534   0.673  2.8256 -1.3290 -0.1289
 3879TIP3   OH233195   1.973   3.303   7.432 -0.0351 -0.1951 -0.1597
 3879TIP3    H133196   2.040   3.243   7.464  0.6026  0.1391 -0.8302
 3879TIP3    H233197   1.988   3.384   7.481 -0.8071 -0.5227  0.6457
 3880TIP3   OH233198   5.048   1.183   7.808  0.3022  0.0253  0.3690
 3880TIP3    H133199   5.068   1.138   7.890  1.3683  0.0633  0.1524
 3880TIP3    H233200   5.105   1.141   7.744  0.1642  0.6331 -0.1573
 3881TIP3   OH233201   2.101   5.916   1.459 -0.0693 -0.3167  0.0065
 3881TIP3    H133202   2.086   5.882   1.548 -2.0019 -0.9075 -0.4876
 3881TIP3    H233203   2.124   6.008   1.473 -0.8793 -0.2573  1.1144
 3882TIP3   OH233204   2.353   3.775   0.349 -0.0004 -0.3203  0.3461
 3882TIP3    H133205   2.446   3.775   0.372 -0.0843  0.2209  0.7141
 3882TIP3    H233206   2.349   3.827   0.269  0.0397 -0.5346  0.2036
 3883TIP3   OH233207   0.329   0.291   0.295 -0.2245 -0.5198  0.2202
 3883TIP3    H133208   0.300   0.240   0.370  1.3547 -1.7259  0.0714
 3883TIP3    H233209   0.393   0.235   0.251  0.6280  1.0813 -0.6881
 3884TIP3   OH233210   0.599   4.624   0.142 -0.1436 -0.0174 -0.0127
 3884TIP3    H133211   0.524   4.565   0.141  1.2375 -1.8945  1.4322
 3884TIP3    H233212   0.562   4.710   0.121 -2.8484 -0.6953  1.5906
 3885TIP3   OH233213   4.574   4.633   0.766 -0.5244 -0.5464 -0.3339
 3885TIP3    H133214   4.612   4.596   0.686 -0.7700 -1.7788  0.0869
 3885TIP3    H233215   4.538   4.557   0.812  0.9508 -0.1213  1.6790
 3886TIP3   OH233216   2.272   6.524   1.439 -0.1058  0.1538  0.0037
 3886TIP3    H133217   2.277   6.542   1.345 -1.9192 -1.4391 -0.4578
 3886TIP3    H233218   2.313   6.438   1.449 -0.9514 -0.2104  0.4640
 3887TIP3   OH233219   0.746   5.327   6.456  0.2397  0.1042 -0.0571
 3887TIP3    H133220   0.786   5.261   6.512 -0.9343  0.4793  1.2740
 3887TIP3    H233221   0.821   5.372   6.416  1.1362 -0.1526  1.2517
 3888TIP3   OH233222   6.717   5.525   7.147 -1.0355  0.6205  0.4629
 3888TIP3    H133223   6.723   5.620   7.144  2.5375  0.5181  0.5954
 3888TIP3    H233224   6.727   5.502   7.239 -0.1314  0.0970  0.2512
 3889TIP3   OH233225   0.670   2.854   8.019  0.1829  0.0921  0.2232
 3889TIP3    H133226   0.756   2.844   8.061  0.5671  0.2886 -0.4844
 3889TIP3    H233227   0.674   2.941   7.978 -1.6061  1.6159  2.9570
 3890TIP3   OH233228   6.147   4.555   0.847 -0.2349  0.1430 -0.1458
 3890TIP3    H133229   6.237   4.531   0.869  0.0494  1.0293 -0.3053
 3890TIP3    H233230   6.095   4.517   0.918  0.3350  0.2253  0.3261
 3891TIP3   OH233231   1.853   1.993   6.969  0.6978  0.7382 -0.4045
 3891TIP3    H133232   1.847   1.966   6.877 -3.1514  0.9380 -0.3857
 3891TIP3    H233233   1.908   1.926   7.009 -0.8915 -1.8226 -2.1515
 3892TIP3   OH233234   4.930   4.840   0.528  0.1234 -0.6172 -0.1588
 3892TIP3    H133235   4.888   4.877   0.451 -1.2027  0.0578  0.8539
 3892TIP3    H233236   5.000   4.785   0.493 -0.4660 -0.3564 -1.8297
 3893TIP3   OH233237   6.264   4.691   6.895  0.5893 -0.4962 -0.5102
 3893TIP3    H133238   6.177   4.716   6.866  0.3966  2.5589  2.2382
 3893TIP3    H233239   6.288   4.618   6.837 -3.1311 -0.5298 -2.2963
 3894TIP3   OH233240   2.852   0.447   2.450  0.4720 -0.7214  0.5271
 3894TIP3    H133241   2.882   0.361   2.482  2.2956  0.0794  1.1195
 3894TIP3    H233242   2.771   0.463   2.498  0.3819 -1.8964  0.8030
 3895TIP3   OH233243   1.578   5.172   7.880 -0.2415  0.2231  0.2279
 3895TIP3    H133244   1.630   5.098   7.912 -3.0583 -2.4031 -0.8077
 3895TIP3    H233245   1.631   5.210   7.810 -0.2970 -3.4881 -2.0771
 3896TIP3   OH233246   6.520   3.936   0.787 -0.0785  0.5231 -0.8214
 3896TIP3    H133247   6.588   3.875   0.759  0.9355  1.3430 -0.2404
 3896TIP3    H233248   6.566   4.019   0.798 -0.4941  0.4660  2.4684
 3897TIP3   OH233249   0.493   0.406   1.922 -0.1371  0.2573  0.1808
 3897TIP3    H133250   0.495   0.477   1.987 -1.6934 -0.0189  0.5552
 3897TIP3    H233251   0.419   0.352   1.948 -0.5778 -0.0456 -1.6469
 3898TIP3   OH233252   6.641   0.321   0.192  0.2559 -0.6707 -0.4430
 3898TIP3    H133253   6.653   0.373   0.272 -0.6604 -1.1397  0.0214
 3898TIP3    H233254   6.653   0.383   0.121 -0.0832  0.0267  0.0876
 3899TIP3   OH233255   0.777   1.585   8.683 -0.2007  0.7203  0.3686
 3899TIP3    H133256   0.695   1.535   8.686 -0.5031  1.1357 -0.5913
 3899TIP3    H233257   0.815   1.563   8.598 -0.1042  1.7504  0.1314
 3900TIP3   OH233258   4.865   1.567   2.446 -0.3525  0.4934  0.7122
 3900TIP3    H133259   4.882   1.645   2.499  0.9083 -0.0124  1.0951
 3900TIP3    H233260   4.821   1.506   2.506  1.6158 -0.3126  1.4412
 3901TIP3   OH233261   5.259   5.779   8.262  0.1725  0.0584 -0.2326
 3901TIP3    H133262   5.302   5.819   8.337  2.3401 -0.4561 -1.1258
 3901TIP3    H233263   5.327   5.724   8.221 -1.8998 -2.4626 -0.5701
 3902TIP3   OH233264   3.173   5.522   0.665 -0.1247 -0.3106 -0.7415
 3902TIP3    H133265   3.257   5.536   0.710  0.0337  3.5586 -1.9081
 3902TIP3    H233266   3.117   5.482   0.732  1.5771  0.4282  1.2494
 3903TIP3   OH233267   6.133   6.198   6.758  0.5193 -0.4206 -0.5298
 3903TIP3    H133268   6.062   6.139   6.733  0.3984 -0.9425  0.9183
 3903TIP3    H233269   6.208   6.168   6.707  0.1809 -1.1435 -0.6184
 3904TIP3   OH233270   1.240   2.220   6.186  0.0923  0.4021  0.5424
 3904TIP3    H133271   1.335   2.230   6.194  0.0402  1.9808 -0.3188
 3904TIP3    H233272   1.228   2.130   6.154  1.2073 -0.2029  1.7326
 3905TIP3   OH233273   5.362   3.088   1.102  0.2225 -0.5441  0.4757
 3905TIP3    H133274   5.385   3.105   1.193  0.4526  0.6882  0.1942
 3905TIP3    H233275   5.309   3.008   1.105 -0.4148 -0.0843  1.7708
 3906TIP3   OH233276   3.125   1.636   6.796 -0.4122  0.0554  0.5011
 3906TIP3    H133277   3.210   1.593   6.786 -0.8270 -0.3402 -1.9256
 3906TIP3    H233278   3.119   1.694   6.720 -2.2847  0.1215  0.6651
 3907TIP3   OH233279   1.323   6.061   7.934 -0.1255  0.2135  0.1331
 3907TIP3    H133280   1.253   6.039   7.873  1.0179  0.4678 -1.3121
 3907TIP3    H233281   1.374   5.981   7.943  0.1094  0.3697  0.2052
 3908TIP3   OH233282   5.338   5.282   7.583 -0.8354 -0.7971 -0.3260
 3908TIP3    H133283   5.407   5.219   7.602  0.5957  0.8563  0.2223
 3908TIP3    H233284   5.282   5.280   7.661  0.4524  0.1619  0.6544
 3909TIP3   OH233285   6.270   5.226   0.995 -0.5622  0.0221  0.4317
 3909TIP3    H133286   6.273   5.238   1.090 -0.9937 -0.5444  0.5269
 3909TIP3    H233287   6.193   5.275   0.967 -0.8234 -0.3551  0.4723
 3910TIP3   OH233288   2.394   5.576   7.049  0.4289 -0.4248  0.0309
 3910TIP3    H133289   2.433   5.489   7.064 -1.5086 -1.4002 -0.2512
 3910TIP3    H233290   2.399   5.587   6.954  1.3267  0.1296  0.1282
 3911TIP3   OH233291   3.785   1.955   8.679 -0.1097  0.6636  0.0172
 3911TIP3    H133292   3.740   1.958   8.594 -1.1513  0.5989  0.5483
 3911TIP3    H233293   3.855   1.892   8.667 -0.1825  0.7326 -0.8267
 3912TIP3   OH233294   2.672   0.016   1.899 -0.4262 -0.2721  0.1801
 3912TIP3    H133295   2.705  -0.011   1.985  0.9386 -1.1273 -0.5654
 3912TIP3    H233296   2.750   0.018   1.843 -1.2928  0.1661 -1.0640
 3913TIP3   OH233297   2.552   6.222   0.652  0.2848 -0.0619 -0.3444
 3913TIP3    H133298   2.475   6.268   0.618  1.1348  0.9258 -0.9828
 3913TIP3    H233299   2.600   6.194   0.574  0.6444 -0.5687  0.0484
 3914TIP3   OH233300   3.203   2.776   8.246 -0.3182 -0.4598 -0.4770
 3914TIP3    H133301   3.177   2.864   8.273  1.6100  1.2942 -3.7314
 3914TIP3    H233302   3.292   2.766   8.278  0.1155 -0.4323 -1.6158
 3915TIP3   OH233303   5.118   4.448   0.687  0.0159 -0.0860 -0.3653
 3915TIP3    H133304   5.054   4.445   0.758 -1.0477  0.3113 -1.2678
 3915TIP3    H233305   5.199   4.415   0.726 -0.3843  0.6310  1.1644
 3916TIP3   OH233306   0.716   5.646   6.543  0.1261 -0.1019  0.0936
 3916TIP3    H133307   0.633   5.599   6.550  0.3687 -0.4500  0.8962
 3916TIP3    H233308   0.770   5.606   6.612  1.1089 -0.2028 -0.7197
 3917TIP3   OH233309   4.638   0.707   0.358 -0.9293  0.0282  0.1978
 3917TIP3    H133310   4.618   0.699   0.451 -1.2991  0.0239  0.1169
 3917TIP3    H233311   4.633   0.801   0.340 -1.3290 -0.0154  0.0765
 3918TIP3   OH233312   6.414   2.067   7.289 -0.0151 -0.1665  0.4301
 3918TIP3    H133313   6.325   2.044   7.264  0.4877 -1.5816 -0.1395
 3918TIP3    H233314   6.417   2.053   7.384 -0.2522 -0.6514  0.3675
 3919TIP3   OH233315   0.671   6.350   7.246 -0.0276 -0.3265 -0.3835
 3919TIP3    H133316   0.583   6.319   7.223  0.3965 -1.5772 -0.4083
 3919TIP3    H233317   0.680   6.434   7.201 -0.3547 -1.2891 -2.3240
 3920TIP3   OH233318   6.380   0.799   8.550  0.3111 -0.1818  0.0385
 3920TIP3    H133319   6.392   0.831   8.461 -1.5594  0.9900  0.1526
 3920TIP3    H233320   6.295   0.834   8.577  0.4185 -1.2597  1.9652
 3921TIP3   OH233321   2.461   3.189   6.867  0.1262 -0.0036 -0.1648
 3921TIP3    H133322   2.434   3.191   6.959 -0.7154 -0.5390 -0.3868
 3921TIP3    H233323   2.556   3.189   6.870  0.1424  2.1695  0.6461
 3922TIP3   OH233324   3.920   1.588   7.361 -0.4015  0.3125  0.3204
 3922TIP3    H133325   3.936   1.597   7.267  2.5042  1.1121  0.7971
 3922TIP3    H233326   3.950   1.671   7.399  0.1502 -0.6473  2.1057
 3923TIP3   OH233327   0.472   4.009   6.719  0.1782  0.0255  0.0301
 3923TIP3    H133328   0.460   4.008   6.814  1.9115 -0.8402  0.2803
 3923TIP3    H233329   0.463   3.918   6.692  1.2601  0.0172 -0.3824
 3924TIP3   OH233330   0.285   5.877   1.752  0.8260 -0.4520 -0.0638
 3924TIP3    H133331   0.247   5.796   1.718  1.1862 -0.4728 -0.4237
 3924TIP3    H233332   0.209   5.931   1.774  0.5178  0.4212 -2.9059
 3925TIP3   OH233333   4.795   3.280   0.461 -0.0334 -0.1592  0.0360
 3925TIP3    H133334   4.776   3.320   0.376  2.0366 -0.6851 -0.7436
 3925TIP3    H233335   4.721   3.304   0.516  0.0875  2.9141 -0.9671
 3926TIP3   OH233336   0.270   0.162   0.543  0.3922  0.1953  0.4844
 3926TIP3    H133337   0.177   0.182   0.533  0.1423 -1.4623 -0.7884
 3926TIP3    H233338   0.308   0.243   0.580 -0.9395  2.1848 -2.1673
 3927TIP3   OH233339   3.284   6.209   0.925  0.1187  0.3185  0.3442
 3927TIP3    H133340   3.373   6.211   0.890 -0.0740  0.6719 -0.1464
 3927TIP3    H233341   3.246   6.293   0.898 -1.0915 -0.7228 -1.4297
 3928TIP3   OH233342   6.812   5.152   2.010  0.1371  0.1346  0.3754
 3928TIP3    H133343   6.827   5.060   1.986  2.5998  0.1791  1.4342
 3928TIP3    H233344   6.900   5.189   2.018 -0.7510  3.2410 -2.1817
 3929TIP3   OH233345   4.819   2.390   1.934 -0.0247 -0.4628  0.3280
 3929TIP3    H133346   4.792   2.322   1.872  1.2088  0.0979 -0.8908
 3929TIP3    H233347   4.748   2.454   1.932 -0.3032 -0.7791  0.0018
 3930TIP3   OH233348   3.982   2.873   6.277  0.5636 -0.1270  0.1412
 3930TIP3    H133349   4.052   2.811   6.258  0.1247 -0.9336  1.0687
 3930TIP3    H233350   3.923   2.826   6.336  0.8266  1.5313  1.8494
 3931TIP3   OH233351   4.368   3.573   0.830 -0.1027  0.0932  0.2058
 3931TIP3    H133352   4.296   3.633   0.813 -1.3665 -1.3888  0.1739
 3931TIP3    H233353   4.379   3.574   0.925 -1.3872 -1.0048  0.3925
 3932TIP3   OH233354   2.569   2.590   7.971  0.5481  0.2037 -0.2308
 3932TIP3    H133355   2.622   2.577   7.893 -0.4454 -0.7992 -0.7730
 3932TIP3    H233356   2.546   2.683   7.970 -0.0502  0.0599 -1.5412
 3933TIP3   OH233357   5.421   0.323   1.375 -0.1969  0.7626 -0.4038
 3933TIP3    H133358   5.382   0.318   1.288  0.3545 -2.5919 -0.5820
 3933TIP3    H233359   5.506   0.279   1.366 -0.1085  0.3780  1.7996
 3934TIP3   OH233360   6.157   0.813   0.425  0.1004  0.1431 -0.2412
 3934TIP3    H133361   6.132   0.898   0.390 -0.0809  0.4553  0.6304
 3934TIP3    H233362   6.074   0.771   0.449  0.1966 -0.2333 -0.5435
 3935TIP3   OH233363   1.958   4.998   8.177 -0.0333  0.2154 -0.2184
 3935TIP3    H133364   1.972   4.935   8.248  2.0743 -0.5057 -1.1974
 3935TIP3    H233365   1.936   5.080   8.222  0.8437 -0.3327  1.2837
 3936TIP3   OH233366   3.272   3.036   0.738 -0.1486  0.7122 -0.1777
 3936TIP3    H133367   3.185   3.040   0.699  0.5711  1.1172 -1.8538
 3936TIP3    H233368   3.274   2.952   0.784 -1.8593  1.3025  1.0628
 3937TIP3   OH233369   2.252   2.738   8.080  0.0344 -0.3603  0.5294
 3937TIP3    H133370   2.269   2.670   8.145  2.6421 -0.6305 -0.3091
 3937TIP3    H233371   2.230   2.690   8.000  1.4115 -0.2317  0.0570
 3938TIP3   OH233372   4.715   1.491   8.514 -0.1231 -0.7675 -0.1730
 3938TIP3    H133373   4.734   1.488   8.420  0.4541 -1.7402 -0.0366
 3938TIP3    H233374   4.795   1.527   8.553 -0.9676  1.2919 -0.1771
 3939TIP3   OH233375   2.587   2.646   0.928  0.5629 -0.6875  0.2989
 3939TIP3    H133376   2.623   2.734   0.932  0.2647 -0.5981  1.3534
 3939TIP3    H233377   2.497   2.655   0.959  0.4346 -1.3165  0.1249
 3940TIP3   OH233378   5.625   0.936   0.221 -0.2496 -0.1926  0.0565
 3940TIP3    H133379   5.537   0.970   0.232 -0.8262 -1.0492 -1.5863
 3940TIP3    H233380   5.628   0.856   0.274 -0.9838 -0.9939 -1.0821
 3941TIP3   OH233381   1.819   4.190   7.542 -0.3438  0.4399 -0.1352
 3941TIP3    H133382   1.782   4.146   7.465  0.3576 -1.2563  0.4546
 3941TIP3    H233383   1.744   4.235   7.582 -1.9247 -2.9658  1.0887
 3942TIP3   OH233384   4.658   4.371   2.311  0.1256 -0.9229 -0.3079
 3942TIP3    H133385   4.737   4.391   2.362  0.6175 -1.4758 -0.8410
 3942TIP3    H233386   4.591   4.355   2.377  0.1054  0.8368  0.1511
 3943TIP3   OH233387   3.336   0.900   0.491  0.3861  0.2310 -0.1863
 3943TIP3    H133388   3.242   0.913   0.483  0.5419  1.2299 -0.4616
 3943TIP3    H233389   3.345   0.823   0.548 -0.5710  1.4845  1.7609
 3944TIP3   OH233390   0.947   2.308   1.389 -0.1577  0.1170  0.5050
 3944TIP3    H133391   0.904   2.340   1.309 -0.9140  0.1791  0.9224
 3944TIP3    H233392   0.957   2.214   1.375  0.7450  0.2968 -0.1252
 3945TIP3   OH233393   5.016   6.013   2.542  0.1037  0.3222 -0.2493
 3945TIP3    H133394   4.998   6.077   2.473 -2.5916  0.3822  0.3959
 3945TIP3    H233395   4.956   5.941   2.524  2.1514 -1.5054 -0.1867
 3946TIP3   OH233396   5.063   6.138   8.448  0.1044  0.0714  0.0142
 3946TIP3    H133397   5.007   6.075   8.403 -1.0765  1.4062 -0.4678
 3946TIP3    H233398   5.089   6.093   8.528 -2.0863 -0.4449  0.5159
 3947TIP3   OH233399   5.997   5.165   8.286  0.0071 -0.5616  0.4165
 3947TIP3    H133400   6.071   5.106   8.301  0.4320  0.6070  3.9602
 3947TIP3    H233401   5.944   5.121   8.219  2.7129 -2.5197 -0.6152
 3948TIP3   OH233402   0.811   6.164   1.442 -0.3169  0.3118  0.3336
 3948TIP3    H133403   0.848   6.161   1.530  1.2503  0.8206 -0.2676
 3948TIP3    H233404   0.762   6.247   1.440  1.5053  1.4396  0.0756
 3949TIP3   OH233405   0.075   2.721   7.548 -0.4700 -0.0326  0.0290
 3949TIP3    H133406   0.121   2.647   7.588 -2.6011  0.0262  2.8165
 3949TIP3    H233407   0.062   2.693   7.457  0.1535 -2.3977  0.5819
 3950TIP3   OH233408   2.944   2.967   8.292 -0.0312 -0.3019 -0.0206
 3950TIP3    H133409   2.953   2.887   8.344  0.4526 -0.3537 -0.1856
 3950TIP3    H233410   2.938   2.937   8.202  3.5816 -0.0419 -0.4809
 3951TIP3   OH233411   5.325   0.808   1.076  0.4361  0.2731  0.2853
 3951TIP3    H133412   5.372   0.888   1.099  0.2189  0.0440  1.6417
 3951TIP3    H233413   5.321   0.758   1.158 -0.4758 -0.5826 -0.2488
 3952TIP3   OH233414   4.327   0.647   6.811  0.3404 -0.5346 -0.5488
 3952TIP3    H133415   4.381   0.685   6.742  0.9410  1.7237  1.0697
 3952TIP3    H233416   4.239   0.643   6.773  0.5929  0.9386 -1.3433
 3953TIP3   OH233417   1.559   0.518   7.296  0.4535 -0.1327  0.7112
 3953TIP3    H133418   1.520   0.502   7.382 -0.2757  1.0935  0.6200
 3953TIP3    H233419   1.638   0.569   7.315  3.0550 -3.8534  1.0466
 3954TIP3   OH233420   6.651   2.275   0.061  0.1092  0.0556 -0.3206
 3954TIP3    H133421   6.706   2.199   0.043  0.1462 -0.2758  1.0748
 3954TIP3    H233422   6.694   2.319   0.134 -0.9934  0.2870  0.2154
 3955TIP3   OH233423   3.366   3.899   8.258  0.2523  0.0607 -0.3664
 3955TIP3    H133424   3.297   3.834   8.251 -0.7021  1.0343 -0.1600
 3955TIP3    H233425   3.383   3.926   8.168 -1.4477  1.6563 -0.2532
 3956TIP3   OH233426   6.353   6.449   1.785 -0.0296 -0.1794 -0.2707
 3956TIP3    H133427   6.350   6.413   1.874  1.1207 -1.1859 -0.6102
 3956TIP3    H233428   6.380   6.375   1.730  0.6157  0.7653 -1.2702
 3957TIP3   OH233429   5.391   4.813   2.445  0.3594 -0.4297  0.1381
 3957TIP3    H133430   5.476   4.843   2.476 -0.8934  1.0626  2.3568
 3957TIP3    H233431   5.407   4.722   2.419  2.2419 -0.7846  2.2213
 3958TIP3   OH233432   4.079   0.684   6.713  0.6550 -0.3742  0.2172
 3958TIP3    H133433   4.065   0.631   6.634  0.1895 -0.8997  0.6373
 3958TIP3    H233434   4.015   0.649   6.776  0.9591  0.0981  0.7927
 3959TIP3   OH233435   4.912   3.226   7.481 -0.0777  0.1761 -0.1905
 3959TIP3    H133436   4.919   3.185   7.568  0.2944  0.4125 -0.1071
 3959TIP3    H233437   4.819   3.218   7.459  0.1988 -2.0388 -0.8212
 3960TIP3   OH233438   5.268   5.872   2.634  0.3956  0.6954 -0.3356
 3960TIP3    H133439   5.232   5.797   2.586  1.3460 -0.9846  1.4328
 3960TIP3    H233440   5.193   5.929   2.648 -0.7227 -0.6992 -0.3661
 3961TIP3   OH233441   5.884   5.175   1.891  0.0033  0.2966  0.0423
 3961TIP3    H133442   5.829   5.249   1.864 -0.6357 -0.3338 -0.4546
 3961TIP3    H233443   5.940   5.210   1.960 -0.0101  1.3415 -0.4567
 3962TIP3   OH233444   4.062   3.061   1.417  0.3465 -0.2574 -0.3171
 3962TIP3    H133445   4.140   3.079   1.365  0.1702  0.0028 -0.4936
 3962TIP3    H233446   4.055   2.966   1.418  1.7339 -0.3982  1.2724
 3963TIP3   OH233447   6.383   4.501   1.070 -0.0269  0.0530 -0.3210
 3963TIP3    H133448   6.456   4.513   1.009  0.0329  0.5714 -0.1508
 3963TIP3    H233449   6.391   4.410   1.100  0.8734  0.2649  0.1123
 3964TIP3   OH233450   3.105   6.677   6.380  0.1419 -0.1762  0.7411
 3964TIP3    H133451   3.148   6.738   6.320  0.3821  0.1035  1.1905
 3964TIP3    H233452   3.050   6.732   6.435 -1.5878 -0.6220 -0.4585
 3965TIP3   OH233453   4.633   3.316   1.409 -0.6614 -0.7465  0.5160
 3965TIP3    H133454   4.725   3.305   1.387 -1.1902 -0.7032 -2.0329
 3965TIP3    H233455   4.633   3.337   1.503  2.1478  2.5622 -0.0352
 3966TIP3   OH233456   6.135   2.541   2.347  0.4064 -0.3697  0.2338
 3966TIP3    H133457   6.192   2.501   2.281  0.4150 -0.6909  0.4299
 3966TIP3    H233458   6.053   2.491   2.341 -0.7224  1.5559 -1.6459
 3967TIP3   OH233459   3.523   5.358   7.520  0.3110 -1.0702  0.1659
 3967TIP3    H133460   3.445   5.398   7.559  0.8035 -0.4160  0.5093
 3967TIP3    H233461   3.518   5.266   7.545  0.6887 -0.6519  1.9715
 3968TIP3   OH233462   4.444   3.451   0.378 -0.3665 -0.1912 -0.2612
 3968TIP3    H133463   4.465   3.358   0.365  0.2978 -0.0745 -0.0890
 3968TIP3    H233464   4.377   3.451   0.446  0.4717 -0.4975  0.5885
 3969TIP3   OH233465   6.366   1.563   1.863 -0.5959 -0.5266  0.2167
 3969TIP3    H133466   6.434   1.573   1.930  2.0775  0.6985 -2.4808
 3969TIP3    H233467   6.363   1.469   1.846  2.4388 -0.4327 -1.4085
 3970TIP3   OH233468   4.601   1.487   0.338 -0.3834 -0.1039  0.4079
 3970TIP3    H133469   4.537   1.437   0.287  1.2963 -0.9566 -0.9779
 3970TIP3    H233470   4.652   1.420   0.383 -0.6990  0.5869  1.8372
 3971TIP3   OH233471   0.055   3.551   1.062  0.3416 -0.1948 -0.5990
 3971TIP3    H133472  -0.005   3.476   1.066  1.2129 -0.8585  0.6522
 3971TIP3    H233473   0.135   3.516   1.025  0.7702  0.0979  0.0293
 3972TIP3   OH233474   1.570   4.126   0.911  0.2286 -0.7658 -0.3165
 3972TIP3    H133475   1.618   4.093   0.987  0.2521  0.3961  0.1988
 3972TIP3    H233476   1.634   4.123   0.839 -0.1675 -3.0729 -0.6395
 3973TIP3   OH233477   2.989   2.786   0.277 -0.0859  0.2545 -0.4494
 3973TIP3    H133478   2.930   2.856   0.246  0.0407 -0.2164 -1.8339
 3973TIP3    H233479   3.072   2.830   0.294 -0.4402  0.6933  0.2205
 3974TIP3   OH233480   4.758   1.023   8.602  0.7641  0.5490 -0.3663
 3974TIP3    H133481   4.835   0.993   8.553  0.4363 -0.3738 -0.3423
 3974TIP3    H233482   4.795   1.058   8.684  1.0734 -2.8054  1.1178
 3975TIP3   OH233483   3.119   1.753   1.331 -0.1021  0.3211 -0.2953
 3975TIP3    H133484   3.062   1.781   1.402  0.2548  0.2898  0.0101
 3975TIP3    H233485   3.087   1.667   1.306 -1.0972  0.9044 -1.1173
 3976TIP3   OH233486   2.165   2.956   1.838  0.2420 -0.7058 -0.2972
 3976TIP3    H133487   2.260   2.951   1.847  0.4293  0.3437 -1.4025
 3976TIP3    H233488   2.133   2.876   1.880  1.3516  0.5324  3.3063
 3977TIP3   OH233489   2.797   1.057   1.510  0.1161 -0.0319  0.0308
 3977TIP3    H133490   2.879   1.032   1.551 -1.0168 -1.1521  1.7427
 3977TIP3    H233491   2.739   1.078   1.583 -1.6225 -0.8659 -1.0406
 3978TIP3   OH233492   3.900   1.720   2.403 -0.0041 -0.3781 -0.0370
 3978TIP3    H133493   3.988   1.713   2.366 -0.2385 -0.4693 -0.5756
 3978TIP3    H233494   3.909   1.786   2.472  0.4174 -0.1694 -0.2858
 3979TIP3   OH233495   5.920   4.699   2.520  0.0019  0.3760 -0.2411
 3979TIP3    H133496   5.924   4.722   2.613  1.8424 -1.6764  0.2810
 3979TIP3    H233497   5.850   4.633   2.514  2.9897 -3.2159  0.7781
 3980TIP3   OH233498   2.956   2.060   2.307 -0.7989  0.0213  0.4427
 3980TIP3    H133499   3.044   2.040   2.276  0.0423  1.3817  1.8166
 3980TIP3    H233500   2.915   1.975   2.321  0.5148 -0.6415  0.3741
 3981TIP3   OH233501   2.541   0.961   7.681 -0.3899 -0.0433 -0.9995
 3981TIP3    H133502   2.565   0.896   7.747  0.1245  1.6551  0.5600
 3981TIP3    H233503   2.540   1.044   7.728  2.8316  1.7465 -3.7025
 3982TIP3   OH233504   2.928   1.754   1.524 -0.1176 -0.4741 -0.4651
 3982TIP3    H133505   2.916   1.843   1.559  0.2441  0.0683 -1.6539
 3982TIP3    H233506   2.839   1.719   1.520 -0.2743 -0.1417 -0.0488
 3983TIP3   OH233507   2.290   6.670   1.672  0.8983 -0.5285 -0.0686
 3983TIP3    H133508   2.317   6.618   1.747 -0.8265  0.3672  1.2428
 3983TIP3    H233509   2.287   6.608   1.599  0.2612 -1.9688  1.1412
 3984TIP3   OH233510   5.671   4.085   1.489 -0.5597  0.1804 -0.3712
 3984TIP3    H133511   5.584   4.115   1.461 -0.9121  0.3202  0.8434
 3984TIP3    H233512   5.655   4.033   1.568  0.4692  0.2850 -0.0786
 3985TIP3   OH233513   6.610   0.149   0.740 -0.1623 -0.2178 -0.4807
 3985TIP3    H133514   6.548   0.218   0.716  1.4419  1.3042 -0.5006
 3985TIP3    H233515   6.618   0.095   0.661  0.1056  0.8272 -1.1883
 3986TIP3   OH233516   2.340   2.704   1.069 -0.2794  0.1616 -0.4756
 3986TIP3    H133517   2.406   2.745   1.125  1.9630 -1.9861 -1.3540
 3986TIP3    H233518   2.272   2.674   1.130  1.4839 -1.0066  1.0275
 3987TIP3   OH233519   3.196   3.362   1.133 -0.0289  0.3849  0.5236
 3987TIP3    H133520   3.177   3.411   1.053  2.4972  0.1393 -0.2913
 3987TIP3    H233521   3.194   3.428   1.202 -1.1436  0.7908  0.1329
 3988TIP3   OH233522   0.897   2.480   6.417  0.2355 -0.5563 -0.6002
 3988TIP3    H133523   0.862   2.467   6.505  1.1679  0.5187 -0.0390
 3988TIP3    H233524   0.991   2.460   6.426  1.1086  2.9118 -0.4401
 3989TIP3   OH233525   4.875   1.830   1.637  0.3530 -0.5519  0.2705
 3989TIP3    H133526   4.793   1.833   1.686  0.4017  0.8330  0.2810
 3989TIP3    H233527   4.931   1.773   1.689 -0.3370 -0.8922  0.6584
 3990TIP3   OH233528   3.695   6.579   7.554  0.2900  0.0594  0.1891
 3990TIP3    H133529   3.664   6.609   7.469  1.8598 -2.6993 -1.5099
 3990TIP3    H233530   3.762   6.642   7.580  0.6909  0.2487 -1.2462
 3991TIP3   OH233531   0.639   4.324   2.423 -0.1012  0.7938  0.5235
 3991TIP3    H133532   0.548   4.311   2.398 -0.1241  2.0408 -0.0890
 3991TIP3    H233533   0.651   4.267   2.500 -1.5120  0.9656  0.8985
 3992TIP3   OH233534   0.997   1.101   0.393  0.1257 -0.2348 -0.3483
 3992TIP3    H133535   0.977   1.186   0.354 -0.7824 -1.0537 -1.7499
 3992TIP3    H233536   0.919   1.079   0.445 -0.2489 -0.8279 -1.1375
 3993TIP3   OH233537   6.522   0.099   7.355  0.6323  0.1294  0.4230
 3993TIP3    H133538   6.477   0.154   7.291  0.6492  1.1260  1.2404
 3993TIP3    H233539   6.461   0.092   7.428  1.0286 -0.1184  0.7321
 3994TIP3   OH233540   6.488   2.880   1.633 -0.1573 -0.2899  0.1466
 3994TIP3    H133541   6.531   2.794   1.629  1.8797  0.6582  0.5164
 3994TIP3    H233542   6.469   2.893   1.726 -0.1615 -0.2066  0.1341
 3995TIP3   OH233543   0.784   3.387   1.723 -0.1458 -0.2717  0.0460
 3995TIP3    H133544   0.700   3.413   1.685  0.3516  0.5841 -0.4869
 3995TIP3    H233545   0.847   3.449   1.688  1.0156 -1.9308 -0.9307
 3996TIP3   OH233546   2.359   1.318   7.664  0.2998 -0.2244 -0.3272
 3996TIP3    H133547   2.265   1.333   7.674  0.7472  1.4627  2.5916
 3996TIP3    H233548   2.391   1.398   7.620  0.6363  0.3610  0.9319
 3997TIP3   OH233549   5.795   5.289   1.094 -0.6020 -0.7224 -0.3785
 3997TIP3    H133550   5.725   5.275   1.157 -0.8243 -0.2723 -0.5180
 3997TIP3    H233551   5.761   5.356   1.035 -0.4973 -1.3072 -1.1261
 3998TIP3   OH233552   4.888   1.917   0.261  0.1744  0.0700  0.0969
 3998TIP3    H133553   4.834   1.985   0.301 -1.7967  0.6107 -3.0856
 3998TIP3    H233554   4.948   1.964   0.204  0.1129 -0.7521 -0.6739
 3999TIP3   OH233555   6.537   0.338   0.565  0.4036 -0.2472  0.1333
 3999TIP3    H133556   6.501   0.280   0.498  0.5227 -0.6978  0.4553
 3999TIP3    H233557   6.475   0.411   0.569 -1.0373 -1.4642  1.3645
 4000TIP3   OH233558   5.229   0.283   1.566  0.9510  0.2878 -0.6082
 4000TIP3    H133559   5.294   0.275   1.635  0.4410  0.0215 -0.1599
 4000TIP3    H233560   5.281   0.294   1.486  1.5404  0.5087 -0.2034
 4001TIP3   OH233561   3.674   5.631   1.764  0.8485 -0.0262  0.0532
 4001TIP3    H133562   3.731   5.560   1.736  1.9482  0.0085  2.0534
 4001TIP3    H233563   3.653   5.611   1.856 -2.2906  0.0219 -0.5289
 4002TIP3   OH233564   2.177   2.599   8.311 -0.3479 -0.6926 -0.4052
 4002TIP3    H133565   2.198   2.536   8.381  0.6954 -1.9881 -1.8257
 4002TIP3    H233566   2.156   2.545   8.235 -1.4643  0.6908 -1.1345
 4003TIP3   OH233567   0.935   3.546   7.028 -0.2132 -0.8557 -0.0405
 4003TIP3    H133568   1.015   3.591   7.053 -0.1926 -2.1265  2.5493
 4003TIP3    H233569   0.960   3.453   7.023 -1.3713 -1.2081  0.2277
 4004TIP3   OH233570   3.081   1.485   7.726 -0.1730 -0.3977 -0.5194
 4004TIP3    H133571   3.070   1.395   7.757  0.4673  0.3788  2.3195
 4004TIP3    H233572   2.992   1.520   7.722 -0.3477 -0.8294 -0.4751
 4005TIP3   OH233573   6.541   0.664   7.609 -0.2920  0.2316 -0.2982
 4005TIP3    H133574   6.513   0.585   7.657  0.2736 -0.5579 -1.2218
 4005TIP3    H233575   6.636   0.655   7.602 -0.0432  1.7369  0.8315
 4006TIP3   OH233576   5.654   0.480   0.148 -0.0416 -0.4184  0.5216
 4006TIP3    H133577   5.583   0.416   0.156  0.7386 -1.3571  0.0832
 4006TIP3    H233578   5.673   0.483   0.054  1.4986 -1.2909  0.7850
 4007TIP3   OH233579   2.356   6.544   1.956  0.1573 -0.4986 -0.2035
 4007TIP3    H133580   2.367   6.559   2.050  0.8535 -0.6543 -0.2529
 4007TIP3    H233581   2.440   6.572   1.918  0.6746 -2.3610 -0.5500
 4008TIP3   OH233582   2.960   4.978   0.439 -0.5981  0.3827 -0.7414
 4008TIP3    H133583   2.943   4.887   0.412  0.4446 -0.1805  0.4577
 4008TIP3    H233584   3.054   4.982   0.454 -0.7245  1.5059 -0.1604
 4009TIP3   OH233585   2.383   0.620   2.433  0.2297  0.7492  0.0957
 4009TIP3    H133586   2.392   0.561   2.507 -0.0575 -0.9323 -1.1427
 4009TIP3    H233587   2.289   0.622   2.416  0.2441  1.5296  0.0872
 4010TIP3   OH233588   3.068   1.932   1.940 -0.1241 -0.6146  0.2346
 4010TIP3    H133589   3.097   1.942   2.031 -0.9180  1.1567  0.3121
 4010TIP3    H233590   2.973   1.921   1.945 -0.7293  3.1341 -0.5029
 4011TIP3   OH233591   4.348   4.655   1.008  0.0034 -0.0396 -0.4536
 4011TIP3    H133592   4.265   4.693   0.980  1.0609  1.6763 -1.4093
 4011TIP3    H233593   4.397   4.729   1.044  1.1575 -1.0016  0.0197
 4012TIP3   OH233594   4.166   4.452   7.870  0.3115 -0.0403  0.6221
 4012TIP3    H133595   4.233   4.471   7.804  0.4259  1.8825  1.2311
 4012TIP3    H233596   4.215   4.431   7.949  0.2375  1.4178  1.0821
 4013TIP3   OH233597   0.864   1.734   0.916 -0.3137 -0.1652 -0.0345
 4013TIP3    H133598   0.782   1.763   0.876 -0.3485  1.2538  0.9848
 4013TIP3    H233599   0.890   1.657   0.865 -1.4900  0.2574 -1.3336
 4014TIP3   OH233600   6.295   0.051   0.285  0.0385  0.6109 -0.2335
 4014TIP3    H133601   6.387   0.060   0.259  0.3430  1.7826  1.1236
 4014TIP3    H233602   6.294   0.073   0.378 -1.3681 -1.0824  0.2168
 4015TIP3   OH233603   3.058   2.090   7.043 -0.0060  0.3212 -0.1453
 4015TIP3    H133604   2.974   2.134   7.052 -0.3232  0.1346 -1.7885
 4015TIP3    H233605   3.078   2.094   6.949  1.5645 -0.1022  0.1269
 4016TIP3   OH233606   1.669   1.168   6.289 -0.3591  0.3011  0.5267
 4016TIP3    H133607   1.621   1.218   6.356 -1.0655  4.4400 -2.6808
 4016TIP3    H233608   1.601   1.134   6.231  0.3446 -0.4623  0.1254
 4017TIP3   OH233609   3.044   6.696   0.957  0.1914 -0.3293 -0.6825
 4017TIP3    H133610   2.988   6.721   0.884 -2.0289 -0.0245  0.9976
 4017TIP3    H233611   3.014   6.609   0.982 -1.2369  0.6936  1.6277
 4018TIP3   OH233612   6.675   3.399   1.730  0.2885 -0.3889 -0.1052
 4018TIP3    H133613   6.601   3.455   1.705  0.3176 -0.9007 -1.4360
 4018TIP3    H233614   6.642   3.345   1.801 -0.0722  0.5666  0.4795
 4019TIP3   OH233615   5.558   2.065   1.622  0.4342  0.2713  0.2096
 4019TIP3    H133616   5.571   2.000   1.691 -0.3004 -0.9385 -0.7225
 4019TIP3    H233617   5.646   2.082   1.588  0.5067 -1.6197 -0.6889
 4020TIP3   OH233618   5.563   2.804   0.970  0.0384  0.4421 -0.7874
 4020TIP3    H133619   5.567   2.750   1.049 -1.2828  1.4249  0.0067
 4020TIP3    H233620   5.469   2.817   0.956  0.3030  1.4967 -1.6709
 4021TIP3   OH233621   6.472   4.992   8.417 -0.5444  0.3202 -0.3023
 4021TIP3    H133622   6.481   4.952   8.503  0.3412  1.3557  0.1021
 4021TIP3    H233623   6.519   4.933   8.358 -0.4230  0.0559  0.0542
 4022TIP3   OH233624   0.305   0.861   7.818  0.0131 -0.0224  0.6084
 4022TIP3    H133625   0.387   0.843   7.865 -0.4493  2.3332  2.4999
 4022TIP3    H233626   0.313   0.952   7.790 -2.9302  1.2515  3.2635
 4023TIP3   OH233627   4.048   4.008   0.721  0.0199 -0.1441  0.1140
 4023TIP3    H133628   4.096   4.021   0.803  0.8910 -0.2274 -0.3790
 4023TIP3    H233629   3.978   4.073   0.724 -0.2838 -0.5014  1.1704
 4024TIP3   OH233630   6.415   1.507   7.569  0.0493  0.3164  0.0856
 4024TIP3    H133631   6.490   1.467   7.526 -0.9401 -0.6423 -0.8196
 4024TIP3    H233632   6.395   1.584   7.515  0.0282  0.2480 -0.0033
 4025TIP3   OH233633   3.147   6.586   2.328 -0.1549  0.0844 -0.1915
 4025TIP3    H133634   3.059   6.622   2.342  0.3974  1.0816  0.9773
 4025TIP3    H233635   3.154   6.517   2.394  0.3502  0.8194  0.5432
 4026TIP3   OH233636   3.851   2.960   7.902  0.2492 -0.6437 -0.6452
 4026TIP3    H133637   3.903   2.880   7.913 -2.3372 -2.4493 -0.4859
 4026TIP3    H233638   3.760   2.928   7.897 -0.9485  2.3582  0.0122
 4027TIP3   OH233639   4.911   2.474   8.604 -0.4239  0.3711 -0.4581
 4027TIP3    H133640   4.889   2.528   8.679 -1.1757 -1.5996  0.8258
 4027TIP3    H233641   4.837   2.484   8.544  0.2156  2.0103 -1.0375
 4028TIP3   OH233642   4.946   6.110   7.318 -0.0740 -0.4370 -0.1122
 4028TIP3    H133643   4.987   6.158   7.246 -1.6034 -1.4121 -1.7210
 4028TIP3    H233644   5.018   6.087   7.376  1.1030  1.0410 -0.9243
 4029TIP3   OH233645   0.996   6.700   0.262  0.4739 -0.1275 -0.2525
 4029TIP3    H133646   0.947   6.617   0.263  0.2267  0.0175 -0.4243
 4029TIP3    H233647   1.064   6.687   0.196  0.6907 -0.3407  0.0092
 4030TIP3   OH233648   4.574   5.668   7.504  0.0272 -0.5597 -0.4023
 4030TIP3    H133649   4.661   5.707   7.493  0.1528 -0.6410  0.2420
 4030TIP3    H233650   4.515   5.742   7.517 -0.2409 -0.4161 -2.2223
 4031TIP3   OH233651   5.668   6.099   1.904  0.2280 -0.0195 -0.3031
 4031TIP3    H133652   5.678   6.071   1.995  0.5358  1.3363  0.1018
 4031TIP3    H233653   5.592   6.158   1.906  0.9087  0.8834 -0.7164
 4032TIP3   OH233654   3.359   5.810   1.429  0.1637 -0.3620  0.0222
 4032TIP3    H133655   3.437   5.830   1.378  0.2434 -1.5996 -0.3602
 4032TIP3    H233656   3.287   5.843   1.375  0.4394  2.0639  1.0006
 4033TIP3   OH233657   5.962   1.843   0.959 -0.1211 -0.3438  0.0227
 4033TIP3    H133658   5.917   1.778   1.013 -0.4874 -1.1706 -1.2525
 4033TIP3    H233659   6.011   1.792   0.895 -1.0783  0.6237 -1.5328
 4034TIP3   OH233660   2.076   2.373   7.152  0.9419 -0.0967  0.2260
 4034TIP3    H133661   2.056   2.312   7.081  1.8374  0.7179 -0.7555
 4034TIP3    H233662   1.992   2.389   7.194 -0.0685  1.1092 -2.0587
 4035TIP3   OH233663   5.106   5.803   6.973 -0.0631 -0.5878  0.5670
 4035TIP3    H133664   5.157   5.882   6.956  0.1944 -0.8973 -0.1285
 4035TIP3    H233665   5.048   5.827   7.046 -0.5675  0.5113 -0.1678
 4036TIP3   OH233666   2.599   0.971   2.346  0.1437 -0.4745 -0.0347
 4036TIP3    H133667   2.642   1.002   2.426  0.9772 -0.7638 -0.3569
 4036TIP3    H233668   2.516   1.019   2.343  1.2849  1.6208 -0.4228
 4037TIP3   OH233669   2.923   3.531   6.791 -0.1662 -0.2444 -0.1664
 4037TIP3    H133670   2.847   3.584   6.768 -0.0750  0.5089  1.1848
 4037TIP3    H233671   2.918   3.519   6.885  0.1407 -2.1970 -0.3507
 4038TIP3   OH233672   5.408   2.036   8.142  0.1740  0.6565  0.3165
 4038TIP3    H133673   5.366   2.067   8.062  0.7314  0.0491 -0.2261
 4038TIP3    H233674   5.464   1.963   8.113  0.4978  0.5264  1.2322
 4039TIP3   OH233675   5.619   2.141   0.683  0.0641  0.1472 -0.9557
 4039TIP3    H133676   5.698   2.114   0.730  1.0095  1.3721 -1.7671
 4039TIP3    H233677   5.618   2.236   0.691 -0.5091  0.2617 -2.2055
 4040TIP3   OH233678   6.246   4.937   1.231 -0.2814  0.0760 -0.3015
 4040TIP3    H133679   6.330   4.892   1.241 -1.2477 -1.9605 -0.7782
 4040TIP3    H233680   6.218   4.914   1.142 -1.7121  0.0655  0.1411
 4041TIP3   OH233681   6.678   6.566   6.227 -0.4726  0.2714 -0.7408
 4041TIP3    H133682   6.716   6.646   6.263 -0.0859  0.9239 -2.4667
 4041TIP3    H233683   6.589   6.563   6.262 -0.4947  1.4786 -0.6650
 4042TIP3   OH233684   5.657   1.532   8.640 -0.0239 -0.1616  0.0499
 4042TIP3    H133685   5.642   1.624   8.619  1.0171  0.4085  1.6608
 4042TIP3    H233686   5.658   1.488   8.555 -1.4188  1.1515 -0.6880
 4043TIP3   OH233687   6.062   2.944   1.941  0.3355  0.2232  0.4002
 4043TIP3    H133688   6.047   3.030   1.980  0.7037  0.0880  0.8380
 4043TIP3    H233689   5.976   2.919   1.905  1.0243  2.6101 -3.4742
 4044TIP3   OH233690   2.770   2.534   0.260  0.3589  0.6545 -0.1883
 4044TIP3    H133691   2.704   2.505   0.323  0.4649 -1.1845 -0.8581
 4044TIP3    H233692   2.743   2.623   0.236 -2.5097 -0.3747 -1.2310
 4045TIP3   OH233693   5.454   4.406   8.142  0.5999 -0.4548  0.1092
 4045TIP3    H133694   5.537   4.454   8.151 -0.2521  0.8844  1.3914
 4045TIP3    H233695   5.390   4.474   8.119 -0.0778 -1.5532 -1.3962
 4046TIP3   OH233696   5.588   0.804   1.307  0.7166 -0.0210 -0.1131
 4046TIP3    H133697   5.606   0.771   1.219  1.1291  0.8549 -0.3664
 4046TIP3    H233698   5.541   0.886   1.292  0.1113 -0.2524  0.4994
 4047TIP3   OH233699   6.615   3.686   1.033  0.6950  0.0594 -0.2492
 4047TIP3    H133700   6.536   3.650   0.994  0.4298 -0.3733  0.6507
 4047TIP3    H233701   6.642   3.621   1.098  0.5651  1.1771  0.9776
 4048TIP3   OH233702   6.495   1.649   6.943 -0.1074  0.4548 -0.2562
 4048TIP3    H133703   6.559   1.709   6.905 -1.0644  0.1728 -2.4537
 4048TIP3    H233704   6.419   1.656   6.886 -0.5032 -2.3354 -0.1854
 4049TIP3   OH233705   4.981   0.238   0.331  0.0426  0.4691  0.2980
 4049TIP3    H133706   5.051   0.187   0.291 -0.9369  0.6272 -1.8074
 4049TIP3    H233707   4.997   0.327   0.301 -1.8964  0.2524 -1.6309
 4050TIP3   OH233708   6.543   6.585   0.014 -0.0540 -0.2444  0.6214
 4050TIP3    H133709   6.479   6.603   0.083  1.7475  0.4058  2.2284
 4050TIP3    H233710   6.583   6.670  -0.004  2.8455 -1.0977  2.3489
 4051TIP3   OH233711   0.152   0.841   0.635 -0.7572  0.3257 -0.4545
 4051TIP3    H133712   0.140   0.927   0.676 -0.9460  0.1378 -0.1077
 4051TIP3    H233713   0.213   0.796   0.694  0.3130  0.6529 -1.2789
 4052TIP3   OH233714   3.891   0.134   1.420 -0.7849 -0.5955 -0.4517
 4052TIP3    H133715   3.865   0.056   1.372  1.2232 -0.5271 -1.7820
 4052TIP3    H233716   3.986   0.124   1.432 -0.2597  2.1033 -1.6398
 4053TIP3   OH233717   5.187   2.484   0.310  0.0953 -0.6885  0.0949
 4053TIP3    H133718   5.229   2.526   0.235 -3.2888 -0.3254 -1.7939
 4053TIP3    H233719   5.227   2.396   0.314  0.5766 -0.6135 -1.9560
 4054TIP3   OH233720   3.642   0.232   0.021  0.1508  0.3767  0.0879
 4054TIP3    H133721   3.570   0.176   0.052 -0.0960  0.7417  0.1896
 4054TIP3    H233722   3.719   0.201   0.068  0.1646 -0.3409 -0.3814
 4055TIP3   OH233723   0.196   4.792   0.598  0.0640  0.4410  0.0605
 4055TIP3    H133724   0.183   4.782   0.692  0.0669  0.5730  0.0746
 4055TIP3    H233725   0.120   4.749   0.559 -0.9081  2.0163  0.1559
 4056TIP3   OH233726   2.845   1.872   6.669  0.0057  0.3923 -0.6200
 4056TIP3    H133727   2.873   1.862   6.578 -0.3623 -1.1141 -0.6100
 4056TIP3    H233728   2.877   1.958   6.696  3.8567 -0.7730 -0.8624
 4057TIP3   OH233729   6.572   0.951   7.543 -0.9099  0.0369  0.3630
 4057TIP3    H133730   6.558   0.860   7.567  0.0928 -0.0730  0.5826
 4057TIP3    H233731   6.512   1.000   7.599 -0.3522 -0.3916  1.3758
 4058TIP3   OH233732   3.731   2.759   6.832 -0.4594  0.2120  0.2929
 4058TIP3    H133733   3.750   2.668   6.810  0.9266  0.1277  1.6763
 4058TIP3    H233734   3.635   2.764   6.834 -0.5833 -0.8367 -1.1553
 4059TIP3   OH233735   3.866   3.522   7.178 -0.3101 -0.0976 -0.3904
 4059TIP3    H133736   3.950   3.530   7.224 -0.4378 -2.4505  0.3807
 4059TIP3    H233737   3.882   3.454   7.112 -0.8694  1.3969 -2.1488
 4060TIP3   OH233738   2.722   2.643   8.551  0.3704  0.3923  0.5617
 4060TIP3    H133739   2.806   2.688   8.548 -0.5932  2.1628 -1.0820
 4060TIP3    H233740   2.661   2.708   8.585 -0.4547 -0.7548  1.3608
 4061TIP3   OH233741   1.354   4.888   0.758  0.1034  0.0286  0.2635
 4061TIP3    H133742   1.318   4.953   0.697  0.0968 -0.0007  0.2356
 4061TIP3    H233743   1.447   4.908   0.761  0.2004 -0.3255 -0.1998
 4062TIP3   OH233744   3.621   1.923   0.897  0.0253  0.2044 -0.4807
 4062TIP3    H133745   3.649   1.913   0.806 -0.2421  3.8552 -1.1271
 4062TIP3    H233746   3.553   1.990   0.893 -0.8890 -0.4333  2.3178
 4063TIP3   OH233747   4.485   3.362   6.052 -0.0237  0.8827 -0.1600
 4063TIP3    H133748   4.494   3.363   6.147 -1.3732  1.2195 -0.0170
 4063TIP3    H233749   4.536   3.286   6.024 -2.8807 -1.7865  1.2362
 4064TIP3   OH233750   5.404   4.948   8.386  0.0149  0.0734  0.2825
 4064TIP3    H133751   5.463   5.012   8.425 -0.5839  0.2640  0.8937
 4064TIP3    H233752   5.424   4.951   8.293  1.1149 -0.0189  0.4960
 4065TIP3   OH233753   1.416   2.411   2.154  0.2257  0.5718 -0.2984
 4065TIP3    H133754   1.469   2.482   2.117  2.5665 -1.2901 -0.7598
 4065TIP3    H233755   1.472   2.334   2.149 -1.7468 -1.0956  1.3320
 4066TIP3   OH233756   2.179   3.769   0.565  0.0073  0.0864 -0.0710
 4066TIP3    H133757   2.248   3.770   0.498 -1.5355 -0.2259 -1.7226
 4066TIP3    H233758   2.182   3.680   0.600  0.9941  0.3252  0.4930
 4067TIP3   OH233759   5.307   5.036   0.034  0.3603 -0.0106 -0.1348
 4067TIP3    H133760   5.227   5.079   0.003  1.6748  1.6045 -1.4772
 4067TIP3    H233761   5.301   4.947  -0.000 -1.2878 -0.2377  0.6265
 4068TIP3   OH233762   6.510   6.729   8.094 -0.1622  0.2288  0.3216
 4068TIP3    H133763   6.477   6.791   8.029  1.6382 -0.3047 -1.1715
 4068TIP3    H233764   6.452   6.653   8.086 -0.4633  0.4950 -0.0413
 4069TIP3   OH233765   2.222   0.870   1.917 -0.4919  0.0043  0.1485
 4069TIP3    H133766   2.276   0.815   1.861 -1.5126 -0.0758 -0.7844
 4069TIP3    H233767   2.162   0.809   1.960  0.7815 -0.0435  1.9865
 4070TIP3   OH233768   3.634   5.071   1.333  0.1332 -0.0912  0.0076
 4070TIP3    H133769   3.596   5.023   1.259 -0.2471  1.4035 -0.8130
 4070TIP3    H233770   3.601   5.160   1.323  0.3419  0.2267  1.8175
 4071TIP3   OH233771   2.669   5.185   2.005 -0.2788 -0.5977  0.0540
 4071TIP3    H133772   2.616   5.115   1.968 -1.2459 -1.3455  2.6819
 4071TIP3    H233773   2.632   5.265   1.968 -1.0264 -1.3051 -0.7653
 4072TIP3   OH233774   2.258   4.980   0.489 -1.2398  0.4470 -0.4008
 4072TIP3    H133775   2.275   4.966   0.396  1.0478 -2.0376  0.2769
 4072TIP3    H233776   2.184   4.923   0.509 -1.8638  1.1319 -0.6792
 4073TIP3   OH233777   3.787   4.617   0.039 -0.5912  0.0554  0.3859
 4073TIP3    H133778   3.741   4.533   0.031 -1.7527  0.7051  0.0820
 4073TIP3    H233779   3.746   4.659   0.114  0.7894 -0.1259  1.2654
 4074TIP3   OH233780   4.877   6.771   1.156 -0.5921  0.1102  0.2982
 4074TIP3    H133781   4.789   6.805   1.140 -0.2078  1.4920  1.0302
 4074TIP3    H233782   4.863   6.695   1.213 -1.3092  0.3170  0.4025
 4075TIP3   OH233783   5.876   2.793   7.062 -0.0686 -0.7118 -0.0481
 4075TIP3    H133784   5.819   2.774   6.987  0.3564 -0.5230 -0.4243
 4075TIP3    H233785   5.861   2.721   7.123  0.2629 -1.3560 -0.7141
 4076TIP3   OH233786   6.650   3.375   8.424  0.1650 -0.2127  0.5008
 4076TIP3    H133787   6.582   3.332   8.475  0.2340 -2.0472 -0.8410
 4076TIP3    H233788   6.718   3.397   8.488 -1.0700  0.4385  1.6427
 4077TIP3   OH233789   3.629   5.978   0.247  0.0917  0.3548 -0.0453
 4077TIP3    H133790   3.583   5.902   0.213 -1.1475  0.8651  0.4279
 4077TIP3    H233791   3.699   5.942   0.302 -1.7581 -0.5064  1.9151
 4078TIP3   OH233792   2.185   6.656   1.186  0.8485  0.1240  0.1227
 4078TIP3    H133793   2.270   6.693   1.161  0.3291  1.4638  0.2325
 4078TIP3    H233794   2.131   6.733   1.206 -0.9905 -0.5889 -1.8162
 4079TIP3   OH233795   2.446   1.675   1.198 -0.0275  0.4121  0.5587
 4079TIP3    H133796   2.520   1.616   1.183 -1.4817 -1.3870  0.1272
 4079TIP3    H233797   2.482   1.744   1.254  1.7215 -0.9323  1.1932
 4080TIP3   OH233798   4.151   4.138   0.361 -0.0632 -0.5831 -0.0936
 4080TIP3    H133799   4.091   4.188   0.416 -0.2395 -1.8990  0.9779
 4080TIP3    H233800   4.229   4.127   0.415  0.4671 -0.3736 -0.8088
 4081TIP3   OH233801   3.744   3.533   0.042 -0.1915  0.1076 -0.2924
 4081TIP3    H133802   3.656   3.530   0.078 -0.1553  0.2393 -0.1897
 4081TIP3    H233803   3.746   3.465  -0.024 -0.5710  0.5399 -0.7569
 4082TIP3   OH233804   5.220   0.610   7.325  0.5245 -0.8963  0.3073
 4082TIP3    H133805   5.197   0.628   7.417 -0.0844 -0.3867  0.0713
 4082TIP3    H233806   5.314   0.597   7.325  0.9411  1.6229  0.6557
 4083TIP3   OH233807   3.563   5.066   0.989 -0.2265 -0.2474  0.2323
 4083TIP3    H133808   3.652   5.050   0.959  0.0146  0.8758  0.3129
 4083TIP3    H233809   3.511   4.997   0.949  0.1930  0.7560 -2.1752
 4084TIP3   OH233810   3.561   2.407   1.706  0.2259  0.1899 -0.0050
 4084TIP3    H133811   3.468   2.404   1.684 -0.2268  1.8750  1.3926
 4084TIP3    H233812   3.566   2.364   1.792  0.7584 -0.0760 -0.1723
 4085TIP3   OH233813   6.086   6.146   0.472 -0.2451 -0.4634  0.6698
 4085TIP3    H133814   6.039   6.097   0.403 -0.9394 -1.5653  1.8825
 4085TIP3    H233815   6.169   6.099   0.482 -0.2481 -0.4506  0.7516
 4086TIP3   OH233816   2.568   6.857   7.523 -0.0357  0.6363 -0.0825
 4086TIP3    H133817   2.589   6.792   7.590 -0.3691  1.0177  0.4012
 4086TIP3    H233818   2.582   6.812   7.440  0.8006  0.2881  0.2373
 4087TIP3   OH233819   6.088   1.382   8.177  0.4144 -0.3071  0.7563
 4087TIP3    H133820   6.048   1.455   8.129 -0.2035 -0.4108  1.0980
 4087TIP3    H233821   6.137   1.333   8.111 -0.4195 -0.4492  0.2280
 4088TIP3   OH233822   0.697   2.133   1.795 -0.0856  0.2534  1.0183
 4088TIP3    H133823   0.637   2.150   1.868 -2.4360 -0.0356 -0.7346
 4088TIP3    H233824   0.722   2.041   1.805  0.7676  0.5859  2.2031
 4089TIP3   OH233825   2.342   3.885   1.752 -0.1895 -0.2335 -0.0446
 4089TIP3    H133826   2.256   3.847   1.771 -0.2185 -0.0105  0.2883
 4089TIP3    H233827   2.378   3.830   1.682 -1.1623  0.4671 -1.1402
 4090TIP3   OH233828   5.882   2.576   2.098  0.8174  0.9867  0.1830
 4090TIP3    H133829   5.895   2.529   2.181 -0.3456 -0.6175 -0.5112
 4090TIP3    H233830   5.840   2.658   2.124  0.6010  0.5717  1.1949
 4091TIP3   OH233831   4.992   1.816   6.959 -0.3001 -0.3542 -0.2703
 4091TIP3    H133832   5.031   1.818   6.872 -1.2521 -1.3120 -0.7210
 4091TIP3    H233833   5.067   1.805   7.018  0.8687  3.9199 -0.5701
 4092TIP3   OH233834   3.890   4.619   1.540 -0.0784 -0.0746 -0.0143
 4092TIP3    H133835   3.839   4.552   1.585 -1.2780  2.1116  2.1544
 4092TIP3    H233836   3.837   4.644   1.464 -0.1877 -0.7159 -0.1516
 4093TIP3   OH233837   6.555   3.775   6.584  0.2168  0.1297 -0.1142
 4093TIP3    H133838   6.462   3.755   6.591  0.4204 -0.8398  0.0411
 4093TIP3    H233839   6.572   3.783   6.490 -0.0206  0.3029 -0.1418
 4094TIP3   OH233840   3.739   2.548   7.146  0.1913 -0.2757  0.3066
 4094TIP3    H133841   3.783   2.556   7.062 -0.8383  1.4016 -0.1160
 4094TIP3    H233842   3.681   2.624   7.151  0.8355  0.1711  2.8986
 4095TIP3   OH233843   2.021   5.944   0.147 -0.0643  0.2495  0.7852
 4095TIP3    H133844   2.082   5.881   0.186  0.8648  0.2489 -0.5844
 4095TIP3    H233845   2.033   6.024   0.197  0.4934  0.0120  1.0392
 4096TIP3   OH233846   3.859   3.983   2.723  0.4036  0.7425 -0.0087
 4096TIP3    H133847   3.924   3.950   2.784  0.2801 -0.4122 -0.4753
 4096TIP3    H233848   3.785   3.922   2.731 -0.2689  1.5292 -0.1141
 4097TIP3   OH233849   2.801   3.161   0.972 -0.0724  0.2041 -0.7386
 4097TIP3    H133850   2.896   3.153   0.963 -0.1551 -1.3599 -0.5048
 4097TIP3    H233851   2.766   3.086   0.925 -1.0872 -0.4729  0.9840
 4098TIP3   OH233852   1.325   0.067   2.031 -0.1550 -0.3355 -0.0626
 4098TIP3    H133853   1.381   0.104   2.099  0.6375  0.4346 -1.1082
 4098TIP3    H233854   1.316  -0.025   2.054  1.2173 -0.3828  0.3428
 4099TIP3   OH233855   6.679   1.836   6.855 -0.0886 -0.5168  0.2328
 4099TIP3    H133856   6.763   1.842   6.900 -0.1260 -1.2832  0.4246
 4099TIP3    H233857   6.674   1.915   6.802 -0.9856  1.6342  3.2060
 4100TIP3   OH233858   5.596   6.709   0.704 -0.1965  0.2399  0.5079
 4100TIP3    H133859   5.683   6.697   0.741  0.0264  1.6234  0.4799
 4100TIP3    H233860   5.567   6.620   0.683  1.8603 -0.1684 -0.9548
 4101TIP3   OH233861   1.464   1.487   0.278  0.8984 -0.1932 -0.2747
 4101TIP3    H133862   1.406   1.531   0.340 -0.7394 -0.5107 -1.5319
 4101TIP3    H233863   1.513   1.425   0.331 -0.8905 -0.8905  0.6446
 4102TIP3   OH233864   6.494   4.232   1.506 -0.4241  0.5338  0.1012
 4102TIP3    H133865   6.544   4.276   1.436 -2.4088  1.0966 -1.0440
 4102TIP3    H233866   6.452   4.303   1.554 -0.7808  0.0490  0.5170
 4103TIP3   OH233867   3.637   4.580   8.249 -0.4695 -0.0712  0.3138
 4103TIP3    H133868   3.699   4.643   8.285 -1.1822  1.5327 -1.1196
 4103TIP3    H233869   3.609   4.618   8.166 -1.6904 -1.8229 -0.1449
 4104TIP3   OH233870   5.323   2.099   7.876  0.0156 -0.0986 -0.0437
 4104TIP3    H133871   5.379   2.026   7.849 -0.8677 -1.5176  1.6885
 4104TIP3    H233872   5.298   2.143   7.795 -0.3041 -2.3982 -1.2620
 4105TIP3   OH233873   3.733   5.350   7.315  0.3097 -0.5433  0.5659
 4105TIP3    H133874   3.734   5.261   7.277  0.6593 -0.8114  1.1979
 4105TIP3    H233875   3.660   5.349   7.376  0.7250 -0.6090  1.0687
 4106TIP3   OH233876   5.397   2.202   7.259  0.0526 -0.5931  0.4154
 4106TIP3    H133877   5.445   2.281   7.234  0.3433 -1.1129 -0.7245
 4106TIP3    H233878   5.305   2.226   7.247  0.1887 -1.0956 -2.1705
 4107TIP3   OH233879   0.010   2.659   8.495 -0.4417 -0.0674 -0.3440
 4107TIP3    H133880  -0.037   2.716   8.434 -1.7019 -1.5301 -0.8285
 4107TIP3    H233881  -0.050   2.649   8.569  1.0348  1.6044  1.1432
 4108TIP3   OH233882   3.305   6.656   6.628  0.4492 -0.4833 -0.2850
 4108TIP3    H133883   3.220   6.656   6.672 -0.0212  1.7040 -1.0538
 4108TIP3    H233884   3.348   6.576   6.658 -0.7029 -0.1988  2.4157
 4109TIP3   OH233885   6.431   4.219   1.118 -0.6568 -0.1529 -0.8581
 4109TIP3    H133886   6.352   4.206   1.170 -2.1261  1.2681 -2.5617
 4109TIP3    H233887   6.474   4.134   1.118 -1.4270 -0.6124  1.2693
 4110TIP3   OH233888   6.835   5.977   1.594 -0.1464  0.0869  0.0823
 4110TIP3    H133889   6.880   5.893   1.582 -0.0913 -0.0023  0.8449
 4110TIP3    H233890   6.749   5.964   1.553  0.0512 -0.1708 -0.2521
 4111TIP3   OH233891   5.781   0.552   8.341 -0.1411  0.4597  0.2185
 4111TIP3    H133892   5.812   0.552   8.250  1.9056 -0.3102  0.8431
 4111TIP3    H233893   5.803   0.639   8.373  0.5640  0.2338  0.3798
 4112TIP3   OH233894   6.487   2.318   1.315  0.2663  0.3488 -0.6210
 4112TIP3    H133895   6.527   2.379   1.377  1.2533 -0.3901 -0.4952
 4112TIP3    H233896   6.443   2.374   1.251 -0.3756  1.1339  0.4779
 4113TIP3   OH233897   6.353   0.969   1.215 -0.1194  0.1792  0.0535
 4113TIP3    H133898   6.434   1.014   1.190 -0.2948  0.7265  0.4657
 4113TIP3    H233899   6.379   0.915   1.290 -0.0035 -0.1001 -0.1853
 4114TIP3   OH233900   1.834   3.703   7.466 -0.2877  0.3597 -0.2703
 4114TIP3    H133901   1.752   3.698   7.417 -2.5562  2.7600  2.8455
 4114TIP3    H233902   1.827   3.635   7.533  1.6404 -1.2326 -1.5586
 4115TIP3   OH233903   2.712   2.705   8.228  0.6968  0.2131 -0.0543
 4115TIP3    H133904   2.679   2.628   8.274  0.9909  0.6917  0.9862
 4115TIP3    H233905   2.665   2.778   8.268  2.1792  0.8030  0.6695
 4116TIP3   OH233906   1.158   0.935   7.227  0.7677  0.1053  0.2105
 4116TIP3    H133907   1.214   0.914   7.302 -1.3325 -0.5608  1.6868
 4116TIP3    H233908   1.111   1.014   7.253  0.4124  0.1882 -0.6481
 4117TIP3   OH233909   3.015   5.595   8.021 -0.3933 -0.3526  0.1502
 4117TIP3    H133910   2.928   5.632   8.037  0.3557  1.0214  1.2605
 4117TIP3    H233911   3.015   5.572   7.928 -1.6956  0.2878 -0.0242
 4118TIP3   OH233912   2.706   2.051   0.084 -0.4410  0.1401 -0.2763
 4118TIP3    H133913   2.675   2.141   0.081 -0.8798  0.0462  0.8483
 4118TIP3    H233914   2.634   2.002   0.123 -0.3554 -0.7675 -1.2321
 4119TIP3   OH233915   1.080   4.591   8.158 -0.0374  0.4257  0.6919
 4119TIP3    H133916   1.003   4.535   8.147 -0.2572  1.0663 -1.8883
 4119TIP3    H233917   1.131   4.577   8.078  0.7040  2.6483  0.6907
 4120TIP3   OH233918   6.255   1.609   8.659  0.0169  0.1733 -0.5475
 4120TIP3    H133919   6.253   1.514   8.655 -0.0336  0.1259  0.4179
 4120TIP3    H233920   6.317   1.629   8.729  0.7042  0.8695 -1.3423
 4121TIP3   OH233921   1.342   5.195   7.424  0.4476  0.3389 -0.3448
 4121TIP3    H133922   1.403   5.138   7.377 -0.6448 -1.6235  0.4737
 4121TIP3    H233923   1.311   5.141   7.497  0.4614  2.5283  1.3824
 4122TIP3   OH233924   3.249   6.758   1.490  0.2639  0.2668  0.3773
 4122TIP3    H133925   3.254   6.663   1.498  1.3230  0.1562 -1.1888
 4122TIP3    H233926   3.310   6.791   1.557  1.2289 -0.2463 -0.2169
 4123TIP3   OH233927   4.184   2.979   7.017  0.1055  0.5654  0.4356
 4123TIP3    H133928   4.106   2.938   6.979  0.6534 -0.5895  0.5117
 4123TIP3    H233929   4.208   3.047   6.954 -0.7196  0.6470  0.2017
 4124TIP3   OH233930   5.952   2.681   7.631 -0.1902  0.4199  0.2036
 4124TIP3    H133931   5.959   2.717   7.543  2.4686  2.7970  1.2184
 4124TIP3    H233932   5.875   2.723   7.669  0.3001  1.6209 -0.1048
 4125TIP3   OH233933   5.403   2.627   6.823  0.3580  0.2345 -0.0360
 4125TIP3    H133934   5.442   2.713   6.807  0.2039  0.2664 -0.2495
 4125TIP3    H233935   5.466   2.582   6.879  0.5294  0.4167 -0.0801
 4126TIP3   OH233936   6.037   3.379   1.884 -0.3054 -0.4247  0.6026
 4126TIP3    H133937   5.950   3.402   1.850  0.4382  1.0569 -0.3886
 4126TIP3    H233938   6.020   3.307   1.945 -2.0110 -1.5307 -1.0528
 4127TIP3   OH233939   3.458   2.978   6.636 -0.0760 -0.0801  0.7338
 4127TIP3    H133940   3.423   3.059   6.599  1.4490  0.1553 -0.2945
 4127TIP3    H233941   3.504   2.936   6.563 -0.1300 -1.4634  1.4620
 4128TIP3   OH233942   2.389   3.064   1.540  0.3384 -0.3146 -0.5638
 4128TIP3    H133943   2.340   2.983   1.554 -3.1807  1.7171  0.3288
 4128TIP3    H233944   2.402   3.099   1.628 -0.7454  1.3587 -1.0186
 4129TIP3   OH233945   4.831   2.033   7.183  0.2793 -0.4012  0.1684
 4129TIP3    H133946   4.892   2.027   7.256 -0.0684  1.7628  0.7066
 4129TIP3    H233947   4.755   2.078   7.219 -0.6890 -0.9793 -1.0709
 4130TIP3   OH233948   4.926   5.242   6.930 -0.3468  0.3500 -0.0870
 4130TIP3    H133949   4.852   5.215   6.984 -1.4678  0.2357 -1.6147
 4130TIP3    H233950   4.923   5.337   6.931 -2.1306  0.4026 -2.1398
 4131TIP3   OH233951   3.565   4.050   8.577 -0.0599  0.3042  0.5893
 4131TIP3    H133952   3.546   4.082   8.489 -0.8451  2.6538  1.5426
 4131TIP3    H233953   3.661   4.046   8.580 -0.0121  0.4867 -0.2647
 4132TIP3   OH233954   3.859   0.051   8.017 -0.2663 -0.9792  0.2216
 4132TIP3    H133955   3.925   0.011   7.960 -0.7238 -0.9620 -0.3291
 4132TIP3    H233956   3.839   0.134   7.975 -0.6504 -0.9918  0.3759
 4133TIP3   OH233957   3.133   5.582   2.520  0.1832  0.2640 -0.5983
 4133TIP3    H133958   3.102   5.624   2.439 -2.3247  0.8091  0.5309
 4133TIP3    H233959   3.090   5.631   2.590  3.7538  1.0237  1.2493
 4134TIP3   OH233960   5.931   4.278   6.814 -0.0650  0.3704 -0.6058
 4134TIP3    H133961   5.881   4.358   6.832  0.9915  0.6335  1.4280
 4134TIP3    H233962   5.943   4.279   6.719 -1.1106  1.9922 -0.7670
 4135TIP3   OH233963   2.470   6.444   7.406  0.0758 -0.5571  0.2663
 4135TIP3    H133964   2.546   6.465   7.460  1.5681 -3.1056 -0.7290
 4135TIP3    H233965   2.401   6.423   7.469 -0.0002  2.0548  1.1850
 4136TIP3   OH233966   4.110   0.745   1.423  0.4566 -0.1429 -0.1721
 4136TIP3    H133967   4.084   0.835   1.444  1.0992  0.1884 -0.7824
 4136TIP3    H233968   4.123   0.703   1.509 -2.0139 -0.3267  0.2004
 4137TIP3   OH233969   2.518   1.994   1.452  0.5884  0.1669  0.1502
 4137TIP3    H133970   2.556   2.081   1.469 -1.9257  1.6372 -1.2144
 4137TIP3    H233971   2.551   1.970   1.365 -1.1980  1.3278 -0.9209
 4138TIP3   OH233972   3.089   5.918   1.647  0.1755 -0.2619  0.7908
 4138TIP3    H133973   3.184   5.929   1.648  0.0172  1.6056 -0.2072
 4138TIP3    H233974   3.076   5.824   1.635  2.0182 -0.1967 -3.8627
 4139TIP3   OH233975   2.602   0.503   7.641  0.1705  0.1072  0.2502
 4139TIP3    H133976   2.597   0.588   7.685  0.8826 -0.7872  2.1654
 4139TIP3    H233977   2.516   0.492   7.599 -0.5647  0.9911  1.4806
 4140TIP3   OH233978   0.018   2.763   2.071 -0.1465 -0.0609 -0.1775
 4140TIP3    H133979  -0.025   2.796   2.149  0.5982  1.7375 -0.4857
 4140TIP3    H233980   0.100   2.724   2.102  0.1755  0.7043 -0.0616
 4141TIP3   OH233981   1.300   4.677   8.380 -0.1558 -0.5281 -0.0846
 4141TIP3    H133982   1.211   4.660   8.348  0.1050  1.0037 -1.8306
 4141TIP3    H233983   1.293   4.676   8.475 -1.5678 -2.6315 -0.1413
 4142TIP3   OH233984   2.202   1.412   1.440  0.3878 -0.8389 -0.4472
 4142TIP3    H133985   2.151   1.334   1.462 -2.5905  0.5324 -1.8826
 4142TIP3    H233986   2.240   1.440   1.524 -0.4333 -2.4748  0.5275
 4143TIP3   OH233987   1.270   2.770   8.377  0.2625  0.1269 -0.3736
 4143TIP3    H133988   1.300   2.854   8.343  0.4795 -0.0855 -0.7234
 4143TIP3    H233989   1.209   2.737   8.310  1.0798 -0.5265 -0.8220
 4144TIP3   OH233990   3.412   6.387   7.779 -0.1087  0.0513 -0.5866
 4144TIP3    H133991   3.502   6.398   7.808 -0.0778  0.6679 -0.9034
 4144TIP3    H233992   3.359   6.436   7.842 -0.4437 -1.9708  0.8069
 4145TIP3   OH233993   3.555   5.025   6.484 -0.0544  0.0858  0.0472
 4145TIP3    H133994   3.583   5.113   6.457  0.8146  0.0077  0.6581
 4145TIP3    H233995   3.586   4.968   6.414 -0.2324  0.2172 -0.1383
 4146TIP3   OH233996   1.683   0.902   0.360  0.1483  0.0754  0.8093
 4146TIP3    H133997   1.666   0.953   0.439 -0.0425 -1.2238  1.6244
 4146TIP3    H233998   1.729   0.963   0.302  1.8869  0.5428  2.5924
 4147TIP3   OH233999   0.162   4.129   0.997  0.1914 -0.6351  0.0075
 4147TIP3    H134000   0.140   4.050   1.046 -0.9962 -0.0917  0.4071
 4147TIP3    H234001   0.125   4.200   1.049  0.5032  0.1141 -0.7686
 4148TIP3   OH234002   5.885   6.575   0.649 -0.6917 -0.0565 -0.0223
 4148TIP3    H134003   5.907   6.490   0.612 -0.3869  0.2898 -0.6675
 4148TIP3    H234004   5.920   6.638   0.586 -1.8141  0.5328 -0.0859
 4149TIP3   OH234005   4.684   2.322   7.631 -0.7884 -0.0004  0.1913
 4149TIP3    H134006   4.594   2.288   7.638 -0.5550 -0.2637  2.8530
 4149TIP3    H234007   4.675   2.401   7.578 -2.8944  0.7687  1.5299
 4150TIP3   OH234008   6.792   0.191   0.927 -0.2638 -0.0562  0.0716
 4150TIP3    H134009   6.735   0.166   0.854  2.2212 -0.2272 -1.9550
 4150TIP3    H234010   6.861   0.243   0.886  0.8234  0.4862  2.4531
 4151TIP3   OH234011   0.994   5.823   1.560 -0.6880 -0.2576 -0.4714
 4151TIP3    H134012   1.012   5.759   1.628 -0.1420 -0.0062 -0.3701
 4151TIP3    H234013   0.993   5.907   1.606 -2.3906 -0.2599 -0.4289
 4152TIP3   OH234014   6.762   6.387   7.947 -0.2142 -0.2053 -0.2402
 4152TIP3    H134015   6.716   6.463   7.911  0.1283 -0.2329 -0.7477
 4152TIP3    H234016   6.810   6.422   8.022 -0.6980 -0.0867  0.0216
 4153TIP3   OH234017   2.355   0.852   6.385  0.7541 -0.2862  0.8130
 4153TIP3    H134018   2.348   0.928   6.443  1.3047 -0.6717  1.4094
 4153TIP3    H234019   2.332   0.777   6.441 -1.1228 -0.4691 -0.1007
 4154TIP3   OH234020   3.470   3.430   0.696  0.5750 -0.3054  0.0123
 4154TIP3    H134021   3.528   3.364   0.735  2.3603  1.5032  0.5961
 4154TIP3    H234022   3.477   3.415   0.602  2.3889  0.1487  0.0482
 4155TIP3   OH234023   5.740   3.978   8.404 -0.7242 -0.3026  0.0574
 4155TIP3    H134024   5.692   4.034   8.344 -0.2640 -0.0103 -0.0482
 4155TIP3    H234025   5.774   4.038   8.471 -1.0364 -0.5913  0.4783
 4156TIP3   OH234026   4.325   2.143   6.667 -0.6026 -0.2117 -0.0033
 4156TIP3    H134027   4.403   2.158   6.720 -1.1094  1.7518  0.2753
 4156TIP3    H234028   4.347   2.068   6.613  1.5962  0.4683 -0.1559
 4157TIP3   OH234029   6.535   4.921   8.687  0.0172  0.4338  0.1465
 4157TIP3    H134030   6.542   4.825   8.694  0.2735  0.5060  1.0002
 4157TIP3    H234031   6.443   4.938   8.706  0.1167  0.4029  0.6789
 4158TIP3   OH234032   1.335   1.150   1.750 -0.2381 -0.3012 -0.4700
 4158TIP3    H134033   1.324   1.118   1.839 -0.3973 -0.7324 -0.6407
 4158TIP3    H234034   1.343   1.071   1.697 -0.8329 -0.0721 -0.9211
 4159TIP3   OH234035   2.550   5.001   8.569 -0.5922 -0.0084  0.3779
 4159TIP3    H134036   2.537   5.082   8.619 -1.2960  0.2424 -0.1922
 4159TIP3    H234037   2.483   4.942   8.603  1.4889 -1.2571  2.5694
 4160TIP3   OH234038   0.908   0.516   0.440 -0.3644  0.0979  0.1459
 4160TIP3    H134039   0.958   0.526   0.520 -1.8411  1.5644  0.9475
 4160TIP3    H234040   0.817   0.534   0.466 -0.6169  3.2092 -2.2529
 4161TIP3   OH234041   0.388   3.195   0.150 -0.2411 -0.1487 -0.0695
 4161TIP3    H134042   0.401   3.273   0.204  1.6126 -0.3353 -0.1935
 4161TIP3    H234043   0.425   3.124   0.202  0.0026 -0.6009 -0.8523
 4162TIP3   OH234044   6.490   6.114   0.524  0.4304 -0.0046  0.0317
 4162TIP3    H134045   6.430   6.047   0.489  0.7932 -0.7407  0.7943
 4162TIP3    H234046   6.486   6.185   0.460  0.2030 -0.8493 -0.9182
 4163TIP3   OH234047   1.786   0.986   2.258 -0.1529 -0.4588 -0.6171
 4163TIP3    H134048   1.725   1.060   2.256 -0.6329 -0.8490 -0.5620
 4163TIP3    H234049   1.749   0.923   2.197  0.1365 -0.7510 -0.4929
 4164TIP3   OH234050   4.675   4.819   0.213  0.3058  0.7577 -0.5276
 4164TIP3    H134051   4.724   4.743   0.244 -2.5818 -1.2351 -0.4845
 4164TIP3    H234052   4.728   4.854   0.142  2.2858 -0.5469  0.2134
 4165TIP3   OH234053   3.262   4.282   8.057 -0.3159  0.5086  0.0546
 4165TIP3    H134054   3.176   4.305   8.091 -0.6184  1.4070 -1.2415
 4165TIP3    H234055   3.245   4.250   7.968  0.5182 -1.0879  0.4158
 4166TIP3   OH234056   5.635   3.756   1.979 -0.2132 -0.8861  0.1376
 4166TIP3    H134057   5.654   3.754   1.885 -0.6478  1.2110 -0.0512
 4166TIP3    H234058   5.718   3.780   2.020 -0.6089  0.9572 -0.0208
 4167TIP3   OH234059   5.892   4.494   0.205 -0.4574 -0.3601 -0.8832
 4167TIP3    H134060   5.812   4.537   0.236 -1.2901 -2.2787 -0.1966
 4167TIP3    H234061   5.948   4.490   0.283 -0.2586 -0.2308 -1.0211
 4168TIP3   OH234062   1.877   4.016   8.587  0.0963  0.1830  0.7440
 4168TIP3    H134063   1.803   3.955   8.589 -0.0063  0.3189  1.9355
 4168TIP3    H234064   1.837   4.102   8.600  0.3897  0.3442  0.5913
 4169TIP3   OH234065   5.209   1.628   1.055  0.4876  0.2980  0.0748
 4169TIP3    H134066   5.227   1.591   1.142 -3.7023 -0.1364  0.9842
 4169TIP3    H234067   5.244   1.717   1.058  2.6708 -0.5402  1.2085
 4170TIP3   OH234068   1.537   2.785   7.440  0.6155  1.2138 -0.0107
 4170TIP3    H134069   1.453   2.747   7.465  1.2835  0.1548  0.7188
 4170TIP3    H234070   1.518   2.838   7.363 -0.0940 -2.1124 -2.3285
 4171TIP3   OH234071   0.882   5.644   8.052  0.5064 -0.2208 -0.1015
 4171TIP3    H134072   0.826   5.689   8.116 -0.5884 -1.2937 -0.2638
 4171TIP3    H234073   0.945   5.711   8.025 -1.6658  1.5770 -1.1083
 4172TIP3   OH234074   4.040   0.591   7.227 -0.1260  0.1419 -0.3551
 4172TIP3    H134075   4.058   0.683   7.250 -2.9666  1.3628 -2.4076
 4172TIP3    H234076   4.034   0.546   7.311  0.6484  1.9825  0.7534
 4173TIP3   OH234077   3.858   5.053   1.485 -0.5224  0.3587  0.5382
 4173TIP3    H134078   3.910   5.099   1.420 -2.0578  1.2793 -0.0938
 4173TIP3    H234079   3.770   5.049   1.448 -0.4931 -3.3478  0.4253
 4174TIP3   OH234080   3.635   4.889   6.704 -0.5912 -0.1708  0.2767
 4174TIP3    H134081   3.619   4.955   6.636 -0.0271  1.5601  1.7355
 4174TIP3    H234082   3.727   4.865   6.692 -0.0784  1.1708  1.2119
 4175TIP3   OH234083   0.480   1.277   6.245 -0.0731  0.1490  0.3288
 4175TIP3    H134084   0.510   1.349   6.300  0.0338 -0.1291  0.6379
 4175TIP3    H234085   0.389   1.299   6.224 -0.5640 -0.4176  1.7595
 4176TIP3   OH234086   3.827   6.463   2.020 -0.6172 -0.1522  0.1378
 4176TIP3    H134087   3.906   6.414   1.999 -1.3051 -1.5788  0.7373
 4176TIP3    H234088   3.828   6.470   2.116 -0.8065  0.5530  0.0984
 4177TIP3   OH234089   1.181   4.184   7.651 -0.3945  0.1772 -0.3057
 4177TIP3    H134090   1.140   4.270   7.642 -1.6656 -0.1623  1.6075
 4177TIP3    H234091   1.245   4.195   7.721 -1.2039 -0.6216  0.5817
 4178TIP3   OH234092   3.802   0.988   0.354  0.8592 -0.5231 -1.2001
 4178TIP3    H134093   3.717   0.949   0.370  1.5789 -1.6919 -0.0242
 4178TIP3    H234094   3.859   0.950   0.421  2.7177 -1.1273 -3.0241
 4179TIP3   OH234095   0.681   2.430   0.597  0.1336  0.3987 -0.0532
 4179TIP3    H134096   0.705   2.463   0.683 -0.9103 -1.6774  1.1155
 4179TIP3    H234097   0.596   2.388   0.610 -0.6330  1.0375 -2.3752
 4180TIP3   OH234098   2.533   2.290   8.495 -0.0653 -0.4002 -0.1259
 4180TIP3    H134099   2.522   2.351   8.422  0.1043  0.1986  0.3357
 4180TIP3    H234100   2.451   2.296   8.544  0.6514  0.9272  0.9883
 4181TIP3   OH234101   6.797   1.539   8.328  0.0693 -0.3169 -0.6038
 4181TIP3    H134102   6.724   1.567   8.384 -0.2550  0.5025 -1.4084
 4181TIP3    H234103   6.821   1.453   8.362 -0.3399  0.0109  0.5775
 4182TIP3   OH234104   2.090   4.362   1.088 -0.5228  0.5470  0.0872
 4182TIP3    H134105   2.102   4.272   1.056 -1.8624  0.7420 -1.0917
 4182TIP3    H234106   2.117   4.359   1.180 -1.4514 -1.2885  0.3451
 4183TIP3   OH234107   5.612   3.406   7.983 -0.5538 -0.1068 -0.0517
 4183TIP3    H134108   5.567   3.323   7.970 -0.4556 -0.5285  2.0233
 4183TIP3    H234109   5.654   3.398   8.068 -0.4625  2.0348  0.1708
 4184TIP3   OH234110   3.901   3.103   7.454  0.5455 -0.3701 -0.5061
 4184TIP3    H134111   3.913   3.025   7.508  1.7210  0.5238  0.6165
 4184TIP3    H234112   3.843   3.159   7.505 -0.3433 -0.5056 -1.3319
 4185TIP3   OH234113   2.574   1.092   8.527 -0.5126 -0.5311  0.6294
 4185TIP3    H134114   2.601   1.044   8.449  0.2163  0.3403  0.3367
 4185TIP3    H234115   2.569   1.024   8.595  0.1494 -1.0797  0.1426
 4186TIP3   OH234116   0.281   6.639   1.027 -0.0664  0.5882 -0.1432
 4186TIP3    H134117   0.247   6.728   1.023 -0.4019  0.5099  0.7039
 4186TIP3    H234118   0.272   6.614   1.119 -0.3334 -0.4604 -0.4392
 4187TIP3   OH234119   1.774   2.789   0.629 -0.0457  0.0191  0.1907
 4187TIP3    H134120   1.796   2.697   0.619 -0.4991 -0.1229  0.4794
 4187TIP3    H234121   1.759   2.820   0.540  0.2105 -0.1572  0.0852
 4188TIP3   OH234122   6.229   4.296   6.391  0.4234  0.1432 -0.0239
 4188TIP3    H134123   6.183   4.223   6.350 -0.6276 -0.7913  2.5996
 4188TIP3    H234124   6.316   4.261   6.412  1.4042  0.9950 -2.3545
 4189TIP3   OH234125   2.188   0.150   6.443  0.5743  0.8027 -0.3481
 4189TIP3    H134126   2.231   0.072   6.409 -1.8038 -0.7244 -0.1215
 4189TIP3    H234127   2.138   0.119   6.519 -0.1183  2.6343  0.0021
 4190TIP3   OH234128   4.131   3.497   1.978 -0.2617  0.1090 -0.0601
 4190TIP3    H134129   4.200   3.437   2.006 -0.3110  0.8612  1.8076
 4190TIP3    H234130   4.056   3.441   1.961  0.1369 -0.4976  0.1499
 4191TIP3   OH234131   5.917   3.078   6.928  0.3587  0.0260  0.8184
 4191TIP3    H134132   5.940   3.095   6.836 -0.0895  0.1754  0.7304
 4191TIP3    H234133   5.988   3.024   6.961 -0.2670 -1.4274 -0.0866
 4192TIP3   OH234134   2.922   6.015   0.639  0.5783 -0.6762 -0.1537
 4192TIP3    H134135   2.952   5.925   0.643  0.7600 -0.6683 -1.0601
 4192TIP3    H234136   2.914   6.043   0.730  2.9287 -0.7934  0.1270
 4193TIP3   OH234137   2.712   5.519   1.683  0.3243 -0.2143  0.3413
 4193TIP3    H134138   2.652   5.482   1.748 -0.6442  0.4200 -0.1567
 4193TIP3    H234139   2.748   5.597   1.725 -3.3523  2.5878 -1.1303
 4194TIP3   OH234140   4.081   4.929   2.370  0.1175  0.3584 -0.3247
 4194TIP3    H134141   4.138   4.891   2.436  0.4500  1.6911  0.2029
 4194TIP3    H234142   4.002   4.875   2.371  0.1372  0.3239  1.1434
 4195TIP3   OH234143   2.330   3.345   6.678  0.2537  0.2340  0.5465
 4195TIP3    H134144   2.385   3.289   6.733  0.6775  0.6173  0.5235
 4195TIP3    H234145   2.364   3.333   6.589  2.4589  2.8283  0.8816
 4196TIP3   OH234146   5.556   1.747   7.525 -0.1752  0.9653 -0.2892
 4196TIP3    H134147   5.585   1.826   7.480  1.5160  0.9088  0.6186
 4196TIP3    H234148   5.619   1.680   7.499 -0.9810  0.1606 -0.2262
 4197TIP3   OH234149   5.735   6.258   7.383 -0.3418  0.1167 -0.4134
 4197TIP3    H134150   5.642   6.245   7.399 -0.6373 -0.2200 -2.1695
 4197TIP3    H234151   5.747   6.235   7.290  1.2864  1.1656 -0.5085
 4198TIP3   OH234152   4.011   5.153   7.796  0.2544  0.4112 -0.1463
 4198TIP3    H134153   3.998   5.195   7.882  1.9665  0.0248  0.3289
 4198TIP3    H234154   3.983   5.063   7.810  0.8876  0.2531  0.1212
 4199TIP3   OH234155   2.498   3.086   1.014  0.4516 -0.2523 -0.1947
 4199TIP3    H134156   2.562   3.018   1.036 -1.9128 -1.6956  3.0107
 4199TIP3    H234157   2.470   3.064   0.925  0.8714 -2.5562  0.1829
 4200TIP3   OH234158   6.011   2.503   6.852  0.7956 -0.6588 -0.3105
 4200TIP3    H134159   6.047   2.507   6.940  0.8596 -1.7885 -0.2623
 4200TIP3    H234160   6.052   2.425   6.813  0.5516 -0.3424 -1.2341
 4201TIP3   OH234161   6.530   1.846   1.963 -0.5823 -0.6173  0.1926
 4201TIP3    H134162   6.441   1.855   1.930 -0.7513 -1.5325  0.3823
 4201TIP3    H234163   6.537   1.754   1.990  1.2482 -1.2841 -2.2192
 4202TIP3   OH234164   6.192   3.412   0.519 -0.1651 -0.3277  0.3926
 4202TIP3    H134165   6.114   3.386   0.568 -2.1923  2.0239 -1.3291
 4202TIP3    H234166   6.205   3.340   0.457 -0.6597 -0.9672  1.0086
 4203TIP3   OH234167   3.479   1.195   7.095 -0.8141 -0.2375 -0.4242
 4203TIP3    H134168   3.424   1.124   7.063 -0.8209 -0.3659 -0.1252
 4203TIP3    H234169   3.534   1.155   7.163 -1.3724  0.2165  0.3113
 4204TIP3   OH234170   3.102   5.177   8.378 -0.2701 -0.0336  0.2758
 4204TIP3    H134171   3.090   5.261   8.334 -1.3315  0.0706  0.7145
 4204TIP3    H234172   3.043   5.117   8.332  0.5201 -0.5616 -0.0707
 4205TIP3   OH234173   4.973   4.916   2.182  0.2169 -0.9329  0.2360
 4205TIP3    H134174   5.026   4.904   2.103  1.2295  0.9202  0.5819
 4205TIP3    H234175   4.884   4.895   2.155  0.9139 -3.0637 -0.6473
 4206TIP3   OH234176   5.669   3.752   6.712 -0.1745 -0.1296  0.1457
 4206TIP3    H134177   5.673   3.669   6.761  0.3138  1.5807  3.2459
 4206TIP3    H234178   5.755   3.757   6.669  0.4763 -0.4753  1.3450
 4207TIP3   OH234179   6.636   0.023   0.506 -0.0863 -0.6172  0.1691
 4207TIP3    H134180   6.691  -0.054   0.494  0.8170  0.3759 -3.1503
 4207TIP3    H234181   6.547  -0.009   0.493  0.2946 -1.1424 -1.3903
 4208TIP3   OH234182   1.150   3.219   1.120  0.3000 -0.4749 -0.2107
 4208TIP3    H134183   1.161   3.294   1.178 -0.7033 -0.7252  0.3317
 4208TIP3    H234184   1.143   3.258   1.032  2.0359 -0.1109 -0.2281
 4209TIP3   OH234185   2.401   3.112   7.903 -0.0692 -0.2240 -0.2407
 4209TIP3    H134186   2.467   3.153   7.848 -1.2562  0.2761 -1.3550
 4209TIP3    H234187   2.318   3.132   7.860 -0.8883 -1.6367  0.5832
 4210TIP3   OH234188   5.804   1.133   7.924  0.0149 -0.0831  0.2012
 4210TIP3    H134189   5.832   1.224   7.928 -0.5226  0.0460  2.6560
 4210TIP3    H234190   5.738   1.132   7.854  0.6071  1.2208 -0.4127
 4211TIP3   OH234191   0.010   1.615   6.845  0.7449 -0.1733  0.0523
 4211TIP3    H134192   0.042   1.594   6.757  1.1638  3.9730 -1.0197
 4211TIP3    H234193   0.077   1.674   6.881 -0.4751 -0.0357  2.2697
 4212TIP3   OH234194   6.848   4.675   2.666  0.6428  0.2751  0.2381
 4212TIP3    H134195   6.831   4.582   2.652  0.6055  0.4314 -0.8198
 4212TIP3    H234196   6.772   4.707   2.714 -0.7452  0.3521 -1.9042
 4213TIP3   OH234197   4.957   3.132   7.737 -0.2395 -0.2873 -1.2154
 4213TIP3    H134198   4.890   3.089   7.791 -1.4385  1.2819 -1.3765
 4213TIP3    H234199   4.985   3.207   7.789  0.9603 -0.5482 -1.4381
 4214TIP3   OH234200   5.731   0.196   8.295  0.7455 -0.6102  0.1935
 4214TIP3    H134201   5.703   0.281   8.262  1.3025 -0.4418  0.1478
 4214TIP3    H234202   5.826   0.201   8.296  0.7712 -1.1195  0.4944
 4215TIP3   OH234203   2.008   6.656   7.883 -0.0283 -0.1643  0.0804
 4215TIP3    H134204   1.948   6.600   7.932  2.0653 -0.5709  2.3657
 4215TIP3    H234205   1.988   6.745   7.914 -0.5127 -0.1170 -0.3633
 4216TIP3   OH234206   4.204   3.830   8.337 -0.2224 -0.2424 -0.2955
 4216TIP3    H134207   4.271   3.896   8.354  0.0076 -0.4904 -0.2314
 4216TIP3    H234208   4.147   3.870   8.271 -1.2326  0.8150  1.1421
 4217TIP3   OH234209   6.798   1.621   2.176 -0.1994 -0.0065  1.1711
 4217TIP3    H134210   6.775   1.584   2.261 -2.0998 -0.0509  0.6754
 4217TIP3    H234211   6.824   1.711   2.195 -0.0203 -0.2003  1.8600
 4218TIP3   OH234212   0.399   0.358   7.933 -0.1493  0.1788  0.5661
 4218TIP3    H134213   0.320   0.396   7.895  0.8537  0.3622 -1.4426
 4218TIP3    H234214   0.427   0.292   7.870  0.7004 -0.6879  1.7933
 4219TIP3   OH234215   5.803   4.789   1.923 -0.4313  0.1570 -0.5641
 4219TIP3    H134216   5.723   4.840   1.934 -1.8768 -2.3314  1.8801
 4219TIP3    H234217   5.774   4.698   1.922  2.3146 -0.8326 -0.2090
 4220TIP3   OH234218   5.139   5.399   8.620  0.0898  0.2358 -0.3796
 4220TIP3    H134219   5.160   5.339   8.692  0.8189  1.2835  0.3138
 4220TIP3    H234220   5.086   5.467   8.660 -0.4490  0.2484 -1.0924
 4221TIP3   OH234221   3.866   3.567   1.488 -0.1879  0.0111 -0.4160
 4221TIP3    H134222   3.889   3.479   1.459  0.0177  0.7914 -2.7777
 4221TIP3    H234223   3.773   3.561   1.513 -0.1898 -0.8450 -0.6125
 4222TIP3   OH234224   5.700   6.081   7.824  0.2609 -0.2911 -0.0275
 4222TIP3    H134225   5.660   5.996   7.808  0.4408 -0.2236 -0.9246
 4222TIP3    H234226   5.627   6.136   7.855  0.5818 -1.3174  2.7568
 4223TIP3   OH234227   2.714   1.940   8.230  0.0810 -0.1745 -0.6263
 4223TIP3    H134228   2.632   1.975   8.195  0.4737 -0.8893 -2.3528
 4223TIP3    H234229   2.712   1.963   8.323 -1.0277  1.7878 -1.0791
 4224TIP3   OH234230   2.891   5.173   2.166  0.3137 -0.3451 -0.4418
 4224TIP3    H134231   2.884   5.249   2.224  0.4705 -0.7487  0.1122
 4224TIP3    H234232   2.821   5.186   2.102 -0.8013 -0.6220  0.6966
 4225TIP3   OH234233   0.116   1.155   6.859 -0.5082 -0.3022  0.0074
 4225TIP3    H134234   0.170   1.095   6.910 -0.8745  0.4685  1.3484
 4225TIP3    H234235   0.058   1.097   6.809  0.2877 -1.0920 -0.0312
 4226TIP3   OH234236   3.064   0.345   0.965  0.1867  0.1050  0.0789
 4226TIP3    H134237   3.093   0.366   0.876 -1.0307  1.0291 -0.1450
 4226TIP3    H234238   2.981   0.392   0.974 -0.4763 -1.2027  1.1777
 4227TIP3   OH234239   4.210   1.199   0.203 -0.1348  0.2970 -0.0226
 4227TIP3    H134240   4.277   1.254   0.242 -0.2516 -0.2846  1.0466
 4227TIP3    H234241   4.251   1.161   0.125 -0.0689  1.8850 -0.7897
 4228TIP3   OH234242   1.559   5.836   0.850 -0.3899  0.2450 -0.3454
 4228TIP3    H134243   1.557   5.909   0.788 -1.3456  0.4629 -0.0643
 4228TIP3    H234244   1.594   5.874   0.930 -0.5803  0.3161 -0.2963
 4229TIP3   OH234245   5.587   5.187   8.340  0.4013 -0.7737  0.1481
 4229TIP3    H134246   5.610   5.120   8.276 -1.0795  0.1158 -1.4143
 4229TIP3    H234247   5.615   5.269   8.300 -1.0745 -0.1423  0.3377
 4230TIP3   OH234248   6.501   4.220   7.942  0.1841  0.3992  0.1823
 4230TIP3    H134249   6.501   4.200   8.036  1.9886 -1.7127 -0.1645
 4230TIP3    H234250   6.594   4.224   7.918 -0.1185 -2.4927 -2.0517
 4231TIP3   OH234251   1.931   5.005   7.303 -0.2355  0.4361  0.6294
 4231TIP3    H134252   1.890   4.919   7.292  0.6862  0.0050  0.3496
 4231TIP3    H234253   1.957   5.008   7.395 -1.0143  0.7770  0.8463
 4232TIP3   OH234254   6.479   2.661   0.719 -0.4342  0.1279  0.0881
 4232TIP3    H134255   6.496   2.590   0.781 -1.9903  0.0236  0.4249
 4232TIP3    H234256   6.532   2.639   0.642  0.0846 -0.7144  0.6707
 4233TIP3   OH234257   0.091   6.460   7.518 -0.8452  0.4969  0.4194
 4233TIP3    H134258   0.104   6.522   7.589 -0.2580 -1.8744  2.5017
 4233TIP3    H234259   0.052   6.383   7.560 -2.2575 -0.3341 -2.1665
 4234TIP3   OH234260   2.027   4.283   8.533  0.2079 -0.7023  0.2373
 4234TIP3    H134261   1.992   4.196   8.514 -1.1753 -0.2172  0.4378
 4234TIP3    H234262   2.043   4.322   8.448  0.7986 -1.1285  0.1468
 4235TIP3   OH234263   4.400   2.576   8.231  0.0571  0.5385 -0.0689
 4235TIP3    H134264   4.462   2.629   8.180 -0.3106  0.7826 -0.2638
 4235TIP3    H234265   4.314   2.602   8.199 -0.2274  1.3052  1.2693
 4236TIP3   OH234266   1.781   4.128   0.727 -0.0001 -0.0735 -0.0952
 4236TIP3    H134267   1.847   4.193   0.706 -0.6547  0.4936 -0.4262
 4236TIP3    H234268   1.828   4.044   0.726  0.9478  0.4263  0.8049
 4237TIP3   OH234269   6.441   1.642   0.186 -0.0563 -0.2267 -0.3172
 4237TIP3    H134270   6.500   1.573   0.217  1.0368 -0.1314 -2.0770
 4237TIP3    H234271   6.355   1.615   0.217  0.4460 -2.0607 -0.4030
 4238TIP3   OH234272   4.027   2.586   8.669  0.0832  0.1636  0.0585
 4238TIP3    H134273   4.060   2.630   8.591  1.3199  3.0779  2.0301
 4238TIP3    H234274   3.941   2.552   8.644 -0.0388  1.9659 -2.2654
 4239TIP3   OH234275   3.104   4.124   0.312 -0.4230 -0.0945 -0.4245
 4239TIP3    H134276   3.046   4.116   0.388 -1.9946 -1.2890 -1.6695
 4239TIP3    H234277   3.045   4.132   0.238  1.0554  0.0238 -1.6377
 4240TIP3   OH234278   3.879   5.057   0.292  0.4347  0.2122 -0.0714
 4240TIP3    H134279   3.862   4.966   0.316  1.9939 -0.4651 -1.2957
 4240TIP3    H234280   3.942   5.088   0.358 -0.6310  0.6578  0.7590
 4241TIP3   OH234281   6.573   1.592   2.035  0.1710  0.3372  0.0146
 4241TIP3    H134282   6.531   1.576   2.119 -1.4784  1.3833 -0.5676
 4241TIP3    H234283   6.666   1.578   2.052 -0.0640  0.9377  2.1039
 4242TIP3   OH234284   3.004   0.739   2.087 -0.3473  0.6043  0.1145
 4242TIP3    H134285   2.929   0.798   2.095 -1.2941 -0.5260 -0.1986
 4242TIP3    H234286   3.044   0.740   2.174  0.0797  2.2391 -0.0709
 4243TIP3   OH234287   4.655   5.920   8.244 -0.0695  0.2763 -0.5883
 4243TIP3    H134288   4.723   5.971   8.290 -0.0834 -0.4219  0.2402
 4243TIP3    H234289   4.618   5.865   8.312 -1.5993  0.7597 -0.9991
 4244TIP3   OH234290   6.187   6.834   7.133  0.1629  0.3474 -0.0626
 4244TIP3    H134291   6.193   6.854   7.039  2.3079  1.1211  0.2000
 4244TIP3    H234292   6.264   6.873   7.172 -0.2851 -0.6077  1.9540
 4245TIP3   OH234293   3.483   6.002   8.451 -0.6186 -0.0424  0.1863
 4245TIP3    H134294   3.398   5.960   8.464 -1.5330  1.6516  0.0126
 4245TIP3    H234295   3.507   5.982   8.361 -2.0011  1.3649 -0.5494
 4246TIP3   OH234296   3.279   0.320   6.294 -0.6236  0.2814  0.6293
 4246TIP3    H134297   3.288   0.395   6.235  1.4897 -0.5770 -0.2373
 4246TIP3    H234298   3.330   0.344   6.371  0.8985 -0.6191 -0.0649
 4247TIP3   OH234299   1.946   5.327   6.956 -0.6940 -0.1167 -0.1766
 4247TIP3    H134300   1.856   5.312   6.987 -0.6832 -0.0208 -0.0999
 4247TIP3    H234301   1.951   5.278   6.874 -0.0020 -2.3362  1.1149
 4248TIP3   OH234302   5.554   4.908   0.069  1.0380  0.2508 -0.5105
 4248TIP3    H134303   5.507   4.989   0.049 -1.0703 -0.6159  0.6007
 4248TIP3    H234304   5.561   4.863  -0.015  1.3844  1.1383 -0.9740
 4249TIP3   OH234305   0.759   0.214   0.373 -1.0206  0.1552  0.1177
 4249TIP3    H134306   0.698   0.231   0.445  0.5068  1.1628  1.2271
 4249TIP3    H234307   0.831   0.166   0.414 -0.2344  0.5310 -0.7945
 4250TIP3   OH234308   2.797   5.925   1.507  0.4640  0.3740 -0.0837
 4250TIP3    H134309   2.850   5.846   1.505 -0.1004 -0.1245  1.9378
 4250TIP3    H234310   2.727   5.905   1.569 -0.0103  2.2637  0.0458
 4251TIP3   OH234311   0.817   3.149   8.335  0.3648  0.1494 -0.4352
 4251TIP3    H134312   0.738   3.202   8.343  0.3061  0.0483 -0.3427
 4251TIP3    H234313   0.875   3.201   8.279 -0.1873 -0.2684 -1.4315
 4252TIP3   OH234314   1.217   0.959   8.522 -0.3693 -0.1235 -0.1442
 4252TIP3    H134315   1.126   0.987   8.527 -0.5799 -0.7650 -0.2846
 4252TIP3    H234316   1.225   0.892   8.590  0.2787  0.6738  0.5906
 4253TIP3   OH234317   1.747   5.120   1.628 -0.1701  0.1327  0.4811
 4253TIP3    H134318   1.696   5.091   1.704 -0.5496  1.2800  0.6822
 4253TIP3    H234319   1.793   5.199   1.658 -2.2649  2.1003 -1.1635
 4254TIP3   OH234320   4.547   1.369   7.543  0.4768 -0.1050 -0.1848
 4254TIP3    H134321   4.621   1.311   7.527  0.8324  0.2101  0.3117
 4254TIP3    H234322   4.535   1.368   7.638 -0.5183 -0.6028 -0.2995
 4255TIP3   OH234323   3.112   3.721   8.463  0.4066  0.4401 -0.6632
 4255TIP3    H134324   3.145   3.631   8.467  1.2208  0.7390 -0.2685
 4255TIP3    H234325   3.107   3.740   8.369  0.2606 -0.0099 -0.7485
 4256TIP3   OH234326   5.864   6.041   2.722  0.1238  0.2611 -0.4256
 4256TIP3    H134327   5.786   6.060   2.670 -1.2326 -1.9287  0.6570
 4256TIP3    H234328   5.901   5.963   2.681 -0.8815 -1.4124  1.6779
 4257TIP3   OH234329   4.562   2.814   1.083  0.2378  0.1967 -0.0975
 4257TIP3    H134330   4.467   2.802   1.082  0.1055  1.1674  0.3782
 4257TIP3    H234331   4.582   2.859   1.002  0.2102  0.5650  0.0986
 4258TIP3   OH234332   2.154   4.342   2.349  0.6139 -0.1109  0.3674
 4258TIP3    H134333   2.103   4.422   2.337 -2.9361 -2.1771  0.2340
 4258TIP3    H234334   2.166   4.334   2.444  0.8078  0.4592  0.3906
 4259TIP3   OH234335   5.011   0.992   8.463  0.1604  0.5300  0.0976
 4259TIP3    H134336   5.013   1.060   8.395 -0.2314  0.2701 -0.1832
 4259TIP3    H234337   5.094   1.001   8.509  0.1479  1.1458  0.0089
 4260TIP3   OH234338   2.248   0.689   7.158  0.1444  0.3238 -0.0685
 4260TIP3    H134339   2.225   0.778   7.133 -0.0356  0.2569 -0.1393
 4260TIP3    H234340   2.213   0.678   7.246 -2.8982 -0.8145 -1.2798
 4261TIP3   OH234341   3.399   4.608   0.785  0.3632 -0.4829 -0.1184
 4261TIP3    H134342   3.450   4.589   0.706 -0.9509 -2.6123 -0.5350
 4261TIP3    H234343   3.452   4.572   0.856  0.9942  0.3641 -0.1489
 4262TIP3   OH234344   6.106   4.393   2.205  0.0579 -0.0707 -0.4632
 4262TIP3    H134345   6.174   4.433   2.151  1.6815 -2.3274 -0.2328
 4262TIP3    H234346   6.091   4.307   2.167  2.4935 -2.5036  3.3541
 4263TIP3   OH234347   6.419   0.802   6.784  0.1251  0.3240  0.2684
 4263TIP3    H134348   6.468   0.842   6.712 -0.4736  1.5867  0.5476
 4263TIP3    H234349   6.441   0.855   6.861  0.1126 -0.5083  0.8638
 4264TIP3   OH234350   0.566   6.275   7.579 -0.0364  0.4004 -0.5467
 4264TIP3    H134351   0.618   6.307   7.505  0.0550 -1.6139 -1.4078
 4264TIP3    H234352   0.582   6.340   7.648  0.0991  2.2019 -2.1613
 4265TIP3   OH234353   2.399   2.559   2.113 -0.3571  0.0051 -0.7242
 4265TIP3    H134354   2.372   2.643   2.151  0.0982  0.3087 -1.0614
 4265TIP3    H234355   2.456   2.583   2.040  0.8122 -0.6194 -0.0407
 4266TIP3   OH234356   1.235   0.005   6.292  0.6338  0.0087 -0.1544
 4266TIP3    H134357   1.158  -0.047   6.314 -0.6212  1.5264 -0.7536
 4266TIP3    H234358   1.207   0.096   6.304  2.2422  0.6132 -0.6829
 4267TIP3   OH234359   2.373   5.143   0.154 -0.0426 -0.1474  0.1692
 4267TIP3    H134360   2.400   5.058   0.190 -1.0964 -0.6483 -0.1824
 4267TIP3    H234361   2.366   5.201   0.229  3.5597  0.5036  0.1704
 4268TIP3   OH234362   0.383   4.278   2.317 -0.6197 -0.1680  0.4237
 4268TIP3    H134363   0.343   4.273   2.404 -1.6071 -0.8023 -0.0594
 4268TIP3    H234364   0.332   4.219   2.263 -0.4296  0.7162 -0.7678
 4269TIP3   OH234365   0.488   1.884   6.248  0.1304  0.1574 -0.4494
 4269TIP3    H134366   0.411   1.914   6.297 -0.4193 -0.7204 -0.7438
 4269TIP3    H234367   0.484   1.789   6.254  1.6802  0.1091  0.2337
 4270TIP3   OH234368   6.533   1.482   0.620 -0.3062  0.3718  0.1490
 4270TIP3    H134369   6.480   1.456   0.544 -0.0749  0.4163 -0.0283
 4270TIP3    H234370   6.482   1.551   0.662 -0.2306  0.6595 -0.2214
 4271TIP3   OH234371   5.118   5.258   7.776 -0.0621 -0.1236 -0.8007
 4271TIP3    H134372   5.023   5.255   7.760 -0.3825  2.2383  0.3344
 4271TIP3    H234373   5.131   5.207   7.855 -0.8316  1.7516  0.5968
 4272TIP3   OH234374   3.919   0.666   8.354  0.4053  0.0022 -0.0088
 4272TIP3    H134375   3.902   0.747   8.306  0.7962  0.5473  0.7339
 4272TIP3    H234376   3.855   0.603   8.320 -0.1520  0.7327 -0.3348
 4273TIP3   OH234377   4.619   2.715   8.035  0.1685 -0.4768  0.4358
 4273TIP3    H134378   4.699   2.711   7.982 -0.0683 -0.3424  0.0651
 4273TIP3    H234379   4.642   2.772   8.109  0.4140 -0.4370  0.3313
 4274TIP3   OH234380   2.770   2.066   7.311  0.7011 -0.4132  0.1576
 4274TIP3    H134381   2.797   2.096   7.224 -0.5960  0.1205 -0.0805
 4274TIP3    H234382   2.851   2.037   7.352  1.8333  1.9599 -0.1901
 4275TIP3   OH234383   1.351   0.674   1.738  0.1330 -0.8728  0.2405
 4275TIP3    H134384   1.292   0.610   1.778  1.1173 -2.1463 -0.2649
 4275TIP3    H234385   1.300   0.756   1.736 -2.5225 -2.3820 -2.2029
 4276TIP3   OH234386   2.736   6.599   7.080 -0.1171  0.3201  0.0853
 4276TIP3    H134387   2.824   6.601   7.118 -0.0860 -0.5732  0.0732
 4276TIP3    H234388   2.742   6.535   7.009 -0.9612 -0.2990  0.5582
 4277TIP3   OH234389   0.467   2.462   7.289  0.0819 -0.4944 -0.4994
 4277TIP3    H134390   0.391   2.443   7.234 -0.6315 -0.5182  0.4868
 4277TIP3    H234391   0.462   2.398   7.360 -0.1301  0.8151  0.7013
 4278TIP3   OH234392   3.691   4.538   6.950 -0.2681  0.1598  0.3929
 4278TIP3    H134393   3.764   4.504   6.898 -1.3117  0.2934 -1.1848
 4278TIP3    H234394   3.636   4.461   6.968 -0.7227  0.3780 -0.0494
 4279TIP3   OH234395   5.658   3.254   8.527 -0.5588 -0.1826 -0.4019
 4279TIP3    H134396   5.610   3.199   8.589  0.8991 -1.0530  0.0076
 4279TIP3    H234397   5.703   3.192   8.469  1.8114  0.4650  0.5911
 4280TIP3   OH234398   4.978   0.747   7.811  0.3361 -0.1271 -0.0044
 4280TIP3    H134399   5.001   0.806   7.739 -1.2641 -0.3716 -0.7596
 4280TIP3    H234400   4.911   0.689   7.774 -0.0830 -0.6509  1.5143
 4281TIP3   OH234401   3.068   5.161   0.115 -0.3740  0.1323  0.0679
 4281TIP3    H134402   3.146   5.206   0.147 -0.4510 -0.4539  1.1165
 4281TIP3    H234403   3.063   5.081   0.167 -0.7117 -0.6930 -1.1729
 4282TIP3   OH234404   4.071   4.502   2.152  0.4683 -0.2617  0.2608
 4282TIP3    H134405   4.034   4.414   2.145 -1.1625  0.3390  0.8920
 4282TIP3    H234406   4.157   4.489   2.193  1.5760 -1.8164 -2.3082
 4283TIP3   OH234407   1.677   5.293   0.393 -0.0872 -0.4894 -0.0793
 4283TIP3    H134408   1.694   5.305   0.300  0.2536 -1.0386 -0.0963
 4283TIP3    H234409   1.668   5.382   0.428  0.9347 -0.2291 -0.4336
 4284TIP3   OH234410   4.115   2.518   0.605 -0.0194 -0.1049  0.2426
 4284TIP3    H134411   4.114   2.610   0.632 -0.3745  0.3454 -1.2323
 4284TIP3    H234412   4.186   2.479   0.656  0.6828  1.1824  0.2860
 4285TIP3   OH234413   6.299   5.430   2.032  0.3250 -0.0468  0.3286
 4285TIP3    H134414   6.357   5.454   2.104  0.7379 -0.6216  0.1975
 4285TIP3    H234415   6.291   5.335   2.038  0.8280 -0.1773 -0.7080
 4286TIP3   OH234416   1.685   4.627   1.966  0.2843  0.2352 -0.0396
 4286TIP3    H134417   1.761   4.589   2.010 -0.5025 -1.5627 -0.1344
 4286TIP3    H234418   1.628   4.656   2.037  0.7299  0.9205  0.0428
 4287TIP3   OH234419   0.261   1.181   7.264 -0.2147  0.4789  0.4905
 4287TIP3    H134420   0.249   1.275   7.254 -0.3970  0.5226  1.0873
 4287TIP3    H234421   0.245   1.164   7.357 -2.3029 -0.4396  0.0253
 4288TIP3   OH234422   5.505   4.503   0.147 -0.1302  0.0039  0.5980
 4288TIP3    H134423   5.561   4.438   0.104 -0.8505  0.3934 -0.9751
 4288TIP3    H234424   5.503   4.475   0.239  0.0705 -1.8491  0.0832
 4289TIP3   OH234425   0.193   0.733   6.769  0.3582  0.1080  0.4542
 4289TIP3    H134426   0.258   0.668   6.794  0.6980  0.4786  0.5495
 4289TIP3    H234427   0.231   0.777   6.693 -0.2767 -0.4138 -0.1715
 4290TIP3   OH234428   6.414   0.964   7.775  0.5382 -0.2772  0.4826
 4290TIP3    H134429   6.358   0.887   7.779  0.2632 -0.1804 -0.8363
 4290TIP3    H234430   6.355   1.038   7.789  0.6965 -0.2684  1.1311
 4291TIP3   OH234431   6.635   1.395   7.745 -0.0443  0.2128  0.2141
 4291TIP3    H134432   6.660   1.461   7.810 -1.3604  0.3237  0.6307
 4291TIP3    H234433   6.565   1.435   7.694 -0.8077 -0.8130  0.4163
 4292TIP3   OH234434   5.900   2.587   8.479 -0.1978  0.6221 -0.5393
 4292TIP3    H134435   5.973   2.644   8.456  1.1611 -1.2353 -1.0592
 4292TIP3    H234436   5.888   2.530   8.403 -0.8218 -0.4587  0.3357
 4293TIP3   OH234437   2.181   6.158   7.199 -0.4062 -0.4396 -0.0935
 4293TIP3    H134438   2.125   6.236   7.203 -0.5597 -0.4734 -1.2435
 4293TIP3    H234439   2.183   6.135   7.106  1.6923 -0.3179 -0.1274
 4294TIP3   OH234440   4.333   1.670   6.752  0.2532  0.5272 -0.5145
 4294TIP3    H134441   4.333   1.737   6.821 -0.3550  1.3298 -1.2733
 4294TIP3    H234442   4.355   1.589   6.798 -0.6445  0.9521  0.7353
 4295TIP3   OH234443   5.810   3.471   8.614  0.3487  0.3545 -0.1254
 4295TIP3    H134444   5.782   3.536   8.550  0.8591 -0.0516 -0.7613
 4295TIP3    H234445   5.762   3.391   8.591  1.8134 -0.2877 -1.0878
 4296TIP3   OH234446   5.746   0.654   7.391  0.6652 -0.0194  0.1119
 4296TIP3    H134447   5.803   0.582   7.419  1.5729  0.8554  0.5764
 4296TIP3    H234448   5.707   0.686   7.473 -0.3064 -0.4345 -0.1725
 4297TIP3   OH234449   0.209   0.544   1.008 -0.8273  0.3803 -0.0331
 4297TIP3    H134450   0.159   0.617   0.972 -2.9012 -0.4429  1.0598
 4297TIP3    H234451   0.185   0.469   0.954 -2.5806 -0.4870  1.8481
 4298TIP3   OH234452   4.161   1.018   1.214  0.0459  0.4421 -0.4586
 4298TIP3    H134453   4.120   1.005   1.129 -0.8414 -1.6503  0.2368
 4298TIP3    H234454   4.255   1.015   1.197 -0.0763  1.8726 -1.5799
 4299TIP3   OH234455   2.229   2.581   7.866  0.0189 -0.2863 -0.3564
 4299TIP3    H134456   2.178   2.508   7.903 -0.0315 -0.3504 -0.5462
 4299TIP3    H234457   2.256   2.548   7.780  1.2126 -0.6309  0.1329
 4300TIP3   OH234458   0.932   3.026   1.097  0.4448 -0.3067 -0.2545
 4300TIP3    H134459   1.009   3.082   1.085  1.1076 -1.0248  0.6015
 4300TIP3    H234460   0.961   2.957   1.156  0.3435 -2.9012 -3.0024
 4301TIP3   OH234461   3.784   4.391   8.106  0.3216  0.2363 -0.0200
 4301TIP3    H134462   3.837   4.340   8.166 -0.7448  0.1954  0.9083
 4301TIP3    H234463   3.720   4.436   8.161 -1.9122 -1.2565 -1.2295
 4302TIP3   OH234464   2.260   1.118   7.354  0.2182  0.2415  0.2881
 4302TIP3    H134465   2.180   1.168   7.334 -0.0582 -0.3196 -0.0352
 4302TIP3    H234466   2.331   1.174   7.324 -0.0219  1.0014  1.1049
 4303TIP3   OH234467   1.660   1.612   8.537 -0.1142 -0.0636  0.5427
 4303TIP3    H134468   1.753   1.609   8.559 -0.1527  1.8216  1.0728
 4303TIP3    H234469   1.618   1.556   8.602  0.4855  0.3775  1.3292
 4304TIP3   OH234470   2.750   5.083   0.260  0.0304 -0.4757  0.3982
 4304TIP3    H134471   2.797   5.032   0.193 -0.2045  1.5544 -1.3901
 4304TIP3    H234472   2.803   5.071   0.339  1.6596 -1.0219 -0.7144
 4305TIP3   OH234473   6.091   2.819   1.180 -0.1423 -0.1639  0.6716
 4305TIP3    H134474   6.064   2.752   1.117 -0.2273  0.8660 -0.4226
 4305TIP3    H234475   6.121   2.769   1.256 -3.0099 -1.4476  1.1345
 4306TIP3   OH234476   5.961   3.751   8.270 -0.5228  0.5300 -0.5507
 4306TIP3    H134477   6.037   3.697   8.290 -1.1812 -0.2537 -0.0695
 4306TIP3    H234478   5.951   3.746   8.175 -1.9078 -2.1341 -0.3574
 4307TIP3   OH234479   2.943   2.558   7.897 -0.0836 -0.0042  0.0561
 4307TIP3    H134480   2.959   2.512   7.979 -2.0628 -0.9515 -0.0268
 4307TIP3    H234481   2.876   2.505   7.853  0.5189  0.7751 -1.9226
 4308TIP3   OH234482   5.171   3.795   0.532 -0.1434  0.2844  0.1954
 4308TIP3    H134483   5.131   3.743   0.461 -1.4583  0.0479  1.0745
 4308TIP3    H234484   5.193   3.878   0.491 -1.3514  0.3369 -0.3912
 4309TIP3   OH234485   2.188   6.215   1.327 -0.2156  0.1175 -0.8278
 4309TIP3    H134486   2.131   6.275   1.279 -0.4398  0.6477  0.0846
 4309TIP3    H234487   2.153   6.215   1.416 -0.2656 -1.4174 -0.8127
 4310TIP3   OH234488   3.533   6.325   1.182  0.0587  0.1352 -0.0294
 4310TIP3    H134489   3.548   6.397   1.243 -0.7011 -1.0825  1.6671
 4310TIP3    H234490   3.448   6.345   1.141  0.8280  1.2346 -1.1416
 4311TIP3   OH234491   4.534   5.349   0.889 -0.3163 -0.2170 -0.4837
 4311TIP3    H134492   4.590   5.312   0.821 -2.2913 -1.7980 -1.3518
 4311TIP3    H234493   4.502   5.431   0.852  0.3693  0.0492 -0.5085
 4312TIP3   OH234494   4.554   4.361   6.869 -0.2566 -0.0989  0.0263
 4312TIP3    H134495   4.566   4.414   6.790  0.7749  0.7488  0.7309
 4312TIP3    H234496   4.625   4.296   6.865  1.0178  1.1587  1.1916
 4313TIP3   OH234497   0.886   1.333   0.248 -0.2464 -0.2036  0.1228
 4313TIP3    H134498   0.819   1.311   0.183  0.8084  0.8907 -1.4022
 4313TIP3    H234499   0.957   1.371   0.197 -0.8636  4.3030  2.1756
 4314TIP3   OH234500   3.188   3.749   1.487  0.2754  0.2181 -0.6977
 4314TIP3    H134501   3.131   3.716   1.556 -0.4849 -1.5188 -2.0743
 4314TIP3    H234502   3.276   3.721   1.514  0.1548  0.6061  0.1313
 4315TIP3   OH234503   4.679   4.049   8.395  0.0683 -0.1733 -0.1729
 4315TIP3    H134504   4.678   4.108   8.470 -0.9411 -0.6108  0.1724
 4315TIP3    H234505   4.705   3.964   8.431 -0.6968 -0.4518 -0.2475
 4316TIP3   OH234506   5.307   4.056   2.554  0.7188  0.4232 -0.7162
 4316TIP3    H134507   5.345   4.054   2.642  2.2337  0.0967 -1.3486
 4316TIP3    H234508   5.250   3.980   2.551  3.4298 -1.7528 -1.1488
 4317TIP3   OH234509   1.083   3.708   8.286 -0.1992 -0.2330 -0.8087
 4317TIP3    H134510   1.026   3.631   8.293 -1.5062  0.8166  1.1403
 4317TIP3    H234511   1.046   3.759   8.214 -1.3140  0.0578 -0.0637
 4318TIP3   OH234512   5.273   1.199   0.646  0.1393  0.3888 -0.7184
 4318TIP3    H134513   5.258   1.276   0.700  1.0712 -0.7691  1.3254
 4318TIP3    H234514   5.310   1.233   0.565  0.7773  2.0769  0.2315
 4319TIP3   OH234515   5.065   2.007   7.949  0.4126  0.2317 -0.6855
 4319TIP3    H134516   5.151   2.000   7.907  0.2133  1.2634 -1.3024
 4319TIP3    H234517   5.005   2.029   7.878 -0.5542 -1.3736 -0.4305
 4320TIP3   OH234518   3.198   4.287   2.150 -0.4014 -0.3026  0.4656
 4320TIP3    H134519   3.271   4.233   2.178  0.6199  0.2446 -1.0168
 4320TIP3    H234520   3.139   4.290   2.226  0.5470 -1.6896  1.2917
 4321TIP3   OH234521   5.334   1.592   7.776 -0.0185 -0.0133 -0.0676
 4321TIP3    H134522   5.322   1.572   7.869 -0.4984 -0.0174 -0.1269
 4321TIP3    H234523   5.411   1.541   7.750 -1.3772 -2.0776 -0.2861
 4322TIP3   OH234524   3.469   4.283   0.234  1.0931  0.0160  0.0566
 4322TIP3    H134525   3.406   4.218   0.265  0.3021 -0.0005 -1.5104
 4322TIP3    H234526   3.548   4.232   0.215  0.7821 -0.3447 -0.2800
 4323TIP3   OH234527   1.771   2.980   7.355 -0.4456 -0.2376  0.2689
 4323TIP3    H134528   1.851   2.928   7.358 -1.4841 -2.0324 -1.0394
 4323TIP3    H234529   1.707   2.931   7.406 -0.7901  1.0940  1.1773
 4324TIP3   OH234530   2.976   1.173   1.820  0.2273 -0.0309  0.4813
 4324TIP3    H134531   3.000   1.116   1.893  0.6429  0.7775  0.9892
 4324TIP3    H234532   3.036   1.247   1.827  1.1201 -0.5052 -1.4143
 4325TIP3   OH234533   3.725   3.313   6.512  0.1280 -0.6792  0.5292
 4325TIP3    H134534   3.808   3.351   6.485  0.7132 -2.3131 -0.1148
 4325TIP3    H234535   3.697   3.261   6.437  0.8527 -3.8692  2.2918
 4326TIP3   OH234536   2.892   4.173   0.948 -0.1436 -0.6428 -0.0003
 4326TIP3    H134537   2.806   4.204   0.920  0.5910  1.8226  0.2264
 4326TIP3    H234538   2.949   4.189   0.873  1.0528  2.4935  1.3611
 4327TIP3   OH234539   5.829   4.557   1.721 -0.1051 -0.2030  0.3217
 4327TIP3    H134540   5.887   4.485   1.745 -0.8856 -0.7561  0.6203
 4327TIP3    H234541   5.868   4.595   1.643  1.0123 -0.1298  0.8911
 4328TIP3   OH234542   3.996   1.982   0.706 -0.1831  0.3954  0.6711
 4328TIP3    H134543   3.919   2.035   0.725 -0.5495 -0.1956  0.8774
 4328TIP3    H234544   4.069   2.044   0.704 -0.3812  0.7344  2.2973
 4329TIP3   OH234545   0.620   0.539   0.317 -0.4500 -0.5251  0.0277
 4329TIP3    H134546   0.618   0.444   0.305  1.0061 -0.3782 -1.8607
 4329TIP3    H234547   0.672   0.571   0.243 -0.6855  1.7253  0.7743
 4330TIP3   OH234548   4.044   2.789   1.343 -0.0379  0.3740  0.4004
 4330TIP3    H134549   4.034   2.737   1.263  0.4376  1.8656 -0.6743
 4330TIP3    H234550   4.124   2.757   1.383 -1.4777 -2.0427  1.6391
 4331TIP3   OH234551   4.673   1.170   7.371  0.0490 -0.3381 -0.0645
 4331TIP3    H134552   4.760   1.138   7.348  0.8241  1.8502 -0.4462
 4331TIP3    H234553   4.638   1.104   7.430  1.4383 -1.9030 -0.9125
 4332TIP3   OH234554   4.042   4.538   8.259  0.0956 -0.1424  1.0838
 4332TIP3    H134555   3.975   4.592   8.215  1.2713  0.4929  0.0016
 4332TIP3    H234556   4.024   4.548   8.352 -0.5083  1.0892  0.8512
 4333TIP3   OH234557   0.398   6.767   6.941  0.2733  0.5705  0.0882
 4333TIP3    H134558   0.321   6.817   6.914 -0.4927 -0.2019  0.7578
 4333TIP3    H234559   0.391   6.763   7.037  1.1603  0.4981  0.1580
 4334TIP3   OH234560   1.989   5.624   7.410 -0.0637 -0.2736 -0.1828
 4334TIP3    H134561   2.046   5.601   7.483 -0.5213  1.2022  0.6904
 4334TIP3    H234562   2.045   5.619   7.332  0.8737 -0.2425  0.4780
 4335TIP3   OH234563   1.428   5.659   7.804 -0.6850  0.0975  0.3734
 4335TIP3    H134564   1.425   5.749   7.772 -0.0407  0.8411  2.2909
 4335TIP3    H234565   1.512   5.625   7.773 -1.7573 -0.5857 -2.0545
 4336TIP3   OH234566   3.858   4.154   0.849 -0.1753 -0.3800  0.0336
 4336TIP3    H134567   3.888   4.107   0.926  0.1516  0.9320  0.7367
 4336TIP3    H234568   3.842   4.243   0.880  1.1165  0.4963 -1.6432
 4337TIP3   OH234569   4.192   0.723   8.492 -0.0611  0.1606  0.3088
 4337TIP3    H134570   4.109   0.680   8.515 -1.5411  1.9279 -1.3052
 4337TIP3    H234571   4.198   0.796   8.554  0.5922 -0.2718  0.7649
 4338TIP3   OH234572   0.764   6.743   1.392  0.6604 -0.0813 -0.3080
 4338TIP3    H134573   0.849   6.737   1.347  0.9445 -0.7953  0.2981
 4338TIP3    H234574   0.706   6.785   1.328  1.5691  0.7890 -0.5826
 4339TIP3   OH234575   0.453   0.226   7.696  0.4066 -0.3564 -0.1764
 4339TIP3    H134576   0.547   0.208   7.687 -0.0836 -2.8485 -1.1144
 4339TIP3    H234577   0.426   0.257   7.609  0.5338  1.6294  0.4366
 4340TIP3   OH234578   3.080   2.752   6.339 -0.4356 -0.2345 -0.1063
 4340TIP3    H134579   3.035   2.829   6.304 -0.3374 -0.2328 -0.2307
 4340TIP3    H234580   3.172   2.779   6.343  0.1672 -1.4164 -3.2131
 4341TIP3   OH234581   6.370   4.522   6.435  0.0238 -0.4820  0.6176
 4341TIP3    H134582   6.406   4.542   6.349 -2.2480  1.7276  0.0422
 4341TIP3    H234583   6.332   4.435   6.425 -1.3492  0.2368 -1.1174
 4342TIP3   OH234584   5.160   1.718   0.094 -0.0420  0.2833  0.0949
 4342TIP3    H134585   5.190   1.750   0.179  0.0974 -0.9978  0.5415
 4342TIP3    H234586   5.165   1.794   0.037 -1.2726  1.5049  1.5082
 4343TIP3   OH234587   4.692   5.632   8.114  0.3030  0.4623 -0.0460
 4343TIP3    H134588   4.631   5.664   8.181 -0.9557  0.6336 -1.2025
 4343TIP3    H234589   4.770   5.686   8.125 -0.2972  1.2375  0.5812
 4344TIP3   OH234590   3.967   2.904   7.633  0.0353 -0.7401 -0.3786
 4344TIP3    H134591   3.908   2.846   7.681 -0.0644  0.6081  1.2081
 4344TIP3    H234592   4.043   2.914   7.690 -0.4241  1.5319 -0.0482
 4345TIP3   OH234593   4.126   2.048   7.132 -0.2200 -0.1696 -0.1962
 4345TIP3    H134594   4.044   1.999   7.122 -0.0614 -0.4311 -0.2252
 4345TIP3    H234595   4.098   2.139   7.147 -0.5053 -0.1856 -0.6202
 4346TIP3   OH234596   5.813   4.812   0.194 -0.1158 -0.3275  0.3102
 4346TIP3    H134597   5.769   4.848   0.271 -1.0842 -3.1010  1.2064
 4346TIP3    H234598   5.742   4.792   0.133  0.3556 -0.6748 -0.1353
 4347TIP3   OH234599   1.394   5.321   2.103 -0.0836 -0.1301  0.0230
 4347TIP3    H134600   1.368   5.286   2.188  1.0420 -1.1138 -0.0041
 4347TIP3    H234601   1.333   5.281   2.041 -0.2494 -0.2315  0.2512
 4348TIP3   OH234602   5.826   3.748   7.216 -0.2901 -0.1654  0.0142
 4348TIP3    H134603   5.895   3.726   7.278 -0.0144  0.1689 -0.1693
 4348TIP3    H234604   5.868   3.739   7.130 -0.5924 -0.3653 -0.1116
 4349TIP3   OH234605   0.539   3.310   0.840 -0.0121 -0.2599 -0.1782
 4349TIP3    H134606   0.591   3.242   0.882  0.2695  0.0399 -0.0326
 4349TIP3    H234607   0.549   3.387   0.897  0.5008  0.1990 -0.8657
 4350TIP3   OH234608   6.587   3.962   1.070 -0.0334 -0.0697 -0.2433
 4350TIP3    H134609   6.597   3.870   1.046 -3.5940 -0.7447  0.3877
 4350TIP3    H234610   6.571   4.007   0.988 -0.6545 -0.4118 -0.3095
 4351TIP3   OH234611   6.126   3.841   6.422 -0.2997  0.0829 -0.3062
 4351TIP3    H134612   6.050   3.793   6.389  0.3710  0.0090 -1.8362
 4351TIP3    H234613   6.111   3.931   6.394 -0.5340  0.3645  0.7013
 4352TIP3   OH234614   0.939   0.947   8.577 -0.6427  0.0816  0.5772
 4352TIP3    H134615   0.927   0.859   8.542 -0.1983  0.3796 -0.3348
 4352TIP3    H234616   0.894   0.945   8.662 -1.9674 -0.5732 -0.1081
 4353TIP3   OH234617   2.672   4.326   7.073 -0.4726  0.2083 -0.0240
 4353TIP3    H134618   2.684   4.420   7.064 -1.0133  0.2040 -0.8891
 4353TIP3    H234619   2.577   4.314   7.081 -0.4195 -0.2773 -0.0659
 4354TIP3   OH234620   2.706   4.028   7.838 -0.0550  0.0728  0.5729
 4354TIP3    H134621   2.710   4.067   7.750  1.0719  1.2907  1.1302
 4354TIP3    H234622   2.640   3.960   7.830  0.2198 -0.0499 -1.3040
 4355TIP3   OH234623   3.657   3.969   0.432 -0.2738  0.1049 -0.1739
 4355TIP3    H134624   3.586   4.000   0.487  1.5723  0.4253  2.2145
 4355TIP3    H234625   3.625   3.886   0.396 -3.2719  2.0372 -2.4294
 4356TIP3   OH234626   3.994   5.793   2.234  0.0401  0.2105  0.1520
 4356TIP3    H134627   3.998   5.876   2.186 -1.0556  0.8698  1.1606
 4356TIP3    H234628   3.918   5.801   2.291  0.9420 -0.7964  1.5738
 4357TIP3   OH234629   6.178   6.362   0.658  0.7048 -0.5621  0.3417
 4357TIP3    H134630   6.233   6.286   0.681  1.0248 -1.0782 -1.9428
 4357TIP3    H234631   6.099   6.325   0.621 -0.6487  0.2259  2.2554
 4358TIP3   OH234632   4.284   2.217   1.881 -0.4538  0.1471 -0.2947
 4358TIP3    H134633   4.228   2.247   1.809  0.8804  0.0311 -1.4094
 4358TIP3    H234634   4.341   2.292   1.899  1.4768 -0.9095 -1.6724
 4359TIP3   OH234635   4.237   4.381   1.524 -0.0695 -0.2466 -0.2451
 4359TIP3    H134636   4.195   4.439   1.460 -0.6214 -0.7393 -0.3428
 4359TIP3    H234637   4.182   4.389   1.603  1.2022  1.1646  0.5482
 4360TIP3   OH234638   6.828   1.552   7.561  0.1405 -0.2164  0.2793
 4360TIP3    H134639   6.823   1.646   7.545 -2.9803 -0.1944  0.8033
 4360TIP3    H234640   6.804   1.542   7.653 -1.7553 -1.5959 -0.2934
 4361TIP3   OH234641   3.368   1.197   0.558  0.5244 -0.1909 -0.4134
 4361TIP3    H134642   3.416   1.179   0.477  0.7906  1.7004 -0.7262
 4361TIP3    H234643   3.385   1.121   0.613  2.4681 -0.3777 -1.1877
 4362TIP3   OH234644   1.489   5.679   7.149 -0.5426 -0.2931  0.0811
 4362TIP3    H134645   1.485   5.682   7.053  0.8649  0.1032  0.0131
 4362TIP3    H234646   1.416   5.622   7.174 -0.1242 -1.5040 -1.3024
 4363TIP3   OH234647   5.647   0.004   1.078 -0.4620  0.9163 -0.0617
 4363TIP3    H134648   5.576  -0.060   1.086  0.3218  0.1331  0.8906
 4363TIP3    H234649   5.713  -0.039   1.024 -0.7771  1.7229 -1.1195
 4364TIP3   OH234650   3.425   3.713   1.872  0.5780 -0.0409  0.1934
 4364TIP3    H134651   3.487   3.742   1.939 -0.9446 -1.7890  2.5160
 4364TIP3    H234652   3.340   3.743   1.904 -0.1186 -0.1759 -1.4494
 4365TIP3   OH234653   4.122   2.663   2.856 -0.6916  0.9804 -0.2134
 4365TIP3    H134654   4.060   2.682   2.785 -2.2571  0.6474  0.9901
 4365TIP3    H234655   4.133   2.747   2.901 -2.0709  0.6009  0.9008
 4366TIP3   OH234656   0.842   0.398   7.014 -0.0858 -0.3583  0.3397
 4366TIP3    H134657   0.917   0.458   7.008 -0.5255  0.2579  0.9123
 4366TIP3    H234658   0.850   0.342   6.936  0.7716 -0.0726  0.2137
 4367TIP3   OH234659   2.878   5.719   0.229  0.4544 -0.5717  0.1416
 4367TIP3    H134660   2.904   5.667   0.304 -2.6016 -0.1732  1.5992
 4367TIP3    H234661   2.906   5.808   0.251 -2.9917  0.1321  2.3727
 4368TIP3   OH234662   1.801   1.896   0.797 -1.0448  0.5130  0.1595
 4368TIP3    H134663   1.742   1.823   0.776  0.3639 -0.2728 -1.3250
 4368TIP3    H234664   1.764   1.971   0.751 -1.4045  0.2360 -0.0105
 4369TIP3   OH234665   5.111   5.979   0.265  0.5027 -0.3462 -0.2594
 4369TIP3    H134666   5.135   6.071   0.274  1.5418 -0.4888 -1.2705
 4369TIP3    H234667   5.045   5.978   0.196  1.8267 -0.4988 -1.5908
 4370TIP3   OH234668   3.130   6.680   0.474  0.4165  0.4106  0.5140
 4370TIP3    H134669   3.124   6.658   0.567  1.9808 -0.7436  0.3868
 4370TIP3    H234670   3.131   6.776   0.471 -0.6795  0.4754  1.5791
 4371TIP3   OH234671   3.004   4.341   2.357 -0.1640 -0.2602 -0.2849
 4371TIP3    H134672   3.024   4.434   2.373 -1.3208 -0.2583  1.2778
 4371TIP3    H234673   3.011   4.299   2.442 -1.2254 -1.3192 -0.6910
 4372TIP3   OH234674   1.825   3.057   8.667  0.1481 -0.3463 -0.0243
 4372TIP3    H134675   1.859   3.093   8.586  0.7800 -0.6799  0.0936
 4372TIP3    H234676   1.783   2.975   8.642 -0.2217 -0.1397 -0.1037
 4373TIP3   OH234677   4.407   2.670   0.539 -0.8780  0.3888  0.3041
 4373TIP3    H134678   4.316   2.681   0.513 -0.7965 -1.5437 -0.9586
 4373TIP3    H234679   4.406   2.598   0.602 -0.3162  0.9767  1.0116
 4374TIP3   OH234680   2.085   5.888   7.053 -0.3289 -0.0066  0.0840
 4374TIP3    H134681   2.094   5.967   6.999 -0.9179  0.1342  0.1926
 4374TIP3    H234682   2.013   5.840   7.013 -0.4823 -0.1113  0.4839
 4375TIP3   OH234683   5.149   5.358   0.451 -0.8757  0.2370 -0.2679
 4375TIP3    H134684   5.088   5.385   0.520  1.1728  3.1199  0.6130
 4375TIP3    H234685   5.223   5.320   0.499 -1.3606 -2.1611 -1.2557
 4376TIP3   OH234686   1.564   3.578   8.202  0.4964 -0.7774  0.4173
 4376TIP3    H134687   1.619   3.504   8.177  1.6322 -0.4225  1.7490
 4376TIP3    H234688   1.513   3.547   8.276  0.0166 -0.6277  0.1524
 4377TIP3   OH234689   0.920   3.505   2.008 -0.2629  0.0604  0.2914
 4377TIP3    H134690   0.878   3.444   1.948  0.7383  0.7188 -1.1369
 4377TIP3    H234691   0.999   3.461   2.037 -0.7199 -0.2366  1.1154
 4378TIP3   OH234692   6.024   2.610   8.064 -0.3308 -0.2852  0.0932
 4378TIP3    H134693   6.057   2.524   8.091 -0.0321 -0.4302 -0.6920
 4378TIP3    H234694   6.038   2.667   8.139  0.1430 -0.7564  0.3660
 4379TIP3   OH234695   2.690   2.180   6.810  0.1589  0.3701 -0.1087
 4379TIP3    H134696   2.713   2.186   6.718 -1.3334  0.1081 -0.5241
 4379TIP3    H234697   2.613   2.236   6.820  1.0413  1.4163  1.2626
 4380TIP3   OH234698   4.128   4.645   7.471  0.3710 -0.2028  0.2606
 4380TIP3    H134699   4.123   4.696   7.391 -0.4508  1.0257  1.0528
 4380TIP3    H234700   4.040   4.610   7.483  0.4069 -0.1271  0.7815
 4381TIP3   OH234701   1.239   6.529   0.333  0.4351 -0.0513 -0.0621
 4381TIP3    H134702   1.148   6.501   0.347  0.5615  0.4539  2.1147
 4381TIP3    H234703   1.236   6.624   0.347  1.4362 -0.1482  0.9058
 4382TIP3   OH234704   1.564   4.913   0.395  0.2455  0.0565 -0.2797
 4382TIP3    H134705   1.586   4.949   0.309  1.3019 -1.6480 -0.7910
 4382TIP3    H234706   1.481   4.868   0.382  0.2315  0.0967 -0.3291
 4383TIP3   OH234707   4.672   0.669   1.219  0.1039 -0.5998  0.3248
 4383TIP3    H134708   4.716   0.750   1.194 -0.2373 -1.0843 -2.1113
 4383TIP3    H234709   4.719   0.638   1.296  1.1135  1.1856  0.4719
 4384TIP3   OH234710   1.355   1.669   0.468  0.8759  0.4895  0.3349
 4384TIP3    H134711   1.312   1.740   0.515 -2.0957 -0.6392 -0.4996
 4384TIP3    H234712   1.333   1.590   0.517  1.8286 -0.1820 -0.2722
 4385TIP3   OH234713   6.325   0.084   1.218 -0.2704 -1.0410 -0.3593
 4385TIP3    H134714   6.371   0.110   1.298 -1.8447 -0.9948  0.5665
 4385TIP3    H234715   6.327  -0.011   1.219  0.3723 -1.0337 -0.6708
 4386TIP3   OH234716   6.017   4.015   1.690  0.2136 -0.4198 -0.4982
 4386TIP3    H134717   5.985   4.088   1.742 -0.0178 -1.7265  1.2911
 4386TIP3    H234718   6.103   4.043   1.658  1.1226 -0.1333  1.9838
 4387TIP3   OH234719   4.002   4.012   1.437  0.0971  0.5495 -0.1867
 4387TIP3    H134720   3.960   4.030   1.521 -0.5294  0.1765 -0.4132
 4387TIP3    H234721   4.067   3.945   1.457 -0.5808 -0.1067 -0.1245
 4388TIP3   OH234722   6.302   0.653   0.778  0.3024  0.3606 -0.0368
 4388TIP3    H134723   6.322   0.638   0.686  1.8712 -2.8735  0.6767
 4388TIP3    H234724   6.332   0.574   0.822 -0.7822  1.5981  3.2334
 4389TIP3   OH234725   1.800   6.279   0.148 -0.2313 -0.1907  0.4622
 4389TIP3    H134726   1.879   6.302   0.099 -0.4247  1.2375  0.7669
 4389TIP3    H234727   1.737   6.346   0.124 -0.3517  0.5472  2.6016
 4390TIP3   OH234728   0.234   5.239   1.412 -0.0795  0.2686 -0.2524
 4390TIP3    H134729   0.311   5.207   1.365 -0.8260  0.2780 -1.4980
 4390TIP3    H234730   0.266   5.318   1.457  0.4157  0.8644 -1.5777
 4391TIP3   OH234731   6.853   0.223   8.054  0.1373  0.4754  0.9342
 4391TIP3    H134732   6.935   0.272   8.051 -0.0722  0.7963 -0.5019
 4391TIP3    H234733   6.802   0.266   8.123  0.1131  2.0931 -0.0280
 4392TIP3   OH234734   1.608   1.301   7.456  0.1605 -0.4661 -0.7858
 4392TIP3    H134735   1.527   1.342   7.426 -1.3366 -0.7636  2.4539
 4392TIP3    H234736   1.605   1.213   7.417 -1.2860 -0.5974 -0.4414
 4393TIP3   OH234737   1.210   3.939   7.911  0.2957  0.2531  0.0432
 4393TIP3    H134738   1.283   3.891   7.950  0.1547 -0.9925 -1.1454
 4393TIP3    H234739   1.252   4.002   7.853  0.4557  0.5297  0.4563
 4394TIP3   OH234740   2.909   1.981   6.422  0.7220  0.1769  0.1655
 4394TIP3    H134741   2.984   2.019   6.377  1.4418  1.7560  2.4949
 4394TIP3    H234742   2.867   2.055   6.466 -2.4954 -0.5828 -1.3416
 4395TIP3   OH234743   2.596   5.906   1.680  0.0790 -0.1970 -0.0090
 4395TIP3    H134744   2.563   5.909   1.770  0.5932  0.7658  0.1570
 4395TIP3    H234745   2.525   5.867   1.629 -1.5850  2.3636  0.2214
 4396TIP3   OH234746   0.701   1.989   6.139  0.2749  0.1748 -0.3275
 4396TIP3    H134747   0.633   1.937   6.181 -0.0130  0.0999 -0.8831
 4396TIP3    H234748   0.675   2.080   6.155  1.1234  0.1801  1.2120
 4397TIP3   OH234749   0.575   4.285   0.477  0.5297  0.3927 -0.0982
 4397TIP3    H134750   0.489   4.327   0.468  0.1690  0.2310  1.9456
 4397TIP3    H234751   0.571   4.208   0.421  0.7470  2.2949 -2.9701
 4398TIP3   OH234752   3.088   1.467   1.286  0.1508  0.2498  0.1157
 4398TIP3    H134753   3.033   1.410   1.340 -0.4422  0.1344 -0.5929
 4398TIP3    H234754   3.119   1.410   1.216 -0.5947  0.8226 -0.7049
 4399TIP3   OH234755   0.195   0.018   6.745 -0.0926 -0.2907  0.0325
 4399TIP3    H134756   0.204  -0.062   6.694  0.4374  0.8366 -1.6920
 4399TIP3    H234757   0.170   0.085   6.682 -2.9846  0.4711  1.7719
 4400TIP3   OH234758   5.813   4.841   7.920 -0.4495 -0.0568  0.3263
 4400TIP3    H134759   5.718   4.832   7.917 -0.3988 -0.4708 -0.9483
 4400TIP3    H234760   5.846   4.758   7.886  0.3086  0.6835 -0.8503
 4401TIP3   OH234761   5.257   2.200   0.275 -0.0855 -0.0343 -0.2557
 4401TIP3    H134762   5.302   2.220   0.193  2.0374 -0.9049  0.6378
 4401TIP3    H234763   5.213   2.117   0.259 -1.1290  0.6389 -1.0189
 4402TIP3   OH234764   6.570   5.301   1.777  0.8010 -0.0288 -1.2378
 4402TIP3    H134765   6.560   5.254   1.859 -1.5497  0.8660 -0.9437
 4402TIP3    H234766   6.573   5.233   1.710  4.5972 -0.9046 -0.4367
 4403TIP3   OH234767   2.170   6.290   0.872 -0.0378  0.3443  0.6685
 4403TIP3    H134768   2.161   6.201   0.907 -2.3174 -0.1007 -0.7942
 4403TIP3    H234769   2.113   6.343   0.928  0.5767  0.6978  0.9570
 4404TIP3   OH234770   3.008   6.596   1.287 -0.8939  0.3782 -0.2745
 4404TIP3    H134771   3.083   6.647   1.257  0.1760 -0.3956  0.9660
 4404TIP3    H234772   2.989   6.536   1.214  0.9936 -0.7796  0.1370
 4405TIP3   OH234773   6.014   6.327   0.192 -0.3098 -0.3912 -0.4693
 4405TIP3    H134774   6.002   6.233   0.193  0.8251 -0.5897  1.6274
 4405TIP3    H234775   5.926   6.363   0.204 -0.6238 -1.2183 -0.2542
 4406TIP3   OH234776   0.727   1.377   0.782  0.4981 -0.5996  0.2496
 4406TIP3    H134777   0.703   1.470   0.785  1.7387 -0.1146 -2.3592
 4406TIP3    H234778   0.680   1.338   0.856  0.7930  2.2680  2.1071
 4407TIP3   OH234779   3.490   6.224   0.504 -0.1014  0.3364  0.1450
 4407TIP3    H134780   3.466   6.308   0.544 -0.5032  0.5570 -0.5366
 4407TIP3    H234781   3.582   6.212   0.526 -0.1209  0.8085  0.5021
 4408TIP3   OH234782   1.373   3.028   6.246  0.0321  0.1821 -0.5291
 4408TIP3    H134783   1.321   3.055   6.322  1.1549  0.6906  0.0933
 4408TIP3    H234784   1.376   2.933   6.251 -0.0277  0.2033 -0.0101
 4409TIP3   OH234785   1.419   3.409   8.584 -0.2659  0.0224  0.5412
 4409TIP3    H134786   1.480   3.481   8.599  1.3277 -1.5204  1.7454
 4409TIP3    H234787   1.433   3.384   8.493 -0.2334  0.6669  0.3644
 4410TIP3   OH234788   5.793   4.027   7.439  0.4447 -0.2858  0.5210
 4410TIP3    H134789   5.750   4.044   7.523 -1.7721  1.7322 -0.8858
 4410TIP3    H234790   5.762   3.940   7.413 -0.4412 -0.1003  0.9193
 4411TIP3   OH234791   0.270   4.984   2.181  0.2547  0.5198  0.0782
 4411TIP3    H134792   0.291   5.050   2.115 -0.3864 -0.0619 -0.7251
 4411TIP3    H234793   0.181   5.006   2.209  0.5351  0.7840  0.7907
 4412TIP3   OH234794   6.365   5.145   7.137  0.0231  0.3731  0.4339
 4412TIP3    H134795   6.450   5.190   7.145  0.6452 -0.1976 -2.1962
 4412TIP3    H234796   6.387   5.059   7.103 -1.6519  0.4559 -0.9809
 4413TIP3   OH234797   6.825   0.985   1.063  0.3637  0.4855  0.5810
 4413TIP3    H134798   6.896   1.037   1.025  1.0641  0.0569  1.2786
 4413TIP3    H234799   6.845   0.895   1.038  0.0739  0.3570  0.8046
 4414TIP3   OH234800   4.130   2.789   0.554 -0.7141  0.3132 -0.4227
 4414TIP3    H134801   4.134   2.804   0.460 -1.6787 -2.4583 -1.0053
 4414TIP3    H234802   4.073   2.858   0.587 -2.5078 -0.1304 -2.3414
 4415TIP3   OH234803   1.107   6.423   7.548  0.0766  0.0796  0.0264
 4415TIP3    H134804   1.032   6.408   7.490  0.1820  0.9452 -0.3477
 4415TIP3    H234805   1.181   6.383   7.503 -0.1848 -0.9404  0.4834
 4416TIP3   OH234806   4.300   2.223   8.359  0.4717 -0.7827 -0.4030
 4416TIP3    H134807   4.293   2.318   8.368  1.2914 -0.5860 -1.5676
 4416TIP3    H234808   4.381   2.210   8.309  0.6420 -2.1185  0.1878
 4417TIP3   OH234809   2.820   6.643   0.467  0.5035 -0.2109 -0.3799
 4417TIP3    H134810   2.841   6.690   0.387 -1.1364  0.2955 -0.5530
 4417TIP3    H234811   2.737   6.599   0.448 -0.0980  0.1922  1.1267
 4418TIP3   OH234812   1.330   6.499   8.143  0.3353 -0.2236 -0.1825
 4418TIP3    H134813   1.369   6.542   8.067  1.5563  1.8582  1.5206
 4418TIP3    H234814   1.277   6.568   8.185  1.6479 -0.5502  2.1643
 4419TIP3   OH234815   6.050   4.422   0.463 -0.4862 -0.0929 -0.0712
 4419TIP3    H134816   6.128   4.375   0.495 -0.0155  1.0092  0.4593
 4419TIP3    H234817   6.067   4.514   0.485 -2.3420  0.0725  0.9059
 4420TIP3   OH234818   3.686   1.292   6.871 -0.1605 -0.2409  0.6571
 4420TIP3    H134819   3.772   1.320   6.840 -0.2197  0.7863  1.3809
 4420TIP3    H234820   3.629   1.300   6.794  0.2496 -0.3055  0.3443
 4421TIP3   OH234821   5.641   2.708   8.451  0.1059 -0.1314 -0.0457
 4421TIP3    H134822   5.603   2.688   8.537 -0.8448  2.4962  0.2369
 4421TIP3    H234823   5.735   2.698   8.463 -0.0985 -1.0740  0.9161
 4422TIP3   OH234824   4.095   3.140   7.824 -0.1905 -0.4995  0.4020
 4422TIP3    H134825   4.080   3.215   7.882  0.8005 -0.1083  0.1718
 4422TIP3    H234826   4.020   3.083   7.839 -0.9331  0.5057  0.6359
 4423TIP3   OH234827   3.064   2.631   1.059 -0.0006 -0.0636  0.2429
 4423TIP3    H134828   2.985   2.685   1.071 -0.5427 -0.3979 -1.4462
 4423TIP3    H234829   3.053   2.593   0.971  1.0080 -1.8674  0.8496
 4424TIP3   OH234830   4.113   5.195   7.542  0.4640  0.3198  0.3275
 4424TIP3    H134831   4.097   5.106   7.509  0.2680  0.2387  0.6441
 4424TIP3    H234832   4.067   5.199   7.626  0.3539  0.7650  0.2508
 4425TIP3   OH234833   4.310   2.789   1.044  0.2096 -0.1659 -0.1412
 4425TIP3    H134834   4.221   2.824   1.057 -0.0866 -1.1261  0.4848
 4425TIP3    H234835   4.320   2.787   0.949  0.9436  3.3115 -0.2972
 4426TIP3   OH234836   0.970   4.676   7.333 -0.6900 -0.1245 -0.5398
 4426TIP3    H134837   0.945   4.759   7.373  1.4686 -0.1198  0.9492
 4426TIP3    H234838   0.932   4.609   7.390 -0.8778 -0.1533 -0.6968
 4427TIP3   OH234839   5.544   5.104   7.634 -0.1888  0.1916 -0.1404
 4427TIP3    H134840   5.638   5.107   7.647 -0.2838 -0.1305  0.7003
 4427TIP3    H234841   5.520   5.012   7.648 -0.6762  0.3455  0.1025
 4428TIP3   OH234842   6.537   5.967   7.237  0.3728  0.0988 -0.0541
 4428TIP3    H134843   6.560   6.045   7.187  0.1814 -0.0298 -0.3507
 4428TIP3    H234844   6.443   5.955   7.221  0.0957  0.6210  1.1391
 4429TIP3   OH234845   0.163   0.184   7.001 -0.2533  0.0545 -0.2706
 4429TIP3    H134846   0.177   0.166   6.908 -0.2996  0.4831 -0.3622
 4429TIP3    H234847   0.069   0.201   7.008 -0.6193 -1.9037  0.1879
 4430TIP3   OH234848   1.422   6.511   1.531 -0.4150 -0.0237 -0.4489
 4430TIP3    H134849   1.422   6.444   1.600 -1.0344  0.4028 -0.0224
 4430TIP3    H234850   1.446   6.464   1.452  0.1361 -0.5615  0.0246
 4431TIP3   OH234851   6.287   5.839   1.490 -0.0154  0.2975 -0.3929
 4431TIP3    H134852   6.254   5.928   1.480  2.0328  0.9674 -1.7491
 4431TIP3    H234853   6.316   5.834   1.581 -2.1419  0.2113  0.3543
 4432TIP3   OH234854   5.348   5.030   2.144 -0.1808  0.2715 -0.1744
 4432TIP3    H134855   5.303   5.095   2.090 -1.3712  0.1288  0.6146
 4432TIP3    H234856   5.297   4.950   2.133  1.3706 -0.6394 -1.2784
 4433TIP3   OH234857   6.139   4.090   6.610 -0.5176 -0.0581  0.0398
 4433TIP3    H134858   6.196   4.053   6.542 -2.1748  1.7530 -2.5547
 4433TIP3    H234859   6.078   4.145   6.561 -1.9036  1.2936  3.0789
 4434TIP3   OH234860   2.417   1.061   1.291 -0.8275 -0.4164 -0.4275
 4434TIP3    H134861   2.392   1.114   1.215 -2.8755 -1.2174 -0.3747
 4434TIP3    H234862   2.343   1.069   1.352 -0.8648 -2.6526 -0.0893
 4435TIP3   OH234863   6.231   1.726   0.390  0.0234  0.0260 -0.0950
 4435TIP3    H134864   6.276   1.804   0.423 -0.4603  0.1129  0.3848
 4435TIP3    H234865   6.266   1.654   0.441  2.1309 -0.4556 -2.0478
 4436TIP3   OH234866   1.217   1.203   7.613  0.3905 -0.0897 -0.1435
 4436TIP3    H134867   1.223   1.161   7.699 -1.3289 -2.4625 -1.0531
 4436TIP3    H234868   1.134   1.251   7.616 -0.8806 -2.0713 -1.1155
 4437TIP3   OH234869   6.500   3.421   6.574  0.0220  0.5876  0.1761
 4437TIP3    H134870   6.534   3.424   6.485 -2.0683  0.6824 -0.6795
 4437TIP3    H234871   6.460   3.507   6.586  2.5328  1.6154  2.2418
 4438TIP3   OH234872   1.708   5.863   8.492  0.1295  0.3491 -0.0152
 4438TIP3    H134873   1.613   5.869   8.483  0.1114  1.9988  0.9340
 4438TIP3    H234874   1.743   5.913   8.419  0.2789 -0.1010 -0.2578
 4439TIP3   OH234875   2.660   0.848   1.792 -0.4799 -0.4321 -0.0128
 4439TIP3    H134876   2.672   0.796   1.871  0.2128 -0.0460  0.1458
 4439TIP3    H234877   2.596   0.914   1.817  1.5955  1.3237  1.0854
 4440TIP3   OH234878   3.304   6.019   0.561  0.1981 -0.4744 -0.0002
 4440TIP3    H134879   3.368   6.090   0.550  0.4876 -1.0193 -2.6144
 4440TIP3    H234880   3.333   5.972   0.639  0.9394  1.3048  0.8551
 4441TIP3   OH234881   2.426   0.279   0.026 -0.3215  0.6037 -0.7994
 4441TIP3    H134882   2.388   0.291  -0.061  1.6191 -0.9231 -1.9435
 4441TIP3    H234883   2.401   0.191   0.052 -0.4646  0.8641 -0.0056
 4442TIP3   OH234884   1.383   0.966   1.060 -0.2380  0.3948  0.2057
 4442TIP3    H134885   1.417   0.895   1.005 -0.1006  0.3130  0.3955
 4442TIP3    H234886   1.414   1.046   1.018 -0.7044  0.3569 -0.2189
 4443TIP3   OH234887   4.862   3.160   8.369  0.3729 -0.2896 -0.0354
 4443TIP3    H134888   4.922   3.097   8.330 -1.0925 -2.1187  0.5111
 4443TIP3    H234889   4.863   3.141   8.462 -2.3074 -1.6349 -0.1800
 4444TIP3   OH234890   2.848   3.242   0.161  0.8914 -0.2745 -0.0861
 4444TIP3    H134891   2.929   3.265   0.116  0.0908  3.3350 -0.0002
 4444TIP3    H234892   2.834   3.314   0.223 -1.7657 -1.3785  0.7239
 4445TIP3   OH234893   4.917   3.024   0.781  0.6617 -0.2077 -0.3007
 4445TIP3    H134894   4.848   2.984   0.835  0.9296 -1.0047 -0.5345
 4445TIP3    H234895   4.937   3.106   0.826  0.1100 -0.3368  0.2051
 4446TIP3   OH234896   4.782   6.545   1.242  0.3496 -0.0696 -0.3531
 4446TIP3    H134897   4.781   6.470   1.183  0.5258  0.4214 -0.9942
 4446TIP3    H234898   4.693   6.580   1.238 -0.1712 -1.1391  1.1378
 4447TIP3   OH234899   6.618   3.654   8.490 -0.9691 -0.0393  0.3043
 4447TIP3    H134900   6.606   3.601   8.411 -1.3115  0.8135 -0.2356
 4447TIP3    H234901   6.696   3.618   8.532 -1.3361 -1.1176  0.0856
 4448TIP3   OH234902   5.056   0.919   2.536  0.1872 -0.1939  0.7146
 4448TIP3    H134903   5.083   1.010   2.546  0.0144 -0.2213  1.4195
 4448TIP3    H234904   4.976   0.911   2.586 -0.5056 -0.4262 -0.3857
 4449TIP3   OH234905   0.676   2.540   1.729 -0.0933 -0.4052  0.4152
 4449TIP3    H134906   0.661   2.566   1.638  0.7824 -0.8596  0.1221
 4449TIP3    H234907   0.755   2.587   1.755 -1.0244  0.6872  1.3721
 4450TIP3   OH234908   4.837   2.366   1.177 -0.0763 -0.4472  0.2286
 4450TIP3    H134909   4.904   2.341   1.240  1.8593  2.7083 -0.3620
 4450TIP3    H234910   4.773   2.415   1.229 -0.4119 -0.9624  0.3083
 4451TIP3   OH234911   5.817   2.857   6.711  0.0485 -0.2147  0.2571
 4451TIP3    H134912   5.888   2.842   6.649 -1.4092 -0.7565 -1.3561
 4451TIP3    H234913   5.796   2.770   6.745 -1.0527 -0.3334 -0.6864
 4452TIP3   OH234914   6.409   2.252   0.457 -0.5693  0.2558 -0.2213
 4452TIP3    H134915   6.455   2.333   0.437  1.9831 -0.6580  1.5043
 4452TIP3    H234916   6.349   2.276   0.528  1.6904  0.3262  1.7967
 4453TIP3   OH234917   6.342   4.545   8.071  0.4752  0.2717  0.4704
 4453TIP3    H134918   6.316   4.618   8.015 -0.4953 -1.2784 -1.2239
 4453TIP3    H234919   6.416   4.505   8.026 -0.2777 -0.9665  0.2756
 4454TIP3   OH234920   0.892   0.845   0.275 -0.4091 -0.2545 -0.4199
 4454TIP3    H134921   0.906   0.826   0.368 -2.7009 -0.5358 -0.0683
 4454TIP3    H234922   0.966   0.900   0.251  0.3743 -0.3609  1.5160
 4455TIP3   OH234923   4.663   3.383   6.978  0.1194  0.1099 -0.9461
 4455TIP3    H134924   4.754   3.402   7.000  0.9038 -1.6373 -2.3676
 4455TIP3    H234925   4.641   3.445   6.909  0.3261  0.3877 -0.7614
 4456TIP3   OH234926   3.020   4.215   0.721  0.4253  0.1002 -0.1851
 4456TIP3    H134927   3.040   4.298   0.679  0.6007  0.1686  0.0305
 4456TIP3    H234928   2.971   4.165   0.655 -0.2733  0.6343 -0.0823
 4457TIP3   OH234929   0.791   6.605   7.085 -0.5559 -0.0540  0.0272
 4457TIP3    H134930   0.741   6.687   7.090  0.5810  0.7453 -1.0472
 4457TIP3    H234931   0.863   6.625   7.025  0.4747 -1.4701  0.7465
 4458TIP3   OH234932   5.755   5.769   8.062  0.3904  0.2107 -0.2563
 4458TIP3    H134933   5.780   5.795   7.973 -0.4180  0.9357 -0.2919
 4458TIP3    H234934   5.830   5.791   8.116  0.6497  0.3541 -0.6719
 4459TIP3   OH234935   3.868   1.062   8.633  0.3817  0.4051 -0.6131
 4459TIP3    H134936   3.818   0.984   8.655 -2.1370  1.8651 -0.7177
 4459TIP3    H234937   3.873   1.062   8.537  2.2312 -0.6292 -0.5641
 4460TIP3   OH234938   4.895   4.459   7.878  0.0304 -0.2649  0.2170
 4460TIP3    H134939   4.835   4.505   7.937  0.2510  0.2026  0.0796
 4460TIP3    H234940   4.839   4.430   7.805 -0.0901 -0.1286  0.2559
 4461TIP3   OH234941   1.284   6.220   7.098  0.1820  0.2219 -0.1027
 4461TIP3    H134942   1.193   6.247   7.089 -0.4308 -1.9314 -1.1802
 4461TIP3    H234943   1.328   6.254   7.020 -0.2260 -0.5626 -0.6842
 4462TIP3   OH234944   6.677   0.632   0.158 -0.1212  0.0699 -0.2360
 4462TIP3    H134945   6.598   0.611   0.207 -0.2348  0.2570 -0.3374
 4462TIP3    H234946   6.747   0.586   0.204  0.4589  3.3555  2.5807
 4463TIP3   OH234947   2.804   3.854   8.104  0.2640 -0.5828  0.0486
 4463TIP3    H134948   2.765   3.921   8.048  0.6463  0.1861  0.6779
 4463TIP3    H234949   2.778   3.771   8.064 -0.9720 -0.0809 -0.2408
 4464TIP3   OH234950   5.443   6.640   6.891  0.5891 -0.3082 -0.4225
 4464TIP3    H134951   5.462   6.557   6.847 -2.8816 -0.5538 -1.7559
 4464TIP3    H234952   5.371   6.619   6.951  2.1540  1.0323  2.0830
 4465TIP3   OH234953   3.972   5.150   8.461  0.1550  0.2676 -0.1786
 4465TIP3    H134954   4.053   5.185   8.423  0.6713  0.2154  0.8474
 4465TIP3    H234955   3.990   5.144   8.555 -0.8534 -0.2634 -0.0067
 4466TIP3   OH234956   1.980   5.384   2.026 -0.4154 -0.0732 -0.5923
 4466TIP3    H134957   1.959   5.305   2.075  1.1988  0.1540  0.5085
 4466TIP3    H234958   1.995   5.451   2.092  1.0207  0.4383 -1.3817
 4467TIP3   OH234959   6.719   0.234   7.722 -0.3318 -0.1947 -0.3799
 4467TIP3    H134960   6.796   0.287   7.738 -1.0876  1.2491 -1.2640
 4467TIP3    H234961   6.670   0.283   7.656 -1.9784 -1.0840  0.1255
 4468TIP3   OH234962   6.170   6.356   1.153 -0.0944 -0.1572 -0.3610
 4468TIP3    H134963   6.220   6.275   1.161 -1.2568 -0.8338  0.2480
 4468TIP3    H234964   6.192   6.389   1.066  0.0790 -1.3479 -0.7861
 4469TIP3   OH234965   2.469   1.226   8.161  0.0013 -0.3368 -0.2970
 4469TIP3    H134966   2.416   1.229   8.081 -1.8393  3.2093  0.8390
 4469TIP3    H234967   2.549   1.273   8.138 -1.8341  3.6444  0.4977
 4470TIP3   OH234968   4.648   6.828   7.789  0.0138  0.4121  0.4433
 4470TIP3    H134969   4.665   6.746   7.743 -1.4651  0.7634 -0.8036
 4470TIP3    H234970   4.687   6.816   7.876 -0.3360 -1.6633  0.3474
 4471TIP3   OH234971   6.366   0.066   7.594  0.0154  0.0038 -0.0745
 4471TIP3    H134972   6.357   0.130   7.665 -1.3429  1.4297 -1.4294
 4471TIP3    H234973   6.399  -0.013   7.636  1.1911  1.4121  1.7793
 4472TIP3   OH234974   6.352   1.690   7.399 -0.2888  0.2610  0.1710
 4472TIP3    H134975   6.431   1.703   7.347 -0.4240 -3.1133 -1.0927
 4472TIP3    H234976   6.280   1.695   7.336 -1.0541  1.8600  1.0801
 4473TIP3   OH234977   5.406   4.758   0.254 -0.0313 -0.3332  0.2252
 4473TIP3    H134978   5.451   4.821   0.197 -1.3945 -0.3739 -0.9780
 4473TIP3    H234979   5.420   4.673   0.211 -1.0581 -0.3657 -0.0851
 4474TIP3   OH234980   3.732   4.836   7.415 -0.0789 -0.1250 -0.2101
 4474TIP3    H134981   3.658   4.847   7.474 -0.8499  0.3413 -1.2292
 4474TIP3    H234982   3.719   4.751   7.374  0.4409 -0.4373  0.2624
 4475TIP3   OH234983   6.656   4.784   6.465  0.0334 -0.1869 -0.5790
 4475TIP3    H134984   6.749   4.784   6.487 -0.0466  1.2639 -0.1276
 4475TIP3    H234985   6.611   4.769   6.548 -0.1937  2.5610 -0.1194
 4476TIP3   OH234986   0.929   0.257   1.407  0.0472  0.3881  0.1780
 4476TIP3    H134987   0.835   0.274   1.417  0.3712  1.7368  1.2694
 4476TIP3    H234988   0.957   0.319   1.340  0.5918  1.8897  1.7014
 4477TIP3   OH234989   5.713   5.399   1.849  0.2104  0.0830 -0.1813
 4477TIP3    H134990   5.717   5.465   1.780 -1.3848  0.3883 -0.0166
 4477TIP3    H234991   5.620   5.381   1.860  0.4995 -0.7627  1.1466
 4478TIP3   OH234992   0.629   6.469   6.708  0.5297 -0.1330  0.5506
 4478TIP3    H134993   0.650   6.414   6.632  1.3404 -0.1239  0.7613
 4478TIP3    H234994   0.542   6.439   6.735 -0.0614  0.3223 -0.7743
 4479TIP3   OH234995   2.105   2.410   8.131  0.2793  0.2209  0.0553
 4479TIP3    H134996   2.117   2.317   8.110 -0.5201  0.3926 -1.2343
 4479TIP3    H234997   2.047   2.409   8.208 -0.1225 -0.3454 -0.2416
 4480TIP3   OH234998   1.551   5.532   0.042 -0.3768 -0.5482 -0.2233
 4480TIP3    H134999   1.456   5.538   0.032 -0.3876 -1.0165 -0.4627
 4480TIP3    H235000   1.586   5.547  -0.046  0.0305  3.5923  0.4636
 4481TIP3   OH235001   1.942   3.901   0.743 -0.1903  0.5858  0.4476
 4481TIP3    H135002   2.000   3.869   0.674  1.1939  2.0923  0.8433
 4481TIP3    H235003   1.985   3.873   0.824 -2.0295 -1.5709  0.7831
 4482TIP3   OH235004   2.696   2.943   7.775 -0.7716 -0.4129 -0.3754
 4482TIP3    H135005   2.637   2.908   7.842 -0.5128  1.6758  1.0425
 4482TIP3    H235006   2.783   2.917   7.805 -0.7576 -0.7683 -0.7251
 4483TIP3   OH235007   3.184   6.257   7.275 -0.0199 -0.3248  0.3890
 4483TIP3    H135008   3.198   6.330   7.215  2.1071 -0.2331  0.9199
 4483TIP3    H235009   3.231   6.282   7.355  0.5232 -2.1253  0.6853
 4484TIP3   OH235010   1.430   3.062   8.366  0.1741 -0.1151  0.2956
 4484TIP3    H135011   1.504   3.043   8.307 -0.0081 -0.6647  0.2404
 4484TIP3    H235012   1.447   3.009   8.443  1.3158  1.8617  1.5144
 4485TIP3   OH235013   2.213   3.387   1.620  0.1922  0.8942 -0.1425
 4485TIP3    H135014   2.281   3.411   1.684 -1.9628  1.8736  1.9267
 4485TIP3    H235015   2.186   3.471   1.582 -0.0964  0.5443 -0.7125
 4486TIP3   OH235016   6.823   3.223   8.249 -0.8989 -0.7775  0.3892
 4486TIP3    H135017   6.778   3.303   8.276 -0.1250  0.3749 -1.5496
 4486TIP3    H235018   6.784   3.202   8.164 -0.6973 -2.1705  0.6173
 4487TIP3   OH235019   2.933   5.612   7.673 -0.3513  0.0383  0.0908
 4487TIP3    H135020   2.973   5.695   7.646  1.1822 -0.3183  1.1109
 4487TIP3    H235021   2.841   5.633   7.689 -0.1994  1.3158 -0.6084
 4488TIP3   OH235022   2.282   4.209   7.664 -0.6090  0.5938 -0.4865
 4488TIP3    H135023   2.217   4.156   7.617 -1.5303 -0.1693  1.5275
 4488TIP3    H235024   2.251   4.210   7.754  2.1437  0.2652  0.5685
 4489TIP3   OH235025   3.160   2.560   8.597  0.3300 -0.4752 -0.0551
 4489TIP3    H135026   3.118   2.484   8.557  1.3173 -0.6945 -0.6870
 4489TIP3    H235027   3.253   2.548   8.581  0.6203  0.1931  1.0135
 4490TIP3   OH235028   0.886   3.889   7.158  0.1407  0.0134 -0.3872
 4490TIP3    H135029   0.811   3.898   7.216  0.6915 -0.0330  0.3538
 4490TIP3    H235030   0.860   3.932   7.077 -0.8536 -0.4160 -0.3089
 4491TIP3   OH235031   1.767   6.653   7.407 -0.4211  0.4414  0.0109
 4491TIP3    H135032   1.762   6.623   7.498 -2.9195 -0.5935 -0.3706
 4491TIP3    H235033   1.859   6.645   7.384  0.4767  1.6899  2.7209
 4492TIP3   OH235034   3.997   3.802   1.711 -0.0136 -0.7623 -0.3520
 4492TIP3    H135035   4.035   3.813   1.798  0.8176  1.3458 -0.9298
 4492TIP3    H235036   4.073   3.788   1.653 -0.5452 -2.0115 -0.7996
 4493TIP3   OH235037   2.099   1.700   0.342 -0.1861 -0.6902  0.3093
 4493TIP3    H135038   2.143   1.623   0.378  0.3681  0.4890  2.2959
 4493TIP3    H235039   2.088   1.758   0.417 -1.1139  0.9362 -1.0314
 4494TIP3   OH235040   0.909   6.025   7.640  0.3614  0.2920  0.0595
 4494TIP3    H135041   0.994   6.016   7.596  0.5989 -0.2420  0.6187
 4494TIP3    H235042   0.861   5.946   7.615  0.2927  0.2523  0.3187
 4495TIP3   OH235043   6.406   5.298   8.434  0.4352  0.0582  0.3568
 4495TIP3    H135044   6.415   5.203   8.431 -0.3887 -0.1454  2.4767
 4495TIP3    H235045   6.312   5.313   8.436  0.5591  0.9344  0.0326
 4496TIP3   OH235046   2.553   5.042   2.735  0.4025 -0.5297  0.2814
 4496TIP3    H135047   2.619   5.030   2.666 -0.3649  1.8613 -0.9988
 4496TIP3    H235048   2.587   5.115   2.788 -0.1118 -0.8473  1.0646
 4497TIP3   OH235049   3.102   0.830   0.757  0.1234 -0.1544  0.5332
 4497TIP3    H135050   3.085   0.900   0.694  0.2821 -0.0940  0.5564
 4497TIP3    H235051   3.062   0.860   0.838  0.7566  0.2084  0.7184
 4498TIP3   OH235052   4.163   6.473   0.644 -0.1185  0.5596  0.2306
 4498TIP3    H135053   4.237   6.473   0.583 -0.8471 -1.0241 -0.7221
 4498TIP3    H235054   4.162   6.385   0.681 -0.5090  1.0882  1.5365
 4499TIP3   OH235055   1.915   4.923   8.441 -0.2889  0.4408 -0.0177
 4499TIP3    H135056   1.898   4.919   8.536  2.1176  0.4754  0.4783
 4499TIP3    H235057   1.905   5.015   8.419  1.2296  0.8092  0.6955
 4500TIP3   OH235058   5.414   5.950   7.301  0.5381  0.2324  0.1333
 4500TIP3    H135059   5.423   5.954   7.206 -0.5196  1.8360  0.0566
 4500TIP3    H235060   5.349   5.882   7.317  1.6644 -0.9523 -0.1817
 4501TIP3   OH235061   2.459   4.557   8.330  0.1934  0.2311 -0.2324
 4501TIP3    H135062   2.366   4.533   8.329  0.5283 -1.1672 -0.2491
 4501TIP3    H235063   2.467   4.621   8.260 -0.6618 -0.0516 -0.6130
 4502TIP3   OH235064   0.526   5.804   7.347 -0.0005 -0.2588  0.0379
 4502TIP3    H135065   0.569   5.875   7.395  0.0389  0.4365 -0.9942
 4502TIP3    H235066   0.548   5.821   7.255 -3.3753  0.7978 -0.6982
 4503TIP3   OH235067   5.863   2.077   0.822 -0.3223 -0.1201  0.1483
 4503TIP3    H135068   5.847   2.151   0.881  0.7075  0.2282  0.0138
 4503TIP3    H235069   5.877   2.003   0.881  0.6794  0.2214  0.3578
 4504TIP3   OH235070   0.186   3.751   7.036  0.2249  0.5319  0.2974
 4504TIP3    H135071   0.122   3.816   7.007 -1.0269 -1.1480 -0.9158
 4504TIP3    H235072   0.189   3.687   6.964  0.5478 -1.3348  1.9034
 4505TIP3   OH235073   5.086   3.527   2.811 -0.2877 -0.4147 -0.0213
 4505TIP3    H135074   5.138   3.448   2.802  1.4923  0.7496 -0.4336
 4505TIP3    H235075   4.998   3.496   2.831  0.2636 -2.4921 -0.6220
 4506TIP3   OH235076   5.880   0.030   7.039  0.3421 -0.1269  0.5229
 4506TIP3    H135077   5.911  -0.010   6.958  2.1783  0.0415  1.0757
 4506TIP3    H235078   5.788   0.005   7.046 -0.0458  0.4191 -1.9211
 4507TIP3   OH235079   6.326   3.301   0.750  0.1245 -0.0454  0.2672
 4507TIP3    H135080   6.269   3.365   0.795  0.2468  1.2031 -1.2821
 4507TIP3    H235081   6.304   3.310   0.658  1.1746 -1.2599 -0.1250
 4508TIP3   OH235082   0.469   6.690   0.032 -0.7712 -0.6865  0.4311
 4508TIP3    H135083   0.531   6.630  -0.009  0.1791  0.9618 -0.6320
 4508TIP3    H235084   0.456   6.760  -0.032  0.5309  1.8512  2.7336
 4509TIP3   OH235085   4.596   3.875   2.094 -0.2583 -0.3532  0.6253
 4509TIP3    H135086   4.662   3.809   2.072 -0.1715  0.2807 -1.1946
 4509TIP3    H235087   4.601   3.938   2.022 -0.1987  1.7572  2.3894
 4510TIP3   OH235088   5.785   3.681   8.073  0.1641 -0.1017 -0.3910
 4510TIP3    H135089   5.763   3.774   8.063 -0.1211 -0.1046  0.1820
 4510TIP3    H235090   5.704   3.635   8.053  0.3386 -0.2407 -0.7986
 4511TIP3   OH235091   3.720   1.356   7.132 -0.2668 -0.2528  0.0508
 4511TIP3    H135092   3.652   1.350   7.065 -1.1726  0.7278  0.8674
 4511TIP3    H235093   3.771   1.276   7.121 -2.4530 -1.7695  0.3933
 4512TIP3   OH235094   4.661   3.916   7.132  0.0718  0.2631 -0.1393
 4512TIP3    H135095   4.704   3.985   7.081 -1.1520 -0.2429 -1.9783
 4512TIP3    H235096   4.717   3.840   7.121 -0.9817 -0.2914 -2.2090
 4513TIP3   OH235097   2.463   5.989   7.916 -0.2301  0.1456 -0.3421
 4513TIP3    H135098   2.511   5.976   7.998 -0.9126  2.2974  0.4903
 4513TIP3    H235099   2.434   5.902   7.891  2.3994 -0.9500  0.1617
 4514TIP3   OH235100   4.095   4.739   1.027 -0.0410  0.4534 -0.2943
 4514TIP3    H135101   4.043   4.706   1.101  1.7155  1.0144  1.3009
 4514TIP3    H235102   4.104   4.833   1.044 -0.8505  0.8759 -2.0748
 4515TIP3   OH235103   5.168   0.487   6.790  0.3183 -0.6957  0.8522
 4515TIP3    H135104   5.238   0.421   6.797 -0.3244 -1.3402  1.2950
 4515TIP3    H235105   5.201   0.549   6.725  0.4703 -2.0492 -0.4135
 4516TIP3   OH235106   4.966   2.851   0.578 -0.0785 -0.1317  0.1126
 4516TIP3    H135107   4.948   2.896   0.661  0.6370  0.3933 -0.0082
 4516TIP3    H235108   4.919   2.903   0.513  1.6379  1.1434 -0.1806
 4517TIP3   OH235109   2.886   4.095   0.507  0.6723 -0.2651  0.0516
 4517TIP3    H135110   2.823   4.154   0.465  1.1174 -0.4071 -0.8414
 4517TIP3    H235111   2.833   4.036   0.560  0.1389  0.2725  0.1240
 4518TIP3   OH235112   3.665   3.345   0.328  0.1984 -0.5143 -0.1192
 4518TIP3    H135113   3.574   3.374   0.339 -0.0103 -0.0979 -2.4637
 4518TIP3    H235114   3.678   3.281   0.398 -2.0381 -0.9217  0.0129
 4519TIP3   OH235115   3.987   0.161   7.062 -0.4464 -0.0798 -0.1650
 4519TIP3    H135116   4.032   0.137   6.981 -2.2065 -2.1439 -0.6536
 4519TIP3    H235117   3.901   0.192   7.033 -0.6063  0.4822  0.8659
 4520TIP3   OH235118   3.487   4.823   7.583 -0.2088 -1.0284  0.2266
 4520TIP3    H135119   3.481   4.769   7.505  0.2488 -1.8132  0.7277
 4520TIP3    H235120   3.415   4.793   7.639  0.6211 -1.7739  0.9035
 4521TIP3   OH235121   0.250   1.311   2.134  0.3383  0.3685  0.1263
 4521TIP3    H135122   0.290   1.225   2.148 -1.5014 -0.5242  0.2826
 4521TIP3    H235123   0.306   1.372   2.182  1.8041 -0.6962 -0.1547
 4522TIP3   OH235124   5.909   6.805   6.789  0.0524 -0.1507  0.2895
 4522TIP3    H135125   5.975   6.755   6.741 -1.1323 -0.2128 -1.3746
 4522TIP3    H235126   5.848   6.835   6.721 -1.6252 -0.1083  1.7411
 4523TIP3   OH235127   3.865   6.785   7.603  0.2931  0.0653 -0.2639
 4523TIP3    H135128   3.955   6.818   7.598  0.9333 -1.6838 -1.7865
 4523TIP3    H235129   3.811   6.858   7.575  1.0467  1.6587  2.1515
 4524TIP3   OH235130   0.290   5.859   0.587 -0.4537 -0.0315 -0.0315
 4524TIP3    H135131   0.343   5.785   0.615 -0.7194  0.0413  0.7063
 4524TIP3    H235132   0.205   5.821   0.565  0.2135 -0.3058 -2.3232
 4525TIP3   OH235133   5.729   5.226   0.645  0.3179  0.0893  1.1088
 4525TIP3    H135134   5.664   5.172   0.600 -0.1973 -0.5363  2.5284
 4525TIP3    H235135   5.791   5.164   0.682  1.7790  0.6866 -0.2480
 4526TIP3   OH235136   1.989   0.269   1.929  0.1178 -0.4803 -0.0124
 4526TIP3    H135137   2.078   0.285   1.897  0.2014  3.1258  1.4864
 4526TIP3    H235138   1.935   0.263   1.850  1.5339 -1.8486 -0.9188
 4527TIP3   OH235139   1.372   0.961   7.047 -0.6460 -0.2401  0.3204
 4527TIP3    H135140   1.290   0.958   7.097 -0.2377  0.0858  1.0365
 4527TIP3    H235141   1.391   1.054   7.038 -0.4481 -0.3107  0.0068
 4528TIP3   OH235142   0.769   4.518   8.286  0.3721 -0.0262 -0.3464
 4528TIP3    H135143   0.859   4.551   8.277 -0.3444  1.9859 -0.6083
 4528TIP3    H235144   0.762   4.451   8.218  2.3183 -1.8397  1.0928
 4529TIP3   OH235145   6.730   0.958   8.258  0.0618 -0.0318 -0.0120
 4529TIP3    H135146   6.781   0.935   8.180 -0.9844 -1.9293 -0.2123
 4529TIP3    H235147   6.785   0.931   8.331 -0.5524 -2.0461 -0.2259
 4530TIP3   OH235148   4.773   5.254   2.144  0.1340  0.4583 -0.0868
 4530TIP3    H135149   4.755   5.204   2.064  1.0242  2.3787 -1.5708
 4530TIP3    H235150   4.777   5.345   2.115 -1.1807  1.4320  2.4522
 4531TIP3   OH235151   2.118   1.668   0.623 -0.0895 -0.4842  0.6645
 4531TIP3    H135152   2.041   1.613   0.639 -0.7868  0.1061 -0.5097
 4531TIP3    H235153   2.185   1.607   0.593 -0.8891 -0.7212 -0.7477
 4532TIP3   OH235154   2.021   1.197   2.112 -0.2617  0.0816 -0.0313
 4532TIP3    H135155   2.099   1.240   2.147 -1.1327  0.8345  1.0874
 4532TIP3    H235156   2.029   1.107   2.142  0.7436 -0.1524 -0.9413
 4533TIP3   OH235157   1.785   5.526   1.515  0.5167  0.4182 -0.1100
 4533TIP3    H135158   1.820   5.455   1.463  0.6010 -0.2892  0.8829
 4533TIP3    H235159   1.840   5.528   1.594  0.3460  1.3990 -0.0017
 4534TIP3   OH235160   4.078   5.062   1.641  0.0882 -0.0461 -0.6023
 4534TIP3    H135161   3.996   5.095   1.606  0.2935 -0.7343 -1.7647
 4534TIP3    H235162   4.139   5.066   1.568  0.9274 -0.1530  0.0723
 4535TIP3   OH235163   0.854   1.444   7.878  0.7897  0.4616 -0.5157
 4535TIP3    H135164   0.770   1.484   7.857  1.0496  1.1617 -0.2601
 4535TIP3    H235165   0.835   1.351   7.886  0.2649  0.4601 -1.6213
 4536TIP3   OH235166   3.686   5.378   0.025 -0.3995  0.3087  0.2720
 4536TIP3    H135167   3.698   5.311   0.092 -0.0894 -0.0446 -0.1229
 4536TIP3    H235168   3.612   5.348  -0.027 -1.8431  1.5181  1.5479
 4537TIP3   OH235169   4.031   2.240   7.762  0.7470 -0.1875 -0.2597
 4537TIP3    H135170   4.065   2.285   7.685 -0.0252  1.1328  0.1279
 4537TIP3    H235171   4.026   2.148   7.737  1.6689  0.0411 -1.3475
 4538TIP3   OH235172   3.686   4.460   1.698 -0.3469 -0.3285 -0.1626
 4538TIP3    H135173   3.709   4.499   1.782  0.9215 -0.9064 -0.2215
 4538TIP3    H235174   3.593   4.480   1.687 -0.0652  1.4812  0.4311
 4539TIP3   OH235175   4.284   5.490   6.922  0.1275 -0.1227  0.0440
 4539TIP3    H135176   4.340   5.567   6.932  0.4581 -0.3596  0.0577
 4539TIP3    H235177   4.344   5.422   6.892 -0.5047  0.1444 -2.0048
 4540TIP3   OH235178   2.916   5.987   0.237 -0.1416  0.4805  0.4164
 4540TIP3    H135179   2.872   6.023   0.160 -0.1290 -0.0337  0.1687
 4540TIP3    H235180   2.993   6.043   0.250  0.0201  0.3798 -0.1209
 4541TIP3   OH235181   5.206   2.531   8.612  0.1846  0.2786 -0.0890
 4541TIP3    H135182   5.113   2.518   8.596  0.1128  1.0463 -0.3431
 4541TIP3    H235183   5.218   2.626   8.608  1.0206  0.1730 -0.3235
 4542TIP3   OH235184   2.791   4.340   8.603 -0.8702 -0.2475 -0.1299
 4542TIP3    H135185   2.732   4.319   8.531  0.0220  1.1394 -1.3174
 4542TIP3    H235186   2.745   4.407   8.654 -0.0552  1.5207 -1.5787
 4543TIP3   OH235187   1.339   5.692   8.603 -0.1317  0.1530 -0.7607
 4543TIP3    H135188   1.310   5.601   8.601 -0.7223  0.2002  1.9257
 4543TIP3    H235189   1.317   5.726   8.516 -0.4884 -2.0591 -1.6137
 4544TIP3   OH235190   6.246   3.919   8.511  0.2129  0.2434  0.2064
 4544TIP3    H135191   6.278   3.905   8.421  2.2302 -3.9598  1.2936
 4544TIP3    H235192   6.313   3.973   8.552  1.1637 -0.7917  0.0521
 4545TIP3   OH235193   6.163   5.585   2.469 -0.3677 -0.4348 -0.2638
 4545TIP3    H135194   6.237   5.566   2.526 -0.2647 -1.2794 -0.6670
 4545TIP3    H235195   6.089   5.596   2.528 -0.0841 -0.3873  0.0887
 4546TIP3   OH235196   3.714   4.243   0.398 -0.2481  0.0685 -0.0959
 4546TIP3    H135197   3.701   4.148   0.402  2.6568 -0.5092 -1.6605
 4546TIP3    H235198   3.746   4.267   0.485 -0.1939 -0.5304  0.0522
 4547TIP3   OH235199   2.049   0.237   6.832  0.2294 -0.0151  0.0273
 4547TIP3    H135200   2.022   0.206   6.919  0.5623  2.5969  1.1785
 4547TIP3    H235201   2.047   0.159   6.777  0.4405 -1.8840  2.4683
 4548TIP3   OH235202   6.742   0.665   7.302  0.7234  0.1044 -0.4719
 4548TIP3    H135203   6.742   0.761   7.297 -1.0063  0.2002  0.3379
 4548TIP3    H235204   6.819   0.643   7.354 -0.0562  1.2631  1.3148
 4549TIP3   OH235205   4.819   2.710   6.777 -0.0231  0.1328  0.2259
 4549TIP3    H135206   4.879   2.648   6.735 -0.9400 -2.4791  2.4533
 4549TIP3    H235207   4.775   2.754   6.704  4.0337  1.8005 -1.4882
 4550TIP3   OH235208   1.921   1.057   7.810  0.1163  0.9682  0.8895
 4550TIP3    H135209   1.868   1.104   7.875 -1.3387  0.1743  0.3228
 4550TIP3    H235210   2.010   1.060   7.846  0.3720  5.0446  0.3614
 4551TIP3   OH235211   6.366   3.174   1.612 -0.1846  0.2530 -0.1613
 4551TIP3    H135212   6.364   3.094   1.664 -0.1137 -0.6442 -1.4845
 4551TIP3    H235213   6.328   3.241   1.669 -0.0316 -0.6588  1.0554
 4552TIP3   OH235214   4.809   2.998   0.421  0.1059 -0.5546 -0.1367
 4552TIP3    H135215   4.839   3.088   0.410  0.4271 -0.8272 -1.7209
 4552TIP3    H235216   4.714   3.002   0.411  0.1817 -0.4713 -0.8794
 4553TIP3   OH235217   4.541   5.383   1.609 -0.2006 -0.1512  0.3016
 4553TIP3    H135218   4.586   5.459   1.572 -2.2412  0.8307 -0.3078
 4553TIP3    H235219   4.546   5.316   1.541  0.5022 -0.1405  0.3321
 4554TIP3   OH235220   1.637   5.508   8.449  0.6734  0.6770 -0.1956
 4554TIP3    H135221   1.601   5.435   8.398  1.2704  0.2142  0.0167
 4554TIP3    H235222   1.642   5.581   8.388  1.5153  0.0892 -0.8548
 4555TIP3   OH235223   5.694   4.904   2.468  0.1384  0.2883 -0.3626
 4555TIP3    H135224   5.708   4.828   2.524  2.5611  1.5452  0.8945
 4555TIP3    H235225   5.732   4.879   2.384 -0.8706 -0.5420 -0.6046
 4556TIP3   OH235226   6.581   6.198   0.121  0.2468 -0.9923  0.8260
 4556TIP3    H135227   6.493   6.230   0.143 -0.6016 -1.1982 -1.8782
 4556TIP3    H235228   6.627   6.274   0.086 -0.3111 -1.6503 -1.5589
 4557TIP3   OH235229   2.241   5.051   7.218 -0.0106  0.4533  0.0334
 4557TIP3    H135230   2.148   5.056   7.240  0.1501  0.4213  0.7406
 4557TIP3    H235231   2.252   5.116   7.149 -0.8781 -0.6821 -1.2398
 4558TIP3   OH235232   0.798   5.354   7.596 -0.6048  0.1041  0.2057
 4558TIP3    H135233   0.829   5.419   7.533  1.5364 -0.2406  0.8157
 4558TIP3    H235234   0.852   5.369   7.674 -1.4759 -1.0886  1.0698
 4559TIP3   OH235235   4.594   6.734   2.386  0.1826 -0.2673 -0.4987
 4559TIP3    H135236   4.625   6.690   2.466 -0.6223 -0.7033 -0.4142
 4559TIP3    H235237   4.555   6.664   2.334  1.2827 -0.1009 -1.5855
 4560TIP3   OH235238   1.865   2.206   8.147  0.2221 -0.2249  0.3890
 4560TIP3    H135239   1.813   2.197   8.067 -3.1908 -2.5941  2.5703
 4560TIP3    H235240   1.837   2.290   8.185  0.3287 -0.0516  0.0866
 4561TIP3   OH235241   0.635   2.692   7.265  0.0179 -0.2362  0.8543
 4561TIP3    H135242   0.724   2.677   7.296 -0.2577 -0.5732  1.5132
 4561TIP3    H235243   0.590   2.609   7.282 -0.0837 -0.5282 -0.7129
 4562TIP3   OH235244   4.316   0.305   8.388 -0.1883 -0.0241  0.3648
 4562TIP3    H135245   4.310   0.209   8.380  1.1786 -0.1835  0.9664
 4562TIP3    H235246   4.300   0.322   8.481  2.1585  0.0397  0.8289
 4563TIP3   OH235247   4.270   2.972   0.009  0.5193  0.3560  0.4873
 4563TIP3    H135248   4.287   2.947  -0.082  1.2965 -0.9874  0.9650
 4563TIP3    H235249   4.175   2.969   0.017  0.4514  0.3625 -0.2576
 4564TIP3   OH235250   4.344   1.779   8.437  0.5171 -0.0680 -0.0556
 4564TIP3    H135251   4.311   1.861   8.473 -0.1112  0.0602 -0.8938
 4564TIP3    H235252   4.295   1.711   8.482 -2.3185  0.1486 -2.5045
 4565TIP3   OH235253   3.364   2.056   0.600 -0.1128 -0.0586  0.3307
 4565TIP3    H135254   3.278   2.025   0.572 -1.0708  0.2625  2.7144
 4565TIP3    H235255   3.409   2.077   0.518 -1.3950 -2.4541 -1.1269
 4566TIP3   OH235256   2.194   3.951   8.618 -0.5305 -0.0107  0.5791
 4566TIP3    H135257   2.180   3.886   8.549 -0.1627  2.6044 -2.1692
 4566TIP3    H235258   2.111   3.998   8.624 -0.3134  0.2845  1.3987
 4567TIP3   OH235259   3.315   5.490   7.640  0.5350 -0.4772  0.0285
 4567TIP3    H135260   3.234   5.487   7.691 -0.3227  0.2762 -1.2279
 4567TIP3    H235261   3.298   5.557   7.574  1.5681 -1.4796 -1.2856
 4568TIP3   OH235262   4.763   1.420   7.965 -0.0702  0.3535 -0.4217
 4568TIP3    H135263   4.854   1.438   7.946 -0.0816  1.3744  0.3879
 4568TIP3    H235264   4.728   1.382   7.884 -0.1281  4.3138 -2.4731
 4569TIP3   OH235265   3.429   0.311   0.885 -0.4136  0.0777 -0.0799
 4569TIP3    H135266   3.494   0.245   0.908  2.3623  2.6789  0.0568
 4569TIP3    H235267   3.422   0.306   0.789 -0.9284 -0.9630 -0.0014
 4570TIP3   OH235268   0.084   1.753   8.291  0.3044  0.3063  0.0686
 4570TIP3    H135269   0.169   1.728   8.254  0.8240  0.3738  1.1552
 4570TIP3    H235270   0.043   1.671   8.316  1.5260  0.3754  2.6052
 4571TIP3   OH235271   2.109   1.709   8.692  0.4849 -0.1927  0.0444
 4571TIP3    H135272   2.063   1.712   8.776  0.2480 -0.6016 -0.0674
 4571TIP3    H235273   2.043   1.732   8.627 -0.3567 -3.3714 -0.4145
 4572TIP3   OH235274   6.256   3.908   8.245  0.0092  0.1641  0.1841
 4572TIP3    H135275   6.250   3.841   8.178 -0.2296 -0.6449  0.9905
 4572TIP3    H235276   6.172   3.952   8.243  0.2630  0.6399 -0.5341
 4573TIP3   OH235277   5.281   6.175   1.747  0.6019  0.1143 -0.5223
 4573TIP3    H135278   5.309   6.202   1.835 -0.5979  1.9933 -0.6641
 4573TIP3    H235279   5.345   6.213   1.688 -0.2656  1.4645 -0.6261
 4574TIP3   OH235280   0.197   6.687   0.436 -0.0821  0.0460 -0.3016
 4574TIP3    H135281   0.281   6.728   0.419  0.4384 -1.3703 -1.3488
 4574TIP3    H235282   0.216   6.617   0.499 -0.2015 -1.0790 -1.4627
 4575TIP3   OH235283   3.904   1.464   8.602  0.1312 -0.0847  0.1932
 4575TIP3    H135284   3.943   1.412   8.673  1.8583  1.2861  0.3137
 4575TIP3    H235285   3.848   1.527   8.647 -1.6018 -1.4448  0.0705
 4576TIP3   OH235286   3.014   0.867   6.696 -0.0560  0.2024 -0.2220
 4576TIP3    H135287   3.009   0.805   6.623 -2.2979 -0.3293  0.2921
 4576TIP3    H235288   3.078   0.932   6.669 -0.5449 -0.1834 -2.5005
 4577TIP3   OH235289   3.267   0.484   2.081  0.1010  0.0039  0.1129
 4577TIP3    H135290   3.318   0.451   2.155 -0.8424  0.1104  0.8342
 4577TIP3    H235291   3.189   0.522   2.121 -0.6236 -0.3000 -0.9681
 4578TIP3   OH235292   5.842   4.696   7.031 -0.1325 -0.2493 -0.3781
 4578TIP3    H135293   5.784   4.772   7.037  1.1691  0.6870  1.4552
 4578TIP3    H235294   5.926   4.732   7.002  0.3352 -1.0910 -0.1080
 4579TIP3   OH235295   4.904   0.436   0.847 -0.6566 -0.7270  0.3576
 4579TIP3    H135296   4.919   0.401   0.759  1.5652  0.2928  0.2812
 4579TIP3    H235297   4.893   0.530   0.834  1.2259 -0.3389  1.2767
 4580TIP3   OH235298   5.453   1.004   8.292 -0.2700 -0.1224  0.5460
 4580TIP3    H135299   5.515   1.069   8.258  0.1084 -0.8834 -0.2687
 4580TIP3    H235300   5.373   1.053   8.307 -0.0506  0.4993 -0.2392
 4581TIP3   OH235301   0.318   2.051   1.364  0.0422 -0.1737  0.1333
 4581TIP3    H135302   0.413   2.061   1.372  0.2396 -2.1653  1.0167
 4581TIP3    H235303   0.305   2.024   1.273  0.4255 -0.6678  0.2195
 4582TIP3   OH235304   5.348   3.465   8.059 -0.5515  0.0666 -0.7307
 4582TIP3    H135305   5.436   3.432   8.042 -0.5975 -0.2838 -0.2940
 4582TIP3    H235306   5.363   3.546   8.108 -0.5004 -1.1678  1.3839
 4583TIP3   OH235307   2.487   4.960   0.319 -0.6449 -0.0911  0.3428
 4583TIP3    H135308   2.506   4.954   0.412 -1.2802  0.4061  0.5123
 4583TIP3    H235309   2.570   4.986   0.279 -1.0592  2.7888  1.1458
 4584TIP3   OH235310   4.779   3.782   0.229  1.1235 -0.4046 -0.1496
 4584TIP3    H135311   4.818   3.868   0.245  1.6374 -0.2112 -2.1303
 4584TIP3    H235312   4.709   3.799   0.166 -2.8934 -0.6374  3.7741
 4585TIP3   OH235313   4.892   2.084   2.607 -0.1573  0.3761  0.4389
 4585TIP3    H135314   4.922   1.997   2.634 -1.9212 -0.5069 -0.2426
 4585TIP3    H235315   4.962   2.143   2.633  0.5237 -1.0833  2.1160
 4586TIP3   OH235316   6.395   0.176   0.979  0.2027 -0.3978  0.2389
 4586TIP3    H135317   6.314   0.199   0.934  0.1578  1.2270  1.0485
 4586TIP3    H235318   6.367   0.153   1.068  0.5959  0.0294  0.4791
 4587TIP3   OH235319   0.197   0.291   1.365 -0.3815  0.3353 -0.2680
 4587TIP3    H135320   0.129   0.314   1.302  0.1174 -0.0511 -0.9585
 4587TIP3    H235321   0.239   0.374   1.387 -2.0110  0.8006  1.2970
 4588TIP3   OH235322   3.489   1.746   7.956  0.2455 -0.1004  0.2903
 4588TIP3    H135323   3.429   1.676   7.929 -1.0856  0.6079  1.2807
 4588TIP3    H235324   3.508   1.727   8.048  1.1650 -0.0419  0.1187
 4589TIP3   OH235325   2.448   2.305   2.256 -0.6582 -0.4162 -0.1717
 4589TIP3    H135326   2.441   2.383   2.201 -1.7355 -1.0753 -1.0098
 4589TIP3    H235327   2.541   2.299   2.278  0.0214 -0.6774 -2.7741
 4590TIP3   OH235328   5.913   4.096   2.240  0.4374  0.5239  0.2357
 4590TIP3    H135329   5.995   4.115   2.286 -0.2658  2.0099  0.9499
 4590TIP3    H235330   5.847   4.148   2.286 -0.4816  1.3100 -1.8399
 4591TIP3   OH235331   2.680   0.260   8.604  0.3185 -0.3560 -0.7478
 4591TIP3    H135332   2.619   0.227   8.670  0.2735 -0.0306 -0.6286
 4591TIP3    H235333   2.640   0.237   8.520  0.4367 -0.8825 -0.6645
 4592TIP3   OH235334   6.258   5.210   7.848  0.6001 -0.1322 -0.3130
 4592TIP3    H135335   6.335   5.174   7.892  1.1244  1.6286  0.3107
 4592TIP3    H235336   6.270   5.305   7.853 -0.9566  0.1642 -1.4053
 4593TIP3   OH235337   2.482   2.876   1.222  0.0254  0.2903  0.6483
 4593TIP3    H135338   2.535   2.940   1.270 -0.9420  1.1314  0.6246
 4593TIP3    H235339   2.402   2.923   1.200 -0.2038 -0.5714 -0.4335
 4594TIP3   OH235340   4.298   1.708   6.473  0.0102 -0.4734 -0.1102
 4594TIP3    H135341   4.335   1.796   6.477 -0.5985 -0.2361  0.6876
 4594TIP3    H235342   4.293   1.680   6.565  0.9229 -1.6600 -0.3996
 4595TIP3   OH235343   2.399   0.783   8.403 -0.3726  0.0515 -0.4381
 4595TIP3    H135344   2.450   0.852   8.361 -1.9427  0.4733 -1.7663
 4595TIP3    H235345   2.402   0.710   8.342 -1.4108  0.1241 -0.5940
 4596TIP3   OH235346   4.120   4.496   7.095  0.0459  0.2688 -0.5395
 4596TIP3    H135347   4.163   4.459   7.017  0.1160  0.9141 -0.8113
 4596TIP3    H235348   4.036   4.450   7.100  1.1101 -1.6846  0.5329
 4597TIP3   OH235349   2.362   1.228   8.440 -0.4710 -0.0372 -0.2832
 4597TIP3    H135350   2.436   1.184   8.483 -1.2620 -1.6476 -0.4935
 4597TIP3    H235351   2.391   1.240   8.349 -0.7255 -1.3495 -0.5525
 4598TIP3   OH235352   1.228   5.144   0.863 -0.7851 -0.6266 -0.0936
 4598TIP3    H135353   1.264   5.123   0.949 -1.1424  0.6739  0.3927
 4598TIP3    H235354   1.231   5.061   0.815 -1.8385 -1.7004  1.6044
 4599TIP3   OH235355   2.307   4.899   7.870 -0.3444  0.3072 -0.5393
 4599TIP3    H135356   2.347   4.885   7.784 -1.4126  2.7712 -1.5214
 4599TIP3    H235357   2.290   4.810   7.902  2.3122 -0.7457 -1.7276
 4600TIP3   OH235358   6.596   0.381   7.516 -0.6339 -0.5110  0.4978
 4600TIP3    H135359   6.518   0.418   7.560 -0.6424 -0.4759  0.4538
 4600TIP3    H235360   6.579   0.395   7.423  0.1673  1.0115  0.5485
 4601TIP3   OH235361   5.565   4.628   2.247  0.1740  0.2081  0.1050
 4601TIP3    H135362   5.620   4.706   2.256 -1.6280  1.3434  2.1109
 4601TIP3    H235363   5.594   4.569   2.316  1.0394 -0.6586 -0.9481
 4602TIP3   OH235364   6.053   5.017   2.132 -0.0142  0.9277 -0.3825
 4602TIP3    H135365   6.021   5.100   2.099 -1.9284  0.5414  0.3466
 4602TIP3    H235366   6.147   5.030   2.144 -0.1329  2.6829 -1.0976
 4603TIP3   OH235367   5.240   3.711   1.160 -0.6477 -0.4016  0.3124
 4603TIP3    H135368   5.285   3.627   1.150  0.7048 -0.0111  2.5201
 4603TIP3    H235369   5.295   3.774   1.112 -0.2588 -0.3641  0.8013
 4604TIP3   OH235370   2.422   1.495   7.064  0.1544 -0.5122 -0.2243
 4604TIP3    H135371   2.425   1.417   7.120  1.6192 -0.1160  0.3001
 4604TIP3    H235372   2.510   1.502   7.027 -0.8344 -0.9326 -2.8851
 4605TIP3   OH235373   0.137   6.417   8.660 -0.2018 -0.8169 -0.1033
 4605TIP3    H135374   0.165   6.502   8.692 -1.1885 -1.2945  2.2017
 4605TIP3    H235375   0.205   6.357   8.691 -0.7452 -1.1715  0.4347
 4606TIP3   OH235376   4.274   1.374   7.496 -0.6347 -0.1001  0.1028
 4606TIP3    H135377   4.368   1.389   7.488 -0.0915 -3.4616 -1.3697
 4606TIP3    H235378   4.266   1.300   7.556 -2.3465  0.0394  0.1116
 4607TIP3   OH235379   4.163   0.947   7.520 -0.6849 -0.2793  0.2320
 4607TIP3    H135380   4.108   0.907   7.453  1.0145 -0.6345 -1.0077
 4607TIP3    H235381   4.143   1.041   7.513 -2.6771 -0.5568  1.3050
 4608TIP3   OH235382   6.649   0.730   1.003  0.4158 -0.0162 -0.4455
 4608TIP3    H135383   6.607   0.673   1.067  0.7152 -0.6312 -0.7853
 4608TIP3    H235384   6.577   0.772   0.957  0.1151 -1.5304 -1.4428
 4609TIP3   OH235385   1.916   6.027   7.874 -0.1467  0.5051 -0.5404
 4609TIP3    H135386   1.908   5.943   7.828 -0.0483  0.7710 -1.0351
 4609TIP3    H235387   1.894   6.005   7.965  0.2856 -0.1433 -0.5809
 4610TIP3   OH235388   3.629   1.642   1.009  0.7604  0.1974  0.1600
 4610TIP3    H135389   3.603   1.734   0.997 -2.5911 -0.7725 -0.9649
 4610TIP3    H235390   3.642   1.634   1.104  0.2287  1.5996  0.3791
 4611TIP3   OH235391   0.422   0.791   7.321 -1.0168  0.1586 -0.4132
 4611TIP3    H135392   0.331   0.789   7.349 -1.2926 -1.2901 -1.3103
 4611TIP3    H235393   0.438   0.705   7.284  0.7370  0.3745 -0.2615
 4612TIP3   OH235394   5.057   2.043   8.463  0.4243 -0.7384 -0.9241
 4612TIP3    H135395   5.067   2.099   8.387 -0.0185 -0.0301 -0.4658
 4612TIP3    H235396   5.013   2.097   8.528  2.5595 -0.6603  0.5763
 4613TIP3   OH235397   3.423   3.383   8.000  0.3793  0.2314  0.3426
 4613TIP3    H135398   3.388   3.310   8.050 -2.0606  1.1714  0.1799
 4613TIP3    H235399   3.448   3.448   8.066 -0.4889  0.4817  0.4441
 4614TIP3   OH235400   1.127   0.484   7.303 -0.1149 -0.4355 -0.0691
 4614TIP3    H135401   1.087   0.397   7.302  0.3917 -0.6657 -0.9939
 4614TIP3    H235402   1.062   0.540   7.259  0.2060 -0.6512 -0.8364
 4615TIP3   OH235403   1.583   6.849   1.602 -0.0881 -0.0531  0.4318
 4615TIP3    H135404   1.584   6.780   1.667  1.4626 -0.9389 -0.4843
 4615TIP3    H235405   1.668   6.893   1.610  0.2365 -0.3275 -1.1054
 4616TIP3   OH235406   1.072   1.455   6.592  0.8229 -0.4368  0.0352
 4616TIP3    H135407   1.155   1.408   6.593  1.0915  0.0421  0.5117
 4616TIP3    H235408   1.094   1.545   6.617  0.1254 -0.3773  0.4774
 4617TIP3   OH235409   4.236   5.450   1.832 -0.3405 -1.0086 -0.7343
 4617TIP3    H135410   4.291   5.508   1.886  0.7161 -1.7880 -0.9415
 4617TIP3    H235411   4.182   5.403   1.895  0.9096 -1.9344 -0.3031
 4618TIP3   OH235412   6.294   1.459   8.341  0.3238  0.1574  0.1003
 4618TIP3    H135413   6.285   1.540   8.391  0.6625 -1.2292  2.5954
 4618TIP3    H235414   6.216   1.454   8.287  0.4887  2.3082 -0.4145
 4619TIP3   OH235415   4.798   4.425   1.336 -0.3698 -0.0641  0.3711
 4619TIP3    H135416   4.823   4.366   1.407 -0.4374 -2.2644 -1.3177
 4619TIP3    H235417   4.735   4.486   1.376 -0.3465 -1.1615  2.1962
 4620TIP3   OH235418   0.710   5.151   8.120  0.5905 -0.5462  0.1087
 4620TIP3    H135419   0.705   5.225   8.181 -2.3962 -0.2213 -0.3474
 4620TIP3    H235420   0.716   5.074   8.177 -3.7825 -0.3954  1.1928
 4621TIP3   OH235421   6.441   0.144   6.675  0.0791  0.3865 -0.2776
 4621TIP3    H135422   6.434   0.053   6.645  0.3156  0.1183  0.4544
 4621TIP3    H235423   6.424   0.196   6.596 -1.7498 -0.2604 -0.3734
 4622TIP3   OH235424   4.893   4.214   6.767  0.0104 -0.7641  0.3860
 4622TIP3    H135425   4.853   4.285   6.717  0.0785 -0.1699  1.1606
 4622TIP3    H235426   4.980   4.247   6.790  1.1443 -2.1759 -1.5833
 4623TIP3   OH235427   3.994   6.739   2.136  0.1873 -0.0361  0.2555
 4623TIP3    H135428   3.909   6.765   2.101 -0.2516  0.1836  1.4364
 4623TIP3    H235429   3.976   6.663   2.191  0.7812 -0.0881  0.3912
 4624TIP3   OH235430   6.326   1.138   0.017 -0.8416  0.1925 -0.5118
 4624TIP3    H135431   6.295   1.132   0.108  1.5824  1.5619  0.5150
 4624TIP3    H235432   6.326   1.048  -0.015  2.7374 -1.2046  2.5804
 4625TIP3   OH235433   3.690   5.919   1.365 -0.6349  0.4982 -0.1027
 4625TIP3    H135434   3.645   5.999   1.392 -0.7175  0.7023 -0.8069
 4625TIP3    H235435   3.751   5.900   1.436 -1.7989  0.2416  0.8428
 4626TIP3   OH235436   0.410   2.293   1.055 -0.3695 -0.2117  0.4110
 4626TIP3    H135437   0.474   2.358   1.084  0.0822 -0.4169 -0.1112
 4626TIP3    H235438   0.429   2.216   1.108 -0.6153 -0.0719  0.7126
 4627TIP3   OH235439   5.245   2.528   7.814 -0.0352 -0.4665  0.1094
 4627TIP3    H135440   5.289   2.520   7.898 -0.0427 -0.1174  0.1467
 4627TIP3    H235441   5.232   2.622   7.802  0.8705 -0.4335 -0.7345
 4628TIP3   OH235442   6.255   1.097   6.659 -0.4557 -0.0657  0.1318
 4628TIP3    H135443   6.217   1.021   6.701  0.4634 -0.7592 -0.2546
 4628TIP3    H235444   6.214   1.099   6.572  0.6193 -1.0303 -0.4236
 4629TIP3   OH235445   1.495   6.456   6.276 -0.4822 -0.7797 -0.0114
 4629TIP3    H135446   1.488   6.540   6.231 -0.0361 -1.5679 -1.6477
 4629TIP3    H235447   1.404   6.426   6.286 -0.5532 -1.1740 -1.6076
 4630TIP3   OH235448   4.858   5.967   0.143  0.6169  0.2615  0.4755
 4630TIP3    H135449   4.796   5.927   0.204  0.6122 -0.2538  0.1345
 4630TIP3    H235450   4.816   6.049   0.117 -0.4058 -0.5509 -0.5305
 4631TIP3   OH235451   6.707   6.515   0.875  0.3455 -0.6632  0.3699
 4631TIP3    H135452   6.766   6.570   0.824 -0.0197 -1.8275 -1.3609
 4631TIP3    H235453   6.708   6.430   0.831 -0.9589 -1.3489  1.5713
 4632TIP3   OH235454   1.616   3.757   0.924 -0.0627 -0.2783  0.4215
 4632TIP3    H135455   1.656   3.707   0.852  2.1622 -0.0385  1.4260
 4632TIP3    H235456   1.565   3.692   0.972 -1.7148 -0.4158 -1.4042
 4633TIP3   OH235457   2.211   5.207   6.983  0.4650  0.0333 -0.1499
 4633TIP3    H135458   2.251   5.243   6.903 -0.1083  0.7053 -0.1507
 4633TIP3    H235459   2.123   5.245   6.984 -0.4303 -1.9076 -0.4788
 4634TIP3   OH235460   6.198   2.458   8.441  0.2246 -0.4260  0.1212
 4634TIP3    H135461   6.255   2.534   8.445 -1.1864  0.7214 -0.6819
 4634TIP3    H235462   6.231   2.399   8.509 -0.0408  1.8777  2.3696
 4635TIP3   OH235463   4.402   1.966   0.208  0.1853  0.4303 -0.3875
 4635TIP3    H135464   4.440   1.924   0.130 -0.3839 -3.8407  1.3745
 4635TIP3    H235465   4.338   2.028   0.172  1.0133 -0.2377 -3.3191
 4636TIP3   OH235466   5.491   5.054   6.700  0.0997  0.3119 -0.3654
 4636TIP3    H135467   5.571   5.084   6.659 -0.4276 -0.1807 -1.8417
 4636TIP3    H235468   5.516   4.973   6.746  0.4725  0.2034 -0.7547
 4637TIP3   OH235469   3.755   2.046   6.774  0.2918 -0.1256  0.1111
 4637TIP3    H135470   3.774   2.095   6.854 -2.5118 -0.1859  0.9131
 4637TIP3    H235471   3.779   1.955   6.795 -0.0119 -0.0650  0.7494
 4638TIP3   OH235472   5.748   3.190   0.432  0.3233  0.3008 -0.5277
 4638TIP3    H135473   5.660   3.164   0.458 -0.0791  0.8422 -1.2967
 4638TIP3    H235474   5.751   3.172   0.338  0.0997  2.7668 -1.0691
 4639TIP3   OH235475   3.216   4.597   8.132  0.1043 -0.0014 -0.2390
 4639TIP3    H135476   3.140   4.540   8.116  0.9140 -1.3076  0.4327
 4639TIP3    H235477   3.265   4.595   8.051  0.7857 -1.3102  0.1857
 4640TIP3   OH235478   3.382   3.908   0.060 -0.7535 -0.3012 -0.0694
 4640TIP3    H135479   3.470   3.928   0.026 -1.1615 -0.2560 -1.1472
 4640TIP3    H235480   3.377   3.955   0.143 -0.1049  0.4943 -0.4669
 4641TIP3   OH235481   2.862   6.842   1.713  0.1198  0.1636 -0.9455
 4641TIP3    H135482   2.925   6.781   1.751  1.2717  1.3130 -0.9319
 4641TIP3    H235483   2.898   6.864   1.627 -0.6536  0.2581 -1.2492
 4642TIP3   OH235484   4.934   1.552   0.971 -0.4510 -0.5689 -0.3556
 4642TIP3    H135485   4.963   1.563   0.881 -0.3730  0.1844 -0.2486
 4642TIP3    H235486   5.012   1.572   1.023 -0.8713  0.4118 -0.0901
 4643TIP3   OH235487   0.196   5.622   8.489  0.4302  0.4549  0.3404
 4643TIP3    H135488   0.149   5.699   8.521  1.4465  0.6132  1.5189
 4643TIP3    H235489   0.127   5.560   8.467 -0.3633  1.0152  1.1739
 4644TIP3   OH235490   6.288   5.753   2.197  0.1911 -0.4230 -0.1749
 4644TIP3    H135491   6.353   5.753   2.126  0.6783  0.0451  0.2688
 4644TIP3    H235492   6.320   5.687   2.258  0.6282  0.2844  0.3778
 4645TIP3   OH235493   6.100   3.060   7.669 -0.2274  0.0430 -0.2023
 4645TIP3    H135494   6.032   3.101   7.723  0.3769 -0.1293  0.7112
 4645TIP3    H235495   6.096   3.107   7.586 -0.5194  0.9724  0.3220
 4646TIP3   OH235496   0.313   2.537   0.140 -0.6872  0.1635  0.3439
 4646TIP3    H135497   0.365   2.616   0.128 -0.4808 -0.2014 -1.4951
 4646TIP3    H235498   0.236   2.566   0.189  0.0513  1.2006  0.9364
 4647TIP3   OH235499   4.724   5.449   8.674  0.4113 -0.5288 -0.3976
 4647TIP3    H135500   4.708   5.488   8.760 -0.8179 -2.2335  0.1954
 4647TIP3    H235501   4.726   5.524   8.614 -0.6834  0.5527  0.8400
 4648TIP3   OH235502   4.979   3.878   7.788  0.2739 -0.3818 -0.4491
 4648TIP3    H135503   4.980   3.970   7.813 -0.4536 -0.7128  0.9499
 4648TIP3    H235504   4.889   3.850   7.805  0.6494 -1.5050 -0.2149
 4649TIP3   OH235505   1.703   1.105   1.654 -0.2558 -0.5909  0.3355
 4649TIP3    H135506   1.654   1.187   1.664  0.0652 -0.5061  1.2084
 4649TIP3    H235507   1.716   1.073   1.743  4.2658  1.1387  0.5730
 4650TIP3   OH235508   5.090   6.425   1.191 -0.3980  0.6664 -0.1822
 4650TIP3    H135509   5.176   6.383   1.190 -1.1587 -1.0525  1.4413
 4650TIP3    H235510   5.104   6.509   1.147  1.8759  0.0262 -0.8138
 4651TIP3   OH235511   2.291   6.292   7.958 -0.5434  0.3481 -0.4610
 4651TIP3    H135512   2.328   6.378   7.980 -0.4165 -0.1959  1.5838
 4651TIP3    H235513   2.198   6.310   7.942 -0.8174  0.7167  1.2930
 4652TIP3   OH235514   4.121   6.843   7.395  0.5124  0.1011 -0.8675
 4652TIP3    H135515   4.094   6.900   7.323  0.0929 -0.7371 -1.3889
 4652TIP3    H235516   4.107   6.754   7.362 -0.6311 -0.2966  0.5977
 4653TIP3   OH235517   2.004   6.273   8.221  0.4941  0.5451  0.2337
 4653TIP3    H135518   1.975   6.289   8.131 -1.2354  0.1229  0.6774
 4653TIP3    H235519   1.957   6.194   8.247  0.5964  0.9385  1.6664
 4654TIP3   OH235520   4.191   5.917   0.503 -0.4146  0.4456  0.0711
 4654TIP3    H135521   4.133   5.846   0.530 -0.5044  0.1780 -0.7849
 4654TIP3    H235522   4.207   5.901   0.410  1.7559 -0.0092  0.4611
 4655TIP3   OH235523   1.098   3.268   7.157 -0.1498  0.0592  0.5929
 4655TIP3    H135524   1.028   3.241   7.097  1.4475 -0.5857 -1.0886
 4655TIP3    H235525   1.128   3.186   7.196 -1.1019  0.4632  2.2798
 4656TIP3   OH235526   3.295   1.820   0.965  0.1181 -0.0929  0.1957
 4656TIP3    H135527   3.234   1.783   0.902 -1.5049  0.7923  1.1607
 4656TIP3    H235528   3.317   1.906   0.930 -0.4162  0.2096  0.5905
 4657TIP3   OH235529   4.404   0.868   7.360 -0.2080  0.4177  0.0490
 4657TIP3    H135530   4.458   0.822   7.423  0.1404  0.5109 -0.1795
 4657TIP3    H235531   4.341   0.917   7.413  0.0520  0.4578  0.3191
 4658TIP3   OH235532   4.599   0.387   1.343  0.4600 -0.3322 -0.2068
 4658TIP3    H135533   4.616   0.411   1.252  0.4655  0.8291  0.0859
 4658TIP3    H235534   4.532   0.319   1.338 -0.5842  0.7109 -1.0503
 4659TIP3   OH235535   1.358   5.162   8.015 -0.8276 -0.4451 -0.5973
 4659TIP3    H135536   1.365   5.192   8.106 -0.7468 -0.9121 -0.4493
 4659TIP3    H235537   1.442   5.183   7.976 -0.5466 -1.0564 -0.3207
 4660TIP3   OH235538   5.649   0.822   7.972  0.9027  0.2245 -0.7917
 4660TIP3    H135539   5.669   0.913   7.993  1.1879 -0.0419  0.1286
 4660TIP3    H235540   5.558   0.810   8.001  0.2956  0.6518 -2.4049
 4661TIP3   OH235541   5.406   1.390   1.611  0.6720 -0.5481  0.1106
 4661TIP3    H135542   5.405   1.354   1.700  0.0881  0.5533  0.5606
 4661TIP3    H235543   5.348   1.465   1.615 -1.4154 -1.9541 -1.8359
 4662TIP3   OH235544   1.195   2.243   8.061 -0.4039 -0.1201 -0.0320
 4662TIP3    H135545   1.235   2.160   8.036 -1.0576 -0.8422  1.2122
 4662TIP3    H235546   1.245   2.272   8.138  1.2392  1.7982 -1.6610
 4663TIP3   OH235547   3.577   0.090   1.381  0.1800  0.3337  1.1506
 4663TIP3    H135548   3.672   0.078   1.380  0.2187  0.5624 -0.1253
 4663TIP3    H235549   3.542   0.007   1.412  0.7986  0.2750  1.7065
 4664TIP3   OH235550   5.484   6.625   2.003  0.1536 -0.5468  0.3399
 4664TIP3    H135551   5.415   6.657   2.061 -0.8889 -1.3020 -0.4379
 4664TIP3    H235552   5.565   6.632   2.054 -0.2254  1.9493  0.6807
 4665TIP3   OH235553   4.134   3.957   7.775  0.1550 -0.1821  0.3947
 4665TIP3    H135554   4.195   4.031   7.781 -0.3450  0.4125 -1.4148
 4665TIP3    H235555   4.186   3.882   7.804  1.1489  0.6063  0.7476
 4666TIP3   OH235556   2.374   6.247   2.213 -0.0475 -0.2581 -0.0715
 4666TIP3    H135557   2.324   6.234   2.294 -1.3321 -1.1786 -0.9772
 4666TIP3    H235558   2.383   6.342   2.206 -0.8907 -0.1074  0.5847
 4667TIP3   OH235559   4.250   5.316   5.898 -0.2038 -0.2139  0.2094
 4667TIP3    H135560   4.343   5.321   5.921 -0.1953  0.8574 -0.0046
 4667TIP3    H235561   4.204   5.326   5.981 -0.1384  1.2903  0.0950
 4668TIP3   OH235562   2.587   4.973   7.947  0.3062 -0.5620  0.6371
 4668TIP3    H135563   2.601   4.914   7.873 -1.5603 -0.5120  0.1999
 4668TIP3    H235564   2.493   4.969   7.964  0.4640  0.6387  2.0012
 4669TIP3   OH235565   5.181   3.112   2.444 -0.1458  0.5662  0.4066
 4669TIP3    H135566   5.140   3.153   2.521 -1.6316 -1.7220  0.9537
 4669TIP3    H235567   5.121   3.041   2.421  1.9837 -0.9275 -0.8091
 4670TIP3   OH235568   5.032   3.409   0.531 -0.4587 -0.0440 -0.3889
 4670TIP3    H135569   4.950   3.364   0.510  0.0048 -0.6683 -0.9076
 4670TIP3    H235570   5.010   3.501   0.535 -1.4205 -0.2901  0.5795
 4671TIP3   OH235571   0.322   2.726   1.665 -0.1113  0.9231 -0.0539
 4671TIP3    H135572   0.364   2.733   1.750  0.3737 -0.4581 -0.1524
 4671TIP3    H235573   0.228   2.720   1.684 -0.1357  2.1420  0.2746
 4672TIP3   OH235574   4.157   4.663   1.795 -0.4595 -0.0210  0.7037
 4672TIP3    H135575   4.140   4.587   1.852 -0.7163  0.0891  0.7776
 4672TIP3    H235576   4.092   4.654   1.725  0.4351 -0.6506 -0.0744
 4673TIP3   OH235577   5.489   2.169   8.493  0.4557  0.0523 -0.5970
 4673TIP3    H135578   5.510   2.099   8.554 -0.6577 -0.6294 -0.9495
 4673TIP3    H235579   5.570   2.218   8.483  1.2095 -1.0573 -0.1613
 4674TIP3   OH235580   6.810   4.664   0.392 -0.5952 -0.2214  0.2288
 4674TIP3    H135581   6.755   4.636   0.319 -0.6709 -0.9428  0.5583
 4674TIP3    H235582   6.886   4.704   0.351 -1.3912  0.8628 -0.2341
 4675TIP3   OH235583   3.979   2.602   6.870 -0.5579 -0.8715  0.3750
 4675TIP3    H135584   4.005   2.511   6.885  0.3598 -0.6863 -0.0149
 4675TIP3    H235585   4.056   2.642   6.830 -0.3116  0.5435  2.1686
 4676TIP3   OH235586   4.164   5.597   2.292  0.2836 -0.6746  0.8998
 4676TIP3    H135587   4.120   5.512   2.285 -1.2948  0.0011  2.0615
 4676TIP3    H235588   4.094   5.661   2.279  1.1796  0.4524  1.4754
 4677TIP3   OH235589   6.430   1.572   7.930  0.1892  0.3747 -0.1201
 4677TIP3    H135590   6.498   1.562   7.996  0.5584  1.2391 -0.3557
 4677TIP3    H235591   6.356   1.610   7.978  0.0769 -0.0153  0.0167
 4678TIP3   OH235592   0.900   0.638   7.206 -0.0108  0.2748  0.5653
 4678TIP3    H135593   0.911   0.733   7.204  0.0147  0.3206  1.9517
 4678TIP3    H235594   0.805   0.625   7.218 -0.0653  0.1161 -0.0234
 4679TIP3   OH235595   2.343   0.527   7.819 -0.1195 -0.0246 -0.0363
 4679TIP3    H135596   2.335   0.441   7.779  0.9912 -0.4711  0.6297
 4679TIP3    H235597   2.253   0.553   7.839 -0.6121 -0.2271 -1.8340
 4680TIP3   OH235598   5.966   2.521   1.691  0.4618  0.1533 -0.0436
 4680TIP3    H135599   5.881   2.563   1.701  1.7140  3.0883 -0.6630
 4680TIP3    H235600   5.962   2.479   1.605  0.1288  1.6974 -0.8302
 4681TIP3   OH235601   5.633   5.409   8.226  0.3016 -0.6542  0.6107
 4681TIP3    H135602   5.692   5.426   8.153 -1.4912  0.4879 -0.6417
 4681TIP3    H235603   5.599   5.495   8.251  0.1309 -1.1312  2.1809
 4682TIP3   OH235604   5.832   3.876   0.539 -0.5410  0.0184 -0.2434
 4682TIP3    H135605   5.829   3.937   0.466 -1.0679 -1.0252 -1.1175
 4682TIP3    H235606   5.860   3.793   0.501 -0.7355 -0.5259  0.7455
 4683TIP3   OH235607   3.230   3.465   0.870  0.0908 -0.2696 -0.7362
 4683TIP3    H135608   3.306   3.415   0.841 -0.3257 -1.1317 -0.3877
 4683TIP3    H235609   3.243   3.552   0.833  1.8517 -0.0265  0.3338
 4684TIP3   OH235610   2.148   6.156   1.599 -0.4665 -0.1209 -0.5684
 4684TIP3    H135611   2.076   6.175   1.659 -0.9627 -2.4532 -0.3501
 4684TIP3    H235612   2.226   6.184   1.647 -1.0393  0.1913  0.2063
 4685TIP3   OH235613   3.378   5.314   0.178  0.1707 -0.5078 -0.3921
 4685TIP3    H135614   3.345   5.265   0.253 -0.0455 -1.0692 -0.8470
 4685TIP3    H235615   3.451   5.366   0.213 -0.0821 -0.5793  0.2524
 4686TIP3   OH235616   1.804   5.807   7.776 -0.7921  0.3633 -0.2839
 4686TIP3    H135617   1.803   5.797   7.681 -1.1341  0.0327 -0.2505
 4686TIP3    H235618   1.810   5.717   7.810 -1.3122  0.4335  0.0092
 4687TIP3   OH235619   6.217   2.823   1.625 -0.0725 -0.2936  0.1775
 4687TIP3    H135620   6.309   2.848   1.617 -0.4214  0.9479 -0.1548
 4687TIP3    H235621   6.212   2.780   1.711  0.4352  1.5027  1.1610
 4688TIP3   OH235622   6.110   1.421   7.605 -0.0085  0.2615 -0.7962
 4688TIP3    H135623   6.114   1.426   7.510  1.0650  0.2076 -0.7582
 4688TIP3    H235624   6.199   1.438   7.635  0.3464 -2.5396  0.0507
 4689TIP3   OH235625   6.856   4.556   1.550 -0.6959 -0.0831  0.4603
 4689TIP3    H135626   6.817   4.598   1.626 -0.8832 -1.7983  1.3574
 4689TIP3    H235627   6.943   4.596   1.542 -1.4935  1.6703  0.2102
 4690TIP3   OH235628   1.151   3.721   2.031 -0.2661 -0.2238 -0.0560
 4690TIP3    H135629   1.134   3.741   2.123 -0.8850 -0.7133 -0.0502
 4690TIP3    H235630   1.124   3.630   2.021  1.0742 -0.6069 -0.4141
 4691TIP3   OH235631   0.019   5.129   0.311 -0.3528  0.0248  0.0647
 4691TIP3    H135632  -0.053   5.067   0.298  0.2974 -0.7157 -0.0450
 4691TIP3    H235633   0.090   5.076   0.345  0.4065  0.6111 -0.5837
 4692TIP3   OH235634   1.565   1.227   0.410  0.4089 -0.0950 -0.2701
 4692TIP3    H135635   1.551   1.293   0.478  2.0435  0.8514 -0.7899
 4692TIP3    H235636   1.654   1.195   0.425  0.5782 -0.3145 -1.5676
 4693TIP3   OH235637   0.753   3.939   8.300 -0.1435  0.6202 -0.5202
 4693TIP3    H135638   0.740   3.932   8.394 -0.7064 -0.5602 -0.6666
 4693TIP3    H235639   0.803   4.020   8.288 -0.4255  0.9948  0.7466
 4694TIP3   OH235640   3.231   5.013   7.578 -0.4785  0.1312  0.5948
 4694TIP3    H135641   3.222   5.096   7.533 -1.4293 -0.8678 -1.1875
 4694TIP3    H235642   3.325   4.993   7.573 -0.6689 -0.4624 -2.0538
 4695TIP3   OH235643   4.019   2.857   0.034 -0.2884 -0.4152  0.3926
 4695TIP3    H135644   4.015   2.767   0.002  0.4672 -0.6135  0.8226
 4695TIP3    H235645   3.978   2.853   0.121 -0.0792 -0.3906  0.4936
 4696TIP3   OH235646   5.878   0.980   8.135  0.3110 -0.4347 -0.1215
 4696TIP3    H135647   5.926   0.909   8.092 -2.2160 -1.4231 -1.5157
 4696TIP3    H235648   5.846   1.034   8.063 -1.5732 -0.4580  0.6458
 4697TIP3   OH235649   4.512   1.918   6.705 -0.4557 -0.2401 -0.2801
 4697TIP3    H135650   4.563   1.926   6.625  0.6701  1.8882  0.6023
 4697TIP3    H235651   4.426   1.887   6.675  0.2058 -0.3441 -2.1878
 4698TIP3   OH235652   1.745   1.653   7.107 -0.2418  0.0542  0.0220
 4698TIP3    H135653   1.717   1.693   7.024 -1.2418  0.6936  0.6421
 4698TIP3    H235654   1.835   1.685   7.119 -0.5941  1.1470 -0.1089
 4699TIP3   OH235655   0.488   3.838   7.657 -0.2164  0.4713  0.2408
 4699TIP3    H135656   0.520   3.912   7.709  1.5781 -0.1768  0.1416
 4699TIP3    H235657   0.567   3.799   7.620 -0.8718 -2.5252  1.6609
 4700TIP3   OH235658   0.980   3.016   7.656 -0.6060  0.1640  0.1564
 4700TIP3    H135659   0.958   2.937   7.705  0.6074 -0.3909 -0.1543
 4700TIP3    H235660   0.895   3.052   7.629 -1.2126 -0.4456  1.1992
 4701TIP3   OH235661   5.651   4.279   0.067  0.1610  0.0670 -0.2839
 4701TIP3    H135662   5.735   4.305   0.030  0.8975  2.0812  2.4598
 4701TIP3    H235663   5.670   4.197   0.114  0.1241 -0.4391 -1.1315
 4702TIP3   OH235664   1.924   0.490   1.347  0.1779 -0.4241  0.4721
 4702TIP3    H135665   1.883   0.574   1.326  0.7229 -0.0637  0.8486
 4702TIP3    H235666   1.998   0.484   1.287 -0.1100 -0.8339  0.1543
 4703TIP3   OH235667   4.406   3.840   1.317  0.5938  0.7668  0.1922
 4703TIP3    H135668   4.396   3.770   1.381  1.5382  0.2154 -0.2417
 4703TIP3    H235669   4.411   3.920   1.370 -0.8641  0.5658  0.6673
 4704TIP3   OH235670   0.030   5.330   8.377  0.1223 -0.2975  0.7245
 4704TIP3    H135671   0.019   5.247   8.331 -0.0248 -0.5710  1.2402
 4704TIP3    H235672  -0.023   5.321   8.456 -1.8728  1.2005 -0.3472
 4705TIP3   OH235673   3.404   3.727   2.700  0.1698  0.2200 -0.2344
 4705TIP3    H135674   3.357   3.671   2.639 -0.2637  1.0325 -0.6666
 4705TIP3    H235675   3.338   3.789   2.732 -0.0357 -1.2223  2.3828
 4706TIP3   OH235676   4.707   6.272   6.799  0.5394 -0.6193 -0.0794
 4706TIP3    H135677   4.667   6.358   6.784  0.5464 -0.1761  2.1006
 4706TIP3    H235678   4.633   6.214   6.814  0.5853 -0.4683  0.7939
 4707TIP3   OH235679   2.371   1.999   6.691 -0.4354  0.4515 -0.1881
 4707TIP3    H135680   2.426   1.928   6.657 -1.5249 -0.4394 -0.1287
 4707TIP3    H235681   2.339   2.044   6.613 -0.9521 -0.0612 -0.2751
 4708TIP3   OH235682   2.266   4.606   1.081  0.3831  0.3029  0.0655
 4708TIP3    H135683   2.228   4.534   1.031 -0.6843  0.6064  0.4043
 4708TIP3    H235684   2.337   4.639   1.026  2.6928 -2.6247  0.9894
 4709TIP3   OH235685   5.419   3.198   7.426  0.6332 -0.1179 -0.1210
 4709TIP3    H135686   5.462   3.117   7.454  0.4898  0.2127  1.1079
 4709TIP3    H235687   5.326   3.180   7.435  0.5703 -0.1092 -0.7162
 4710TIP3   OH235688   1.328   5.418   0.568  0.4199 -0.4715  0.4192
 4710TIP3    H135689   1.390   5.356   0.530  0.5191  0.6234 -1.3154
 4710TIP3    H235690   1.244   5.394   0.529  0.2662 -0.1680  0.5603
 4711TIP3   OH235691   4.428   0.946   7.853  0.5555  0.1661 -0.3514
 4711TIP3    H135692   4.429   1.011   7.923 -0.9694 -0.7718  0.6084
 4711TIP3    H235693   4.344   0.901   7.864  0.6664 -0.5891 -2.2603
 4712TIP3   OH235694   6.404   3.306   8.605  0.2027  0.0294 -0.0395
 4712TIP3    H135695   6.397   3.300   8.700  1.0864  1.1490  0.1168
 4712TIP3    H235696   6.346   3.379   8.581  2.2428  1.7418  0.0070
 4713TIP3   OH235697   3.156   1.384   0.857 -0.0237 -0.2283 -0.0702
 4713TIP3    H135698   3.103   1.423   0.788  0.1426 -1.3526 -0.8665
 4713TIP3    H235699   3.239   1.431   0.855 -0.3949  0.4339  0.0640
 4714TIP3   OH235700   0.788   6.067   8.016  0.1469  0.1266 -0.3941
 4714TIP3    H135701   0.744   6.101   8.094 -0.1296  2.9873 -1.6852
 4714TIP3    H235702   0.717   6.052   7.954  0.6232  0.8086 -1.1104
 4715TIP3   OH235703   2.658   1.790   2.183  0.0287  0.1964 -0.2003
 4715TIP3    H135704   2.731   1.755   2.233 -0.6795 -1.6734 -0.3737
 4715TIP3    H235705   2.587   1.798   2.246 -0.1440  0.2566 -0.4010
 4716TIP3   OH235706   3.781   3.211   1.694  0.0215  0.7826 -0.0647
 4716TIP3    H135707   3.694   3.248   1.711 -0.1873  0.4401 -0.3703
 4716TIP3    H235708   3.775   3.176   1.605 -0.3875 -1.6676  0.8624
 4717TIP3   OH235709   4.602   3.658   8.207 -0.5501 -0.0901 -0.0872
 4717TIP3    H135710   4.596   3.742   8.162 -0.6130 -0.1603 -0.2117
 4717TIP3    H235711   4.517   3.647   8.249  0.1313  0.8522  1.6360
 4718TIP3   OH235712   6.747   0.677   2.350  0.3950  0.9443  0.2578
 4718TIP3    H135713   6.799   0.634   2.282 -2.4153 -0.3506 -1.2287
 4718TIP3    H235714   6.758   0.771   2.333  1.3185  0.6871 -0.6973
 4719TIP3   OH235715   2.352   6.121   8.190  0.2254  0.0966  0.3875
 4719TIP3    H135716   2.323   6.163   8.108 -0.1951  0.2168  0.5939
 4719TIP3    H235717   2.320   6.031   8.184  0.6135 -0.0337  0.2097
 4720TIP3   OH235718   0.243   4.446   8.419  0.2384  0.4699  0.0465
 4720TIP3    H135719   0.239   4.394   8.500  0.1424 -1.7022 -1.2778
 4720TIP3    H235720   0.158   4.492   8.417  0.0053  0.1123  0.8879
 4721TIP3   OH235721   2.735   6.135   0.442  1.0136 -0.4068 -0.0314
 4721TIP3    H135722   2.748   6.066   0.506  1.0331 -2.2554 -1.9281
 4721TIP3    H235723   2.798   6.116   0.373  1.7981  2.1833 -0.1343
 4722TIP3   OH235724   6.058   3.996   0.021  0.1081 -0.5760  0.0588
 4722TIP3    H135725   6.131   3.960  -0.029  0.1932  0.1420 -0.3364
 4722TIP3    H235726   5.992   3.927   0.020 -0.4862 -0.0660 -2.2889
 4723TIP3   OH235727   4.871   3.332   7.926  0.3119  0.2184  0.0756
 4723TIP3    H135728   4.795   3.390   7.933  0.3548  0.3821 -0.7218
 4723TIP3    H235729   4.865   3.275   8.002 -1.6198 -0.9434 -0.8609
 4724TIP3   OH235730   4.846   5.771   6.792 -0.0321 -0.3457 -0.2502
 4724TIP3    H135731   4.806   5.685   6.795 -0.7718  0.0186  1.2667
 4724TIP3    H235732   4.940   5.754   6.784 -0.2864 -1.2349 -1.7445
 4725TIP3   OH235733   2.351   5.747   1.200  0.1853 -0.4016 -0.5204
 4725TIP3    H135734   2.265   5.703   1.203  0.1245 -0.2512  0.9466
 4725TIP3    H235735   2.414   5.676   1.194  0.0620 -0.7211  1.3338
 4726TIP3   OH235736   1.476   1.103   2.118  0.1214 -0.2279  0.3302
 4726TIP3    H135737   1.467   1.009   2.130 -0.4144 -0.0937  1.0399
 4726TIP3    H235738   1.392   1.132   2.084  0.6661 -0.1628 -1.0181
 4727TIP3   OH235739   4.665   6.658   7.420 -0.2623  0.7508 -0.0229
 4727TIP3    H135740   4.750   6.672   7.462 -0.3074 -0.5788  0.5749
 4727TIP3    H235741   4.668   6.567   7.390 -2.1870  0.0018  1.7910
 4728TIP3   OH235742   6.140   3.678   8.610  0.2526  0.0470 -0.3960
 4728TIP3    H135743   6.158   3.595   8.566  1.7540  0.1289  0.0214
 4728TIP3    H235744   6.181   3.744   8.554 -0.1406  0.4271 -0.2440
 4729TIP3   OH235745   2.264   2.140   6.488 -0.5852 -0.7226  0.1288
 4729TIP3    H135746   2.179   2.175   6.462 -0.2166 -0.2570 -0.4827
 4729TIP3    H235747   2.310   2.125   6.405  0.2169 -0.2262  0.4721
 4730TIP3   OH235748   6.661   1.771   1.054 -0.5089  0.0810 -0.1433
 4730TIP3    H135749   6.632   1.728   1.134  0.7947  0.4919  0.5713
 4730TIP3    H235750   6.656   1.703   0.987 -0.9758 -0.4490  0.4180
 4731TIP3   OH235751   2.323   0.427   2.034  0.4108  0.8591  0.6784
 4731TIP3    H135752   2.373   0.367   1.979 -1.6774 -0.0975 -0.2871
 4731TIP3    H235753   2.316   0.381   2.118 -1.8272 -0.7309 -0.2784
 4732TIP3   OH235754   0.542   3.682   2.398 -0.3789  0.0987  0.8631
 4732TIP3    H135755   0.513   3.617   2.462 -0.7990  0.3029  0.8874
 4732TIP3    H235756   0.634   3.698   2.419 -0.8751  1.2476  2.3552
 4733TIP3   OH235757   5.339   2.086   0.511  0.2962  0.6319 -1.0936
 4733TIP3    H135758   5.348   2.146   0.437 -0.0525 -1.1041 -2.6246
 4733TIP3    H235759   5.249   2.097   0.541  1.1237  3.1547  0.8063
 4734TIP3   OH235760   3.533   4.489   0.414  0.0022  0.3197  0.1546
 4734TIP3    H135761   3.628   4.490   0.418  0.0553 -0.3787 -0.6313
 4734TIP3    H235762   3.512   4.417   0.354 -0.9891  1.0434 -0.4073
 4735TIP3   OH235763   1.541   3.273   0.598  0.1404  0.1520 -0.0835
 4735TIP3    H135764   1.560   3.189   0.640  0.3356  0.8747  1.3277
 4735TIP3    H235765   1.451   3.292   0.622 -0.0161  0.1899 -0.6881
 4736TIP3   OH235766   2.454   6.707   1.152  0.0899  0.7951  0.1109
 4736TIP3    H135767   2.513   6.704   1.077  1.0508 -0.0276  0.8774
 4736TIP3    H235768   2.482   6.785   1.202 -0.3624  1.1771 -0.2220
 4737TIP3   OH235769   4.190   3.137   0.493 -0.3160  0.3998  0.3344
 4737TIP3    H135770   4.185   3.134   0.398 -1.0085  0.7866  0.3535
 4737TIP3    H235771   4.099   3.147   0.522 -0.0371  1.0929  1.0064
 4738TIP3   OH235772   3.809   2.193   8.076 -0.5299  0.0440 -0.0391
 4738TIP3    H135773   3.903   2.208   8.089 -0.5036 -1.1006  1.3007
 4738TIP3    H235774   3.805   2.124   8.009 -0.4083  0.0641 -0.0677
 4739TIP3   OH235775   5.630   0.293   0.998 -0.3799  0.2673  0.5804
 4739TIP3    H135776   5.660   0.207   1.027  1.5714  0.7938  0.2507
 4739TIP3    H235777   5.669   0.355   1.059  0.3648  1.0838 -0.6767
 4740TIP3   OH235778   5.029   6.131   7.932 -0.1981 -0.1583  0.5626
 4740TIP3    H135779   4.937   6.154   7.943 -0.9568 -1.8709 -1.5406
 4740TIP3    H235780   5.028   6.044   7.892  2.2752  0.4401 -1.0630
 4741TIP3   OH235781   5.462   5.525   7.565 -0.1874 -0.0309  0.3072
 4741TIP3    H135782   5.483   5.509   7.657 -0.8511  1.4991  0.7650
 4741TIP3    H235783   5.398   5.459   7.543  1.0386 -1.3324  0.4888
 4742TIP3   OH235784   5.178   5.006   0.303  0.7985  0.2063 -0.0887
 4742TIP3    H135785   5.163   4.919   0.264 -0.8002 -0.0736  1.0597
 4742TIP3    H235786   5.176   5.066   0.228  1.4518 -0.6821 -0.8434
 4743TIP3   OH235787   3.195   4.180   6.937  0.1088  1.2068  0.2931
 4743TIP3    H135788   3.259   4.251   6.927  1.1379  0.7445  2.7856
 4743TIP3    H235789   3.248   4.103   6.957 -1.0421 -0.1416 -1.6205
 4744TIP3   OH235790   6.259   0.440   7.984  0.2006 -0.3752 -0.0796
 4744TIP3    H135791   6.171   0.431   8.021  0.5970 -0.0091  0.9918
 4744TIP3    H235792   6.293   0.521   8.022  0.2546  0.5944 -2.0859
 4745TIP3   OH235793   1.924   5.112   6.739  0.1262 -0.9329 -0.1596
 4745TIP3    H135794   1.848   5.161   6.708  0.9795 -0.0676 -0.9390
 4745TIP3    H235795   1.972   5.088   6.659  2.4689  1.5130  0.3739
 4746TIP3   OH235796   1.421   1.133   8.456 -1.3858 -0.1886  0.1725
 4746TIP3    H135797   1.476   1.113   8.380 -0.1818  2.3899  0.2434
 4746TIP3    H235798   1.349   1.071   8.450 -0.4448 -1.1965 -2.1032
 4747TIP3   OH235799   0.367   6.199   7.868 -0.3862 -0.2863 -0.2559
 4747TIP3    H135800   0.334   6.286   7.892  1.1055  0.1198  0.4130
 4747TIP3    H235801   0.385   6.156   7.952  0.0213 -0.7983 -0.5960
 4748TIP3   OH235802   6.111   2.037   1.098  0.2029 -0.7052  0.3567
 4748TIP3    H135803   6.119   1.998   1.185 -1.1710 -0.8589  0.4326
 4748TIP3    H235804   6.082   1.964   1.042  0.7225 -0.5211 -0.1741
 4749TIP3   OH235805   1.512   1.193   1.043  0.5135 -0.5226  0.4962
 4749TIP3    H135806   1.430   1.240   1.036  1.5013  1.0643 -1.3749
 4749TIP3    H235807   1.571   1.253   1.088  0.6437 -1.7394  2.0535
 4750TIP3   OH235808   6.208   4.373   7.479 -0.8187 -0.2023 -0.0546
 4750TIP3    H135809   6.255   4.386   7.397 -2.5182 -0.0719 -1.0418
 4750TIP3    H235810   6.117   4.397   7.459 -1.0214  1.2606  2.2396
 4751TIP3   OH235811   3.047   1.173   8.335 -0.2472  0.5228 -0.2592
 4751TIP3    H135812   3.139   1.152   8.350 -0.5391 -0.8539 -0.2774
 4751TIP3    H235813   3.004   1.153   8.419 -0.6637  0.3215 -0.5173
 4752TIP3   OH235814   2.981   4.791   7.608  0.3176 -0.4079 -0.0442
 4752TIP3    H135815   2.994   4.699   7.585  1.5218  0.0521 -1.3096
 4752TIP3    H235816   2.904   4.818   7.558 -0.8611 -1.0258  1.3370
 4753TIP3   OH235817   3.216   5.898   0.344  0.0938  0.1153  0.1847
 4753TIP3    H135818   3.171   5.968   0.298  0.0668  0.5689  0.8769
 4753TIP3    H235819   3.266   5.943   0.413  1.5687 -0.3745 -0.5305
 4754TIP3   OH235820   4.856   5.778   2.522  0.1658  0.1788 -0.0037
 4754TIP3    H135821   4.929   5.736   2.476  0.0509 -1.1874  0.9997
 4754TIP3    H235822   4.783   5.771   2.461  0.5184  0.2395 -0.4369
 4755TIP3   OH235823   5.933   4.994   1.020  0.2773 -0.4588  0.2354
 4755TIP3    H135824   5.879   4.935   1.073 -0.8370  0.8594  0.6274
 4755TIP3    H235825   5.958   5.064   1.080  0.3247  0.2382 -0.5868
 4756TIP3   OH235826   2.721   6.608   1.017 -0.5563 -0.6007  0.1325
 4756TIP3    H135827   2.713   6.657   0.935 -0.0548 -0.3820  0.2071
 4756TIP3    H235828   2.696   6.518   0.994 -1.1797 -0.3803 -0.0756
 4757TIP3   OH235829   0.490   1.258   1.298  0.2422  0.8182 -0.1848
 4757TIP3    H135830   0.480   1.167   1.273 -0.1795  1.5656 -3.0506
 4757TIP3    H235831   0.494   1.256   1.394  0.9483 -2.2289 -0.1769
 4758TIP3   OH235832   2.160   5.759   0.978 -0.0560 -0.2867  0.3343
 4758TIP3    H135833   2.181   5.811   0.900  0.8213 -0.8748  0.1604
 4758TIP3    H235834   2.175   5.818   1.052  0.9569 -0.2871  0.1420
 4759TIP3   OH235835   0.431   0.060   1.955  0.5199  0.4311  0.1806
 4759TIP3    H135836   0.357   0.110   1.989 -0.4258 -1.1267  0.5124
 4759TIP3    H235837   0.433   0.080   1.861  0.6686  1.6757  0.4337
 4760TIP3   OH235838   2.854   1.166   0.524  0.0963 -0.5388 -0.2036
 4760TIP3    H135839   2.938   1.211   0.535  0.4730 -1.4627  0.8737
 4760TIP3    H235840   2.803   1.189   0.602 -0.4545 -0.4169 -0.5914
 4761TIP3   OH235841   2.628   3.642   7.067  0.1138 -0.3519 -0.4051
 4761TIP3    H135842   2.630   3.583   6.992  1.2606  0.4430 -1.0165
 4761TIP3    H235843   2.653   3.587   7.141 -0.2282 -0.9497 -0.7245
 4762TIP3   OH235844   5.355   6.364   1.163 -0.7049 -1.1810 -0.4539
 4762TIP3    H135845   5.392   6.395   1.245 -1.0656 -1.3635 -0.2181
 4762TIP3    H235846   5.429   6.361   1.103 -0.5104 -0.6869 -0.2422
 4763TIP3   OH235847   4.373   3.340   1.262  0.0329  0.5749 -0.1684
 4763TIP3    H135848   4.304   3.362   1.324 -0.9421 -0.5766 -0.7871
 4763TIP3    H235849   4.454   3.341   1.313 -0.9231 -1.9554  1.5442
 4764TIP3   OH235850   6.360   3.621   0.626  0.2287 -0.0700  0.3066
 4764TIP3    H135851   6.336   3.702   0.581 -1.0657  0.3809  1.7603
 4764TIP3    H235852   6.312   3.552   0.579 -0.9718  0.3745  0.8558
 4765TIP3   OH235853   1.702   2.443   7.813 -0.0512 -0.2742 -0.2352
 4765TIP3    H135854   1.691   2.398   7.729 -2.2247  1.1060 -0.7673
 4765TIP3    H235855   1.648   2.392   7.874 -0.0682 -0.1399 -0.1383
 4766TIP3   OH235856   1.512   3.747   7.723  0.3418 -0.4723  0.5647
 4766TIP3    H135857   1.500   3.654   7.739  1.3911 -0.3772  2.1698
 4766TIP3    H235858   1.454   3.767   7.650  0.8641 -2.5721 -0.4979
 4767TIP3   OH235859   4.146   0.590   8.205 -0.1948  0.4544 -0.0511
 4767TIP3    H135860   4.085   0.517   8.196 -1.3927  1.4952 -0.7226
 4767TIP3    H235861   4.103   0.651   8.264 -0.7896  2.1303 -2.0861
 4768TIP3   OH235862   3.444   3.496   8.446 -0.2433  0.1541  0.2492
 4768TIP3    H135863   3.463   3.589   8.447 -1.2536  0.4131 -1.5375
 4768TIP3    H235864   3.495   3.462   8.372 -1.0130 -0.4308 -0.0250
 4769TIP3   OH235865   5.842   1.336   1.944  0.1789  0.2071  0.0725
 4769TIP3    H135866   5.878   1.377   1.865  0.6396 -0.0060  0.1692
 4769TIP3    H235867   5.748   1.353   1.938  0.1287 -0.2796 -0.8148
 4770TIP3   OH235868   6.685   4.927   0.285 -0.3803  0.4157  0.5454
 4770TIP3    H135869   6.644   4.853   0.239 -0.1906  0.6395  0.0064
 4770TIP3    H235870   6.712   4.891   0.369  1.3321 -0.6179 -0.3817
 4771TIP3   OH235871   3.284   4.959   0.249  0.2107  0.4566 -0.0480
 4771TIP3    H135872   3.371   4.935   0.281  1.4353 -0.7647 -3.7354
 4771TIP3    H235873   3.246   4.876   0.220 -0.1262  1.5196 -2.9148
 4772TIP3   OH235874   1.989   5.534   6.782  0.5387 -0.1526 -0.5935
 4772TIP3    H135875   2.027   5.530   6.869  0.4465 -0.7129 -0.5703
 4772TIP3    H235876   1.896   5.551   6.797  0.8718  1.9947 -0.6795
 4773TIP3   OH235877   3.736   0.264   6.978  0.7509  0.5374 -0.1231
 4773TIP3    H135878   3.658   0.213   6.957  1.2696 -0.2183 -0.2686
 4773TIP3    H235879   3.706   0.355   6.978 -0.4970  0.1784  1.4400
 4774TIP3   OH235880   1.754   0.365   7.021  0.1353 -0.8429 -0.6235
 4774TIP3    H135881   1.811   0.435   7.054 -1.2656  0.5796 -1.0883
 4774TIP3    H235882   1.687   0.411   6.971 -1.4425 -2.4672 -0.0853
 4775TIP3   OH235883   1.034   1.492   0.047 -0.4860  0.3909 -1.1456
 4775TIP3    H135884   1.011   1.495  -0.046 -0.3651 -0.4690 -1.2103
 4775TIP3    H235885   1.119   1.447   0.048 -0.1253  1.0641 -0.6779
 4776TIP3   OH235886   4.451   6.811   1.751 -0.0075  0.3882 -0.2877
 4776TIP3    H135887   4.383   6.832   1.815  1.0895 -0.0192  1.0556
 4776TIP3    H235888   4.515   6.759   1.800  0.7048 -0.2233 -1.8092
 4777TIP3   OH235889   3.444   2.388   1.984 -0.1718 -0.5534 -0.0229
 4777TIP3    H135890   3.466   2.440   2.061 -0.1383  0.3068 -0.5944
 4777TIP3    H235891   3.442   2.298   2.015  1.7511 -0.4218  0.5572
 4778TIP3   OH235892   0.866   2.955   7.229 -0.0181  0.4353 -0.3234
 4778TIP3    H135893   0.839   2.982   7.141 -1.9627 -1.9185 -0.5408
 4778TIP3    H235894   0.836   3.027   7.285 -0.2355  1.2160 -1.3997
 4779TIP3   OH235895   2.371   6.126   1.827  0.1593  0.4335  0.3885
 4779TIP3    H135896   2.332   6.165   1.905 -1.1599  1.0092 -0.5204
 4779TIP3    H235897   2.420   6.197   1.786 -0.2009  0.4782  0.0298
 4780TIP3   OH235898   2.065   1.963   7.762 -0.7016  0.0970 -0.7921
 4780TIP3    H135899   2.020   1.882   7.783  0.9334 -0.4511  0.9302
 4780TIP3    H235900   2.082   1.958   7.668  1.3315 -2.7163 -0.4048
 4781TIP3   OH235901   4.440   3.131   1.013  0.1437  0.1593 -0.3878
 4781TIP3    H135902   4.517   3.082   0.985  0.4411  0.7258 -0.5762
 4781TIP3    H235903   4.473   3.218   1.034 -0.5294  0.5821 -1.0364
 4782TIP3   OH235904   6.733   4.587   7.062 -0.6141  0.6091 -0.3253
 4782TIP3    H135905   6.786   4.536   7.001 -1.3978  0.6338 -1.0400
 4782TIP3    H235906   6.668   4.632   7.007  1.3505  4.1640 -0.0367
 4783TIP3   OH235907   3.962   5.182   1.288 -0.0467 -0.1533 -0.3204
 4783TIP3    H135908   4.022   5.248   1.321 -0.3867  0.6581 -1.2830
 4783TIP3    H235909   3.926   5.220   1.208 -0.7207 -1.2449 -0.5560
 4784TIP3   OH235910   0.176   3.485   8.380  0.2597 -0.1347 -0.2812
 4784TIP3    H135911   0.223   3.416   8.427  0.8968  0.0349 -0.6547
 4784TIP3    H235912   0.213   3.484   8.292 -0.7513 -0.2832 -0.7148
 4785TIP3   OH235913   5.309   6.799   0.814  0.0658  0.1827  0.2546
 4785TIP3    H135914   5.242   6.867   0.824  0.5942  1.1495 -2.0672
 4785TIP3    H235915   5.259   6.719   0.799 -0.5576  0.1898  2.0534
 4786TIP3   OH235916   3.274   6.774   8.060 -0.5936 -0.7452  0.3953
 4786TIP3    H135917   3.242   6.853   8.016 -1.9782 -0.3668  1.9360
 4786TIP3    H235918   3.363   6.796   8.088 -0.4481 -0.2610 -0.4211
 4787TIP3   OH235919   0.655   6.705   8.083 -0.6817 -0.2660 -0.6887
 4787TIP3    H135920   0.656   6.794   8.049 -1.9019 -1.0960 -3.1336
 4787TIP3    H235921   0.562   6.681   8.083 -0.3402 -1.6679 -0.3980
 4788TIP3   OH235922   1.449   2.987   7.263 -0.0262  0.0742  0.0355
 4788TIP3    H135923   1.359   2.977   7.233  0.1452  1.0612 -0.8609
 4788TIP3    H235924   1.491   3.042   7.197  1.2215 -0.3086  0.4756
 4789TIP3   OH235925   4.433   6.378   0.211 -0.3277  0.0108 -1.1009
 4789TIP3    H135926   4.407   6.465   0.242 -1.2013 -0.3000 -0.9303
 4789TIP3    H235927   4.357   6.322   0.230 -0.3402 -0.4886 -2.5094
 4790TIP3   OH235928   1.748   2.867   0.353 -0.1008  0.1681  0.6856
 4790TIP3    H135929   1.687   2.938   0.376 -1.6160 -0.9781  0.3490
 4790TIP3    H235930   1.722   2.841   0.264  1.8828  0.6436 -0.0731
 4791TIP3   OH235931   2.026   4.103   0.985 -0.2706  0.6400 -0.3565
 4791TIP3    H135932   2.076   4.080   0.907  0.3681  0.9882 -0.0572
 4791TIP3    H235933   1.935   4.099   0.957 -0.1991 -1.7477 -0.4700
 4792TIP3   OH235934   3.785   1.987   7.898 -0.6921  0.0686 -0.5759
 4792TIP3    H135935   3.816   2.004   7.809 -1.3841 -0.7634 -0.9870
 4792TIP3    H235936   3.729   1.910   7.890  1.7049 -2.0074  1.0714
 4793TIP3   OH235937   2.959   6.495   0.109  0.0990  0.4162  0.2515
 4793TIP3    H135938   3.011   6.439   0.050 -2.4667 -1.8288 -0.0736
 4793TIP3    H235939   2.991   6.473   0.197  2.1182  1.8018 -0.0746
 4794TIP3   OH235940   6.353   0.564   0.508 -0.2009  0.1503 -0.1013
 4794TIP3    H135941   6.258   0.547   0.507 -0.0207 -0.9088 -0.1070
 4794TIP3    H235942   6.383   0.537   0.421  0.5926 -2.6522  0.9237
 4795TIP3   OH235943   0.219   6.253   0.901  0.1612  0.0062  0.4150
 4795TIP3    H135944   0.249   6.162   0.898 -1.2543 -0.4904  0.2443
 4795TIP3    H235945   0.269   6.297   0.833  1.2990 -0.4995  0.9025
 4796TIP3   OH235946   4.423   0.517   2.134 -0.1463 -0.6069 -0.1467
 4796TIP3    H135947   4.454   0.434   2.098 -1.5653 -1.5843  0.7714
 4796TIP3    H235948   4.346   0.539   2.082  0.0836  0.0155 -0.2312
 4797TIP3   OH235949   2.034   2.345   8.386  0.2756  0.0115  0.0520
 4797TIP3    H135950   1.957   2.368   8.438  1.4682  1.9428  1.1131
 4797TIP3    H235951   2.106   2.345   8.448  1.1186 -2.1452 -0.8399
 4798TIP3   OH235952   3.149   6.496   2.039 -0.3215 -0.0264 -0.2919
 4798TIP3    H135953   3.170   6.480   2.131  0.0347 -1.5421 -0.6185
 4798TIP3    H235954   3.074   6.555   2.042  0.2567  0.6850  0.9510
 4799TIP3   OH235955   6.681   3.030   7.638  0.7312 -0.0509 -0.2910
 4799TIP3    H135956   6.643   3.014   7.725 -0.6861 -0.7867 -1.0006
 4799TIP3    H235957   6.649   3.117   7.614 -1.4914 -1.0450 -1.2924
 4800TIP3   OH235958   1.516   4.468   1.800  0.7173 -0.3092 -0.1032
 4800TIP3    H135959   1.487   4.405   1.866  0.9721 -1.5786 -1.1632
 4800TIP3    H235960   1.569   4.531   1.848  0.6500 -1.0432  0.9524
 4801TIP3   OH235961   5.956   0.617   2.175 -0.2993 -0.2416 -0.0478
 4801TIP3    H135962   5.901   0.690   2.147 -0.6011 -0.8447 -1.0814
 4801TIP3    H235963   5.900   0.563   2.230 -0.3698 -0.2010 -0.0802
 4802TIP3   OH235964   1.555   0.066   8.129  0.1411  0.2731 -0.2741
 4802TIP3    H135965   1.575   0.143   8.183 -0.5989  1.5090 -1.6812
 4802TIP3    H235966   1.475   0.090   8.082  1.0538 -0.4823 -2.3377
 4803TIP3   OH235967   2.859   4.745   0.614  0.0046  0.1587  0.1638
 4803TIP3    H135968   2.940   4.747   0.664  0.5584 -1.0837 -0.6321
 4803TIP3    H235969   2.817   4.663   0.639 -0.0307 -0.1626 -0.8844
 4804TIP3   OH235970   6.122   0.782   8.399 -0.0756  0.1092  0.0271
 4804TIP3    H135971   6.035   0.811   8.373 -1.5151 -2.1603  1.8646
 4804TIP3    H235972   6.111   0.690   8.423  2.9955 -0.4732 -0.3040
 4805TIP3   OH235973   0.801   6.211   6.817  0.0912  0.3136 -0.0836
 4805TIP3    H135974   0.796   6.295   6.862  1.9371  0.9074 -0.8901
 4805TIP3    H235975   0.805   6.146   6.887 -0.4052  0.9586  0.5553
 4806TIP3   OH235976   3.541   4.823   1.217 -0.1271 -0.1952 -0.0130
 4806TIP3    H135977   3.468   4.849   1.273 -0.5737 -0.1955 -0.5795
 4806TIP3    H235978   3.500   4.778   1.143  0.5936 -2.3249  0.7970
 4807TIP3   OH235979   0.931   1.501   8.458  0.1234 -0.2235  0.0599
 4807TIP3    H135980   0.899   1.444   8.389  1.7128 -1.8885  0.6285
 4807TIP3    H235981   1.000   1.553   8.417  0.4736 -0.5970  0.1686
 4808TIP3   OH235982   3.145   1.773   0.206 -0.4026  0.5357  0.3504
 4808TIP3    H135983   3.225   1.825   0.215 -0.6804  1.1364 -0.4944
 4808TIP3    H235984   3.089   1.825   0.148 -0.0322 -1.4252 -1.9453
 4809TIP3   OH235985   1.281   2.796   0.291  0.1984 -0.3120 -0.7309
 4809TIP3    H135986   1.335   2.846   0.352  1.4715 -1.8284 -0.5494
 4809TIP3    H235987   1.297   2.836   0.206  0.7828 -0.0745 -0.5146
 4810TIP3   OH235988   1.928   5.607   0.882 -0.2982 -0.7454 -0.2143
 4810TIP3    H135989   1.975   5.623   0.963 -0.6104  2.8489 -0.6030
 4810TIP3    H235990   1.996   5.603   0.815 -0.2510  0.5516 -0.2704
 4811TIP3   OH235991   5.283   1.240   1.419 -0.1282  0.3039  0.2728
 4811TIP3    H135992   5.296   1.253   1.513  0.5648 -1.9355  0.5525
 4811TIP3    H235993   5.195   1.202   1.413  0.1503 -0.3234  0.1137
 4812TIP3   OH235994   0.823   0.446   1.666 -0.7471  0.1203  0.2182
 4812TIP3    H135995   0.878   0.486   1.598  0.4085 -2.1727 -0.3052
 4812TIP3    H235996   0.846   0.494   1.745  4.1917 -2.2180  0.6215
 4813TIP3   OH235997   2.664   3.033   8.138 -0.2581 -0.2401 -0.3205
 4813TIP3    H135998   2.711   2.981   8.074 -1.8977 -1.3661 -0.6542
 4813TIP3    H235999   2.606   2.971   8.182 -0.0166  0.7267  1.4505
 4814TIP3   OH236000   4.401   4.624   1.927  0.1689  0.6995 -0.1998
 4814TIP3    H136001   4.319   4.615   1.879  1.3301  2.0728 -2.5773
 4814TIP3    H236002   4.404   4.716   1.953  0.7416  0.5437  0.3082
 4815TIP3   OH236003   5.476   6.344   1.621  0.1999 -0.0749  0.1453
 4815TIP3    H136004   5.455   6.435   1.644 -0.5272 -0.7609  2.4367
 4815TIP3    H236005   5.548   6.352   1.558 -2.2047  2.1714 -2.6944
 4816TIP3   OH236006   1.502   6.648   1.034 -0.1825  0.5637  0.2774
 4816TIP3    H136007   1.571   6.701   1.074 -0.7121  0.7860  0.9192
 4816TIP3    H236008   1.423   6.671   1.083 -0.3686 -1.0526  0.8160
 4817TIP3   OH236009   0.994   0.685   8.512 -0.1130  0.0443  0.5973
 4817TIP3    H136010   1.052   0.690   8.588  0.2923  0.8139  0.2417
 4817TIP3    H236011   0.944   0.604   8.526  1.0506 -0.6517  0.8956
 4818TIP3   OH236012   6.794   3.934   1.294  0.3741  0.1406 -0.0992
 4818TIP3    H136013   6.755   3.966   1.376  1.0043  2.5880 -0.6795
 4818TIP3    H236014   6.730   3.956   1.227  0.4218 -0.7069 -0.4277
 4819TIP3   OH236015   1.462   0.802   8.165 -0.0266  0.7048 -0.0993
 4819TIP3    H136016   1.396   0.746   8.123 -1.5876  1.7639  0.8155
 4819TIP3    H236017   1.451   0.786   8.258  0.1022  1.8505  0.1274
 4820TIP3   OH236018   0.546   1.606   1.026  0.1547  0.2619 -0.1280
 4820TIP3    H136019   0.523   1.673   1.090 -0.2380  2.0752 -2.0566
 4820TIP3    H236020   0.566   1.655   0.946  2.1579 -1.7887 -0.9963
 4821TIP3   OH236021   4.645   1.856   8.536 -0.5935  0.3985  0.4822
 4821TIP3    H136022   4.563   1.870   8.489 -1.0776  1.8827  1.7090
 4821TIP3    H236023   4.702   1.811   8.472 -2.3696 -0.8053 -0.3430
 4822TIP3   OH236024   0.080   3.808   0.996 -0.2136  0.1518  0.0023
 4822TIP3    H136025   0.128   3.831   1.076  2.2796 -1.0724 -1.0300
 4822TIP3    H236026   0.061   3.715   1.005  0.6388 -0.1473 -1.0410
 4823TIP3   OH236027   3.132   4.796   8.353  0.2523  0.7524  0.1609
 4823TIP3    H136028   3.051   4.848   8.348  0.0185  0.3824  0.0048
 4823TIP3    H236029   3.123   4.733   8.281  0.0896 -0.1167  0.9339
 4824TIP3   OH236030   4.930   6.240   0.655 -0.0020  0.4076  0.2047
 4824TIP3    H136031   4.958   6.246   0.746  1.1538 -0.5796 -0.0601
 4824TIP3    H236032   5.005   6.274   0.605 -0.0658 -0.3494 -0.4286
 4825TIP3   OH236033   5.433   0.086   8.169 -0.2451 -0.1913  0.8728
 4825TIP3    H136034   5.472   0.114   8.252  0.6993 -1.0831  0.7452
 4825TIP3    H236035   5.352   0.041   8.194 -0.1555 -0.1302  1.2791
 4826TIP3   OH236036   6.666   4.862   7.854 -0.5278  0.6090  0.3622
 4826TIP3    H136037   6.601   4.886   7.788  0.0769 -1.6375 -1.1443
 4826TIP3    H236038   6.703   4.945   7.883 -3.1540  1.8750  0.3632
 4827TIP3   OH236039   2.212   5.599   8.326 -0.2762  0.5344 -0.0997
 4827TIP3    H136040   2.151   5.671   8.344 -1.7297 -0.6628 -0.0014
 4827TIP3    H236041   2.289   5.620   8.378 -1.1568  1.3998  0.9207
 4828TIP3   OH236042   0.795   1.178   1.086 -0.1392 -0.5630 -0.0104
 4828TIP3    H136043   0.718   1.232   1.068  0.6652 -0.0719 -2.3344
 4828TIP3    H236044   0.857   1.237   1.129  0.1293 -0.0474 -1.0776
 4829TIP3   OH236045   4.350   5.792   1.376 -0.2614 -0.2574 -0.2251
 4829TIP3    H136046   4.431   5.743   1.362 -0.5552 -0.8432  0.1122
 4829TIP3    H236047   4.298   5.737   1.435 -0.3186  0.7762  0.6980
 4830TIP3   OH236048   1.504   6.678   7.999 -0.0799  0.0435 -0.2739
 4830TIP3    H136049   1.470   6.767   7.987  3.8990  1.6275 -1.0672
 4830TIP3    H236050   1.558   6.683   8.078 -0.5615 -2.0121  0.2529
 4831TIP3   OH236051   0.618   0.416   7.500  0.3224  0.0463 -0.0779
 4831TIP3    H136052   0.676   0.420   7.424 -0.3772  0.8910 -0.5897
 4831TIP3    H236053   0.642   0.492   7.553 -0.1935  0.2924 -0.1961
 4832TIP3   OH236054   3.722   5.965   0.929 -0.0588  0.5603 -0.1379
 4832TIP3    H136055   3.726   5.885   0.877  2.2371  1.2742 -1.2002
 4832TIP3    H236056   3.803   5.965   0.980 -1.1920  1.0262  1.7632
 4833TIP3   OH236057   2.161   5.162   7.847  0.1133  0.2106 -0.0758
 4833TIP3    H136058   2.223   5.091   7.861  0.5265  0.5408 -0.1897
 4833TIP3    H236059   2.157   5.171   7.752 -2.9052 -2.2235 -0.3143
 4834TIP3   OH236060   5.084   4.187   0.369 -0.2937  0.2338 -0.6983
 4834TIP3    H136061   5.158   4.148   0.415 -0.2088 -0.4111 -1.3608
 4834TIP3    H236062   5.113   4.195   0.278 -0.5684  1.1976 -0.7112
 4835TIP3   OH236063   1.426   4.540   0.973  0.2381  0.4736  0.4488
 4835TIP3    H136064   1.332   4.550   0.957 -0.5578 -0.8549  3.4258
 4835TIP3    H236065   1.449   4.614   1.029  1.2420  1.3157 -1.0244
 4836TIP3   OH236066   0.433   2.743   7.753 -0.1093 -0.4150  0.0164
 4836TIP3    H136067   0.449   2.762   7.661 -1.3222 -1.6863 -0.4861
 4836TIP3    H236068   0.389   2.822   7.786  1.4980  0.5753 -0.1223
 4837TIP3   OH236069   2.719   3.617   8.012  0.3471  0.4551  0.1137
 4837TIP3    H136070   2.720   3.522   7.999  0.4139  0.6408 -1.4130
 4837TIP3    H236071   2.626   3.639   8.022  0.2018  0.3765 -0.9264
 4838TIP3   OH236072   2.455   3.113   1.794 -0.2109  0.2265  0.2845
 4838TIP3    H136073   2.484   3.060   1.868  1.3193 -0.1691 -0.5547
 4838TIP3    H236074   2.501   3.196   1.806  1.6745 -0.5217 -1.2437
 4839TIP3   OH236075   5.272   6.470   0.076 -0.0146  0.1491  0.0336
 4839TIP3    H136076   5.314   6.552   0.104  0.0492  0.5448 -1.1659
 4839TIP3    H236077   5.262   6.479  -0.019 -0.9194 -0.8206  0.0128
 4840TIP3   OH236078   2.373   0.311   8.210 -0.1051  0.2454  0.0902
 4840TIP3    H136079   2.388   0.369   8.285  0.4728 -2.3042  2.1335
 4840TIP3    H236080   2.461   0.296   8.173 -0.0594 -0.2783  0.3921
 4841TIP3   OH236081   0.444   3.830   8.480 -0.7176 -0.1276 -0.6552
 4841TIP3    H136082   0.431   3.924   8.475 -0.1601 -0.0418 -0.4766
 4841TIP3    H236083   0.444   3.810   8.573  0.6938 -0.0884 -0.6386
 4842TIP3   OH236084   4.669   3.595   6.738  0.1254 -0.1256  0.4731
 4842TIP3    H136085   4.710   3.677   6.709 -2.4374  0.8921 -0.5309
 4842TIP3    H236086   4.666   3.541   6.659  0.6487 -0.7049  0.8413
 4843TIP3   OH236087   0.402   6.487   2.135 -0.6499 -0.2916 -0.2082
 4843TIP3    H136088   0.376   6.429   2.063 -1.2076 -0.4565  0.1233
 4843TIP3    H236089   0.438   6.429   2.202  1.3630 -0.0049 -0.9691
 4844TIP3   OH236090   0.132   4.702   2.124  0.2163 -0.6953 -0.0952
 4844TIP3    H136091   0.200   4.740   2.180 -0.1623 -1.0211  0.5896
 4844TIP3    H236092   0.123   4.612   2.154 -1.8567 -0.1593  1.1565
 4845TIP3   OH236093   3.880   0.991   2.091  0.0634 -0.3514 -0.6921
 4845TIP3    H136094   3.954   0.946   2.052  2.1832  0.3561  2.1231
 4845TIP3    H236095   3.838   0.925   2.146  0.7387  0.0056  0.3078
 4846TIP3   OH236096   2.590   5.538   1.398 -0.1618  0.2496  0.1473
 4846TIP3    H136097   2.580   5.539   1.493  1.6234 -1.6702  0.4305
 4846TIP3    H236098   2.630   5.453   1.379  0.5371  1.0197 -2.2205
 4847TIP3   OH236099   2.010   4.451   0.382  0.0315  0.1723  0.3290
 4847TIP3    H136100   1.986   4.358   0.391 -0.4555  0.2655  0.0260
 4847TIP3    H236101   1.927   4.496   0.367  0.0232  0.9110  2.2700
 4848TIP3   OH236102   3.132   5.516   7.363 -0.7058  0.4346 -0.0242
 4848TIP3    H136103   3.048   5.553   7.389 -1.7217 -1.3586 -0.6825
 4848TIP3    H236104   3.139   5.535   7.270 -0.2308  0.7957  0.0758
 4849TIP3   OH236105   5.151   0.409   8.623  0.9868  0.3759  0.4069
 4849TIP3    H136106   5.133   0.367   8.539  0.9806  0.5824  0.3055
 4849TIP3    H236107   5.107   0.353   8.687  0.6179  0.4627  0.2302
 4850TIP3   OH236108   1.328   6.785   1.190 -0.5805  0.3033 -1.0658
 4850TIP3    H136109   1.395   6.842   1.228 -2.1897  0.2449  2.1944
 4850TIP3    H236110   1.273   6.760   1.264 -3.5598 -0.5788 -3.3882
 4851TIP3   OH236111   0.973   4.890   7.747  0.5176 -0.6622 -0.1605
 4851TIP3    H136112   0.939   4.976   7.775 -1.0272 -1.1142 -0.5325
 4851TIP3    H236113   1.047   4.874   7.805  1.0405  1.0594 -0.2798
 4852TIP3   OH236114   1.788   2.482   0.873  0.2892 -0.3694 -0.0723
 4852TIP3    H136115   1.754   2.523   0.794 -0.2537  1.1445  0.8957
 4852TIP3    H236116   1.821   2.397   0.844  0.6559  0.3842 -2.0150
 4853TIP3   OH236117   3.479   0.067   0.163 -0.3739  0.0096  0.0902
 4853TIP3    H136118   3.450   0.003   0.098 -2.2386  0.0433  0.8252
 4853TIP3    H236119   3.502   0.015   0.239 -0.0249  0.0927  0.0425
 4854TIP3   OH236120   6.595   4.223   7.450  0.0169 -0.3853 -0.5081
 4854TIP3    H136121   6.676   4.265   7.479 -0.0944 -0.6611  0.2199
 4854TIP3    H236122   6.551   4.290   7.397  0.2295  0.1293 -0.0448
 4855TIP3   OH236123   3.453   6.755   6.413 -0.3580  0.0337 -0.2766
 4855TIP3    H136124   3.422   6.712   6.492 -0.7922 -1.2896 -1.1442
 4855TIP3    H236125   3.375   6.763   6.357  0.4038 -1.4339 -1.6259
 4856TIP3   OH236126   5.422   0.410   8.415 -0.3951  0.8848  0.6617
 4856TIP3    H136127   5.415   0.434   8.508 -0.9842  0.7688  0.6500
 4856TIP3    H236128   5.386   0.485   8.368 -1.4488  0.3506  0.5896
 4857TIP3   OH236129   5.899   0.726   0.440  0.3857  0.0821  0.3771
 4857TIP3    H136130   5.888   0.779   0.519 -0.3945 -1.2778  1.2358
 4857TIP3    H236131   5.811   0.720   0.403  0.2443 -1.4018  0.8729
 4858TIP3   OH236132   1.440   3.361   1.424 -0.1122  0.1518  0.0403
 4858TIP3    H136133   1.499   3.289   1.401  0.4705  0.2267  1.2509
 4858TIP3    H236134   1.495   3.425   1.469 -0.3021  2.0389 -2.1728
 4859TIP3   OH236135   3.797   6.316   6.874  0.0342 -0.2497 -0.6650
 4859TIP3    H136136   3.843   6.290   6.795 -0.5753  3.0012 -2.2515
 4859TIP3    H236137   3.844   6.394   6.905 -1.0703 -0.1506  0.9051
 4860TIP3   OH236138   5.172   3.242   0.690 -0.2959 -0.1650  0.5665
 4860TIP3    H136139   5.130   3.243   0.776 -1.1769 -0.5623  0.1496
 4860TIP3    H236140   5.111   3.285   0.632 -0.3129 -1.0779 -0.1252
 4861TIP3   OH236141   5.785   2.488   1.212 -0.1174 -0.6364 -0.5915
 4861TIP3    H136142   5.826   2.566   1.173 -0.2927 -0.1566  0.1567
 4861TIP3    H236143   5.851   2.456   1.274  0.2045 -1.4566 -1.3415
 4862TIP3   OH236144   5.704   0.859   7.218  0.6437 -0.0346 -0.0204
 4862TIP3    H136145   5.704   0.777   7.269  0.1100  0.3405  0.6010
 4862TIP3    H236146   5.689   0.927   7.284  1.7979  0.6372 -0.4289
 4863TIP3   OH236147   2.591   2.832   0.487  0.5055  0.1272 -0.6484
 4863TIP3    H136148   2.548   2.819   0.403  0.9728 -2.1617 -0.6006
 4863TIP3    H236149   2.547   2.771   0.547  2.2250 -0.5902 -0.0400
 4864TIP3   OH236150   6.022   5.738   8.251  0.6285  0.1530 -0.4144
 4864TIP3    H136151   6.031   5.644   8.268  2.8553  0.4013  0.0273
 4864TIP3    H236152   6.106   5.764   8.212 -0.5022  1.6847 -2.0024
 4865TIP3   OH236153   1.219   2.683   2.128 -0.2673  0.1083 -0.2981
 4865TIP3    H136154   1.233   2.699   2.035  0.3705  0.0510 -0.2115
 4865TIP3    H236155   1.272   2.607   2.149 -1.2204 -0.5221 -0.1081
 4866TIP3   OH236156   0.078   0.382   8.318  0.7565  1.0880 -0.5525
 4866TIP3    H136157   0.152   0.346   8.268 -0.1219 -0.2472 -0.9352
 4866TIP3    H236158   0.112   0.464   8.354  2.6010  0.2607 -0.2707
 4867TIP3   OH236159   4.844   0.673   0.139 -0.8945  0.0581 -0.0691
 4867TIP3    H136160   4.878   0.706   0.056  2.0013 -2.1605  0.0603
 4867TIP3    H236161   4.793   0.595   0.115 -0.8733 -0.0264  0.1591
 4868TIP3   OH236162   1.752   6.780   0.396  0.0981  0.3550  0.1591
 4868TIP3    H136163   1.662   6.757   0.421  0.2386  0.0232  0.3769
 4868TIP3    H236164   1.784   6.832   0.469 -1.0900  3.6518 -1.4419
 4869TIP3   OH236165   5.046   5.878   1.941 -0.3127 -0.6092 -0.6488
 4869TIP3    H136166   4.956   5.908   1.956  0.2659  0.5841  0.7493
 4869TIP3    H236167   5.075   5.845   2.026  1.2234  0.9515 -0.4863
 4870TIP3   OH236168   3.999   0.064   8.436  0.2266 -0.1985  0.1285
 4870TIP3    H136169   4.039   0.039   8.352 -0.6179 -0.4085 -0.2205
 4870TIP3    H236170   4.074   0.083   8.493  0.8182  1.2488 -1.0476
 4871TIP3   OH236171   4.235   2.671   7.652  0.1024 -0.2945  0.2720
 4871TIP3    H136172   4.234   2.740   7.586  0.9631  0.3116  0.8705
 4871TIP3    H236173   4.271   2.595   7.607  1.3291  0.3053  0.2081
 4872TIP3   OH236174   0.046   3.251   7.772 -0.1601 -0.1904  0.0889
 4872TIP3    H136175   0.092   3.325   7.733 -3.0071  1.2442 -0.7999
 4872TIP3    H236176   0.059   3.180   7.709  0.7057  0.1958 -0.1843
 4873TIP3   OH236177   2.688   5.732   7.717 -0.0366  0.6584 -0.4650
 4873TIP3    H136178   2.606   5.694   7.686  0.3270  0.3432 -1.0567
 4873TIP3    H236179   2.710   5.798   7.652  0.0759  0.8873 -0.1994
 4874TIP3   OH236180   3.541   4.630   7.378  0.0863  0.0367  0.0889
 4874TIP3    H136181   3.547   4.560   7.313 -0.1349  0.9524 -0.9493
 4874TIP3    H236182   3.514   4.586   7.459  1.6196 -1.3266 -0.0751
 4875TIP3   OH236183   5.358   3.961   6.559 -0.1286  0.2589  0.1913
 4875TIP3    H136184   5.429   4.001   6.609  0.0495  1.0876 -0.6984
 4875TIP3    H236185   5.279   3.977   6.612  0.1076  0.8217  0.3814
 4876TIP3   OH236186   0.511   4.879   0.075  0.3052 -0.3506 -0.2729
 4876TIP3    H136187   0.419   4.886   0.050  0.5111  0.7778 -0.7864
 4876TIP3    H236188   0.557   4.940   0.017  1.0413  0.9747  1.5815
 4877TIP3   OH236189   3.294   2.792   0.864 -0.5166 -0.4554  0.0043
 4877TIP3    H136190   3.311   2.725   0.931 -0.6890 -2.2508 -1.6452
 4877TIP3    H236191   3.250   2.744   0.794 -0.8005  1.4621 -1.1864
 4878TIP3   OH236192   5.954   2.549   0.620  0.6998 -0.3799 -0.4097
 4878TIP3    H136193   5.971   2.580   0.532 -0.1403 -0.4447 -0.6018
 4878TIP3    H236194   5.890   2.479   0.609  0.6175 -0.4148  0.2468
 4879TIP3   OH236195   4.919   3.564   0.306  0.5700 -0.6519 -0.4457
 4879TIP3    H136196   4.843   3.508   0.287 -0.7320  0.9794 -0.3309
 4879TIP3    H236197   4.884   3.654   0.300  2.0621  0.1159  1.4448
 4880TIP3   OH236198   5.934   1.094   2.022 -0.0456 -0.2481 -0.1576
 4880TIP3    H136199   5.896   1.164   1.969 -1.4499 -2.4928 -2.3491
 4880TIP3    H236200   5.858   1.050   2.060  0.6430 -1.7006 -0.3966
 4881TIP3   OH236201   1.065   0.958   1.431 -0.5220 -0.0937 -0.0531
 4881TIP3    H136202   1.131   0.965   1.362 -0.3594 -0.8430  0.0107
 4881TIP3    H236203   1.030   1.046   1.441  1.3553  0.6273  0.7643
 4882TIP3   OH236204   2.693   5.279   8.087  0.2640 -0.6880  0.0974
 4882TIP3    H136205   2.728   5.366   8.070  0.0159 -0.3976  0.9996
 4882TIP3    H236206   2.736   5.222   8.023 -0.7198  0.3280 -1.5461
 4883TIP3   OH236207   5.690   4.916   6.938 -0.4580 -0.2159 -0.5916
 4883TIP3    H136208   5.748   4.918   6.861 -0.4750  0.4105 -0.5894
 4883TIP3    H236209   5.618   4.859   6.911 -1.0075  0.8440 -1.4444
 4884TIP3   OH236210   6.757   6.303   1.708 -0.7840 -0.0183 -0.5610
 4884TIP3    H136211   6.811   6.380   1.690  0.2942 -1.0312 -1.8261
 4884TIP3    H236212   6.817   6.229   1.702 -2.0847 -1.0901 -0.8607
 4885TIP3   OH236213   6.865   6.290   1.049  0.0920  0.3756 -0.0471
 4885TIP3    H136214   6.840   6.373   1.009 -0.4772  0.3126  0.1713
 4885TIP3    H236215   6.941   6.261   0.999 -1.2090 -0.2054 -1.7594
 4886TIP3   OH236216   2.955   0.350   1.618  0.2011  0.6455 -0.1016
 4886TIP3    H136217   2.988   0.389   1.537 -0.4720  1.1948 -0.1174
 4886TIP3    H236218   3.004   0.393   1.688  4.1375 -2.8795 -0.2233
 4887TIP3   OH236219   6.519   4.985   1.625  0.0902  0.1743 -0.0037
 4887TIP3    H136220   6.598   5.025   1.587  1.1194 -2.0591 -0.4525
 4887TIP3    H236221   6.549   4.950   1.709 -0.1719 -1.3036 -0.4877
 4888TIP3   OH236222   2.740   1.414   2.437 -0.1479  0.1867 -0.4422
 4888TIP3    H136223   2.748   1.462   2.519  0.0605  0.6743 -0.7469
 4888TIP3    H236224   2.791   1.465   2.374 -0.8990  0.2005 -1.0451
 4889TIP3   OH236225   1.282   1.446   7.773  0.1882 -0.3415  0.6957
 4889TIP3    H136226   1.205   1.417   7.724 -2.2313  1.5561  3.0345
 4889TIP3    H236227   1.256   1.440   7.865  2.3458  1.5920  1.5519
 4890TIP3   OH236228   0.564   0.462   2.446 -0.3171  0.4944 -0.0741
 4890TIP3    H136229   0.571   0.547   2.402  0.3519 -0.0604 -1.0555
 4890TIP3    H236230   0.586   0.481   2.537  2.9260  0.9048 -0.8095
 4891TIP3   OH236231   4.300   0.304   8.042  1.3283 -0.0477  1.0123
 4891TIP3    H136232   4.261   0.268   8.121 -0.7931  0.4211  0.2641
 4891TIP3    H236233   4.386   0.263   8.036  0.5675 -1.9610  2.2504
 4892TIP3   OH236234   4.444   5.654   0.193  0.4647 -0.0415  0.2104
 4892TIP3    H136235   4.539   5.658   0.205  0.4286  1.2993  0.1924
 4892TIP3    H236236   4.428   5.570   0.151  1.7884  0.3018 -1.0306
 4893TIP3   OH236237   1.031   6.691   8.105 -0.1457 -0.4395  0.3799
 4893TIP3    H136238   1.069   6.730   8.025 -0.5441 -1.1535 -0.1689
 4893TIP3    H236239   0.971   6.624   8.072  0.1220 -1.1394  1.3010
 4894TIP3   OH236240   5.098   3.157   2.729 -0.5376 -0.0986 -0.1369
 4894TIP3    H136241   5.181   3.204   2.738  1.1313 -2.5491 -1.4501
 4894TIP3    H236242   5.060   3.158   2.817  1.2139  0.5152  0.6616
 4895TIP3   OH236243   0.302   6.321   1.914 -0.5464 -0.2350 -0.3686
 4895TIP3    H136244   0.335   6.258   1.851  0.9408  0.9369 -0.8333
 4895TIP3    H236245   0.239   6.272   1.967 -0.3368 -1.7603 -1.4746
 4896TIP3   OH236246   6.309   5.714   1.252 -0.0648 -0.2108  0.1549
 4896TIP3    H136247   6.307   5.773   1.328  1.8983  1.3045 -0.8660
 4896TIP3    H236248   6.393   5.732   1.211 -0.4541 -2.0554 -1.5795
 4897TIP3   OH236249   2.087   3.774   1.811  0.2455 -0.0636 -0.2114
 4897TIP3    H136250   2.050   3.790   1.898 -0.1841  0.2291 -0.4422
 4897TIP3    H236251   2.024   3.718   1.767 -0.8980  1.9271 -1.2607
 4898TIP3   OH236252   1.577   6.762   1.317 -0.7583  0.1157  0.0462
 4898TIP3    H136253   1.553   6.853   1.329 -0.0034  0.4277 -0.6766
 4898TIP3    H236254   1.591   6.729   1.406 -1.4007  0.5899  0.3321
 4899TIP3   OH236255   6.469   6.732   0.875 -0.0551  0.0988  0.6618
 4899TIP3    H136256   6.514   6.720   0.958  0.7326 -0.4213  0.1668
 4899TIP3    H236257   6.530   6.700   0.809 -0.2055  1.5379 -0.2325
 4900TIP3   OH236258   1.106   5.626   7.613 -0.3270  0.4393 -0.0109
 4900TIP3    H136259   1.090   5.562   7.682 -0.2822  0.7590  0.3010
 4900TIP3    H236260   1.189   5.600   7.575 -0.6120 -0.0555 -0.3066
 4901TIP3   OH236261   3.819   4.247   2.694 -0.1724  0.4367 -0.2439
 4901TIP3    H136262   3.905   4.266   2.657 -0.8000  0.0126 -2.0597
 4901TIP3    H236263   3.819   4.152   2.707  0.2123  0.6375  1.3907
 4902TIP3   OH236264   1.469   5.524   1.554 -0.4222 -0.4099 -0.3769
 4902TIP3    H136265   1.464   5.474   1.635  1.9682  0.8506  0.6332
 4902TIP3    H236266   1.546   5.489   1.508 -0.8781 -0.1124 -1.4078
 4903TIP3   OH236267   4.900   3.342   1.287  0.3136  0.4895 -0.4339
 4903TIP3    H136268   4.849   3.413   1.326 -0.5924 -0.2102 -0.3183
 4903TIP3    H236269   4.935   3.380   1.206 -0.9369  0.7949 -0.8533
 4904TIP3   OH236270   5.948   6.812   0.386  0.0784  0.1696 -0.0694
 4904TIP3    H136271   5.916   6.750   0.320  0.6235  0.4082 -0.5719
 4904TIP3    H236272   6.032   6.776   0.414 -0.3212 -0.1192  0.7713
 4905TIP3   OH236273   0.104   1.293   8.194  0.3568  0.1972  0.3898
 4905TIP3    H136274   0.026   1.272   8.245 -1.0124 -0.0549 -1.6827
 4905TIP3    H236275   0.093   1.244   8.112  2.0121  1.2247 -0.4936
 4906TIP3   OH236276   1.808   2.508   0.582  0.0315  0.3805 -0.0051
 4906TIP3    H136277   1.896   2.472   0.568 -0.0379 -0.2973  1.1715
 4906TIP3    H236278   1.754   2.464   0.517 -0.4039 -3.1295  2.4319
 4907TIP3   OH236279   5.104   6.271   7.131 -0.1132 -0.2768 -0.3012
 4907TIP3    H136280   5.169   6.341   7.127  0.5675 -0.9317 -2.1791
 4907TIP3    H236281   5.025   6.310   7.095 -0.6467  0.3775  1.5195
 4908TIP3   OH236282   2.428   1.596   7.908  0.1705 -0.0042 -0.4068
 4908TIP3    H136283   2.398   1.532   7.973  1.5980  0.0952  0.3881
 4908TIP3    H236284   2.507   1.635   7.946 -1.0050  2.7559 -0.5705
 4909TIP3   OH236285   4.745   1.300   0.468  0.0881 -0.1751  0.1585
 4909TIP3    H136286   4.719   1.229   0.409 -3.1109  0.7546  0.2393
 4909TIP3    H236287   4.745   1.260   0.555  1.0443 -0.6623 -0.0477
 4910TIP3   OH236288   5.441   2.488   1.760 -0.2848  0.0274 -0.3472
 4910TIP3    H136289   5.525   2.447   1.781 -0.9950 -1.5273 -0.4238
 4910TIP3    H236290   5.410   2.522   1.844 -0.7510 -1.6832  0.2266
 4911TIP3   OH236291   0.709   0.815   7.269  0.2411 -0.1413 -0.1822
 4911TIP3    H136292   0.617   0.839   7.258  0.5251  0.5998 -1.0592
 4911TIP3    H236293   0.757   0.883   7.222  1.2966  0.0686  1.1429
 4912TIP3   OH236294   6.674   5.642   1.236  0.6307  0.2659  0.0122
 4912TIP3    H136295   6.697   5.649   1.143  0.9004  0.2813  0.0806
 4912TIP3    H236296   6.627   5.723   1.255 -2.4219 -1.1170 -0.9573
 4913TIP3   OH236297   0.934   4.331   8.525  0.5386  0.1419  0.0153
 4913TIP3    H136298   0.882   4.400   8.566 -0.5034 -0.3508 -0.4226
 4913TIP3    H236299   0.887   4.250   8.546 -0.1035 -0.1277 -2.2018
 4914TIP3   OH236300   4.148   6.281   7.390  0.8356  0.3261 -0.6346
 4914TIP3    H136301   4.223   6.334   7.361  1.1846 -0.7812 -1.8398
 4914TIP3    H236302   4.078   6.304   7.330 -0.4984  2.8101  1.6471
 4915TIP3   OH236303   6.527   2.234   8.389 -0.9102 -0.0239  0.1159
 4915TIP3    H136304   6.619   2.234   8.362 -0.4915  0.7702  1.4179
 4915TIP3    H236305   6.526   2.180   8.468 -1.2490  1.1941  0.9805
 4916TIP3   OH236306   1.205   6.664   1.427 -0.4655 -0.0919 -0.1201
 4916TIP3    H136307   1.265   6.591   1.441  0.4727  0.7947  0.6378
 4916TIP3    H236308   1.204   6.710   1.511 -1.5323  0.4138 -0.3952
 4917TIP3   OH236309   6.041   2.306   7.439  0.3990  0.2796  0.0003
 4917TIP3    H136310   6.099   2.294   7.364  0.2787 -1.1321  0.1134
 4917TIP3    H236311   6.095   2.353   7.503  0.9619  0.2216 -0.4236
 4918TIP3   OH236312   1.581   5.125   0.588  0.2223 -0.5154  0.2008
 4918TIP3    H136313   1.544   5.042   0.560 -1.8457  0.7128 -0.9048
 4918TIP3    H236314   1.596   5.174   0.507  0.0691  0.7180  0.8910
 4919TIP3   OH236315   1.160   3.723   1.446 -0.2225 -0.2734  0.2039
 4919TIP3    H136316   1.187   3.706   1.356  0.2367 -0.6443  0.4029
 4919TIP3    H236317   1.239   3.759   1.488 -1.0004  1.8687 -0.0537
 4920TIP3   OH236318   4.542   2.229   6.823 -0.1924 -0.0029  0.0957
 4920TIP3    H136319   4.601   2.269   6.759  0.0390 -0.9197 -0.2642
 4920TIP3    H236320   4.577   2.258   6.908  0.7200 -0.4420 -0.1188
 4921TIP3   OH236321   1.297   2.722   1.549  0.1268 -0.2859  0.7247
 4921TIP3    H136322   1.201   2.727   1.552  0.1048 -0.0002 -0.2161
 4921TIP3    H236323   1.321   2.772   1.471  1.0075 -0.9105  0.5852
 4922TIP3   OH236324   5.825   2.077   8.406  0.4151  0.2558  0.1941
 4922TIP3    H136325   5.768   2.133   8.353  0.6501  1.0883  0.7966
 4922TIP3    H236326   5.887   2.138   8.447  1.6813 -0.6176 -0.3665
 4923TIP3   OH236327   5.060   2.785   0.264 -0.0686 -0.5177  0.2430
 4923TIP3    H136328   5.007   2.862   0.244 -0.5144 -0.6492  0.8997
 4923TIP3    H236329   5.150   2.815   0.250 -0.2830 -0.2080 -0.5935
 4924TIP3   OH236330   4.814   4.136   7.016  0.4324 -0.0306 -0.1986
 4924TIP3    H136331   4.877   4.075   7.054  0.5308 -0.2575 -0.7150
 4924TIP3    H236332   4.851   4.160   6.931 -0.0443  0.0299 -0.3971
 4925TIP3   OH236333   2.749   2.877   0.922 -0.3681  0.1474 -0.1291
 4925TIP3    H136334   2.784   2.845   1.005  1.6760  1.3335 -0.4740
 4925TIP3    H236335   2.796   2.829   0.855  0.4332  1.5167 -0.6005
 4926TIP3   OH236336   3.837   6.624   7.256  0.1495  0.5725  0.1187
 4926TIP3    H136337   3.933   6.625   7.258  0.1819  1.7931 -0.8191
 4926TIP3    H236338   3.813   6.708   7.217 -1.2846 -0.0599 -0.4330
 4927TIP3   OH236339   2.498   3.800   1.970  0.3956  0.3306 -0.1465
 4927TIP3    H136340   2.448   3.794   1.888  0.0081  2.1308 -0.0847
 4927TIP3    H236341   2.433   3.786   2.039  0.7770 -1.4998 -0.1012
 4928TIP3   OH236342   1.438   6.367   8.537 -0.7329  0.3147 -0.2535
 4928TIP3    H136343   1.413   6.300   8.600  0.4649 -0.4660 -0.5856
 4928TIP3    H236344   1.522   6.339   8.503 -0.0387  2.1480 -0.1849
 4929TIP3   OH236345   5.225   6.336   7.999  0.1762 -0.0633  0.2706
 4929TIP3    H136346   5.144   6.350   7.950 -0.3095  1.6131  1.4575
 4929TIP3    H236347   5.206   6.264   8.059  0.4424 -1.4171 -1.1995
 4930TIP3   OH236348   1.920   0.468   0.550  0.1673 -0.2400 -0.4868
 4930TIP3    H136349   1.838   0.509   0.522 -1.0911 -2.2365 -0.0016
 4930TIP3    H236350   1.950   0.520   0.624 -0.8946  0.2942 -0.4171
 4931TIP3   OH236351   3.145   0.980   1.308  0.3344  0.4514 -0.0483
 4931TIP3    H136352   3.110   0.985   1.397 -1.3139  0.9439 -0.6859
 4931TIP3    H236353   3.163   0.887   1.294 -1.8695 -0.0134 -0.0733
 4932TIP3   OH236354   2.566   0.863   7.244 -0.0974  0.2550 -0.3472
 4932TIP3    H136355   2.540   0.800   7.177  0.6393  1.0071 -1.3806
 4932TIP3    H236356   2.594   0.809   7.318  1.1711 -0.6836 -1.4514
 4933TIP3   OH236357   4.659   2.881   7.042  0.3213 -0.0934  0.3743
 4933TIP3    H136358   4.658   2.794   7.003  0.7746  0.2548 -0.4365
 4933TIP3    H236359   4.603   2.874   7.119  1.4083 -1.4453  1.0726
 4934TIP3   OH236360   4.206   3.844   1.551  0.5441 -0.6003 -0.2287
 4934TIP3    H136361   4.249   3.929   1.557  0.0164 -0.4532  2.0584
 4934TIP3    H236362   4.274   3.780   1.574  0.9554 -0.8515 -1.9966
 4935TIP3   OH236363   0.748   1.140   7.784  0.5167  0.5604 -0.0500
 4935TIP3    H136364   0.784   1.057   7.753  0.2760 -0.1406  1.4820
 4935TIP3    H236365   0.707   1.179   7.707  4.3987  1.3837 -1.9580
 4936TIP3   OH236366   4.128   4.187   7.169 -0.0065 -0.0654 -0.1567
 4936TIP3    H136367   4.038   4.176   7.199 -0.2188  2.1609  0.1936
 4936TIP3    H236368   4.150   4.278   7.191  2.8737 -0.9679  1.2008
 4937TIP3   OH236369   6.679   2.235   7.735 -0.6806 -0.2751 -0.1633
 4937TIP3    H136370   6.698   2.298   7.804 -0.4916  0.8485 -1.2001
 4937TIP3    H236371   6.708   2.150   7.771 -0.7523  0.2449  1.1762
 4938TIP3   OH236372   4.006   1.354   8.360 -0.0761  0.2776 -0.1802
 4938TIP3    H136373   4.035   1.265   8.382  2.8796  1.2243  0.1757
 4938TIP3    H236374   3.958   1.382   8.438  2.1689  0.2293  1.3344
 4939TIP3   OH236375   1.731   2.433   8.257  0.4162  0.2183  0.2355
 4939TIP3    H136376   1.674   2.367   8.217  0.7243  0.5882 -0.8550
 4939TIP3    H236377   1.672   2.484   8.312 -0.7383  1.6976 -2.1993
 4940TIP3   OH236378   5.840   0.826   8.363 -0.5976 -0.0084  0.2463
 4940TIP3    H136379   5.847   0.867   8.277  2.3712  0.1124  0.4123
 4940TIP3    H236380   5.841   0.900   8.424  3.3499 -0.0442  0.4885
 4941TIP3   OH236381   5.053   2.979   8.548  0.2529 -0.1301 -0.0472
 4941TIP3    H136382   5.090   3.066   8.562 -0.5931  0.0471  1.2624
 4941TIP3    H236383   5.067   2.962   8.455 -0.7829  1.9910 -0.6584
 4942TIP3   OH236384   4.554   0.446   2.366  0.5472 -0.0649  0.0356
 4942TIP3    H136385   4.498   0.515   2.331  1.1823  1.0278  1.1111
 4942TIP3    H236386   4.626   0.438   2.303  1.0410  1.0362  0.4390
 4943TIP3   OH236387   2.665   2.194   7.524 -0.9776  0.2100 -0.3332
 4943TIP3    H136388   2.704   2.158   7.444  0.1507 -2.4188  1.2811
 4943TIP3    H236389   2.577   2.157   7.527 -1.0413  0.3568 -0.3888
 4944TIP3   OH236390   2.346   4.814   7.300 -0.0931  0.0760  0.3672
 4944TIP3    H136391   2.297   4.894   7.280 -0.8482 -0.0783  1.4973
 4944TIP3    H236392   2.286   4.743   7.277 -1.2049 -0.1112  3.4180
 4945TIP3   OH236393   2.183   0.499   0.285  0.5255  0.1700  0.3534
 4945TIP3    H136394   2.220   0.541   0.364  0.7495 -0.9687  0.8716
 4945TIP3    H236395   2.258   0.458   0.242  0.2822  0.1459 -0.0531
 4946TIP3   OH236396   2.061   0.441   2.111  0.5337 -0.3253  0.0340
 4946TIP3    H136397   2.154   0.443   2.086  0.4892 -0.7605 -0.1794
 4946TIP3    H236398   2.022   0.375   2.053 -0.3562  1.3339 -1.3348
 4947TIP3   OH236399   1.481   4.305   8.645 -0.1552  0.3888  0.1915
 4947TIP3    H136400   1.510   4.372   8.582 -1.2842 -0.2830 -1.1046
 4947TIP3    H236401   1.386   4.305   8.638 -0.2830 -0.0236  1.6179
 4948TIP3   OH236402   0.046   5.876   7.685  0.2767  0.1191 -0.1344
 4948TIP3    H136403  -0.015   5.895   7.757 -0.2350  0.2383 -0.5941
 4948TIP3    H236404   0.034   5.948   7.624 -0.6880 -0.9446 -1.2471
 4949TIP3   OH236405   5.727   4.759   0.987 -0.2194 -0.0566 -0.6735
 4949TIP3    H136406   5.694   4.671   1.003  0.6911 -0.2792  0.0490
 4949TIP3    H236407   5.771   4.753   0.902 -0.1193 -0.3220 -0.6056
 4950TIP3   OH236408   4.779   4.414   7.146  0.1217 -0.1088 -0.0306
 4950TIP3    H136409   4.683   4.403   7.150  0.0222  0.1772 -1.3668
 4950TIP3    H236410   4.811   4.327   7.121  0.1998 -0.1552  0.2300
 4951TIP3   OH236411   4.636   3.832   1.166  0.4608 -0.3392 -0.1897
 4951TIP3    H136412   4.644   3.863   1.076  1.4410 -1.2770 -0.4499
 4951TIP3    H236413   4.546   3.854   1.191  0.1936  0.0007 -1.3704
 4952TIP3   OH236414   0.989   6.060   8.208 -0.0789  0.1658  0.1207
 4952TIP3    H136415   1.056   6.011   8.160  0.3602  1.5805 -0.7687
 4952TIP3    H236416   0.911   6.054   8.153 -0.1178  0.2002  0.1718
 4953TIP3   OH236417   6.340   3.707   8.046 -0.1615  1.0014  0.1921
 4953TIP3    H136418   6.398   3.634   8.063 -1.2333 -0.2114 -1.1169
 4953TIP3    H236419   6.362   3.736   7.957 -1.7056  0.3152 -0.4509
 4954TIP3   OH236420   1.706   5.231   6.991 -0.7106  0.5504 -0.3258
 4954TIP3    H136421   1.644   5.303   6.977 -1.0716  0.0643 -1.3537
 4954TIP3    H236422   1.656   5.152   6.970  0.1658  0.1294 -0.8819
 4955TIP3   OH236423   1.217   3.160   7.676 -0.2490  0.8524 -0.1060
 4955TIP3    H136424   1.172   3.076   7.666  1.1759  0.0351  0.1533
 4955TIP3    H236425   1.175   3.217   7.612  0.2351 -0.6798 -1.8525
 4956TIP3   OH236426   3.681   6.576   0.068 -0.0120  0.4607 -0.1106
 4956TIP3    H136427   3.595   6.568   0.026 -1.5348  0.1318  2.8386
 4956TIP3    H236428   3.662   6.606   0.157  2.9152  0.0616  0.7539
 4957TIP3   OH236429   5.399   1.633   0.821  0.4686  0.3243 -0.4406
 4957TIP3    H136430   5.360   1.681   0.747 -0.5504 -0.5272 -0.4886
 4957TIP3    H236431   5.326   1.620   0.881  1.3295  1.1578  0.8280
 4958TIP3   OH236432   4.231   1.856   7.632  0.3408 -0.0924  0.4956
 4958TIP3    H136433   4.275   1.773   7.616  0.8042  0.3400 -0.6017
 4958TIP3    H236434   4.259   1.912   7.560 -1.6459  0.3577  0.0146
 4959TIP3   OH236435   5.586   1.413   1.923  0.1706 -0.3508  0.3321
 4959TIP3    H136436   5.512   1.364   1.886  1.4008 -2.3784  0.3622
 4959TIP3    H236437   5.554   1.442   2.008 -0.9853 -0.1129 -0.1553
 4960TIP3   OH236438   5.607   4.267   6.548 -0.3078 -0.8027 -0.1875
 4960TIP3    H136439   5.668   4.340   6.540 -0.2174 -0.6965  1.1824
 4960TIP3    H236440   5.525   4.308   6.575  0.4805 -1.3574  3.5821
 4961TIP3   OH236441   2.328   3.118   8.276  0.5298  0.2699  0.3820
 4961TIP3    H136442   2.244   3.154   8.250  0.1996 -1.1502 -0.6914
 4961TIP3    H236443   2.386   3.194   8.284  0.0034  1.0748 -2.2548
 4962TIP3   OH236444   0.087   6.035   1.850  0.0895 -0.0299 -0.0775
 4962TIP3    H136445   0.032   6.031   1.928  0.2577 -0.7012  0.0105
 4962TIP3    H236446   0.028   6.018   1.778  0.1510 -0.6158  0.0061
 4963TIP3   OH236447   5.450   4.482   2.729 -0.1766  0.2810 -0.1187
 4963TIP3    H136448   5.493   4.449   2.650  0.0470  3.3136 -1.4100
 4963TIP3    H236449   5.372   4.426   2.739 -0.4100  0.0151 -2.7047
 4964TIP3   OH236450   4.316   5.794   7.551  0.1293  0.1171  0.1519
 4964TIP3    H136451   4.312   5.882   7.589 -0.0283 -0.3564  1.2782
 4964TIP3    H236452   4.254   5.743   7.604 -1.3421 -0.2062 -1.7785
 4965TIP3   OH236453   1.835   1.832   0.159  0.0336 -0.4779 -0.5054
 4965TIP3    H136454   1.802   1.889   0.089 -0.7472  0.4036  0.5273
 4965TIP3    H236455   1.756   1.793   0.197  0.5118 -1.6279 -0.6677
 4966TIP3   OH236456   6.445   6.488   1.033  0.5277  0.2591 -0.3961
 4966TIP3    H136457   6.514   6.486   0.967  0.6172  0.7932 -0.3267
 4966TIP3    H236458   6.474   6.426   1.100  1.2641  0.9493 -0.0576
 4967TIP3   OH236459   2.273   2.811   1.547  0.3551  0.3333 -0.3150
 4967TIP3    H136460   2.255   2.740   1.609  0.0915  0.1312 -0.6210
 4967TIP3    H236461   2.369   2.814   1.541  0.3647 -0.1345 -0.4538
 4968TIP3   OH236462   2.347   4.212   8.240  0.3117  0.2587  0.3731
 4968TIP3    H136463   2.363   4.172   8.325  0.8749  0.7858  0.5210
 4968TIP3    H236464   2.409   4.171   8.181  1.2388  1.2471  0.6323
 4969TIP3   OH236465   5.716   3.100   0.764 -0.0443  0.5547  0.0716
 4969TIP3    H136466   5.750   3.085   0.852  1.8912 -2.4385 -1.0558
 4969TIP3    H236467   5.627   3.064   0.767  0.6216 -1.1876  0.4247
 4970TIP3   OH236468   2.163   1.768   8.083 -0.1490 -0.8123  0.0359
 4970TIP3    H136469   2.161   1.702   8.152  0.0068 -2.1294 -1.1469
 4970TIP3    H236470   2.231   1.736   8.023 -0.2482  0.3097 -0.7012
 4971TIP3   OH236471   0.531   0.160   8.292  0.3495  0.2847 -0.1033
 4971TIP3    H136472   0.607   0.171   8.234  0.9703  0.5659  0.7357
 4971TIP3    H236473   0.569   0.146   8.379 -0.5504 -0.9521  0.1139
 4972TIP3   OH236474   5.798   0.179   6.395  0.4303  0.2052  0.2684
 4972TIP3    H136475   5.890   0.160   6.378 -0.1797 -1.1243 -1.8050
 4972TIP3    H236476   5.763   0.098   6.432  0.8208  1.8223  4.8195
 4973TIP3   OH236477   5.411   3.159   1.378 -0.1475  0.6589 -0.3478
 4973TIP3    H136478   5.451   3.246   1.375  0.5743  0.5374  2.6476
 4973TIP3    H236479   5.322   3.174   1.412 -0.0796  0.2798  0.0153
 4974TIP3   OH236480   2.283   0.926   7.555 -0.4853  0.6208 -0.0393
 4974TIP3    H136481   2.374   0.907   7.574 -0.5924  0.1695  0.0280
 4974TIP3    H236482   2.285   0.976   7.473 -0.2054  0.2678 -0.2475
 4975TIP3   OH236483   5.850   6.356   8.086 -0.2713 -0.4765  0.2652
 4975TIP3    H136484   5.818   6.429   8.138 -0.1145 -1.4436  1.7660
 4975TIP3    H236485   5.776   6.295   8.080 -0.7143  0.1638 -1.7813
 4976TIP3   OH236486   4.665   2.153   8.566  0.2640 -0.0221  0.2583
 4976TIP3    H136487   4.663   2.061   8.589  1.1905 -0.6741 -1.9200
 4976TIP3    H236488   4.591   2.165   8.506  0.1636  0.6453  0.5032
 4977TIP3   OH236489   1.889   5.304   1.767 -0.0893 -0.4060 -0.0159
 4977TIP3    H136490   1.940   5.374   1.726 -0.9389  0.6380  0.6555
 4977TIP3    H236491   1.920   5.302   1.858 -0.5281 -0.4549  0.1330
 4978TIP3   OH236492   3.768   0.682   1.309  0.6514  0.4671 -0.2884
 4978TIP3    H136493   3.784   0.599   1.352  1.1914 -0.4914 -2.2346
 4978TIP3    H236494   3.673   0.693   1.313  0.4754 -0.7154 -0.7912
 4979TIP3   OH236495   3.444   0.025   6.696 -0.7426  0.1508 -0.5774
 4979TIP3    H136496   3.382   0.001   6.627 -1.9899 -1.6681  1.0880
 4979TIP3    H236497   3.528  -0.007   6.664 -1.0817  0.3844 -1.7615
 4980TIP3   OH236498   1.386   6.313   6.852 -0.2744 -0.7410  0.2130
 4980TIP3    H136499   1.399   6.312   6.758  0.2577 -1.6272  0.2835
 4980TIP3    H236500   1.387   6.406   6.875  3.6093 -0.5055 -0.1601
 4981TIP3   OH236501   2.952   4.495   6.391  0.1180  0.1280 -0.6106
 4981TIP3    H136502   2.942   4.580   6.434 -1.4846  0.0497 -0.7762
 4981TIP3    H236503   3.023   4.452   6.438  0.5821  1.3360 -0.1732
 4982TIP3   OH236504   6.601   0.278   8.201  0.1443  0.4242  0.1538
 4982TIP3    H136505   6.524   0.301   8.148 -0.3958  0.4003  0.9126
 4982TIP3    H236506   6.579   0.308   8.289 -0.0789 -1.8890  0.9296
 4983TIP3   OH236507   4.681   1.554   2.260  0.2960 -0.1119 -0.1171
 4983TIP3    H136508   4.752   1.544   2.323  0.1362 -0.1681  0.0524
 4983TIP3    H236509   4.620   1.615   2.300  0.4163  0.2070 -0.4118
 4984TIP3   OH236510   3.818   5.815   1.601  0.6888  0.8843 -0.2348
 4984TIP3    H136511   3.764   5.753   1.651  0.9208 -1.0506 -2.2446
 4984TIP3    H236512   3.834   5.887   1.662 -1.2259 -0.1089  1.5736
 4985TIP3   OH236513   1.868   1.834   8.463 -0.0013 -0.7114 -0.0290
 4985TIP3    H136514   1.914   1.909   8.425  1.4799 -0.4754  2.0409
 4985TIP3    H236515   1.799   1.873   8.517 -0.6172 -0.9338 -0.6543
 4986TIP3   OH236516   2.449   0.326   1.396  0.5472  0.0463 -0.1600
 4986TIP3    H136517   2.461   0.325   1.491  0.3915 -0.4911 -0.1423
 4986TIP3    H236518   2.449   0.419   1.373  0.0039  0.2051  0.4407
 4987TIP3   OH236519   3.383   3.676   0.743 -0.2971  0.2770  0.6216
 4987TIP3    H136520   3.423   3.694   0.828 -0.3470 -0.0248  0.7099
 4987TIP3    H236521   3.428   3.597   0.711 -1.4505 -0.6153  1.1374
 4988TIP3   OH236522   5.354   3.960   6.873  0.2017  0.4641  0.1473
 4988TIP3    H136523   5.377   3.974   6.781  3.4234  1.1817  0.9335
 4988TIP3    H236524   5.359   3.866   6.886  1.7751  0.5038 -0.0056
 4989TIP3   OH236525   6.755   4.803   8.305  0.3459 -0.0147  0.2987
 4989TIP3    H136526   6.736   4.741   8.233  1.4930  0.8579 -0.8039
 4989TIP3    H236527   6.813   4.754   8.363  0.1883 -0.4112  0.1314
 4990TIP3   OH236528   2.316   1.152   0.038  0.0409 -1.0785  0.6657
 4990TIP3    H136529   2.287   1.103  -0.039 -0.3292  2.4091 -1.6442
 4990TIP3    H236530   2.409   1.167   0.023 -0.2818  0.6248  0.2402
 4991TIP3   OH236531   3.483   5.997   6.580  0.1908 -0.1285  0.5771
 4991TIP3    H136532   3.393   6.021   6.559  0.4068  0.2989  0.1077
 4991TIP3    H236533   3.489   5.904   6.559 -0.1726 -0.1842  0.7166
 4992TIP3   OH236534   0.416   5.551   8.658 -0.3794 -0.0409  0.2615
 4992TIP3    H136535   0.350   5.602   8.611  0.7471  3.3133  2.0018
 4992TIP3    H236536   0.493   5.553   8.601 -0.0784  0.9832  0.6929
 4993TIP3   OH236537   1.118   3.191   0.130  0.3710  0.1743 -0.0139
 4993TIP3    H136538   1.193   3.174   0.072  0.8703  0.7112  0.4597
 4993TIP3    H236539   1.048   3.219   0.071  0.2564 -1.2129 -0.5574
 4994TIP3   OH236540   3.396   1.500   0.909 -0.1056 -0.5618  0.0708
 4994TIP3    H136541   3.449   1.563   0.958 -0.5242  0.2543 -0.4975
 4994TIP3    H236542   3.427   1.415   0.939  1.5104 -0.1243 -0.1990
 4995TIP3   OH236543   2.277   0.026   1.482 -0.1716 -0.7354 -0.3495
 4995TIP3    H136544   2.265  -0.044   1.546 -0.7879 -1.9116 -1.6997
 4995TIP3    H236545   2.368   0.017   1.453 -0.0970 -0.6442 -0.1427
 4996TIP3   OH236546   5.034   3.233   0.928 -0.0154  0.4812  0.2392
 4996TIP3    H136547   5.085   3.245   1.008  1.4546  3.0599 -0.9539
 4996TIP3    H236548   4.961   3.293   0.936 -0.5956 -0.2055  0.1811
 4997TIP3   OH236549   4.287   5.926   7.811 -0.3836 -0.4982 -0.0981
 4997TIP3    H136550   4.309   5.881   7.893 -1.1501 -1.4964 -0.4235
 4997TIP3    H236551   4.199   5.962   7.826 -0.1849  0.0391 -0.1961
 4998TIP3   OH236552   4.709   4.393   8.225  0.8770 -0.2660 -0.4351
 4998TIP3    H136553   4.689   4.485   8.208  0.7572 -0.1967  0.0741
 4998TIP3    H236554   4.792   4.394   8.272  1.3880 -0.4794 -1.2978
 4999TIP3   OH236555   5.409   3.897   7.776 -0.3263 -0.7965 -0.0494
 4999TIP3    H136556   5.367   3.811   7.779  0.0913 -0.9781  1.1930
 4999TIP3    H236557   5.364   3.948   7.843 -1.9764  0.6645 -2.1270
 5000TIP3   OH236558   6.237   6.136   8.129 -0.3363 -0.4811  0.6122
 5000TIP3    H136559   6.223   6.179   8.045 -1.9662 -0.0111  1.0921
 5000TIP3    H236560   6.321   6.171   8.160 -0.0447 -0.1656 -0.5001
 5001TIP3   OH236561   4.259   0.399   1.069 -0.2259 -0.3363 -0.5081
 5001TIP3    H136562   4.188   0.356   1.116 -0.2472  0.1099 -0.1235
 5001TIP3    H236563   4.253   0.491   1.095 -0.3084 -0.0545 -1.4750
 5002TIP3   OH236564   6.383   4.463   1.600  0.7287  0.1415  0.5449
 5002TIP3    H136565   6.350   4.509   1.676  0.8051  1.0489  0.0437
 5002TIP3    H236566   6.334   4.499   1.526 -0.6914 -2.0425  0.3239
 5003TIP3   OH236567   2.636   1.575   6.384 -0.0965 -0.4597 -0.0096
 5003TIP3    H136568   2.693   1.641   6.345 -0.6450  0.1278  0.1544
 5003TIP3    H236569   2.561   1.571   6.326 -0.3782 -0.4366  0.3496
 5004TIP3   OH236570   1.080   1.541   1.876 -0.2598 -0.0690 -0.1876
 5004TIP3    H136571   1.004   1.581   1.917 -0.6593 -0.4839 -0.5064
 5004TIP3    H236572   1.155   1.583   1.918 -0.6383  1.7433 -1.2044
 5005TIP3   OH236573   6.504   1.082   7.313  0.1666  0.5865  0.5254
 5005TIP3    H136574   6.588   1.106   7.272  0.3977 -1.1696 -0.1157
 5005TIP3    H236575   6.528   1.027   7.387 -0.4185 -1.4275 -0.7040
 5006TIP3   OH236576   2.312   2.263   0.637 -0.1737  0.4235  0.0697
 5006TIP3    H136577   2.284   2.347   0.674  0.6579  0.4198  0.7245
 5006TIP3    H236578   2.366   2.223   0.705  0.2230 -0.2188 -0.6094
 5007TIP3   OH236579   4.798   5.489   6.825  0.2340  0.0666  0.2235
 5007TIP3    H136580   4.792   5.442   6.742 -0.8048 -1.5858  1.1925
 5007TIP3    H236581   4.891   5.506   6.837  0.2902  1.7223 -1.9838
 5008TIP3   OH236582   4.667   3.451   6.521 -0.0393 -0.4929  0.4551
 5008TIP3    H136583   4.607   3.456   6.446 -1.4744  0.6335  1.5967
 5008TIP3    H236584   4.662   3.361   6.551  0.8755 -1.0645 -1.0176
 5009TIP3   OH236585   3.166   2.601   0.713 -0.1331  0.5698  0.1702
 5009TIP3    H136586   3.172   2.506   0.710  1.0042  0.5918  1.1404
 5009TIP3    H236587   3.076   2.620   0.685 -0.8662 -0.8859  1.3550
 5010TIP3   OH236588   3.342   3.340   6.702 -0.1862  0.1496 -0.1652
 5010TIP3    H136589   3.251   3.350   6.674 -0.3405 -0.5664  0.0596
 5010TIP3    H236590   3.389   3.316   6.622 -0.5853 -1.6604  0.0974
 5011TIP3   OH236591   5.922   6.318   0.561 -0.3638  0.5923 -0.1765
 5011TIP3    H136592   5.838   6.288   0.526 -0.5369 -3.8083  3.2013
 5011TIP3    H236593   5.985   6.253   0.530  0.4814 -0.0448  2.6220
 5012TIP3   OH236594   6.204   4.096   7.093  0.3705 -0.3746  0.0564
 5012TIP3    H136595   6.203   4.095   7.188 -0.2616 -0.8578  0.0446
 5012TIP3    H236596   6.278   4.153   7.071  0.3021  0.0231  0.8285
 5013TIP3   OH236597   6.805   6.786   0.282  0.1929  0.5383 -0.2964
 5013TIP3    H136598   6.853   6.730   0.344 -0.1997  0.7307  0.1923
 5013TIP3    H236599   6.870   6.849   0.251  0.1652  1.0785  0.7037
 5014TIP3   OH236600   1.041   5.320   7.335 -0.0074  0.0561  0.0116
 5014TIP3    H136601   1.108   5.291   7.396  0.0406 -3.1974 -1.3667
 5014TIP3    H236602   1.087   5.329   7.251 -1.2396 -2.8618 -1.1042
 5015TIP3   OH236603   3.507   5.880   1.087  0.0361 -0.3300  0.2198
 5015TIP3    H136604   3.472   5.863   1.000  2.9716 -2.2797 -0.7545
 5015TIP3    H236605   3.602   5.884   1.074  0.4946  0.9768  3.1229
 5016TIP3   OH236606   2.296   1.488   0.455  0.5127 -0.1743 -0.0216
 5016TIP3    H136607   2.388   1.507   0.436 -0.2117  1.3222 -2.5616
 5016TIP3    H236608   2.267   1.434   0.381 -0.3602 -1.8513  1.4623
 5017TIP3   OH236609   0.476   2.063   0.658 -0.3394  0.1773  1.0838
 5017TIP3    H136610   0.408   2.118   0.619  0.6538 -0.3635 -1.6488
 5017TIP3    H236611   0.442   1.974   0.650  0.8190 -0.1523 -0.8043
 5018TIP3   OH236612   6.677   6.442   0.497 -0.2764  0.7640 -0.1549
 5018TIP3    H136613   6.705   6.533   0.507  0.0204  0.5559  1.0114
 5018TIP3    H236614   6.711   6.398   0.575 -1.6775 -0.0383  0.0255
 5019TIP3   OH236615   6.244   3.020   1.438 -0.2077 -0.0723  0.5746
 5019TIP3    H136616   6.309   3.075   1.481 -0.0534 -0.6291  1.0591
 5019TIP3    H236617   6.215   2.959   1.505 -1.3640  0.2743  0.4108
 5020TIP3   OH236618   2.533   6.565   0.485  0.1810 -0.5290 -0.4939
 5020TIP3    H136619   2.476   6.555   0.561  1.5159 -0.3768  0.5616
 5020TIP3    H236620   2.503   6.498   0.424 -0.6356 -0.9559  0.3475
 5021TIP3   OH236621   0.549   3.233   1.943 -0.3634 -0.3115  0.2290
 5021TIP3    H136622   0.642   3.216   1.956 -0.4093 -0.8667 -0.1375
 5021TIP3    H236623   0.507   3.199   2.022 -0.4168 -1.6065 -0.3365
 5022TIP3   OH236624   4.795   3.011   7.283 -0.0457 -0.3044  0.4678
 5022TIP3    H136625   4.756   2.968   7.359 -0.8090 -0.7360 -0.1537
 5022TIP3    H236626   4.722   3.058   7.243  0.4148  0.1469  0.1627
 5023TIP3   OH236627   1.002   1.600   0.394 -0.2429 -0.4139  0.1873
 5023TIP3    H136628   1.083   1.594   0.444 -0.6613  1.2164  1.1025
 5023TIP3    H236629   0.933   1.581   0.457 -0.6745 -0.2719 -0.2344
 5024TIP3   OH236630   3.288   5.812   7.749 -1.0228  0.8203 -0.7619
 5024TIP3    H136631   3.279   5.770   7.835 -2.5370 -0.2305 -1.3942
 5024TIP3    H236632   3.339   5.890   7.767  0.3297 -0.3331  0.7800
 5025TIP3   OH236633   0.748   4.909   0.221 -0.2268 -0.1310  0.7957
 5025TIP3    H136634   0.663   4.866   0.211  0.9313 -2.3809 -0.0570
 5025TIP3    H236635   0.742   4.987   0.166 -2.4786  1.0975  2.5597
 5026TIP3   OH236636   0.072   5.518   8.192 -0.1874  0.1902  0.1798
 5026TIP3    H136637   0.057   5.454   8.261 -0.6887 -0.5954 -0.6258
 5026TIP3    H236638   0.165   5.538   8.197 -0.5097  1.3981  2.1242
 5027TIP3   OH236639   3.098   2.484   6.251  0.0674 -0.5313 -0.0602
 5027TIP3    H136640   3.193   2.479   6.244  0.1234 -1.9388  1.0915
 5027TIP3    H236641   3.082   2.564   6.300  0.7065 -0.5431  0.1780
 5028TIP3   OH236642   4.484   2.775   7.287  0.0293 -0.1998  0.2658
 5028TIP3    H136643   4.446   2.818   7.363 -0.9102  1.6312 -1.1686
 5028TIP3    H236644   4.418   2.784   7.218  1.0512 -1.3516 -0.9257
 5029TIP3   OH236645   0.077   1.124   7.975 -0.3650 -0.3161  0.1851
 5029TIP3    H136646   0.001   1.077   7.941 -2.8403  2.0929  1.9785
 5029TIP3    H236647   0.107   1.177   7.901 -1.3213 -0.2571 -0.1721
 5030TIP3   OH236648   2.104   6.492   7.219  0.5688 -0.0399  0.3645
 5030TIP3    H136649   2.115   6.528   7.307  1.6375  0.5189  0.0171
 5030TIP3    H236650   2.104   6.569   7.161 -2.6373 -0.1391  0.0319
 5031TIP3   OH236651   3.553   2.685   1.785 -1.1144  0.6727 -0.0669
 5031TIP3    H136652   3.592   2.673   1.871 -0.4738  2.6713 -0.0412
 5031TIP3    H236653   3.536   2.596   1.754  4.1616 -0.5162 -0.4191
 5032TIP3   OH236654   0.796   2.171   2.078  0.0176  0.4943 -0.2404
 5032TIP3    H136655   0.704   2.175   2.051 -0.1021  0.8553  0.2009
 5032TIP3    H236656   0.811   2.080   2.102 -0.6340  0.7008  1.0565
 5033TIP3   OH236657   6.222   4.203   8.614 -0.0234  0.0845 -0.0688
 5033TIP3    H136658   6.314   4.186   8.635 -0.1886 -0.4166  0.2423
 5033TIP3    H236659   6.173   4.139   8.664 -0.4508 -0.9286 -1.7011
 5034TIP3   OH236660   1.470   5.976   2.299  0.9081 -0.3894  0.0377
 5034TIP3    H136661   1.538   5.910   2.311  0.7544 -0.5482  0.0398
 5034TIP3    H236662   1.509   6.040   2.239  0.2420 -1.6965 -1.8806
 5035TIP3   OH236663   6.453   0.220   1.413 -0.3970 -0.0993 -0.3573
 5035TIP3    H136664   6.441   0.303   1.460  0.1794 -0.0790 -0.2414
 5035TIP3    H236665   6.547   0.204   1.416 -0.6679 -1.6876  1.2140
 5036TIP3   OH236666   0.753   5.870   1.876  0.5734  0.0002  0.0789
 5036TIP3    H136667   0.745   5.781   1.911 -0.0838  0.0338  0.0110
 5036TIP3    H236668   0.698   5.872   1.798  0.2241  0.5970  0.3314
 5037TIP3   OH236669   2.552   0.717   7.836 -0.2676 -0.3623 -0.4519
 5037TIP3    H136670   2.481   0.653   7.843 -0.8453  0.3131  0.0309
 5037TIP3    H236671   2.621   0.683   7.893 -1.4785  0.5979  1.6553
 5038TIP3   OH236672   3.844   2.427   8.560  0.4809  0.0165 -0.4706
 5038TIP3    H136673   3.889   2.343   8.546 -0.4682 -0.5222 -0.3968
 5038TIP3    H236674   3.777   2.429   8.493 -0.5580 -0.0500  0.5382
 5039TIP3   OH236675   4.050   0.939   0.600 -0.0591 -0.2652 -0.0039
 5039TIP3    H136676   4.126   0.985   0.637 -0.4281 -0.7851  1.4408
 5039TIP3    H236677   4.086   0.889   0.526  0.5144  1.5538 -1.0355
 5040TIP3   OH236678   3.636   6.624   0.339 -0.3033 -0.6545 -0.2128
 5040TIP3    H136679   3.689   6.585   0.409  0.9288  0.7868 -0.2954
 5040TIP3    H236680   3.546   6.615   0.370 -0.0298 -2.8793  0.0763
 5041TIP3   OH236681   2.147   2.015   7.256  0.4512 -0.0821 -0.5576
 5041TIP3    H136682   2.213   2.085   7.260  0.4849 -0.1191 -0.4798
 5041TIP3    H236683   2.111   2.011   7.344  0.5106 -0.2239 -0.5398
 5042TIP3   OH236684   4.153   5.644   7.912 -0.7198 -0.1868  0.2594
 5042TIP3    H136685   4.137   5.640   7.818  1.8230  0.2245 -0.2661
 5042TIP3    H236686   4.142   5.553   7.942  1.9186 -1.0828 -1.1629
 5043TIP3   OH236687   3.388   6.686   7.094 -0.6352  0.5490  0.3645
 5043TIP3    H136688   3.406   6.600   7.132 -0.6214  0.0121 -0.8177
 5043TIP3    H236689   3.366   6.668   7.003  0.4570  1.8942 -0.2025
 5044TIP3   OH236690   0.666   5.406   0.930  0.4932 -0.3096  0.4880
 5044TIP3    H136691   0.639   5.487   0.889  0.2139 -0.2153  0.8570
 5044TIP3    H236692   0.734   5.371   0.872  0.3424 -0.0088  0.1304
 5045TIP3   OH236693   6.518   1.773   1.296  0.2119  0.1564 -0.3762
 5045TIP3    H136694   6.564   1.750   1.376  0.4222 -0.6536 -0.7237
 5045TIP3    H236695   6.475   1.856   1.316 -1.7763 -1.1989  1.4303
 5046TIP3   OH236696   4.457   4.275   8.232 -0.5260  0.3611 -0.0417
 5046TIP3    H136697   4.452   4.281   8.327  0.1275  1.3474 -0.0545
 5046TIP3    H236698   4.547   4.301   8.211 -0.4277 -0.5822 -0.8851
 5047TIP3   OH236699   2.748   5.644   8.115 -0.1862 -0.3784  0.6879
 5047TIP3    H136700   2.742   5.736   8.141  0.1661 -0.3549  0.6934
 5047TIP3    H236701   2.657   5.616   8.103 -0.2760  0.9568 -2.8067
 5048TIP3   OH236702   0.574   6.077   6.979 -0.4850 -0.3218  0.2115
 5048TIP3    H136703   0.654   6.092   7.030  0.3851 -1.4330 -0.7822
 5048TIP3    H236704   0.509   6.134   7.020  1.3914  2.5283 -0.4554
 5049TIP3   OH236705   6.765   1.007   0.761  0.3923  0.3431  0.3774
 5049TIP3    H136706   6.750   1.012   0.667  2.7860  2.3162 -0.0027
 5049TIP3    H236707   6.714   1.079   0.798  1.2264  0.9975  0.2783
 5050TIP3   OH236708   5.664   0.146   1.329 -0.2613 -0.4489  0.4071
 5050TIP3    H136709   5.753   0.138   1.364 -0.3180  0.7524  0.8629
 5050TIP3    H236710   5.667   0.095   1.247 -0.1498 -3.3634  2.0708
 5051TIP3   OH236711   1.214   3.971   1.967  0.0228 -0.9448  0.5035
 5051TIP3    H136712   1.156   3.992   1.893 -0.6145 -1.0694  0.9633
 5051TIP3    H236713   1.194   3.881   1.989  0.7236 -1.1379  0.3824
 5052TIP3   OH236714   4.535   2.770   1.344  0.0175  0.4834 -0.0328
 5052TIP3    H136715   4.532   2.812   1.258  0.1346 -0.6046 -0.5782
 5052TIP3    H236716   4.622   2.792   1.378 -0.0699  1.0071 -0.1396
 5053TIP3   OH236717   2.647   2.704   7.600 -0.3643 -0.2566 -0.0558
 5053TIP3    H136718   2.597   2.715   7.519  0.5315  0.1578 -0.5728
 5053TIP3    H236719   2.641   2.789   7.643  0.3997 -0.0022 -0.4296
 5054TIP3   OH236720   0.461   4.005   0.265 -0.0964  0.3121  0.0861
 5054TIP3    H136721   0.366   3.994   0.275  0.0362  0.0436  1.2349
 5054TIP3    H236722   0.471   4.069   0.194 -1.0876 -0.9393 -1.2334
 5055TIP3   OH236723   6.545   5.930   8.214  0.3286 -0.4509  0.1240
 5055TIP3    H136724   6.517   5.989   8.284  0.2517 -0.3258 -0.0112
 5055TIP3    H236725   6.628   5.895   8.244  0.7958  0.3749 -0.1759
 5056TIP3   OH236726   5.698   4.813   7.249 -0.4837  0.5774 -0.6170
 5056TIP3    H136727   5.698   4.719   7.268 -1.6698  0.8139  0.7675
 5056TIP3    H236728   5.787   4.833   7.221  0.3174 -0.6080  0.9784
 5057TIP3   OH236729   3.589   3.732   2.450 -0.2543 -0.1366  0.3727
 5057TIP3    H136730   3.541   3.706   2.528 -0.5618 -0.1346  0.1865
 5057TIP3    H236731   3.563   3.823   2.435  0.8469  0.3088  1.0436
 5058TIP3   OH236732   0.278   3.998   1.850  0.2250  0.3346  0.2666
 5058TIP3    H136733   0.367   4.013   1.817 -0.6555  0.2038 -2.4792
 5058TIP3    H236734   0.240   4.085   1.856  0.5839  0.4120  1.7044
 5059TIP3   OH236735   2.534   0.065   1.305  0.0608 -0.4107 -0.7819
 5059TIP3    H136736   2.621   0.070   1.265  0.2166 -0.0488 -0.4106
 5059TIP3    H236737   2.528   0.144   1.359 -0.5092 -0.4220 -0.8230
 5060TIP3   OH236738   6.585   1.046   1.081  0.5593  0.1878 -0.0813
 5060TIP3    H136739   6.530   0.992   1.025  1.7051 -2.9084  1.5807
 5060TIP3    H236740   6.672   1.006   1.076  1.1983  1.1246  2.1758
 5061TIP3   OH236741   2.085   0.606   7.929  0.1309  0.0007  0.1250
 5061TIP3    H136742   2.141   0.664   7.980 -0.6755  1.6321 -0.7839
 5061TIP3    H236743   2.008   0.593   7.985 -0.4236  1.1819 -0.3456
 5062TIP3   OH236744   5.957   5.609   7.311 -0.2873  0.1197 -0.6369
 5062TIP3    H136745   5.972   5.635   7.402  0.1281  0.4847 -0.8051
 5062TIP3    H236746   6.005   5.526   7.301  1.6858  1.2594 -1.1595
 5063TIP3   OH236747   2.463   1.016   0.311  0.6883 -0.3370 -0.3022
 5063TIP3    H136748   2.469   1.040   0.404  0.6200  0.0479 -0.3994
 5063TIP3    H236749   2.385   0.961   0.306  0.1007  0.4825 -0.3131
 5064TIP3   OH236750   3.085   4.800   1.194 -0.1521 -0.9166 -0.5237
 5064TIP3    H136751   3.033   4.863   1.243  0.3790 -0.9957  0.1627
 5064TIP3    H236752   3.051   4.805   1.105  0.0583  0.5360 -0.5529
 5065TIP3   OH236753   6.109   4.381   8.074 -0.0296 -0.2235 -0.3891
 5065TIP3    H136754   6.049   4.418   8.009 -0.1484  0.5648  0.1647
 5065TIP3    H236755   6.182   4.442   8.077 -0.2788  0.0437  0.6161
 5066TIP3   OH236756   0.754   3.167   7.381  0.2986 -0.2013  0.0185
 5066TIP3    H136757   0.774   3.258   7.401 -2.6113  1.4272 -3.2959
 5066TIP3    H236758   0.723   3.130   7.464 -1.7511  2.9675  0.8445
 5067TIP3   OH236759   3.259   4.025   1.482 -0.2767  0.9983 -0.0295
 5067TIP3    H136760   3.229   4.005   1.393 -2.7419  0.0406  0.9143
 5067TIP3    H236761   3.283   3.939   1.518  0.4841  1.3515  0.3244
 5068TIP3   OH236762   4.682   3.572   1.149 -0.0681  0.3571 -0.1145
 5068TIP3    H136763   4.666   3.666   1.143  0.1506  0.4372  0.4379
 5068TIP3    H236764   4.730   3.561   1.231 -2.1070 -0.4840  1.0689
 5069TIP3   OH236765   2.416   6.801   2.286 -0.1740 -0.5194 -0.4223
 5069TIP3    H136766   2.338   6.806   2.231 -0.0570  1.8771 -0.4920
 5069TIP3    H236767   2.486   6.834   2.230  0.6015 -1.2516  0.1067
 5070TIP3   OH236768   6.480   4.940   1.939 -0.0220 -0.0131  0.2543
 5070TIP3    H136769   6.524   5.024   1.930  1.7358 -0.6801  1.8969
 5070TIP3    H236770   6.400   4.959   1.988 -0.1846  0.8310 -0.3195
 5071TIP3   OH236771   4.317   4.101   1.563 -0.3381 -0.7061 -0.1478
 5071TIP3    H136772   4.282   4.189   1.579 -1.5527 -1.2264  0.1711
 5071TIP3    H236773   4.411   4.110   1.575 -0.5522  0.3341  0.9331
 5072TIP3   OH236774   0.266   0.536   0.227 -0.4151 -0.0161  0.7012
 5072TIP3    H136775   0.197   0.507   0.167  0.4785  0.2046 -0.4642
 5072TIP3    H236776   0.295   0.456   0.271 -0.9655 -0.2094  0.7122
 5073TIP3   OH236777   0.361   6.847   7.847  0.2839  0.7184 -0.1728
 5073TIP3    H136778   0.266   6.853   7.835  0.1108  0.9115  1.1355
 5073TIP3    H236779   0.397   6.917   7.793 -0.1027 -0.8482 -2.6169
 5074TIP3   OH236780   1.444   1.997   7.744 -0.0993 -0.2115  0.3721
 5074TIP3    H136781   1.405   1.911   7.725 -0.0865  0.1295 -1.3569
 5074TIP3    H236782   1.513   2.007   7.678  0.8647  0.5253  1.4603
 5075TIP3   OH236783   0.342   4.551   7.443  0.4644 -0.2861  0.2131
 5075TIP3    H136784   0.332   4.472   7.389  0.7525  0.3495 -0.7873
 5075TIP3    H236785   0.332   4.519   7.533  1.5818 -1.6312 -0.1069
 5076TIP3   OH236786   3.740   2.738   7.758 -0.1128 -0.1884 -0.3998
 5076TIP3    H136787   3.776   2.652   7.779 -0.8394 -0.1989  0.9299
 5076TIP3    H236788   3.674   2.753   7.826 -3.0167 -0.3898 -2.9793
 5077TIP3   OH236789   1.643   3.751   7.251 -0.6874 -0.0640  0.0715
 5077TIP3    H136790   1.564   3.730   7.202  0.3203 -1.1625 -1.1625
 5077TIP3    H236791   1.713   3.747   7.186  0.7148 -1.6416  1.5940
 5078TIP3   OH236792   2.166   1.702   6.836  0.7075 -0.0920 -0.0517
 5078TIP3    H136793   2.152   1.607   6.843  0.7259 -0.1644 -0.9155
 5078TIP3    H236794   2.253   1.716   6.873  0.7132 -0.4071  0.0662
 5079TIP3   OH236795   2.250   0.062   8.024 -0.6789 -0.4394 -0.4504
 5079TIP3    H136796   2.333   0.032   7.987 -0.7709  0.3845 -1.3644
 5079TIP3    H236797   2.271   0.087   8.114 -0.1752 -1.2621 -0.3299
 5080TIP3   OH236798   4.729   1.988   7.906 -0.3155  0.1455 -0.7959
 5080TIP3    H136799   4.792   2.032   7.849 -0.1509  0.9895  0.0164
 5080TIP3    H236800   4.649   2.042   7.900  0.0615  0.9249  0.6328
 5081TIP3   OH236801   0.439   4.892   6.200  0.0421 -0.5044 -0.1065
 5081TIP3    H136802   0.365   4.852   6.246 -1.2933  0.4095 -1.3588
 5081TIP3    H236803   0.400   4.933   6.123  1.3587  2.6577  0.7275
 5082TIP3   OH236804   3.632   0.691   0.163  0.3373 -0.6422  0.1196
 5082TIP3    H136805   3.556   0.655   0.119 -0.1117  1.7979 -1.2891
 5082TIP3    H236806   3.598   0.765   0.215  1.5272 -0.4676  0.6971
 5083TIP3   OH236807   5.608   0.654   1.724  0.4382  0.2365 -0.1242
 5083TIP3    H136808   5.539   0.619   1.667 -0.3286  1.4652 -0.0068
 5083TIP3    H236809   5.580   0.630   1.813 -1.0379  2.5127  0.1213
 5084TIP3   OH236810   2.496   3.001   6.345 -0.2848 -0.0683 -0.0777
 5084TIP3    H136811   2.562   2.940   6.311  0.4903  1.4528 -1.4429
 5084TIP3    H236812   2.412   2.965   6.317 -0.0762 -1.8508  1.3897
 5085TIP3   OH236813   5.693   2.649   1.654  0.1379 -0.0664 -0.4758
 5085TIP3    H136814   5.683   2.654   1.558 -2.8184 -1.6127 -0.3771
 5085TIP3    H236815   5.671   2.558   1.675  0.9263  0.2024  1.6929
 5086TIP3   OH236816   0.540   3.640   8.018 -0.3252  0.7447 -0.0718
 5086TIP3    H136817   0.550   3.723   8.065 -1.1935  0.9129 -0.1681
 5086TIP3    H236818   0.471   3.594   8.066  0.0320  0.1499 -0.1223
 5087TIP3   OH236819   3.174   6.434   0.808  0.1277  0.3989  0.2707
 5087TIP3    H136820   3.107   6.502   0.801 -0.0290  0.2383  0.2031
 5087TIP3    H236821   3.165   6.383   0.727  1.1381  1.1071 -0.3054
 5088TIP3   OH236822   0.629   2.041   7.488 -0.2308  0.5957  0.1771
 5088TIP3    H136823   0.559   2.106   7.486 -1.8151 -0.9496  2.3294
 5088TIP3    H236824   0.695   2.079   7.546 -0.4486  0.9158  0.2188
 5089TIP3   OH236825   4.030   4.700   6.899  0.0135 -0.0730 -0.5166
 5089TIP3    H136826   4.095   4.661   6.957  1.5062 -0.2103 -2.1838
 5089TIP3    H236827   3.983   4.625   6.861  1.4847 -0.2302 -2.1511
 5090TIP3   OH236828   2.965   2.741   8.538  0.6622  0.3862  0.2249
 5090TIP3    H136829   2.979   2.801   8.612 -0.5791  2.1199 -0.8454
 5090TIP3    H236830   3.036   2.677   8.544  2.0196  1.9277  1.5049
 5091TIP3   OH236831   0.986   0.061   1.121  0.3586  0.2766  0.0923
 5091TIP3    H136832   1.043   0.114   1.176 -0.1908  1.5515 -0.5314
 5091TIP3    H236833   0.974  -0.021   1.170  0.8572  0.8984  1.2799
 5092TIP3   OH236834   5.293   0.863   0.154  0.5308  0.1748 -0.3399
 5092TIP3    H136835   5.231   0.903   0.215  1.1276  1.8871 -0.8019
 5092TIP3    H236836   5.334   0.937   0.109  2.2125 -0.9347 -0.7412
 5093TIP3   OH236837   3.926   1.312   6.658 -0.6656  0.1810  0.2902
 5093TIP3    H136838   4.020   1.297   6.654 -0.5887  0.4941  0.8412
 5093TIP3    H236839   3.894   1.286   6.571  0.1209  1.4302 -0.3949
 5094TIP3   OH236840   4.793   5.522   1.468 -0.2468  0.2139  0.4490
 5094TIP3    H136841   4.806   5.613   1.494 -0.2519  0.8843 -1.7116
 5094TIP3    H236842   4.872   5.500   1.419  0.9621 -1.8482  3.0124
 5095TIP3   OH236843   3.088   0.166   8.301 -0.2611  0.0929  0.2231
 5095TIP3    H136844   3.042   0.087   8.272 -2.2704  1.2507  0.0328
 5095TIP3    H236845   3.036   0.197   8.375 -0.0848  1.7421 -0.3164
 5096TIP3   OH236846   3.659   5.497   8.184  0.1677  0.5429 -0.2641
 5096TIP3    H136847   3.641   5.563   8.251 -1.9214  1.1059 -1.2870
 5096TIP3    H236848   3.692   5.546   8.109  0.9573  0.1141 -0.2047
 5097TIP3   OH236849   5.075   0.745   0.689  0.3911  0.1167 -0.5818
 5097TIP3    H136850   5.102   0.824   0.736  1.1186 -0.4380 -0.0372
 5097TIP3    H236851   5.140   0.735   0.619  0.8267 -0.4791 -0.1027
 5098TIP3   OH236852   5.936   4.357   7.442  0.1434 -0.6598 -0.2485
 5098TIP3    H136853   5.892   4.278   7.410  0.0552 -0.8142  0.2490
 5098TIP3    H236854   5.907   4.366   7.533  0.3637 -0.2044 -0.2197
 5099TIP3   OH236855   3.617   3.520   1.587  0.3586 -0.2631  0.2123
 5099TIP3    H136856   3.543   3.480   1.633 -0.0496  0.7426  0.4598
 5099TIP3    H236857   3.582   3.547   1.502  0.2149  0.8766  0.6053
 5100TIP3   OH236858   4.543   6.186   7.518 -0.4185 -0.2199 -0.4320
 5100TIP3    H136859   4.453   6.179   7.488 -0.6755  2.1334 -0.3262
 5100TIP3    H236860   4.588   6.114   7.474 -2.2444 -1.2166 -0.7632
 5101TIP3   OH236861   2.227   0.610   6.182  0.0087  0.5785  0.3601
 5101TIP3    H136862   2.212   0.689   6.234  0.0038  1.9952 -1.6985
 5101TIP3    H236863   2.293   0.562   6.232  0.3057  2.0617  1.4818
 5102TIP3   OH236864   6.562   1.643   7.239 -0.5757  0.2844  0.2693
 5102TIP3    H136865   6.548   1.644   7.144  2.4263  1.0078 -0.2670
 5102TIP3    H236866   6.591   1.554   7.258 -0.2971  0.3906  0.3414
 5103TIP3   OH236867   5.896   1.831   1.640  0.2680  0.6207 -0.1749
 5103TIP3    H136868   5.934   1.821   1.728 -0.3116  2.3222  0.3197
 5103TIP3    H236869   5.910   1.924   1.619 -1.1518  0.6519 -1.1354
 5104TIP3   OH236870   1.796   5.539   8.201 -0.4144 -0.5809  0.4016
 5104TIP3    H136871   1.839   5.522   8.117 -0.6835 -0.2106  0.1860
 5104TIP3    H236872   1.741   5.463   8.216 -0.0424 -0.8434  0.4503
 5105TIP3   OH236873   1.716   2.329   0.394  0.6139  0.1762  0.3990
 5105TIP3    H136874   1.624   2.345   0.370  0.6479 -0.0255  0.1355
 5105TIP3    H236875   1.718   2.237   0.419  1.3435 -0.6786 -2.4674
 5106TIP3   OH236876   3.769   1.726   0.391  0.0013 -0.4270 -0.0724
 5106TIP3    H136877   3.780   1.642   0.347  0.6938 -0.9976  1.1262
 5106TIP3    H236878   3.857   1.749   0.422 -0.2408  0.5567 -0.0566
 5107TIP3   OH236879   6.451   5.324   6.336 -0.6288 -0.5530 -0.4244
 5107TIP3    H136880   6.426   5.401   6.285  0.0721 -0.7059 -1.0260
 5107TIP3    H236881   6.431   5.347   6.426  0.9610  0.9522 -0.3937
 5108TIP3   OH236882   2.778   3.503   8.676 -0.4828 -0.5851  0.1298
 5108TIP3    H136883   2.871   3.497   8.698 -0.1411 -0.4219 -1.1765
 5108TIP3    H236884   2.747   3.579   8.724  0.0803 -0.6004  0.5279
 5109TIP3   OH236885   3.004   3.086   1.960 -0.4837  0.1327  0.0540
 5109TIP3    H136886   3.017   3.180   1.969 -0.8968  0.2629 -0.5833
 5109TIP3    H236887   2.927   3.067   2.014  0.4372 -0.0955  1.3178
 5110TIP3   OH236888   2.365   0.430   6.332  0.1398 -0.3934 -0.3621
 5110TIP3    H136889   2.450   0.472   6.345  0.3782 -1.2058  0.8991
 5110TIP3    H236890   2.385   0.351   6.283  0.8858 -2.9329  3.5781
 5111TIP3   OH236891   5.708   5.924   6.459 -0.9896  0.1913  0.3956
 5111TIP3    H136892   5.714   5.867   6.382 -0.6066  0.2261  0.3955
 5111TIP3    H236893   5.660   6.001   6.428  2.9736  2.3325 -1.1608
 5112TIP3   OH236894   2.568   6.164   8.371  0.0884 -0.3205 -0.6364
 5112TIP3    H136895   2.496   6.181   8.311  0.3743 -0.5417 -1.0510
 5112TIP3    H236896   2.526   6.131   8.451 -0.4539  1.9687  0.0846
 5113TIP3   OH236897   0.161   1.089   0.755  0.2348  0.2835  0.2045
 5113TIP3    H136898   0.071   1.068   0.782  0.7543 -2.0527  0.3465
 5113TIP3    H236899   0.189   1.158   0.815 -2.1287  2.6341 -1.1928
 5114TIP3   OH236900   4.985   4.144   2.355  0.4993 -0.5932 -0.3348
 5114TIP3    H136901   5.058   4.205   2.364  1.3590 -1.5979 -0.3357
 5114TIP3    H236902   4.954   4.129   2.445  0.4748 -0.3786 -0.3083
 5115TIP3   OH236903   1.259   1.151   7.873  0.4118  0.3875  0.9074
 5115TIP3    H136904   1.347   1.187   7.868 -0.2277  2.2007  1.4821
 5115TIP3    H236905   1.248   1.129   7.966  0.6961 -1.0950  0.6060
 5116TIP3   OH236906   6.412   2.782   1.023  0.1492  0.6966 -0.2813
 5116TIP3    H136907   6.328   2.817   1.054 -0.0160  0.0699 -0.0144
 5116TIP3    H236908   6.465   2.772   1.103 -0.2509 -0.8525 -0.1794
 5117TIP3   OH236909   6.394   6.533   1.456  0.7386  0.2328  0.0673
 5117TIP3    H136910   6.371   6.442   1.439 -2.6485  1.2943 -2.2074
 5117TIP3    H236911   6.367   6.549   1.547  0.2708 -0.7489  0.1093
 5118TIP3   OH236912   2.490   5.319   8.507 -0.1841  0.5038  0.1512
 5118TIP3    H136913   2.549   5.301   8.580 -0.0849  1.5052  0.3356
 5118TIP3    H236914   2.402   5.303   8.542 -0.1443  1.1114  0.5422
 5119TIP3   OH236915   5.931   4.651   1.485  0.3906 -0.4123 -0.3866
 5119TIP3    H136916   5.892   4.620   1.403 -2.1881  0.6808  0.3292
 5119TIP3    H236917   5.962   4.739   1.464  2.6305 -1.2612 -0.9416
 5120TIP3   OH236918   3.069   4.525   0.923 -0.0055 -0.6686 -0.6741
 5120TIP3    H136919   2.977   4.537   0.900 -0.6415 -2.7378  0.4949
 5120TIP3    H236920   3.079   4.430   0.932  1.9976 -0.4248  0.1492
 5121TIP3   OH236921   4.575   6.424   7.319  0.4413 -0.2090 -0.1539
 5121TIP3    H136922   4.607   6.355   7.261 -0.4592 -2.0745  1.4887
 5121TIP3    H236923   4.480   6.422   7.309  0.3780  0.5793  0.1784
 5122TIP3   OH236924   5.791   2.242   1.038  0.4473 -0.0892  0.0898
 5122TIP3    H136925   5.709   2.200   1.065  2.0440 -3.1634  0.5952
 5122TIP3    H236926   5.814   2.299   1.110  0.0200 -1.2032  1.1399
 5123TIP3   OH236927   4.445   6.088   8.142  0.1640 -0.3929 -0.0119
 5123TIP3    H136928   4.502   6.012   8.125  0.3760 -0.4856  1.0355
 5123TIP3    H236929   4.356   6.053   8.136  0.2634 -0.8223  0.8180
 5124TIP3   OH236930   1.872   1.688   6.847  0.1852  0.1943  0.1583
 5124TIP3    H136931   1.847   1.766   6.798 -0.3613 -0.1837 -0.1704
 5124TIP3    H236932   1.966   1.699   6.864  0.0474  1.0693  0.3860
 5125TIP3   OH236933   5.255   0.142   7.316 -0.3727 -0.1293  0.0883
 5125TIP3    H136934   5.334   0.170   7.362  1.1259 -1.5761 -1.4628
 5125TIP3    H236935   5.189   0.207   7.340  1.0130  0.6156  2.1632
 5126TIP3   OH236936   0.199   1.279   6.189  0.7740  0.4792  0.2683
 5126TIP3    H136937   0.204   1.359   6.137  0.4656  0.8043  0.7320
 5126TIP3    H236938   0.150   1.304   6.267  0.0112 -0.3413  0.0761
 5127TIP3   OH236939   2.514   2.286   1.739  0.6727  0.0650  0.4139
 5127TIP3    H136940   2.441   2.234   1.706  0.6825  0.8946 -0.9963
 5127TIP3    H236941   2.585   2.224   1.753  0.0978 -0.5605  0.5987
 5128TIP3   OH236942   3.729   4.351   8.662  0.7402 -0.3308 -0.4164
 5128TIP3    H136943   3.704   4.314   8.578  1.4691  0.4378 -0.9895
 5128TIP3    H236944   3.732   4.277   8.722 -0.4573 -0.7958 -0.8915
 5129TIP3   OH236945   6.235   3.469   1.685  0.0380  0.5509 -0.5370
 5129TIP3    H136946   6.230   3.462   1.589  1.8320 -1.1706 -0.5880
 5129TIP3    H236947   6.147   3.446   1.715 -0.4010  0.5476 -1.7431
 5130TIP3   OH236948   2.870   3.948   7.386 -0.6906  0.4477  0.8353
 5130TIP3    H136949   2.894   3.978   7.299 -3.4969 -0.1215 -0.2176
 5130TIP3    H236950   2.953   3.920   7.425  0.8872  2.4022 -0.9208
 5131TIP3   OH236951   6.786   5.541   0.708  0.0912 -0.3711 -0.2037
 5131TIP3    H136952   6.774   5.530   0.802  0.9426 -0.7352 -0.1279
 5131TIP3    H236953   6.845   5.616   0.700  0.1246 -0.4223 -0.4413
 5132TIP3   OH236954   1.438   3.745   8.000 -0.3571  0.1886 -0.0696
 5132TIP3    H136955   1.498   3.776   7.932  0.2446 -0.9707 -0.0841
 5132TIP3    H236956   1.486   3.676   8.046 -1.1883  0.1486  0.7827
 5133TIP3   OH236957   2.449   5.284   7.582  0.4473  0.0293  1.1830
 5133TIP3    H136958   2.466   5.357   7.523  2.0480  0.0132  1.5658
 5133TIP3    H236959   2.355   5.268   7.575  0.4693  0.5011 -0.7898
 5134TIP3   OH236960   0.348   6.037   1.230  0.5151 -0.4074  0.1217
 5134TIP3    H136961   0.268   6.000   1.193 -0.5239 -0.3786  2.1834
 5134TIP3    H236962   0.331   6.130   1.237 -0.1885 -0.6510  2.5128
 5135TIP3   OH236963   4.243   1.375   1.263 -0.0340  0.1888  0.8552
 5135TIP3    H136964   4.231   1.301   1.323 -1.0012 -0.0019  0.4408
 5135TIP3    H236965   4.158   1.386   1.221 -0.1782  2.0764  1.5212
 5136TIP3   OH236966   0.958   4.886   7.494 -0.5597 -0.1304  0.4372
 5136TIP3    H136967   0.903   4.961   7.469 -1.0291 -0.0490  1.6507
 5136TIP3    H236968   0.971   4.896   7.588  0.6295 -0.7694  0.3553
 5137TIP3   OH236969   5.696   2.365   1.649 -0.1209  0.1851  0.1139
 5137TIP3    H136970   5.700   2.324   1.562  1.4849  0.4872  0.0063
 5137TIP3    H236971   5.696   2.292   1.710 -2.7097 -0.0930 -0.0890
 5138TIP3   OH236972   3.863   6.655   8.187  0.5212  0.2200 -0.4113
 5138TIP3    H136973   3.836   6.728   8.131 -2.8605 -1.7748 -1.7099
 5138TIP3    H236974   3.824   6.675   8.273  1.2386  0.7811 -0.2021
 5139TIP3   OH236975   5.887   3.765   0.016  0.1659 -0.0663 -0.3716
 5139TIP3    H136976   5.956   3.705  -0.013 -1.3630 -1.2136 -1.9130
 5139TIP3    H236977   5.810   3.737  -0.034 -1.7197  0.3981  2.0996
 5140TIP3   OH236978   3.113   0.965   6.173 -0.5268  0.0187 -0.6169
 5140TIP3    H136979   3.185   0.902   6.175 -1.4718 -1.2616  3.3783
 5140TIP3    H236980   3.045   0.921   6.122 -0.3378 -1.1764  0.1290
 5141TIP3   OH236981   6.532   2.644   6.683 -0.4480 -0.1091  0.0176
 5141TIP3    H136982   6.591   2.717   6.707  2.3155 -1.2568 -2.6491
 5141TIP3    H236983   6.492   2.618   6.766  1.3438  2.0222  1.6845
 5142TIP3   OH236984   6.064   6.702   1.077  0.5778 -0.0662  0.1087
 5142TIP3    H136985   6.130   6.707   1.147  1.3903 -0.9662 -0.5725
 5142TIP3    H236986   6.103   6.644   1.012 -0.3762  0.3882 -0.8807
 5143TIP3   OH236987   2.673   0.420   7.933 -0.2224 -0.0777 -0.5862
 5143TIP3    H136988   2.661   0.327   7.914  0.6406 -0.2474 -0.3295
 5143TIP3    H236989   2.727   0.453   7.862  1.2477 -0.2518  0.4102
 5144TIP3   OH236990   2.330   2.438   7.664  0.4814 -0.4012 -0.5103
 5144TIP3    H136991   2.405   2.399   7.708  0.3185  0.5293  0.6716
 5144TIP3    H236992   2.270   2.365   7.650  1.2781 -1.0217 -0.7832
 5145TIP3   OH236993   2.555   4.218   7.395 -0.3671 -0.0901 -0.3121
 5145TIP3    H136994   2.495   4.187   7.327 -0.5637 -0.8899  0.2226
 5145TIP3    H236995   2.537   4.312   7.400 -0.4213 -0.0315 -1.2918
 5146TIP3   OH236996   4.366   1.207   7.222 -0.1204 -0.2103  0.2883
 5146TIP3    H136997   4.455   1.183   7.249  0.0541  0.6713  0.5419
 5146TIP3    H236998   4.358   1.299   7.246 -0.9367 -0.1468 -0.1873
 5147TIP3   OH236999   2.790   6.155   8.099  1.1627 -0.1608  0.6172
 5147TIP3    H137000   2.714   6.099   8.116  1.2848 -0.6066 -0.2237
 5147TIP3    H237001   2.806   6.201   8.182  0.8014 -1.0639  1.2029
 5148TIP3   OH237002   0.347   3.920   7.448  0.0879  0.1533  0.3947
 5148TIP3    H137003   0.269   3.881   7.409  1.8814 -0.4980 -2.9610
 5148TIP3    H237004   0.375   3.858   7.516 -0.4108 -1.4085 -0.7755
 5149TIP3   OH237005   4.216   3.883   0.244  0.4343 -0.6056 -0.0512
 5149TIP3    H137006   4.158   3.837   0.184  0.8548  0.4384 -1.3056
 5149TIP3    H237007   4.171   3.966   0.260 -0.7651 -1.6789  2.8968
 5150TIP3   OH237008   0.532   3.176   7.207  0.3078 -0.4095 -0.0580
 5150TIP3    H137009   0.518   3.099   7.153  0.9215 -0.1263 -0.6360
 5150TIP3    H237010   0.613   3.158   7.255  0.0681 -0.4237  0.3439
 5151TIP3   OH237011   4.663   5.178   0.415 -0.0276  0.6343 -0.1473
 5151TIP3    H137012   4.625   5.100   0.375  0.4641  0.3552 -0.0820
 5151TIP3    H237013   4.751   5.184   0.377 -0.4759  1.8450 -1.0562
 5152TIP3   OH237014   5.425   4.201   8.636  0.2539  0.3137  0.1504
 5152TIP3    H137015   5.495   4.254   8.675 -0.6289  2.1365 -0.6514
 5152TIP3    H237016   5.411   4.239   8.550  1.6472 -3.1487 -1.8215
 5153TIP3   OH237017   1.567   5.925   7.849  0.8787 -0.0553  0.2236
 5153TIP3    H137018   1.580   6.004   7.900  1.2883 -0.0512  0.1171
 5153TIP3    H237019   1.653   5.881   7.850  0.7726 -0.2756 -0.0864
 5154TIP3   OH237020   3.403   3.422   0.396 -0.0476 -0.3597 -0.0753
 5154TIP3    H137021   3.340   3.355   0.370  0.8828 -1.5812  0.6968
 5154TIP3    H237022   3.389   3.494   0.335 -1.6686 -0.8961 -0.3828
 5155TIP3   OH237023   4.866   5.003   0.327 -0.3420  0.0814 -0.1327
 5155TIP3    H137024   4.856   4.981   0.234 -0.0260 -1.9937  0.2706
 5155TIP3    H237025   4.958   5.027   0.336 -0.1620 -0.5508 -0.2212
 5156TIP3   OH237026   5.853   0.498   2.780 -0.7336  0.0567  0.3255
 5156TIP3    H137027   5.896   0.415   2.762 -0.0985  0.2607  0.8640
 5156TIP3    H237028   5.843   0.539   2.695 -0.7755 -0.4372  0.0897
 5157TIP3   OH237029   0.343   4.410   7.685  0.2667  0.1371 -0.7347
 5157TIP3    H137030   0.297   4.333   7.650  1.3054 -1.5382  1.3541
 5157TIP3    H237031   0.289   4.438   7.759  0.5938  0.6029 -0.6677
 5158TIP3   OH237032   0.553   5.404   7.752 -0.1563 -0.9717 -0.8875
 5158TIP3    H137033   0.631   5.350   7.768  0.2024  0.1721  1.5167
 5158TIP3    H237034   0.585   5.475   7.696  0.0838 -1.4834 -1.4203
 5159TIP3   OH237035   6.840   0.877   0.232 -0.1211 -0.4671 -0.4412
 5159TIP3    H137036   6.899   0.814   0.274  1.2442  0.3614 -1.0471
 5159TIP3    H237037   6.760   0.828   0.218  0.2508 -1.5151  0.8024
 5160TIP3   OH237038   3.114   0.750   6.944 -0.0888 -0.5063  0.4321
 5160TIP3    H137039   3.023   0.723   6.952 -0.3232  0.1317 -0.0031
 5160TIP3    H237040   3.115   0.812   6.871  0.6295 -0.2180  0.6694
 5161TIP3   OH237041   6.853   0.639   0.559  0.0701 -0.7543 -0.2976
 5161TIP3    H137042   6.792   0.702   0.521 -0.4704 -0.0686  1.5841
 5161TIP3    H237043   6.928   0.693   0.585 -0.1136 -0.9776  0.7245
 5162TIP3   OH237044   3.684   6.404   7.864  0.2381  0.0103 -0.4085
 5162TIP3    H137045   3.719   6.374   7.780  1.7302 -1.2688  0.6104
 5162TIP3    H237046   3.698   6.330   7.924 -2.0509  0.3632  0.6740
 5163TIP3   OH237047   3.463   1.956   7.422 -0.1275 -0.8152 -0.0703
 5163TIP3    H137048   3.391   1.960   7.360 -0.5071  1.8322  0.4474
 5163TIP3    H237049   3.458   1.867   7.459 -1.6790 -1.4446 -1.6596
 5164TIP3   OH237050   3.664   6.406   1.484  0.0243  0.3882  0.4783
 5164TIP3    H137051   3.710   6.438   1.406  0.2510  0.8613  0.7983
 5164TIP3    H237052   3.683   6.472   1.551  0.3862 -0.3513  1.1194
 5165TIP3   OH237053   2.306   6.255   7.582  0.2274 -0.3315 -0.5587
 5165TIP3    H137054   2.258   6.179   7.549 -0.4522 -0.4008  0.5244
 5165TIP3    H237055   2.238   6.311   7.620  1.0327 -0.6470  1.4402
 5166TIP3   OH237056   1.635   2.095   0.694  0.1073  0.3713 -0.3318
 5166TIP3    H137057   1.637   2.122   0.786  0.7669  2.1387 -0.8241
 5166TIP3    H237058   1.544   2.109   0.667 -0.4146 -1.4006  0.3552
 5167TIP3   OH237059   2.619   5.890   8.200  0.2986 -0.1404  0.1102
 5167TIP3    H137060   2.681   5.844   8.256  0.7410 -1.0557 -1.0612
 5167TIP3    H237061   2.538   5.893   8.250  1.1399  0.6947  1.4977
 5168TIP3   OH237062   4.978   0.992   6.960 -0.0323 -0.0537  0.4250
 5168TIP3    H137063   5.035   1.067   6.979 -0.5443  0.2217  0.9294
 5168TIP3    H237064   5.035   0.928   6.917  0.1160  1.1582 -1.2813
 5169TIP3   OH237065   0.708   3.970   7.828 -0.9880  0.4276 -0.0947
 5169TIP3    H137066   0.674   4.026   7.897  1.4100  1.4229  0.3918
 5169TIP3    H237067   0.698   4.023   7.748 -0.0686  0.9881  0.1432
 5170TIP3   OH237068   5.012   2.983   7.097  0.0704 -0.5595 -0.4795
 5170TIP3    H137069   5.023   3.077   7.083  0.7694 -0.6276 -0.4009
 5170TIP3    H237070   4.928   2.975   7.142  0.5049  0.1182  0.4728
 5171TIP3   OH237071   2.827   3.647   7.732 -0.0680  0.1179 -0.2716
 5171TIP3    H137072   2.740   3.630   7.694 -0.0545 -1.8485  0.4310
 5171TIP3    H237073   2.808   3.687   7.817 -0.3159 -0.2141 -0.1639
 5172TIP3   OH237074   2.446   6.073   1.504  0.4767 -0.2433 -0.4721
 5172TIP3    H137075   2.400   6.002   1.550  1.3337 -0.9205 -0.6414
 5172TIP3    H237076   2.538   6.062   1.527  0.6163  0.8889 -0.4196
 5173TIP3   OH237077   4.677   3.934   0.913  0.0542 -0.5573  0.0198
 5173TIP3    H137078   4.635   3.912   0.830 -1.3329 -1.6173  0.9277
 5173TIP3    H237079   4.765   3.898   0.906  0.5546  0.8726 -1.6003
 5174TIP3   OH237080   6.314   5.953   0.377  0.4312 -0.1783  0.5162
 5174TIP3    H137081   6.284   5.980   0.290  0.5835  1.6457  0.9854
 5174TIP3    H237082   6.274   5.867   0.391 -0.4897 -0.0106 -0.9044
 5175TIP3   OH237083   2.026   2.291   2.396 -0.2665 -0.0826 -0.2056
 5175TIP3    H137084   2.006   2.207   2.437 -2.3788  1.1417  1.5101
 5175TIP3    H237085   1.965   2.297   2.322  0.0069 -0.1199 -0.4370
 5176TIP3   OH237086   5.333   3.996   8.364  0.4340 -0.6808  0.2710
 5176TIP3    H137087   5.353   4.088   8.382  0.8560 -0.3806 -1.5246
 5176TIP3    H237088   5.241   3.985   8.388 -0.1408  0.6979 -1.1421
 5177TIP3   OH237089   5.531   5.374   0.426 -0.1601  0.4853 -0.0565
 5177TIP3    H137090   5.514   5.366   0.332 -0.0113  0.3876 -0.0759
 5177TIP3    H237091   5.625   5.363   0.434 -0.2968 -0.5307  0.2114
 5178TIP3   OH237092   5.453   2.320   1.175 -0.0095  0.1849  0.0731
 5178TIP3    H137093   5.361   2.340   1.193  0.0906 -1.2338  2.5854
 5178TIP3    H237094   5.450   2.238   1.125 -0.1069  0.0442  0.3087
 5179TIP3   OH237095   0.873   1.951   8.523 -0.5098  0.3577  0.3500
 5179TIP3    H137096   0.789   1.995   8.533 -1.8956 -1.6892 -1.4325
 5179TIP3    H237097   0.872   1.918   8.433  2.3330  0.4653  0.1861
 5180TIP3   OH237098   4.266   1.882   6.006  0.5378 -0.5672 -0.4063
 5180TIP3    H137099   4.267   1.917   5.917  0.9806  0.1300 -0.1368
 5180TIP3    H237100   4.346   1.916   6.046 -0.4718  0.5219  0.7759
 5181TIP3   OH237101   2.364   2.784   1.924  0.4372 -0.7027 -0.1788
 5181TIP3    H137102   2.349   2.857   1.984  0.5712 -0.3305 -0.5934
 5181TIP3    H237103   2.454   2.758   1.941 -0.0102 -1.6309  0.8907
 5182TIP3   OH237104   6.418   6.809   2.464  0.1014  0.2138  0.1642
 5182TIP3    H137105   6.378   6.813   2.551 -2.2488  1.0484 -0.8961
 5182TIP3    H237106   6.352   6.769   2.408  0.8823  1.2651 -1.5990
 5183TIP3   OH237107   1.257   6.687   1.839 -0.1412 -0.0690 -0.6245
 5183TIP3    H137108   1.193   6.728   1.780 -1.5076 -1.0579  0.1218
 5183TIP3    H237109   1.219   6.696   1.926  1.3099  0.3251  0.0078
 5184TIP3   OH237110   5.561   1.223   8.126 -0.0992  0.5911  0.3147
 5184TIP3    H137111   5.479   1.243   8.081  0.4923  0.5445 -0.8465
 5184TIP3    H237112   5.626   1.220   8.055  0.8872  0.5659  1.2033
 5185TIP3   OH237113   3.214   2.207   6.864  0.4204 -0.1340 -0.2729
 5185TIP3    H137114   3.298   2.166   6.888 -0.5701 -0.6661  2.8259
 5185TIP3    H237115   3.229   2.301   6.875  1.6819  0.2305 -3.8857
 5186TIP3   OH237116   3.155   0.045   6.812  0.2097 -0.5976 -0.0794
 5186TIP3    H137117   3.225   0.085   6.760 -0.5529 -0.0145 -0.6676
 5186TIP3    H237118   3.184   0.057   6.903 -0.0778  1.5364 -0.2114
 5187TIP3   OH237119   5.090   4.027   1.657  0.0143  0.1398  0.1778
 5187TIP3    H137120   5.152   3.959   1.631 -0.6947  0.4172 -2.5206
 5187TIP3    H237121   5.144   4.099   1.688  1.3641  1.2034 -4.0317
 5188TIP3   OH237122   5.814   3.644   0.337 -0.4553  0.4532 -0.3007
 5188TIP3    H137123   5.763   3.595   0.272 -0.2675  0.5289 -0.5057
 5188TIP3    H237124   5.905   3.634   0.308 -0.3376  0.1727  0.1579
 5189TIP3   OH237125   3.613   0.088   7.760 -0.3372  0.0083 -0.1108
 5189TIP3    H137126   3.683   0.148   7.786 -2.5726  2.2317  1.1699
 5189TIP3    H237127   3.635   0.006   7.805  2.9551 -0.4231 -2.1456
 5190TIP3   OH237128   3.060   2.922   1.344 -0.3913 -0.1944 -0.0132
 5190TIP3    H137129   3.072   2.963   1.259 -0.6382 -2.2297 -1.1051
 5190TIP3    H237130   3.139   2.945   1.393  0.0434  0.5170 -1.0198
 5191TIP3   OH237131   3.581   3.442   7.788  0.1116  0.0713 -0.1667
 5191TIP3    H137132   3.676   3.439   7.801 -0.0087  0.1120  0.8172
 5191TIP3    H237133   3.545   3.441   7.877 -0.7794  1.0729 -0.4940
 5192TIP3   OH237134   2.624   3.645   1.090  0.0270  0.8893 -0.1656
 5192TIP3    H137135   2.576   3.599   1.022  1.0538  0.2228 -0.4548
 5192TIP3    H237136   2.673   3.577   1.136  1.7911  1.6769 -0.7697
 5193TIP3   OH237137   1.111   3.768   7.049 -0.2700 -0.2700  0.2982
 5193TIP3    H137138   1.031   3.794   7.096 -1.1546 -0.3790 -1.1039
 5193TIP3    H237139   1.103   3.808   6.963  1.2553 -0.2049  0.1554
 5194TIP3   OH237140   6.760   0.227   1.670  0.7082  0.0318  0.6348
 5194TIP3    H137141   6.738   0.164   1.601  3.0206  0.2377 -0.3976
 5194TIP3    H237142   6.856   0.221   1.677  0.7841  2.0112  1.9154
 5195TIP3   OH237143   3.561   3.527   2.116  0.2584 -0.2007  0.2613
 5195TIP3    H137144   3.502   3.459   2.148  0.0278  0.4055  1.1744
 5195TIP3    H237145   3.525   3.609   2.152  2.9515 -0.0266  2.9607
 5196TIP3   OH237146   4.864   3.685   1.781  0.1183  0.4064 -1.2137
 5196TIP3    H137147   4.930   3.665   1.848  1.1999  0.1298 -2.3319
 5196TIP3    H237148   4.911   3.677   1.698 -1.4256 -0.1975 -2.0693
 5197TIP3   OH237149   2.600   4.719   7.291  0.4854  0.5206 -0.7780
 5197TIP3    H137150   2.510   4.750   7.283 -0.0936 -0.7149  0.4296
 5197TIP3    H237151   2.615   4.667   7.212 -0.9326 -1.7006  0.3172
 5198TIP3   OH237152   5.696   3.100   1.293  0.4175  0.3723 -0.0670
 5198TIP3    H137153   5.610   3.121   1.330  0.4654 -2.4470  2.0274
 5198TIP3    H237154   5.742   3.183   1.291 -2.2890  1.9866 -1.2365
 5199TIP3   OH237155   0.186   1.049   1.309  0.6568  0.0369 -0.0586
 5199TIP3    H137156   0.157   0.994   1.381 -1.6032 -1.8688 -2.2597
 5199TIP3    H237157   0.129   1.126   1.312  1.5106  0.6718  0.9299
 5200TIP3   OH237158   5.432   1.029   1.239  0.3284 -0.4743  0.0719
 5200TIP3    H137159   5.402   1.086   1.167 -0.8615  0.2030  1.0558
 5200TIP3    H237160   5.417   1.081   1.318  0.8583 -1.5073  0.8671
 5201TIP3   OH237161   5.784   5.860   1.034 -0.6049 -0.7001  0.1473
 5201TIP3    H137162   5.690   5.853   1.017 -0.6737 -0.5441  0.4539
 5201TIP3    H237163   5.813   5.934   0.982 -1.2143  1.1331  2.2818
 5202TIP3   OH237164   3.840   6.401   0.444 -0.5665 -0.4223  0.2959
 5202TIP3    H137165   3.850   6.368   0.354  1.4032  1.2999 -0.2053
 5202TIP3    H237166   3.830   6.322   0.497 -1.2519 -1.5229 -1.3615
 5203TIP3   OH237167   2.004   2.753   1.207 -0.2104  0.6082  0.2685
 5203TIP3    H137168   2.012   2.834   1.157 -1.6631 -0.2941 -1.5190
 5203TIP3    H237169   1.924   2.712   1.174 -0.1190 -1.0191  1.9336
 5204TIP3   OH237170   1.316   0.467   0.555  0.0971  0.1681 -0.1420
 5204TIP3    H137171   1.295   0.424   0.472 -0.1910 -0.7564  0.3949
 5204TIP3    H237172   1.375   0.538   0.531 -1.7208  1.3370 -1.4194
 5205TIP3   OH237173   4.454   6.084   0.138 -0.2276  0.6070  0.1398
 5205TIP3    H137174   4.523   6.126   0.190 -0.4019  0.0755  0.8172
 5205TIP3    H237175   4.383   6.068   0.201 -1.4108  2.0878 -0.7463
 5206TIP3   OH237176   6.261   5.073   8.205 -0.5735  0.4587  0.5902
 5206TIP3    H137177   6.281   5.009   8.273  1.0367 -0.7357 -0.9179
 5206TIP3    H237178   6.335   5.134   8.205 -0.8772  0.8371  0.3490
 5207TIP3   OH237179   5.799   4.105   6.454  0.0952  0.2060  0.2297
 5207TIP3    H137180   5.813   4.033   6.516 -0.2996  0.3949  0.5469
 5207TIP3    H237181   5.718   4.146   6.484 -0.7580 -0.4367 -1.1128
 5208TIP3   OH237182   5.945   0.606   7.170 -0.5319 -0.2699  0.0885
 5208TIP3    H137183   5.987   0.687   7.199 -0.6797 -0.9961  2.6694
 5208TIP3    H237184   5.861   0.633   7.134  0.2975  0.8626 -1.0627
 5209TIP3   OH237185   6.592   2.548   8.169  0.5084  0.0994 -0.4608
 5209TIP3    H137186   6.519   2.495   8.198  0.7619 -0.0037 -0.0022
 5209TIP3    H237187   6.664   2.486   8.158  0.0104 -0.1424 -2.9103
 5210TIP3   OH237188   1.783   6.278   0.445 -0.2886 -0.2733 -0.9650
 5210TIP3    H137189   1.770   6.277   0.351  0.3557  2.9946 -1.2160
 5210TIP3    H237190   1.698   6.303   0.481 -0.1244  0.1580 -0.8594
 5211TIP3   OH237191   3.442   5.852   0.786 -0.0137 -0.1120 -0.1964
 5211TIP3    H137192   3.415   5.761   0.794 -0.5958 -0.1109 -1.6674
 5211TIP3    H237193   3.527   5.849   0.741 -0.9644  0.0772 -2.1359
 5212TIP3   OH237194   1.251   4.831   0.339 -0.4834 -0.3559 -1.6401
 5212TIP3    H137195   1.161   4.865   0.341 -0.3857 -0.1057 -0.8612
 5212TIP3    H237196   1.251   4.762   0.405 -0.3504 -1.0257 -2.3372
 5213TIP3   OH237197   0.784   2.793   7.736  0.6763  0.8991  0.1386
 5213TIP3    H137198   0.844   2.718   7.740  1.6782  1.7071  0.8635
 5213TIP3    H237199   0.727   2.781   7.812  0.7404  0.7842  0.1705
 5214TIP3   OH237200   2.836   1.083   0.182 -0.8104 -0.2467  0.2245
 5214TIP3    H137201   2.795   1.013   0.234 -0.2568 -0.6940  0.0713
 5214TIP3    H237202   2.807   1.164   0.224 -1.0815 -0.5821  0.6966
 5215TIP3   OH237203   1.370   0.578   1.188 -0.1338 -0.2731  0.4456
 5215TIP3    H137204   1.411   0.655   1.228  0.7681 -0.8611  0.6723
 5215TIP3    H237205   1.442   0.528   1.152 -0.5891 -1.5568  1.2338
 5216TIP3   OH237206   5.138   3.304   8.654  0.1746 -0.5921 -1.0757
 5216TIP3    H137207   5.047   3.274   8.657 -0.5712  1.4953  2.2646
 5216TIP3    H237208   5.132   3.395   8.625  0.9126  0.1300  0.8973
 5217TIP3   OH237209   3.886   2.261   1.165  0.1915  0.5503 -0.1819
 5217TIP3    H137210   3.900   2.167   1.160  3.1592  0.9445 -3.0926
 5217TIP3    H237211   3.839   2.282   1.084  1.9874  1.7823 -0.9780
 5218TIP3   OH237212   0.489   3.108   6.858  0.2717 -0.6129 -0.0392
 5218TIP3    H137213   0.505   3.052   6.934  0.5234  0.3564  0.6445
 5218TIP3    H237214   0.576   3.123   6.820  0.0723 -1.6764 -0.9651
 5219TIP3   OH237215   3.991   6.755   0.662  0.1603 -0.0836 -0.1652
 5219TIP3    H137216   4.043   6.681   0.630  0.1057  0.5376 -1.7452
 5219TIP3    H237217   4.054   6.808   0.712  0.9706  0.4024 -1.6393
 5220TIP3   OH237218   5.191   1.869   1.550 -0.3112 -0.2900  0.2729
 5220TIP3    H137219   5.105   1.826   1.549 -0.8937  0.8375 -1.1545
 5220TIP3    H237220   5.184   1.939   1.485  1.1386  0.9248  1.3569
 5221TIP3   OH237221   4.634   2.756   0.283 -0.0524 -0.2813  0.3993
 5221TIP3    H137222   4.589   2.778   0.365 -0.4897 -0.0065  0.0879
 5221TIP3    H237223   4.577   2.791   0.214 -0.4480 -1.7823 -0.0878
 5222TIP3   OH237224   1.572   1.683   1.230  0.4038  0.2662  0.5175
 5222TIP3    H137225   1.623   1.725   1.300  0.9413 -1.0601  0.9686
 5222TIP3    H237226   1.491   1.654   1.273  0.6892 -0.4579  0.5927
 5223TIP3   OH237227   4.612   2.136   1.092 -0.1755  0.2999  0.2045
 5223TIP3    H137228   4.595   2.073   1.022  1.6153 -0.4297  0.4008
 5223TIP3    H237229   4.526   2.177   1.107 -0.6667  0.3527 -2.2630
 5224TIP3   OH237230   1.086   2.665   8.210  0.8863  0.2177  0.0407
 5224TIP3    H137231   1.027   2.738   8.193  1.3002  0.3933 -0.6811
 5224TIP3    H237232   1.030   2.595   8.242  0.2057  0.1909 -1.1789
 5225TIP3   OH237233   4.528   5.106   0.080 -0.1520  0.2535 -0.0887
 5225TIP3    H137234   4.504   5.017   0.055  1.1817 -0.0105 -0.5269
 5225TIP3    H237235   4.623   5.104   0.083  0.0928  2.3145 -2.7331
 5226TIP3   OH237236   6.275   1.513   7.056 -0.7999 -0.1433 -0.3094
 5226TIP3    H137237   6.348   1.573   7.040  0.5656 -0.7633  2.9646
 5226TIP3    H237238   6.316   1.426   7.063 -2.0859 -0.7515 -0.0029
 5227TIP3   OH237239   0.420   4.244   8.232  0.3941  0.1115 -0.2960
 5227TIP3    H137240   0.388   4.171   8.285  0.6101 -0.2765 -0.6952
 5227TIP3    H237241   0.425   4.318   8.294 -0.0817 -0.1341  0.0466
 5228TIP3   OH237242   5.802   0.064   2.090  0.0433  0.6711 -0.2146
 5228TIP3    H137243   5.880   0.027   2.049  0.9261  2.3932 -0.2011
 5228TIP3    H237244   5.836   0.123   2.157 -1.2932  0.8452  0.3362
 5229TIP3   OH237245   6.398   5.503   1.782  0.5717 -0.3386  0.6292
 5229TIP3    H137246   6.364   5.485   1.870 -1.9569 -0.9145 -0.3828
 5229TIP3    H237247   6.456   5.429   1.764  0.7477 -0.4570  1.6237
 5230TIP3   OH237248   4.430   5.732   6.926 -0.1577  0.2895  0.1879
 5230TIP3    H137249   4.475   5.760   7.006  0.2433  0.4922 -0.1037
 5230TIP3    H237250   4.441   5.805   6.865  0.4046 -0.2644 -0.3905
 5231TIP3   OH237251   5.470   3.600   6.582  0.0224  0.0640  0.0983
 5231TIP3    H137252   5.549   3.551   6.604 -1.2626 -0.3715  4.4937
 5231TIP3    H237253   5.499   3.692   6.580  1.0274 -0.2570 -0.6847
 5232TIP3   OH237254   4.685   4.534   0.554 -0.2108 -0.7360  0.3243
 5232TIP3    H137255   4.779   4.517   0.545 -0.1418 -1.2114  1.7391
 5232TIP3    H237256   4.644   4.475   0.490  0.3798 -1.6209  0.7372
 5233TIP3   OH237257   5.349   0.595   0.216  0.1581 -0.1529 -0.2127
 5233TIP3    H137258   5.399   0.576   0.136  5.0298  2.2139  1.8569
 5233TIP3    H237259   5.325   0.688   0.207  2.3904  0.6949  1.6124
 5234TIP3   OH237260   2.009   4.857   0.478  0.1919  0.3241 -0.3478
 5234TIP3    H137261   1.981   4.789   0.417 -1.6523 -0.3311  1.1455
 5234TIP3    H237262   1.969   4.937   0.445 -1.2749 -0.1286  0.2655
 5235TIP3   OH237263   0.787   1.085   0.576 -0.2673  0.0649  0.4163
 5235TIP3    H137264   0.696   1.107   0.597 -0.2371  1.5070 -0.7583
 5235TIP3    H237265   0.837   1.161   0.604  0.4954 -0.4227  0.3998
 5236TIP3   OH237266   2.773   3.039   0.455 -0.0233  0.1942  0.3964
 5236TIP3    H137267   2.709   2.973   0.482 -0.2098 -0.0471 -0.5902
 5236TIP3    H237268   2.732   3.083   0.381  0.1289  1.3864  1.0049
 5237TIP3   OH237269   5.809   2.953   7.984  0.2618 -0.7805 -0.2548
 5237TIP3    H137270   5.734   2.979   8.037  0.2262  0.8148 -1.0227
 5237TIP3    H237271   5.870   2.914   8.045 -0.6006 -0.7870  0.6203
 5238TIP3   OH237272   6.778   1.300   8.564 -0.0425 -0.0699 -0.0883
 5238TIP3    H137273   6.773   1.239   8.490  2.7308 -1.4002  0.6632
 5238TIP3    H237274   6.872   1.315   8.576 -0.5240  2.0077  1.6902
 5239TIP3   OH237275   2.568   6.318   7.747 -0.5783  0.0146 -0.0646
 5239TIP3    H137276   2.593   6.382   7.680 -0.9987 -0.7599 -0.9984
 5239TIP3    H237277   2.641   6.317   7.808  2.5501 -3.1412 -3.3540
 5240TIP3   OH237278   3.649   2.307   8.378  0.0952 -0.1349  0.4922
 5240TIP3    H137279   3.657   2.293   8.284  0.0218 -0.5800  0.5482
 5240TIP3    H237280   3.667   2.221   8.417  0.5868  0.1543  0.9116
 5241TIP3   OH237281   2.040   2.848   8.405  0.7410 -0.9058  0.4422
 5241TIP3    H137282   2.086   2.903   8.469 -1.2531  0.1652  1.0493
 5241TIP3    H237283   2.098   2.774   8.390  2.8290  0.5677  0.8247
 5242TIP3   OH237284   1.431   6.375   1.281 -0.2416  0.1874  0.3327
 5242TIP3    H137285   1.370   6.334   1.219  0.6106  0.8930 -1.0448
 5242TIP3    H237286   1.495   6.420   1.225  2.9285 -2.3607  1.5661
 5243TIP3   OH237287   0.249   6.759   1.668 -0.1220  0.4675  0.0285
 5243TIP3    H137288   0.200   6.838   1.643 -0.4296  0.4891  0.6613
 5243TIP3    H237289   0.330   6.793   1.707  0.8117  0.4165 -1.7937
 5244TIP3   OH237290   4.493   4.705   7.933  0.4567  0.4052 -0.4135
 5244TIP3    H137291   4.408   4.670   7.961  1.4075 -1.6933  0.0524
 5244TIP3    H237292   4.483   4.800   7.938 -2.0674  0.2368 -1.0440
 5245TIP3   OH237293   3.423   2.717   8.406 -0.1132  0.3449  0.0695
 5245TIP3    H137294   3.436   2.629   8.441 -2.8635 -1.0366 -2.0048
 5245TIP3    H237295   3.410   2.773   8.483 -2.3306 -1.8282  1.3831
 5246TIP3   OH237296   0.409   3.574   1.885  0.2779  0.0123  0.0547
 5246TIP3    H137297   0.487   3.527   1.914  0.3342  0.0992  0.0485
 5246TIP3    H237298   0.399   3.645   1.948  0.8189  0.6304 -0.5335
 5247TIP3   OH237299   3.660   5.680   8.379  1.0827  0.4718 -0.0467
 5247TIP3    H137300   3.577   5.647   8.412  1.3331 -0.8876 -0.6921
 5247TIP3    H237301   3.684   5.750   8.439  0.9090 -1.0608  1.9296
 5248TIP3   OH237302   1.515   4.241   0.428  0.2668 -0.2126  0.3868
 5248TIP3    H137303   1.509   4.251   0.523 -1.2221 -1.8442  0.5252
 5248TIP3    H237304   1.425   4.254   0.397  0.3587 -1.6040 -0.5594
 5249TIP3   OH237305   3.233   1.638   0.541 -0.3743 -0.2068 -0.5949
 5249TIP3    H137306   3.253   1.605   0.453 -0.6914  1.2649 -1.2530
 5249TIP3    H237307   3.318   1.660   0.579 -0.3563  1.9042 -1.7001
 5250TIP3   OH237308   3.047   3.599   1.093 -0.1498  0.1831 -0.1127
 5250TIP3    H137309   3.008   3.659   1.157  1.3717  1.0983  0.0231
 5250TIP3    H237310   3.125   3.645   1.062  0.5132 -1.3136 -0.7736
 5251TIP3   OH237311   0.181   6.407   0.321 -0.1913 -0.9416  0.6490
 5251TIP3    H137312   0.272   6.427   0.343 -0.0410 -1.4599  0.5190
 5251TIP3    H237313   0.152   6.481   0.268  0.6556 -1.5026 -0.6483
 5252TIP3   OH237314   5.100   6.626   8.119  0.5519  0.1937  0.3451
 5252TIP3    H137315   5.008   6.612   8.093  0.6708  1.3286 -0.7432
 5252TIP3    H237316   5.143   6.543   8.099 -0.1657 -0.2377  0.5529
 5253TIP3   OH237317   3.733   1.336   1.573 -0.2396  0.4289  0.8270
 5253TIP3    H137318   3.726   1.381   1.489  2.0330  0.5932  0.6687
 5253TIP3    H237319   3.680   1.257   1.563  1.1242 -0.2764 -1.2820
 5254TIP3   OH237320   0.591   2.597   7.998  0.0985 -0.7847 -0.6245
 5254TIP3    H137321   0.610   2.691   7.987  0.5760 -1.0115 -1.8511
 5254TIP3    H237322   0.497   2.594   8.018  0.7548  0.2274  3.7586
 5255TIP3   OH237323   4.273   1.430   1.627  0.2627 -0.0420  0.0178
 5255TIP3    H137324   4.314   1.380   1.698  0.0859  0.5596  0.5515
 5255TIP3    H237325   4.200   1.375   1.598  0.0899 -0.1165  0.5770
 5256TIP3   OH237326   5.196   6.097   7.476 -0.1359  0.5734 -0.1307
 5256TIP3    H137327   5.143   6.145   7.540 -0.8027 -0.5277  0.1797
 5256TIP3    H237328   5.264   6.054   7.528 -1.5051 -1.4652  0.1020
 5257TIP3   OH237329   0.651   0.966   0.947  0.0616  0.6140 -0.3754
 5257TIP3    H137330   0.582   1.031   0.959 -1.5047 -1.2824  1.8328
 5257TIP3    H237331   0.711   0.980   1.020 -0.0015 -0.0754 -0.1852
 5258TIP3   OH237332   1.572   5.347   8.251  0.1933  0.1026  0.9001
 5258TIP3    H137333   1.604   5.257   8.237  0.0853  0.2403 -0.3564
 5258TIP3    H237334   1.484   5.347   8.213  0.0963  0.6707  1.1232
 5259TIP3   OH237335   0.732   4.852   7.891  0.4079 -0.3758  0.3886
 5259TIP3    H137336   0.688   4.931   7.860 -2.3043 -1.8387  0.1239
 5259TIP3    H237337   0.793   4.829   7.821 -0.5621  0.1861 -0.6850
 5260TIP3   OH237338   5.604   1.904   1.874  0.2332 -0.1627  0.2793
 5260TIP3    H137339   5.663   1.915   1.948  1.8237  1.9278 -1.1891
 5260TIP3    H237340   5.633   1.823   1.831  1.5756  0.4384  0.0152
 5261TIP3   OH237341   0.474   6.687   8.448 -0.2389  0.1094 -0.6002
 5261TIP3    H137342   0.432   6.772   8.456 -0.0079  0.4881 -2.7673
 5261TIP3    H237343   0.564   6.707   8.420  0.5320 -0.7923  1.1010
 5262TIP3   OH237344   3.214   5.685   1.872  0.7962 -0.5279  0.1777
 5262TIP3    H137345   3.303   5.720   1.873  0.0091  1.9311 -2.5526
 5262TIP3    H237346   3.194   5.673   1.779 -1.6153 -1.4178  0.7288
 5263TIP3   OH237347   0.082   1.044   8.591  0.0858 -0.2917  0.5587
 5263TIP3    H137348   0.032   1.066   8.670  0.6208  1.9267  0.3670
 5263TIP3    H237349   0.113   0.955   8.606 -1.5009 -0.6768  1.9417
 5264TIP3   OH237350   4.836   2.664   0.124  0.0532  0.1569  0.2255
 5264TIP3    H137351   4.908   2.663   0.187  1.4063 -0.4035 -1.2580
 5264TIP3    H237352   4.759   2.689   0.175  1.1025 -0.2259  2.0689
 5265TIP3   OH237353   0.219   1.047   7.592  0.0334 -0.0871 -0.1187
 5265TIP3    H137354   0.170   1.105   7.650 -0.5663  0.8544 -1.5213
 5265TIP3    H237355   0.159   1.030   7.520 -0.2338 -3.3811  0.7371
 5266TIP3   OH237356   4.115   0.493   6.477 -0.1774 -0.3402 -0.4600
 5266TIP3    H137357   4.120   0.418   6.538  0.6276 -0.3906 -0.5787
 5266TIP3    H237358   4.024   0.495   6.450 -1.3337  1.4322  2.9398
 5267TIP3   OH237359   0.009   3.490   1.493  0.0563  0.1255  0.6420
 5267TIP3    H137360   0.002   3.536   1.577 -0.4005  1.6256 -0.1696
 5267TIP3    H237361  -0.015   3.556   1.428 -1.5563 -1.5510 -0.5563
 5268TIP3   OH237362   2.784   5.322   8.430  0.3998  0.3961  0.3500
 5268TIP3    H137363   2.818   5.319   8.519 -0.2402 -2.3488  0.5797
 5268TIP3    H237364   2.856   5.359   8.378  1.4228  0.4306  1.7412
 5269TIP3   OH237365   5.250   6.316   2.405 -0.2612 -0.4621  0.3821
 5269TIP3    H137366   5.203   6.340   2.484  0.4939  0.5030  0.5695
 5269TIP3    H237367   5.341   6.340   2.423 -0.3512  1.6069 -1.4281
 5270TIP3   OH237368   4.190   6.682   8.075 -0.1647 -0.2651 -0.5786
 5270TIP3    H137369   4.178   6.640   8.160  2.2674  1.7052  0.8656
 5270TIP3    H237370   4.206   6.610   8.014  0.2583 -1.6002  1.0581
 5271TIP3   OH237371   4.444   2.664   1.923  0.1196  0.1296 -0.1228
 5271TIP3    H137372   4.403   2.684   1.839 -0.0715  0.0993 -0.0381
 5271TIP3    H237373   4.376   2.617   1.972  0.2206  0.1689  0.0564
 5272TIP3   OH237374   2.655   3.538   0.658  0.0849  0.5327  0.2757
 5272TIP3    H137375   2.605   3.523   0.738 -0.1262 -0.7397 -0.0657
 5272TIP3    H237376   2.712   3.461   0.651 -2.9681 -1.7252 -3.0679
 5273TIP3   OH237377   0.679   6.628   0.309 -0.4480  0.3013  0.2068
 5273TIP3    H137378   0.691   6.547   0.259 -1.7921 -0.1667  0.5798
 5273TIP3    H237379   0.628   6.685   0.251  2.9331  2.1540 -1.2744
 5274TIP3   OH237380   5.991   2.825   7.378  0.3927  0.2539  0.1257
 5274TIP3    H137381   6.069   2.771   7.386  0.5849  0.6091  0.7376
 5274TIP3    H237382   5.955   2.804   7.292 -0.4591 -2.0862  0.9758
 5275TIP3   OH237383   1.853   0.187   6.240 -0.4111 -0.0700 -0.1938
 5275TIP3    H137384   1.942   0.219   6.229 -0.7515  1.2956  0.6559
 5275TIP3    H237385   1.799   0.267   6.240 -1.7342 -0.9064 -1.4858
 5276TIP3   OH237386   2.436   1.602   7.624 -0.1740  0.5426  0.1124
 5276TIP3    H137387   2.496   1.663   7.582  0.5847  0.9032  1.6447
 5276TIP3    H237388   2.438   1.626   7.716 -1.5314 -0.4226  0.4262
 5277TIP3   OH237389   5.651   6.065   2.504  0.8792  0.9795  0.4320
 5277TIP3    H137390   5.585   6.002   2.530  1.0197  0.8653  0.5122
 5277TIP3    H237391   5.709   6.017   2.445  1.9070  0.5656  1.7304
 5278TIP3   OH237392   1.404   0.218   8.423  0.1161  0.5617  0.2234
 5278TIP3    H137393   1.473   0.198   8.486  1.5126  0.6415 -1.2074
 5278TIP3    H237394   1.343   0.274   8.470 -1.6096 -3.2134  3.0358
 5279TIP3   OH237395   0.324   0.471   0.555  0.3109  0.0238  0.1915
 5279TIP3    H137396   0.327   0.557   0.515 -0.1425 -0.5244 -1.0636
 5279TIP3    H237397   0.415   0.440   0.553  0.5111  0.5489  0.8544
 5280TIP3   OH237398   1.795   1.320   1.987  0.4910  0.3268 -0.3529
 5280TIP3    H137399   1.767   1.237   1.949 -1.5246  0.7993 -0.0011
 5280TIP3    H237400   1.865   1.297   2.048 -0.5372 -1.2293  0.2861
 5281TIP3   OH237401   1.095   3.794   2.297 -0.1893 -0.0143 -0.6172
 5281TIP3    H137402   1.124   3.751   2.377 -0.5493 -0.8503 -0.9223
 5281TIP3    H237403   1.006   3.823   2.316 -0.0377  0.3684 -0.4952
 5282TIP3   OH237404   3.792   3.654   2.071  0.4806 -0.7454  0.7204
 5282TIP3    H137405   3.712   3.602   2.078  0.1668 -0.3505  0.1524
 5282TIP3    H237406   3.794   3.683   1.980  0.9335 -0.2193  0.8927
 5283TIP3   OH237407   0.224   1.809   1.232  0.0068 -0.0495  0.7128
 5283TIP3    H137408   0.199   1.807   1.325 -0.2329  0.5104  0.6685
 5283TIP3    H237409   0.154   1.860   1.190  0.4355  0.2317  0.3313
 5284TIP3   OH237410   6.606   3.474   6.839  0.4568 -0.3405 -0.1007
 5284TIP3    H137411   6.578   3.447   6.751  1.0414 -1.9599  0.1758
 5284TIP3    H237412   6.700   3.491   6.830  0.5597 -0.7070  0.2507
 5285TIP3   OH237413   5.155   4.836   1.245  0.6648 -0.1520 -0.2682
 5285TIP3    H137414   5.167   4.820   1.151  0.7036 -1.4633 -0.0517
 5285TIP3    H237415   5.244   4.833   1.281  0.4982 -1.3809  0.0614
 5286TIP3   OH237416   0.827   0.332   0.796  0.0139 -0.4059  0.5107
 5286TIP3    H137417   0.900   0.359   0.739 -0.6389  0.3207 -0.0106
 5286TIP3    H237418   0.866   0.324   0.883  0.7662 -0.2682  0.1926
 5287TIP3   OH237419   5.854   1.808   7.584  0.0306 -0.4845  0.0895
 5287TIP3    H137420   5.850   1.717   7.554 -1.1845 -0.5384  0.3519
 5287TIP3    H237421   5.786   1.853   7.533 -0.4338 -0.0696  1.0533
 5288TIP3   OH237422   2.947   6.397   1.103  0.0063  0.3841 -0.2613
 5288TIP3    H137423   2.864   6.351   1.109  0.2885  0.0590  1.9954
 5288TIP3    H237424   3.000   6.344   1.044 -1.1134  0.2036 -1.1423
 5289TIP3   OH237425   1.749   5.224   7.370 -0.0808  0.0845 -0.0944
 5289TIP3    H137426   1.721   5.191   7.455  0.8098  1.2900  0.7014
 5289TIP3    H237427   1.806   5.156   7.335  0.8299  0.2451  1.0146
 5290TIP3   OH237428   2.549   2.466   8.242  0.3277 -0.2998 -0.2644
 5290TIP3    H137429   2.584   2.494   8.157  1.0772 -0.0530  0.1223
 5290TIP3    H237430   2.475   2.409   8.219  0.2328  0.1324 -1.0747
 5291TIP3   OH237431   3.756   3.932   8.196  0.0281 -0.7026  0.0805
 5291TIP3    H137432   3.792   4.021   8.200 -0.2428 -0.6406  1.8753
 5291TIP3    H237433   3.703   3.932   8.117  1.1708  0.2809 -0.7334
 5292TIP3   OH237434   3.562   6.709   1.558 -0.0793  0.1199  0.3047
 5292TIP3    H137435   3.657   6.701   1.562  0.0594  1.8666  2.0826
 5292TIP3    H237436   3.540   6.766   1.631 -2.5226 -0.3066 -0.0189
 5293TIP3   OH237437   2.895   0.820   2.430 -0.2382 -0.0514  0.4357
 5293TIP3    H137438   2.978   0.801   2.387  0.9439  0.4266  2.3795
 5293TIP3    H237439   2.851   0.735   2.435 -0.5568 -0.0873 -1.8584
 5294TIP3   OH237440   3.425   1.871   1.832 -0.0440  0.1628 -0.4843
 5294TIP3    H137441   3.424   1.955   1.786  0.8077  0.0386 -0.7534
 5294TIP3    H237442   3.518   1.858   1.854 -0.5969  1.2276  3.1005
 5295TIP3   OH237443   1.657   5.914   7.164 -0.0882  0.3301  0.2092
 5295TIP3    H137444   1.591   5.846   7.151 -0.7678  1.1626 -0.8201
 5295TIP3    H237445   1.738   5.866   7.180 -0.3354 -0.7659 -1.5699
 5296TIP3   OH237446   5.296   6.565   2.737  0.3776 -0.5372 -0.4288
 5296TIP3    H137447   5.270   6.646   2.781 -1.2671 -0.8815 -0.7000
 5296TIP3    H237448   5.218   6.510   2.740  1.1009 -1.6543 -1.3046
 5297TIP3   OH237449   2.926   6.389   7.172  0.8180 -0.6037  0.0308
 5297TIP3    H137450   2.896   6.353   7.089  0.7509  1.4075 -0.8614
 5297TIP3    H237451   3.002   6.335   7.195  1.9904 -0.0512 -2.3008
 5298TIP3   OH237452   0.869   3.671   0.076  0.4113 -0.3747  0.0874
 5298TIP3    H137453   0.871   3.715   0.161 -1.4368  0.0441 -0.0448
 5298TIP3    H237454   0.834   3.584   0.096  1.0335 -0.6798 -0.1137
 5299TIP3   OH237455   3.206   5.628   1.598  0.0198 -0.4432  0.7040
 5299TIP3    H137456   3.254   5.658   1.520 -0.2307 -0.5978  0.4882
 5299TIP3    H237457   3.264   5.564   1.639 -0.4114 -1.3815 -0.1069
 5300TIP3   OH237458   4.160   3.469   8.416  0.1381  0.4387 -0.2830
 5300TIP3    H137459   4.068   3.489   8.401 -0.7525 -1.9647  1.4212
 5300TIP3    H237460   4.167   3.452   8.510  1.9162 -1.1628 -0.6282
 5301TIP3   OH237461   5.437   1.566   7.290  0.0500  0.2231 -0.2671
 5301TIP3    H137462   5.530   1.587   7.280  1.0322 -3.5209 -0.3051
 5301TIP3    H237463   5.405   1.555   7.201  0.3958 -1.3944 -0.2172
 5302TIP3   OH237464   5.943   0.280   2.645 -0.3869 -0.2046 -0.1838
 5302TIP3    H137465   5.919   0.250   2.732  0.4324  1.9899  0.8864
 5302TIP3    H237466   5.864   0.270   2.593 -1.8072  1.1257  1.6038
 5303TIP3   OH237467   6.529   2.459   0.338 -0.1554 -0.9030 -0.1049
 5303TIP3    H137468   6.622   2.451   0.315 -0.1950 -0.8383 -0.2927
 5303TIP3    H237469   6.496   2.527   0.279  0.3409  1.2085  1.9122
 5304TIP3   OH237470   4.249   6.637   8.362 -0.1091 -0.3221 -0.0971
 5304TIP3    H137471   4.220   6.668   8.447 -0.1852 -0.7212  0.0233
 5304TIP3    H237472   4.242   6.541   8.367  2.1518 -0.5293  0.3049
 5305TIP3   OH237473   1.948   2.594   6.988 -0.1929 -0.4283  0.4637
 5305TIP3    H137474   1.981   2.561   6.904  0.3943  0.8644  0.1616
 5305TIP3    H237475   1.983   2.533   7.053  1.6973  0.1137  0.0197
 5306TIP3   OH237476   4.430   6.233   1.283 -0.1000  0.6067  0.0613
 5306TIP3    H137477   4.381   6.250   1.202  0.5281  1.4917 -0.1565
 5306TIP3    H237478   4.365   6.202   1.345 -0.1991 -2.8585 -1.5586
 5307TIP3   OH237479   5.303   3.768   1.420 -0.0114 -0.4627  0.2048
 5307TIP3    H137480   5.312   3.863   1.408  0.3265 -0.3944  0.9587
 5307TIP3    H237481   5.267   3.737   1.337  0.9431  0.1712 -0.4640
 5308TIP3   OH237482   4.665   4.412   7.668 -0.0266  0.9457  0.6370
 5308TIP3    H137483   4.734   4.399   7.603  0.7858  1.8989  1.2605
 5308TIP3    H237484   4.614   4.486   7.635 -0.0362  0.9847  0.7365
 5309TIP3   OH237485   4.608   5.967   1.345 -0.5653 -0.2118  0.5453
 5309TIP3    H137486   4.545   5.896   1.356 -2.2442  0.8568 -1.5196
 5309TIP3    H237487   4.560   6.046   1.366  0.6606  0.5085  0.7543
 5310TIP3   OH237488   1.526   6.672   1.826  0.5982  0.0349  0.0067
 5310TIP3    H137489   1.434   6.680   1.852  0.2333 -0.6647 -1.0240
 5310TIP3    H237490   1.558   6.596   1.876  0.0870 -0.8811 -1.0201
 5311TIP3   OH237491   1.360   5.166   0.372  0.2696  0.6656 -0.0043
 5311TIP3    H137492   1.305   5.191   0.297 -0.3318 -1.3423 -0.3052
 5311TIP3    H237493   1.449   5.165   0.337 -0.1542 -1.8939 -1.2777
 5312TIP3   OH237494   1.213   3.453   1.238  0.0505  0.1970  0.6062
 5312TIP3    H137495   1.293   3.429   1.286  0.3606 -0.7662 -0.3500
 5312TIP3    H237496   1.241   3.522   1.178  0.0006  0.3427  0.7486
 5313TIP3   OH237497   4.273   2.730   1.696 -1.0503 -0.1939 -0.0668
 5313TIP3    H137498   4.263   2.825   1.705  0.1776 -0.0531 -0.0570
 5313TIP3    H237499   4.199   2.694   1.744 -1.5346  0.7600 -0.0695
 5314TIP3   OH237500   6.426   1.577   2.415  0.4504 -0.2304 -0.2181
 5314TIP3    H137501   6.387   1.575   2.328  1.2984 -0.7622 -0.6017
 5314TIP3    H237502   6.354   1.603   2.474  0.2877  1.9880 -1.2816
 5315TIP3   OH237503   6.405   4.038   1.798 -0.2593 -0.1666  0.4468
 5315TIP3    H137504   6.497   4.061   1.816 -0.0249 -1.4872  0.9932
 5315TIP3    H237505   6.390   4.071   1.709  0.1584  1.7331  1.0253
 5316TIP3   OH237506   4.266   1.935   0.433  0.1653  0.2863 -0.5574
 5316TIP3    H137507   4.315   1.880   0.495  1.7265  2.3447  0.1743
 5316TIP3    H237508   4.311   1.923   0.350 -0.2331 -0.3915 -0.6867
 5317TIP3   OH237509   4.951   5.946   8.267  0.0394 -0.3017 -0.0762
 5317TIP3    H137510   5.045   5.956   8.246 -0.3593  1.2530 -1.3727
 5317TIP3    H237511   4.923   5.872   8.214  0.5426 -0.7833  0.3267
 5318TIP3   OH237512   0.443   0.979   1.256 -0.3985  0.4337  0.0090
 5318TIP3    H137513   0.441   0.939   1.169 -0.1257  1.0555 -0.2912
 5318TIP3    H237514   0.352   0.997   1.277 -0.6264 -1.2123  0.5696
 5319TIP3   OH237515   0.258   5.974   7.335  0.7247  0.4201  0.2075
 5319TIP3    H137516   0.191   6.029   7.293 -0.7676 -0.0734  1.8384
 5319TIP3    H237517   0.263   6.007   7.425 -0.6936 -2.4260  1.4435
 5320TIP3   OH237518   1.041   1.735   6.838 -0.6508 -0.0931  0.1674
 5320TIP3    H137519   1.108   1.729   6.771 -0.1327  1.7659  0.4567
 5320TIP3    H237520   1.023   1.644   6.864 -1.4593 -0.9604 -3.0037
 5321TIP3   OH237521   1.077   4.314   0.952  0.0807  0.4701  0.8074
 5321TIP3    H137522   1.078   4.362   0.869  0.1338 -1.3632 -0.2950
 5321TIP3    H237523   1.158   4.341   0.996  1.0010  0.0955 -0.5830
 5322TIP3   OH237524   3.105   5.800   1.326 -0.1030 -0.1871  0.0926
 5322TIP3    H137525   3.034   5.769   1.381 -0.8813  1.1676 -0.0945
 5322TIP3    H237526   3.063   5.861   1.265  1.1488  0.3555 -0.2678
 5323TIP3   OH237527   2.376   5.969   2.145 -0.3662 -0.1486  0.0257
 5323TIP3    H137528   2.368   6.053   2.189 -1.8587  0.2522 -0.9784
 5323TIP3    H237529   2.443   5.922   2.196 -1.9434  0.3007  2.6909
 5324TIP3   OH237530   3.383   4.423   1.614 -0.0030 -0.0323 -0.2224
 5324TIP3    H137531   3.312   4.423   1.678 -0.0854 -1.8462 -0.2859
 5324TIP3    H237532   3.397   4.331   1.593  1.8164  0.3432 -0.8333
 5325TIP3   OH237533   1.225   6.415   8.394 -0.0945 -0.3531  0.3549
 5325TIP3    H137534   1.262   6.384   8.311 -0.4534  0.4431 -0.1188
 5325TIP3    H237535   1.291   6.393   8.460  0.9943  0.5470 -0.3871
 5326TIP3   OH237536   4.437   3.170   2.456  0.4648  0.0157 -0.1649
 5326TIP3    H137537   4.351   3.148   2.420  0.5620 -1.3569  0.3546
 5326TIP3    H237538   4.437   3.265   2.464 -0.5582  0.1249 -1.2557
 5327TIP3   OH237539   5.928   5.527   1.963  0.5575  0.3092 -0.1277
 5327TIP3    H137540   5.852   5.481   1.926 -0.3651  0.6342  1.2741
 5327TIP3    H237541   5.896   5.562   2.046  1.9510  1.3890 -0.0185
 5328TIP3   OH237542   3.976   4.755   2.115  0.2505  0.0887  0.3087
 5328TIP3    H137543   4.023   4.679   2.150 -0.3426 -0.9000 -0.9623
 5328TIP3    H237544   3.905   4.770   2.178 -0.1802 -0.9997  0.1011
 5329TIP3   OH237545   4.513   6.737   7.047  0.6862 -0.8041 -0.6513
 5329TIP3    H137546   4.573   6.810   7.060 -0.2072 -0.4393  2.4780
 5329TIP3    H237547   4.446   6.770   6.988  0.3674  0.9589  0.6207
 5330TIP3   OH237548   3.887   6.838   0.985  0.3698 -0.0867 -0.0682
 5330TIP3    H137549   3.871   6.844   1.080  1.3277  2.8648  0.0149
 5330TIP3    H237550   3.979   6.862   0.975 -0.5159  3.0404 -1.9122
 5331TIP3   OH237551   0.154   4.929   6.794  0.3310  0.3283  0.1222
 5331TIP3    H137552   0.096   4.878   6.851  0.0074  2.1624  1.5204
 5331TIP3    H237553   0.225   4.868   6.771 -1.5936 -1.6793 -0.8684
 5332TIP3   OH237554   0.037   4.884   1.947  0.0302  0.5011  0.1695
 5332TIP3    H137555   0.108   4.938   1.913  1.2086  0.0662  1.8067
 5332TIP3    H237556   0.080   4.822   2.006 -1.5710 -0.6304  0.2218
 5333TIP3   OH237557   3.779   0.209   1.771  0.0996  0.1956 -0.8039
 5333TIP3    H137558   3.770   0.258   1.853  0.5319  0.2296 -0.7780
 5333TIP3    H237559   3.692   0.215   1.731  0.0596  0.7109 -0.6461
 5334TIP3   OH237560   6.810   2.668   1.292  0.2387 -0.3039  0.4829
 5334TIP3    H137561   6.729   2.661   1.242  0.1615 -0.2696  0.6016
 5334TIP3    H237562   6.848   2.752   1.265 -1.3161  1.2295  2.6813
 5335TIP3   OH237563   5.174   3.044   6.816 -0.1310  0.5241  0.1458
 5335TIP3    H137564   5.110   3.088   6.760  0.1615 -0.3154 -0.8740
 5335TIP3    H237565   5.176   2.954   6.784  3.8773  1.1659 -2.1013
 5336TIP3   OH237566   3.213   2.996   7.964  0.1296 -0.6922  0.9562
 5336TIP3    H137567   3.124   2.982   7.931  0.7263  0.9004 -1.5257
 5336TIP3    H237568   3.266   2.931   7.918  0.7579  0.6235 -0.2331
 5337TIP3   OH237569   0.262   4.683   0.871 -0.3122 -0.3189 -0.1439
 5337TIP3    H137570   0.357   4.667   0.876 -0.2344  0.0320 -0.4345
 5337TIP3    H237571   0.232   4.676   0.961  0.0362 -0.1594 -0.0133
 5338TIP3   OH237572   2.367   6.695   7.269 -0.1052  0.1361 -0.8889
 5338TIP3    H137573   2.455   6.725   7.247  0.1049  1.0345  1.0304
 5338TIP3    H237574   2.380   6.621   7.327 -0.5946  0.8690  0.1786
 5339TIP3   OH237575   6.779   6.772   6.390  0.1553  0.9805  0.1578
 5339TIP3    H137576   6.807   6.849   6.340  1.8309  0.0429 -0.4312
 5339TIP3    H237577   6.741   6.808   6.470  1.6210  2.4297  0.2671
 5340TIP3   OH237578   4.319   4.419   0.063  0.6819  0.0274 -0.1502
 5340TIP3    H137579   4.375   4.496   0.072 -0.3859  0.7093  0.9740
 5340TIP3    H237580   4.232   4.449   0.090  0.4940 -1.8498  1.5453
 5341TIP3   OH237581   6.672   5.190   8.205  0.4856 -0.1784  0.0862
 5341TIP3    H137582   6.710   5.150   8.283  1.4566  0.7580  0.1086
 5341TIP3    H237583   6.702   5.135   8.133  0.9558 -0.0975  0.2159
 5342TIP3   OH237584   5.129   4.380   8.010  0.2768  0.0975 -0.0436
 5342TIP3    H137585   5.170   4.443   8.069  1.2451 -0.1083 -0.4788
 5342TIP3    H237586   5.045   4.420   7.988 -0.3430 -0.0526  1.8594
 5343TIP3   OH237587   3.145   5.511   2.077 -0.1071  0.6079 -0.0443
 5343TIP3    H137588   3.125   5.588   2.130  0.3314  1.1231 -0.6125
 5343TIP3    H237589   3.171   5.546   1.992 -0.8818 -0.2124 -0.6340
 5344TIP3   OH237590   1.121   4.237   1.347 -0.8757  0.6275 -0.2428
 5344TIP3    H137591   1.029   4.209   1.350 -0.6839 -0.1220 -0.9752
 5344TIP3    H237592   1.118   4.326   1.313 -1.3376  0.6138 -0.2471
 5345TIP3   OH237593   3.095   3.145   7.495  0.0496 -0.5453 -0.4678
 5345TIP3    H137594   3.000   3.142   7.485 -0.0418  0.5928 -0.1536
 5345TIP3    H237595   3.109   3.199   7.573  0.9794  0.8114 -1.5304
 5346TIP3   OH237596   3.436   0.261   0.603  0.5529 -0.4824  0.4125
 5346TIP3    H137597   3.395   0.272   0.517 -0.3326  0.2103  0.9081
 5346TIP3    H237598   3.486   0.179   0.595  0.2401 -0.5905 -0.6591
 5347TIP3   OH237599   5.944   0.731   0.889  0.2290 -0.6275 -0.4181
 5347TIP3    H137600   5.910   0.791   0.955 -1.3002  0.1669 -1.8624
 5347TIP3    H237601   6.025   0.697   0.927  0.4227  1.2903  1.0055
 5348TIP3   OH237602   6.495   2.593   0.090 -0.2873 -0.2524 -0.0617
 5348TIP3    H137603   6.426   2.657   0.108  0.4721  1.0229 -1.5037
 5348TIP3    H237604   6.575   2.645   0.080  0.9859 -1.7153  1.7832
 5349TIP3   OH237605   3.008   0.529   0.491 -0.3839 -0.9573  0.2215
 5349TIP3    H137606   3.020   0.467   0.418  3.2746 -0.4661  0.1887
 5349TIP3    H237607   2.963   0.603   0.452 -0.5012 -1.6272 -0.9789
 5350TIP3   OH237608   2.547   2.782   1.558  0.1294 -0.0070 -0.2876
 5350TIP3    H137609   2.640   2.801   1.545  0.1710  0.2735  0.3786
 5350TIP3    H237610   2.546   2.698   1.604 -0.0305 -1.2516 -2.4598
 5351TIP3   OH237611   3.988   3.631   0.070 -0.3246 -0.4039  0.2951
 5351TIP3    H137612   3.895   3.608   0.073 -0.1767 -1.8011 -2.2127
 5351TIP3    H237613   4.030   3.571   0.132 -0.9086 -1.0871  0.0453
 5352TIP3   OH237614   0.728   0.102   7.974  0.5776  0.1565 -0.3997
 5352TIP3    H137615   0.819   0.103   7.945  0.2983 -0.5576 -1.3346
 5352TIP3    H237616   0.729   0.153   8.055  1.5523  1.3779 -1.1285
 5353TIP3   OH237617   6.075   0.934   2.274 -0.1914 -0.3039  1.0379
 5353TIP3    H137618   6.002   0.876   2.252  0.2652 -0.7040  0.5457
 5353TIP3    H237619   6.092   0.917   2.366 -1.3214  0.4809  1.4145
 5354TIP3   OH237620   3.602   1.053   0.644 -0.1805  0.1243  0.5610
 5354TIP3    H137621   3.660   1.007   0.705 -1.4931  0.1353  1.8685
 5354TIP3    H237622   3.544   0.985   0.610 -0.4336  0.3794  0.4807
 5355TIP3   OH237623   4.472   3.645   7.117 -0.2613 -0.0959 -0.8391
 5355TIP3    H137624   4.405   3.605   7.062 -2.0027 -0.3681  1.3742
 5355TIP3    H237625   4.487   3.582   7.187 -1.1155  1.8804  1.2454
 5356TIP3   OH237626   6.495   0.801   7.190  0.0695  0.1596 -0.3371
 5356TIP3    H137627   6.553   0.726   7.174  0.1110 -0.1135  1.0297
 5356TIP3    H237628   6.440   0.773   7.263  0.8789  1.8884  1.0024
 5357TIP3   OH237629   6.328   6.145   6.579  0.1019  0.4623  0.0133
 5357TIP3    H137630   6.421   6.124   6.573 -0.0510 -0.4895  0.7641
 5357TIP3    H237631   6.290   6.107   6.500  0.3354  0.8041 -0.2673
 5358TIP3   OH237632   5.796   4.411   7.123  1.0040 -0.0185 -0.3709
 5358TIP3    H137633   5.780   4.397   7.030 -2.3099 -0.0424  0.0793
 5358TIP3    H237634   5.805   4.506   7.132 -1.4571  0.2934 -0.4770
 5359TIP3   OH237635   1.973   6.295   7.917 -0.8258 -0.1737  0.7211
 5359TIP3    H137636   1.895   6.339   7.951 -2.4553 -1.2406 -1.3770
 5359TIP3    H237637   1.939   6.213   7.881  1.2460 -0.5246 -0.5477
 5360TIP3   OH237638   1.624   6.510   8.246 -0.2006  0.6890 -0.5001
 5360TIP3    H137639   1.530   6.508   8.229  0.0753  1.3445 -2.2577
 5360TIP3    H237640   1.641   6.431   8.297 -1.6967  0.5700 -0.1534
 5361TIP3   OH237641   5.682   3.394   8.252  0.3140 -0.1850  0.2236
 5361TIP3    H137642   5.758   3.373   8.306  1.3870 -0.8330 -1.4618
 5361TIP3    H237643   5.616   3.330   8.278  0.9734 -0.7956  0.4335
 5362TIP3   OH237644   5.176   0.989   8.016  0.2494  0.7515 -0.3554
 5362TIP3    H137645   5.253   0.934   8.030 -1.0323 -0.7567  1.2006
 5362TIP3    H237646   5.184   1.058   8.082  0.1513  0.4129  0.0227
 5363TIP3   OH237647   5.477   6.203   2.292  0.1578  0.1176  0.2159
 5363TIP3    H137648   5.487   6.183   2.385  0.4626 -2.1755 -0.2444
 5363TIP3    H237649   5.388   6.175   2.270  0.7860 -1.3590 -0.5863
 5364TIP3   OH237650   0.289   0.005   8.549  0.3058  0.8063  0.2939
 5364TIP3    H137651   0.205  -0.016   8.589  0.1158  0.3454 -0.3198
 5364TIP3    H237652   0.303   0.097   8.568  0.6062  0.4330  2.0826
 5365TIP3   OH237653   4.505   3.721   2.431 -0.1094  0.2767 -0.5386
 5365TIP3    H137654   4.549   3.728   2.346  1.4550 -1.3992  0.0602
 5365TIP3    H237655   4.554   3.780   2.488 -1.3936  1.6917 -0.8210
 5366TIP3   OH237656   1.508   4.004   0.209 -0.3410 -0.1236 -0.1072
 5366TIP3    H137657   1.447   3.941   0.171 -0.0652 -0.0961 -0.6159
 5366TIP3    H237658   1.455   4.082   0.226 -0.9237 -0.8447  1.5592
 5367TIP3   OH237659   3.094   2.150   8.015  0.1008 -0.1260  0.2981
 5367TIP3    H137660   3.009   2.106   8.015 -0.2920  0.6155 -0.1943
 5367TIP3    H237661   3.093   2.203   7.935  0.7259  0.4640  0.6762
 5368TIP3   OH237662   0.548   6.275   0.334  0.1999  0.2581 -0.5594
 5368TIP3    H137663   0.543   6.313   0.246  0.4613  1.5025 -0.0588
 5368TIP3    H237664   0.514   6.186   0.323 -1.5421  0.9775 -1.5678
 5369TIP3   OH237665   5.288   2.262   8.667  0.1609  0.2002  0.4435
 5369TIP3    H137666   5.276   2.352   8.638  0.7383 -0.3711 -1.7181
 5369TIP3    H237667   5.371   2.235   8.628 -0.0009 -1.2838  1.0546
 5370TIP3   OH237668   1.751   4.611   8.322  0.2971  0.2676 -0.8760
 5370TIP3    H137669   1.832   4.657   8.301 -0.1772  1.0187 -1.0556
 5370TIP3    H237670   1.720   4.652   8.403  0.4415 -0.4712 -0.4349
 5371TIP3   OH237671   2.576   2.441   0.762  0.3707 -0.0961  0.6529
 5371TIP3    H137672   2.592   2.507   0.830  1.2308 -0.1147  0.4826
 5371TIP3    H237673   2.566   2.359   0.811 -0.2421  0.0782  0.8332
 5372TIP3   OH237674   5.106   2.422   1.439  0.0331 -0.1046 -0.4913
 5372TIP3    H137675   5.031   2.362   1.441 -0.9527  1.0878 -0.2177
 5372TIP3    H237676   5.136   2.426   1.530  0.2883 -0.3986 -0.5603
 5373TIP3   OH237677   3.585   2.311   0.546 -0.4010 -0.6803  0.0413
 5373TIP3    H137678   3.540   2.369   0.607 -0.3707 -2.0016  1.3949
 5373TIP3    H237679   3.586   2.358   0.463 -1.1109  0.8671  0.8782
 5374TIP3   OH237680   3.526   5.741   7.060 -0.4759 -0.4302  0.1420
 5374TIP3    H137681   3.497   5.689   7.135 -2.1107 -1.4241 -1.0912
 5374TIP3    H237682   3.565   5.676   7.000 -0.0387  0.2028 -0.2748
 5375TIP3   OH237683   5.720   3.461   0.544  0.2095 -0.5301 -0.7525
 5375TIP3    H137684   5.724   3.381   0.492  0.4921  0.0779 -1.6897
 5375TIP3    H237685   5.771   3.525   0.495  0.3110  0.1282  0.1720
 5376TIP3   OH237686   2.206   3.938   1.134  0.0468 -0.3031  0.1093
 5376TIP3    H137687   2.155   4.018   1.119  0.8762  0.3829  0.8574
 5376TIP3    H237688   2.157   3.891   1.201  1.1653  1.1406  2.0530
 5377TIP3   OH237689   3.477   2.807   6.847 -0.0984  0.3161  0.2463
 5377TIP3    H137690   3.393   2.761   6.838  0.0394  0.1039  0.0474
 5377TIP3    H237691   3.486   2.857   6.766  0.0424  0.2141  0.1983
 5378TIP3   OH237692   5.527   0.174   0.762 -0.3422  0.3721  0.3823
 5378TIP3    H137693   5.587   0.210   0.827  0.4404 -0.5781  0.2040
 5378TIP3    H237694   5.440   0.197   0.795  0.0566  0.3515  1.5123
 5379TIP3   OH237695   2.683   6.509   1.295  0.0041  0.1384 -0.3649
 5379TIP3    H137696   2.660   6.559   1.217  0.8511  1.8768  0.4577
 5379TIP3    H237697   2.777   6.524   1.307  0.1897 -1.2499  0.2199
 5380TIP3   OH237698   5.301   4.270   1.994 -0.0722  0.4344  0.2673
 5380TIP3    H137699   5.365   4.263   1.924  2.2297  0.0483  2.2579
 5380TIP3    H237700   5.256   4.185   1.995  0.8547 -0.0653  0.1287
 5381TIP3   OH237701   6.789   5.782   8.146 -0.0877 -0.2929  0.2287
 5381TIP3    H137702   6.762   5.793   8.054 -0.5747  1.0359  0.5089
 5381TIP3    H237703   6.825   5.694   8.149  0.2843 -0.2356 -1.3337
 5382TIP3   OH237704   5.271   1.619   1.350 -0.4123  0.3125  0.2653
 5382TIP3    H137705   5.228   1.548   1.397 -1.4819 -0.3832 -1.6539
 5382TIP3    H237706   5.218   1.696   1.369 -1.3316 -0.1313 -0.4327
 5383TIP3   OH237707   4.760   0.389   0.034 -0.0659  0.1206  0.0568
 5383TIP3    H137708   4.834   0.342   0.072 -1.0072 -0.5003  1.1824
 5383TIP3    H237709   4.683   0.349   0.074 -0.9703  1.5903 -0.1385
 5384TIP3   OH237710   4.454   2.897   0.421 -0.4466  0.0787  0.3373
 5384TIP3    H137711   4.447   2.830   0.489 -2.4504 -0.6320 -0.4991
 5384TIP3    H237712   4.378   2.883   0.365 -1.5557  3.6769  0.6532
 5385TIP3   OH237713   2.680   1.392   7.378  0.6693  0.1222  0.2228
 5385TIP3    H137714   2.762   1.436   7.356  1.7219 -2.2806 -1.1001
 5385TIP3    H237715   2.705   1.301   7.391 -1.6249 -0.4368  1.1096
 5386TIP3   OH237716   2.293   4.637   1.671 -0.0925 -0.4044  0.5998
 5386TIP3    H137717   2.276   4.716   1.619 -1.8032 -0.7869  0.5137
 5386TIP3    H237718   2.266   4.565   1.613  0.3018 -0.9767  1.1221
 5387TIP3   OH237719   6.820   3.515   7.658  0.3541  0.2921 -0.3499
 5387TIP3    H137720   6.799   3.423   7.676 -0.5392  0.7260  1.0789
 5387TIP3    H237721   6.915   3.519   7.662  0.3618 -0.4050  0.5782
 5388TIP3   OH237722   2.591   0.165   0.420  0.6426 -0.3553 -0.0176
 5388TIP3    H137723   2.633   0.130   0.498  1.7434  1.8954  0.4875
 5388TIP3    H237724   2.623   0.109   0.349  2.2027 -0.5109  0.7522
 5389TIP3   OH237725   4.855   3.512   8.194 -0.0447  0.3569  0.6291
 5389TIP3    H137726   4.923   3.577   8.173  0.0148 -0.2272 -1.1279
 5389TIP3    H237727   4.774   3.563   8.199 -0.2021  0.4841 -1.9230
 5390TIP3   OH237728   4.668   3.258   1.697 -0.0295 -0.4262 -0.4525
 5390TIP3    H137729   4.717   3.331   1.734 -1.2166 -0.5284  1.4365
 5390TIP3    H237730   4.729   3.184   1.699 -0.7026 -1.1060  3.8404
 5391TIP3   OH237731   6.496   6.165   6.281  0.0105  0.1798  0.5082
 5391TIP3    H137732   6.536   6.249   6.302 -1.1840  0.8227  0.2666
 5391TIP3    H237733   6.545   6.102   6.334  3.1016  0.5044 -1.6666
 5392TIP3   OH237734   5.932   6.567   8.442 -0.0928 -0.4168  0.1649
 5392TIP3    H137735   5.840   6.580   8.421 -0.2565 -1.0344  0.5057
 5392TIP3    H237736   5.971   6.654   8.432 -0.6668 -0.1937 -0.1766
 5393TIP3   OH237737   0.429   6.503   0.465 -0.1335  0.1631 -0.6388
 5393TIP3    H137738   0.490   6.576   0.477  0.2224 -0.2907  0.4439
 5393TIP3    H237739   0.478   6.440   0.413  0.0155  0.1592 -0.4952
 5394TIP3   OH237740   1.335   0.703   2.406 -0.0979 -0.0426 -0.1580
 5394TIP3    H137741   1.291   0.642   2.347  1.6384 -0.7211 -0.7963
 5394TIP3    H237742   1.426   0.704   2.377 -0.0465  2.8720 -0.1603
 5395TIP3   OH237743   0.496   3.998   7.236  0.0001 -0.4926  0.5473
 5395TIP3    H137744   0.435   4.036   7.173  0.5297 -1.5790 -0.6719
 5395TIP3    H237745   0.440   3.958   7.302 -0.6705 -2.1540 -0.9581
 5396TIP3   OH237746   1.888   2.424   8.597  0.1493 -0.1542  0.4384
 5396TIP3    H137747   1.883   2.375   8.679 -0.0702 -1.3746 -0.2708
 5396TIP3    H237748   1.908   2.514   8.623 -0.6308 -0.3688  1.8582
 5397TIP3   OH237749   0.137   0.857   8.389 -0.3176 -0.1508 -0.0021
 5397TIP3    H137750   0.211   0.883   8.443  0.8377  1.9763 -2.3930
 5397TIP3    H237751   0.157   0.892   8.302 -2.6790 -2.2162 -1.5166
 5398TIP3   OH237752   3.459   3.423   0.027 -0.5555  0.1736 -0.2209
 5398TIP3    H137753   3.481   3.419  -0.066  1.9386 -0.5268  0.3120
 5398TIP3    H237754   3.398   3.351   0.041  0.2751 -0.7274 -1.0573
 5399TIP3   OH237755   1.150   3.462   1.796  0.7829 -0.2066  0.0034
 5399TIP3    H137756   1.238   3.475   1.760  1.0469  2.5853  1.4060
 5399TIP3    H237757   1.164   3.458   1.891 -0.7643  3.4215  0.5256
 5400TIP3   OH237758   1.320   0.390   8.204 -0.0079 -0.1669 -0.0764
 5400TIP3    H137759   1.353   0.320   8.259 -0.6203 -0.6695 -0.3320
 5400TIP3    H237760   1.325   0.354   8.115 -0.4413  0.0654 -0.1951
 5401TIP3   OH237761   4.072   1.958   1.788  0.2535  0.4252  0.2035
 5401TIP3    H137762   4.045   1.932   1.700 -0.2376  0.3132  0.3858
 5401TIP3    H237763   4.106   1.878   1.827 -0.5926  0.2024  0.5121
 5402TIP3   OH237764   2.678   4.560   0.010  0.0296 -0.2781  0.0928
 5402TIP3    H137765   2.733   4.631  -0.022 -1.6259  0.1432 -2.0101
 5402TIP3    H237766   2.589   4.595   0.009 -0.4506 -1.2003  2.6143
 5403TIP3   OH237767   1.578   2.796   1.415  0.4435 -0.1857 -0.6284
 5403TIP3    H137768   1.618   2.713   1.443  1.7726  0.6052 -0.1023
 5403TIP3    H237769   1.651   2.850   1.386 -0.5225  0.4145 -2.0911
 5404TIP3   OH237770   5.289   3.136   7.038  0.4778 -0.3605 -0.4755
 5404TIP3    H137771   5.212   3.179   7.074  1.2792  0.9776 -0.2669
 5404TIP3    H237772   5.262   3.108   6.950 -0.4981 -0.7076 -0.0789
 5405TIP3   OH237773   4.203   2.323   0.954 -0.2748  0.3793  0.9625
 5405TIP3    H137774   4.184   2.232   0.977 -1.3940  0.8816  2.1404
 5405TIP3    H237775   4.240   2.360   1.034 -2.1519  1.5904  1.3157
 5406TIP3   OH237776   4.061   2.486   1.435 -0.0474  0.1074 -0.0142
 5406TIP3    H137777   4.127   2.553   1.422 -0.8355  1.3653  2.0278
 5406TIP3    H237778   4.073   2.457   1.526 -0.8691 -1.2569 -0.3014
 5407TIP3   OH237779   2.730   3.707   0.189 -0.5427 -0.1228  0.3778
 5407TIP3    H137780   2.700   3.708   0.280  0.5643  0.8351  0.7502
 5407TIP3    H237781   2.711   3.795   0.157 -0.1290 -0.1870 -0.0462
 5408TIP3   OH237782   1.986   0.221   0.026 -0.6789  0.2622  0.5039
 5408TIP3    H137783   1.978   0.245   0.118  0.8765  1.2441  0.4168
 5408TIP3    H237784   1.908   0.258  -0.015 -0.5098  1.3826  1.1415
 5409TIP3   OH237785   3.937   6.342   7.226  0.3116 -0.0640 -0.4102
 5409TIP3    H137786   3.934   6.427   7.270 -2.7398 -1.0707  1.7064
 5409TIP3    H237787   3.845   6.318   7.215  0.9198 -4.2783  1.7071
 5410TIP3   OH237788   5.362   4.601   7.593  0.1134 -0.1327 -0.3191
 5410TIP3    H137789   5.393   4.549   7.519  0.2123  1.9939 -1.8546
 5410TIP3    H237790   5.269   4.617   7.575 -0.1531 -0.5281  0.6162
 5411TIP3   OH237791   5.106   5.961   0.797 -0.2255 -0.1808 -0.5599
 5411TIP3    H137792   5.132   6.005   0.717  1.1832  2.7486  1.3163
 5411TIP3    H237793   5.178   5.977   0.858 -2.6667  0.9114  2.3446
 5412TIP3   OH237794   1.379   4.520   2.078 -0.3420 -0.1864 -0.0490
 5412TIP3    H137795   1.445   4.582   2.106  0.3743  0.0349 -2.0573
 5412TIP3    H237796   1.408   4.436   2.114  0.6059  0.0523 -0.2251
 5413TIP3   OH237797   1.701   5.316   0.123  0.1485  0.6265 -0.1639
 5413TIP3    H137798   1.656   5.390   0.083  1.4239  2.1836  1.1519
 5413TIP3    H237799   1.793   5.340   0.122  0.5504 -0.7384  0.7236
 5414TIP3   OH237800   3.663   2.684   2.025 -0.2371 -0.7122 -0.1770
 5414TIP3    H137801   3.714   2.765   2.032 -0.8073 -0.1437 -1.9520
 5414TIP3    H237802   3.726   2.615   2.046  1.4269 -0.0512 -2.5376
 5415TIP3   OH237803   6.119   0.585   0.014  0.2022 -0.6559 -0.0466
 5415TIP3    H137804   6.105   0.666   0.062 -0.3031 -2.0216  2.2679
 5415TIP3    H237805   6.039   0.534   0.028 -0.9662 -0.3680 -4.2325
 5416TIP3   OH237806   5.115   5.858   6.646 -0.1292 -0.0436 -0.5180
 5416TIP3    H137807   5.172   5.934   6.655 -0.4080  0.1762 -0.5770
 5416TIP3    H237808   5.173   5.782   6.655  0.3674  0.1667 -1.6874
 5417TIP3   OH237809   5.440   2.618   1.992 -0.2092 -0.1436 -0.5597
 5417TIP3    H137810   5.461   2.709   2.015  0.2625 -0.4309  0.1495
 5417TIP3    H237811   5.524   2.573   1.989 -0.5550 -1.0015  1.0421
 5418TIP3   OH237812   4.778   1.532   8.209  0.1869 -0.2994  0.0886
 5418TIP3    H137813   4.726   1.612   8.201 -0.4574 -0.5362  1.6890
 5418TIP3    H237814   4.737   1.472   8.147  0.1236  0.3065 -0.4800
 5419TIP3   OH237815   1.462   0.368   1.464  0.2502  0.2945 -0.2561
 5419TIP3    H137816   1.374   0.392   1.492  0.4212  0.2948  0.3034
 5419TIP3    H237817   1.462   0.380   1.369  0.1136  1.8215 -0.0892
 5420TIP3   OH237818   4.357   5.486   2.092 -0.0719 -1.1757  0.1369
 5420TIP3    H137819   4.398   5.400   2.095  0.1990 -1.0451  2.4835
 5420TIP3    H237820   4.299   5.486   2.169 -0.2897  0.6168 -0.0030
 5421TIP3   OH237821   2.675   0.239   7.615 -0.3020  0.2717  0.2332
 5421TIP3    H137822   2.596   0.219   7.567  0.3717  1.0566 -1.2648
 5421TIP3    H237823   2.666   0.332   7.639 -1.1260 -0.3486  2.6722
 5422TIP3   OH237824   5.755   1.271   0.919 -0.1907  0.1988 -0.2140
 5422TIP3    H137825   5.765   1.195   0.976 -0.4031  0.8039  0.6470
 5422TIP3    H237826   5.677   1.316   0.951 -0.2033  0.6611 -0.8606
 5423TIP3   OH237827   1.232   5.056   0.590  0.3747 -0.0230 -0.0530
 5423TIP3    H137828   1.267   5.078   0.503  1.4051  0.1100  0.3800
 5423TIP3    H237829   1.140   5.082   0.585 -0.1368 -1.9291 -1.7763
 5424TIP3   OH237830   6.493   4.908   7.239  0.1803 -0.1112 -0.1175
 5424TIP3    H137831   6.546   4.849   7.294  0.4007  0.2888  0.1043
 5424TIP3    H237832   6.540   4.912   7.156  1.3228  1.3899  0.5486
 5425TIP3   OH237833   2.140   1.427   8.445  0.3165 -0.2372 -0.3328
 5425TIP3    H137834   2.099   1.341   8.453 -0.6397  0.3938  2.6128
 5425TIP3    H237835   2.230   1.414   8.473  0.0694 -0.2176  0.4783
 5426TIP3   OH237836   6.066   4.781   7.766 -0.3402  0.3102 -0.0724
 5426TIP3    H137837   6.005   4.840   7.810 -2.2131 -1.6002  0.0492
 5426TIP3    H237838   6.068   4.811   7.675  2.4042  3.3614  0.7986
 5427TIP3   OH237839   2.107   0.821   1.273 -0.3116 -0.4223  0.1208
 5427TIP3    H137840   2.137   0.745   1.323  1.3368 -0.2695 -0.5659
 5427TIP3    H237841   2.155   0.895   1.310  1.5364 -0.4013 -2.0677
 5428TIP3   OH237842   5.106   0.793   1.886  0.1759 -0.2014  0.3135
 5428TIP3    H137843   5.056   0.855   1.832 -0.9549 -0.4139  1.0930
 5428TIP3    H237844   5.125   0.720   1.827 -1.1147 -0.4638  0.1995
 5429TIP3   OH237845   4.360   3.768   1.063 -0.0176  0.2347  0.2517
 5429TIP3    H137846   4.385   3.789   1.153  2.2634 -1.6380  0.1228
 5429TIP3    H237847   4.297   3.697   1.072 -0.7582  0.8884  0.3717
 5430TIP3   OH237848   2.304   5.225   6.684  0.7505 -0.1780 -0.6783
 5430TIP3    H137849   2.273   5.307   6.646 -0.3893 -0.0941  0.3681
 5430TIP3    H237850   2.392   5.246   6.716  0.1806  0.8991  0.2952
 5431TIP3   OH237851   5.515   0.138   8.426  0.3362  0.0610 -0.2576
 5431TIP3    H137852   5.603   0.162   8.398 -0.6427  0.7250 -3.1227
 5431TIP3    H237853   5.477   0.218   8.461  0.2538  0.2703 -0.8193
 5432TIP3   OH237854   6.519   5.182   0.105  0.2462  0.2393 -0.4311
 5432TIP3    H137855   6.433   5.150   0.077  0.2383  0.6938 -0.9351
 5432TIP3    H237856   6.572   5.102   0.111 -0.5338 -0.1946  1.1108
 5433TIP3   OH237857   1.659   1.669   0.549  0.4224 -0.0345  0.0159
 5433TIP3    H137858   1.668   1.719   0.468  0.2960  2.8174  1.6196
 5433TIP3    H237859   1.742   1.621   0.557 -0.4186 -2.2434 -2.8060
 5434TIP3   OH237860   5.209   3.242   7.975  0.3699 -0.3693 -0.1397
 5434TIP3    H137861   5.268   3.317   7.977 -0.8266  0.6922 -1.4976
 5434TIP3    H237862   5.133   3.270   8.026 -0.9350  0.1985 -2.2482
 5435TIP3   OH237863   0.873   2.365   1.835 -0.1862  0.3597  0.5737
 5435TIP3    H137864   0.850   2.291   1.890  0.5536  0.8793  1.5990
 5435TIP3    H237865   0.790   2.393   1.797 -0.7797  0.2486  1.7476
 5436TIP3   OH237866   6.549   5.510   7.967 -0.7514  0.2115 -0.4083
 5436TIP3    H137867   6.560   5.500   8.061 -0.1839  1.5259 -0.3291
 5436TIP3    H237868   6.529   5.602   7.954 -0.3288  0.1501 -1.6289
 5437TIP3   OH237869   1.370   5.999   0.242 -0.6837  0.0829  0.2101
 5437TIP3    H137870   1.361   6.014   0.336  0.0276 -1.6940  0.6096
 5437TIP3    H237871   1.306   5.930   0.222  0.8347 -1.3056 -0.0714
 5438TIP3   OH237872   1.840   1.378   0.142  0.0612  0.7883 -0.4625
 5438TIP3    H137873   1.906   1.318   0.108 -0.1862 -0.1005  0.5877
 5438TIP3    H237874   1.863   1.390   0.234 -0.7536  1.1376 -0.2963
 5439TIP3   OH237875   4.482   4.129   1.257 -0.0269  0.6365 -0.0310
 5439TIP3    H137876   4.387   4.132   1.249 -0.0953  3.3559  1.0703
 5439TIP3    H237877   4.511   4.092   1.173 -2.0279 -0.8540 -0.1412
 5440TIP3   OH237878   1.089   5.816   8.062  0.4324  0.4391  0.4971
 5440TIP3    H137879   1.103   5.862   7.980 -1.3751  2.0086  1.0039
 5440TIP3    H237880   1.173   5.773   8.080  1.7051  2.2441 -0.8168
 5441TIP3   OH237881   5.017   0.768   6.594  0.4805  0.1317 -0.1195
 5441TIP3    H137882   4.960   0.700   6.631 -0.6843  0.6945 -0.8143
 5441TIP3    H237883   5.105   0.741   6.619  0.0007 -1.2966  0.1545
 5442TIP3   OH237884   5.492   4.580   8.423 -0.2557 -0.1543 -0.1191
 5442TIP3    H137885   5.552   4.536   8.362 -0.9111  1.2048 -1.8393
 5442TIP3    H237886   5.405   4.552   8.395 -0.7603  2.7477 -1.8483
 5443TIP3   OH237887   5.702   1.642   7.304  0.4764  0.2535 -0.0947
 5443TIP3    H137888   5.745   1.720   7.270  2.2164 -1.0279 -0.9817
 5443TIP3    H237889   5.715   1.576   7.236 -1.0046 -0.8091  0.5980
 5444TIP3   OH237890   2.934   1.449   7.279  0.3598  0.5836 -0.3000
 5444TIP3    H137891   2.972   1.448   7.191 -1.2138 -0.2197 -1.0285
 5444TIP3    H237892   2.939   1.358   7.308 -0.9119  0.4597 -0.4099
 5445TIP3   OH237893   6.182   5.837   7.595  0.5781 -0.0080  0.3293
 5445TIP3    H137894   6.189   5.930   7.572  0.6459  0.3491  1.6996
 5445TIP3    H237895   6.256   5.822   7.653  0.8395 -1.0570 -0.2565
 5446TIP3   OH237896   4.619   1.001   7.652  0.0580  0.6662 -0.3629
 5446TIP3    H137897   4.683   1.056   7.697  0.2738 -0.2065  0.4326
 5446TIP3    H237898   4.540   1.006   7.706  0.8119 -1.6941  1.1490
 5447TIP3   OH237899   4.212   6.225   0.289 -0.1352 -0.0288  0.3369
 5447TIP3    H137900   4.135   6.268   0.252  0.0852  0.0298 -0.0539
 5447TIP3    H237901   4.178   6.174   0.363 -0.7207 -0.9050 -0.5108
 5448TIP3   OH237902   1.978   4.638   8.030  0.7241 -0.2107  0.2670
 5448TIP3    H137903   1.883   4.625   8.038  0.3536  2.0065  0.1229
 5448TIP3    H237904   2.002   4.688   8.107  1.0630  2.3662 -1.3797
 5449TIP3   OH237905   5.004   1.317   0.679  0.5610 -0.8869  0.0363
 5449TIP3    H137906   5.031   1.253   0.613  1.4644 -1.1864  0.6760
 5449TIP3    H237907   4.963   1.264   0.747  1.2747 -0.7910  0.5483
 5450TIP3   OH237908   6.408   4.294   7.012 -0.5769 -0.1716 -0.3585
 5450TIP3    H137909   6.344   4.325   6.948  0.2145 -0.0300 -1.1065
 5450TIP3    H237910   6.491   4.294   6.965  0.2531  1.0866  1.0223
 5451TIP3   OH237911   3.554   5.071   7.684 -0.9978  0.2146  0.5063
 5451TIP3    H137912   3.641   5.103   7.662 -1.8164  2.6592  0.5058
 5451TIP3    H237913   3.543   4.991   7.632  1.9233 -1.3159  2.0047
 5452TIP3   OH237914   4.842   4.946   7.307  0.5189  0.2216  0.3077
 5452TIP3    H137915   4.811   4.981   7.224  0.5808 -0.8530 -0.1763
 5452TIP3    H237916   4.806   5.006   7.373  0.5774  1.1587 -0.4839
 5453TIP3   OH237917   2.322   5.544   0.448  0.1220  1.0278  0.6059
 5453TIP3    H137918   2.234   5.528   0.484  0.2348 -1.1106  0.0620
 5453TIP3    H237919   2.355   5.457   0.426  1.8182  1.9187 -0.5730
 5454TIP3   OH237920   0.653   0.623   8.582 -0.4837 -0.0752 -0.4686
 5454TIP3    H137921   0.567   0.602   8.618  0.2533 -1.7051  0.4629
 5454TIP3    H237922   0.701   0.661   8.655  0.2318 -1.0958 -0.3953
 5455TIP3   OH237923   3.309   6.353   8.260  0.1460 -0.3308  0.3796
 5455TIP3    H137924   3.293   6.263   8.286  2.9955 -0.2391  2.8873
 5455TIP3    H237925   3.252   6.405   8.317  0.0913 -0.4431  0.4264
 5456TIP3   OH237926   4.404   4.360   2.509  0.1733  0.2530  0.6180
 5456TIP3    H137927   4.429   4.271   2.484 -0.3904  0.4527 -0.7043
 5456TIP3    H237928   4.369   4.350   2.598 -1.6602 -1.1889 -0.1915
 5457TIP3   OH237929   6.078   5.780   0.903 -0.4793  0.1595  0.0124
 5457TIP3    H137930   6.067   5.787   0.808 -2.8432  1.7990  0.3258
 5457TIP3    H237931   6.023   5.705   0.928 -0.6395  0.3307  0.1790
 5458TIP3   OH237932   2.874   6.552   7.389  0.0448  0.0971 -0.2181
 5458TIP3    H137933   2.875   6.485   7.320 -0.5538 -1.4606  1.1922
 5458TIP3    H237934   2.963   6.589   7.388  0.9950 -1.9997  0.0747
 5459TIP3   OH237935   5.267   3.833   1.690 -0.1686 -0.2056 -0.0095
 5459TIP3    H137936   5.310   3.789   1.616 -0.8394 -1.2589  0.2054
 5459TIP3    H237937   5.202   3.770   1.721 -0.3888  0.5063  1.0332
 5460TIP3   OH237938   6.192   4.261   7.812  0.4517  0.1088  0.4305
 5460TIP3    H137939   6.152   4.295   7.892  0.4099  0.7741  0.1264
 5460TIP3    H237940   6.266   4.319   7.795  0.3798  0.0537 -0.0897
 5461TIP3   OH237941   0.231   5.552   2.332  0.6665  0.1570  0.0246
 5461TIP3    H137942   0.181   5.591   2.403  0.5874  1.6161 -0.8093
 5461TIP3    H237943   0.202   5.460   2.330  0.9417 -0.0289  2.0822
 5462TIP3   OH237944   2.758   1.414   8.455  0.2792  0.4916  1.0997
 5462TIP3    H137945   2.818   1.405   8.528  1.2542  1.9174  0.5115
 5462TIP3    H237946   2.809   1.458   8.387 -0.5970 -0.7809 -0.4491
 5463TIP3   OH237947   5.266   0.859   8.538 -0.2085  0.5239 -0.3060
 5463TIP3    H137948   5.333   0.901   8.592 -1.1186  1.7609 -0.1223
 5463TIP3    H237949   5.212   0.811   8.600 -0.0159  0.2262 -0.3640
 5464TIP3   OH237950   5.621   0.142   1.917  0.0717 -0.2355 -0.4912
 5464TIP3    H137951   5.673   0.209   1.873  1.1140 -1.0825 -0.5732
 5464TIP3    H237952   5.681   0.104   1.981 -0.1467 -1.8706 -1.2207
 5465TIP3   OH237953   5.329   3.823   0.226 -0.2942 -0.2291  0.8717
 5465TIP3    H137954   5.391   3.882   0.184 -1.1779  0.3550  0.3548
 5465TIP3    H237955   5.374   3.795   0.306  1.2991 -1.1506 -0.2903
 5466TIP3   OH237956   5.347   2.513   8.075  0.3180 -0.2936 -0.3010
 5466TIP3    H137957   5.289   2.514   8.151  0.8559 -0.3378  0.1177
 5466TIP3    H237958   5.410   2.443   8.095  1.3224  0.6359 -0.1299
 5467TIP3   OH237959   1.687   1.392   1.620 -0.1215  0.2276 -0.2435
 5467TIP3    H137960   1.617   1.456   1.611 -1.1011 -0.4825  1.6760
 5467TIP3    H237961   1.744   1.428   1.687 -0.0282 -0.3273 -0.0135
 5468TIP3   OH237962   0.686   5.637   1.986  0.4548 -0.0390  0.5171
 5468TIP3    H137963   0.704   5.611   1.895  0.0765  0.1021  0.4022
 5468TIP3    H237964   0.769   5.621   2.031  0.2340 -1.4795  0.4554
 5469TIP3   OH237965   1.660   3.509   7.589 -0.2151  0.2580 -0.2882
 5469TIP3    H137966   1.574   3.488   7.627  0.3875 -0.1120  0.9109
 5469TIP3    H237967   1.643   3.515   7.495 -2.3476  3.8457  0.0943
 5470TIP3   OH237968   0.394   3.352   7.357  0.0099 -0.1510 -0.0758
 5470TIP3    H137969   0.326   3.311   7.411  0.2867 -1.4970 -0.7057
 5470TIP3    H237970   0.438   3.278   7.314 -0.4005  0.8853 -2.4047
 5471TIP3   OH237971   3.835   5.803   1.138 -0.5181  0.3384  0.0309
 5471TIP3    H137972   3.915   5.820   1.188 -0.4018  1.8054 -0.6064
 5471TIP3    H237973   3.764   5.820   1.199 -0.3606  0.1149  0.2788
 5472TIP3   OH237974   0.413   1.685   7.065 -0.2680 -0.3070  0.4818
 5472TIP3    H137975   0.372   1.716   6.984 -1.8618 -2.0339  0.5545
 5472TIP3    H237976   0.442   1.765   7.109  1.0874  0.6699 -1.9565
 5473TIP3   OH237977   0.931   3.200   8.074 -0.4200  0.2597 -0.2891
 5473TIP3    H137978   0.918   3.289   8.042 -1.0059 -0.3974 -1.9897
 5473TIP3    H237979   1.026   3.191   8.084 -0.0683  0.2245 -2.8663
 5474TIP3   OH237980   6.213   2.378   0.624 -0.5452 -0.6203  0.2496
 5474TIP3    H137981   6.133   2.348   0.581 -1.0693  0.5786  0.3639
 5474TIP3    H237982   6.184   2.415   0.707  0.2922 -1.4500  0.9344
 5475TIP3   OH237983   5.279   5.119   1.880  0.6133  0.2769  0.7010
 5475TIP3    H137984   5.267   5.044   1.821  1.2876  0.6119  0.1125
 5475TIP3    H237985   5.194   5.132   1.920  0.0030  0.3164 -0.5520
 5476TIP3   OH237986   2.757   2.534   6.455 -0.7201 -0.5560 -0.4010
 5476TIP3    H137987   2.662   2.540   6.443 -0.6942 -0.1643 -0.4016
 5476TIP3    H237988   2.784   2.464   6.395 -0.8628  0.0489 -1.1708
 5477TIP3   OH237989   2.216   5.004   8.116 -0.3215 -0.2632  0.0597
 5477TIP3    H137990   2.252   4.949   8.047 -0.8609 -0.1414 -0.3172
 5477TIP3    H237991   2.122   5.008   8.098 -0.3739  0.2832  0.4333
 5478TIP3   OH237992   1.760   4.977   2.657 -0.7717  0.4498  0.4456
 5478TIP3    H137993   1.684   4.936   2.698  0.8647 -1.3412  1.8746
 5478TIP3    H237994   1.825   4.984   2.727  0.6011  1.3842 -0.8525
 5479TIP3   OH237995   6.549   1.627   8.429  0.0765  0.4671 -0.4080
 5479TIP3    H137996   6.466   1.673   8.420 -0.7538 -0.8532  0.2076
 5479TIP3    H237997   6.583   1.655   8.514 -0.1616  0.3576 -0.2758
 5480TIP3   OH237998   6.329   0.703   7.808  0.2903 -0.1402 -0.3569
 5480TIP3    H137999   6.410   0.697   7.858  0.6550 -1.4252 -1.0509
 5480TIP3    H238000   6.260   0.709   7.874  0.7343 -1.9973  0.3624
 5481TIP3   OH238001   0.339   5.405   8.214 -0.0886 -0.1915 -0.3304
 5481TIP3    H138002   0.348   5.386   8.120  0.1710 -0.3815 -0.2678
 5481TIP3    H238003   0.283   5.335   8.247 -0.4390  0.0525 -0.4017
 5482TIP3   OH238004   1.039   1.823   7.275 -0.2956  0.1822 -0.2387
 5482TIP3    H138005   0.996   1.890   7.222  0.5208 -0.4308 -1.6998
 5482TIP3    H238006   0.976   1.806   7.346 -2.1729 -0.1753 -1.9010
 5483TIP3   OH238007   6.628   5.216   6.809  0.3755 -0.1433 -0.3528
 5483TIP3    H138008   6.649   5.292   6.754  2.7148 -1.1451 -0.9922
 5483TIP3    H238009   6.542   5.188   6.780 -1.8032  3.6777  1.6444
 5484TIP3   OH238010   0.535   1.856   0.257 -0.3102 -0.3184 -0.6899
 5484TIP3    H138011   0.540   1.950   0.271 -1.6104 -0.1852 -1.0550
 5484TIP3    H238012   0.483   1.823   0.330 -0.0797 -0.7177 -0.7042
 5485TIP3   OH238013   5.026   1.964   0.972  0.1736 -0.4471  0.4976
 5485TIP3    H138014   4.936   1.932   0.983  0.5401 -2.0651 -0.8894
 5485TIP3    H238015   5.024   2.012   0.889  0.0936  1.5848  1.6101
 5486TIP3   OH238016   1.903   0.021   2.102  0.0094  0.1872  0.2649
 5486TIP3    H138017   1.924   0.100   2.052 -0.7299  1.1244  1.3812
 5486TIP3    H238018   1.827  -0.016   2.057  0.0478  0.3998  0.0223
 5487TIP3   OH238019   5.100   1.489   1.562  0.2015 -0.1775 -0.2343
 5487TIP3    H138020   5.084   1.452   1.649  2.0857 -0.1607  0.1740
 5487TIP3    H238021   5.018   1.476   1.514 -0.7486 -0.5382  1.4144
 5488TIP3   OH238022   5.044   1.426   8.277  0.5289 -0.0119 -0.3440
 5488TIP3    H138023   5.082   1.476   8.349 -1.3884 -1.0939  1.5286
 5488TIP3    H238024   4.965   1.475   8.254  0.9015  0.0883 -1.4695
 5489TIP3   OH238025   0.062   4.807   1.240  0.8561  0.0161 -0.3227
 5489TIP3    H138026   0.067   4.900   1.216 -0.1476  0.4042  0.8753
 5489TIP3    H238027   0.003   4.805   1.315 -0.1897 -1.7574 -1.1262
 5490TIP3   OH238028   0.033   1.269   1.409 -0.4046  0.1107 -0.2355
 5490TIP3    H138029   0.092   1.343   1.394 -1.3223  0.6695 -1.2185
 5490TIP3    H238030   0.027   1.262   1.504 -1.5536  2.3411 -0.1032
 5491TIP3   OH238031   3.798   5.149   7.539 -0.3065 -0.1062 -0.1900
 5491TIP3    H138032   3.807   5.132   7.445 -1.2588 -0.6396 -0.1959
 5491TIP3    H238033   3.823   5.066   7.580  0.2330  0.1670  0.0369
 5492TIP3   OH238034   2.096   3.475   7.632  0.1726  0.1269  0.3611
 5492TIP3    H138035   2.172   3.419   7.617  1.2138  1.9381 -1.5831
 5492TIP3    H238036   2.129   3.548   7.684 -1.3200 -1.2075  3.4798
 5493TIP3   OH238037   3.249   1.468   8.221  0.5454  0.6652  0.3114
 5493TIP3    H138038   3.193   1.449   8.146  1.3578 -1.5691  0.1864
 5493TIP3    H238039   3.190   1.471   8.295  0.2190 -3.0905  0.4178
 5494TIP3   OH238040   0.530   1.131   6.881 -0.2528  0.5065  0.4895
 5494TIP3    H138041   0.481   1.210   6.902 -0.4199 -0.1359  2.7431
 5494TIP3    H238042   0.463   1.068   6.852 -0.3854  0.5430  0.7152
 5495TIP3   OH238043   6.071   1.633   0.683 -0.1017 -0.0179  0.6601
 5495TIP3    H138044   6.026   1.700   0.632  3.3667  1.3507 -0.8862
 5495TIP3    H238045   6.048   1.550   0.641 -0.0772  0.7722 -0.9868
 5496TIP3   OH238046   4.969   4.466   2.290 -0.1259 -0.2551  0.0261
 5496TIP3    H138047   4.930   4.542   2.335  2.2534  0.2967  1.3404
 5496TIP3    H238048   4.998   4.410   2.361  2.2844 -0.1567 -0.7990
 5497TIP3   OH238049   5.010   4.219   8.530  0.3778 -0.1578 -0.5066
 5497TIP3    H138050   5.054   4.249   8.610 -0.0956  2.1931 -1.0548
 5497TIP3    H238051   4.918   4.209   8.556  0.0762  1.3904 -0.9132
 5498TIP3   OH238052   4.659   4.449   8.631  0.2352  0.3705 -0.2291
 5498TIP3    H138053   4.596   4.483   8.694 -0.0202  0.5026 -0.5542
 5498TIP3    H238054   4.713   4.524   8.606  0.5520  0.2494  0.0798
 5499TIP3   OH238055   6.046   5.757   1.246 -0.1790  0.3636 -0.5960
 5499TIP3    H138056   6.017   5.826   1.187 -0.7486 -0.9718 -1.9605
 5499TIP3    H238057   6.137   5.740   1.221 -1.1104 -1.9092 -2.9882
 5500TIP3   OH238058   6.592   1.437   1.068  0.6484 -0.6312 -0.0478
 5500TIP3    H138059   6.661   1.402   1.125  1.1184 -1.0419 -0.8661
 5500TIP3    H238060   6.620   1.416   0.979 -0.5162 -0.7569 -0.3986
 5501TIP3   OH238061   3.800   2.466   2.069 -0.1586 -0.0704  0.0109
 5501TIP3    H138062   3.815   2.402   1.999 -1.7097  1.5475 -1.9251
 5501TIP3    H238063   3.880   2.462   2.122  0.2640 -2.7381 -0.6803
 5502TIP3   OH238064   3.103   2.369   7.358 -0.5293 -0.2717 -0.2749
 5502TIP3    H138065   3.076   2.277   7.355  0.4047 -0.5773  0.3307
 5502TIP3    H238066   3.041   2.414   7.300 -2.5445 -0.8848  1.2952
 5503TIP3   OH238067   2.272   6.384   8.275 -0.1515 -0.2284 -0.0579
 5503TIP3    H138068   2.305   6.312   8.329 -1.1303 -0.9546 -0.4016
 5503TIP3    H238069   2.199   6.346   8.226 -1.9295  1.4174  1.1191
 5504TIP3   OH238070   4.683   2.532   1.353 -0.3012 -0.4942 -0.6751
 5504TIP3    H138071   4.681   2.467   1.424  1.4555  0.1815  0.0634
 5504TIP3    H238072   4.610   2.591   1.373  0.9082  0.4393  1.4013
 5505TIP3   OH238073   4.724   6.036   7.989 -0.3913 -0.3992  0.3414
 5505TIP3    H138074   4.705   5.993   8.072 -1.7656  0.7675  0.6775
 5505TIP3    H238075   4.641   6.035   7.942 -0.0968  0.6089 -0.2319
 5506TIP3   OH238076   5.675   6.145   0.754 -0.8013  0.2434 -0.2364
 5506TIP3    H138077   5.623   6.120   0.831  0.7141 -1.5585  0.2625
 5506TIP3    H238078   5.616   6.129   0.680 -1.5024 -0.2250  0.4009
 5507TIP3   OH238079   3.603   2.816   0.720 -0.0560 -0.1899  0.2180
 5507TIP3    H138080   3.514   2.805   0.686 -1.3198 -0.6468  3.3110
 5507TIP3    H238081   3.648   2.735   0.696 -0.5464 -0.0888 -1.1212
 5508TIP3   OH238082   2.399   4.868   7.588 -0.1171  0.3616  0.1202
 5508TIP3    H138083   2.430   4.949   7.546 -0.7355  0.9867  0.8465
 5508TIP3    H238084   2.350   4.824   7.519  0.3683  0.5122 -0.3350
 5509TIP3   OH238085   4.762   0.803   6.293  0.2578 -0.0992 -0.3013
 5509TIP3    H138086   4.839   0.765   6.251  1.7008 -0.2325  2.2390
 5509TIP3    H238087   4.699   0.731   6.300  0.4669 -0.3660 -1.1172
 5510TIP3   OH238088   2.338   4.675   8.048  0.4963  0.2053 -0.5695
 5510TIP3    H138089   2.289   4.608   8.097  1.6464  0.8778  1.6137
 5510TIP3    H238090   2.396   4.624   7.991 -0.7025 -0.5949 -1.1464
 5511TIP3   OH238091   2.702   0.698   2.012 -1.0094 -0.1805 -0.5003
 5511TIP3    H138092   2.615   0.705   2.052 -1.1131  0.0142 -0.7542
 5511TIP3    H238093   2.731   0.609   2.034 -1.4472 -0.3964 -0.7548
 5512TIP3   OH238094   0.330   4.492   2.584  0.2115  0.6615  0.1149
 5512TIP3    H138095   0.239   4.517   2.602 -0.0034  0.3744 -0.5638
 5512TIP3    H238096   0.359   4.552   2.516  0.4406  0.5743  0.1339
 5513TIP3   OH238097   4.342   5.579   0.829  0.1697  0.1061 -0.0403
 5513TIP3    H138098   4.363   5.545   0.743  0.3052 -1.7132  0.6605
 5513TIP3    H238099   4.246   5.580   0.832  0.1647 -0.2439 -0.0656
 5514TIP3   OH238100   5.813   1.801   7.896  0.2359 -0.4000  0.3043
 5514TIP3    H138101   5.838   1.788   7.804  0.2203 -1.4823  0.4425
 5514TIP3    H238102   5.895   1.796   7.944  0.8789  3.9601  0.0785
 5515TIP3   OH238103   2.643   1.918   6.851 -0.5703  0.1577  0.4645
 5515TIP3    H138104   2.696   1.881   6.780 -0.0276  1.2007  0.3095
 5515TIP3    H238105   2.652   2.013   6.841  0.1252  0.3402  2.3673
 5516TIP3   OH238106   1.432   6.212   7.719 -0.1089 -0.0007  0.0550
 5516TIP3    H138107   1.403   6.151   7.787 -2.2875  1.0540  0.1655
 5516TIP3    H238108   1.362   6.277   7.715  1.5281  1.7899 -0.9290
 5517TIP3   OH238109   2.275   0.764   8.075 -0.2165  0.2337  0.1810
 5517TIP3    H138110   2.216   0.799   8.143 -0.1369  2.1993 -0.6994
 5517TIP3    H238111   2.267   0.826   8.002  0.2039 -1.4637 -1.3760
 5518TIP3   OH238112   6.604   2.747   7.969 -0.2117 -0.0511 -0.0389
 5518TIP3    H138113   6.554   2.719   7.892  0.5614 -2.0073  0.1197
 5518TIP3    H238114   6.562   2.702   8.042  0.4911 -0.0833  0.3539
 5519TIP3   OH238115   3.632   2.750   8.013  0.6205 -0.2237  0.2649
 5519TIP3    H138116   3.551   2.792   8.040  0.3602 -1.4457  1.4752
 5519TIP3    H238117   3.625   2.660   8.046  1.6994 -0.8676 -1.1403
 5520TIP3   OH238118   1.705   2.042   0.419 -0.1507  0.2029 -0.4351
 5520TIP3    H138119   1.635   1.979   0.401 -0.1573 -0.0789  0.5244
 5520TIP3    H238120   1.704   2.052   0.515  0.5616  0.8426 -0.4872
 5521TIP3   OH238121   1.434   0.638   8.645  0.3098  0.4076  0.3095
 5521TIP3    H138122   1.480   0.719   8.666  0.5976 -0.3532  3.0311
 5521TIP3    H238123   1.497   0.569   8.667  0.5707 -0.6444 -3.2051
 5522TIP3   OH238124   4.727   6.463   7.711  0.4888  0.3844 -0.1096
 5522TIP3    H138125   4.634   6.459   7.732  0.8547 -0.6202  1.4950
 5522TIP3    H238126   4.735   6.416   7.628 -0.2211 -1.1803  0.6624
 5523TIP3   OH238127   3.048   5.743   8.674 -0.6674 -0.3261  0.3365
 5523TIP3    H138128   3.013   5.708   8.593 -1.3070  0.6288  0.1780
 5523TIP3    H238129   2.980   5.726   8.740 -1.7008  1.9107 -0.0612
 5524TIP3   OH238130   4.962   5.468   7.117  0.1809 -0.1302 -0.1432
 5524TIP3    H138131   4.909   5.391   7.138 -2.6841  1.7191 -0.0737
 5524TIP3    H238132   5.020   5.479   7.193 -2.5376  0.3066  2.0201
 5525TIP3   OH238133   6.059   2.738   6.601  0.0481  0.3605  0.3142
 5525TIP3    H138134   6.109   2.705   6.676  2.6734 -0.4490 -1.6412
 5525TIP3    H238135   6.108   2.709   6.524 -2.1613  1.6867 -1.7648
 5526TIP3   OH238136   1.130   2.768   8.603 -0.2676 -0.7044 -0.0832
 5526TIP3    H138137   1.200   2.756   8.538  0.6322 -1.0604  0.9277
 5526TIP3    H238138   1.161   2.837   8.661 -1.2796 -0.0498 -0.2883
 5527TIP3   OH238139   6.181   5.310   0.131  0.3887  0.4756  0.2314
 5527TIP3    H138140   6.138   5.236   0.088 -0.5199  1.2666 -0.2715
 5527TIP3    H238141   6.190   5.283   0.222  1.7208 -0.9563 -0.2839
 5528TIP3   OH238142   0.588   1.348   1.972  0.8187  0.2341 -0.3961
 5528TIP3    H138143   0.546   1.428   1.941 -0.5758  0.2246  1.3247
 5528TIP3    H238144   0.666   1.339   1.917 -0.4191  1.2833 -2.4268
 5529TIP3   OH238145   5.532   4.273   7.056 -0.4385  0.1577  0.0654
 5529TIP3    H138146   5.460   4.318   7.101  1.5235  1.6815  1.9388
 5529TIP3    H238147   5.597   4.259   7.125  1.2270 -0.7733 -1.6165
 5530TIP3   OH238148   6.059   4.357   1.491  0.3267  0.4192  0.0647
 5530TIP3    H138149   5.971   4.348   1.455  0.1329 -1.4747  0.8566
 5530TIP3    H238150   6.045   4.365   1.586  0.9946 -0.9971  0.3159
 5531TIP3   OH238151   3.319   4.894   1.380 -0.2373  0.3951 -0.2148
 5531TIP3    H138152   3.337   4.988   1.377  0.1302  0.3339  0.0004
 5531TIP3    H238153   3.234   4.885   1.337  1.0107  0.4742 -2.8613
 5532TIP3   OH238154   0.959   6.122   0.553 -0.0473  0.2598 -0.1916
 5532TIP3    H138155   0.996   6.196   0.602  1.8708  1.8532 -3.6456
 5532TIP3    H238156   0.906   6.163   0.485  0.1456 -1.6051 -1.5265
 5533TIP3   OH238157   5.657   6.412   1.907 -0.2422  0.5412  0.4746
 5533TIP3    H138158   5.646   6.506   1.924  1.0883  0.6990  0.5671
 5533TIP3    H238159   5.711   6.409   1.829  0.9988 -0.1294  1.3314
 5534TIP3   OH238160   1.787   4.377   6.675  0.1737  0.1296 -0.4978
 5534TIP3    H138161   1.769   4.397   6.767 -0.6362  0.5540 -0.7430
 5534TIP3    H238162   1.847   4.446   6.647  0.0487  0.2773 -0.4092
 5535TIP3   OH238163   3.252   6.109   1.181  0.0311 -0.4986 -0.8015
 5535TIP3    H138164   3.279   6.156   1.102  2.3080 -0.3972 -0.0209
 5535TIP3    H238165   3.310   6.142   1.249 -1.3544 -1.1695  0.7640
 5536TIP3   OH238166   0.949   4.677   1.146 -0.0234  0.2143  0.2444
 5536TIP3    H138167   0.975   4.756   1.194 -0.7619  0.1305  0.7952
 5536TIP3    H238168   0.865   4.699   1.107  0.6082  0.3136 -1.1338
 5537TIP3   OH238169   1.445   4.895   8.360 -0.0184 -0.0407 -0.0176
 5537TIP3    H138170   1.485   4.908   8.447  0.1898  1.4095 -0.3057
 5537TIP3    H238171   1.403   4.808   8.366 -0.6393  0.3267  1.7782
 5538TIP3   OH238172   0.643   4.673   2.641  0.5468  0.4488  0.0539
 5538TIP3    H138173   0.659   4.764   2.616  1.6470  0.0979 -0.5827
 5538TIP3    H238174   0.727   4.641   2.673  0.6857 -0.9009 -1.5223
 5539TIP3   OH238175   1.774   3.884   1.282 -0.4672  0.3643  0.4620
 5539TIP3    H138176   1.818   3.818   1.335  0.2516 -0.7385 -1.3963
 5539TIP3    H238177   1.754   3.955   1.343  0.8180 -0.5740  2.0563
 5540TIP3   OH238178   4.184   3.367   8.681 -0.4288 -0.3617  0.2298
 5540TIP3    H138179   4.256   3.315   8.716 -1.0545 -1.5097 -0.1525
 5540TIP3    H238180   4.107   3.311   8.689 -1.0140  0.2683 -0.7560
 5541TIP3   OH238181   1.666   6.358   7.877  0.1117 -0.4235  0.5611
 5541TIP3    H138182   1.673   6.305   7.798  0.6452 -1.1187  1.0484
 5541TIP3    H238183   1.632   6.297   7.943 -2.3810  0.6843  0.3876
 5542TIP3   OH238184   4.805   0.357   2.859  0.2153 -0.1770  0.0229
 5542TIP3    H138185   4.725   0.410   2.859  1.8256  2.5366 -1.9827
 5542TIP3    H238186   4.796   0.300   2.783  0.2451  0.2824 -0.3298
 5543TIP3   OH238187   0.131   6.307   0.608  0.1712  0.2919 -0.3539
 5543TIP3    H138188   0.131   6.321   0.513 -0.4988 -1.0470 -0.5753
 5543TIP3    H238189   0.196   6.238   0.622 -0.8478 -0.6236 -0.0341
 5544TIP3   OH238190   5.897   2.294   1.412  0.0434 -0.1136 -0.4286
 5544TIP3    H138191   5.967   2.263   1.354  0.4877 -1.0901  0.5984
 5544TIP3    H238192   5.816   2.277   1.364  0.4573  0.3910 -1.3384
 5545TIP3   OH238193   5.868   5.372   1.427 -0.2349  0.2878 -0.2048
 5545TIP3    H138194   5.911   5.455   1.450 -1.0973  0.6884 -0.0072
 5545TIP3    H238195   5.914   5.307   1.480  0.9791  0.5073 -0.9471
 5546TIP3   OH238196   0.205   3.753   8.293 -0.0283 -0.2377 -0.3014
 5546TIP3    H138197   0.279   3.777   8.350  1.4115 -1.3142 -1.6212
 5546TIP3    H238198   0.188   3.661   8.315 -0.3167 -0.2848 -0.7174
 5547TIP3   OH238199   1.295   5.634   8.327  0.0723  0.3708  0.6457
 5547TIP3    H138200   1.365   5.658   8.267  0.0961 -0.6686  0.2295
 5547TIP3    H238201   1.280   5.541   8.311 -1.5612  0.6114  0.5781
 5548TIP3   OH238202   4.091   5.854   7.336 -0.2045  0.5466  0.5474
 5548TIP3    H138203   4.004   5.860   7.376  0.1310 -1.2280  1.6684
 5548TIP3    H238204   4.119   5.765   7.354  0.2685 -0.2417 -3.1801
 5549TIP3   OH238205   1.755   1.515   0.919  0.0880 -0.2226 -0.1486
 5549TIP3    H138206   1.668   1.555   0.926  0.2571  0.0862  0.2529
 5549TIP3    H238207   1.744   1.427   0.956  0.0137 -0.0727  0.1971
 5550TIP3   OH238208   3.455   5.211   7.241 -0.0198 -0.1842  0.1027
 5550TIP3    H138209   3.447   5.116   7.250  0.4843 -0.2850 -0.4322
 5550TIP3    H238210   3.372   5.239   7.205 -0.8452 -0.1848  1.8997
 5551TIP3   OH238211   1.388   2.012   0.418  0.1207  0.0212  0.3193
 5551TIP3    H138212   1.394   2.053   0.504  1.8823  0.5905 -0.0341
 5551TIP3    H238213   1.295   1.995   0.406 -0.3469  1.3910  1.6590
 5552TIP3   OH238214   0.282   6.332   7.366  0.2279  0.0413  0.2334
 5552TIP3    H138215   0.212   6.392   7.394  1.1905  0.5577  1.6392
 5552TIP3    H238216   0.292   6.271   7.439 -0.2215 -1.4024 -0.8742
 5553TIP3   OH238217   0.132   1.813   7.502  0.1352  0.4678  0.2456
 5553TIP3    H138218   0.131   1.797   7.407 -1.3568 -0.6948  0.4221
 5553TIP3    H238219   0.049   1.857   7.520 -0.0847 -0.2973  1.1500
 5554TIP3   OH238220   3.855   1.337   0.527 -0.1316 -0.4965  0.1146
 5554TIP3    H138221   3.827   1.343   0.618 -0.0450 -2.3303  0.2993
 5554TIP3    H238222   3.942   1.296   0.530  0.1813  0.0438 -0.7704
 5555TIP3   OH238223   6.641   6.611   7.849 -0.4521 -0.8277 -0.2941
 5555TIP3    H138224   6.659   6.669   7.924  1.3061 -0.0309 -1.2709
 5555TIP3    H238225   6.693   6.648   7.777 -2.0488 -1.5999 -1.9198
 5556TIP3   OH238226   3.255   0.594   7.856 -0.3385  0.3888  0.1275
 5556TIP3    H138227   3.185   0.592   7.791 -1.4831 -0.6675  1.3152
 5556TIP3    H238228   3.336   0.593   7.805 -1.1942 -0.1652 -1.2690
 5557TIP3   OH238229   5.755   1.095   1.155 -0.4516 -0.4092  0.2489
 5557TIP3    H138230   5.695   1.102   1.229 -0.2335  0.6233  0.3431
 5557TIP3    H238231   5.827   1.040   1.187 -0.1845  0.3240  0.9326
 5558TIP3   OH238232   2.064   3.421   7.198 -0.1032  0.9247  0.4264
 5558TIP3    H138233   2.033   3.390   7.283 -1.1487  3.3845  1.0209
 5558TIP3    H238234   2.158   3.433   7.210 -0.3114  1.7429  1.4533
 5559TIP3   OH238235   3.055   3.668   0.190 -0.2009  0.1198  0.2500
 5559TIP3    H138236   3.027   3.740   0.133 -1.8256  0.2115  1.1140
 5559TIP3    H238237   3.077   3.711   0.273 -0.9677 -0.3367  0.6992
 5560TIP3   OH238238   2.001   2.241   1.237  0.2894  0.4642  0.4841
 5560TIP3    H138239   2.045   2.319   1.202 -0.4787  0.9927  0.6573
 5560TIP3    H238240   2.072   2.188   1.273  0.9406  0.5794 -0.5745
 5561TIP3   OH238241   2.007   2.867   6.971  0.3412 -0.7016  0.3801
 5561TIP3    H138242   1.967   2.920   6.902  2.2578 -0.6057 -0.7061
 5561TIP3    H238243   1.969   2.779   6.959  1.7758 -1.0879 -1.8497
 5562TIP3   OH238244   3.613   3.365   8.236  0.3204  0.5945 -0.4926
 5562TIP3    H138245   3.628   3.283   8.188  1.5961  0.2807  0.3952
 5562TIP3    H238246   3.636   3.434   8.174 -0.3759  0.2811 -1.1184
 5563TIP3   OH238247   6.360   5.535   0.522 -0.6348 -0.4538  0.8522
 5563TIP3    H138248   6.368   5.566   0.612  0.3793  0.6111  0.4146
 5563TIP3    H238249   6.317   5.607   0.476  0.5212 -0.2232  0.1048
 5564TIP3   OH238250   1.605   3.983   7.470 -0.0099 -0.5230  0.1595
 5564TIP3    H138251   1.646   3.901   7.441  1.6342 -0.7353  2.7578
 5564TIP3    H238252   1.633   3.993   7.561 -0.4451  2.7748  0.0485
 5565TIP3   OH238253   1.176   0.863   1.712 -0.2299 -0.2235 -0.1878
 5565TIP3    H138254   1.116   0.831   1.780 -0.5309 -0.7661 -0.6956
 5565TIP3    H238255   1.120   0.911   1.651 -0.0154 -0.0212 -0.2263
 5566TIP3   OH238256   3.367   3.685   1.152  0.8039 -0.1828  0.2412
 5566TIP3    H138257   3.367   3.620   1.222 -2.9154 -0.1512  0.4958
 5566TIP3    H238258   3.457   3.687   1.120  1.3704 -4.6294  0.9807
 5567TIP3   OH238259   2.273   1.248   2.185 -0.4133  0.3559  0.2236
 5567TIP3    H138260   2.347   1.280   2.237 -0.9182  1.5853  0.2261
 5567TIP3    H238261   2.267   1.155   2.206  1.4091  0.1350 -0.1417
 5568TIP3   OH238262   6.210   6.124   6.308  0.0543 -0.5301 -0.3564
 5568TIP3    H138263   6.201   6.038   6.267  1.5026 -1.4451  1.1397
 5568TIP3    H238264   6.303   6.146   6.299 -0.3463  1.0690 -1.0068
 5569TIP3   OH238265   1.992   4.983   1.611 -0.3582  0.2679  0.3077
 5569TIP3    H138266   1.994   4.914   1.677 -0.2579 -2.1281 -2.0174
 5569TIP3    H238267   1.912   5.032   1.630 -0.5144 -0.5476  1.9568
 5570TIP3   OH238268   4.282   6.577   1.654 -0.3308 -0.2105  0.0082
 5570TIP3    H138269   4.350   6.644   1.661  2.1265 -2.5852  0.9447
 5570TIP3    H238270   4.294   6.541   1.565  0.6719 -1.5273  0.6267
 5571TIP3   OH238271   3.587   1.671   8.544 -0.0059 -0.4335  0.4420
 5571TIP3    H138272   3.648   1.645   8.475 -1.2941 -0.1532 -0.8575
 5571TIP3    H238273   3.635   1.655   8.625  1.0590 -2.1497 -0.4406
 5572TIP3   OH238274   2.177   0.645   1.478  0.1642  0.0701 -0.4060
 5572TIP3    H138275   2.104   0.584   1.483 -0.0487  0.2892 -0.7717
 5572TIP3    H238276   2.247   0.595   1.436 -0.5089  0.5256 -2.1479
 5573TIP3   OH238277   0.063   4.204   2.184 -0.6789  0.4685 -0.1144
 5573TIP3    H138278  -0.030   4.191   2.201 -0.7321 -0.4877 -1.0156
 5573TIP3    H238279   0.106   4.129   2.225 -0.3077  0.8675  0.2362
 5574TIP3   OH238280   6.579   3.302   1.448  0.1805  0.4404 -0.1824
 5574TIP3    H138281   6.525   3.234   1.486  1.8902 -1.7823 -1.4798
 5574TIP3    H238282   6.553   3.382   1.493 -2.4112 -0.9169  0.9074
 5575TIP3   OH238283   2.541   5.189   0.616  0.0311  0.4443  0.6537
 5575TIP3    H138284   2.469   5.178   0.678  0.5771 -0.4752  1.1397
 5575TIP3    H238285   2.564   5.100   0.590 -0.7067  0.8287 -1.5136
 5576TIP3   OH238286   0.713   5.478   0.646  0.0096  0.1762 -0.1230
 5576TIP3    H138287   0.762   5.397   0.659 -0.1346  0.0711 -0.2254
 5576TIP3    H238288   0.651   5.457   0.576  1.9880  1.2558 -2.3253
 5577TIP3   OH238289   6.222   3.050   7.290  0.0532 -0.2381 -0.4086
 5577TIP3    H138290   6.146   3.107   7.301  0.5901  0.4136  0.0061
 5577TIP3    H238291   6.204   3.000   7.210 -1.0930 -0.5532  0.0365
 5578TIP3   OH238292   4.561   4.899   8.402 -0.3948 -0.2076  0.4647
 5578TIP3    H138293   4.611   4.896   8.320  1.6128  2.5072  1.4705
 5578TIP3    H238294   4.497   4.969   8.389  0.0864  0.3946  1.2631
 5579TIP3   OH238295   1.556   6.171   7.147  0.0757 -0.0825 -0.2881
 5579TIP3    H138296   1.482   6.153   7.206  1.5756  0.9205  2.0567
 5579TIP3    H238297   1.590   6.084   7.126  0.1166 -0.4813  1.2433
 5580TIP3   OH238298   1.053   6.367   6.987  0.0549  1.1334 -0.3523
 5580TIP3    H138299   1.037   6.294   6.927  2.7356 -1.0270  1.2990
 5580TIP3    H238300   0.997   6.437   6.956 -0.3138 -0.5790 -4.0045
 5581TIP3   OH238301   2.733   1.808   2.489 -0.1957 -0.7969  0.4727
 5581TIP3    H138302   2.753   1.725   2.534  0.1058 -1.3918 -0.7248
 5581TIP3    H238303   2.817   1.852   2.481 -0.2662 -0.6403  0.5719
 5582TIP3   OH238304   5.993   3.522   8.005  0.4665  0.5173 -0.1345
 5582TIP3    H138305   5.950   3.467   7.940  0.2881 -0.9419  1.1651
 5582TIP3    H238306   5.924   3.581   8.036  0.3369  0.6358 -0.6432
 5583TIP3   OH238307   2.130   2.901   0.012 -0.7522 -0.6174  0.2667
 5583TIP3    H138308   2.117   2.937   0.100  0.0414 -0.4233  0.3150
 5583TIP3    H238309   2.199   2.955  -0.026 -2.6766  0.8668 -1.3780
 5584TIP3   OH238310   0.531   0.833   7.003 -0.0816 -0.3095  0.3529
 5584TIP3    H138311   0.543   0.912   6.951 -1.6449 -0.0272  0.3653
 5584TIP3    H238312   0.520   0.763   6.939  0.7024 -0.4377  0.3422
 5585TIP3   OH238313   2.363   6.732   0.774 -0.0233 -0.0051  0.0628
 5585TIP3    H138314   2.276   6.699   0.801  0.5662 -0.9327  0.9269
 5585TIP3    H238315   2.356   6.827   0.781 -1.6766  0.1020 -2.1388
 5586TIP3   OH238316   2.939   4.266   7.719  0.0028 -0.1558  0.7250
 5586TIP3    H138317   2.887   4.307   7.650 -0.5936  0.2713  1.4176
 5586TIP3    H238318   3.024   4.249   7.679 -0.0900  0.7922  0.1203
 5587TIP3   OH238319   5.077   3.939   8.470 -0.4698 -0.1347  0.1692
 5587TIP3    H138320   5.036   4.002   8.528 -1.1242 -0.9560  0.6209
 5587TIP3    H238321   5.041   3.854   8.496  1.3352 -0.8755  0.4469
 5588TIP3   OH238322   6.144   1.954   1.367  0.0205  0.5980 -0.1154
 5588TIP3    H138323   6.195   1.892   1.419 -1.6774 -0.4246  0.3920
 5588TIP3    H238324   6.180   2.040   1.391  0.5913  0.0090  1.2622
 5589TIP3   OH238325   0.358   4.298   0.698  0.0290 -0.2124  0.1589
 5589TIP3    H138326   0.375   4.328   0.787  2.3241 -0.5746 -0.0928
 5589TIP3    H238327   0.284   4.237   0.706  0.0567 -0.0680  1.7590
 5590TIP3   OH238328   5.412   3.262   8.262  0.0806  0.0413  1.0736
 5590TIP3    H138329   5.398   3.168   8.249  0.5008 -0.0078  0.9619
 5590TIP3    H238330   5.346   3.304   8.208  2.4879 -0.1171 -2.2640
 5591TIP3   OH238331   0.415   2.706   8.345 -0.1534 -0.4290 -0.2283
 5591TIP3    H138332   0.478   2.672   8.408 -0.8540 -2.3643 -0.5025
 5591TIP3    H238333   0.339   2.731   8.397 -0.3062 -0.9635 -0.1959
 5592TIP3   OH238334   4.822   3.966   1.795  0.0253  0.2519 -0.3099
 5592TIP3    H138335   4.822   3.872   1.777  1.3106  0.0612  0.5481
 5592TIP3    H238336   4.898   4.000   1.748  0.4691  0.5853  0.6168
 5593TIP3   OH238337   6.086   3.681   0.416  0.3702  0.1191  0.3782
 5593TIP3    H138338   6.130   3.600   0.391  0.0184 -0.5788  1.9364
 5593TIP3    H238339   6.157   3.745   0.424  0.8340 -0.4134  0.5952
 5594TIP3   OH238340   0.582   5.025   7.717  0.4501 -0.1127  0.3939
 5594TIP3    H138341   0.548   5.089   7.780  0.1141  0.6205 -0.5129
 5594TIP3    H238342   0.670   5.056   7.696  0.6277 -0.4534  0.6196
 5595TIP3   OH238343   3.763   0.427   1.512  0.1822  0.0593 -0.7219
 5595TIP3    H138344   3.692   0.380   1.555  0.2653  1.2158  0.7316
 5595TIP3    H238345   3.833   0.362   1.505 -0.9010 -1.0433 -2.0102
 5596TIP3   OH238346   6.339   0.731   2.260  0.1420  0.2714 -0.4186
 5596TIP3    H138347   6.244   0.745   2.252  0.0062  0.0166  0.5547
 5596TIP3    H238348   6.377   0.818   2.248 -0.3295  0.6423  0.6576
 5597TIP3   OH238349   4.367   4.401   0.591 -0.4866 -0.4537 -0.6313
 5597TIP3    H138350   4.456   4.385   0.560 -0.1251 -0.2535  0.2892
 5597TIP3    H238351   4.339   4.317   0.627 -0.4414 -0.3596 -0.3718
 5598TIP3   OH238352   2.370   2.103   2.439  0.3681  0.5014  0.2885
 5598TIP3    H138353   2.314   2.121   2.515 -0.4484  0.1725 -0.2290
 5598TIP3    H238354   2.366   2.183   2.387  0.3566  0.4618  0.2295
 5599TIP3   OH238355   3.492   3.777   8.486 -0.2208 -0.2463 -0.2488
 5599TIP3    H138356   3.442   3.828   8.422 -1.6163  1.5614  2.1240
 5599TIP3    H238357   3.437   3.776   8.564  0.9512 -3.2414  0.6831
 5600TIP3   OH238358   0.496   1.783   1.222 -0.2014 -0.5054  0.0766
 5600TIP3    H138359   0.521   1.776   1.314 -0.6768  1.1235  0.3529
 5600TIP3    H238360   0.401   1.798   1.223  0.0878  1.7745 -0.5189
 5601TIP3   OH238361   3.140   6.126   0.227 -0.5859  0.0350 -0.1009
 5601TIP3    H138362   3.188   6.205   0.253  0.8833 -0.5971 -0.7645
 5601TIP3    H238363   3.173   6.105   0.140 -0.4180 -1.6995  0.3277
 5602TIP3   OH238364   5.401   2.549   8.389 -0.0102 -0.2148  0.3210
 5602TIP3    H138365   5.475   2.609   8.383  0.3614 -0.4500  2.0319
 5602TIP3    H238366   5.381   2.544   8.483 -1.9952 -0.4059 -0.0601
 5603TIP3   OH238367   0.000   6.209   6.858 -0.1415 -0.0144  0.4950
 5603TIP3    H138368   0.000   6.294   6.901 -0.6012  0.4881 -0.4678
 5603TIP3    H238369   0.053   6.222   6.779 -1.6733 -0.1198 -0.5810
 5604TIP3   OH238370   4.399   1.321   0.821 -0.0058  0.2447 -0.1118
 5604TIP3    H138371   4.457   1.369   0.880 -1.1663 -2.1218  3.2220
 5604TIP3    H238372   4.316   1.368   0.825  0.6578  1.9028 -2.5851
 5605TIP3   OH238373   5.225   6.837   1.759  0.4467  0.3936  0.2150
 5605TIP3    H138374   5.139   6.821   1.721 -0.0814  0.8988  1.1643
 5605TIP3    H238375   5.248   6.925   1.730  0.3508  0.5124  0.5004
 5606TIP3   OH238376   0.549   4.198   1.405  0.2729  0.0918  0.1337
 5606TIP3    H138377   0.632   4.160   1.435  2.4459  2.2175 -2.6201
 5606TIP3    H238378   0.563   4.293   1.410 -1.5632  0.5038 -1.4726
 5607TIP3   OH238379   1.032   2.194   1.016 -0.3908 -0.2953 -0.1918
 5607TIP3    H138380   0.939   2.208   1.002 -0.2378 -0.9300 -2.0714
 5607TIP3    H238381   1.072   2.280   1.001 -0.7806  0.4828  2.5617
 5608TIP3   OH238382   2.491   1.838   2.385  0.1859 -0.4161  0.1117
 5608TIP3    H138383   2.455   1.926   2.389 -0.4462 -0.6117 -0.8204
 5608TIP3    H238384   2.561   1.837   2.450  0.4013  0.8589 -0.0800
 5609TIP3   OH238385   6.498   4.213   0.561 -0.3131 -0.4065 -0.2649
 5609TIP3    H138386   6.406   4.234   0.573 -0.5946 -1.4251 -0.5446
 5609TIP3    H238387   6.531   4.284   0.505 -0.8995 -0.0010 -0.1098
 5610TIP3   OH238388   4.881   2.266   1.500  0.2203 -0.0435  0.3649
 5610TIP3    H138389   4.834   2.199   1.451 -0.4738  1.0688 -0.5586
 5610TIP3    H238390   4.816   2.303   1.559  0.6874 -0.4074  1.1111
 5611TIP3   OH238391   3.032   0.657   0.095 -0.5154 -0.2863  0.0435
 5611TIP3    H138392   3.047   0.683   0.004 -0.8798  0.6498  0.2431
 5611TIP3    H238393   3.096   0.588   0.110 -2.6765 -2.9555 -1.9753
 5612TIP3   OH238394   1.813   4.502   7.770  0.6036 -0.4463 -0.1245
 5612TIP3    H138395   1.876   4.448   7.817 -0.0385 -0.7568  0.4034
 5612TIP3    H238396   1.778   4.561   7.837  0.7946  0.1482 -0.5496
 5613TIP3   OH238397   6.311   6.535   8.189  0.0954 -0.0839  0.7546
 5613TIP3    H138398   6.233   6.481   8.178  0.9038 -1.0097 -0.6732
 5613TIP3    H238399   6.279   6.614   8.232 -1.6664 -0.3690  0.0545
 5614TIP3   OH238400   0.484   2.933   8.212 -0.8983 -0.7102 -0.4746
 5614TIP3    H138401   0.539   2.924   8.134  1.6466  0.4052  1.0431
 5614TIP3    H238402   0.471   2.843   8.243  0.0305 -1.0238 -0.9456
 5615TIP3   OH238403   4.370   2.904   8.456  0.0739 -0.1547  0.0419
 5615TIP3    H138404   4.430   2.967   8.416  0.5826 -0.8819 -0.3873
 5615TIP3    H238405   4.421   2.823   8.462 -0.7492 -0.6968 -0.0005
 5616TIP3   OH238406   6.807   6.270   7.690  0.0628 -0.5800  0.6505
 5616TIP3    H138407   6.729   6.290   7.639  0.3545 -0.1303  0.3719
 5616TIP3    H238408   6.777   6.268   7.781  0.3384  3.1594  0.9501
 5617TIP3   OH238409   1.890   0.135   7.030  0.5678  0.5327  0.1770
 5617TIP3    H138410   1.838   0.058   7.008 -0.5190  1.0500  0.8484
 5617TIP3    H238411   1.827   0.207   7.033  1.3952  1.2659  0.5693
 5618TIP3   OH238412   0.105   3.344   0.125 -0.1681 -0.7271  0.1646
 5618TIP3    H138413   0.126   3.259   0.163 -1.8740 -0.7046  1.2407
 5618TIP3    H238414   0.024   3.371   0.168  0.3861  1.5135 -0.0645
 5619TIP3   OH238415   6.235   5.993   7.177  0.0782  0.8632  0.2614
 5619TIP3    H138416   6.203   6.080   7.199 -1.6992  0.7860 -1.7542
 5619TIP3    H238417   6.165   5.933   7.204  0.1125  0.3244 -0.7878
 5620TIP3   OH238418   5.208   2.910   2.924 -0.4283  0.1629 -1.0663
 5620TIP3    H138419   5.154   2.988   2.938 -0.2811  0.1377 -0.3134
 5620TIP3    H238420   5.150   2.849   2.877 -1.5063 -0.3616  0.8456
 5621TIP3   OH238421   3.318   3.190   7.044 -0.4119  0.2040 -0.0556
 5621TIP3    H138422   3.258   3.177   6.971 -1.7917  3.9652  0.1848
 5621TIP3    H238423   3.381   3.254   7.013 -0.0471  0.6615  1.5106
 5622TIP3   OH238424   1.102   6.589   6.640  0.1102  0.5505 -0.3318
 5622TIP3    H138425   1.133   6.665   6.690  0.0704  0.0934  0.3871
 5622TIP3    H238426   1.181   6.537   6.625  0.0929  0.6004 -0.6168
 5623TIP3   OH238427   5.868   2.595   7.218  0.0683 -0.2376  0.5569
 5623TIP3    H138428   5.798   2.632   7.273 -2.2116  0.3515 -2.5087
 5623TIP3    H238429   5.852   2.501   7.220  0.9538 -0.3890  2.0232
 5624TIP3   OH238430   5.640   1.972   0.400 -0.3420  0.2842  0.3669
 5624TIP3    H138431   5.662   2.064   0.381  1.3069 -0.1795 -0.1075
 5624TIP3    H238432   5.557   1.958   0.353 -0.7226  1.5738  0.6065
 5625TIP3   OH238433   2.516   2.256   6.125 -0.6395 -0.1500  0.3918
 5625TIP3    H138434   2.555   2.241   6.039 -1.9333 -0.5595 -0.1540
 5625TIP3    H238435   2.456   2.329   6.112  0.0303  0.5660  1.2417
 5626TIP3   OH238436   2.877   4.083   1.606  0.1385  0.3294 -0.4210
 5626TIP3    H138437   2.922   4.142   1.545  0.2254  0.1028 -0.5774
 5626TIP3    H238438   2.926   4.001   1.600 -0.8633 -0.2350 -1.3148
 5627TIP3   OH238439   1.226   6.162   1.543 -0.5701  0.3754 -0.1633
 5627TIP3    H138440   1.161   6.223   1.507 -0.0910  0.8302 -0.2770
 5627TIP3    H238441   1.291   6.219   1.583 -0.1353 -0.0721 -0.2363
 5628TIP3   OH238442   5.615   5.745   0.460 -0.1004 -0.0220 -0.3122
 5628TIP3    H138443   5.527   5.715   0.482 -0.1026  0.3653  0.2223
 5628TIP3    H238444   5.673   5.677   0.494 -0.1913 -0.3408 -0.7786
 5629TIP3   OH238445   5.906   0.541   1.888 -1.0697 -0.0947 -0.1693
 5629TIP3    H138446   5.916   0.605   1.958 -0.2545 -1.7142  1.2663
 5629TIP3    H238447   5.948   0.582   1.812 -0.5481  1.0615  0.7079
 5630TIP3   OH238448   6.645   4.526   6.738 -0.4084  0.0132  0.1968
 5630TIP3    H138449   6.561   4.572   6.735  0.1943  1.1401 -2.7390
 5630TIP3    H238450   6.711   4.595   6.740  0.5542 -0.8549  2.0649
 5631TIP3   OH238451   6.169   3.575   8.214 -0.1616  0.5048 -0.2368
 5631TIP3    H138452   6.239   3.629   8.177  1.1875 -1.0566 -0.0880
 5631TIP3    H238453   6.129   3.532   8.138  0.4376 -0.1837 -0.1768
 5632TIP3   OH238454   2.733   3.329   8.465 -0.7740 -0.0073  0.2917
 5632TIP3    H138455   2.729   3.386   8.542 -0.4274 -0.8502  0.9367
 5632TIP3    H238456   2.823   3.339   8.433 -1.8279  3.2322 -2.2662
 5633TIP3   OH238457   6.815   5.611   7.491  0.6373 -0.1593  0.3048
 5633TIP3    H138458   6.784   5.692   7.449  2.1047  0.4033  0.2289
 5633TIP3    H238459   6.740   5.552   7.488 -1.3573  1.9920  2.6027
 5634TIP3   OH238460   1.536   3.046   0.426  0.2439  0.0171 -0.1054
 5634TIP3    H138461   1.446   3.076   0.413  0.0272 -0.5310  0.1093
 5634TIP3    H238462   1.579   3.117   0.473 -0.0760  0.2826 -0.2153
 5635TIP3   OH238463   5.069   3.851   7.507  0.8735  0.6735 -0.3502
 5635TIP3    H138464   5.053   3.828   7.598 -0.6037  0.3306 -0.6799
 5635TIP3    H238465   5.156   3.892   7.508  1.6064 -0.8115  0.9470
 5636TIP3   OH238466   1.319   4.037   1.347 -0.3849 -0.0147  0.4237
 5636TIP3    H138467   1.269   3.965   1.307 -0.4683  1.0314 -1.5042
 5636TIP3    H238468   1.252   4.100   1.375 -0.2568  0.4591 -0.2911
 5637TIP3   OH238469   3.334   4.610   7.876  0.1696  0.2243 -0.0163
 5637TIP3    H138470   3.348   4.528   7.829 -0.6039 -1.0346  1.8310
 5637TIP3    H238471   3.292   4.668   7.812  0.8781 -0.7439 -1.3980
 5638TIP3   OH238472   3.165   5.959   0.875  0.2049  0.3362 -0.5516
 5638TIP3    H138473   3.087   6.010   0.896  0.1348 -0.0512  0.1601
 5638TIP3    H238474   3.239   6.018   0.894  0.0975  0.5107 -0.6806
 5639TIP3   OH238475   3.277   0.324   1.121  0.4358  0.6513  0.4643
 5639TIP3    H138476   3.190   0.347   1.089 -0.2130 -1.6479  0.3753
 5639TIP3    H238477   3.326   0.302   1.042 -0.3025 -2.2623  0.6951
 5640TIP3   OH238478   3.256   6.719   1.169 -0.3418 -0.3666 -0.2647
 5640TIP3    H138479   3.275   6.791   1.228 -2.8190  0.0258  0.1652
 5640TIP3    H238480   3.184   6.750   1.114 -1.5480 -2.4793 -0.0196
 5641TIP3   OH238481   6.440   3.817   1.502  0.5540  0.3386  0.1080
 5641TIP3    H138482   6.425   3.839   1.410  0.8395  1.3695  0.2934
 5641TIP3    H238483   6.511   3.876   1.529  1.0009 -0.4950  0.7764
 5642TIP3   OH238484   2.656   2.468   0.510  0.4103  0.4088  0.4781
 5642TIP3    H138485   2.745   2.494   0.532 -0.1079  1.8907  0.9219
 5642TIP3    H238486   2.613   2.456   0.595  0.5038 -1.6268  0.2999
 5643TIP3   OH238487   0.287   1.015   7.025 -0.0016 -0.9619  0.1740
 5643TIP3    H138488   0.278   1.057   7.111  1.6529 -0.7105  0.2563
 5643TIP3    H238489   0.336   0.935   7.043  0.6985 -0.7149 -0.5837
 5644TIP3   OH238490   1.392   5.463   8.068 -0.1811  0.1644 -0.2135
 5644TIP3    H138491   1.324   5.459   8.001 -1.5568 -1.9461  1.1839
 5644TIP3    H238492   1.474   5.453   8.020 -1.0251  0.0477 -1.6774
 5645TIP3   OH238493   2.765   3.857   6.727 -0.9048 -0.2241  0.2264
 5645TIP3    H138494   2.765   3.931   6.667 -1.4993  0.1361  0.6647
 5645TIP3    H238495   2.675   3.823   6.724 -0.1518 -2.2542 -1.5793
 5646TIP3   OH238496   4.847   3.623   0.635  0.0931 -0.1331 -0.2355
 5646TIP3    H138497   4.773   3.643   0.693  0.8310 -2.2096  1.5571
 5646TIP3    H238498   4.821   3.659   0.550 -1.2661  2.6179  1.1922
 5647TIP3   OH238499   1.011   1.217   1.449  0.0673  0.0502 -0.4750
 5647TIP3    H138500   0.964   1.282   1.396 -0.0883  0.0558 -0.3295
 5647TIP3    H238501   1.048   1.267   1.522  0.3283  0.0516 -0.6043
 5648TIP3   OH238502   5.627   4.809   8.528  0.1344  0.0842  0.0532
 5648TIP3    H138503   5.606   4.737   8.469 -0.8071  0.8128 -0.5120
 5648TIP3    H238504   5.713   4.840   8.499 -0.0592  0.0549 -0.5558
 5649TIP3   OH238505   3.200   6.467   1.503  0.2905  0.3948 -0.4219
 5649TIP3    H138506   3.123   6.481   1.449 -0.5423 -0.2858  0.5421
 5649TIP3    H238507   3.166   6.428   1.584  1.6916 -0.3655 -0.1629
 5650TIP3   OH238508   2.444   5.138   1.152 -0.2394 -0.8339  0.0297
 5650TIP3    H138509   2.514   5.188   1.110 -1.4277  0.0733 -0.9297
 5650TIP3    H238510   2.439   5.173   1.241  0.3147 -0.7093  0.0149
 5651TIP3   OH238511   1.774   1.641   8.188 -0.4791 -0.0213 -0.0243
 5651TIP3    H138512   1.810   1.726   8.165 -2.6543  0.6464 -1.1704
 5651TIP3    H238513   1.720   1.658   8.265 -0.8158 -0.3870 -0.1773
 5652TIP3   OH238514   2.887   2.011   1.585 -0.2022 -0.5881 -0.3134
 5652TIP3    H138515   2.920   2.077   1.523 -0.7767  1.0402  1.0235
 5652TIP3    H238516   2.794   2.033   1.594  0.2101  0.3755  2.4099
 5653TIP3   OH238517   4.715   2.663   7.243  0.1332 -0.0668  0.6671
 5653TIP3    H138518   4.632   2.710   7.243  0.2901  0.2254  1.3329
 5653TIP3    H238519   4.775   2.720   7.196  0.2006  0.1861  1.0508
 5654TIP3   OH238520   2.625   3.838   7.297  0.1492  0.2056  0.0168
 5654TIP3    H138521   2.635   3.782   7.220  0.9202  0.4214 -0.0487
 5654TIP3    H238522   2.714   3.849   7.330 -0.1030  0.6531  0.5590
 5655TIP3   OH238523   0.432   3.123   0.469 -0.0623 -0.1901  0.2376
 5655TIP3    H138524   0.390   3.123   0.556 -1.1510 -1.3222 -0.2575
 5655TIP3    H238525   0.412   3.209   0.433 -1.8706 -0.6047  0.1078
 5656TIP3   OH238526   1.983   3.320   0.614 -0.4205 -0.2272 -0.9091
 5656TIP3    H138527   2.003   3.230   0.585  0.6025  0.0712 -1.1883
 5656TIP3    H238528   1.896   3.338   0.579 -1.3351 -1.6637  0.4772
 5657TIP3   OH238529   5.853   3.071   8.396  0.2481  0.3032  0.1770
 5657TIP3    H138530   5.918   3.132   8.429 -0.5925  0.5889  1.3462
 5657TIP3    H238531   5.888   3.044   8.311  2.8875 -1.1041  1.5798
 5658TIP3   OH238532   1.011   6.705   6.393  0.2681 -0.1277  0.3025
 5658TIP3    H138533   1.045   6.678   6.478  1.6698 -2.0435 -0.7959
 5658TIP3    H238534   0.965   6.628   6.360 -1.7778  1.1368 -0.0025
 5659TIP3   OH238535   2.460   2.662   8.448  0.2800  0.2012  0.3931
 5659TIP3    H138536   2.533   2.600   8.443  0.6157  0.6569 -0.3829
 5659TIP3    H238537   2.466   2.699   8.537  0.6434 -0.1772  0.5281
 5660TIP3   OH238538   4.730   0.053   7.111  0.3660  0.1211 -0.0268
 5660TIP3    H138539   4.761   0.078   7.199 -0.8273  2.2890 -0.1392
 5660TIP3    H238540   4.748   0.130   7.057 -0.9081 -0.3395 -1.1608
 5661TIP3   OH238541   4.479   5.408   8.299  0.4147 -0.3835  0.7991
 5661TIP3    H138542   4.462   5.393   8.392  1.1913 -0.5568  0.9142
 5661TIP3    H238543   4.562   5.364   8.281  0.3104 -0.2982  0.0360
 5662TIP3   OH238544   2.336   0.111   0.501  0.1118  0.0104 -0.1736
 5662TIP3    H138545   2.414   0.120   0.446  0.7094 -0.1972  0.6048
 5662TIP3    H238546   2.338   0.188   0.557  0.1726 -0.3583  0.3417
 5663TIP3   OH238547   2.073   6.731   8.163 -0.3463 -0.3326 -0.0022
 5663TIP3    H138548   1.982   6.743   8.138 -0.0792  1.8223 -0.0598
 5663TIP3    H238549   2.122   6.789   8.105  1.2570 -2.4046 -0.8914
 5664TIP3   OH238550   3.606   3.699   0.430  0.0230  0.5055  0.2069
 5664TIP3    H138551   3.562   3.679   0.513 -0.4746 -0.1836 -0.2103
 5664TIP3    H238552   3.548   3.662   0.363  0.0525  1.6940 -0.4931
 5665TIP3   OH238553   0.483   1.420   7.103 -0.2666 -0.3903  0.1343
 5665TIP3    H138554   0.478   1.515   7.116  1.0025 -0.6085  2.7485
 5665TIP3    H238555   0.420   1.403   7.033 -0.1298  2.4211 -0.8345
 5666TIP3   OH238556   4.867   4.058   0.559  0.0607  0.8194  0.6587
 5666TIP3    H138557   4.896   4.108   0.636  1.0357  1.4361 -0.0768
 5666TIP3    H238558   4.930   4.081   0.491  0.1368 -0.9094  0.0953
 5667TIP3   OH238559   2.242   6.757   6.382  0.7557 -0.3185 -0.0927
 5667TIP3    H138560   2.197   6.726   6.304  1.9260 -1.5685 -0.3028
 5667TIP3    H238561   2.193   6.720   6.455  0.3065 -0.0418 -0.2445
 5668TIP3   OH238562   6.665   5.506   1.979  0.0773 -0.2385 -0.2000
 5668TIP3    H138563   6.586   5.475   2.024  1.4949 -1.1512  1.7832
 5668TIP3    H238564   6.670   5.452   1.899 -1.1551 -0.3207 -0.2449
 5669TIP3   OH238565   4.782   4.517   1.078  0.1236  0.2367 -0.2929
 5669TIP3    H138566   4.813   4.502   1.167 -0.4950 -2.6120 -0.4609
 5669TIP3    H238567   4.687   4.518   1.086  0.0460 -0.6301 -0.9556
 5670TIP3   OH238568   2.259   1.498   1.757  0.4709  0.1338 -0.0682
 5670TIP3    H138569   2.172   1.530   1.781  0.2001 -0.9283  0.4372
 5670TIP3    H238570   2.293   1.459   1.838  0.6584 -1.1049 -0.7135
 5671TIP3   OH238571   4.515   6.628   1.170 -0.4191 -0.3531  0.1547
 5671TIP3    H138572   4.540   6.715   1.141 -1.3149  0.0242  0.4802
 5671TIP3    H238573   4.440   6.605   1.114 -0.5137 -0.6929  0.4201
 5672TIP3   OH238574   4.015   3.615   6.813  0.1781 -0.3590 -0.2891
 5672TIP3    H138575   3.963   3.547   6.858 -1.1965 -0.1830 -1.5517
 5672TIP3    H238576   3.952   3.684   6.794  1.5365  1.2711  0.8633
 5673TIP3   OH238577   3.664   6.110   7.515  0.1014  0.2083 -0.4372
 5673TIP3    H138578   3.676   6.192   7.563  0.1859  0.1754 -0.4012
 5673TIP3    H238579   3.730   6.112   7.446 -0.0848  0.2996 -0.6145
 5674TIP3   OH238580   2.815   5.128   1.332 -0.4241  0.2007  0.0453
 5674TIP3    H138581   2.903   5.146   1.298 -0.9059  0.6183 -1.0043
 5674TIP3    H238582   2.817   5.034   1.353  0.0316  0.0295 -0.7092
 5675TIP3   OH238583   4.331   1.287   1.882  0.1533  0.7941  0.1397
 5675TIP3    H138584   4.287   1.217   1.929 -1.4179  1.1160 -0.7841
 5675TIP3    H238585   4.395   1.321   1.945  1.3762 -1.7869  0.4224
 5676TIP3   OH238586   3.997   3.051   8.150 -0.0406 -0.0966 -0.7529
 5676TIP3    H138587   4.016   2.993   8.076 -0.8759 -0.1837 -0.9140
 5676TIP3    H238588   3.904   3.036   8.169  0.7125 -2.0127  1.9893
 5677TIP3   OH238589   5.720   0.355   1.776  0.1827 -0.1911 -0.1924
 5677TIP3    H138590   5.790   0.413   1.803  0.7402  0.5700 -2.9582
 5677TIP3    H238591   5.642   0.389   1.820  0.7946  1.6285 -0.4434
 5678TIP3   OH238592   2.359   2.327   1.420 -0.4465 -0.0667  0.2094
 5678TIP3    H138593   2.339   2.364   1.506  1.6289  0.0353  0.6899
 5678TIP3    H238594   2.419   2.389   1.380 -0.1608 -0.8926 -0.6815
 5679TIP3   OH238595   5.993   4.034   8.281  0.2501 -0.0196 -0.0712
 5679TIP3    H138596   5.949   3.949   8.275  0.3891 -0.0121 -1.7042
 5679TIP3    H238597   5.968   4.068   8.367 -0.6583 -1.2456  0.1802
 5680TIP3   OH238598   0.299   4.093   7.077 -0.4433  0.0058  0.0350
 5680TIP3    H138599   0.254   4.107   6.993 -0.8151  0.9972  0.3926
 5680TIP3    H238600   0.261   4.158   7.136  0.5288 -0.0189  0.7082
 5681TIP3   OH238601   2.318   3.092   0.441  0.4295 -0.2107  0.0120
 5681TIP3    H138602   2.378   3.163   0.464 -0.9387  1.1215 -0.3238
 5681TIP3    H238603   2.287   3.114   0.353 -1.6477 -0.0141  0.7329
 5682TIP3   OH238604   5.522   1.752   1.324 -0.1451 -0.6350 -0.7707
 5682TIP3    H138605   5.440   1.703   1.327  0.7463 -2.1111  1.4067
 5682TIP3    H238606   5.582   1.703   1.380  1.8371  1.1413 -1.2128
 5683TIP3   OH238607   6.635   5.275   7.085 -0.7327 -0.8025 -0.8680
 5683TIP3    H138608   6.616   5.239   6.998 -1.9770  0.1997 -1.0435
 5683TIP3    H238609   6.657   5.366   7.069 -1.4797 -0.4720 -0.0945
 5684TIP3   OH238610   6.300   3.834   0.464  0.4039  0.3172  0.5780
 5684TIP3    H138611   6.383   3.883   0.464  1.1099 -0.8369 -0.1304
 5684TIP3    H238612   6.233   3.902   0.467  1.2875  1.5752 -2.9782
 5685TIP3   OH238613   5.289   4.336   7.208 -0.6846 -0.2047 -0.0286
 5685TIP3    H138614   5.237   4.320   7.129  0.6213 -2.1021 -0.5704
 5685TIP3    H238615   5.276   4.258   7.262  4.1820 -2.6731 -1.7549
 5686TIP3   OH238616   0.665   3.148   8.656  0.2780 -0.5224  0.3315
 5686TIP3    H138617   0.595   3.158   8.721 -0.5259  0.2088 -0.6275
 5686TIP3    H238618   0.639   3.073   8.604 -0.6249  0.6812 -1.0118
 5687TIP3   OH238619   3.999   1.877   8.127 -0.0476  0.1246  0.1894
 5687TIP3    H138620   3.925   1.852   8.071  0.4634 -1.0096 -0.0089
 5687TIP3    H238621   4.050   1.938   8.073 -1.7656  2.3886  0.9907
 5688TIP3   OH238622   1.138   6.859   1.637  0.0576 -0.2129 -0.8413
 5688TIP3    H138623   1.166   6.905   1.558 -2.2837 -1.2542 -2.3807
 5688TIP3    H238624   1.075   6.918   1.678 -0.0204 -0.4084 -0.6808
 5689TIP3   OH238625   0.791   1.331   1.808  0.6814 -0.5795  0.1932
 5689TIP3    H138626   0.785   1.322   1.713  0.7742 -0.9649  0.2196
 5689TIP3    H238627   0.885   1.328   1.827  0.6087 -2.2695  0.4400
 5690TIP3   OH238628   2.505   6.348   1.403 -0.2952  0.3820 -0.0834
 5690TIP3    H138629   2.576   6.405   1.373 -0.9315  1.5155  0.5084
 5690TIP3    H238630   2.539   6.308   1.483 -0.5793  1.4815  0.5994
 5691TIP3   OH238631   6.687   5.722   2.234 -0.0640 -0.6176 -0.0008
 5691TIP3    H138632   6.655   5.811   2.249  0.1225 -0.5647  0.0923
 5691TIP3    H238633   6.608   5.668   2.228 -0.1737 -0.4660  0.0766
 5692TIP3   OH238634   2.966   1.469   0.003 -0.0762 -0.5054  0.1836
 5692TIP3    H138635   2.914   1.548   0.017  2.4694  1.4881 -0.9200
 5692TIP3    H238636   2.948   1.415   0.081 -0.5114  1.9612  1.9192
 5693TIP3   OH238637   5.043   0.414   1.409  0.1140 -0.1474  0.2284
 5693TIP3    H138638   5.121   0.388   1.457 -0.3643  1.5333  2.0523
 5693TIP3    H238639   5.024   0.339   1.352  1.9665 -1.3444  1.0768
 5694TIP3   OH238640   5.039   1.314   1.750  0.0501 -0.4007  0.1069
 5694TIP3    H138641   4.977   1.310   1.822 -0.0213  0.8595  0.1481
 5694TIP3    H238642   5.119   1.273   1.784 -0.0833 -0.1048  0.7945
 5695TIP3   OH238643   4.910   2.732   7.574 -0.3405  0.7058 -0.3208
 5695TIP3    H138644   4.941   2.686   7.496 -1.7015 -0.3109 -0.3097
 5695TIP3    H238645   4.837   2.786   7.542 -2.7307 -1.7774  0.5936
 5696TIP3   OH238646   2.194   3.214   1.393 -0.2368  0.0711  0.1551
 5696TIP3    H138647   2.210   3.127   1.429  1.9560  0.4796  0.2957
 5696TIP3    H238648   2.181   3.270   1.470  1.0102  0.3181  0.2077
 5697TIP3   OH238649   1.624   6.135   8.023 -0.4618  0.4288  0.0794
 5697TIP3    H138650   1.537   6.146   8.062 -1.2751 -0.6200 -1.3201
 5697TIP3    H238651   1.678   6.100   8.094 -1.8489 -1.2772  0.3747
 5698TIP3   OH238652   4.196   5.481   0.560 -0.3019  0.5950 -0.1412
 5698TIP3    H138653   4.128   5.548   0.568 -3.5307 -2.0730 -2.8488
 5698TIP3    H238654   4.151   5.399   0.576  1.7651 -1.5014 -3.8382
 5699TIP3   OH238655   4.151   1.441   0.831 -0.6317 -0.3911 -0.6951
 5699TIP3    H138656   4.132   1.526   0.870 -2.1797 -0.4871 -1.1756
 5699TIP3    H238657   4.076   1.386   0.855 -0.9327 -0.8643 -2.5509
 5700TIP3   OH238658   4.169   2.057   1.042 -0.4547  0.2169  0.4160
 5700TIP3    H138659   4.143   1.979   1.091  0.0379 -0.8016 -0.9042
 5700TIP3    H238660   4.246   2.030   0.992  0.2726  1.8176  0.6094
 5701TIP3   OH238661   6.701   5.839   7.403  0.2610  0.0428  0.3432
 5701TIP3    H138662   6.755   5.907   7.444 -1.0353  0.6583  1.0861
 5701TIP3    H238663   6.641   5.887   7.347 -0.9377 -0.4412  1.1825
 5702TIP3   OH238664   3.622   4.086   7.458  0.0292  0.4040 -0.4265
 5702TIP3    H138665   3.692   4.058   7.517 -1.7976 -1.4113  1.0291
 5702TIP3    H238666   3.647   4.050   7.373  0.5117 -0.8987  0.2361
 5703TIP3   OH238667   6.794   0.256   7.338 -0.1275 -0.1177 -0.5003
 5703TIP3    H138668   6.716   0.237   7.390 -1.6927  2.2027 -1.8474
 5703TIP3    H238669   6.838   0.327   7.384  0.0351  0.0064 -0.8381
 5704TIP3   OH238670   2.883   2.811   6.930 -0.2794  0.2343 -0.8479
 5704TIP3    H138671   2.855   2.880   6.869 -0.9490  1.0352  0.3082
 5704TIP3    H238672   2.817   2.812   6.999  0.7742 -0.2109  0.2122
 5705TIP3   OH238673   3.530   0.730   6.259 -0.0297  0.4358 -0.2566
 5705TIP3    H138674   3.539   0.776   6.342 -0.0528 -0.9715  0.5646
 5705TIP3    H238675   3.619   0.726   6.224  0.1179  0.2867  0.1298
 5706TIP3   OH238676   3.164   4.582   2.374  0.1027  0.2904 -0.1669
 5706TIP3    H138677   3.255   4.564   2.350  0.3085  3.7790 -2.8265
 5706TIP3    H238678   3.165   4.672   2.405 -2.7314  1.4393 -2.9010
 5707TIP3   OH238679   2.226   5.299   8.583  0.1982 -0.5475  0.0813
 5707TIP3    H138680   2.175   5.241   8.640 -0.1925  0.0453  0.3332
 5707TIP3    H238681   2.229   5.382   8.629  0.1456 -0.1523 -0.6223
 5708TIP3   OH238682   3.050   5.377   8.196  0.0897  0.2861 -0.6395
 5708TIP3    H138683   2.986   5.444   8.173 -1.4074 -0.8069  0.1352
 5708TIP3    H238684   3.093   5.356   8.113 -0.7304  0.8868 -1.2391
 5709TIP3   OH238685   4.497   4.621   0.077  0.0665  0.2016 -0.2446
 5709TIP3    H138686   4.548   4.645   0.154  0.9171 -0.6661 -0.5253
 5709TIP3    H238687   4.471   4.705   0.038  2.0828  0.6842 -0.6332
 5710TIP3   OH238688   0.079   5.396   7.635  0.0527 -0.3628 -0.8611
 5710TIP3    H138689   0.011   5.351   7.586 -0.9431  0.8180 -0.6117
 5710TIP3    H238690   0.159   5.348   7.615 -0.6436 -1.0269 -2.1525
 5711TIP3   OH238691   2.232   4.517   0.708 -0.0013  0.3697 -0.2096
 5711TIP3    H138692   2.289   4.475   0.773 -1.8280 -2.3263 -0.2031
 5711TIP3    H238693   2.274   4.500   0.624  0.3309  0.3611 -0.0445
 5712TIP3   OH238694   1.712   2.714   7.832  0.0461  0.5423  0.8017
 5712TIP3    H138695   1.714   2.619   7.823  2.5075  0.6368 -0.8710
 5712TIP3    H238696   1.792   2.735   7.880 -0.2243  1.7723  0.7476
 5713TIP3   OH238697   5.298   1.024   7.560  0.2813  0.4760  0.2289
 5713TIP3    H138698   5.381   1.027   7.512 -0.5776  2.0921 -1.2819
 5713TIP3    H238699   5.312   0.959   7.629  1.9754 -1.0553 -1.4660
 5714TIP3   OH238700   5.946   2.929   1.594 -0.2305 -0.2908 -0.0975
 5714TIP3    H138701   6.035   2.896   1.605 -0.9312 -2.5351 -0.7503
 5714TIP3    H238702   5.909   2.875   1.525 -2.0894  0.6554  0.1116
 5715TIP3   OH238703   0.551   6.162   0.961  0.3294  0.5401 -0.1719
 5715TIP3    H138704   0.542   6.067   0.970  1.1865  0.4970  0.4347
 5715TIP3    H238705   0.483   6.199   1.017  1.0623  0.2598  0.9491
 5716TIP3   OH238706   1.945   1.383   0.368 -0.0340  0.7458 -0.2521
 5716TIP3    H138707   1.986   1.445   0.427  0.9480  0.8802 -1.0449
 5716TIP3    H238708   2.005   1.308   0.367 -0.3805  0.4702 -0.5601
 5717TIP3   OH238709   0.235   0.568   1.326 -0.3849  0.1544 -0.3307
 5717TIP3    H138710   0.256   0.631   1.395 -0.0755  0.3612 -0.6056
 5717TIP3    H238711   0.312   0.570   1.268 -0.2855 -0.6209 -0.2368
 5718TIP3   OH238712   2.592   4.592   7.018 -0.0094  0.2128 -0.2685
 5718TIP3    H138713   2.659   4.660   7.010 -1.2764  1.4570 -0.6418
 5718TIP3    H238714   2.565   4.574   6.929 -0.4566  0.0025 -0.0932
 5719TIP3   OH238715   2.487   3.340   8.298  0.2764  0.2816 -0.0730
 5719TIP3    H138716   2.545   3.361   8.225 -0.6823  1.6457 -0.4928
 5719TIP3    H238717   2.545   3.339   8.375  1.4196 -1.9008 -0.8917
 5720TIP3   OH238718   4.569   4.530   1.484 -1.0380 -0.1762 -0.4374
 5720TIP3    H138719   4.526   4.607   1.521  0.7274  0.3234  0.7247
 5720TIP3    H238720   4.551   4.460   1.546  0.8576  0.3625  0.8259
 5721TIP3   OH238721   0.574   3.891   1.975  0.0318  0.4873 -0.4175
 5721TIP3    H138722   0.658   3.852   2.000  0.5735  2.2844  0.7688
 5721TIP3    H238723   0.509   3.836   2.017  0.5800 -1.0752 -1.5473
 5722TIP3   OH238724   3.747   2.950   7.192 -1.0758 -0.6341 -0.3411
 5722TIP3    H138725   3.759   2.922   7.283 -0.3382  1.1222  0.1514
 5722TIP3    H238726   3.662   2.914   7.167 -1.5249 -0.7500  1.2168
 5723TIP3   OH238727   6.721   1.232   7.222 -0.1504 -0.3455 -0.3333
 5723TIP3    H138728   6.800   1.206   7.269 -1.0803  0.1735  1.6290
 5723TIP3    H238729   6.746   1.312   7.175  0.7326 -0.7178 -0.5043
 5724TIP3   OH238730   6.770   0.414   0.663 -0.0931  0.0934 -0.0245
 5724TIP3    H138731   6.801   0.497   0.626  1.0138 -0.6579 -0.8271
 5724TIP3    H238732   6.689   0.396   0.616 -0.3401  0.7060  0.1532
 5725TIP3   OH238733   1.695   2.416   7.009  0.1751  0.1393 -0.7446
 5725TIP3    H138734   1.762   2.483   7.023 -0.6273  1.4051 -2.5151
 5725TIP3    H238735   1.621   2.444   7.062 -0.6082  1.4395 -2.4123
 5726TIP3   OH238736   4.387   1.949   0.886  0.2254  0.5068  0.0166
 5726TIP3    H138737   4.476   1.973   0.863  0.6023 -2.2410 -1.7842
 5726TIP3    H238738   4.389   1.854   0.896 -2.4759  0.3604 -0.0566
 5727TIP3   OH238739   6.790   4.120   0.405  0.1210  0.1001  0.7956
 5727TIP3    H138740   6.819   4.061   0.475  1.6414  0.7907  0.7822
 5727TIP3    H238741   6.812   4.208   0.437 -1.6791  0.6594  0.6134
 5728TIP3   OH238742   6.170   6.564   8.605 -0.7978  0.0719  0.2615
 5728TIP3    H138743   6.080   6.550   8.634 -0.5723 -0.4929  0.7105
 5728TIP3    H238744   6.223   6.543   8.682 -0.3170  1.1728  0.2467
 5729TIP3   OH238745   3.312   5.788   8.604 -0.2610 -0.2125  0.7548
 5729TIP3    H138746   3.221   5.787   8.633 -0.3993  1.0919  0.4358
 5729TIP3    H238747   3.310   5.744   8.519 -0.6009 -0.1896  0.7482
 5730TIP3   OH238748   2.280   4.330   0.024  0.3690  0.4212  0.0231
 5730TIP3    H138749   2.205   4.287  -0.018 -0.3722  1.5594  0.1410
 5730TIP3    H238750   2.249   4.418   0.044  1.1208  0.3211  1.8164
 5731TIP3   OH238751   6.705   2.498   7.865 -0.6940 -0.6781 -0.4276
 5731TIP3    H138752   6.665   2.563   7.923  1.9344 -0.5028  1.3646
 5731TIP3    H238753   6.799   2.505   7.882 -0.0537 -2.7645 -2.5493
 5732TIP3   OH238754   5.365   1.797   0.522  0.7187 -0.3609 -0.1324
 5732TIP3    H138755   5.402   1.716   0.485  0.7505 -0.7268  0.6677
 5732TIP3    H238756   5.292   1.818   0.465 -0.8333 -2.3274  0.9947
 5733TIP3   OH238757   3.790   6.860   7.141  0.1587 -0.0049  0.3402
 5733TIP3    H138758   3.722   6.909   7.094  0.0061 -0.0430  0.5236
 5733TIP3    H238759   3.871   6.904   7.117 -0.1664  1.8313  2.3490
 5734TIP3   OH238760   0.178   6.525   6.382  0.7129  0.9574 -0.5908
 5734TIP3    H138761   0.122   6.501   6.309 -1.9385 -1.7039  2.0861
 5734TIP3    H238762   0.242   6.454   6.388  0.4487  0.7738  0.1112
 5735TIP3   OH238763   6.513   5.630   0.214 -0.4238  0.7042 -0.1762
 5735TIP3    H138764   6.499   5.630   0.119 -1.3103 -0.2711 -0.0691
 5735TIP3    H238765   6.527   5.538   0.236 -2.4867  0.5754  0.9132
 5736TIP3   OH238766   1.492   4.579   0.565 -0.3681  0.0521  0.3634
 5736TIP3    H138767   1.568   4.638   0.574 -0.0694 -0.3593  0.6029
 5736TIP3    H238768   1.518   4.501   0.613  0.0244 -1.0441 -1.5414
 5737TIP3   OH238769   5.877   0.091   1.469 -0.0472  0.3263  0.1205
 5737TIP3    H138770   5.823   0.053   1.538  0.9971  0.9046  1.2943
 5737TIP3    H238771   5.967   0.071   1.495  0.3399 -0.1268 -1.5001
 5738TIP3   OH238772   5.140   3.700   1.913  0.5201 -0.0075 -0.3310
 5738TIP3    H138773   5.121   3.706   2.007  0.1401  0.7984 -0.4564
 5738TIP3    H238774   5.231   3.671   1.909  1.2822  2.1557  0.3002
 5739TIP3   OH238775   2.450   4.090   1.294  0.2814 -0.2564  0.5962
 5739TIP3    H138776   2.425   3.998   1.302  0.7448 -0.2875  1.8561
 5739TIP3    H238777   2.544   4.091   1.314  0.5697  0.3247 -0.6887
 5740TIP3   OH238778   4.929   2.290   6.350 -0.0113  0.0530 -0.0933
 5740TIP3    H138779   4.875   2.350   6.402 -0.9397 -3.4034  3.3684
 5740TIP3    H238780   5.018   2.301   6.386  0.4930  1.3867 -1.6054
 5741TIP3   OH238781   5.213   1.476   8.058 -0.4584  0.7943  0.1688
 5741TIP3    H138782   5.171   1.495   8.141 -1.4208  1.2519 -0.4117
 5741TIP3    H238783   5.143   1.445   8.001  0.0305  1.2715 -0.7296
 5742TIP3   OH238784   4.018   5.096   0.036 -0.4081 -0.1416  0.3241
 5742TIP3    H138785   3.986   5.089   0.126 -1.5549 -1.4621 -0.1582
 5742TIP3    H238786   4.108   5.128   0.045 -0.5958  0.0069  1.9179
 5743TIP3   OH238787   1.133   6.718   6.987  0.4233  0.1150  0.0724
 5743TIP3    H138788   1.109   6.793   7.042  3.2319  1.1050  0.1259
 5743TIP3    H238789   1.151   6.647   7.048 -0.5660 -0.1204  0.1169
 5744TIP3   OH238790   6.226   1.110   6.367  0.1332  0.6305  0.1983
 5744TIP3    H138791   6.312   1.136   6.337  0.7565 -0.3747  1.0335
 5744TIP3    H238792   6.202   1.036   6.311 -0.0127  0.6642  0.2154
 5745TIP3   OH238793   3.017   1.068   8.094  0.3233 -0.3516  0.7844
 5745TIP3    H138794   3.109   1.040   8.090  1.0727  1.6284  2.4354
 5745TIP3    H238795   3.009   1.111   8.179 -1.5393  1.4991 -0.2406
 5746TIP3   OH238796   2.210   4.846   1.491  0.0002 -0.0885 -0.2280
 5746TIP3    H138797   2.212   4.872   1.399 -0.2831 -0.9123 -0.4762
 5746TIP3    H238798   2.129   4.886   1.525  0.0958  0.2014 -0.3355
 5747TIP3   OH238799   5.508   1.471   7.034  0.1680 -0.5450 -0.0454
 5747TIP3    H138800   5.512   1.464   6.939  0.4751 -2.4813  0.0820
 5747TIP3    H238801   5.597   1.452   7.064 -0.1680 -1.0267  0.6832
 5748TIP3   OH238802   1.918   1.205   7.566  0.2132 -0.0554  0.5394
 5748TIP3    H138803   1.935   1.139   7.634 -0.9131 -2.3956 -1.3010
 5748TIP3    H238804   1.839   1.250   7.596  1.8031  1.5738  2.5370
 5749TIP3   OH238805   3.801   2.772   2.820 -0.3246  0.5333 -0.0124
 5749TIP3    H138806   3.824   2.701   2.759  0.1855 -0.0108  0.7974
 5749TIP3    H238807   3.792   2.728   2.905 -1.8815  1.1426  0.1627
 5750TIP3   OH238808   3.936   6.857   1.769  0.3767 -0.4346 -0.2266
 5750TIP3    H138809   3.886   6.937   1.750  0.9370  0.5374  2.0734
 5750TIP3    H238810   3.885   6.812   1.836 -0.4416 -2.6177 -2.1838
 5751TIP3   OH238811   5.834   1.090   0.087  0.5900  0.3517 -0.0542
 5751TIP3    H138812   5.830   1.062  -0.005 -0.4466 -1.7225  0.5720
 5751TIP3    H238813   5.781   1.026   0.134  0.0087  2.1363  1.8512
 5752TIP3   OH238814   0.342   1.094   8.258 -0.2878  0.1265  0.0824
 5752TIP3    H138815   0.254   1.092   8.220  0.4022 -0.3023 -1.5546
 5752TIP3    H238816   0.386   1.017   8.223  0.6093  0.0814  1.2499
 5753TIP3   OH238817   4.508   3.389   1.015  0.5275  0.1862  0.4603
 5753TIP3    H138818   4.435   3.397   1.076 -0.1837 -0.7844 -0.2211
 5753TIP3    H238819   4.584   3.422   1.063 -0.4496  1.7315  0.9900
 5754TIP3   OH238820   3.912   4.045   1.097  1.1548  0.3488 -0.2206
 5754TIP3    H138821   3.858   4.101   1.153 -1.3471  0.8824 -2.9301
 5754TIP3    H238822   3.909   3.959   1.139 -0.0142  0.8936  0.8697
 5755TIP3   OH238823   2.341   0.988   2.188  0.2262  0.0445 -0.4258
 5755TIP3    H138824   2.249   0.972   2.208  0.6728 -0.5024  1.4149
 5755TIP3    H238825   2.375   0.902   2.163  0.6896 -0.2140  1.0036
 5756TIP3   OH238826   5.386   0.827   8.097 -0.0273  0.1179  0.0305
 5756TIP3    H138827   5.372   0.751   8.153 -0.2241  0.2370  0.1451
 5756TIP3    H238828   5.415   0.896   8.156 -1.7647  0.7013  0.2435
 5757TIP3   OH238829   2.758   1.018   6.191  0.5526  0.6285  0.3966
 5757TIP3    H138830   2.826   0.951   6.182  1.7607  1.7181  1.1462
 5757TIP3    H238831   2.675   0.969   6.185  1.3911 -0.8274  0.2735
 5758TIP3   OH238832   0.842   0.048   0.042 -0.3127  0.6115 -0.2884
 5758TIP3    H138833   0.931   0.073   0.021 -0.5103  3.2103  1.4455
 5758TIP3    H238834   0.849   0.004   0.127 -0.5921 -0.2291 -0.6880
 5759TIP3   OH238835   0.816   2.423   0.333  0.4986 -0.3642  0.4457
 5759TIP3    H138836   0.771   2.467   0.405  0.6230 -1.8948  1.5048
 5759TIP3    H238837   0.772   2.339   0.326  0.5849 -0.3000 -1.2032
 5760TIP3   OH238838   0.024   1.834   7.246 -0.3334  0.4518 -0.3436
 5760TIP3    H138839  -0.055   1.815   7.297 -0.9210 -2.0232 -1.9950
 5760TIP3    H238840  -0.002   1.903   7.186 -0.8075  0.6232  0.0478
 5761TIP3   OH238841   0.942   6.564   8.398  0.0260 -0.3311 -0.3904
 5761TIP3    H138842   1.020   6.593   8.352  0.3737 -2.9017 -1.5873
 5761TIP3    H238843   0.923   6.477   8.362 -2.3244 -0.5708  1.1661
 5762TIP3   OH238844   0.365   0.912   8.542 -0.3098  0.0152 -0.1396
 5762TIP3    H138845   0.368   0.909   8.638  0.8095  0.7575 -0.1259
 5762TIP3    H238846   0.431   0.849   8.514 -1.3215 -0.9199 -0.4516
 5763TIP3   OH238847   6.574   2.466   7.074  0.2775 -0.0641  0.5741
 5763TIP3    H138848   6.661   2.460   7.034  0.4376 -1.1765  1.0712
 5763TIP3    H238849   6.587   2.519   7.152 -0.1141  2.5054 -0.9672
 5764TIP3   OH238850   0.744   0.026   7.148 -0.3097  0.1165  0.3475
 5764TIP3    H138851   0.698   0.085   7.089  0.2997  0.7737  0.5233
 5764TIP3    H238852   0.702   0.038   7.233  1.1288  1.8450  0.8641
 5765TIP3   OH238853   4.279   1.330   8.478  0.2197 -0.4579  0.4653
 5765TIP3    H138854   4.250   1.378   8.555 -0.6863  0.1834 -0.2652
 5765TIP3    H238855   4.344   1.386   8.437  0.3586 -0.5894  0.5032
 5766TIP3   OH238856   4.197   1.148   1.442 -0.3136 -0.2034  0.0712
 5766TIP3    H138857   4.145   1.104   1.509 -0.4988 -0.6714 -0.3703
 5766TIP3    H238858   4.194   1.088   1.367 -0.0515  0.2811 -0.3288
 5767TIP3   OH238859   6.703   5.788   1.803  0.4771 -0.6316  0.0899
 5767TIP3    H138860   6.649   5.743   1.737  0.4599  0.6810 -0.8479
 5767TIP3    H238861   6.662   5.874   1.812  3.1265  1.0026 -1.7436
 5768TIP3   OH238862   2.266   4.384   7.055 -0.1448  0.1413 -0.2483
 5768TIP3    H138863   2.349   4.336   7.058  0.2784  0.7456 -1.4237
 5768TIP3    H238864   2.246   4.390   6.962 -1.1245  0.6608 -0.0104
 5769TIP3   OH238865   0.442   4.669   2.416  0.5681  0.1500 -0.2256
 5769TIP3    H138866   0.503   4.664   2.489 -1.0774  0.1894  1.2076
 5769TIP3    H238867   0.413   4.760   2.415 -0.2851 -0.1177 -0.1800
 5770TIP3   OH238868   3.617   0.268   8.444 -0.5044  0.2026 -0.1268
 5770TIP3    H138869   3.597   0.186   8.398 -0.7045  0.6370 -0.8308
 5770TIP3    H238870   3.631   0.241   8.535  0.7393 -0.7946 -0.5752
 5771TIP3   OH238871   6.838   1.644   1.898 -0.7115 -0.0759 -0.0552
 5771TIP3    H138872   6.849   1.657   1.992 -1.8798 -1.2461  0.2796
 5771TIP3    H238873   6.921   1.671   1.860 -0.6172  1.4998  1.1897
 5772TIP3   OH238874   3.935   1.527   7.058 -0.4938 -0.3528 -0.0674
 5772TIP3    H138875   3.868   1.462   7.082 -0.8549 -0.6128 -1.6945
 5772TIP3    H238876   3.945   1.518   6.964  2.2107 -0.6663  0.1660
 5773TIP3   OH238877   2.486   0.253   1.883  1.0763  0.1055  0.8591
 5773TIP3    H138878   2.547   0.180   1.875  1.1972  0.2420  0.4774
 5773TIP3    H238879   2.399   0.212   1.880  1.0938  0.1028 -1.2670
 5774TIP3   OH238880   6.527   4.328   0.116 -0.5059  0.1658 -0.1153
 5774TIP3    H138881   6.574   4.372   0.045  0.6441 -0.4098  0.2723
 5774TIP3    H238882   6.564   4.240   0.119 -1.3620 -0.1963  0.4474
 5775TIP3   OH238883   5.425   1.684   2.035  0.1644  0.0399 -0.2405
 5775TIP3    H138884   5.398   1.592   2.035  0.4377 -0.1221 -2.5840
 5775TIP3    H238885   5.409   1.714   2.124  1.8677 -2.7806  1.1599
 5776TIP3   OH238886   4.173   6.105   8.669 -0.1454  0.5425 -0.6800
 5776TIP3    H138887   4.245   6.106   8.732  1.1701 -0.7483 -2.0790
 5776TIP3    H238888   4.097   6.077   8.720  1.1986 -2.0195  0.1249
 5777TIP3   OH238889   3.283   3.013   7.269  0.1712 -0.3857 -0.2287
 5777TIP3    H138890   3.273   2.919   7.252  1.6779 -0.5592 -0.2719
 5777TIP3    H238891   3.318   3.048   7.187  3.4673 -0.5105  0.9817
 5778TIP3   OH238892   2.388   3.885   0.105 -0.2925  0.0276 -0.2933
 5778TIP3    H138893   2.316   3.919   0.051  1.0113  1.4387 -1.2357
 5778TIP3    H238894   2.397   3.793   0.078 -0.0275  0.5539 -2.1598
 5779TIP3   OH238895   6.343   1.983   7.545 -1.0015 -0.0673  0.0704
 5779TIP3    H138896   6.329   1.990   7.639 -2.6342  1.4476 -0.2416
 5779TIP3    H238897   6.359   1.890   7.530  1.3943 -0.0763  2.0713
 5780TIP3   OH238898   4.080   2.654   1.854 -0.0648  0.3778 -0.3512
 5780TIP3    H138899   4.120   2.624   1.937  0.4466  1.5118 -0.1717
 5780TIP3    H238900   3.996   2.691   1.880  1.1257  3.0142  0.0642
 5781TIP3   OH238901   3.480   2.614   1.378  0.4081  0.5025 -0.2518
 5781TIP3    H138902   3.449   2.524   1.384 -1.5885  1.1298 -0.4518
 5781TIP3    H238903   3.576   2.607   1.387  0.3151 -1.6159 -0.3607
 5782TIP3   OH238904   0.979   0.272   7.325  0.1642 -0.0108  0.3148
 5782TIP3    H138905   0.886   0.293   7.316  0.1877 -0.4510 -1.3511
 5782TIP3    H238906   0.981   0.196   7.382 -0.5673 -0.4043 -0.1648
 5783TIP3   OH238907   0.277   4.134   7.591 -0.0177  0.1220 -0.0222
 5783TIP3    H138908   0.297   4.058   7.536  0.4539  0.3179 -0.1252
 5783TIP3    H238909   0.191   4.114   7.628  0.4287 -0.8230  0.5516
 5784TIP3   OH238910   4.275   1.175   7.662  0.5466  0.1591 -0.6149
 5784TIP3    H138911   4.205   1.199   7.723  1.3113  0.4206  0.1638
 5784TIP3    H238912   4.278   1.079   7.666  0.4521  0.1650 -0.4098
 5785TIP3   OH238913   3.345   4.020   0.304 -0.5507  0.2307  0.5960
 5785TIP3    H138914   3.255   4.052   0.304 -1.2151 -1.4548 -0.7710
 5785TIP3    H238915   3.365   4.004   0.396 -1.7144  0.4546  0.9002
 5786TIP3   OH238916   2.231   3.509   1.070 -0.1146  0.0826  0.3659
 5786TIP3    H138917   2.281   3.572   1.122  1.5136 -0.0134 -0.9842
 5786TIP3    H238918   2.257   3.423   1.103 -1.4500  0.0554  1.4260
 5787TIP3   OH238919   0.314   4.910   7.207 -0.0590  0.1341  0.7612
 5787TIP3    H138920   0.325   4.994   7.251 -3.4977 -0.2304  2.6430
 5787TIP3    H238921   0.300   4.932   7.115  3.7909  1.1426  0.2325
 5788TIP3   OH238922   6.813   3.739   7.475 -0.4856 -0.1428  0.3514
 5788TIP3    H138923   6.777   3.664   7.520  0.6030 -0.4995  0.6696
 5788TIP3    H238924   6.884   3.769   7.531  1.2963 -0.9445 -1.3447
 5789TIP3   OH238925   4.489   3.902   8.169  0.6965  0.5280  0.1983
 5789TIP3    H138926   4.428   3.933   8.101 -0.4540 -0.4019  0.7926
 5789TIP3    H238927   4.496   3.976   8.230 -2.1209 -0.2930  1.6651
 5790TIP3   OH238928   3.564   1.220   0.360  0.0243 -0.2733 -0.0672
 5790TIP3    H138929   3.616   1.172   0.424  0.2029 -1.6866 -1.2153
 5790TIP3    H238930   3.613   1.213   0.279 -0.8901  0.2413 -0.6804
 5791TIP3   OH238931   1.007   5.067   7.172 -0.0005  0.3189 -0.2205
 5791TIP3    H138932   1.084   5.015   7.196  0.5694  1.4371  0.5061
 5791TIP3    H238933   0.993   5.124   7.247 -2.0066 -0.3415 -0.0537
 5792TIP3   OH238934   5.222   4.012   0.836 -0.1676  0.7505  0.0833
 5792TIP3    H138935   5.161   3.982   0.769 -0.6332 -0.6135  1.0780
 5792TIP3    H238936   5.172   4.077   0.886 -0.4629  0.3733  0.2789
 5793TIP3   OH238937   1.444   6.029   1.769 -0.1282 -0.5375 -0.9599
 5793TIP3    H138938   1.436   5.952   1.713 -1.0257 -1.3598  0.2625
 5793TIP3    H238939   1.469   5.995   1.854  0.1029  0.5884 -0.5617
 5794TIP3   OH238940   6.116   0.160   0.956 -0.3846  0.5399  0.3193
 5794TIP3    H138941   6.028   0.128   0.935 -0.5903  1.7601 -0.8422
 5794TIP3    H238942   6.111   0.183   1.049 -0.5885 -1.5217  0.8484
 5795TIP3   OH238943   0.755   1.703   6.791 -0.1651 -0.1159  0.4786
 5795TIP3    H138944   0.764   1.614   6.825  1.0982 -0.4608 -0.6475
 5795TIP3    H238945   0.846   1.732   6.777 -0.5019  1.7114  1.6852
 5796TIP3   OH238946   0.262   5.036   1.905 -0.2479 -0.1592 -0.1507
 5796TIP3    H138947   0.253   5.123   1.866  1.9188  0.4275  0.5212
 5796TIP3    H238948   0.355   5.016   1.900 -0.3695 -1.5069  1.6623
 5797TIP3   OH238949   2.492   2.066   8.034 -0.6624 -0.1086 -0.3815
 5797TIP3    H138950   2.499   2.141   7.974 -0.7700  0.3639  0.1882
 5797TIP3    H238951   2.432   2.006   7.989 -1.0820  0.4291 -0.5584
 5798TIP3   OH238952   0.866   0.382   0.204 -0.1851  0.0642  0.2564
 5798TIP3    H138953   0.885   0.426   0.287 -1.0063 -0.2689  0.6185
 5798TIP3    H238954   0.823   0.301   0.228  0.2849 -0.4189 -0.4700
 5799TIP3   OH238955   5.962   2.916   0.408  0.1412 -0.0075  0.5810
 5799TIP3    H138956   5.885   2.916   0.464  1.3167  0.6297  2.2997
 5799TIP3    H238957   5.944   2.983   0.342 -0.4668  0.6837  1.4276
 5800TIP3   OH238958   1.652   2.040   7.565  0.5431  0.1980  0.9202
 5800TIP3    H138959   1.592   2.086   7.506  1.2641 -0.3036 -0.2355
 5800TIP3    H238960   1.689   1.970   7.512 -0.6477 -1.8709  2.6684
 5801TIP3   OH238961   6.180   4.124   7.570 -0.2324 -0.0163  0.4524
 5801TIP3    H138962   6.204   4.135   7.662  0.0218  0.2277  0.3596
 5801TIP3    H238963   6.158   4.212   7.540  1.1929  0.1741 -0.1291
 5802TIP3   OH238964   3.234   2.474   6.938 -0.0165 -0.0728  0.2707
 5802TIP3    H138965   3.162   2.507   6.991  1.7306  1.4134  1.8955
 5802TIP3    H238966   3.248   2.543   6.873  0.8332  0.3601  0.8910
 5803TIP3   OH238967   4.757   0.661   8.510  0.2633  0.5578  0.4091
 5803TIP3    H138968   4.778   0.727   8.444 -0.4902 -0.2171 -0.6338
 5803TIP3    H238969   4.839   0.612   8.522  0.2572  0.3366 -0.3925
 5804TIP3   OH238970   0.692   2.195   7.240 -0.4612  0.0925 -0.0563
 5804TIP3    H138971   0.641   2.222   7.317  1.7875 -1.3177  2.0982
 5804TIP3    H238972   0.713   2.277   7.195 -0.3212  1.1757  1.8805
 5805TIP3   OH238973   1.284   3.422   0.702  0.0569  0.1268  0.4743
 5805TIP3    H138974   1.206   3.370   0.720  1.3967 -1.4178  2.3034
 5805TIP3    H238975   1.292   3.479   0.779  1.3345 -0.5912  0.9020
 5806TIP3   OH238976   3.668   1.899   2.179 -0.1836  0.1681 -0.2019
 5806TIP3    H138977   3.667   1.808   2.208  0.5136 -0.0872 -0.9363
 5806TIP3    H238978   3.576   1.926   2.180 -0.4562 -0.7292 -0.5651
 5807TIP3   OH238979   3.550   5.566   7.810 -0.0959 -0.1411  0.6589
 5807TIP3    H138980   3.476   5.535   7.759  0.6360  1.3202 -1.4201
 5807TIP3    H238981   3.576   5.648   7.768  0.8586  0.9431  3.1406
 5808TIP3   OH238982   2.067   5.700   1.292 -0.0555 -0.0979 -0.2636
 5808TIP3    H138983   2.113   5.646   1.356 -2.8857 -1.5306  0.7264
 5808TIP3    H238984   2.065   5.787   1.331  1.9842  0.0980 -0.4963
 5809TIP3   OH238985   3.619   4.404   2.834 -0.2497  0.1966  0.1050
 5809TIP3    H138986   3.630   4.420   2.928  2.0653 -0.6763  0.0471
 5809TIP3    H238987   3.691   4.346   2.811 -1.0763 -0.0367 -2.1303
 5810TIP3   OH238988   3.957   6.039   0.144  0.5021  0.3399  0.2076
 5810TIP3    H138989   3.945   6.004   0.232 -1.1570 -1.1467 -0.5316
 5810TIP3    H238990   3.880   6.094   0.130  1.6329  2.0034  0.2788
 5811TIP3   OH238991   2.727   3.366   6.599 -0.1377 -0.7405  0.3900
 5811TIP3    H138992   2.796   3.303   6.621  0.2071  0.2621  2.4448
 5811TIP3    H238993   2.763   3.418   6.527  1.0448 -0.6118  1.0550
 5812TIP3   OH238994   4.219   3.642   2.829  0.1299  0.2404  0.0860
 5812TIP3    H138995   4.267   3.559   2.822 -0.9669 -0.3121 -1.4560
 5812TIP3    H238996   4.242   3.689   2.749  0.8204  1.4990  0.9963
 5813TIP3   OH238997   6.244   6.481   0.341  0.1877  0.2432 -0.3310
 5813TIP3    H138998   6.312   6.414   0.347 -0.3609 -0.3506 -0.6183
 5813TIP3    H238999   6.162   6.432   0.336 -0.2251  0.9369 -0.5166
 5814TIP3   OH239000   4.804   1.166   0.810 -0.6291  0.2699  0.3299
 5814TIP3    H139001   4.736   1.165   0.878  1.0231 -0.0090  2.0851
 5814TIP3    H239002   4.795   1.081   0.767 -0.8844 -0.1086  1.0948
 5815TIP3   OH239003   0.480   1.179   1.573 -0.4199  0.1658  0.1247
 5815TIP3    H139004   0.427   1.202   1.650 -0.1642 -0.2808  0.4392
 5815TIP3    H239005   0.517   1.094   1.595 -0.0286  0.2177 -0.3341
 5816TIP3   OH239006   2.834   0.122   8.090  0.2270  0.5822 -0.3403
 5816TIP3    H139007   2.787   0.155   8.013  0.8208  2.2358 -0.0407
 5816TIP3    H239008   2.834   0.196   8.151  3.7393  0.9554 -0.5899
 5817TIP3   OH239009   3.686   3.073   0.219  0.3268 -0.3332  0.7231
 5817TIP3    H139010   3.660   3.163   0.195  0.5199 -0.4396  0.1108
 5817TIP3    H239011   3.629   3.052   0.293  1.0308  0.6944  1.5874
 5818TIP3   OH239012   2.196   5.551   0.008 -0.0605  0.1089  0.0346
 5818TIP3    H139013   2.159   5.629   0.050 -1.0819 -0.4053  0.1082
 5818TIP3    H239014   2.266   5.524   0.067  0.3060  0.9607  0.0128
 5819TIP3   OH239015   5.363   5.822   0.716 -0.1590  0.0996  0.0544
 5819TIP3    H139016   5.321   5.752   0.666 -0.5619  1.5560 -1.7905
 5819TIP3    H239017   5.326   5.814   0.804 -2.0025 -0.5613 -0.7197
 5820TIP3   OH239018   5.150   2.229   1.220 -0.3913 -0.9743 -0.2751
 5820TIP3    H139019   5.074   2.174   1.236 -2.9504  2.4354  0.4303
 5820TIP3    H239020   5.167   2.272   1.304 -1.4052  2.4534 -1.6249
 5821TIP3   OH239021   4.728   5.630   0.210 -0.3758 -0.2637  0.0380
 5821TIP3    H139022   4.745   5.718   0.243  1.6809  0.1423 -1.7967
 5821TIP3    H239023   4.730   5.574   0.287  1.5360  0.9292  0.9385
 5822TIP3   OH239024   0.350   0.115   0.989 -0.7071  0.2898  0.3775
 5822TIP3    H139025   0.310   0.052   1.050 -0.7284 -0.6920 -0.6212
 5822TIP3    H239026   0.414   0.162   1.043 -0.9312 -0.3531  1.2304
 5823TIP3   OH239027   4.366   0.233   1.284  0.2531 -0.3435  0.1224
 5823TIP3    H139028   4.294   0.288   1.316  0.0017 -1.0816  0.8606
 5823TIP3    H239029   4.356   0.235   1.189 -0.1808  0.3175  0.1717
 5824TIP3   OH239030   3.895   1.797   6.876  0.0576 -0.3165  0.1760
 5824TIP3    H139031   3.967   1.859   6.886  0.8142 -1.1587  0.1069
 5824TIP3    H239032   3.934   1.723   6.829 -0.3655 -1.6040  1.7636
 5825TIP3   OH239033   5.299   2.195   6.940 -0.0826  0.1238 -0.3154
 5825TIP3    H139034   5.206   2.178   6.952 -0.4333  0.2153 -2.5098
 5825TIP3    H239035   5.315   2.176   6.848  2.1407 -0.1453  0.0790
 5826TIP3   OH239036   2.162   3.363   6.894 -0.3268  0.1567 -0.5257
 5826TIP3    H139037   2.204   3.349   6.810  2.1984  0.4040  0.5927
 5826TIP3    H239038   2.224   3.417   6.943 -2.9436  2.4322  0.5614
 5827TIP3   OH239039   3.099   2.037   0.489 -0.1451  0.4509  0.1552
 5827TIP3    H139040   3.021   1.982   0.490  0.5914 -0.6258  0.9739
 5827TIP3    H239041   3.108   2.064   0.398  0.3816 -2.1627 -0.6560
 5828TIP3   OH239042   2.729   1.232   7.041 -0.0095 -0.9149 -0.1740
 5828TIP3    H139043   2.794   1.176   7.082  0.0601 -0.2539  0.6362
 5828TIP3    H239044   2.658   1.172   7.017 -0.4363 -1.2176  1.6927
 5829TIP3   OH239045   4.262   5.325   1.584 -0.0418 -0.6466 -0.2214
 5829TIP3    H139046   4.348   5.365   1.594 -0.2898 -0.1006 -0.2373
 5829TIP3    H239047   4.212   5.355   1.660 -0.2848 -0.7941 -0.3178
 5830TIP3   OH239048   3.621   6.365   8.280  0.4871  0.2281  0.8252
 5830TIP3    H139049   3.529   6.393   8.280  0.9315  1.7764  0.3346
 5830TIP3    H239050   3.635   6.329   8.192  0.7453  1.4425  0.3515
 5831TIP3   OH239051   1.762   3.384   0.459  0.0598 -0.5168 -0.2378
 5831TIP3    H139052   1.748   3.476   0.481  0.3572 -0.1822 -1.4083
 5831TIP3    H239053   1.686   3.339   0.496  0.1487  0.1246  0.7616
 5832TIP3   OH239054   6.339   1.623   0.746  0.0874 -0.0682  0.1465
 5832TIP3    H139055   6.335   1.714   0.776  0.1118 -1.0028  3.3650
 5832TIP3    H239056   6.251   1.604   0.714 -0.2140  0.7979  0.4377
 5833TIP3   OH239057   4.860   6.715   0.521 -0.8105  0.3104 -0.0731
 5833TIP3    H139058   4.846   6.621   0.521  0.2392  0.1388  0.6478
 5833TIP3    H239059   4.780   6.751   0.483 -1.2944 -0.8515 -0.1967
 5834TIP3   OH239060   6.787   5.992   1.107 -0.5840  0.3277 -0.5990
 5834TIP3    H139061   6.876   5.965   1.129 -1.2443 -1.4579  0.1289
 5834TIP3    H239062   6.786   6.087   1.120  1.5941  0.6148 -2.1126
 5835TIP3   OH239063   5.633   2.220   8.245  0.2275 -0.1533  0.0083
 5835TIP3    H139064   5.599   2.225   8.156  0.2037  2.4440  0.0870
 5835TIP3    H239065   5.558   2.193   8.298  0.1051 -1.1763 -0.6675
 5836TIP3   OH239066   2.365   1.232   6.865 -0.2309  0.4646  0.2050
 5836TIP3    H139067   2.287   1.191   6.828 -1.3266 -1.2585  3.9577
 5836TIP3    H239068   2.398   1.168   6.929  2.1973  2.6348  1.3092
 5837TIP3   OH239069   5.168   5.838   7.933 -0.0381  0.5008 -0.1110
 5837TIP3    H139070   5.236   5.816   7.870 -0.1403  1.7296 -0.6808
 5837TIP3    H239071   5.189   5.786   8.011 -0.7566 -2.2081 -1.5854
 5838TIP3   OH239072   3.383   4.632   8.340  0.3595 -0.0813  0.5026
 5838TIP3    H139073   3.472   4.628   8.305  0.2078  2.1164 -0.2656
 5838TIP3    H239074   3.328   4.599   8.269  0.4946 -0.8916  0.7646
 5839TIP3   OH239075   5.057   2.967   6.472  0.5277  0.0191  0.1723
 5839TIP3    H139076   5.092   3.047   6.511 -0.6159  0.3207  0.6433
 5839TIP3    H239077   4.966   2.989   6.450 -0.6484 -1.8533  2.6191
 5840TIP3   OH239078   1.950   3.478   8.244  0.0042 -0.1758 -0.8558
 5840TIP3    H139079   1.993   3.439   8.320  0.7719 -2.2147 -2.2438
 5840TIP3    H239080   1.862   3.441   8.244 -0.4556  0.8783 -0.2431
 5841TIP3   OH239081   4.997   4.165   7.848 -0.3023  0.2103  0.2706
 5841TIP3    H139082   4.971   4.209   7.928 -3.5150  0.9393 -1.0033
 5841TIP3    H239083   5.092   4.177   7.843  0.2638 -0.9436  4.4584
 5842TIP3   OH239084   3.539   2.805   7.124 -0.1189  0.0362 -0.3707
 5842TIP3    H139085   3.449   2.804   7.154  0.3365  0.1619  1.0753
 5842TIP3    H239086   3.533   2.814   7.029 -1.6088  1.5959 -0.1759
 5843TIP3   OH239087   6.533   3.364   0.908 -0.6886 -0.3553  0.1384
 5843TIP3    H139088   6.474   3.320   0.847  0.2817 -0.2901 -0.8785
 5843TIP3    H239089   6.559   3.444   0.862  0.3937 -0.5172  0.4512
 5844TIP3   OH239090   6.812   2.957   8.590  0.3498 -0.0232  0.1622
 5844TIP3    H139091   6.772   3.031   8.637  0.4101  0.5106 -0.6109
 5844TIP3    H239092   6.855   2.997   8.515 -1.8463 -1.0813 -1.7737
 5845TIP3   OH239093   3.149   1.127   6.933 -0.4253  0.3066  0.0846
 5845TIP3    H139094   3.070   1.178   6.915 -0.9240 -0.6721 -0.5682
 5845TIP3    H239095   3.118   1.048   6.976 -0.2909 -1.7796 -3.2818
 5846TIP3   OH239096   4.246   6.294   8.014  0.0514  0.4112 -0.1689
 5846TIP3    H139097   4.338   6.285   8.038  0.4365  0.3599 -1.5901
 5846TIP3    H239098   4.233   6.388   8.001 -0.2652  0.4839  0.6165
 5847TIP3   OH239099   5.034   4.346   7.613  0.0824 -0.3600 -0.4905
 5847TIP3    H139100   5.120   4.385   7.628  0.0577  0.2194 -1.7629
 5847TIP3    H239101   5.015   4.299   7.695  1.9586 -1.1959 -0.4717
 5848TIP3   OH239102   3.153   6.101   8.279 -0.5154  0.1623  0.0260
 5848TIP3    H139103   3.152   6.108   8.184 -0.0275  0.0063  0.0056
 5848TIP3    H239104   3.071   6.141   8.307 -0.5903  0.3491 -0.4505
 5849TIP3   OH239105   5.692   1.118   6.992 -0.2524 -0.0247 -0.4030
 5849TIP3    H139106   5.716   1.202   7.030 -0.7159 -0.0061 -0.1521
 5849TIP3    H239107   5.663   1.140   6.903  0.1820  0.0061 -0.5441
 5850TIP3   OH239108   2.868   0.880   7.932 -0.0244  0.1680 -0.2963
 5850TIP3    H139109   2.921   0.943   7.980  0.8542 -0.5811 -0.2511
 5850TIP3    H239110   2.820   0.833   8.001  0.6582 -0.3911 -0.1904
 5851TIP3   OH239111   5.668   4.585   7.864 -0.2155  0.4280 -0.0138
 5851TIP3    H139112   5.730   4.588   7.792  0.5463  0.9747  0.6506
 5851TIP3    H239113   5.684   4.500   7.907  1.0069  1.1089  0.9418
 5852TIP3   OH239114   3.495   3.502   1.343  0.1078  0.3000 -0.1608
 5852TIP3    H139115   3.405   3.473   1.358  0.1670 -0.0703 -0.5119
 5852TIP3    H239116   3.535   3.431   1.294  0.7893  0.1643  0.5654
 5853TIP3   OH239117   5.795   0.389   6.567 -0.1691 -0.2721 -0.1875
 5853TIP3    H139118   5.889   0.408   6.566 -0.6079  2.2574 -1.4225
 5853TIP3    H239119   5.788   0.304   6.524  1.5501 -0.5456 -0.0186
 5854TIP3   OH239120   3.937   3.379   6.915  0.1369 -0.7819 -0.3097
 5854TIP3    H139121   3.867   3.314   6.921 -0.5265  0.0175  1.1569
 5854TIP3    H239122   4.015   3.328   6.895 -0.4856 -1.9579  0.1711
 5855TIP3   OH239123   2.025   5.569   1.666  0.1379 -0.5721 -0.1488
 5855TIP3    H139124   2.063   5.598   1.583 -0.4239  0.6989  0.0146
 5855TIP3    H239125   1.973   5.643   1.696  1.1981 -0.5655  1.8831
 5856TIP3   OH239126   0.759   1.782   0.513 -0.0218 -0.6834  0.6120
 5856TIP3    H139127   0.766   1.859   0.570 -2.2792  0.9469 -1.1177
 5856TIP3    H239128   0.850   1.756   0.497  1.0205  2.9380 -0.3385
 5857TIP3   OH239129   5.952   3.189   0.612  0.0877  0.0080 -0.0155
 5857TIP3    H139130   5.883   3.186   0.679  0.5453 -0.2684  0.4475
 5857TIP3    H239131   5.904   3.201   0.530 -0.4040  1.7970  0.4834
 5858TIP3   OH239132   3.221   5.473   8.674 -0.5011  0.7512  0.0426
 5858TIP3    H139133   3.254   5.441   8.759 -0.5106 -0.1518 -0.2764
 5858TIP3    H239134   3.207   5.566   8.687 -1.6311  0.4268  1.4149
 5859TIP3   OH239135   3.043   4.427   0.559  0.0931 -0.2250 -0.0967
 5859TIP3    H139136   3.127   4.468   0.537  0.4191 -1.0770 -0.4879
 5859TIP3    H239137   2.993   4.430   0.477  0.1864 -0.7631 -0.1747
 5860TIP3   OH239138   6.758   6.820   7.659  0.0996 -0.2631 -0.3722
 5860TIP3    H139139   6.712   6.774   7.589  2.2104  0.9990 -2.7427
 5860TIP3    H239140   6.715   6.905   7.666 -1.6063 -1.2065  1.6179
 5861TIP3   OH239141   0.058   3.934   1.618 -0.3030  0.0619  0.2323
 5861TIP3    H139142   0.110   3.984   1.554 -0.6573 -1.0940 -0.9971
 5861TIP3    H239143   0.113   3.932   1.696  0.5364  0.7606 -0.3166
 5862TIP3   OH239144   5.154   4.241   6.704 -0.6068 -0.5215  0.2792
 5862TIP3    H139145   5.107   4.294   6.639 -3.0526 -2.5285  0.2440
 5862TIP3    H239146   5.244   4.274   6.701 -0.7792  0.1477 -3.4507
 5863TIP3   OH239147   6.157   4.665   8.380  0.1034  0.6769 -0.4040
 5863TIP3    H139148   6.125   4.611   8.452 -1.6603  1.4871 -0.5163
 5863TIP3    H239149   6.229   4.615   8.342  1.0568  0.1973  1.8630
 5864TIP3   OH239150   5.916   0.199   7.415 -0.6943 -0.1432 -0.4258
 5864TIP3    H139151   5.853   0.272   7.418  0.7452  1.1401  0.6339
 5864TIP3    H239152   5.864   0.124   7.387 -2.7102  0.8348  0.4137
 5865TIP3   OH239153   5.436   4.526   7.338  0.2415  0.8215 -0.3141
 5865TIP3    H139154   5.393   4.611   7.324  0.0572  0.7597 -0.1368
 5865TIP3    H239155   5.388   4.465   7.282 -1.4034  0.2922  1.5306
 5866TIP3   OH239156   1.429   6.123   0.003 -0.1134  0.7920 -0.1043
 5866TIP3    H139157   1.396   6.092   0.088  3.3953 -0.1198  1.0974
 5866TIP3    H239158   1.403   6.055  -0.059  1.4030 -1.1334  1.2343
 5867TIP3   OH239159   3.732   0.101   0.794  0.1971 -0.1494 -0.0049
 5867TIP3    H139160   3.740   0.074   0.703  0.8525 -2.3771  0.6250
 5867TIP3    H239161   3.803   0.055   0.839 -0.2293  0.7232  1.6596
 5868TIP3   OH239162   6.074   2.271   1.197  0.1140 -0.0185 -0.4906
 5868TIP3    H139163   6.062   2.200   1.134  2.2991 -0.4322 -0.5051
 5868TIP3    H239164   6.168   2.284   1.201 -0.1072  1.4316  1.1532
 5869TIP3   OH239165   3.259   4.036   8.517  0.0982 -0.4973 -0.1213
 5869TIP3    H139166   3.320   4.001   8.582  0.8246 -0.8630 -0.9726
 5869TIP3    H239167   3.307   4.031   8.434 -1.3916 -1.5944 -0.9642
 5870TIP3   OH239168   4.162   4.597   0.665  0.0452 -0.5615 -0.0725
 5870TIP3    H139169   4.165   4.531   0.734 -1.3316 -0.8056 -0.2094
 5870TIP3    H239170   4.245   4.588   0.619  0.5472 -1.0985  0.9060
 5871TIP3   OH239171   6.116   4.962   8.003  0.0289  0.1221  0.9354
 5871TIP3    H139172   6.180   5.004   8.060  0.0422 -0.3155  1.2483
 5871TIP3    H239173   6.090   5.030   7.942  2.3792 -0.2374 -0.6017
 5872TIP3   OH239174   3.339   2.172   6.554 -0.3122 -0.4580 -0.8191
 5872TIP3    H139175   3.362   2.150   6.464 -1.4481 -3.4950 -0.4883
 5872TIP3    H239176   3.375   2.100   6.607  0.5559  1.3588  1.2352
 5873TIP3   OH239177   6.432   1.290   7.113  0.2145 -0.4544  0.8086
 5873TIP3    H139178   6.513   1.338   7.101 -0.2764  0.3501  0.6229
 5873TIP3    H239179   6.455   1.217   7.171  0.6804  0.8617  2.3496
 5874TIP3   OH239180   4.546   5.376   7.388  0.5361  0.4687 -0.5408
 5874TIP3    H139181   4.475   5.354   7.448 -0.5097  1.2051 -1.4637
 5874TIP3    H239182   4.578   5.461   7.418 -0.6074  1.2843 -1.5180
 5875TIP3   OH239183   2.739   3.918   1.903 -0.2801  0.0213 -0.5354
 5875TIP3    H139184   2.799   3.856   1.942 -0.1892 -0.0173 -0.7336
 5875TIP3    H239185   2.652   3.882   1.921 -0.2369 -0.0221 -0.4148
 5876TIP3   OH239186   6.792   4.607   1.036  0.5705  0.8187 -0.2136
 5876TIP3    H139187   6.788   4.668   1.110 -0.3923  0.6481 -0.1026
 5876TIP3    H239188   6.701   4.603   1.004  0.9636  0.8738 -1.3890
 5877TIP3   OH239189   3.839   0.146   0.190  0.9358 -0.0060 -0.1513
 5877TIP3    H139190   3.858   0.090   0.265  1.5688  0.0216 -0.2829
 5877TIP3    H239191   3.837   0.087   0.115  2.3206  0.2184 -0.3959
 5878TIP3   OH239192   3.790   1.685   8.042 -0.2444  0.2038  0.3895
 5878TIP3    H139193   3.858   1.650   7.985 -0.9623  0.8099 -0.8910
 5878TIP3    H239194   3.711   1.687   7.987 -1.0260  0.5688  1.4859
 5879TIP3   OH239195   0.269   2.526   1.295 -0.3035 -0.1008  0.0756
 5879TIP3    H139196   0.257   2.620   1.280 -0.3174 -0.1872 -0.4619
 5879TIP3    H239197   0.209   2.484   1.233  0.5592 -0.4835 -0.5130
 5880TIP3   OH239198   4.690   2.459   8.425 -0.4701 -0.2862 -0.0601
 5880TIP3    H139199   4.760   2.398   8.401  0.2548  0.0675  1.0531
 5880TIP3    H239200   4.611   2.422   8.385  0.2839 -0.8921 -1.0325
 5881TIP3   OH239201   4.603   2.164   7.299  0.1293 -0.0754 -0.0615
 5881TIP3    H139202   4.571   2.128   7.382  1.2463  1.2235  0.9618
 5881TIP3    H239203   4.523   2.189   7.252 -0.4977 -0.4346  0.7901
 5882TIP3   OH239204   5.696   6.177   7.128  0.0863  0.0409 -0.6771
 5882TIP3    H139205   5.620   6.224   7.094 -0.1851  0.9276  1.0262
 5882TIP3    H239206   5.734   6.134   7.051 -1.0309  1.1159 -1.8897
 5883TIP3   OH239207   2.460   1.287   7.229 -0.1971  0.0112  0.1183
 5883TIP3    H139208   2.511   1.335   7.295  1.0496 -2.3996  1.0586
 5883TIP3    H239209   2.527   1.243   7.176 -1.2304  0.8141 -1.9634
 5884TIP3   OH239210   4.969   1.798   1.364 -0.3842 -0.3234 -0.0108
 5884TIP3    H139211   4.949   1.877   1.313  2.0358 -0.2805 -1.0397
 5884TIP3    H239212   4.931   1.815   1.450  0.3419  2.1678 -0.0824
 5885TIP3   OH239213   3.633   5.235   8.137  0.0056  0.3845 -0.0074
 5885TIP3    H139214   3.626   5.326   8.167  0.6099 -0.0447  1.5126
 5885TIP3    H239215   3.669   5.242   8.049  0.2896  1.6185  0.1861
 5886TIP3   OH239216   5.155   5.575   7.630 -0.4379 -0.1328 -0.0760
 5886TIP3    H139217   5.228   5.632   7.607  2.0537 -3.2052 -0.4311
 5886TIP3    H239218   5.178   5.539   7.716 -3.2513  1.2565  1.4314
 5887TIP3   OH239219   0.218   6.645   0.114 -0.4078  0.3270 -0.3758
 5887TIP3    H139220   0.199   6.736   0.137  0.3660  1.1404 -2.5998
 5887TIP3    H239221   0.312   6.643   0.099 -0.6574 -0.3525 -2.1001
 5888TIP3   OH239222   2.893   2.479   7.180 -0.4496 -0.3904  0.0136
 5888TIP3    H139223   2.869   2.473   7.087 -0.0310  0.8118 -0.1813
 5888TIP3    H239224   2.810   2.467   7.226 -0.6917 -0.8121 -0.5159
 5889TIP3   OH239225   1.381   2.036   8.440 -0.0105 -0.4496  0.0823
 5889TIP3    H139226   1.397   1.961   8.498  1.4238 -1.6484 -1.7147
 5889TIP3    H239227   1.466   2.053   8.399 -0.6885  1.1158 -0.7750
 5890TIP3   OH239228   6.110   1.954   6.458  0.3913 -0.2763 -0.2897
 5890TIP3    H139229   6.082   1.886   6.396 -0.5707  1.6419 -2.0640
 5890TIP3    H239230   6.130   1.906   6.538 -1.4135 -2.5230 -1.0791
 5891TIP3   OH239231   1.452   0.350   0.156 -0.2848 -0.5742 -0.2334
 5891TIP3    H139232   1.514   0.288   0.118  0.4522 -0.4896  0.7839
 5891TIP3    H239233   1.494   0.436   0.145  0.1511 -0.5887  1.1011
 5892TIP3   OH239234   3.480   0.006   1.742 -0.4963  0.1826  0.2916
 5892TIP3    H139235   3.420   0.081   1.738  1.4319  1.7797 -0.2023
 5892TIP3    H239236   3.551   0.035   1.798  1.7713 -0.0966 -2.2613
 5893TIP3   OH239237   2.035   3.308   0.023 -0.0100  0.0799 -0.1409
 5893TIP3    H139238   1.990   3.347  -0.052  0.7327  2.4658  0.5733
 5893TIP3    H239239   2.001   3.355   0.099  0.0927 -1.4962  0.9318
 5894TIP3   OH239240   0.416   4.311   1.827  0.1367  0.0111  0.7658
 5894TIP3    H139241   0.341   4.300   1.887 -0.8930  2.7176  0.0990
 5894TIP3    H239242   0.430   4.223   1.791 -1.5474 -0.9491  2.2630
 5895TIP3   OH239243   2.422   6.713   8.191 -0.4488 -0.5497 -0.0629
 5895TIP3    H139244   2.498   6.721   8.133 -1.0281 -0.7092 -0.8665
 5895TIP3    H239245   2.458   6.724   8.279  0.0611  2.9169 -0.5331
 5896TIP3   OH239246   2.900   2.301   0.152  0.9633 -0.3611  0.4164
 5896TIP3    H139247   2.885   2.307   0.058  1.4298  0.0891  0.3646
 5896TIP3    H239248   2.840   2.366   0.190  0.0870 -1.1959  0.5196
 5897TIP3   OH239249   1.166   1.716   2.105 -0.2348  0.0591  0.6162
 5897TIP3    H139250   1.155   1.763   2.188 -1.0288  0.7432  0.1436
 5897TIP3    H239251   1.076   1.704   2.073  0.0620 -0.2703 -0.1071
 5898TIP3   OH239252   0.828   4.515   0.023  0.4330 -0.1872  0.0963
 5898TIP3    H139253   0.846   4.597  -0.023 -1.6118 -0.3278 -1.0389
 5898TIP3    H239254   0.744   4.529   0.065  1.2557 -0.8446  2.0560
 5899TIP3   OH239255   1.454   6.058   8.372 -0.4859  0.4309 -0.1537
 5899TIP3    H139256   1.437   6.115   8.296 -0.7762 -1.4630 -1.5918
 5899TIP3    H239257   1.524   6.000   8.343  0.5015  0.6578  1.6455
 5900TIP3   OH239258   5.463   2.508   0.528 -0.2223  0.1141  0.3191
 5900TIP3    H139259   5.481   2.599   0.551  1.1876 -0.3258  1.1130
 5900TIP3    H239260   5.421   2.471   0.606  1.0746 -0.4033  0.8109
 5901TIP3   OH239261   5.048   3.948   1.219 -0.3113  0.5439  0.2319
 5901TIP3    H139262   5.087   4.020   1.270  0.0331  0.1953  0.4652
 5901TIP3    H239263   5.116   3.881   1.217  0.0037  0.8642 -1.3924
 5902TIP3   OH239264   5.428   4.196   0.300  0.6633  0.1863  0.0838
 5902TIP3    H139265   5.368   4.172   0.230 -0.4412  1.0431  0.7057
 5902TIP3    H239266   5.467   4.114   0.328  0.5702 -0.2509 -1.0319
 5903TIP3   OH239267   4.103   5.216   7.110 -0.2784 -0.1341  0.1254
 5903TIP3    H139268   4.194   5.229   7.135 -0.4851 -0.1246  0.9131
 5903TIP3    H239269   4.053   5.238   7.189 -1.0164  0.7477 -0.5693
 5904TIP3   OH239270   3.232   4.752   7.668  0.0531  0.1391 -0.1327
 5904TIP3    H139271   3.197   4.839   7.647 -0.1911  0.2438  0.6601
 5904TIP3    H239272   3.171   4.691   7.628 -0.0111  0.3276 -0.3273
 5905TIP3   OH239273   5.805   5.068   1.324  0.4398  0.4700 -0.2432
 5905TIP3    H139274   5.835   5.127   1.255 -0.5607  0.6816 -0.5121
 5905TIP3    H239275   5.715   5.095   1.341  0.4048 -0.1285  0.5577
 5906TIP3   OH239276   4.358   3.613   0.010 -0.6931 -0.7188 -0.1275
 5906TIP3    H139277   4.356   3.669  -0.067  0.9166 -0.0383  0.2660
 5906TIP3    H239278   4.285   3.552  -0.001 -1.9041  0.8400 -1.0383
 5907TIP3   OH239279   4.497   3.308   6.339 -0.5281  0.1927 -0.0749
 5907TIP3    H139280   4.506   3.219   6.373  0.5461  0.2679 -0.1280
 5907TIP3    H239281   4.404   3.326   6.345 -0.4718 -0.0154  2.3099
 5908TIP3   OH239282   1.527   2.192   0.934 -0.2610  0.0648  0.1478
 5908TIP3    H139283   1.471   2.255   0.981 -0.8283 -0.5817  0.3621
 5908TIP3    H239284   1.490   2.106   0.957  2.3067 -0.6088  2.3453
 5909TIP3   OH239285   5.763   1.987   2.067  0.1934 -0.6946  0.2545
 5909TIP3    H139286   5.787   2.061   2.123 -2.0657 -0.2983  0.8122
 5909TIP3    H239287   5.753   1.914   2.128  1.7912 -1.3403 -0.2148
 5910TIP3   OH239288   6.325   4.504   6.724  0.2751 -0.6370 -0.3126
 5910TIP3    H139289   6.270   4.427   6.739  0.3288 -0.6322 -0.0866
 5910TIP3    H239290   6.339   4.505   6.630  1.1731 -1.5394 -0.2068
 5911TIP3   OH239291   5.893   3.210   7.807 -0.1531 -0.2730 -0.1226
 5911TIP3    H139292   5.871   3.274   7.739  2.3048 -1.4510 -2.2356
 5911TIP3    H239293   5.811   3.197   7.855 -1.9214  1.0392 -2.5283
 5912TIP3   OH239294   4.218   1.472   7.058  0.0737  0.0214  0.2407
 5912TIP3    H139295   4.152   1.403   7.069 -0.9546  1.0335  0.5978
 5912TIP3    H239296   4.261   1.452   6.975 -0.0010 -1.2069  0.4810
 5913TIP3   OH239297   0.425   0.321   0.774  0.8757 -1.0079  0.3577
 5913TIP3    H139298   0.485   0.382   0.818 -0.3757 -0.0851  0.8729
 5913TIP3    H239299   0.393   0.265   0.844 -1.9316  1.1401  0.9641
 5914TIP3   OH239300   5.396   3.272   0.896  0.0459 -0.4691  0.7060
 5914TIP3    H139301   5.382   3.193   0.947  1.6713 -0.3451  1.4247
 5914TIP3    H239302   5.352   3.255   0.812  1.3671 -2.6584  0.3654
 5915TIP3   OH239303   1.284   5.777   0.946 -0.2866  0.1103  0.1538
 5915TIP3    H139304   1.235   5.854   0.920  1.0107  0.7196 -0.5720
 5915TIP3    H239305   1.364   5.780   0.893  0.1822 -1.2611  0.7341
 5916TIP3   OH239306   6.205   3.073   0.576 -0.4026 -0.0843  0.5844
 5916TIP3    H139307   6.198   3.051   0.483 -0.2757  0.7707  0.3632
 5916TIP3    H239308   6.115   3.095   0.602 -0.3291  0.3446  0.4852
 5917TIP3   OH239309   2.403   5.798   7.353 -0.3796  0.3803 -0.3075
 5917TIP3    H139310   2.336   5.740   7.316  1.3736 -0.8695 -1.6825
 5917TIP3    H239311   2.470   5.804   7.285  2.0792 -0.4212  1.8689
 5918TIP3   OH239312   6.812   3.348   0.905 -0.6751 -0.1933 -0.2862
 5918TIP3    H139313   6.725   3.371   0.937 -0.9885  1.0211 -1.8572
 5918TIP3    H239314   6.795   3.302   0.822  0.1640  0.5874 -0.9121
 5919TIP3   OH239315   6.849   4.673   7.750 -0.0817 -0.0051  0.4324
 5919TIP3    H139316   6.888   4.729   7.683  1.3624 -1.0401  0.3510
 5919TIP3    H239317   6.763   4.710   7.765  0.1008  1.0916 -0.9848
 5920TIP3   OH239318   1.414   2.084   1.482 -0.0310  0.1979  0.2433
 5920TIP3    H139319   1.359   2.120   1.552  0.8800 -2.3974  2.4719
 5920TIP3    H239320   1.356   2.023   1.436  0.6083 -1.9952  2.1410
 5921TIP3   OH239321   1.631   4.138   6.709  0.1325  0.3505  0.5135
 5921TIP3    H139322   1.676   4.222   6.695  1.0998 -0.4087 -1.3309
 5921TIP3    H239323   1.580   4.125   6.629  0.7334 -1.2275  0.3507
 5922TIP3   OH239324   0.670   2.164   2.441  0.3156  0.2230 -0.0663
 5922TIP3    H139325   0.653   2.073   2.465  0.9184 -0.0051 -0.4700
 5922TIP3    H239326   0.584   2.204   2.436 -0.2298 -1.0453 -2.6911
 5923TIP3   OH239327   0.811   1.463   7.122 -0.2895 -0.2788  0.6044
 5923TIP3    H139328   0.821   1.451   7.028 -1.0267 -2.3627  0.7478
 5923TIP3    H239329   0.749   1.396   7.149 -0.5958  0.6869  2.4953
 5924TIP3   OH239330   6.263   6.402   6.900 -0.8271  0.1495 -0.2622
 5924TIP3    H139331   6.277   6.446   6.816 -0.8661 -1.9985 -1.4741
 5924TIP3    H239332   6.208   6.326   6.879 -1.7991  0.1619  1.9225
 5925TIP3   OH239333   3.485   0.299   6.563  0.8770 -0.3254  0.2136
 5925TIP3    H139334   3.475   0.208   6.589  1.2376 -0.0967  1.1854
 5925TIP3    H239335   3.575   0.322   6.588  0.4870  0.5600  0.8735
 5926TIP3   OH239336   3.513   4.490   1.392  0.4650  0.1615  0.1604
 5926TIP3    H139337   3.500   4.399   1.366 -1.1285  1.1392 -3.0218
 5926TIP3    H239338   3.485   4.495   1.483 -1.6588 -2.0917 -0.2948
 5927TIP3   OH239339   3.838   2.158   1.504 -0.2995 -0.0221  0.6918
 5927TIP3    H139340   3.917   2.106   1.493 -0.4609 -0.1846  0.2703
 5927TIP3    H239341   3.767   2.095   1.497 -0.5868  0.4387 -1.5560
 5928TIP3   OH239342   6.071   0.819   7.299  0.0444  0.0413  0.3122
 5928TIP3    H139343   6.151   0.779   7.332  0.5269 -0.0727 -0.9609
 5928TIP3    H239344   6.037   0.869   7.374  1.5746  0.5214  0.7260
 5929TIP3   OH239345   2.861   4.646   8.389 -0.4310 -0.4522  0.4834
 5929TIP3    H139346   2.834   4.685   8.306 -0.9914 -0.9297  0.4423
 5929TIP3    H239347   2.895   4.560   8.365 -0.6285 -0.6058  0.7604
 5930TIP3   OH239348   3.680   4.038   1.987 -0.0378 -0.0695 -0.4488
 5930TIP3    H139349   3.774   4.056   1.994 -0.0737 -0.2797  0.7895
 5930TIP3    H239350   3.638   4.122   2.003 -0.0707 -0.1136 -0.2985
 5931TIP3   OH239351   6.452   3.273   8.166 -0.2574  0.6982 -0.0714
 5931TIP3    H139352   6.370   3.322   8.154 -1.9617 -2.2463 -1.7110
 5931TIP3    H239353   6.516   3.319   8.111 -1.2821  2.0096 -0.2260
 5932TIP3   OH239354   5.538   2.268   7.723  0.0942 -0.0425 -0.4846
 5932TIP3    H139355   5.473   2.220   7.672 -1.3060  1.8676 -0.6381
 5932TIP3    H239356   5.532   2.358   7.690  3.9389 -0.0156 -1.5477
 5933TIP3   OH239357   1.941   3.178   6.902  0.6108  0.3775 -0.0173
 5933TIP3    H139358   1.912   3.100   6.855  0.1554 -0.7445  2.0273
 5933TIP3    H239359   2.021   3.205   6.856 -0.1912 -0.2039 -1.8527
 5934TIP3   OH239360   2.767   4.873   7.482 -0.2850  0.1038  0.6207
 5934TIP3    H139361   2.740   4.805   7.420 -0.0694 -0.0714  0.7153
 5934TIP3    H239362   2.701   4.942   7.473  1.2001  1.3134 -1.7610
 5935TIP3   OH239363   0.814   4.086   8.065  0.2921  0.5844 -0.1756
 5935TIP3    H139364   0.718   4.085   8.066  0.2756 -0.3394 -0.9389
 5935TIP3    H239365   0.837   4.099   7.973  0.9057  0.9756  0.0290
 5936TIP3   OH239366   2.404   0.686   2.070  0.5878  0.5080  0.1639
 5936TIP3    H139367   2.391   0.692   1.975  1.8762  1.2382  0.0153
 5936TIP3    H239368   2.366   0.601   2.094  0.2546  0.3097 -1.0011
 5937TIP3   OH239369   2.752   6.193   1.546  0.0610 -0.0120 -0.4496
 5937TIP3    H139370   2.845   6.214   1.553  0.6058 -2.3219  0.1350
 5937TIP3    H239371   2.750   6.102   1.516 -1.9520 -0.4849  0.8937
 5938TIP3   OH239372   5.355   5.281   0.624  0.7549  0.3952  0.1048
 5938TIP3    H139373   5.432   5.323   0.586  1.0544 -1.7271 -1.8316
 5938TIP3    H239374   5.363   5.298   0.718  3.6439  0.1905 -0.0072
 5939TIP3   OH239375   0.333   3.760   6.701 -0.0586 -0.4251  0.0563
 5939TIP3    H139376   0.264   3.825   6.717 -1.2796 -1.2831 -1.4621
 5939TIP3    H239377   0.314   3.690   6.764 -0.1592 -0.3444  0.1164
 5940TIP3   OH239378   5.660   2.624   7.376 -0.0554  0.0329 -0.4642
 5940TIP3    H139379   5.627   2.581   7.455 -2.7321  1.2743 -0.7754
 5940TIP3    H239380   5.658   2.717   7.397 -2.1526  0.5123 -2.3207
 5941TIP3   OH239381   0.007   6.839   1.080 -0.2405 -0.4310 -0.4918
 5941TIP3    H139382  -0.077   6.799   1.102  0.3352 -1.4807 -0.1610
 5941TIP3    H239383  -0.016   6.918   1.030 -1.4245 -0.5225 -0.1082
 5942TIP3   OH239384   6.082   6.438   1.401  0.0511 -0.1154 -0.3844
 5942TIP3    H139385   6.039   6.356   1.427 -0.2237 -0.0748 -0.7018
 5942TIP3    H239386   6.096   6.428   1.307  0.7937 -0.1513 -0.2802
 5943TIP3   OH239387   1.093   5.227   7.643 -0.5643  0.6564 -0.0746
 5943TIP3    H139388   1.181   5.241   7.677 -0.2877 -1.8472  0.4521
 5943TIP3    H239389   1.049   5.174   7.709 -1.3076 -1.0278 -1.7952
 5944TIP3   OH239390   2.218   3.636   1.489  0.1252  0.1266  0.5963
 5944TIP3    H139391   2.202   3.728   1.509  0.3309  0.1293  0.7507
 5944TIP3    H239392   2.295   3.637   1.432 -0.5854  0.1367 -0.3959
 5945TIP3   OH239393   0.179   0.648   2.002  0.4494  0.2317  0.4697
 5945TIP3    H139394   0.250   0.692   2.047  1.1256  0.6777 -0.9577
 5945TIP3    H239395   0.104   0.707   2.012  1.2585  1.6228 -1.1381
 5946TIP3   OH239396   3.557   3.045   7.483 -0.3143 -0.0596  0.1706
 5946TIP3    H139397   3.624   3.107   7.513 -1.1664  0.2339  1.5679
 5946TIP3    H239398   3.606   2.965   7.463  0.8036  1.0280 -1.6766
 5947TIP3   OH239399   4.965   0.342   0.613 -0.2624  0.9041  0.6323
 5947TIP3    H139400   4.970   0.389   0.530  0.5477  1.1030  0.7806
 5947TIP3    H239401   4.970   0.249   0.589 -1.2582  0.9029  0.3823
 5948TIP3   OH239402   5.340   1.289   0.384  0.2804  0.1270 -0.1339
 5948TIP3    H139403   5.361   1.382   0.392 -0.2947  0.1382  1.4840
 5948TIP3    H239404   5.244   1.286   0.379  0.3379 -0.3201 -1.4245
 5949TIP3   OH239405   3.401   4.479   2.074 -0.1547  0.2438 -0.4171
 5949TIP3    H139406   3.403   4.503   2.167  1.1009 -1.4672  0.0634
 5949TIP3    H239407   3.347   4.400   2.071 -0.8015  0.7090 -1.2759
 5950TIP3   OH239408   2.172   2.023   6.890  1.0678  0.3363  0.1048
 5950TIP3    H139409   2.223   2.017   6.809 -0.4323  0.6953 -0.9058
 5950TIP3    H239410   2.154   1.931   6.913 -0.1761  0.2564 -1.0938
 5951TIP3   OH239411   2.149   0.695   0.695 -0.0250  0.2660 -0.3536
 5951TIP3    H139412   2.199   0.771   0.724  0.7824 -0.8030  1.2309
 5951TIP3    H239413   2.211   0.643   0.643 -1.1002  1.5280 -3.0909
 5952TIP3   OH239414   1.106   3.066   1.678  0.4346 -0.1304  0.1187
 5952TIP3    H139415   1.066   3.144   1.716 -0.7767 -0.3637 -0.6236
 5952TIP3    H239416   1.164   3.100   1.610  1.1779  0.1875  0.8941
 5953TIP3   OH239417   2.991   1.002   2.032 -0.6043 -0.3426 -0.2309
 5953TIP3    H139418   3.043   0.932   2.072  1.3102  1.6925  1.1246
 5953TIP3    H239419   2.930   1.028   2.102 -0.0466  0.5049 -0.0384
 5954TIP3   OH239420   5.617   1.638   8.225 -0.3096  0.4637  0.4885
 5954TIP3    H139421   5.674   1.666   8.297  1.7133 -1.0488 -0.4153
 5954TIP3    H239422   5.649   1.550   8.202  0.6664  1.7130 -3.6887
 5955TIP3   OH239423   2.251   6.432   8.557 -0.3529 -0.2220 -0.0561
 5955TIP3    H139424   2.227   6.342   8.536  0.4591 -0.2827 -0.7479
 5955TIP3    H239425   2.250   6.478   8.473 -1.5768  0.6314  0.3826
 5956TIP3   OH239426   2.718   1.829   6.246 -0.3441 -0.5818 -0.0874
 5956TIP3    H139427   2.767   1.780   6.180 -0.3352 -1.1454  0.3288
 5956TIP3    H239428   2.785   1.878   6.295 -0.1603 -1.4595  0.5717
 5957TIP3   OH239429   6.849   4.378   7.711 -0.2527  0.1236  0.4489
 5957TIP3    H139430   6.875   4.470   7.720  0.5515 -0.2157  2.1393
 5957TIP3    H239431   6.825   4.368   7.619  1.6852  1.5099 -0.2642
 5958TIP3   OH239432   0.424   2.188   0.011 -0.0247  0.1908  0.5114
 5958TIP3    H139433   0.342   2.237   0.001 -0.6524 -0.4403  2.1826
 5958TIP3    H239434   0.492   2.252  -0.011 -0.8630  1.5489  1.6691
 5959TIP3   OH239435   3.848   1.961   7.179 -0.0040  0.4307  0.0166
 5959TIP3    H139436   3.788   1.896   7.143 -1.4668  1.5856  0.3151
 5959TIP3    H239437   3.792   2.031   7.212  1.5156  3.4657 -3.2259
 5960TIP3   OH239438   6.241   0.702   8.107 -0.0472 -0.3246 -0.1160
 5960TIP3    H139439   6.245   0.766   8.178 -1.1486 -0.8675  0.4560
 5960TIP3    H239440   6.148   0.688   8.092  0.1732 -1.3568 -0.6215
 5961TIP3   OH239441   6.643   6.352   7.409  0.2010  0.2618  0.0286
 5961TIP3    H139442   6.605   6.377   7.324 -1.1090  2.1917  1.1054
 5961TIP3    H239443   6.567   6.331   7.463  1.0132 -0.7259  0.8165
 5962TIP3   OH239444   2.862   0.543   6.047  0.0013  0.0437 -0.4070
 5962TIP3    H139445   2.935   0.506   6.095 -0.3277  0.5396  0.4942
 5962TIP3    H239446   2.854   0.488   5.969  1.9832  0.6011 -1.0731
 5963TIP3   OH239447   4.454   2.370   0.357  0.4480 -0.1445 -0.3347
 5963TIP3    H139448   4.499   2.348   0.276  0.1766  1.6573 -1.0127
 5963TIP3    H239449   4.417   2.457   0.342  1.4812  0.8284  2.1670
 5964TIP3   OH239450   3.087   2.499   0.187  0.0366 -0.4351 -0.6530
 5964TIP3    H139451   3.036   2.578   0.208  0.3960 -0.4216  0.1817
 5964TIP3    H239452   3.022   2.429   0.184 -0.0648 -0.3926  0.2669
 5965TIP3   OH239453   5.683   5.645   7.432 -0.0430  0.0787 -0.3903
 5965TIP3    H139454   5.699   5.703   7.358  0.1211  0.2209 -0.2418
 5965TIP3    H239455   5.587   5.642   7.440 -0.0919  2.8913  1.6019
 5966TIP3   OH239456   2.714   3.346   7.991  0.6763 -0.2225  0.3449
 5966TIP3    H139457   2.707   3.258   8.028 -0.8967  0.3289  1.4661
 5966TIP3    H239458   2.689   3.335   7.899 -0.8611 -0.7572  0.7965
 5967TIP3   OH239459   0.545   5.946   1.410  0.9688 -0.2175 -0.1695
 5967TIP3    H139460   0.567   6.034   1.377  0.6930  0.1916  0.6949
 5967TIP3    H239461   0.467   5.921   1.360 -0.1332  0.8846  0.9134
 5968TIP3   OH239462   5.522   5.701   8.187  0.0829  0.2178 -0.0057
 5968TIP3    H139463   5.546   5.692   8.279 -0.1665 -0.2746  0.0125
 5968TIP3    H239464   5.603   5.726   8.143 -0.1251  2.1080  0.5894
 5969TIP3   OH239465   5.483   3.618   8.545  0.3321  0.3944 -0.4253
 5969TIP3    H139466   5.457   3.696   8.594  1.1059 -1.3966  3.1910
 5969TIP3    H239467   5.578   3.627   8.535  0.7662 -0.8271  1.8004
 5970TIP3   OH239468   5.007   1.908   7.398  0.5387 -0.0335 -0.9101
 5970TIP3    H139469   5.068   1.936   7.466 -0.7249 -2.0309  1.1695
 5970TIP3    H239470   5.060   1.855   7.338  0.9493 -1.7706  0.8784
 5971TIP3   OH239471   5.120   4.879   8.349 -0.2461 -0.2706 -0.3512
 5971TIP3    H139472   5.104   4.911   8.260  0.0667 -0.2624 -0.4073
 5971TIP3    H239473   5.212   4.901   8.366 -0.3512 -0.1146  0.0373
 5972TIP3   OH239474   5.463   6.268   7.020  0.3061 -0.4041 -0.0297
 5972TIP3    H139475   5.493   6.330   6.953  1.4367 -1.0618 -0.1525
 5972TIP3    H239476   5.466   6.182   6.976 -0.4673 -0.6533  0.3860
 5973TIP3   OH239477   0.235   1.041   1.038 -0.0679 -0.1693  0.3719
 5973TIP3    H139478   0.268   0.951   1.036 -0.4261 -0.2995  0.1931
 5973TIP3    H239479   0.218   1.059   1.130 -0.0198 -0.2922  0.4046
 5974TIP3   OH239480   0.953   6.441   0.343 -0.1012 -0.6496 -0.4572
 5974TIP3    H139481   0.966   6.349   0.320 -2.2325 -1.2669  0.5702
 5974TIP3    H239482   0.931   6.440   0.436  1.1975  1.0674 -0.0763
 5975TIP3   OH239483   4.390   2.129   7.106  0.1721  0.0974  0.2558
 5975TIP3    H139484   4.396   2.200   7.042 -0.3050  0.3449  0.4839
 5975TIP3    H239485   4.297   2.107   7.108 -0.0760  1.1347  2.0077
 5976TIP3   OH239486   3.148   6.268   1.737  0.2309  0.4930 -0.3265
 5976TIP3    H139487   3.065   6.221   1.746 -0.0138  0.8962 -0.4381
 5976TIP3    H239488   3.209   6.203   1.702  0.0291  0.1264  0.0006
 5977TIP3   OH239489   4.107   1.004   8.215 -0.1746  0.9439 -0.7902
 5977TIP3    H139490   4.032   1.007   8.275  0.5530 -0.1266  0.2204
 5977TIP3    H239491   4.182   1.030   8.269  0.6552 -1.0396 -0.9242
 5978TIP3   OH239492   2.622   2.924   8.656  0.3113 -0.0922  0.2057
 5978TIP3    H139493   2.680   2.952   8.727  0.6330  1.6486 -0.6805
 5978TIP3    H239494   2.647   2.980   8.582 -1.6212 -0.2029 -0.5750
 5979TIP3   OH239495   1.563   6.822   7.547  0.3338  0.2725 -0.1559
 5979TIP3    H139496   1.629   6.792   7.484 -0.5190 -1.3910 -0.3264
 5979TIP3    H239497   1.530   6.741   7.586 -0.7848  1.1485  0.7668
 5980TIP3   OH239498   0.466   0.081   1.690  0.1293 -0.0065 -0.1934
 5980TIP3    H139499   0.522   0.005   1.706  0.6550  0.6276  1.0867
 5980TIP3    H239500   0.506   0.127   1.617  0.7901 -0.0304  0.1522
 5981TIP3   OH239501   1.045   5.929   0.898 -0.1577  0.0634 -0.0710
 5981TIP3    H139502   1.004   5.903   0.981 -0.5746  0.0344 -0.2854
 5981TIP3    H239503   0.979   5.984   0.855  0.3439  0.6971 -0.0513
 5982TIP3   OH239504   2.130   3.106   2.326  0.0173 -0.4598  0.1855
 5982TIP3    H139505   2.128   3.116   2.421 -0.9072 -0.6780  0.2016
 5982TIP3    H239506   2.078   3.180   2.293 -0.3728 -0.8533 -0.0974
 5983TIP3   OH239507   3.058   4.087   7.939 -0.2959 -0.3595  0.0167
 5983TIP3    H139508   3.141   4.079   7.893  0.0416 -1.7253  0.7803
 5983TIP3    H239509   2.997   4.119   7.874  0.0120 -2.8236 -1.6393
 5984TIP3   OH239510   0.272   3.290   8.543 -0.4786  0.1266 -0.5319
 5984TIP3    H139511   0.245   3.287   8.635  1.0793  1.2448  0.0060
 5984TIP3    H239512   0.368   3.287   8.546 -0.2585  2.8386 -1.9348
 5985TIP3   OH239513   3.985   3.287   0.999 -0.4490  0.2621  0.0139
 5985TIP3    H139514   4.011   3.376   1.023 -1.0942  0.4162  0.1827
 5985TIP3    H239515   4.062   3.249   0.958 -0.2240  0.9779 -0.2499
 5986TIP3   OH239516   0.589   1.163   8.013 -0.2264 -0.2918 -0.0051
 5986TIP3    H139517   0.618   1.098   8.077 -0.4926  0.4736  0.9238
 5986TIP3    H239518   0.655   1.160   7.944  0.6390 -0.4168  0.8025
 5987TIP3   OH239519   3.775   3.662   1.794 -0.6183  0.2360  0.6515
 5987TIP3    H139520   3.697   3.658   1.740 -0.3302  0.9161  0.1669
 5987TIP3    H239521   3.842   3.699   1.736  0.1034 -0.4850  1.0088
 5988TIP3   OH239522   1.805   1.751   1.072  0.1084  0.0881 -0.1591
 5988TIP3    H139523   1.729   1.756   1.131  1.4743 -1.5326  1.8686
 5988TIP3    H239524   1.796   1.666   1.029  0.4985  0.1190 -0.3023
 5989TIP3   OH239525   1.370   0.276   0.769  0.1968 -0.6856  0.2436
 5989TIP3    H139526   1.322   0.330   0.705 -0.0324  0.4268  1.3203
 5989TIP3    H239527   1.366   0.188   0.732  0.5261 -0.0092 -1.5393
 5990TIP3   OH239528   4.405   1.977   1.526 -0.1787  0.6264  0.3734
 5990TIP3    H139529   4.315   2.003   1.504  0.6961  3.3135 -0.4671
 5990TIP3    H239530   4.427   1.910   1.462 -1.1724  0.8005 -0.1722
 5991TIP3   OH239531   2.114   5.521   7.665  0.1777 -0.2988 -0.1586
 5991TIP3    H139532   2.050   5.537   7.735 -1.3330  0.9938 -1.7258
 5991TIP3    H239533   2.199   5.532   7.707 -0.6695  0.6313  1.4311
 5992TIP3   OH239534   3.842   4.049   1.690 -0.5995  0.2294 -0.0293
 5992TIP3    H139535   3.896   4.086   1.760  0.7464  1.0734 -1.4472
 5992TIP3    H239536   3.873   3.958   1.683 -0.2037  0.3575 -0.0037
 5993TIP3   OH239537   0.941   4.332   8.107  0.4833 -0.6824 -1.0094
 5993TIP3    H139538   1.025   4.299   8.139  0.5346 -1.2073 -1.6601
 5993TIP3    H239539   0.890   4.253   8.087 -0.9681 -0.4397  1.3377
 5994TIP3   OH239540   0.932   5.409   7.889  0.1314 -0.0908 -0.4471
 5994TIP3    H139541   1.026   5.424   7.881  0.5159 -2.0502 -0.0232
 5994TIP3    H239542   0.902   5.477   7.949  1.7910 -1.0965  1.6441
 5995TIP3   OH239543   2.208   6.736   0.434 -0.2321 -0.0758  0.2641
 5995TIP3    H139544   2.248   6.781   0.509 -0.6290  1.4456 -0.4057
 5995TIP3    H239545   2.115   6.758   0.439 -0.1368  0.7354 -1.1306
 5996TIP3   OH239546   2.689   3.387   1.661  0.2805 -0.0261 -0.1437
 5996TIP3    H139547   2.653   3.381   1.749 -1.4556  1.8359 -0.6493
 5996TIP3    H239548   2.656   3.310   1.616  1.1052 -0.9424  0.7681
 5997TIP3   OH239549   1.242   4.266   1.945  0.2197 -0.2919 -0.0174
 5997TIP3    H139550   1.243   4.180   1.986 -1.5441  0.0799  0.8926
 5997TIP3    H239551   1.216   4.250   1.854  2.4012 -0.9322 -0.5901
 5998TIP3   OH239552   6.156   0.917   8.653  0.1978  0.0527  0.3523
 5998TIP3    H139553   6.095   0.897   8.582  2.2139 -3.6473 -0.6604
 5998TIP3    H239554   6.103   0.910   8.733 -1.5080  1.2541 -0.6205
 5999TIP3   OH239555   2.352   1.643   0.909 -0.2874 -0.5537  0.3540
 5999TIP3    H139556   2.352   1.553   0.877  0.8712 -0.5209  0.2327
 5999TIP3    H239557   2.414   1.643   0.981 -0.5795  0.0627  0.6137
 6000TIP3   OH239558   4.365   4.093   0.563 -0.2187 -0.2521  0.6634
 6000TIP3    H139559   4.456   4.062   0.567 -0.1634  0.0262  1.8944
 6000TIP3    H239560   4.342   4.110   0.654 -1.9544 -1.5845  0.5301
 6001TIP3   OH239561   5.728   3.482   2.087 -0.4967 -0.2856 -0.3188
 6001TIP3    H139562   5.790   3.456   2.154 -0.7969  0.3589  0.2338
 6001TIP3    H239563   5.686   3.561   2.123 -1.8772 -0.8985 -0.5063
 6002TIP3   OH239564   5.312   3.107   8.613 -0.4678 -0.4475  0.6399
 6002TIP3    H139565   5.272   3.194   8.607 -0.6429 -0.5731 -0.1808
 6002TIP3    H239566   5.394   3.122   8.661 -0.0388  0.3515 -0.2964
 6003TIP3   OH239567   2.394   1.738   0.003  0.6325  0.5802  1.0335
 6003TIP3    H139568   2.417   1.649   0.032  1.1972 -0.0106 -1.0964
 6003TIP3    H239569   2.300   1.745   0.019  0.7163 -0.0896  1.9380
 6004TIP3   OH239570   1.143   2.054   2.025  0.0860  0.3817 -0.0511
 6004TIP3    H139571   1.213   2.085   2.081 -1.5681  1.1392  1.6798
 6004TIP3    H239572   1.080   2.013   2.084 -0.5708 -1.0476 -1.6349
 6005TIP3   OH239573   2.751   2.445   6.940  0.7050 -0.1564  0.2954
 6005TIP3    H139574   2.656   2.445   6.930  0.7157  2.0552 -0.3171
 6005TIP3    H239575   2.784   2.426   6.852  0.8079 -0.0159  0.3026
 6006TIP3   OH239576   2.627   6.686   0.771  0.1964 -0.0981  0.1337
 6006TIP3    H139577   2.531   6.695   0.769  0.2919  1.1688 -2.4102
 6006TIP3    H239578   2.648   6.634   0.694  1.6347  0.6357  0.0003
 6007TIP3   OH239579   0.290   4.514   0.534  0.5192  0.5900 -0.0047
 6007TIP3    H139580   0.311   4.602   0.567  3.3215 -0.0265  0.1359
 6007TIP3    H239581   0.325   4.454   0.599 -1.5494 -0.7114  0.0098
 6008TIP3   OH239582   2.031   6.467   1.560 -0.2726 -0.2516  0.1119
 6008TIP3    H139583   2.035   6.446   1.653 -2.4606  0.5385  0.4360
 6008TIP3    H239584   2.122   6.483   1.535  0.4577 -1.4144  1.8667
 6009TIP3   OH239585   1.856   2.030   1.594  0.4471  0.6625  0.0195
 6009TIP3    H139586   1.879   1.937   1.600  0.7291  0.7794  0.8607
 6009TIP3    H239587   1.938   2.074   1.572  0.5238  0.8177  0.6123
 6010TIP3   OH239588   2.618   4.932   0.555  0.1452 -0.1679 -0.0009
 6010TIP3    H139589   2.697   4.883   0.579  1.1927  1.4889  0.1487
 6010TIP3    H239590   2.558   4.918   0.629  0.0735 -1.8292 -0.3343
 6011TIP3   OH239591   2.236   5.474   0.876 -0.4593  0.4152 -0.0734
 6011TIP3    H139592   2.236   5.499   0.783 -0.7125 -0.0212 -0.1951
 6011TIP3    H239593   2.231   5.556   0.923 -2.8953  0.5507 -0.4730
 6012TIP3   OH239594   2.108   4.574   0.092 -0.1662 -0.4075 -0.0028
 6012TIP3    H139595   2.100   4.661   0.130  1.2251 -0.3287  0.1592
 6012TIP3    H239596   2.020   4.537   0.097 -0.2409 -0.0723  2.5145
 6013TIP3   OH239597   6.676   5.836   6.600  0.3090 -0.4464  0.2559
 6013TIP3    H139598   6.603   5.778   6.577 -0.1489  0.4719 -0.6611
 6013TIP3    H239599   6.748   5.806   6.544  0.7152 -1.4597  1.2784
 6014TIP3   OH239600   5.749   5.770   0.238 -0.3974 -0.7961 -0.7033
 6014TIP3    H139601   5.695   5.772   0.317 -2.6445  1.3754 -2.1434
 6014TIP3    H239602   5.811   5.842   0.249 -0.4195 -0.7715 -0.7393
 6015TIP3   OH239603   2.121   1.126   8.413  0.2728  0.3812 -0.1227
 6015TIP3    H139604   2.213   1.146   8.430  1.7379 -3.5332 -2.2963
 6015TIP3    H239605   2.116   1.113   8.318 -1.9022 -2.0803  0.2161
 6016TIP3   OH239606   5.551   6.423   0.701  0.2828  0.6604  0.1035
 6016TIP3    H139607   5.466   6.383   0.720  1.0492 -2.3314 -2.0379
 6016TIP3    H239608   5.613   6.373   0.754  0.7230  4.1983  3.3561
 6017TIP3   OH239609   5.435   0.507   0.460 -0.1967  1.1053 -0.5569
 6017TIP3    H139610   5.387   0.533   0.382 -1.2581  1.0095  0.0463
 6017TIP3    H239611   5.368   0.473   0.519  0.6081  1.0480  0.3450
 6018TIP3   OH239612   1.136   6.538   7.190 -0.3054  0.1530 -0.6165
 6018TIP3    H139613   1.065   6.532   7.254  0.4981  0.9667  0.4007
 6018TIP3    H239614   1.137   6.453   7.146  0.8157 -1.5091  2.3222
 6019TIP3   OH239615   1.435   4.660   8.029 -0.4460  0.0883 -0.3668
 6019TIP3    H139616   1.448   4.633   8.120 -0.5266 -0.3284 -0.4736
 6019TIP3    H239617   1.392   4.584   7.988  0.8592 -0.2886 -1.0929
 6020TIP3   OH239618   1.515   1.726   8.037 -0.9274 -0.8650 -0.4154
 6020TIP3    H139619   1.596   1.690   8.075 -1.0119 -2.3482 -1.5804
 6020TIP3    H239620   1.545   1.784   7.968 -0.7460  2.3199  2.0870
 6021TIP3   OH239621   3.481   5.322   1.989 -0.2640  0.2335  0.1395
 6021TIP3    H139622   3.446   5.348   2.074  2.1672 -1.1635  1.7149
 6021TIP3    H239623   3.470   5.227   1.986 -0.5937  0.2952 -1.2620
 6022TIP3   OH239624   3.396   0.340   6.952  0.8358  0.1448 -0.1430
 6022TIP3    H139625   3.364   0.362   6.865  0.2407  0.5726  0.1770
 6022TIP3    H239626   3.380   0.246   6.961  0.9858  0.0826 -0.5300
 6023TIP3   OH239627   1.382   6.737   2.213 -0.4327 -0.5595  0.4540
 6023TIP3    H139628   1.405   6.670   2.276 -1.7519 -0.8620  0.6397
 6023TIP3    H239629   1.286   6.735   2.208 -0.4703  0.8152 -0.0660
 6024TIP3   OH239630   6.042   1.649   7.941  0.5168  0.8457  0.0707
 6024TIP3    H139631   6.097   1.645   7.863  1.4442 -1.0851  0.7386
 6024TIP3    H239632   6.094   1.699   8.004  0.9129  0.2270  0.2464
 6025TIP3   OH239633   2.888   1.085   8.578  0.1499 -0.2359 -0.1862
 6025TIP3    H139634   2.824   1.135   8.528  0.9467  0.4732 -0.5210
 6025TIP3    H239635   2.862   1.097   8.669 -0.8215 -0.8567 -0.3628
 6026TIP3   OH239636   5.223   0.195   0.879 -0.3762 -0.4920  0.1955
 6026TIP3    H139637   5.195   0.249   0.805 -0.4372 -0.2592  0.3895
 6026TIP3    H239638   5.143   0.155   0.911 -0.5662  0.5504  1.0543
 6027TIP3   OH239639   0.629   2.397   8.654  0.5840 -0.0619  0.7767
 6027TIP3    H139640   0.662   2.352   8.575  0.7086 -1.3989  1.5600
 6027TIP3    H239641   0.613   2.487   8.625  0.5692 -0.5323 -0.7918
 6028TIP3   OH239642   3.208   3.284   0.274 -0.1182  0.0538  0.3407
 6028TIP3    H139643   3.119   3.291   0.307 -0.6532  1.0471 -1.2225
 6028TIP3    H239644   3.220   3.191   0.257 -1.2916  0.0514 -0.5629
 6029TIP3   OH239645   4.416   0.499   0.288  0.1407 -0.8476  0.6352
 6029TIP3    H139646   4.409   0.442   0.365  0.7618 -0.2419  1.1498
 6029TIP3    H239647   4.493   0.552   0.305 -0.5022  0.2422  0.2157
 6030TIP3   OH239648   3.175   1.278   1.108 -0.5320  0.1334  0.4557
 6030TIP3    H139649   3.097   1.224   1.109 -0.2527 -0.2730  1.3813
 6030TIP3    H239650   3.171   1.325   1.025 -0.8228 -1.2319 -0.3248
 6031TIP3   OH239651   3.409   6.610   0.493 -0.3292  0.4621  0.0022
 6031TIP3    H139652   3.419   6.544   0.561  1.3465 -0.0351 -0.6823
 6031TIP3    H239653   3.315   6.617   0.480 -0.5758 -1.2416  0.6239
 6032TIP3   OH239654   0.857   4.107   1.339 -0.5727  1.0889 -0.1684
 6032TIP3    H139655   0.880   4.018   1.366  2.7158  1.8289 -0.0265
 6032TIP3    H239656   0.831   4.099   1.247  3.0365  0.2169 -1.2892
 6033TIP3   OH239657   1.857   4.036   7.237 -0.1878  0.3640 -0.2186
 6033TIP3    H139658   1.890   4.086   7.162 -0.5268 -0.7318 -1.1184
 6033TIP3    H239659   1.767   4.016   7.214 -0.3264  0.1094  0.5410
 6034TIP3   OH239660   0.119   0.381   0.828  0.5010  0.2477  0.3133
 6034TIP3    H139661   0.201   0.395   0.780  0.2928 -1.0062 -0.4283
 6034TIP3    H239662   0.050   0.389   0.762  0.3030 -3.1480 -0.0393
 6035TIP3   OH239663   3.752   5.247   1.851 -0.1136  0.3876 -0.5874
 6035TIP3    H139664   3.830   5.282   1.807  0.2642  1.4357  0.8332
 6035TIP3    H239665   3.771   5.257   1.945 -0.9694 -1.5634 -0.1518
 6036TIP3   OH239666   6.702   4.679   0.645  0.1420  0.0132  0.0888
 6036TIP3    H139667   6.762   4.752   0.655  0.1650 -0.1289  1.0734
 6036TIP3    H239668   6.713   4.651   0.554  2.1512 -0.5136  0.4516
 6037TIP3   OH239669   3.047   3.411   0.042  0.0351  0.3823  0.2684
 6037TIP3    H139670   3.065   3.495   0.084 -0.3141  0.2422  0.7056
 6037TIP3    H239671   3.127   3.359   0.058  0.0473  0.4552  0.4474
 6038TIP3   OH239672   4.436   1.129   8.063 -0.0997 -0.3228  0.2655
 6038TIP3    H139673   4.417   1.223   8.066 -1.8450 -0.6466  0.3958
 6038TIP3    H239674   4.493   1.114   8.139 -1.2187  0.3610  1.2854
 6039TIP3   OH239675   0.837   1.809   7.454 -0.3658  1.2052 -0.4725
 6039TIP3    H139676   0.765   1.867   7.481 -0.8619  0.7218 -0.7472
 6039TIP3    H239677   0.805   1.765   7.376 -0.6705 -0.6669  0.6314
 6040TIP3   OH239678   0.287   3.112   1.388  0.5800  0.2977  0.5325
 6040TIP3    H139679   0.198   3.138   1.364  0.5826 -0.0270  0.1611
 6040TIP3    H239680   0.304   3.034   1.335  0.2223 -1.0434  2.3076
 6041TIP3   OH239681   0.040   0.503   2.208 -0.4321  0.1872  0.1810
 6041TIP3    H139682   0.093   0.539   2.137 -0.0596  0.2191  0.4761
 6041TIP3    H239683   0.103   0.478   2.275 -0.7737  0.0163  0.4413
 6042TIP3   OH239684   3.348   6.113   1.631  0.2621 -0.2635 -0.2630
 6042TIP3    H139685   3.435   6.077   1.649  0.5708  1.4868  2.3777
 6042TIP3    H239686   3.360   6.168   1.554  1.0086 -1.5194 -1.0797
 6043TIP3   OH239687   0.665   3.437   0.637  0.1269  0.1974  0.2537
 6043TIP3    H139688   0.687   3.360   0.584 -2.4666  0.4984 -1.4309
 6043TIP3    H239689   0.614   3.402   0.710 -0.2920  0.2360 -0.0210
 6044TIP3   OH239690   1.147   1.313   1.647  0.4023 -0.2975 -0.1954
 6044TIP3    H139691   1.213   1.252   1.680  2.2381  2.4295  1.6021
 6044TIP3    H239692   1.122   1.365   1.724 -3.3256 -0.6435 -0.9846
 6045TIP3   OH239693   1.846   0.663   8.358 -0.0352  0.4786 -0.4320
 6045TIP3    H139694   1.909   0.719   8.313  0.0331  1.0400  0.3440
 6045TIP3    H239695   1.796   0.723   8.413 -0.9063 -0.0335 -0.6417
 6046TIP3   OH239696   6.802   1.267   1.165 -0.3470 -0.5303 -0.0429
 6046TIP3    H139697   6.761   1.182   1.149 -1.2208 -0.2645  0.7031
 6046TIP3    H239698   6.820   1.268   1.259 -0.2960  0.0910 -0.0556
 6047TIP3   OH239699   1.433   2.973   1.642 -0.2191  0.0542 -0.0240
 6047TIP3    H139700   1.507   2.932   1.598  0.3351  0.3140  0.6464
 6047TIP3    H239701   1.362   2.910   1.634  0.0754 -0.2046 -0.6636
 6048TIP3   OH239702   2.239   2.896   6.303  0.0463  0.1125  0.0164
 6048TIP3    H139703   2.144   2.908   6.293 -0.1718 -1.7376 -0.6500
 6048TIP3    H239704   2.248   2.805   6.334  1.6120  0.1615 -0.2055
 6049TIP3   OH239705   5.292   3.982   8.040 -0.1409  0.0669  0.0863
 6049TIP3    H139706   5.203   3.947   8.052  0.2600 -1.0581 -0.0956
 6049TIP3    H239707   5.335   3.967   8.124  0.7196 -2.0116 -0.6464
 6050TIP3   OH239708   0.096   3.477   8.049 -0.1863  0.1377  0.3744
 6050TIP3    H139709   0.027   3.522   8.001  0.7946 -1.4438 -2.8072
 6050TIP3    H239710   0.059   3.391   8.070  0.2668 -0.1454  0.0462
 6051TIP3   OH239711   4.792   2.947   2.891  0.3438  0.2492  0.2215
 6051TIP3    H139712   4.823   2.922   2.804  0.8940  1.4391  0.0596
 6051TIP3    H239713   4.793   2.865   2.941  2.7954  0.0317 -0.0709
 6052TIP3   OH239714   0.412   1.294   0.055 -0.7795 -0.1682  0.0688
 6052TIP3    H139715   0.357   1.254  -0.013 -2.2801  1.3556  0.3183
 6052TIP3    H239716   0.397   1.388   0.045  1.0340  0.2325  0.8277
 6053TIP3   OH239717   1.592   3.674   1.254 -0.6415 -0.3846  0.4829
 6053TIP3    H139718   1.645   3.645   1.179 -2.1887 -1.4167 -0.2788
 6053TIP3    H239719   1.620   3.764   1.270 -0.9336  0.2269 -2.0039
 6054TIP3   OH239720   0.500   4.232   2.944 -0.2031  0.4411  0.4487
 6054TIP3    H139721   0.407   4.224   2.922 -0.0779 -0.7293  0.3031
 6054TIP3    H239722   0.534   4.298   2.884 -0.5773 -0.3553 -0.6617
 6055TIP3   OH239723   5.183   3.771   7.098  0.3009 -0.0802  0.1831
 6055TIP3    H139724   5.137   3.692   7.125 -2.6430  1.6980  0.8586
 6055TIP3    H239725   5.209   3.755   7.008  2.1987 -2.7219  1.0665
 6056TIP3   OH239726   4.139   1.639   8.071 -0.3439 -0.0950  0.0750
 6056TIP3    H139727   4.231   1.659   8.055 -0.8950  0.1623 -3.8692
 6056TIP3    H239728   4.100   1.724   8.092  0.2636 -0.1996  1.7248
 6057TIP3   OH239729   3.476   1.944   7.739 -0.1811 -0.0093 -0.2650
 6057TIP3    H139730   3.492   1.879   7.808 -1.6280  0.2246  0.3104
 6057TIP3    H239731   3.412   1.902   7.681 -2.0724  1.3208  0.7733
 6058TIP3   OH239732   3.774   5.063   0.598 -0.6047  0.2117  0.2760
 6058TIP3    H139733   3.694   5.042   0.550 -1.8066 -1.1065  2.6433
 6058TIP3    H239734   3.800   5.149   0.565 -2.3219  0.1488 -1.4167
 6059TIP3   OH239735   4.101   6.469   1.275 -0.7051  0.0383  0.8863
 6059TIP3    H139736   4.096   6.385   1.229  0.4489  1.0206 -1.1766
 6059TIP3    H239737   4.189   6.470   1.313 -0.1944  0.8004 -0.2377
 6060TIP3   OH239738   1.349   1.595   8.279  0.7091  0.8510  0.2901
 6060TIP3    H139739   1.343   1.526   8.345 -0.4641  0.5776 -0.0729
 6060TIP3    H239740   1.430   1.641   8.300  1.5473 -0.6677  0.4959
 6061TIP3   OH239741   5.220   0.467   0.654 -0.2527 -0.0496  0.5645
 6061TIP3    H139742   5.272   0.512   0.720  0.6085  0.1770 -0.2594
 6061TIP3    H239743   5.132   0.506   0.662  0.2688  1.1946  0.4184
 6062TIP3   OH239744   1.196   4.348   8.665 -0.6164  0.3436  0.0816
 6062TIP3    H139745   1.221   4.440   8.662  2.5050 -0.4061 -0.0244
 6062TIP3    H239746   1.152   4.332   8.581  0.1695  1.3790 -0.5435
 6063TIP3   OH239747   0.395   1.365   6.574  0.6426 -0.3920 -0.4258
 6063TIP3    H139748   0.334   1.356   6.501  2.3808 -1.4184 -1.8578
 6063TIP3    H239749   0.358   1.434   6.629 -0.9214  0.1519 -2.0795
 6064TIP3   OH239750   4.059   2.940   7.275  0.1149 -0.1272 -0.3094
 6064TIP3    H139751   4.088   2.988   7.197 -0.1208  2.4030  1.0477
 6064TIP3    H239752   3.998   3.000   7.318 -0.4248 -1.8069  1.3880
 6065TIP3   OH239753   3.488   1.130   1.656  0.1836 -0.1108 -0.2290
 6065TIP3    H139754   3.488   1.151   1.563 -2.3328 -1.1131 -0.5317
 6065TIP3    H239755   3.439   1.201   1.697  0.8430  0.0606  0.2745
 6066TIP3   OH239756   3.639   5.368   1.581 -0.2128  0.0947 -0.3269
 6066TIP3    H139757   3.694   5.327   1.648  0.2045  0.1000 -0.6610
 6066TIP3    H239758   3.697   5.432   1.539  0.3203 -1.6764 -2.4198
 6067TIP3   OH239759   6.190   5.377   7.201  0.3922 -0.1266  0.0813
 6067TIP3    H139760   6.258   5.312   7.219  0.8739  0.8135  1.8689
 6067TIP3    H239761   6.138   5.379   7.281 -0.8927  0.2039 -0.7395
 6068TIP3   OH239762   1.749   2.820   7.598 -0.2933  0.2018 -0.1400
 6068TIP3    H139763   1.671   2.809   7.544  0.3543  1.7860 -1.4771
 6068TIP3    H239764   1.724   2.784   7.684 -2.3656  0.3728 -0.6270
 6069TIP3   OH239765   2.525   4.326   7.682 -0.1333  0.2699  0.0622
 6069TIP3    H139766   2.597   4.295   7.626 -0.5475 -1.5416  0.4560
 6069TIP3    H239767   2.448   4.279   7.650 -0.5301 -0.2064  1.6179
 6070TIP3   OH239768   2.725   3.911   0.689 -0.2397  0.1182  1.0206
 6070TIP3    H139769   2.787   3.871   0.751 -1.1309 -3.0599  0.0551
 6070TIP3    H239770   2.663   3.959   0.744  1.0452  0.3933  2.2737
 6071TIP3   OH239771   2.722   1.329   8.056  0.1492 -0.1028 -0.1169
 6071TIP3    H139772   2.780   1.343   8.131  0.1045 -1.2330  0.1479
 6071TIP3    H239773   2.722   1.412   8.009 -1.2994  1.2899  2.1558
 6072TIP3   OH239774   5.438   5.392   8.493  0.2192  0.1013  0.2661
 6072TIP3    H139775   5.488   5.330   8.440 -0.0940  0.4472 -0.4443
 6072TIP3    H239776   5.349   5.386   8.460  0.2659  1.2302 -0.1090
 6073TIP3   OH239777   0.911   2.640   6.930  0.0427  0.3130  0.5429
 6073TIP3    H139778   0.975   2.694   6.883  0.1999 -0.6491 -0.3695
 6073TIP3    H239779   0.964   2.587   6.990  0.0929 -0.3087 -0.0400
 6074TIP3   OH239780   5.045   6.088   1.640  0.2468  0.4424 -0.2830
 6074TIP3    H139781   5.126   6.075   1.690  0.1184  1.6286  0.2648
 6074TIP3    H239782   5.012   5.999   1.625 -0.1744  0.0262  2.5532
 6075TIP3   OH239783   6.119   4.487   8.583 -0.1652 -0.0627 -0.3115
 6075TIP3    H139784   6.148   4.526   8.665 -2.1154  0.5768  0.1078
 6075TIP3    H239785   6.162   4.402   8.580  0.7015  0.3141  0.8745
 6076TIP3   OH239786   4.932   5.959   0.515  0.2988 -0.4732 -0.3604
 6076TIP3    H139787   4.967   6.031   0.569  0.4705 -0.3196 -0.6729
 6076TIP3    H239788   4.992   5.954   0.441  0.6976 -1.4119  0.0068
 6077TIP3   OH239789   1.123   3.782   8.678 -0.4008  0.1751  0.2376
 6077TIP3    H139790   1.143   3.690   8.659  0.8147  0.6905 -1.2046
 6077TIP3    H239791   1.028   3.785   8.682 -0.6477 -0.7274 -2.4359
 6078TIP3   OH239792   5.840   1.601   1.020  0.5288  0.2725 -0.1454
 6078TIP3    H139793   5.774   1.533   1.009 -0.8053  0.4977  4.3293
 6078TIP3    H239794   5.915   1.555   1.059 -0.4685  1.1635  3.1306
 6079TIP3   OH239795   4.756   6.193   1.591 -0.0144 -0.1885 -0.1535
 6079TIP3    H139796   4.728   6.174   1.501 -1.4931 -2.2154  0.6565
 6079TIP3    H239797   4.840   6.149   1.600 -0.2601 -0.6993 -0.3080
 6080TIP3   OH239798   4.515   4.095   2.628  0.2319 -0.4132  0.0891
 6080TIP3    H139799   4.595   4.042   2.629  0.3810 -0.2363  2.2530
 6080TIP3    H239800   4.481   4.086   2.539  2.2396 -1.1168 -0.6521
 6081TIP3   OH239801   2.783   4.410   1.445 -0.2707 -0.7975  0.0778
 6081TIP3    H139802   2.783   4.439   1.353  0.5394 -2.3790 -0.4608
 6081TIP3    H239803   2.874   4.388   1.463 -0.0956  1.0946  1.8414
 6082TIP3   OH239804   3.231   3.083   1.172  0.2168  0.2231 -0.2156
 6082TIP3    H139805   3.213   3.177   1.178 -0.3976  0.1615 -0.8814
 6082TIP3    H239806   3.325   3.077   1.159  0.0399  0.8604 -2.0287
 6083TIP3   OH239807   5.805   4.030   0.755 -0.4963  0.2576  0.0925
 6083TIP3    H139808   5.745   4.003   0.825  1.7280  0.3033  2.1552
 6083TIP3    H239809   5.807   3.956   0.695 -2.4853  0.2120  0.0069
 6084TIP3   OH239810   0.570   4.187   0.091 -0.4767  0.9306  0.0687
 6084TIP3    H139811   0.620   4.235   0.025 -0.4463  2.0578  0.8961
 6084TIP3    H239812   0.631   4.119   0.122  0.7531  2.5319  1.3535
 6085TIP3   OH239813   2.334   5.673   6.787 -0.0751 -0.0064 -0.0329
 6085TIP3    H139814   2.355   5.756   6.743  2.0828 -0.3640  0.2007
 6085TIP3    H239815   2.308   5.614   6.717  0.1602  0.3590 -0.4299
 6086TIP3   OH239816   6.650   6.709   1.477  0.0407 -0.1024 -0.6878
 6086TIP3    H139817   6.697   6.715   1.393 -0.5113  1.9473 -0.9188
 6086TIP3    H239818   6.596   6.631   1.469  0.7854 -0.5262 -1.8237
 6087TIP3   OH239819   6.851   5.749   0.261 -0.3748  0.7464  0.8227
 6087TIP3    H139820   6.781   5.684   0.257 -0.5306  0.9280 -2.8602
 6087TIP3    H239821   6.808   5.829   0.288 -0.9484  0.1821  1.6217
 6088TIP3   OH239822   2.547   0.714   1.567 -0.7629  0.2689 -0.3582
 6088TIP3    H139823   2.626   0.703   1.515 -0.7028 -0.3870 -0.1291
 6088TIP3    H239824   2.578   0.751   1.650 -0.6402 -0.3696 -0.1127
 6089TIP3   OH239825   3.168   2.283   8.241  0.2560  1.2626 -0.5482
 6089TIP3    H139826   3.146   2.242   8.158  1.6171 -0.6827 -0.0180
 6089TIP3    H239827   3.185   2.375   8.218  0.9738  0.6981 -2.4857
 6090TIP3   OH239828   0.436   6.274   7.107 -0.0680  0.2610  0.0431
 6090TIP3    H139829   0.409   6.312   7.190  0.7069  2.2702 -0.5539
 6090TIP3    H239830   0.414   6.341   7.042 -1.3295 -1.5489 -1.4974
 6091TIP3   OH239831   6.518   3.923   8.157  0.1453 -0.0031 -0.9988
 6091TIP3    H139832   6.528   3.851   8.220  0.2446  0.3175 -0.6441
 6091TIP3    H239833   6.443   3.898   8.104  0.3287 -0.4852 -1.0313
 6092TIP3   OH239834   5.932   6.016   7.951 -0.5819 -0.5477 -0.3540
 6092TIP3    H139835   5.848   6.044   7.915 -0.1450  0.2355 -0.7757
 6092TIP3    H239836   5.992   6.088   7.933  0.2154 -1.1440 -0.1639
 6093TIP3   OH239837   2.584   0.267   2.172 -0.2665 -0.1224 -0.0179
 6093TIP3    H139838   2.627   0.350   2.190  1.2385 -0.4435 -1.7667
 6093TIP3    H239839   2.529   0.285   2.095 -0.4874 -0.5720  0.0322
 6094TIP3   OH239840   4.783   3.359   0.863 -0.3040 -0.0049 -0.2264
 6094TIP3    H139841   4.733   3.336   0.785 -1.1271 -1.3648  0.6437
 6094TIP3    H239842   4.775   3.454   0.871 -2.2210 -0.1037 -0.4941
 6095TIP3   OH239843   6.101   6.434   8.036 -0.7467 -0.2160  0.3653
 6095TIP3    H139844   6.014   6.412   8.069 -0.0805  1.0262  3.2076
 6095TIP3    H239845   6.129   6.355   7.988 -2.0259 -2.0357  2.4371
 6096TIP3   OH239846   4.243   1.704   1.011 -0.4423  0.1576  0.2539
 6096TIP3    H139847   4.189   1.739   1.081  0.1387 -0.5822  1.0910
 6096TIP3    H239848   4.187   1.708   0.933 -1.4088  0.1411  0.9310
 6097TIP3   OH239849   2.176   5.705   7.222 -0.1681 -1.0123 -0.2044
 6097TIP3    H139850   2.128   5.770   7.171 -2.5430 -2.4594  0.0768
 6097TIP3    H239851   2.226   5.655   7.157 -0.8271 -0.9310 -0.7807
 6098TIP3   OH239852   3.065   0.914   0.209 -0.0074 -0.1557 -0.3966
 6098TIP3    H139853   2.983   0.950   0.176  0.6227  1.5018 -0.2677
 6098TIP3    H239854   3.073   0.829   0.166  0.0099  1.2154 -3.3270
 6099TIP3   OH239855   4.893   5.975   1.407  0.0660 -0.1715  0.4381
 6099TIP3    H139856   4.916   6.057   1.364  1.7788 -1.2281 -0.7865
 6099TIP3    H239857   4.800   5.963   1.389  0.6502 -0.5151 -3.0737
 6100TIP3   OH239858   5.690   3.040   1.030  0.7185 -0.1827  0.0700
 6100TIP3    H139859   5.693   3.079   1.117  1.7412  2.1050 -0.9027
 6100TIP3    H239860   5.626   2.969   1.038 -2.6795  2.7094  1.6330
 6101TIP3   OH239861   4.388   5.339   0.396 -0.0523 -0.1133 -0.0179
 6101TIP3    H139862   4.302   5.379   0.411 -1.1601 -2.1415 -0.5638
 6101TIP3    H239863   4.394   5.270   0.462  0.2734 -1.2731 -1.2151
 6102TIP3   OH239864   4.404   2.227   1.225  1.2140  0.5083 -0.2640
 6102TIP3    H139865   4.329   2.179   1.260  0.6233 -0.3368 -2.5575
 6102TIP3    H239866   4.377   2.319   1.229  1.2248  0.4647  1.5352
 6103TIP3   OH239867   3.434   2.597   7.644 -0.4282 -0.2945  0.6787
 6103TIP3    H139868   3.465   2.634   7.561  1.3854 -0.4899  1.2402
 6103TIP3    H239869   3.505   2.540   7.673  0.1680  1.7774  3.6952
 6104TIP3   OH239870   6.167   2.330   6.690 -0.1199  0.1399 -0.0446
 6104TIP3    H139871   6.098   2.264   6.693 -0.7500  0.7580 -0.3880
 6104TIP3    H239872   6.240   2.287   6.648  0.1072 -0.8747  1.3352
 6105TIP3   OH239873   6.685   4.941   6.879  0.1185  0.1071 -0.2001
 6105TIP3    H139874   6.659   5.020   6.832  1.2392 -0.1298 -1.2737
 6105TIP3    H239875   6.699   4.876   6.811 -0.8134 -1.0466  0.6713
 6106TIP3   OH239876   3.488   0.923   7.049  0.4170  0.3438  0.7888
 6106TIP3    H139877   3.578   0.947   7.071  0.3881  2.0601 -0.6417
 6106TIP3    H239878   3.489   0.911   6.954 -0.3795 -2.0660  1.0278
 6107TIP3   OH239879   3.497   3.810   2.139  0.2371 -0.7632  0.2761
 6107TIP3    H139880   3.509   3.850   2.226  1.9829  0.5404 -0.4958
 6107TIP3    H239881   3.557   3.858   2.082  1.5545 -3.6788 -1.0193
 6108TIP3   OH239882   6.702   0.625   1.948  0.4016  0.1475  0.3172
 6108TIP3    H139883   6.744   0.671   2.021  1.0155  0.5699 -0.2880
 6108TIP3    H239884   6.775   0.581   1.904 -0.2019 -1.7159  1.0727
 6109TIP3   OH239885   2.604   5.440   1.929 -0.6631 -0.6899  0.3836
 6109TIP3    H139886   2.681   5.468   1.979 -0.9404 -0.3672  0.6335
 6109TIP3    H239887   2.532   5.490   1.966 -0.7501  0.2035 -0.9019
 6110TIP3   OH239888   4.608   2.327   0.102 -0.1247  0.4442 -0.4423
 6110TIP3    H139889   4.632   2.290   0.017  0.1705  0.0240 -0.1793
 6110TIP3    H239890   4.561   2.407   0.080 -0.3620  0.1570 -1.0105
 6111TIP3   OH239891   1.111   3.372   7.536 -0.1441  0.2630 -0.0902
 6111TIP3    H139892   1.155   3.449   7.502 -1.0440  0.6934 -0.3137
 6111TIP3    H239893   1.019   3.384   7.511 -1.6746  2.2604  5.1001
 6112TIP3   OH239894   3.225   3.421   1.421 -0.1300 -0.2873  0.1360
 6112TIP3    H139895   3.180   3.463   1.495  1.4660 -1.2420  1.7453
 6112TIP3    H239896   3.182   3.336   1.411 -2.2496  0.9266 -2.0189
 6113TIP3   OH239897   3.323   0.082   1.260 -0.4732 -0.3085  0.4063
 6113TIP3    H139898   3.407   0.111   1.296 -0.7906  1.1432  0.0359
 6113TIP3    H239899   3.306   0.142   1.188 -1.2575 -1.3589 -0.2973
 6114TIP3   OH239900   5.117   5.662   0.756 -0.2973 -0.0621 -0.2914
 6114TIP3    H139901   5.100   5.610   0.677 -1.5522 -0.2821  0.1048
 6114TIP3    H239902   5.064   5.741   0.744  1.5273  1.1309 -0.8462
 6115TIP3   OH239903   6.000   2.901   8.172 -0.2702  0.2991  0.0224
 6115TIP3    H139904   6.086   2.918   8.133  0.3103 -1.7420  0.2960
 6115TIP3    H239905   6.019   2.889   8.265 -0.6557 -1.2515 -0.0770
 6116TIP3   OH239906   6.031   5.294   2.086 -0.4504  0.1795  0.2870
 6116TIP3    H139907   6.077   5.320   2.166  1.5227 -2.3661  0.0838
 6116TIP3    H239908   6.043   5.369   2.027  2.8636 -0.0202  0.5323
 6117TIP3   OH239909   6.580   3.408   7.333  0.0577  0.0042  0.0086
 6117TIP3    H139910   6.658   3.380   7.285  0.6509 -0.9890  1.4521
 6117TIP3    H239911   6.506   3.383   7.278  0.7370  0.1196 -0.9724
 6118TIP3   OH239912   6.637   2.737   1.893  0.1486 -0.1420 -0.2272
 6118TIP3    H139913   6.703   2.775   1.951 -0.4904  2.7200 -1.2314
 6118TIP3    H239914   6.568   2.707   1.951  1.1404 -0.7455  0.6708
 6119TIP3   OH239915   4.158   6.393   6.566 -0.0143  0.0200  0.1831
 6119TIP3    H139916   4.123   6.311   6.532 -0.3945 -0.0237  0.6635
 6119TIP3    H239917   4.207   6.431   6.494  0.7598 -0.9732  0.1774
 6120TIP3   OH239918   4.677   3.073   0.157 -0.2883  0.5742  0.0464
 6120TIP3    H139919   4.769   3.046   0.150 -0.4258 -0.0372  0.5747
 6120TIP3    H239920   4.628   3.008   0.107 -0.4342  0.9325 -0.2823
 6121TIP3   OH239921   0.049   4.242   8.237  0.3782 -0.3673 -0.2578
 6121TIP3    H139922   0.127   4.250   8.183 -0.6936 -0.1039 -1.8264
 6121TIP3    H239923   0.005   4.164   8.204  0.3812 -1.0331  1.1993
 6122TIP3   OH239924   1.363   4.286   1.012 -0.2272  0.2879  0.2264
 6122TIP3    H139925   1.441   4.250   0.970 -0.6391 -0.0521 -0.2629
 6122TIP3    H239926   1.386   4.378   1.030  0.1270  0.3106 -0.3159
 6123TIP3   OH239927   6.317   2.837   6.473  0.4656 -0.3573 -0.1964
 6123TIP3    H139928   6.304   2.745   6.497  0.9243 -0.6907 -1.1317
 6123TIP3    H239929   6.411   2.843   6.452  0.1138 -0.1576 -1.9319
 6124TIP3   OH239930   6.563   5.900   1.252  0.1999  0.0176  0.2508
 6124TIP3    H139931   6.597   5.884   1.339  2.7207  0.6341 -0.5265
 6124TIP3    H239932   6.632   5.951   1.208  0.3040 -2.5026 -2.9377
 6125TIP3   OH239933   1.765   3.973   1.027 -0.0349  0.1035 -0.2564
 6125TIP3    H139934   1.728   3.896   0.984  1.2176 -0.0884 -1.0382
 6125TIP3    H239935   1.770   3.949   1.119  0.0639 -0.6435 -0.4486
 6126TIP3   OH239936   2.339   6.677   0.210 -0.4957 -0.1585  0.2045
 6126TIP3    H139937   2.282   6.710   0.279  0.5309 -0.4448  1.2083
 6126TIP3    H239938   2.378   6.598   0.246 -1.0746 -1.1526 -1.2746
 6127TIP3   OH239939   1.820   4.690   0.339  0.5706 -0.6459  0.3142
 6127TIP3    H139940   1.803   4.772   0.293 -0.8471 -0.8511  0.4160
 6127TIP3    H239941   1.769   4.625   0.290 -0.5316 -0.9719  1.8480
 6128TIP3   OH239942   2.898   1.763   7.332 -0.4700 -0.2729 -0.7710
 6128TIP3    H139943   2.904   1.669   7.317 -1.1130 -0.0124 -2.9759
 6128TIP3    H239944   2.843   1.796   7.261 -0.2368  1.7882 -0.0819
 6129TIP3   OH239945   4.353   3.459   8.103  0.2317  0.7530  0.3813
 6129TIP3    H139946   4.371   3.491   8.192 -1.3496 -0.0189  1.0088
 6129TIP3    H239947   4.283   3.515   8.071 -0.3819 -0.0532  0.2852
 6130TIP3   OH239948   0.622   5.107   1.084  0.6297 -0.3558  0.7572
 6130TIP3    H139949   0.643   5.120   0.991  0.1136 -1.8554  0.4074
 6130TIP3    H239950   0.564   5.031   1.085  0.9750 -0.6281  2.3549
 6131TIP3   OH239951   6.691   5.977   7.856 -0.5526  0.1274 -0.0666
 6131TIP3    H139952   6.765   6.009   7.908  2.2927  0.2854 -3.8214
 6131TIP3    H239953   6.623   6.045   7.867  0.6819  1.1646  1.7130
 6132TIP3   OH239954   1.007   1.160   7.344  0.5318  0.1892  0.4443
 6132TIP3    H139955   1.097   1.185   7.364  1.7014 -1.3243 -2.4846
 6132TIP3    H239956   0.957   1.241   7.353  2.0091  0.9474  2.6594
 6133TIP3   OH239957   2.948   2.483   1.638 -0.3053 -0.0542 -0.1176
 6133TIP3    H139958   2.927   2.522   1.723 -2.4335 -1.0753 -0.1080
 6133TIP3    H239959   2.987   2.554   1.588 -0.6390  1.0517  1.1420
 6134TIP3   OH239960   1.403   2.794   1.208  0.2324 -0.0550  0.1173
 6134TIP3    H139961   1.450   2.784   1.290 -2.0765 -0.9768  1.4181
 6134TIP3    H239962   1.346   2.869   1.222  0.3646  0.2677 -0.9528
 6135TIP3   OH239963   2.713   5.369   0.797 -0.3407 -0.2815 -0.2756
 6135TIP3    H139964   2.722   5.314   0.719 -1.1541 -0.0349 -0.5578
 6135TIP3    H239965   2.646   5.433   0.773 -1.4681 -0.9270  1.0321
 6136TIP3   OH239966   6.851   4.984   7.618  0.1998 -0.1793  0.1866
 6136TIP3    H139967   6.812   4.956   7.701 -2.1259  3.7452  0.6670
 6136TIP3    H239968   6.916   5.049   7.643  0.8357 -0.3256 -1.0166
 6137TIP3   OH239969   5.941   3.741   1.593 -0.1950 -0.2371 -0.4468
 6137TIP3    H139970   6.021   3.710   1.550  0.0013 -2.4321  1.3075
 6137TIP3    H239971   5.964   3.828   1.625  1.6264 -0.9009  0.2157
 6138TIP3   OH239972   2.947   2.755   7.521 -0.3611 -0.5630 -0.0091
 6138TIP3    H139973   2.923   2.812   7.448 -0.4793  2.1707  2.0075
 6138TIP3    H239974   2.863   2.726   7.557 -0.3631 -0.1921  0.2891
 6139TIP3   OH239975   2.121   2.568   2.451  0.3419  0.6089  0.0272
 6139TIP3    H139976   2.107   2.483   2.409 -2.7605  0.8763  0.2331
 6139TIP3    H239977   2.049   2.622   2.418  0.9017  2.4372  1.6435
 6140TIP3   OH239978   1.767   1.166   8.027  0.2570 -0.5493 -0.5979
 6140TIP3    H139979   1.726   1.252   8.033  2.1187  0.4628 -1.5464
 6140TIP3    H239980   1.694   1.105   8.015 -1.0582  0.9350 -0.4419
 6141TIP3   OH239981   0.929   3.218   8.614  0.1903 -0.1978  0.1300
 6141TIP3    H139982   0.841   3.182   8.619 -0.0656  0.5309  0.9968
 6141TIP3    H239983   0.944   3.229   8.520  0.5332 -3.0863 -0.2616
 6142TIP3   OH239984   3.429   5.169   0.641 -0.1518 -0.5503 -0.5250
 6142TIP3    H139985   3.386   5.202   0.720  1.5600 -1.0496  0.6780
 6142TIP3    H239986   3.473   5.089   0.669  1.4885 -0.1064 -1.6930
 6143TIP3   OH239987   0.845   2.142   7.600 -0.0488  1.0737  0.4468
 6143TIP3    H139988   0.900   2.133   7.678  0.8424  1.4858 -0.1182
 6143TIP3    H239989   0.891   2.205   7.546 -0.3909  0.4095 -0.6464
 6144TIP3   OH239990   0.238   5.652   1.341  0.6609 -0.3426  0.2336
 6144TIP3    H139991   0.210   5.579   1.287  1.1379  0.8688 -1.7280
 6144TIP3    H239992   0.262   5.612   1.425 -2.4018 -1.9806  0.4858
 6145TIP3   OH239993   3.817   6.802   1.245 -0.1745  0.4051  0.2114
 6145TIP3    H139994   3.763   6.757   1.180  0.9729  1.9454 -1.9056
 6145TIP3    H239995   3.848   6.732   1.302 -0.3564 -1.1737 -1.5313
 6146TIP3   OH239996   4.102   6.262   0.793  0.0313 -0.1339 -0.2749
 6146TIP3    H139997   4.118   6.169   0.812 -0.1936 -0.1183 -0.0024
 6146TIP3    H239998   4.006   6.270   0.796  0.0101 -0.0466 -1.0137
 6147TIP3   OH239999   4.237   4.008   2.694  0.0147  0.1825  0.4960
 6147TIP3    H140000   4.265   3.923   2.661 -0.6522 -0.3309  1.1991
 6147TIP3    H240001   4.317   4.060   2.700  0.2914 -0.0682 -0.8630
 6148TIP3   OH240002   4.650   5.891   6.547  0.0284 -0.6314  0.0900
 6148TIP3    H140003   4.580   5.866   6.607  0.4845  0.0958  0.9435
 6148TIP3    H240004   4.629   5.980   6.521 -0.4245 -1.0970 -1.2442
 6149TIP3   OH240005   1.245   0.090   0.515 -0.4335  0.5536  0.3986
 6149TIP3    H140006   1.291   0.061   0.436  0.2519 -0.1094  1.0187
 6149TIP3    H240007   1.232   0.184   0.502  2.0207  1.0034  0.5953
 6150TIP3   OH240008   5.873   1.018   1.599  0.0348 -0.1174  0.1877
 6150TIP3    H140009   5.900   1.082   1.665  2.0796 -0.7845  0.0658
 6150TIP3    H240010   5.863   0.936   1.648 -1.8850  0.0846  0.2202
 6151TIP3   OH240011   2.317   3.878   8.288  0.1584 -0.2218 -0.1059
 6151TIP3    H140012   2.394   3.921   8.326  0.3364 -0.5805 -0.0560
 6151TIP3    H240013   2.267   3.848   8.363  0.8758 -1.5780 -0.1389
 6152TIP3   OH240014   4.010   0.520   6.933 -0.1923  0.2579 -1.0246
 6152TIP3    H140015   4.034   0.516   7.026 -1.6607 -2.8943 -0.6421
 6152TIP3    H240016   3.914   0.522   6.933 -0.2120  1.5401 -2.5322
 6153TIP3   OH240017   5.056   1.401   2.245  0.4315 -0.3788  0.3052
 6153TIP3    H140018   5.104   1.353   2.313  0.6110 -0.5824  0.0390
 6153TIP3    H240019   4.999   1.461   2.293  1.7757  0.6797  0.6327
 6154TIP3   OH240020   2.851   2.495   0.872 -0.0813 -0.1083 -0.1609
 6154TIP3    H140021   2.785   2.552   0.910  0.7554  0.8698 -0.1390
 6154TIP3    H240022   2.819   2.477   0.783 -1.0956 -0.8683  0.3322
 6155TIP3   OH240023   4.520   1.643   8.033 -0.5071 -0.0009 -0.3110
 6155TIP3    H140024   4.514   1.733   8.065  0.6736 -0.0346  0.0426
 6155TIP3    H240025   4.601   1.641   7.983 -1.6549 -0.2870 -2.2683
 6156TIP3   OH240026   2.718   1.775   7.538 -0.0117 -0.5788  0.4664
 6156TIP3    H140027   2.666   1.850   7.509  0.1321 -0.2895  0.9413
 6156TIP3    H240028   2.803   1.787   7.497  0.0149 -0.4722  0.5513
 6157TIP3   OH240029   6.087   4.472   1.107  0.4530 -0.5656 -0.3004
 6157TIP3    H140030   6.171   4.503   1.142 -1.1572  0.6960  2.8803
 6157TIP3    H240031   6.077   4.384   1.143  1.1205 -1.3947 -2.0814
 6158TIP3   OH240032   1.522   4.484   8.458  0.1001 -0.3384 -0.1712
 6158TIP3    H140033   1.454   4.549   8.442  1.1325  0.5616 -1.1361
 6158TIP3    H240034   1.602   4.526   8.426  0.7845 -2.1050 -0.8893
 6159TIP3   OH240035   3.168   4.656   1.986  0.2271  0.4857 -0.0363
 6159TIP3    H140036   3.236   4.589   1.979  1.4777  1.8573 -2.2644
 6159TIP3    H240037   3.203   4.719   2.049 -0.3144 -0.2307  0.9965
 6160TIP3   OH240038   1.138   5.997   7.529 -0.5098 -0.1037  0.1130
 6160TIP3    H140039   1.184   6.069   7.485 -0.6512  1.5392  2.4675
 6160TIP3    H240040   1.208   5.947   7.571 -0.5102 -0.7113 -0.5841
 6161TIP3   OH240041   5.760   2.354   7.144 -0.5957  0.2687  0.3246
 6161TIP3    H140042   5.696   2.333   7.212  1.4797 -1.5645  1.8672
 6161TIP3    H240043   5.788   2.268   7.111 -1.6737  1.1003 -3.0731
 6162TIP3   OH240044   4.048   6.210   1.221  0.2271  0.5795 -0.1936
 6162TIP3    H140045   4.098   6.132   1.195  0.9385  0.3787  1.5820
 6162TIP3    H240046   3.957   6.188   1.203  0.5929  0.1846 -1.6901
 6163TIP3   OH240047   0.540   0.288   1.117 -0.1754 -0.3862  0.4244
 6163TIP3    H140048   0.604   0.226   1.081 -0.0475 -0.1587  0.2557
 6163TIP3    H240049   0.552   0.368   1.065 -1.4792 -0.7441 -0.4823
 6164TIP3   OH240050   0.886   4.407   6.460  0.5424  0.5096  0.6378
 6164TIP3    H140051   0.967   4.451   6.436  0.4126  0.1738 -0.4961
 6164TIP3    H240052   0.817   4.472   6.446  0.4340  0.2201 -0.2675
 6165TIP3   OH240053   6.691   5.232   1.181 -0.2117 -0.2683 -0.1783
 6165TIP3    H140054   6.635   5.211   1.106  1.0326 -0.9205 -0.9480
 6165TIP3    H240055   6.633   5.278   1.241 -1.1682  0.5387 -1.6589
 6166TIP3   OH240056   3.593   3.842   7.934 -0.2297 -0.4238  0.1030
 6166TIP3    H140057   3.502   3.867   7.951 -0.0639  0.5037 -0.3164
 6166TIP3    H240058   3.612   3.879   7.848  0.3966 -1.0378 -0.0281
 6167TIP3   OH240059   3.574   4.918   8.180  0.1614  0.2276 -0.3127
 6167TIP3    H140060   3.574   5.013   8.183  1.9141  0.2465  0.3497
 6167TIP3    H240061   3.550   4.896   8.090 -0.6109  1.2643 -0.3758
 6168TIP3   OH240062   0.931   0.174   6.699 -0.1112 -0.9496  0.1625
 6168TIP3    H140063   0.899   0.264   6.711  0.5807 -0.8619  1.5956
 6168TIP3    H240064   0.991   0.179   6.625  0.1008 -0.1755  0.3793
 6169TIP3   OH240065   3.616   5.291   0.494 -0.3966  0.2854  0.0648
 6169TIP3    H140066   3.571   5.250   0.568 -3.1793  0.4968 -1.3973
 6169TIP3    H240067   3.661   5.366   0.533 -1.0559 -0.0922  1.6565
 6170TIP3   OH240068   4.596   4.752   7.196  0.2967  1.1745 -0.3146
 6170TIP3    H140069   4.528   4.709   7.144 -0.2782  1.0384  0.5424
 6170TIP3    H240070   4.551   4.821   7.243  1.1635  2.6189 -1.4851
 6171TIP3   OH240071   5.749   6.634   2.120 -0.5461  0.2727  0.0261
 6171TIP3    H140072   5.816   6.626   2.187 -1.1246 -1.8597  0.4471
 6171TIP3    H240073   5.797   6.653   2.039  0.7297 -2.1674  0.1263
 6172TIP3   OH240074   1.612   4.373   8.093 -0.6548 -0.3518 -0.2851
 6172TIP3    H140075   1.659   4.290   8.085  1.0407  0.4176  0.9905
 6172TIP3    H240076   1.542   4.354   8.156 -0.6833 -0.9685 -0.4900
 6173TIP3   OH240077   2.373   0.486   0.513  0.1389  0.3892 -0.3501
 6173TIP3    H140078   2.415   0.430   0.448  0.3744 -0.4887  0.5131
 6173TIP3    H240079   2.441   0.547   0.540  0.0260  0.7832 -0.9588
 6174TIP3   OH240080   5.423   0.253   0.270 -0.1333  0.1603 -0.2864
 6174TIP3    H140081   5.435   0.239   0.364  0.7254 -1.4193 -0.5928
 6174TIP3    H240082   5.331   0.280   0.261 -0.3091  0.0179  0.9865
 6175TIP3   OH240083   2.980   0.676   7.388  0.3206 -0.0595  0.1269
 6175TIP3    H140084   2.926   0.750   7.415  0.9767  0.2276  0.6858
 6175TIP3    H240085   3.057   0.716   7.346  0.5651 -0.4324  0.2090
 6176TIP3   OH240086   2.969   5.789   6.802  0.1855  0.3341  0.0696
 6176TIP3    H140087   3.033   5.770   6.734  1.0628  0.0891  0.9416
 6176TIP3    H240088   2.986   5.880   6.827  1.6343 -0.3425  1.7527
 6177TIP3   OH240089   6.379   4.975   6.313 -0.7790 -0.0053  0.2950
 6177TIP3    H140090   6.381   4.959   6.407 -0.8929 -2.5716 -0.0648
 6177TIP3    H240091   6.290   4.949   6.286 -0.6341  0.3429 -0.5603
 6178TIP3   OH240092   1.248   4.372   0.395  0.0598 -0.3058 -0.1973
 6178TIP3    H140093   1.250   4.374   0.491  1.0300 -0.1872 -0.2107
 6178TIP3    H240094   1.156   4.384   0.373 -0.3348 -1.4559  0.7438
 6179TIP3   OH240095   6.140   3.572   6.938  0.0774  0.1432 -0.0575
 6179TIP3    H140096   6.125   3.531   7.023  1.0936  0.2769  0.1982
 6179TIP3    H240097   6.224   3.618   6.948  0.3101 -0.0061 -1.1824
 6180TIP3   OH240098   6.666   3.974   1.533  0.6025  0.1040  0.0406
 6180TIP3    H140099   6.744   3.939   1.576  0.9450 -0.9691 -1.4051
 6180TIP3    H240100   6.670   4.068   1.549  0.8083 -0.2187  2.1764
 6181TIP3   OH240101   1.284   5.436   7.203 -0.6069 -0.3504 -0.0667
 6181TIP3    H140102   1.316   5.346   7.210  0.4971  0.0677  0.4410
 6181TIP3    H240103   1.287   5.456   7.110 -1.3388 -0.9900 -0.2433
 6182TIP3   OH240104   4.455   5.297   2.421  0.2443  0.1412  0.1681
 6182TIP3    H140105   4.420   5.385   2.408 -1.8391 -0.7787 -0.8229
 6182TIP3    H240106   4.381   5.238   2.405  1.8799 -1.8785 -0.4926
 6183TIP3   OH240107   0.017   6.750   8.295  0.3070 -0.0556 -0.1467
 6183TIP3    H140108   0.058   6.825   8.253  0.5218 -0.0605  0.0529
 6183TIP3    H240109  -0.043   6.789   8.359 -0.0650 -0.0476 -0.4917
 6184TIP3   OH240110   5.640   5.233   7.968  0.7341 -0.2637  0.0393
 6184TIP3    H140111   5.585   5.251   8.044 -0.2827 -1.1480 -0.4638
 6184TIP3    H240112   5.697   5.161   7.996  0.7796 -0.1795  0.1616
 6185TIP3   OH240113   4.277   3.753   2.576  0.1742 -0.5876  0.1446
 6185TIP3    H140114   4.368   3.753   2.546 -0.2617  0.1308 -1.3179
 6185TIP3    H240115   4.232   3.695   2.514 -0.5722  0.0724  0.0462
 6186TIP3   OH240116   0.690   3.557   0.400  0.3703 -0.0013  0.1174
 6186TIP3    H140117   0.740   3.638   0.390  1.2604 -0.5093  0.3006
 6186TIP3    H240118   0.675   3.550   0.495 -0.8208  0.5889 -0.0147
 6187TIP3   OH240119   3.973   5.410   0.222  0.5190  0.0450 -0.1707
 6187TIP3    H140120   4.034   5.435   0.154  0.8197  0.0250  0.0901
 6187TIP3    H240121   3.924   5.490   0.242 -0.1381 -0.1380 -0.9791
 6188TIP3   OH240122   2.600   1.542   8.301  0.0252  0.9220  0.3155
 6188TIP3    H140123   2.665   1.573   8.238 -0.0698 -1.0189 -0.7984
 6188TIP3    H240124   2.650   1.489   8.363 -0.3310  0.3019  0.0771
 6189TIP3   OH240125   5.461   6.028   0.577 -0.1540 -0.0394 -0.2491
 6189TIP3    H140126   5.423   5.957   0.628 -1.7178  0.7500 -0.2525
 6189TIP3    H240127   5.512   5.984   0.509 -2.7144 -1.2709 -1.5194
 6190TIP3   OH240128   4.651   1.513   0.902  0.0169 -0.1914  0.1337
 6190TIP3    H140129   4.743   1.527   0.925 -0.3005 -0.0704  1.4102
 6190TIP3    H240130   4.603   1.534   0.982 -1.2375  1.0250 -0.9007
 6191TIP3   OH240131   6.212   4.790   2.726  0.2073 -0.1070 -0.5921
 6191TIP3    H140132   6.131   4.837   2.746  0.2894 -0.8857  1.9926
 6191TIP3    H240133   6.255   4.843   2.659 -1.4497  1.4542 -0.5032
 6192TIP3   OH240134   3.234   5.815   7.103  0.3828  0.3266  0.6665
 6192TIP3    H140135   3.139   5.809   7.111  0.2798  0.8214 -0.0709
 6192TIP3    H240136   3.266   5.733   7.141 -0.5343 -1.4841 -2.1823
 6193TIP3   OH240137   5.222   4.508   8.678 -0.2364 -0.1709 -0.3235
 6193TIP3    H140138   5.287   4.456   8.725  0.8383  1.7704  0.4727
 6193TIP3    H240139   5.138   4.486   8.719  0.2161 -1.1010  0.1208
 6194TIP3   OH240140   0.900   2.536   1.532  0.1753  0.1745  0.4331
 6194TIP3    H140141   0.921   2.449   1.499 -0.6030 -0.2030  0.9086
 6194TIP3    H240142   0.985   2.580   1.539  0.3524  0.6029 -2.8485
 6195TIP3   OH240143   0.965   2.278   2.488 -0.3860 -0.0885 -0.1153
 6195TIP3    H140144   0.948   2.359   2.536 -0.4676  0.8940 -1.7129
 6195TIP3    H240145   0.879   2.235   2.482 -0.7613  0.7581 -1.0474
 6196TIP3   OH240146   5.171   6.403   2.158 -0.2683  0.0936  0.0946
 6196TIP3    H140147   5.078   6.382   2.168 -0.9140  2.5461  0.0050
 6196TIP3    H240148   5.214   6.358   2.231 -1.8397  0.4526  1.2989
 6197TIP3   OH240149   3.959   4.137   8.446 -0.9294 -0.0021 -0.1359
 6197TIP3    H140150   3.938   4.060   8.499  2.2178 -0.0762  1.2071
 6197TIP3    H240151   3.984   4.204   8.509  3.9113 -0.3828 -1.2859
 6198TIP3   OH240152   1.224   1.175   0.579 -0.2121 -0.2490  0.2965
 6198TIP3    H140153   1.237   1.268   0.595  0.6605 -0.7272  2.6015
 6198TIP3    H240154   1.154   1.172   0.513 -0.1917  2.0042  0.1075
 6199TIP3   OH240155   4.325   5.642   8.266 -0.8263 -0.3171  0.4372
 6199TIP3    H140156   4.338   5.551   8.293 -0.9996 -0.1552  1.0778
 6199TIP3    H240157   4.377   5.693   8.327  1.7968 -0.1314 -1.7839
 6200TIP3   OH240158   1.021   3.425   1.452  0.4920 -0.2143 -0.0877
 6200TIP3    H140159   1.086   3.460   1.390 -0.6426  2.8215  0.3163
 6200TIP3    H240160   0.977   3.356   1.402 -1.3722  3.0251 -3.3978
 6201TIP3   OH240161   6.853   1.244   7.655 -0.6157 -0.2538 -0.0160
 6201TIP3    H140162   6.917   1.306   7.690 -0.4313 -0.4710  0.0333
 6201TIP3    H240163   6.768   1.283   7.675 -0.4997  0.7273 -1.2917
 6202TIP3   OH240164   2.103   1.753   0.910 -0.5854  0.0276 -0.0543
 6202TIP3    H140165   2.080   1.694   0.838  1.9871 -1.3317  0.1338
 6202TIP3    H240166   2.198   1.747   0.917 -0.3041  3.3240  0.8061
 6203TIP3   OH240167   3.918   3.937   7.040  0.3390  0.1932 -0.1415
 6203TIP3    H140168   3.897   3.882   6.965  0.0887  2.2796 -1.7141
 6203TIP3    H240169   4.003   3.906   7.070 -0.3117 -1.7543 -0.2198
 6204TIP3   OH240170   0.611   3.892   7.002  0.4440  0.0335  0.3944
 6204TIP3    H140171   0.681   3.948   6.968 -1.1152  1.5800 -0.4323
 6204TIP3    H240172   0.573   3.943   7.073 -0.0329 -0.6690  0.6482
 6205TIP3   OH240173   0.767   0.805   7.546 -0.1963 -0.0527  0.7408
 6205TIP3    H140174   0.742   0.770   7.461  0.0655  0.1033  0.5982
 6205TIP3    H240175   0.696   0.865   7.569  1.0297  2.0418 -0.6450
 6206TIP3   OH240176   2.751   4.881   1.428  0.8280 -0.0016 -0.0227
 6206TIP3    H140177   2.693   4.829   1.485  0.9999 -0.5494 -0.3358
 6206TIP3    H240178   2.837   4.839   1.437  1.4800  1.4985  1.3446
 6207TIP3   OH240179   1.340   0.198   6.775  0.4765 -0.0245  0.1100
 6207TIP3    H140180   1.301   0.208   6.862 -0.0595 -2.2506  0.1859
 6207TIP3    H240181   1.333   0.285   6.736 -1.1884  0.5388  1.5096
 6208TIP3   OH240182   5.837   4.879   8.384  0.1989 -0.6714 -0.8166
 6208TIP3    H140183   5.886   4.829   8.449  0.9647 -0.6237 -1.3484
 6208TIP3    H240184   5.876   4.856   8.300 -0.0626  0.0846 -1.1617
 6209TIP3   OH240185   3.460   4.203   1.439  0.1302  0.3073  0.6344
 6209TIP3    H140186   3.535   4.189   1.496 -0.3505  0.3490  1.2875
 6209TIP3    H240187   3.399   4.133   1.462  1.0313 -1.3953 -1.7547
 6210TIP3   OH240188   1.349   5.321   1.110 -0.4189 -0.7048 -1.1055
 6210TIP3    H140189   1.277   5.285   1.162 -1.4288 -0.2725 -2.1727
 6210TIP3    H240190   1.397   5.244   1.078 -0.4205 -0.9916 -0.4276
 6211TIP3   OH240191   5.611   6.369   1.054 -0.4825 -0.6871  0.5653
 6211TIP3    H140192   5.668   6.388   0.979 -0.1479 -0.9255  0.7523
 6211TIP3    H240193   5.669   6.326   1.117 -1.1434 -2.1341  0.2389
 6212TIP3   OH240194   3.670   2.150   7.294 -0.2003 -0.8492 -0.1011
 6212TIP3    H140195   3.625   2.072   7.326 -2.4502  0.2319 -0.3785
 6212TIP3    H240196   3.613   2.183   7.223  0.2038  1.4546  0.5516
 6213TIP3   OH240197   1.808   1.406   6.464  0.0744  0.6270 -0.1268
 6213TIP3    H140198   1.729   1.376   6.419  1.6601 -0.5289 -2.3565
 6213TIP3    H240199   1.778   1.429   6.552 -2.7189  0.2916 -0.8735
 6214TIP3   OH240200   6.478   3.159   0.540 -0.5155  0.6097 -0.3158
 6214TIP3    H140201   6.512   3.069   0.540  1.6538  1.3388  1.0440
 6214TIP3    H240202   6.383   3.149   0.547 -0.4035 -1.5667 -1.1467
 6215TIP3   OH240203   6.092   0.289   0.576  0.0570 -0.0579 -0.5369
 6215TIP3    H140204   6.073   0.350   0.505 -1.1094  1.1528  0.7407
 6215TIP3    H240205   6.010   0.241   0.589  0.5866 -1.0332 -0.6955
 6216TIP3   OH240206   2.187   2.476   8.565  0.2136 -0.0074  0.0825
 6216TIP3    H140207   2.244   2.447   8.636 -0.0204  0.9894  0.6938
 6216TIP3    H240208   2.127   2.537   8.606 -2.1711 -1.9705 -0.2789
 6217TIP3   OH240209   2.814   4.720   1.803 -0.9570 -0.5493  0.1763
 6217TIP3    H140210   2.750   4.687   1.740 -1.2914 -0.0777  0.2540
 6217TIP3    H240211   2.899   4.691   1.770 -1.1997 -1.0417 -0.0191
 6218TIP3   OH240212   6.582   4.672   0.229  0.3446  0.4916  0.2191
 6218TIP3    H140213   6.581   4.631   0.142 -3.0912 -0.8980  0.7738
 6218TIP3    H240214   6.507   4.634   0.275  0.6395  2.9199  3.0085
 6219TIP3   OH240215   4.131   0.344   0.812  0.0576 -0.3965 -0.5397
 6219TIP3    H140216   4.042   0.360   0.844  0.4270 -0.3791  0.5396
 6219TIP3    H240217   4.187   0.375   0.883  0.8938 -1.8738 -0.5076
 6220TIP3   OH240218   3.173   0.081   0.405 -0.0576  0.1175  0.3326
 6220TIP3    H140219   3.220   0.131   0.339 -1.4219  0.5637 -0.3276
 6220TIP3    H240220   3.091   0.128   0.417 -0.9702 -1.4333  0.3978
 6221TIP3   OH240221   3.027   0.505   6.255  0.6549 -0.2703 -0.5329
 6221TIP3    H140222   3.002   0.535   6.342 -0.8361 -0.7436 -0.7683
 6221TIP3    H240223   3.081   0.576   6.220 -0.6549  0.9784 -0.1083
 6222TIP3   OH240224   1.291   1.062   1.298  0.5053  0.0873  0.8208
 6222TIP3    H140225   1.351   1.015   1.356 -0.3747 -0.5113  1.2739
 6222TIP3    H240226   1.335   1.065   1.213  1.8507  1.0420  1.5142
 6223TIP3   OH240227   6.200   4.749   6.425 -0.2169  0.1691 -0.0748
 6223TIP3    H140228   6.247   4.808   6.485  0.4613  1.3377 -1.6687
 6223TIP3    H240229   6.244   4.665   6.435 -1.5114 -0.2771  2.6158
 6224TIP3   OH240230   4.992   0.143   7.039 -0.0783  0.8081 -0.0765
 6224TIP3    H140231   4.914   0.199   7.040 -1.2527 -0.7347  1.4765
 6224TIP3    H240232   4.960   0.058   7.009  0.9485  0.1026  0.7296
 6225TIP3   OH240233   5.221   0.913   6.149  0.2028 -0.2377 -0.1033
 6225TIP3    H140234   5.230   0.845   6.216  0.6324 -0.0705  0.0208
 6225TIP3    H240235   5.306   0.913   6.104 -0.2946 -0.7534 -1.0496
 6226TIP3   OH240236   6.658   3.705   0.254  0.5325  0.1886  0.2182
 6226TIP3    H140237   6.627   3.760   0.326 -1.3350 -1.4738  0.7856
 6226TIP3    H240238   6.595   3.721   0.183 -1.8141 -3.0595  1.3057
 6227TIP3   OH240239   0.180   5.413   1.210 -0.3092 -0.6615  0.4988
 6227TIP3    H140240   0.245   5.381   1.148  0.0785  0.1861  0.4531
 6227TIP3    H240241   0.172   5.343   1.276  0.2128 -1.0141  0.1855
 6228TIP3   OH240242   2.655   2.213   1.396 -0.2210  0.3475  0.2310
 6228TIP3    H140243   2.734   2.194   1.346  0.3924  0.6938  1.0292
 6228TIP3    H240244   2.677   2.292   1.445 -1.0578  0.4313  0.4841
 6229TIP3   OH240245   6.466   0.282   8.662 -0.1533  0.3045 -0.2872
 6229TIP3    H140246   6.541   0.297   8.720  0.2484  0.3831 -0.8166
 6229TIP3    H240247   6.447   0.368   8.624 -1.4010  0.5723  0.8828
 6230TIP3   OH240248   0.803   3.656   0.761 -0.2119 -0.2649 -0.3927
 6230TIP3    H140249   0.875   3.672   0.700  0.5656 -0.2428  0.5058
 6230TIP3    H240250   0.755   3.582   0.723  0.5540 -0.5786 -0.7670
 6231TIP3   OH240251   2.713   2.463   7.738  0.5288  0.0218 -0.7677
 6231TIP3    H140252   2.686   2.377   7.708  0.3721 -0.4899  0.7569
 6231TIP3    H240253   2.691   2.522   7.666 -0.8618 -0.9736 -1.1923
 6232TIP3   OH240254   0.693   0.407   8.411  0.2958  0.0405  0.2408
 6232TIP3    H140255   0.620   0.382   8.354  0.3725 -1.4189  0.7440
 6232TIP3    H240256   0.658   0.476   8.467 -0.5478 -0.3028  0.1423
 6233TIP3   OH240257   6.199   0.510   8.420 -0.2552 -0.2073  0.3360
 6233TIP3    H140258   6.276   0.509   8.364 -0.3351 -0.4351  0.2293
 6233TIP3    H240259   6.232   0.538   8.506  0.0841 -1.0617  0.4890
 6234TIP3   OH240260   4.741   0.908   6.547 -0.1538  0.4338 -0.0383
 6234TIP3    H140261   4.741   0.868   6.459  0.2582 -0.0097  0.1560
 6234TIP3    H240262   4.829   0.891   6.580 -0.2186  0.8531  0.3507
 6235TIP3   OH240263   4.384   2.574   7.869  0.3905 -0.2226 -0.0377
 6235TIP3    H140264   4.300   2.532   7.852  0.4878 -0.8670  0.9978
 6235TIP3    H240265   4.366   2.668   7.863 -0.2267 -0.3704 -0.5646
 6236TIP3   OH240266   6.452   5.761   2.441  0.2921 -0.2766 -0.3722
 6236TIP3    H140267   6.389   5.813   2.490  0.1002 -0.2838 -0.6110
 6236TIP3    H240268   6.480   5.818   2.369 -0.6666 -0.8403 -1.2278
 6237TIP3   OH240269   6.337   6.713   1.872 -0.7271 -0.6234 -0.0104
 6237TIP3    H140270   6.405   6.692   1.937  0.2391  2.1503 -0.0124
 6237TIP3    H240271   6.293   6.629   1.857  1.1299 -2.0455  1.7721
 6238TIP3   OH240272   2.776   4.272   7.954  0.0806 -0.4911  0.2002
 6238TIP3    H140273   2.771   4.184   7.917  1.6919 -0.7139  0.4324
 6238TIP3    H240274   2.825   4.322   7.889  0.0403 -0.0198  0.5296
 6239TIP3   OH240275   3.200   0.468   0.130  0.0486 -0.3556 -0.6075
 6239TIP3    H140276   3.167   0.380   0.147  0.2034 -0.3952 -0.5046
 6239TIP3    H240277   3.260   0.486   0.203  0.3162 -0.3198 -0.8308
 6240TIP3   OH240278   5.468   4.265   1.793 -0.2650  0.7589 -0.0479
 6240TIP3    H140279   5.521   4.332   1.751  1.2517  0.1984  0.8858
 6240TIP3    H240280   5.495   4.183   1.752 -0.9967  0.5509 -0.1209
 6241TIP3   OH240281   3.934   3.437   0.262  0.1314 -0.3016  0.5816
 6241TIP3    H140282   3.899   3.501   0.324  1.1232  0.0653  0.7941
 6241TIP3    H240283   3.860   3.415   0.205 -0.2883  0.8691  0.6427
 6242TIP3   OH240284   2.559   4.889   1.171 -0.4106 -0.2751  0.5019
 6242TIP3    H140285   2.505   4.964   1.146 -0.8177 -0.5602  0.5145
 6242TIP3    H240286   2.642   4.927   1.198 -0.6838  0.1832  0.7007
 6243TIP3   OH240287   4.501   6.549   2.220  0.1226 -0.3410  0.3168
 6243TIP3    H140288   4.418   6.536   2.265 -0.0393  0.9700  0.4199
 6243TIP3    H240289   4.477   6.558   2.127 -0.2311  2.8042  0.5945
 6244TIP3   OH240290   5.143   2.421   6.900  0.0861 -0.1954 -0.1291
 6244TIP3    H140291   5.211   2.354   6.908  0.0539 -0.1702  0.4051
 6244TIP3    H240292   5.148   2.450   6.809  0.8660 -0.1127 -0.0642
 6245TIP3   OH240293   0.599   1.392   8.148  0.1827 -0.3737  0.0855
 6245TIP3    H140294   0.523   1.394   8.206 -0.4561  0.2689 -0.7383
 6245TIP3    H240295   0.584   1.316   8.091 -0.7564  0.7093 -1.2024
 6246TIP3   OH240296   4.007   5.663   1.958 -0.0790  0.0718  0.2255
 6246TIP3    H140297   4.062   5.704   2.024  0.3437 -0.2269  0.0655
 6246TIP3    H240298   4.016   5.569   1.974 -1.3114  0.0252  0.8209
 6247TIP3   OH240299   4.359   4.411   2.087 -0.3656  0.6779 -0.3762
 6247TIP3    H140300   4.342   4.459   2.168  0.2159  0.6998 -0.2619
 6247TIP3    H240301   4.379   4.479   2.023 -0.3013  0.6333 -0.4039
 6248TIP3   OH240302   6.755   5.479   1.002 -0.3430  0.3709  0.4871
 6248TIP3    H140303   6.666   5.449   0.986 -0.7600  0.8398  1.7844
 6248TIP3    H240304   6.788   5.422   1.071 -0.5727  1.7798  1.8311
 6249TIP3   OH240305   1.017   0.782   0.546 -0.0574 -0.2115 -0.0707
 6249TIP3    H140306   0.975   0.842   0.608 -2.2854 -2.1847  0.5160
 6249TIP3    H240307   1.069   0.724   0.602 -2.0933 -2.0150  0.0865
 6250TIP3   OH240308   1.626   1.886   1.458 -0.3130 -0.1894 -0.2961
 6250TIP3    H140309   1.562   1.956   1.470  0.8946  0.8388  0.4320
 6250TIP3    H240310   1.707   1.920   1.497  0.0066 -2.4815  1.2990
 6251TIP3   OH240311   0.751   5.769   1.442 -0.2033 -0.0908  0.2702
 6251TIP3    H140312   0.819   5.793   1.505  0.7340  0.4973 -0.9257
 6251TIP3    H240313   0.685   5.838   1.450  0.1669  0.2708  0.2490
 6252TIP3   OH240314   1.147   5.256   0.142 -0.0137 -0.2756 -0.6710
 6252TIP3    H140315   1.137   5.161   0.154  0.8956 -0.2052  1.0073
 6252TIP3    H240316   1.064   5.285   0.104 -0.3297 -1.7204 -1.1524
 6253TIP3   OH240317   5.108   4.213   1.351 -0.8666 -0.1225  0.6461
 6253TIP3    H140318   5.013   4.216   1.334 -0.8944 -0.3016  0.7671
 6253TIP3    H240319   5.147   4.262   1.278 -1.0173 -0.4772  0.3208
 6254TIP3   OH240320   0.126   3.003   1.681 -0.1144  0.4368 -0.2975
 6254TIP3    H140321   0.154   2.992   1.772 -3.4147 -0.6690  0.7514
 6254TIP3    H240322   0.152   2.921   1.638 -2.0245 -0.8259  0.7968
 6255TIP3   OH240323   1.701   1.405   7.697 -0.2584  0.6380 -0.0508
 6255TIP3    H140324   1.636   1.345   7.659 -0.1531  1.0707 -0.9290
 6255TIP3    H240325   1.716   1.471   7.629  0.6086  0.9211  0.4003
 6256TIP3   OH240326   0.644   5.476   7.164  0.4656 -0.2119 -0.2655
 6256TIP3    H140327   0.728   5.510   7.194  0.1749 -0.4063  0.8103
 6256TIP3    H240328   0.643   5.494   7.070  2.0806 -0.9699 -0.4671
 6257TIP3   OH240329   3.358   0.754   1.970 -0.0026 -0.0554 -0.1686
 6257TIP3    H140330   3.319   0.669   1.994 -1.2633  0.1009 -1.4719
 6257TIP3    H240331   3.332   0.812   2.041  0.1867 -0.5771  0.3408
 6258TIP3   OH240332   1.092   5.325   7.032  0.3071 -0.0462  0.9588
 6258TIP3    H140333   1.094   5.378   6.952 -1.8750 -2.4029 -0.8178
 6258TIP3    H240334   1.175   5.276   7.031 -0.0703 -0.6967 -0.3879
 6259TIP3   OH240335   3.830   4.076   7.659 -0.1876  0.1185  0.2353
 6259TIP3    H140336   3.842   4.095   7.752 -0.0198  1.2155  0.0086
 6259TIP3    H240337   3.918   4.070   7.624 -0.2529  0.3063  0.0365
 6260TIP3   OH240338   6.086   3.805   0.855 -0.1295 -0.3545 -0.0587
 6260TIP3    H140339   6.026   3.832   0.925 -0.6334 -1.1801 -0.1526
 6260TIP3    H240340   6.029   3.762   0.790  0.5283 -0.9542 -0.2576
 6261TIP3   OH240341   4.415   1.487   1.094 -0.4103  0.2983  0.2948
 6261TIP3    H140342   4.368   1.445   1.167 -0.9347  1.7020  0.8090
 6261TIP3    H240343   4.354   1.553   1.062  0.2610  0.4527 -0.6929
 6262TIP3   OH240344   3.932   2.070   0.300  0.2977 -0.0316 -0.2082
 6262TIP3    H140345   3.956   1.980   0.322  0.5112 -0.0569 -0.5326
 6262TIP3    H240346   4.002   2.124   0.336  0.1607  0.0082  0.0019
 6263TIP3   OH240347   0.126   3.831   7.301  0.6907 -0.9784  0.3447
 6263TIP3    H140348   0.158   3.789   7.221 -1.3191 -0.6308 -0.7059
 6263TIP3    H240349   0.062   3.769   7.337 -0.1184 -0.1416  0.3884
 6264TIP3   OH240350   5.209   4.561   1.817  0.2612 -0.2963  0.5010
 6264TIP3    H140351   5.299   4.589   1.806 -0.0034  0.0814 -0.8137
 6264TIP3    H240352   5.216   4.475   1.859  1.2419 -0.3811  0.1941
 6265TIP3   OH240353   4.203   1.285   6.541 -0.1548  0.5043  0.2419
 6265TIP3    H140354   4.269   1.220   6.516 -2.5248 -2.4717  1.1058
 6265TIP3    H240355   4.192   1.339   6.463  0.2794 -1.6929 -1.4441
 6266TIP3   OH240356   4.798   1.842   1.071 -0.2341  0.6636  0.0455
 6266TIP3    H140357   4.708   1.821   1.096 -0.1003  1.5780  1.3856
 6266TIP3    H240358   4.838   1.757   1.053 -1.2132  0.2082 -0.0237
 6267TIP3   OH240359   3.303   6.775   2.241  0.0688 -0.8416 -0.3298
 6267TIP3    H140360   3.254   6.796   2.161 -0.2380 -1.5125 -0.3260
 6267TIP3    H240361   3.249   6.709   2.285 -0.9046  1.0659  1.5581
 6268TIP3   OH240362   2.349   0.743   0.188  0.4382  0.4567  0.7343
 6268TIP3    H140363   2.286   0.750   0.116  1.7121  0.8515 -0.3708
 6268TIP3    H240364   2.301   0.696   0.257 -0.7493 -0.1116 -0.4294
 6269TIP3   OH240365   1.956   1.693   7.767 -0.2107  0.1988  0.1698
 6269TIP3    H140366   1.954   1.615   7.823 -2.5150 -0.3479 -0.5915
 6269TIP3    H240367   2.016   1.669   7.696 -0.4018 -0.6448  0.2778
 6270TIP3   OH240368   1.309   0.675   7.414  0.5524 -0.4135  0.1748
 6270TIP3    H140369   1.368   0.607   7.448 -0.7665 -0.5491  2.3249
 6270TIP3    H240370   1.247   0.626   7.359 -1.6645 -1.4413  3.3189
 6271TIP3   OH240371   5.822   1.742   8.409  0.2832 -0.1671 -0.3085
 6271TIP3    H140372   5.855   1.690   8.483  0.1858 -0.9958 -0.8306
 6271TIP3    H240373   5.892   1.806   8.392  0.6260 -0.4443  0.0388
 6272TIP3   OH240374   0.476   4.024   1.205  0.6369 -0.0248 -0.2662
 6272TIP3    H140375   0.494   4.082   1.279 -0.8675  0.4390 -0.2156
 6272TIP3    H240376   0.495   4.077   1.127  2.7022 -0.6789 -0.2417
 6273TIP3   OH240377   0.853   4.220   7.115  0.4674 -0.1861 -0.1107
 6273TIP3    H140378   0.925   4.267   7.072  0.8662 -1.6571 -1.1331
 6273TIP3    H240379   0.830   4.151   7.053 -2.2412  0.5862 -0.0660
 6274TIP3   OH240380   6.592   0.392   2.093 -0.5203  0.3409 -0.8103
 6274TIP3    H140381   6.618   0.482   2.074 -0.5710  0.7025  0.7210
 6274TIP3    H240382   6.588   0.388   2.188 -0.5027 -1.2939 -0.8572
 6275TIP3   OH240383   4.207   6.827   0.482  0.4596 -0.2444 -0.5724
 6275TIP3    H140384   4.281   6.852   0.538  0.9622  0.3279 -1.4585
 6275TIP3    H240385   4.180   6.909   0.440 -0.2048 -0.5799 -0.8136
 6276TIP3   OH240386   3.663   1.159   0.109 -0.2143  0.4860 -0.2625
 6276TIP3    H140387   3.709   1.143   0.027  0.2104  1.7200 -0.2858
 6276TIP3    H240388   3.684   1.083   0.164  0.1078  0.0217 -1.0146
 6277TIP3   OH240389   5.417   0.612   8.631 -0.2524 -0.0731  0.2683
 6277TIP3    H140390   5.331   0.641   8.601  0.1537 -0.2613 -1.1369
 6277TIP3    H240391   5.479   0.651   8.570  0.7217  0.5162  1.6021
 6278TIP3   OH240392   1.503   4.058   8.266 -0.0068  0.2642  0.2661
 6278TIP3    H140393   1.569   4.119   8.234 -1.2489  1.2268 -0.5810
 6278TIP3    H240394   1.548   3.973   8.272  1.5837  1.1142  0.8533
 6279TIP3   OH240395   2.421   0.590   1.335 -0.0212  0.0734 -0.8172
 6279TIP3    H140396   2.455   0.621   1.419 -0.2307 -0.0556 -0.6820
 6279TIP3    H240397   2.423   0.666   1.278  1.9459 -0.2909 -1.2751
 6280TIP3   OH240398   2.721   0.016   7.022  0.3994 -0.2551 -0.1048
 6280TIP3    H140399   2.782   0.071   6.973  1.3945 -0.5333  0.7914
 6280TIP3    H240400   2.761  -0.071   7.022 -0.2933 -0.5820 -0.0101
 6281TIP3   OH240401   3.558   5.045   0.394 -0.0339  0.4156  0.1177
 6281TIP3    H140402   3.614   5.055   0.317 -0.4290 -0.3259 -0.2785
 6281TIP3    H240403   3.549   5.133   0.429 -1.7291  1.2147 -2.0362
 6282TIP3   OH240404   5.606   6.766   7.099 -0.1841  0.6552 -0.4732
 6282TIP3    H140405   5.651   6.700   7.152  1.0756  0.5047 -1.6820
 6282TIP3    H240406   5.540   6.718   7.051 -0.2205  0.5175 -0.2869
 6283TIP3   OH240407   0.497   1.105   1.873  0.4486  0.7324  0.3775
 6283TIP3    H140408   0.441   1.090   1.949  0.6135  0.1130  0.3783
 6283TIP3    H240409   0.545   1.185   1.895 -0.1928  1.0815  0.5180
 6284TIP3   OH240410   2.814   2.197   7.066 -0.1159  0.0559  0.3583
 6284TIP3    H140411   2.791   2.198   6.973  2.1998  0.7343 -0.2974
 6284TIP3    H240412   2.800   2.287   7.095 -1.5517 -0.3188  0.9098
 6285TIP3   OH240413   6.322   0.210   7.171 -0.3165 -0.2547  0.4473
 6285TIP3    H140414   6.231   0.199   7.198 -0.4631  2.1919  1.1276
 6285TIP3    H240415   6.322   0.288   7.116  1.4606  0.1026  0.8958
 6286TIP3   OH240416   3.575   1.147   1.387 -0.1397  0.1614 -0.1008
 6286TIP3    H140417   3.481   1.160   1.375 -0.4038 -1.5630 -0.2162
 6286TIP3    H240418   3.599   1.085   1.318  1.0596  0.4759  0.0121
 6287TIP3   OH240419   5.183   4.300   2.444 -0.4362 -0.0821 -0.0832
 6287TIP3    H140420   5.234   4.246   2.504  0.4688 -1.2978 -1.8521
 6287TIP3    H240421   5.212   4.389   2.461  0.7059 -0.5379  0.4272
 6288TIP3   OH240422   3.542   4.361   7.229  0.4232  0.3031  0.0796
 6288TIP3    H140423   3.517   4.355   7.137  0.9721  0.4895 -0.0888
 6288TIP3    H240424   3.637   4.349   7.229  0.1819 -2.2118  0.8616
 6289TIP3   OH240425   0.158   0.699   7.640  0.3910 -0.3291  0.0691
 6289TIP3    H140426   0.208   0.774   7.673  0.0055  0.0195 -0.1256
 6289TIP3    H240427   0.067   0.728   7.643  0.2719 -0.6499 -0.3814
 6290TIP3   OH240428   4.678   5.926   6.948  0.1946 -0.2063 -0.2513
 6290TIP3    H140429   4.750   5.874   6.912  0.4939 -2.2164  2.8241
 6290TIP3    H240430   4.619   5.941   6.874  1.8957 -1.8248 -2.0503
 6291TIP3   OH240431   3.710   4.245   1.542  0.2756  0.7487 -0.4660
 6291TIP3    H140432   3.710   4.321   1.600  0.3361  0.9727 -0.7560
 6291TIP3    H240433   3.802   4.218   1.539  0.2180  0.5055 -0.1633
 6292TIP3   OH240434   3.556   3.143   1.438 -0.0098  0.1466 -0.4071
 6292TIP3    H140435   3.492   3.175   1.502  0.4180 -1.4068  0.8587
 6292TIP3    H240436   3.512   3.068   1.397 -0.3487  1.2187 -2.1278
 6293TIP3   OH240437   6.160   0.210   8.669  0.1070  0.2082 -0.8256
 6293TIP3    H140438   6.172   0.119   8.642 -1.8181 -0.7730  1.2503
 6293TIP3    H240439   6.242   0.232   8.713 -0.9152 -2.3183  2.8980
 6294TIP3   OH240440   3.591   4.290   7.754  0.1041 -0.0137 -0.2025
 6294TIP3    H140441   3.634   4.313   7.836 -1.9995  0.4288  0.8422
 6294TIP3    H240442   3.649   4.225   7.714  1.8690  0.7919  0.9400
 6295TIP3   OH240443   4.463   1.357   7.801 -0.1567  0.1063 -0.6050
 6295TIP3    H140444   4.393   1.297   7.776  1.9842 -2.8071 -0.1272
 6295TIP3    H240445   4.470   1.346   7.896  1.0418  0.2061 -0.6705
 6296TIP3   OH240446   2.594   0.957   8.274 -0.2832 -0.2451  0.3148
 6296TIP3    H140447   2.550   1.014   8.211  0.9471  2.3914  1.6809
 6296TIP3    H240448   2.665   0.916   8.225 -1.6495 -1.2955 -0.8785
 6297TIP3   OH240449   4.074   3.516   1.659  0.0951  0.0739  0.3432
 6297TIP3    H140450   4.002   3.576   1.639  0.4352  0.8753  1.4604
 6297TIP3    H240451   4.052   3.480   1.745  0.4525 -0.5769  0.1727
 6298TIP3   OH240452   0.328   5.952   8.399 -0.4932 -0.2422  0.8342
 6298TIP3    H140453   0.387   6.024   8.424 -0.6055 -0.1351  0.7932
 6298TIP3    H240454   0.267   5.992   8.337 -0.5930 -0.3592  0.8573
 6299TIP3   OH240455   4.078   6.327   1.820 -0.1759 -0.1845 -0.1164
 6299TIP3    H140456   3.993   6.310   1.780 -0.2212 -1.7265  0.5896
 6299TIP3    H240457   4.066   6.307   1.912  0.8083  0.1654  0.1021
 6300TIP3   OH240458   4.911   6.480   7.963 -0.1403 -0.2169 -0.3281
 6300TIP3    H140459   4.862   6.444   8.038  0.2719  0.0939  0.0953
 6300TIP3    H240460   4.857   6.458   7.887 -0.9504  0.1345  0.1366
 6301TIP3   OH240461   5.247   2.300   7.678 -0.2792  0.1849 -0.3543
 6301TIP3    H140462   5.155   2.287   7.654 -0.4731 -0.6444  0.7862
 6301TIP3    H240463   5.246   2.380   7.731 -0.2374  0.5260 -0.8565
 6302TIP3   OH240464   5.533   4.244   7.520 -0.6002  0.5700  0.0668
 6302TIP3    H140465   5.453   4.282   7.485 -0.3639  1.2972  0.3109
 6302TIP3    H240466   5.596   4.249   7.447 -1.0449 -0.9100 -0.4554
 6303TIP3   OH240467   0.130   3.456   0.469  0.1293  0.0514 -0.0728
 6303TIP3    H140468   0.081   3.472   0.388 -0.2638 -0.9746 -0.0513
 6303TIP3    H240469   0.102   3.369   0.497 -0.5556  0.8194  1.7665
 6304TIP3   OH240470   0.117   2.270   7.362 -0.1833 -0.0786  0.1262
 6304TIP3    H140471   0.153   2.253   7.449 -2.5002 -1.4010  0.9100
 6304TIP3    H240472   0.167   2.213   7.303  1.6769  1.1223  0.4426
 6305TIP3   OH240473   4.016   2.467   8.289  0.9418 -0.4804 -0.6899
 6305TIP3    H140474   3.933   2.512   8.304  0.8651 -1.0612  0.7253
 6305TIP3    H240475   4.012   2.439   8.197  0.1232  0.5917 -0.9965
 6306TIP3   OH240476   1.726   1.824   7.890  0.7675  0.4952 -0.2735
 6306TIP3    H140477   1.786   1.838   7.963  1.5372  3.3443 -1.3298
 6306TIP3    H240478   1.782   1.802   7.816  0.2439  0.2256 -0.5941
 6307TIP3   OH240479   3.636   3.445   6.754 -0.3416  0.1634  0.3152
 6307TIP3    H140480   3.642   3.536   6.724 -0.6317 -0.1600 -0.7692
 6307TIP3    H240481   3.704   3.399   6.705 -1.7171 -0.6412 -0.8906
 6308TIP3   OH240482   0.445   4.561   1.743 -0.1753  0.0786 -0.3884
 6308TIP3    H140483   0.539   4.569   1.733  0.2636  0.6512  2.9115
 6308TIP3    H240484   0.428   4.467   1.733  1.0935 -0.3152  0.7834
 6309TIP3   OH240485   4.894   6.776   6.855  0.4287 -0.3362  0.2827
 6309TIP3    H140486   4.845   6.831   6.794  0.2202  0.5771  1.2358
 6309TIP3    H240487   4.828   6.742   6.915  0.7605 -0.3426  0.6518
 6310TIP3   OH240488   5.592   6.787   7.977  0.8311  0.4202 -0.0857
 6310TIP3    H140489   5.526   6.852   7.999  1.5643  0.9995  0.4883
 6310TIP3    H240490   5.674   6.836   7.977  1.6075 -0.7366  1.7935
 6311TIP3   OH240491   5.633   4.367   0.345  0.4500  0.6113 -0.2274
 6311TIP3    H140492   5.567   4.309   0.308  2.0120 -0.6547 -1.1546
 6311TIP3    H240493   5.644   4.337   0.435 -1.1812  1.7446  0.4099
 6312TIP3   OH240494   4.745   6.601   8.240 -0.0853 -0.0289  0.5662
 6312TIP3    H140495   4.721   6.536   8.306 -1.5545  1.4080  1.5259
 6312TIP3    H240496   4.682   6.587   8.170 -1.7355  1.5738  1.6395
 6313TIP3   OH240497   4.152   6.570   7.593  0.0234  0.0937 -0.2336
 6313TIP3    H140498   4.123   6.544   7.506  0.4092 -0.5376 -0.1820
 6313TIP3    H240499   4.242   6.601   7.581 -0.4163  1.3947 -0.2858
 6314TIP3   OH240500   0.767   1.880   8.278 -0.6199  0.2421 -0.3357
 6314TIP3    H140501   0.735   1.793   8.255  1.6463 -0.0397 -2.9840
 6314TIP3    H240502   0.829   1.902   8.208  2.0588  2.2304  2.3851
 6315TIP3   OH240503   2.328   3.051   8.565  0.2632 -0.8594  0.4919
 6315TIP3    H140504   2.301   3.074   8.476 -0.6211 -0.0917  0.9482
 6315TIP3    H240505   2.421   3.030   8.557  0.1032 -1.1884 -0.6820
 6316TIP3   OH240506   4.581   3.736   1.719  0.4295  0.0122  0.3255
 6316TIP3    H140507   4.511   3.703   1.775 -0.1464 -1.2140 -1.0329
 6316TIP3    H240508   4.661   3.700   1.756  0.6928  3.1352  3.1562
 6317TIP3   OH240509   1.146   1.054   0.823 -0.0351 -0.2923  0.4738
 6317TIP3    H140510   1.071   0.996   0.808  1.1333 -2.0926  1.2937
 6317TIP3    H240511   1.174   1.079   0.735 -0.4399 -1.1414  0.0895
 6318TIP3   OH240512   3.710   4.373   0.663 -0.3548 -0.0742 -0.1216
 6318TIP3    H140513   3.679   4.461   0.642 -0.5597 -0.4755 -1.6029
 6318TIP3    H240514   3.767   4.386   0.739  2.5823  1.9377 -2.4174
 6319TIP3   OH240515   4.696   3.011   7.851 -0.5911  1.0122 -0.0522
 6319TIP3    H140516   4.701   2.916   7.841  1.6982  0.8667  1.5912
 6319TIP3    H240517   4.616   3.027   7.901 -0.6396 -0.1158  0.2413
 6320TIP3   OH240518   0.666   4.179   2.673 -0.1918  0.2470 -0.0527
 6320TIP3    H140519   0.760   4.177   2.691 -0.0530  1.0261 -0.6232
 6320TIP3    H240520   0.633   4.252   2.726 -0.6961 -0.7849  1.0844
 6321TIP3   OH240521   4.928   2.060   1.266 -0.1123 -0.4831 -0.1414
 6321TIP3    H140522   4.912   2.080   1.173 -0.1590 -1.6108 -0.3943
 6321TIP3    H240523   4.841   2.052   1.304 -0.1045  1.0131  0.2638
 6322TIP3   OH240524   4.911   1.233   2.081 -0.5024 -0.2003 -0.8028
 6322TIP3    H140525   4.817   1.245   2.095 -0.1974 -0.8702  3.1037
 6322TIP3    H240526   4.950   1.319   2.100 -0.2642  0.2718 -3.0970
 6323TIP3   OH240527   0.596   5.725   0.879  0.0903 -0.4841  0.0957
 6323TIP3    H140528   0.504   5.719   0.905 -0.9789  1.9592 -2.6028
 6323TIP3    H240529   0.636   5.779   0.947 -0.5222 -1.3366  1.1573
 6324TIP3   OH240530   0.809   3.659   2.529  0.0612 -0.0335 -0.5578
 6324TIP3    H140531   0.833   3.750   2.510 -1.0054 -0.1427 -2.7740
 6324TIP3    H240532   0.891   3.611   2.521  0.2866  0.4683 -1.3770
 6325TIP3   OH240533   5.246   2.206   0.935 -0.5064  0.1675 -0.2102
 6325TIP3    H140534   5.210   2.293   0.951  1.1023  0.7204  0.5611
 6325TIP3    H240535   5.194   2.148   0.991 -1.6024  0.6043 -0.7481
 6326TIP3   OH240536   6.402   6.618   2.136 -0.2621 -0.1276 -0.0278
 6326TIP3    H140537   6.354   6.677   2.194 -0.4612 -0.4533  0.1392
 6326TIP3    H240538   6.373   6.530   2.161 -0.5135 -0.2600 -0.7576
 6327TIP3   OH240539   6.576   3.918   2.378 -0.5826 -0.5138  0.0935
 6327TIP3    H140540   6.600   3.843   2.433  0.3614  0.7037  1.3974
 6327TIP3    H240541   6.496   3.952   2.417 -0.9048 -0.7045 -0.3865
 6328TIP3   OH240542   5.116   3.300   8.253  0.4488 -0.3773  0.1455
 6328TIP3    H140543   5.175   3.347   8.312  0.8128  1.2136 -1.3887
 6328TIP3    H240544   5.030   3.308   8.295  0.7813  0.2286  0.7429
 6329TIP3   OH240545   1.165   5.846   0.062 -0.3178 -0.5156 -0.4108
 6329TIP3    H140546   1.114   5.866  -0.017  0.7288 -0.4507 -1.0979
 6329TIP3    H240547   1.247   5.809   0.028  2.4408  4.1556  0.2732
 6330TIP3   OH240548   1.304   4.034   2.265 -0.2579  0.7941 -0.5348
 6330TIP3    H140549   1.351   3.952   2.257  0.5433  1.0494  1.1918
 6330TIP3    H240550   1.219   4.010   2.302  0.3590  0.8174  0.9554
 6331TIP3   OH240551   2.508   2.242   0.128 -0.2384 -0.6317  0.1201
 6331TIP3    H140552   2.476   2.246   0.218  1.0388  0.9860  0.5730
 6331TIP3    H240553   2.491   2.329   0.093  1.0622 -0.6101 -0.5222
 6332TIP3   OH240554   5.179   2.486   1.023  0.3092  0.4447  0.0280
 6332TIP3    H140555   5.122   2.429   1.074  0.9681  0.8928  1.3004
 6332TIP3    H240556   5.135   2.571   1.024 -0.3317  0.1688 -1.2991
 6333TIP3   OH240557   6.226   6.825   8.624 -0.1795  0.0097 -0.2077
 6333TIP3    H140558   6.270   6.783   8.699 -1.8779  1.3778  1.6750
 6333TIP3    H240559   6.158   6.763   8.599 -0.1357 -0.0983 -0.0664
 6334TIP3   OH240560   1.622   1.434   8.080 -0.1259  0.6558 -0.2291
 6334TIP3    H140561   1.555   1.498   8.057  0.5480  1.6310  0.4355
 6334TIP3    H240562   1.666   1.471   8.156  1.6852  0.4513 -1.1096
 6335TIP3   OH240563   0.714   2.681   0.765  0.0629  0.7042 -0.0053
 6335TIP3    H140564   0.697   2.761   0.715  0.3976 -0.1547 -1.5593
 6335TIP3    H240565   0.633   2.665   0.814 -1.8526 -0.4367 -3.2031
 6336TIP3   OH240566   3.386   2.964   1.773  0.5019 -0.1931  0.3798
 6336TIP3    H140567   3.430   2.884   1.805 -0.3604 -1.1877 -0.8081
 6336TIP3    H240568   3.392   3.025   1.846  3.7322 -0.2948  0.3514
 6337TIP3   OH240569   1.734   3.392   0.831 -0.1986 -0.3940 -0.1578
 6337TIP3    H140570   1.783   3.324   0.785  0.9605 -0.6790  1.3995
 6337TIP3    H240571   1.791   3.469   0.828  0.5316 -0.7926  1.8707
 6338TIP3   OH240572   2.031   6.742   7.467  0.3188 -0.0117  0.3119
 6338TIP3    H140573   1.976   6.782   7.534 -1.1454 -0.5013 -0.5476
 6338TIP3    H240574   2.042   6.809   7.401  0.4849 -0.0306  0.3185
 6339TIP3   OH240575   2.701   4.526   1.016  0.5307 -0.1088 -0.2141
 6339TIP3    H140576   2.638   4.462   1.050  0.3547 -0.3307 -0.9581
 6339TIP3    H240577   2.768   4.531   1.084  1.2005 -1.9948 -0.6835
 6340TIP3   OH240578   1.751   6.576   6.898  0.2120  0.1466  0.2814
 6340TIP3    H140579   1.686   6.600   6.832  0.5729 -0.3448 -0.2738
 6340TIP3    H240580   1.835   6.603   6.860  0.2070  2.8644  1.9602
 6341TIP3   OH240581   1.917   1.521   8.624  0.1384  0.1290  0.2849
 6341TIP3    H140582   1.891   1.486   8.709  1.6436  1.1575  1.2198
 6341TIP3    H240583   2.012   1.507   8.621 -0.0382 -1.0785 -1.8183
 6342TIP3   OH240584   4.448   4.947   7.621  0.0035 -0.5894  0.1202
 6342TIP3    H140585   4.531   4.900   7.619 -0.2744 -1.0683 -0.4529
 6342TIP3    H240586   4.386   4.885   7.660  0.1316  0.1423  1.5531
 6343TIP3   OH240587   6.270   0.587   1.597 -0.4283 -0.0144 -0.2417
 6343TIP3    H140588   6.257   0.679   1.574 -0.8217  0.1138  0.4579
 6343TIP3    H240589   6.342   0.587   1.659  0.6466 -0.3631 -1.4419
 6344TIP3   OH240590   4.179   1.237   6.815  0.2327 -0.0909  0.2419
 6344TIP3    H140591   4.241   1.307   6.832  0.3426 -0.5958  2.2099
 6344TIP3    H240592   4.188   1.219   6.722  1.9224  0.8962  0.1677
 6345TIP3   OH240593   1.347   3.735   8.372  0.3341 -0.1399 -0.1981
 6345TIP3    H140594   1.352   3.829   8.358 -0.3039 -0.2334 -1.1107
 6345TIP3    H240595   1.254   3.714   8.361  0.0757 -0.5609  2.1322
 6346TIP3   OH240596   6.026   3.990   2.646 -0.1385  0.0378  0.2587
 6346TIP3    H140597   5.945   3.939   2.649 -0.3498  0.3019 -0.6537
 6346TIP3    H240598   6.095   3.924   2.646 -0.4075 -0.2654 -0.7842
 6347TIP3   OH240599   4.210   0.127   8.632 -0.1896 -0.5521  0.3923
 6347TIP3    H140600   4.172   0.191   8.692 -1.2714 -1.1033  0.3183
 6347TIP3    H240601   4.249   0.061   8.690  1.8263  0.6303  0.4806
 6348TIP3   OH240602   6.539   3.256   7.572 -0.4336 -0.1372  0.2112
 6348TIP3    H140603   6.559   3.312   7.497  1.4671 -0.0944  0.7122
 6348TIP3    H240604   6.489   3.183   7.535  0.6187 -0.2046 -1.1324
 6349TIP3   OH240605   3.254   2.123   7.545  0.0603  0.0489 -0.0749
 6349TIP3    H140606   3.342   2.103   7.513 -0.0422 -0.0542 -0.2954
 6349TIP3    H240607   3.268   2.188   7.613  0.3159 -0.0310 -0.0481
 6350TIP3   OH240608   5.149   2.837   7.706 -0.1075 -0.2276 -0.0680
 6350TIP3    H140609   5.205   2.785   7.649 -0.2327 -0.9881  0.4953
 6350TIP3    H240610   5.060   2.811   7.683 -0.2285  0.5575 -0.5557
 6351TIP3   OH240611   2.825   6.325   0.682  0.1436  0.1881  0.2567
 6351TIP3    H140612   2.853   6.261   0.746  1.2289  0.0910 -0.2939
 6351TIP3    H240613   2.782   6.273   0.613 -1.2826  0.3185  1.0034
 6352TIP3   OH240614   4.129   0.632   0.935  0.7572 -0.3870  0.4985
 6352TIP3    H140615   4.092   0.683   1.006  0.2090  1.0232 -0.7489
 6352TIP3    H240616   4.222   0.656   0.933  0.5996  0.2163  0.2203
 6353TIP3   OH240617   3.723   1.586   0.087 -0.3767 -0.2799 -0.3726
 6353TIP3    H140618   3.784   1.552   0.153 -0.1536 -0.7259 -0.8015
 6353TIP3    H240619   3.650   1.622   0.138  0.9658  1.7871  0.2370
 6354TIP3   OH240620   6.145   3.945   7.344  0.2881  0.0097  0.1899
 6354TIP3    H140621   6.219   3.947   7.404  0.3030  0.2983  0.1653
 6354TIP3    H240622   6.085   3.881   7.381  1.2644 -1.4464 -0.6357
 6355TIP3   OH240623   0.705   3.039   7.603 -0.6652  0.2469 -0.1798
 6355TIP3    H140624   0.672   2.949   7.599  1.8966 -0.7814 -0.2913
 6355TIP3    H240625   0.724   3.054   7.695  2.8074 -0.9965 -0.5421
 6356TIP3   OH240626   0.057   0.925   1.577  0.3508  0.4240  0.1270
 6356TIP3    H140627  -0.003   0.859   1.612  2.6605 -1.8388  0.0603
 6356TIP3    H240628   0.015   1.008   1.599 -1.4591 -0.9772  2.4820
 6357TIP3   OH240629   1.517   2.982   0.798 -0.4302  1.0080 -0.1006
 6357TIP3    H140630   1.428   3.014   0.779 -0.6113  0.6846  0.1842
 6357TIP3    H240631   1.511   2.887   0.785 -0.9538  0.5218  2.8561
 6358TIP3   OH240632   1.404   6.451   7.424 -0.3995  0.4648  0.2945
 6358TIP3    H140633   1.494   6.428   7.399  0.0178  1.9769  0.3030
 6358TIP3    H240634   1.413   6.533   7.472 -1.9779  1.8062 -1.5355
 6359TIP3   OH240635   0.329   1.985   7.631 -0.0848 -0.5679 -0.3559
 6359TIP3    H140636   0.393   1.996   7.561 -0.5575 -0.0520 -0.7137
 6359TIP3    H240637   0.269   1.919   7.600  0.7021 -1.6300  0.3068
 6360TIP3   OH240638   0.073   5.209   8.053  0.2694  0.6480  0.1011
 6360TIP3    H140639   0.088   5.302   8.067  3.0354  0.2691  0.1545
 6360TIP3    H240640   0.136   5.165   8.109 -1.9605 -1.3707  1.2264
 6361TIP3   OH240641   4.550   5.604   1.285  0.1383 -0.0935 -0.0500
 6361TIP3    H140642   4.642   5.579   1.300  0.5170  0.7256 -0.9308
 6361TIP3    H240643   4.544   5.621   1.191  0.0482  3.4340  0.4456
 6362TIP3   OH240644   6.731   5.323   8.596 -0.4145  0.6519  0.3209
 6362TIP3    H140645   6.652   5.272   8.610  0.0278 -0.1431 -0.0147
 6362TIP3    H240646   6.738   5.379   8.673 -0.7398 -0.0162  0.8454
 6363TIP3   OH240647   6.057   2.557   1.341 -0.0655  0.3188 -0.2599
 6363TIP3    H140648   6.123   2.527   1.404 -1.9327  0.7603  2.0580
 6363TIP3    H240649   6.068   2.500   1.265  0.1907 -2.5352  1.7444
 6364TIP3   OH240650   1.270   0.826   0.471  0.3641  0.4431 -0.2855
 6364TIP3    H140651   1.221   0.880   0.409  0.9414  1.9148  0.4902
 6364TIP3    H240652   1.335   0.886   0.508 -1.0655  0.1270  3.0282
 6365TIP3   OH240653   4.645   6.238   0.277  0.1415  0.4816 -0.1049
 6365TIP3    H140654   4.588   6.301   0.232 -0.8396 -0.8698 -0.8051
 6365TIP3    H240655   4.624   6.250   0.370 -0.8075  0.4783 -0.3071
 6366TIP3   OH240656   5.688   4.220   7.287  0.6809 -0.0907  0.6740
 6366TIP3    H140657   5.749   4.152   7.313  0.6354 -1.0224 -1.4553
 6366TIP3    H240658   5.743   4.289   7.249  0.5275 -0.2845  0.0894
 6367TIP3   OH240659   5.952   5.738   0.608 -0.2045  0.0081  0.0617
 6367TIP3    H140660   5.874   5.793   0.599 -0.5204 -0.4400  0.0337
 6367TIP3    H240661   5.918   5.653   0.635  0.3770  0.1806  1.4455
 6368TIP3   OH240662   6.194   1.153   2.133  0.1769  0.0023 -0.0627
 6368TIP3    H140663   6.116   1.179   2.084 -0.7602 -0.6251  1.0556
 6368TIP3    H240664   6.163   1.085   2.193  1.1572  1.0917  1.7555
 6369TIP3   OH240665   5.532   5.033   2.648  0.0561  0.3724  0.2942
 6369TIP3    H140666   5.451   5.072   2.617  0.0703 -0.0346 -0.2635
 6369TIP3    H240667   5.568   4.988   2.572 -0.5036 -1.6435  1.1432
 6370TIP3   OH240668   5.107   3.628   8.353  0.0600  0.1975  0.4913
 6370TIP3    H140669   5.077   3.607   8.441 -1.7600 -0.2546 -0.1938
 6370TIP3    H240670   5.186   3.574   8.341  0.0864 -0.0463  1.6755
 6371TIP3   OH240671   5.693   4.516   8.196  0.6418 -0.0838  0.1342
 6371TIP3    H140672   5.706   4.601   8.155  0.4667 -1.0246 -1.9788
 6371TIP3    H240673   5.782   4.484   8.215  0.6902  1.4060  2.9420
 6372TIP3   OH240674   1.319   3.395   7.169  0.0073  0.6673 -0.1279
 6372TIP3    H140675   1.233   3.354   7.171  1.1560 -1.9197 -0.2930
 6372TIP3    H240676   1.355   3.369   7.084  1.3684  0.7722  0.3998
 6373TIP3   OH240677   0.099   0.529   7.434 -0.4941 -0.0584 -0.3665
 6373TIP3    H140678   0.186   0.491   7.436 -0.4802 -0.0620 -1.0258
 6373TIP3    H240679   0.107   0.611   7.482 -0.4423 -0.6905  0.7580
 6374TIP3   OH240680   5.309   2.489   7.449  0.1523 -0.4357  0.1102
 6374TIP3    H140681   5.371   2.452   7.387  1.2046 -1.3723  1.6664
 6374TIP3    H240682   5.240   2.423   7.457 -0.9240  0.4354 -1.3168
 6375TIP3   OH240683   5.502   3.268   1.673 -0.0810  0.0362 -0.6418
 6375TIP3    H140684   5.560   3.324   1.724 -1.2555  0.2884  0.4525
 6375TIP3    H240685   5.555   3.190   1.655  0.0279 -0.5411  1.9093
 6376TIP3   OH240686   2.025   3.947   0.408 -0.3481 -0.2638 -0.2715
 6376TIP3    H140687   2.054   3.934   0.318  0.5492 -1.0306  0.1040
 6376TIP3    H240688   2.094   3.908   0.462 -0.6911  0.4956  0.7645
 6377TIP3   OH240689   5.015   4.907   6.631  0.1383 -0.0689  0.0013
 6377TIP3    H140690   4.965   4.984   6.603  0.7694  0.3701  0.0728
 6377TIP3    H240691   5.092   4.942   6.675  1.6490 -0.6921 -2.0007
 6378TIP3   OH240692   0.257   4.663   6.825 -0.0353  0.4079 -0.4646
 6378TIP3    H140693   0.181   4.654   6.768 -0.1796  0.0705 -0.2208
 6378TIP3    H240694   0.333   4.647   6.769 -0.1254  1.0523 -0.7790
 6379TIP3   OH240695   3.037   1.819   8.333 -0.1907 -0.8323 -0.8792
 6379TIP3    H140696   3.079   1.834   8.248  0.6081 -1.0676 -0.5362
 6379TIP3    H240697   3.022   1.907   8.369  0.8142 -0.7502 -0.6301
 6380TIP3   OH240698   3.772   5.846   1.974 -0.1480 -0.2459 -0.0247
 6380TIP3    H140699   3.835   5.901   2.022  0.8805 -1.3289 -0.1028
 6380TIP3    H240700   3.803   5.757   1.987 -1.4535 -0.7789 -0.4111
 6381TIP3   OH240701   4.903   2.205   6.658  0.2857  0.0422  0.2396
 6381TIP3    H140702   4.840   2.274   6.679  0.1264 -1.1569  4.5674
 6381TIP3    H240703   4.975   2.251   6.615 -1.4254  2.1943 -0.5613
 6382TIP3   OH240704   0.082   3.002   7.643 -0.5189 -0.2025 -0.6313
 6382TIP3    H140705   0.120   2.915   7.656  0.1180  0.2885  1.0757
 6382TIP3    H240706  -0.012   2.987   7.636 -0.4373 -1.0042 -0.0982
 6383TIP3   OH240707   6.520   5.341   0.929  0.6705 -0.3111  0.9573
 6383TIP3    H140708   6.435   5.323   0.969  1.1902 -2.2700  1.2902
 6383TIP3    H240709   6.549   5.256   0.896  1.2802  0.8197 -1.6264
 6384TIP3   OH240710   5.301   0.613   0.875  0.1914 -0.0362 -0.2191
 6384TIP3    H140711   5.391   0.640   0.891 -0.2276  3.3834 -2.5592
 6384TIP3    H240712   5.248   0.674   0.928 -0.7834 -0.5614 -0.5641
 6385TIP3   OH240713   5.422   4.023   7.182 -0.3614 -0.1124  0.2162
 6385TIP3    H140714   5.350   3.971   7.145  0.3641  0.1684 -1.7234
 6385TIP3    H240715   5.481   3.957   7.220 -1.4039 -0.3707  1.4635
 6386TIP3   OH240716   2.904   3.697   0.671  0.4659 -0.1616 -0.0794
 6386TIP3    H140717   2.894   3.716   0.765 -1.8302 -0.6051 -0.1877
 6386TIP3    H240718   2.815   3.687   0.639  1.2396 -0.7142 -2.1938
 6387TIP3   OH240719   4.606   3.644   0.423 -1.2527 -0.1837  0.1978
 6387TIP3    H140720   4.579   3.694   0.346  0.2189 -2.3565 -1.8529
 6387TIP3    H240721   4.547   3.569   0.426  0.2890 -1.4841 -0.4268
 6388TIP3   OH240722   1.710   5.647   6.725 -0.3240 -0.0506 -0.3858
 6388TIP3    H140723   1.638   5.708   6.708 -1.7344 -1.8307 -1.1786
 6388TIP3    H240724   1.741   5.622   6.638  0.4732 -0.2157 -0.0610
 6389TIP3   OH240725   6.235   0.061   6.885 -0.6132  0.0154 -0.1888
 6389TIP3    H140726   6.220   0.150   6.854 -1.7158 -0.7419 -1.9640
 6389TIP3    H240727   6.211   0.005   6.811 -1.1508 -1.8165  1.2961
 6390TIP3   OH240728   2.476   1.749   1.968  0.3275  0.8412 -0.0370
 6390TIP3    H140729   2.397   1.712   2.007 -0.3789  0.7857 -1.4509
 6390TIP3    H240730   2.527   1.781   2.042  0.4513 -1.9161  1.1788
 6391TIP3   OH240731   6.077   4.309   3.085 -0.1981 -0.3163 -0.5919
 6391TIP3    H140732   6.160   4.313   3.133 -0.4052  1.3877 -0.3056
 6391TIP3    H240733   6.098   4.262   3.004  0.4882 -1.9510  0.4803
 6392TIP3   OH240734   2.821   3.330   7.094 -0.0257 -0.1038 -0.8353
 6392TIP3    H140735   2.889   3.264   7.095 -0.0072 -0.1054  0.7174
 6392TIP3    H240736   2.865   3.411   7.121 -0.7370 -0.2821  1.0690
 6393TIP3   OH240737   1.581   6.614   7.198 -0.3352  0.0086  0.1548
 6393TIP3    H140738   1.644   6.645   7.263  0.1483 -1.0758  0.2283
 6393TIP3    H240739   1.565   6.523   7.221 -1.3939  0.0635 -0.2980
 6394TIP3   OH240740   2.769   0.350   8.200  0.6235  0.2388 -0.4130
 6394TIP3    H140741   2.726   0.346   8.285  0.3364 -0.5071 -0.5811
 6394TIP3    H240742   2.700   0.373   8.138  0.6435 -0.0753 -0.5584
 6395TIP3   OH240743   1.177   5.328   1.648 -0.0478 -0.5786  0.1408
 6395TIP3    H140744   1.110   5.342   1.582  1.6017  0.7091 -1.3559
 6395TIP3    H240745   1.129   5.327   1.731 -1.8291  0.9436 -0.8000
 6396TIP3   OH240746   0.414   5.862   0.005  0.3708 -0.1641 -0.1439
 6396TIP3    H140747   0.394   5.888  -0.084 -1.2234  0.4087  0.3579
 6396TIP3    H240748   0.456   5.776  -0.004 -0.8107 -0.6471 -1.3843
 6397TIP3   OH240749   3.685   1.645   2.269 -0.2592 -0.5361 -0.0074
 6397TIP3    H140750   3.754   1.671   2.330 -0.4663  0.6603 -0.2584
 6397TIP3    H240751   3.650   1.564   2.306  0.4675 -0.5119  0.7725
 6398TIP3   OH240752   2.066   2.098   0.893 -0.2657  0.0612 -0.4258
 6398TIP3    H140753   2.048   2.132   0.805 -1.7533 -0.5530 -0.3981
 6398TIP3    H240754   2.073   2.176   0.948  0.7445  0.4551 -1.0871
 6399TIP3   OH240755   6.430   0.854   6.415  0.3987 -0.3704 -0.3359
 6399TIP3    H140756   6.438   0.759   6.407 -0.8867 -0.6771  1.5026
 6399TIP3    H240757   6.466   0.874   6.501 -2.5345  0.2890  0.8567
 6400TIP3   OH240758   6.534   1.931   8.259  0.6518 -0.1128  1.2398
 6400TIP3    H140759   6.466   1.867   8.234  1.3796  0.2851 -2.1856
 6400TIP3    H240760   6.512   1.954   8.350 -1.9061 -2.3220  1.3241
 6401TIP3   OH240761   6.465   6.632   7.184 -0.0637  1.1294 -0.2107
 6401TIP3    H140762   6.543   6.685   7.201 -1.0202  2.0199  1.7035
 6401TIP3    H240763   6.400   6.664   7.247 -2.2795  1.0231 -2.3019
 6402TIP3   OH240764   4.047   4.941   7.443 -0.7276 -0.3175  0.6255
 6402TIP3    H140765   3.984   4.890   7.493 -0.3987  0.2309  1.6315
 6402TIP3    H240766   4.055   4.895   7.359 -1.9876 -0.7334  0.7141
 6403TIP3   OH240767   4.547   1.761   1.112 -0.2625 -0.0868 -0.1153
 6403TIP3    H140768   4.526   1.781   1.204  1.1389 -0.5331  0.3132
 6403TIP3    H240769   4.478   1.700   1.085 -0.3598 -0.4134  0.8211
 6404TIP3   OH240770   5.291   4.190   7.885  0.0762 -0.2370  0.3406
 6404TIP3    H140771   5.276   4.111   7.936 -0.7140 -0.1759  0.2162
 6404TIP3    H240772   5.255   4.261   7.938  0.1388 -0.0480  0.1351
 6405TIP3   OH240773   5.556   0.169   7.727  0.0703  0.0593  0.0284
 6405TIP3    H140774   5.624   0.128   7.781 -1.4386 -2.3117  0.2512
 6405TIP3    H240775   5.543   0.255   7.767  1.4825 -0.2588  1.2494
 6406TIP3   OH240776   0.803   3.559   1.371 -0.5076 -0.2642  0.8226
 6406TIP3    H140777   0.877   3.502   1.393 -0.7901  0.0672  2.7626
 6406TIP3    H240778   0.728   3.521   1.417 -1.2509  0.2437  0.0672
 6407TIP3   OH240779   0.620   0.583   1.167  0.9284 -0.1083  0.0381
 6407TIP3    H140780   0.646   0.528   1.241  0.8420  0.2209  0.3151
 6407TIP3    H240781   0.626   0.673   1.201  2.3126  0.1432 -0.7829
 6408TIP3   OH240782   5.491   2.008   2.655  0.6094 -0.2214  0.1390
 6408TIP3    H140783   5.561   2.028   2.593  0.2159  1.3567  0.1763
 6408TIP3    H240784   5.425   2.075   2.639  0.4646  0.1874  2.1943
 6409TIP3   OH240785   6.102   2.676   0.419  0.1766 -0.0331  0.0245
 6409TIP3    H140786   6.049   2.754   0.438 -0.8999 -0.9173  0.8112
 6409TIP3    H240787   6.176   2.709   0.368 -0.5437  1.4178 -0.1388
 6410TIP3   OH240788   2.499   5.985   8.608  0.5241 -0.1111  0.5508
 6410TIP3    H140789   2.416   5.938   8.615  0.1799  0.4692  0.3729
 6410TIP3    H240790   2.552   5.948   8.679 -0.0809 -0.0858  1.0283
 6411TIP3   OH240791   1.481   6.571   0.635  0.1279  0.2528 -0.3453
 6411TIP3    H140792   1.557   6.584   0.693 -0.3701 -0.5225  0.5136
 6411TIP3    H240793   1.426   6.648   0.649 -0.1605 -0.0929  0.5095
 6412TIP3   OH240794   2.822   2.127   0.392  0.1850  0.2197  0.1389
 6412TIP3    H140795   2.804   2.145   0.300 -0.5448  1.8894  0.5512
 6412TIP3    H240796   2.810   2.033   0.402 -3.1025  0.4163 -0.8296
 6413TIP3   OH240797   5.039   3.485   1.090  0.1746  0.2127  0.2669
 6413TIP3    H140798   5.040   3.562   1.033  0.2098  0.8693  1.1298
 6413TIP3    H240799   5.131   3.465   1.106  0.1589  0.3939  0.5773
 6414TIP3   OH240800   2.188   3.158   7.751  0.1232 -0.6524 -0.2388
 6414TIP3    H140801   2.201   3.203   7.668  1.4546  2.0486  1.2822
 6414TIP3    H240802   2.169   3.068   7.727 -0.6347  0.2452 -3.4702
 6415TIP3   OH240803   0.761   1.127   6.474  0.3107  0.8745 -0.1769
 6415TIP3    H140804   0.720   1.068   6.411 -1.3837  2.1995 -0.3896
 6415TIP3    H240805   0.847   1.147   6.436  0.5435 -0.6571 -0.5539
 6416TIP3   OH240806   4.941   5.850   7.210  0.5975  0.4155  0.0988
 6416TIP3    H140807   4.904   5.817   7.292 -0.1053  0.7366 -0.0831
 6416TIP3    H240808   4.933   5.945   7.216 -0.5330  0.3967 -0.8323
 6417TIP3   OH240809   1.229   1.265   2.397 -0.1300  0.5442  0.3150
 6417TIP3    H140810   1.192   1.206   2.463 -0.7098  2.4456  1.7773
 6417TIP3    H240811   1.152   1.296   2.348  0.3106 -1.0397 -1.5248
 6418TIP3   OH240812   2.333   0.007   0.028 -0.2569 -0.1408  0.3142
 6418TIP3    H140813   2.369  -0.055   0.092  1.9917  0.4583 -0.3012
 6418TIP3    H240814   2.240  -0.017   0.022  0.2092 -2.4842  1.1933
 6419TIP3   OH240815   6.490   1.247   0.422 -0.5820 -0.1902  0.2558
 6419TIP3    H140816   6.564   1.307   0.404  1.3946 -2.7448 -0.8297
 6419TIP3    H240817   6.463   1.268   0.511  0.9837  1.3407  0.4281
 6420TIP3   OH240818   2.951   4.019   2.104 -0.3829 -0.0426  0.3363
 6420TIP3    H140819   2.977   4.064   2.184  0.3819  0.7916 -0.3569
 6420TIP3    H240820   2.994   3.933   2.110  0.2367  0.2735  0.5114
 6421TIP3   OH240821   2.346   3.438   7.331  0.2109  0.0799 -0.0536
 6421TIP3    H140822   2.348   3.449   7.235 -0.2528 -1.1049 -0.2126
 6421TIP3    H240823   2.431   3.400   7.352  0.4558  0.6756  0.0649
 6422TIP3   OH240824   3.824   3.806   0.832  0.0439  0.0618 -0.1977
 6422TIP3    H140825   3.847   3.729   0.884 -1.2594  0.2953  0.7608
 6422TIP3    H240826   3.883   3.874   0.864  1.7091 -0.6465 -1.5428
 6423TIP3   OH240827   4.314   4.398   7.564  0.3268 -0.3857  0.3703
 6423TIP3    H140828   4.392   4.440   7.529  0.0432 -1.8529 -2.2572
 6423TIP3    H240829   4.241   4.441   7.520 -0.4294  0.7227  2.5265
 6424TIP3   OH240830   3.093   3.874   0.998  0.4503  0.2722 -0.0194
 6424TIP3    H140831   3.138   3.950   1.035  2.5976  0.0173 -1.8514
 6424TIP3    H240832   3.110   3.880   0.904  0.3721 -2.2670 -0.2681
 6425TIP3   OH240833   1.107   5.876   1.326 -0.1366  0.0603 -0.8674
 6425TIP3    H140834   1.047   5.849   1.395  0.0006  0.3703 -0.6245
 6425TIP3    H240835   1.176   5.809   1.328  0.0945  0.3082 -0.4070
 6426TIP3   OH240836   1.507   1.700   6.801 -0.4918  0.1730 -0.1782
 6426TIP3    H140837   1.483   1.771   6.860 -1.5607 -0.1318 -0.2347
 6426TIP3    H240838   1.488   1.734   6.713 -0.9504 -0.1560 -0.2087
 6427TIP3   OH240839   2.053   3.088   0.476 -0.1053  0.5122  0.0270
 6427TIP3    H140840   2.148   3.091   0.467 -0.0425  0.3733  0.6026
 6427TIP3    H240841   2.021   3.061   0.390  0.2884  1.8205 -0.5509
 6428TIP3   OH240842   3.299   0.683   0.664  0.7603  0.5787  0.0455
 6428TIP3    H140843   3.340   0.620   0.722 -1.9006 -2.0703 -0.7114
 6428TIP3    H240844   3.238   0.731   0.720 -2.1054 -2.2510 -0.3993
 6429TIP3   OH240845   4.886   4.198   1.205 -0.7219 -0.4461 -0.2274
 6429TIP3    H140846   4.843   4.114   1.220 -1.8506  0.3980  1.6124
 6429TIP3    H240847   4.818   4.263   1.220  0.3205  0.8332 -0.8432
 6430TIP3   OH240848   2.639   1.104   7.382 -0.3479 -0.6247 -0.4050
 6430TIP3    H140849   2.604   1.076   7.467  1.4186  1.8028  1.2809
 6430TIP3    H240850   2.637   1.025   7.328 -3.0013 -1.9016  1.3276
 6431TIP3   OH240851   0.103   2.251   6.800 -0.2667  0.3472 -0.0819
 6431TIP3    H140852   0.175   2.268   6.739  0.6826 -1.0237  0.6178
 6431TIP3    H240853   0.135   2.181   6.856 -1.4260  1.0309  1.5027
 6432TIP3   OH240854   5.974   3.190   2.095 -0.0804 -0.5706  0.3802
 6432TIP3    H140855   5.943   3.119   2.151  1.7757 -1.2594  0.5810
 6432TIP3    H240856   5.961   3.270   2.147 -0.0272 -1.0145  1.0821
 6433TIP3   OH240857   6.163   5.742   7.968  0.0024 -0.1833 -0.1178
 6433TIP3    H140858   6.203   5.784   8.045 -2.4501  0.2934  1.0027
 6433TIP3    H240859   6.097   5.805   7.939 -1.0057 -1.5617 -0.9058
 6434TIP3   OH240860   5.798   0.726   6.543  0.2272 -0.4566  0.5376
 6434TIP3    H140861   5.788   0.666   6.469  0.2733 -1.6681  1.4778
 6434TIP3    H240862   5.710   0.732   6.581 -0.3719  2.1299 -1.0189
 6435TIP3   OH240863   1.648   4.954   0.845 -0.4261  0.0827 -0.2156
 6435TIP3    H140864   1.710   5.017   0.807 -0.3602  0.5551  0.6464
 6435TIP3    H240865   1.683   4.869   0.820  0.1290  0.3620 -0.4174
 6436TIP3   OH240866   0.663   0.058   8.521 -0.1157 -0.4294  1.2473
 6436TIP3    H140867   0.737   0.081   8.578  1.6910 -0.6506 -0.8801
 6436TIP3    H240868   0.700  -0.003   8.457 -1.2992  1.7266 -1.7512
 6437TIP3   OH240869   0.638   6.136   1.950 -0.2622  0.1743  0.6124
 6437TIP3    H140870   0.666   6.049   1.922  0.6005  0.5689  0.1905
 6437TIP3    H240871   0.598   6.123   2.036  0.6703 -0.5123  0.9499
 6438TIP3   OH240872   0.135   6.112   8.260 -0.2864 -0.5114  0.6185
 6438TIP3    H140873   0.199   6.170   8.218  0.1561 -1.6301 -0.3079
 6438TIP3    H240874   0.107   6.159   8.338 -0.6974  1.3978 -0.6223
 6439TIP3   OH240875   3.024   1.493   0.630 -0.0501  0.0449  0.0326
 6439TIP3    H140876   3.030   1.406   0.590  0.0189  0.1346 -0.1530
 6439TIP3    H240877   3.090   1.545   0.583  1.4270 -0.3500  1.5421
 6440TIP3   OH240878   1.629   1.380   6.973 -0.3235  0.4235  0.0663
 6440TIP3    H140879   1.642   1.411   6.884  0.1540  0.7073  0.2314
 6440TIP3    H240880   1.535   1.389   6.989 -0.4207  0.2994 -0.4306
 6441TIP3   OH240881   5.692   3.346   1.838  1.0753 -0.8063  0.4120
 6441TIP3    H140882   5.712   3.381   1.925 -0.2295 -1.5621  1.0482
 6441TIP3    H240883   5.743   3.401   1.778 -0.8300  2.2241  1.3243
 6442TIP3   OH240884   0.675   1.665   7.260  0.3325  0.3025  0.1729
 6442TIP3    H140885   0.703   1.597   7.198 -0.0975 -0.0786  0.3892
 6442TIP3    H240886   0.668   1.745   7.207  1.9155  0.4379  0.1344
 6443TIP3   OH240887   2.409   0.832   1.170 -0.1835 -0.5177 -0.1557
 6443TIP3    H140888   2.406   0.904   1.233 -0.3021 -1.5494  1.0558
 6443TIP3    H240889   2.398   0.874   1.085 -0.1565  0.9003  0.5168
 6444TIP3   OH240890   2.033   5.365   1.104  0.6879  0.0665 -0.3931
 6444TIP3    H140891   2.061   5.376   1.013 -1.4076 -0.9109 -1.2418
 6444TIP3    H240892   2.045   5.272   1.122 -1.0844 -0.2226 -0.5228
 6445TIP3   OH240893   3.224   6.817   0.754  0.3226 -0.1124 -0.5435
 6445TIP3    H140894   3.144   6.857   0.787  1.7486  0.9342  1.9048
 6445TIP3    H240895   3.271   6.888   0.711  1.1474 -0.0205  0.4678
 6446TIP3   OH240896   0.725   6.395   0.797 -0.1866 -0.1156 -0.1418
 6446TIP3    H140897   0.759   6.483   0.812  2.0757 -0.9885  0.2174
 6446TIP3    H240898   0.722   6.355   0.884  0.1208 -0.8255 -0.4488
 6447TIP3   OH240899   5.014   2.741   0.951  0.1490 -0.6366 -0.3229
 6447TIP3    H140900   4.947   2.711   0.890  0.3842 -1.2217 -0.3036
 6447TIP3    H240901   4.967   2.798   1.013  0.0554  0.6147 -1.5009
 6448TIP3   OH240902   0.846   5.160   1.270 -0.0349  0.0529  0.2037
 6448TIP3    H140903   0.801   5.147   1.353 -1.0281  1.6641 -0.0336
 6448TIP3    H240904   0.776   5.160   1.204  0.2311  2.5585 -0.1803
 6449TIP3   OH240905   1.226   3.845   0.589  0.1453  0.5948  0.0790
 6449TIP3    H140906   1.286   3.908   0.630  0.9335 -0.4705  0.6248
 6449TIP3    H240907   1.280   3.801   0.523 -0.4555  0.6167 -0.4382
 6450TIP3   OH240908   4.423   0.506   8.175  0.4129 -0.0031  0.4752
 6450TIP3    H140909   4.509   0.474   8.203 -0.4819 -2.1577  0.9753
 6450TIP3    H240910   4.387   0.434   8.124 -0.7993  1.1771 -0.3747
 6451TIP3   OH240911   4.011   1.275   1.146  0.3002 -0.7482 -0.4096
 6451TIP3    H140912   4.035   1.189   1.182  1.0395 -0.5456 -0.4126
 6451TIP3    H240913   3.991   1.257   1.054 -0.4840 -1.0737 -0.1858
 6452TIP3   OH240914   1.930   5.092   0.377 -0.0609 -0.0350  0.0492
 6452TIP3    H140915   1.903   5.148   0.450 -0.9338 -1.2589  0.6953
 6452TIP3    H240916   1.901   5.139   0.299  2.6598  2.3104  0.2649
 6453TIP3   OH240917   1.503   3.661   8.580  0.0745  0.2614 -0.1796
 6453TIP3    H140918   1.574   3.725   8.582  0.2558  0.0480  0.7107
 6453TIP3    H240919   1.465   3.669   8.493  1.0257  0.5626 -0.5743
 6454TIP3   OH240920   0.561   1.399   0.319  0.4568 -0.2422 -0.0040
 6454TIP3    H140921   0.530   1.344   0.391  0.9160  1.1502  1.2901
 6454TIP3    H240922   0.501   1.379   0.246 -0.8190 -0.7363  1.1425
 6455TIP3   OH240923   1.604   3.036   7.750 -0.0778 -0.0898 -0.0675
 6455TIP3    H140924   1.679   3.007   7.801  0.4806  1.3475 -0.0248
 6455TIP3    H240925   1.638   3.104   7.692 -1.1307 -0.1699 -0.8184
 6456TIP3   OH240926   2.604   0.646   1.045  0.0628 -0.2342 -0.1185
 6456TIP3    H140927   2.512   0.667   1.062  0.0298 -0.9253  0.5776
 6456TIP3    H240928   2.654   0.706   1.101  0.0379  0.0030 -0.3472
 6457TIP3   OH240929   3.815   6.473   1.263 -0.2825  1.0084 -0.1177
 6457TIP3    H140930   3.808   6.492   1.170  1.2621 -0.0031 -0.4784
 6457TIP3    H240931   3.908   6.454   1.277 -0.5842  0.5203  1.5132
 6458TIP3   OH240932   0.947   4.575   1.884  0.4125  0.1724  0.0949
 6458TIP3    H140933   0.888   4.635   1.929 -0.0425  0.9693 -1.4703
 6458TIP3    H240934   0.956   4.613   1.796  0.1413 -2.0513 -0.9534
 6459TIP3   OH240935   0.300   2.191   7.132  0.3246  0.2143 -0.2981
 6459TIP3    H140936   0.269   2.138   7.058  1.0494  0.1990 -0.5925
 6459TIP3    H240937   0.327   2.273   7.093 -0.1540  0.5596  0.0761
 6460TIP3   OH240938   2.448   4.404   1.143  0.2084  0.9538 -0.1005
 6460TIP3    H140939   2.408   4.485   1.174 -0.6410  0.6353 -0.3485
 6460TIP3    H240940   2.398   4.334   1.185  0.1546  0.5400 -0.8264
 6461TIP3   OH240941   4.429   5.152   1.209 -0.2206  0.4528  0.1207
 6461TIP3    H140942   4.505   5.187   1.255 -0.7646  0.3873  1.0852
 6461TIP3    H240943   4.402   5.223   1.151  0.4880  0.5271 -0.1291
 6462TIP3   OH240944   5.803   6.623   6.500  0.1445  0.2136 -0.1724
 6462TIP3    H140945   5.858   6.600   6.425  0.6262  0.9143 -0.0470
 6462TIP3    H240946   5.770   6.540   6.533  1.4504 -0.2623 -0.0114
 6463TIP3   OH240947   5.550   0.977   0.942  0.5854 -0.0654 -0.1343
 6463TIP3    H140948   5.589   1.021   1.018 -1.9166  1.3992  0.4255
 6463TIP3    H240949   5.472   1.029   0.922 -0.8785 -2.5637 -1.3994
 6464TIP3   OH240950   3.558   0.782   8.004 -0.0902 -0.5431  0.1270
 6464TIP3    H140951   3.490   0.812   8.064  0.1381  0.7585 -0.2340
 6464TIP3    H240952   3.515   0.713   7.953 -0.4118 -1.3669  1.4678
 6465TIP3   OH240953   6.207   6.270   7.154 -0.4296 -0.2225  0.0605
 6465TIP3    H140954   6.270   6.306   7.092 -1.6389 -0.6819 -1.5199
 6465TIP3    H240955   6.223   6.316   7.236  1.8513 -0.2644 -0.3171
 6466TIP3   OH240956   6.259   3.313   2.043 -0.1306 -0.4562 -0.7349
 6466TIP3    H140957   6.185   3.337   1.987 -0.7385 -1.9695 -0.6373
 6466TIP3    H240958   6.238   3.353   2.128  0.1118  0.6848 -1.1934
 6467TIP3   OH240959   0.907   0.734   1.147  0.0081  0.1517 -0.3019
 6467TIP3    H140960   0.997   0.763   1.159 -0.2136  1.2752 -1.1647
 6467TIP3    H240961   0.855   0.801   1.192 -0.4475  0.3060 -1.0411
 6468TIP3   OH240962   1.794   4.480   2.214  0.6686 -0.8152  0.3110
 6468TIP3    H140963   1.885   4.505   2.228  0.6635 -0.7517  0.2320
 6468TIP3    H240964   1.745   4.530   2.278  0.7749 -1.4988  0.9446
 6469TIP3   OH240965   4.900   5.626   7.722 -0.5214  0.2150  0.4999
 6469TIP3    H140966   4.879   5.540   7.758 -1.1138  0.0396 -0.2350
 6469TIP3    H240967   4.977   5.611   7.667 -2.1119 -0.4145 -1.7016
 6470TIP3   OH240968   6.480   1.933   1.624 -0.4202 -0.0943  0.4549
 6470TIP3    H140969   6.520   1.848   1.604  1.2269  0.4535  1.2562
 6470TIP3    H240970   6.466   1.974   1.539 -2.3749 -1.6190 -0.0351
 6471TIP3   OH240971   1.824   5.740   1.703  0.5121 -0.2542 -0.0449
 6471TIP3    H140972   1.798   5.771   1.790  1.4967  0.3278  0.0506
 6471TIP3    H240973   1.745   5.751   1.649  0.7215  2.2705  0.0369
 6472TIP3   OH240974   4.300   4.105   8.064  0.0811  0.7468  0.4411
 6472TIP3    H140975   4.274   4.176   8.005  0.0375  1.6902  1.5637
 6472TIP3    H240976   4.350   4.148   8.134 -0.1370 -0.2916  1.2664
 6473TIP3   OH240977   6.333   5.101   7.457  0.4668  0.2443  0.3231
 6473TIP3    H140978   6.354   5.090   7.364  2.1974  0.6576  0.6311
 6473TIP3    H240979   6.415   5.130   7.497 -0.3077  0.3075  1.9498
 6474TIP3   OH240980   2.845   5.958   7.243 -0.1113  0.4583  0.1933
 6474TIP3    H140981   2.863   5.870   7.207  0.4896  0.4987  0.3778
 6474TIP3    H240982   2.927   5.982   7.287  0.5934  2.0915 -1.8495
 6475TIP3   OH240983   3.431   5.614   2.073 -0.4590 -0.6951 -0.2635
 6475TIP3    H140984   3.520   5.590   2.047 -0.7694 -0.9673 -1.0946
 6475TIP3    H240985   3.399   5.538   2.122 -1.2995 -1.9072 -2.5518
 6476TIP3   OH240986   2.543   1.942   1.173  0.1126  0.3756  0.1978
 6476TIP3    H140987   2.480   1.999   1.130 -0.7009 -0.8709 -0.3405
 6476TIP3    H240988   2.605   1.919   1.104  0.4801  0.6746  0.4303
 6477TIP3   OH240989   6.303   5.571   7.504 -0.4441 -0.3323 -0.6951
 6477TIP3    H140990   6.217   5.586   7.542 -0.6438 -2.9658  0.0688
 6477TIP3    H240991   6.357   5.543   7.578  0.8032  0.2981 -1.3405
 6478TIP3   OH240992   6.305   4.585   7.146  0.8248  0.1489  0.0213
 6478TIP3    H140993   6.248   4.509   7.140 -0.7972  1.3210  0.0586
 6478TIP3    H240994   6.292   4.632   7.064  0.2333  1.4322  0.8206
 6479TIP3   OH240995   4.059   2.360   6.942 -0.3647 -0.1298 -0.1310
 6479TIP3    H140996   4.081   2.326   6.855  1.8094 -3.0159  1.4177
 6479TIP3    H240997   4.138   2.407   6.970 -1.1635  1.0540  0.2360
 6480TIP3   OH240998   2.997   4.093   1.240  0.4281 -0.0008 -0.0988
 6480TIP3    H140999   2.939   4.117   1.168 -0.1488 -1.8216 -0.2757
 6480TIP3    H241000   3.082   4.130   1.214 -0.3252  1.6150 -0.4259
 6481TIP3   OH241001   4.628   5.293   1.323  0.5141 -0.0142 -0.1273
 6481TIP3    H141002   4.704   5.243   1.353 -0.2842 -0.4116  1.3590
 6481TIP3    H241003   4.663   5.356   1.261  2.1715  0.2444  0.9998
 6482TIP3   OH241004   3.417   5.436   1.734 -0.1181  0.0554 -0.3255
 6482TIP3    H141005   3.479   5.400   1.670 -0.8969 -1.4708 -0.2597
 6482TIP3    H241006   3.451   5.407   1.819  0.0810  0.7919 -0.1479
 6483TIP3   OH241007   1.991   1.035   1.762 -0.3492 -0.8815  0.4123
 6483TIP3    H141008   1.986   1.026   1.857  0.9111 -0.2020  0.5655
 6483TIP3    H241009   2.022   1.124   1.748 -1.7429 -0.5364 -0.6934
 6484TIP3   OH241010   1.634   6.802   2.041  0.5048 -0.4187  0.1522
 6484TIP3    H141011   1.597   6.783   2.127 -0.0798  0.1273  0.0378
 6484TIP3    H241012   1.578   6.754   1.980  0.8798 -0.7548  0.0737
 6485TIP3   OH241013   4.061   5.823   0.028 -0.4151 -0.1660  0.1648
 6485TIP3    H141014   4.042   5.826  -0.066 -1.8601 -0.1840  0.4287
 6485TIP3    H241015   3.999   5.884   0.067 -1.1035 -1.5259  1.2888
 6486TIP3   OH241016   3.201   5.439   1.025  0.6041 -0.5858 -0.2343
 6486TIP3    H141017   3.115   5.458   0.990  0.3612 -1.5400 -0.2038
 6486TIP3    H241018   3.210   5.495   1.102  0.6807  0.6881 -1.1497
 6487TIP3   OH241019   2.386   5.806   1.543  0.1515  0.2653  0.3934
 6487TIP3    H141020   2.391   5.738   1.475  1.0626 -0.4503  1.1457
 6487TIP3    H241021   2.294   5.806   1.570  0.0136 -0.2213 -0.0563
 6488TIP3   OH241022   3.596   3.977   1.140 -0.0823 -0.1255 -0.5156
 6488TIP3    H141023   3.626   3.903   1.193  1.3532  0.3936 -0.5728
 6488TIP3    H241024   3.608   3.948   1.050  1.9911  0.7178 -0.5545
 6489TIP3   OH241025   0.392   3.826   1.002 -0.1252  0.6694 -0.5374
 6489TIP3    H141026   0.321   3.882   1.032 -1.3166 -1.3325  0.5615
 6489TIP3    H241027   0.420   3.777   1.079 -0.1295 -1.2945 -1.7076
 6490TIP3   OH241028   1.611   2.579   2.059  0.6484 -0.2796 -0.4936
 6490TIP3    H141029   1.625   2.667   2.023  1.5879 -0.6578 -1.0848
 6490TIP3    H241030   1.699   2.542   2.068  0.4592 -0.2989  2.0087
 6491TIP3   OH241031   0.622   5.534   1.334 -0.3146 -0.7285 -0.1707
 6491TIP3    H141032   0.654   5.620   1.363 -0.7287 -0.0884 -1.5329
 6491TIP3    H241033   0.620   5.481   1.414  1.3781  0.0614  0.4491
 6492TIP3   OH241034   4.945   5.243   8.235  0.1416 -0.0980  0.2965
 6492TIP3    H141035   4.975   5.321   8.281  1.7257 -1.5919  1.9473
 6492TIP3    H241036   5.013   5.226   8.170  0.1164 -0.4482  0.3597
 6493TIP3   OH241037   1.981   0.868   7.314 -0.3004 -0.0401 -0.3776
 6493TIP3    H141038   1.999   0.812   7.389 -0.0538 -1.0690 -1.1799
 6493TIP3    H241039   1.944   0.948   7.351 -1.1602 -0.9401  0.7568
 6494TIP3   OH241040   2.260   2.062   8.429  0.2348 -0.4177 -0.8000
 6494TIP3    H141041   2.297   2.042   8.514  1.0452  0.4667 -0.9268
 6494TIP3    H241042   2.321   2.023   8.366  0.5277  0.3393 -0.9944
 6495TIP3   OH241043   1.093   4.226   8.313  0.3925 -0.2429  0.2621
 6495TIP3    H141044   1.096   4.144   8.362 -0.1086 -1.1492 -1.1485
 6495TIP3    H241045   1.042   4.286   8.368  0.2777 -1.0504  1.0479
 6496TIP3   OH241046   3.936   2.471   0.357 -0.0407 -0.2909  0.2683
 6496TIP3    H141047   4.015   2.487   0.409  1.0044 -0.9423 -1.0631
 6496TIP3    H241048   3.946   2.381   0.325 -1.8158 -0.7534  0.8793
 6497TIP3   OH241049   5.462   4.601   0.952  0.2772 -0.1737 -0.1069
 6497TIP3    H141050   5.426   4.689   0.964  0.2524 -0.2446  0.3565
 6497TIP3    H241051   5.393   4.542   0.982  0.0941 -0.3762 -0.9016
 6498TIP3   OH241052   3.033   4.190   8.507  0.3721  0.0728  0.1282
 6498TIP3    H141053   3.124   4.168   8.524  0.7781  2.0474  0.8289
 6498TIP3    H241054   2.983   4.133   8.565  1.3309  0.6413  1.5751
 6499TIP3   OH241055   4.813   6.455   0.483 -0.0466  0.0514 -0.2145
 6499TIP3    H141056   4.829   6.378   0.537 -0.6651  0.1490  0.1141
 6499TIP3    H241057   4.765   6.421   0.407 -1.3616  0.2689  0.4909
 6500TIP3   OH241058   0.738   6.427   1.467  0.0723 -0.1669 -0.1540
 6500TIP3    H141059   0.719   6.479   1.389  1.9439  1.7143  0.5537
 6500TIP3    H241060   0.658   6.434   1.520 -0.7049 -0.3173 -1.2622
 6501TIP3   OH241061   5.144   3.260   1.416 -0.1746  0.2605  0.4215
 6501TIP3    H141062   5.112   3.340   1.373  1.1998 -0.1880 -1.5807
 6501TIP3    H241063   5.096   3.189   1.373  2.4084 -0.3292 -1.7566
 6502TIP3   OH241064   1.140   0.565   8.190  0.1360  0.3440  0.4815
 6502TIP3    H141065   1.219   0.528   8.229  0.0980 -0.5931 -0.3101
 6502TIP3    H241066   1.171   0.613   8.114  0.0580  1.0106  0.8569
 6503TIP3   OH241067   0.549   0.406   1.655 -0.1777 -0.0084 -0.4223
 6503TIP3    H141068   0.644   0.410   1.647 -0.1091  0.8616  0.6086
 6503TIP3    H241069   0.533   0.366   1.740 -0.6570  2.4942  0.7497
 6504TIP3   OH241070   1.532   2.390   0.692  0.7327 -0.3104 -0.3158
 6504TIP3    H141071   1.539   2.359   0.782  1.2633 -1.4739 -0.7403
 6504TIP3    H241072   1.461   2.340   0.654  1.2559 -0.6580 -0.8613
 6505TIP3   OH241073   1.628   5.774   8.213  0.2386 -0.4536 -0.1665
 6505TIP3    H141074   1.704   5.715   8.210  0.3576 -0.3204  0.1635
 6505TIP3    H241075   1.666   5.861   8.226 -0.0423 -0.5966  1.8964
 6506TIP3   OH241076   1.308   3.782   7.539  0.4180 -0.0562  0.0744
 6506TIP3    H141077   1.288   3.732   7.460  0.1701 -2.4561  1.5371
 6506TIP3    H241078   1.259   3.737   7.608  1.1303  1.5594  1.6991
 6507TIP3   OH241079   3.704   0.090   7.466  0.0183  0.3916 -0.3388
 6507TIP3    H141080   3.648   0.087   7.389 -1.9878  1.3720  0.9765
 6507TIP3    H241081   3.643   0.108   7.539  1.7555 -0.8349  1.5234
 6508TIP3   OH241082   4.770   3.150   1.069  0.0321 -0.0014  0.5744
 6508TIP3    H141083   4.766   3.202   1.149  0.9504  0.7754  0.1241
 6508TIP3    H241084   4.748   3.211   0.999 -0.5402 -0.6226  0.1953
 6509TIP3   OH241085   3.918   5.006   7.022  1.1046  0.0983  0.2920
 6509TIP3    H141086   3.978   5.071   7.060 -0.1174  1.5732 -0.2405
 6509TIP3    H241087   3.971   4.962   6.955  1.5521  1.5544 -0.3599
 6510TIP3   OH241088   0.199   2.496   8.186  0.8504  0.3763 -0.2537
 6510TIP3    H141089   0.231   2.583   8.164 -2.1220  1.5511 -0.3879
 6510TIP3    H241090   0.163   2.463   8.104  0.2085 -0.1454  0.2263
 6511TIP3   OH241091   5.105   6.602   0.292  0.0691 -0.1746 -0.0549
 6511TIP3    H141092   5.010   6.612   0.281  0.2319 -0.6896 -2.5580
 6511TIP3    H241093   5.137   6.577   0.205  2.5626  0.3597  0.6161
 6512TIP3   OH241094   5.498   1.335   1.246 -0.4400 -0.1832 -0.6923
 6512TIP3    H141095   5.430   1.303   1.306 -0.3737 -2.7040 -1.8376
 6512TIP3    H241096   5.571   1.357   1.304 -1.8163  1.7199  0.4799
 6513TIP3   OH241097   2.865   1.997   8.004  0.1444 -0.2601  0.6995
 6513TIP3    H141098   2.789   1.958   7.960 -0.6045 -0.8000  2.3613
 6513TIP3    H241099   2.834   2.013   8.094  1.8673 -0.0511  1.2826
 6514TIP3   OH241100   0.370   4.380   0.958  0.0102 -0.1018 -0.2759
 6514TIP3    H141101   0.413   4.297   0.980  1.7694  0.4019 -1.5393
 6514TIP3    H241102   0.321   4.403   1.036  1.4716 -1.1238  1.0117
 6515TIP3   OH241103   2.176   2.752   0.831 -0.1906  0.4845  0.7023
 6515TIP3    H141104   2.163   2.846   0.823  1.8112  0.8710  1.4052
 6515TIP3    H241105   2.224   2.741   0.913  2.9867 -0.7405 -1.1460
 6516TIP3   OH241106   6.554   0.404   1.631  0.3000 -0.0045  0.1426
 6516TIP3    H141107   6.634   0.353   1.642  0.8378  0.9396  0.7979
 6516TIP3    H241108   6.543   0.449   1.715 -0.9934 -0.2145  0.0988
 6517TIP3   OH241109   4.865   3.075   1.728 -0.6295 -0.7069 -0.5319
 6517TIP3    H141110   4.897   2.994   1.689 -1.0110 -0.9490 -0.3409
 6517TIP3    H241111   4.911   3.082   1.812 -1.3470 -1.2556 -0.0772
 6518TIP3   OH241112   3.647   0.580   2.034 -0.2648 -0.2230  0.5408
 6518TIP3    H141113   3.686   0.494   2.019 -0.2946  0.1613 -2.2568
 6518TIP3    H241114   3.553   0.566   2.022 -0.7881 -0.4329  3.7656
 6519TIP3   OH241115   0.625   5.418   8.215 -0.5506  0.4131 -0.3543
 6519TIP3    H141116   0.530   5.411   8.225 -0.6517  1.3216 -0.5840
 6519TIP3    H241117   0.636   5.464   8.132  0.1183 -0.6657 -0.8828
 6520TIP3   OH241118   6.094   5.843   2.359 -0.1223  0.3582  0.3006
 6520TIP3    H141119   6.093   5.765   2.413 -3.5926 -0.6008 -0.8822
 6520TIP3    H241120   6.145   5.819   2.281  0.6154  0.0359  0.8802
 6521TIP3   OH241121   4.529   5.738   1.022  0.0655  0.6124  0.1440
 6521TIP3    H141122   4.616   5.723   0.985  0.6517  2.6836  0.5241
 6521TIP3    H241123   4.469   5.694   0.962  1.1618  1.6922 -1.8560
 6522TIP3   OH241124   2.533   3.441   2.636  0.8237 -0.3748  0.1428
 6522TIP3    H141125   2.534   3.389   2.556  3.0957 -0.2140 -0.0206
 6522TIP3    H241126   2.441   3.460   2.652  0.2545 -0.9924 -2.0510
 6523TIP3   OH241127   5.335   6.758   7.282  0.1609 -0.3264 -0.0988
 6523TIP3    H141128   5.287   6.838   7.301  1.0038 -0.2399  1.9981
 6523TIP3    H241129   5.416   6.788   7.240  0.0106 -0.1740 -0.2811
 6524TIP3   OH241130   4.115   6.541   0.916  0.1806  0.2971 -0.2825
 6524TIP3    H141131   4.103   6.500   0.831 -0.6784 -0.1702  0.0572
 6524TIP3    H241132   4.192   6.597   0.905  0.5584 -0.3707 -1.1285
 6525TIP3   OH241133   0.705   4.459   1.656 -0.4973  0.1331  0.4157
 6525TIP3    H141134   0.732   4.378   1.612 -1.6786  0.4707 -0.9915
 6525TIP3    H241135   0.787   4.506   1.671  0.0139 -0.3722 -0.6913
 6526TIP3   OH241136   4.481   0.769   6.601  0.3710 -0.1968 -0.0343
 6526TIP3    H141137   4.574   0.757   6.579  0.4029  2.0357 -1.4327
 6526TIP3    H241138   4.434   0.744   6.522 -0.1822 -0.6301  0.4275
 6527TIP3   OH241139   4.780   3.913   7.555 -0.3426 -0.5046 -0.1845
 6527TIP3    H141140   4.867   3.953   7.554 -1.1582  1.4231  0.5560
 6527TIP3    H241141   4.757   3.908   7.648 -1.5575  0.3445 -0.4141
 6528TIP3   OH241142   3.841   5.921   6.602 -0.4471 -0.5572 -0.0372
 6528TIP3    H141143   3.892   5.873   6.537 -0.9187 -1.0688 -0.0363
 6528TIP3    H241144   3.777   5.857   6.634 -1.1345  0.0949 -0.0938
 6529TIP3   OH241145   4.916   0.850   1.089  0.3339  0.5417  0.2848
 6529TIP3    H141146   4.910   0.942   1.116 -1.5586  1.0218 -1.5648
 6529TIP3    H241147   5.010   0.836   1.075  0.8938  1.5613  2.4811
 6530TIP3   OH241148   2.936   4.139   6.815  0.0729  0.0356  0.1510
 6530TIP3    H141149   2.973   4.221   6.783  1.1718 -0.9195 -1.1537
 6530TIP3    H241150   3.011   4.090   6.849 -0.7487  0.0600  2.1452
 6531TIP3   OH241151   4.648   2.186   2.551 -0.0738  0.6277 -0.3253
 6531TIP3    H141152   4.736   2.151   2.569 -0.7170 -0.7261  0.3181
 6531TIP3    H241153   4.664   2.260   2.493  1.3763 -0.8156 -1.8928
 6532TIP3   OH241154   4.031   1.778   8.653  0.3530 -0.1251  0.0201
 6532TIP3    H141155   4.067   1.737   8.732 -0.2591 -1.3082 -0.2950
 6532TIP3    H241156   4.036   1.709   8.586 -2.0209 -0.1735 -0.1704
 6533TIP3   OH241157   2.261   2.117   1.114  0.5795  0.0942  0.2508
 6533TIP3    H141158   2.225   2.050   1.056 -0.4580  1.5899 -0.8838
 6533TIP3    H241159   2.248   2.081   1.202  0.5221 -1.4104 -0.3402
 6534TIP3   OH241160   6.358   2.447   1.119  0.2756 -0.3675  0.4610
 6534TIP3    H141161   6.346   2.386   1.047  0.2595  0.7939 -0.5561
 6534TIP3    H241162   6.282   2.505   1.114  0.7318  0.2823  0.8399
 6535TIP3   OH241163   0.053   1.327   0.903 -0.2040  0.3229 -0.1005
 6535TIP3    H141164   0.068   1.421   0.915 -2.9365  0.7818  0.4348
 6535TIP3    H241165   0.001   1.301   0.979 -0.4353 -1.3804 -0.7889
 6536TIP3   OH241166   2.938   6.803   1.463 -0.1859 -0.4346 -0.0609
 6536TIP3    H141167   2.891   6.825   1.382 -0.6824 -1.4532 -0.0691
 6536TIP3    H241168   3.012   6.751   1.433 -0.0025 -0.2592  0.0905
 6537TIP3   OH241169   1.974   0.417   8.326 -0.2008  0.0563 -0.2617
 6537TIP3    H141170   2.029   0.419   8.247 -0.5663  1.5483 -0.5143
 6537TIP3    H241171   1.922   0.497   8.321 -1.7499 -0.8629  0.4477
 6538TIP3   OH241172   4.112   4.859   0.552 -0.2343 -0.5002  0.7909
 6538TIP3    H141173   4.026   4.863   0.512 -1.0023  0.8773  2.4462
 6538TIP3    H241174   4.121   4.769   0.582 -0.7455 -0.8496 -0.0693
 6539TIP3   OH241175   3.452   1.326   7.411  0.1347  0.3302 -0.2024
 6539TIP3    H141176   3.492   1.258   7.357  0.1981  1.3982 -1.5502
 6539TIP3    H241177   3.391   1.278   7.468  1.1770 -0.9906 -0.1351
 6540TIP3   OH241178   6.163   2.665   0.725 -0.1252  0.4066 -0.6945
 6540TIP3    H141179   6.220   2.666   0.648 -0.9433  0.1995 -1.3189
 6540TIP3    H241180   6.082   2.623   0.695  0.5875 -2.4373  1.0694
 6541TIP3   OH241181   2.414   2.674   0.607  0.0795  0.2112 -0.0895
 6541TIP3    H141182   2.408   2.604   0.672 -0.5178  0.9003  0.6188
 6541TIP3    H241183   2.323   2.696   0.588  0.1843 -0.9689 -2.2891
 6542TIP3   OH241184   4.986   0.212   0.025  0.1545 -0.3786  0.0322
 6542TIP3    H141185   5.035   0.146   0.075 -2.0737 -1.3956  0.9974
 6542TIP3    H241186   4.895   0.182   0.027 -1.1959  3.2092  1.4171
 6543TIP3   OH241187   0.292   0.421   2.336 -0.5210 -0.1222 -0.7124
 6543TIP3    H141188   0.343   0.456   2.263 -0.7751  0.7852 -0.4783
 6543TIP3    H241189   0.332   0.460   2.414 -2.1813  1.5085 -0.5862
 6544TIP3   OH241190   4.535   2.260   8.259  0.0386 -0.3142  0.1069
 6544TIP3    H141191   4.608   2.198   8.258 -0.1562 -0.5441 -0.5301
 6544TIP3    H241192   4.550   2.315   8.182 -0.6848 -0.6292 -0.2665
 6545TIP3   OH241193   1.111   3.943   8.399 -0.0768  0.7510 -0.1665
 6545TIP3    H141194   1.166   3.914   8.471  1.4025  1.9276 -0.7676
 6545TIP3    H241195   1.077   3.863   8.360  0.6777  0.0268  0.6446
 6546TIP3   OH241196   6.650   4.619   8.130 -0.3541 -0.1954  0.1210
 6546TIP3    H141197   6.624   4.598   8.041 -0.6988 -0.9065  0.3791
 6546TIP3    H241198   6.644   4.536   8.177  2.6471 -0.5339  0.1434
 6547TIP3   OH241199   2.639   1.250   0.300  0.4123  0.0235 -0.7284
 6547TIP3    H141200   2.580   1.175   0.294  0.4159  0.0998 -1.9048
 6547TIP3    H241201   2.618   1.290   0.385 -1.2974  0.1026 -1.1567
 6548TIP3   OH241202   5.282   6.521   8.512 -0.7373  0.5048 -0.0330
 6548TIP3    H141203   5.350   6.587   8.498  1.4818 -1.3841  1.1385
 6548TIP3    H241204   5.296   6.456   8.443 -0.8554 -0.2681  0.6519
 6549TIP3   OH241205   4.217   4.727   7.989  0.4387  0.0304 -0.1381
 6549TIP3    H141206   4.200   4.634   7.977 -1.9643  0.2694  0.7612
 6549TIP3    H241207   4.172   4.749   8.071  0.9070  1.9772 -0.3465
 6550TIP3   OH241208   1.045   6.168   0.054 -0.2168  0.1605  0.1001
 6550TIP3    H141209   1.085   6.227   0.117 -0.6264  0.6687 -0.1122
 6550TIP3    H241210   1.119   6.130   0.005  0.2197 -1.2803  1.7637
 6551TIP3   OH241211   5.749   0.722   1.515 -0.0703 -0.0943 -0.5566
 6551TIP3    H141212   5.687   0.707   1.586  1.4091 -2.0783  0.4273
 6551TIP3    H241213   5.699   0.771   1.449 -2.3757 -0.7766  0.5671
 6552TIP3   OH241214   5.369   1.251   7.954  0.5688 -0.2053  0.3412
 6552TIP3    H141215   5.362   1.247   7.859 -1.7826 -3.7729  0.4922
 6552TIP3    H241216   5.296   1.307   7.980  0.5521 -0.1057  0.0879
 6553TIP3   OH241217   3.008   4.279   2.624 -0.3078  0.6644  0.5937
 6553TIP3    H141218   3.063   4.358   2.628  0.4962  0.3753 -2.3388
 6553TIP3    H241219   3.059   4.212   2.670  1.0481  0.8591 -0.5460
 6554TIP3   OH241220   2.235   3.273   8.060  0.1616  0.4511  0.2177
 6554TIP3    H141221   2.183   3.215   8.005  1.8202  1.4396 -2.5542
 6554TIP3    H241222   2.322   3.234   8.061  0.7236  1.6610  0.2336
 6555TIP3   OH241223   2.939   5.725   7.101 -0.1143 -0.1834 -0.0132
 6555TIP3    H141224   2.995   5.663   7.055 -1.5083 -0.1364 -1.9094
 6555TIP3    H241225   2.899   5.777   7.031 -4.8095 -2.1291  0.8742
 6556TIP3   OH241226   3.272   2.751   7.168 -0.4836 -0.0208 -0.0204
 6556TIP3    H141227   3.194   2.722   7.121  0.4588 -1.5569 -0.7077
 6556TIP3    H241228   3.269   2.703   7.251 -0.3331  0.0174  0.0067
 6557TIP3   OH241229   3.421   2.157   0.260  0.0514  0.3814  0.6579
 6557TIP3    H141230   3.439   2.241   0.216  0.4155  0.9385  1.8263
 6557TIP3    H241231   3.505   2.111   0.259  0.0760  0.4236  0.8315
 6558TIP3   OH241232   1.095   0.021   8.295 -0.7965  0.2212  0.3381
 6558TIP3    H141233   1.092   0.114   8.272  1.4246 -0.2350 -2.3447
 6558TIP3    H241234   1.034  -0.021   8.234 -0.0241 -0.3025 -0.0885
 6559TIP3   OH241235   5.788   0.388   7.952 -0.1287  0.2012 -1.0510
 6559TIP3    H141236   5.760   0.452   7.886 -1.1713 -0.4041 -1.2158
 6559TIP3    H241237   5.715   0.383   8.014  0.5575  0.2597 -0.2063
 6560TIP3   OH241238   6.558   0.146   7.931  0.0137  0.0660 -0.4610
 6560TIP3    H141239   6.607   0.172   7.853 -0.1412 -0.8354 -0.8771
 6560TIP3    H241240   6.624   0.134   7.998  0.1028  1.3511 -0.2936
 6561TIP3   OH241241   2.819   0.722   0.433 -0.1186 -0.4458  0.5387
 6561TIP3    H141242   2.753   0.756   0.373 -0.6096  0.2848  1.4646
 6561TIP3    H241243   2.793   0.756   0.519  1.0388 -0.7678  1.0373
 6562TIP3   OH241244   6.108   3.214   1.290  0.3290 -0.1746 -0.5326
 6562TIP3    H141245   6.143   3.137   1.334  1.3730  1.5261  1.8191
 6562TIP3    H241246   6.134   3.203   1.199  0.6209 -2.4722 -0.2428
 6563TIP3   OH241247   6.568   0.439   0.926 -0.2348 -0.1266  0.1780
 6563TIP3    H141248   6.629   0.433   0.852  0.1330  0.2017  0.4513
 6563TIP3    H241249   6.518   0.358   0.923  1.6093 -1.3749  1.1697
 6564TIP3   OH241250   3.526   2.152   1.444  0.4389  0.3568  0.0406
 6564TIP3    H141251   3.482   2.116   1.521 -0.6991  1.3415 -0.1200
 6564TIP3    H241252   3.554   2.075   1.394  0.2483 -0.2912  0.9050
 6565TIP3   OH241253   5.167   2.281   2.013  0.1341 -0.1660  0.2017
 6565TIP3    H141254   5.126   2.263   1.928  2.1318 -0.1586 -0.8198
 6565TIP3    H241255   5.117   2.228   2.075 -0.9007 -0.7677 -1.0905
 6566TIP3   OH241256   4.400   5.171   6.363 -0.0005 -0.5263 -0.1854
 6566TIP3    H141257   4.399   5.086   6.319  0.8700 -0.2182 -0.8217
 6566TIP3    H241258   4.443   5.155   6.447 -0.0086 -0.7479 -0.2229
 6567TIP3   OH241259   3.948   4.433   1.253  0.3515  0.1188 -0.0876
 6567TIP3    H141260   4.017   4.476   1.303 -0.5203  1.2851  0.1478
 6567TIP3    H241261   3.907   4.503   1.202 -0.5041 -0.5910 -0.4132
 6568TIP3   OH241262   1.182   0.400   8.563 -0.4053  0.0589  0.3557
 6568TIP3    H141263   1.198   0.488   8.598 -0.2399  0.2858 -0.2606
 6568TIP3    H241264   1.092   0.380   8.586 -0.2062  0.0731  1.1629
 6569TIP3   OH241265   4.839   4.946   0.049  0.2073 -0.0143  0.1018
 6569TIP3    H141266   4.869   4.898  -0.029 -0.0834  1.1553 -0.7650
 6569TIP3    H241267   4.821   5.035   0.017  1.7846  1.0143  1.8503
 6570TIP3   OH241268   6.793   3.803   1.972  0.1807  0.0936  0.1772
 6570TIP3    H141269   6.702   3.776   1.979  0.3099 -0.7521 -1.0879
 6570TIP3    H241270   6.821   3.816   2.063 -1.5482  1.6743  0.5398
 6571TIP3   OH241271   6.505   0.975   1.867  0.3041 -0.2996 -0.1700
 6571TIP3    H141272   6.569   0.972   1.938  0.4433 -1.5569 -0.3268
 6571TIP3    H241273   6.558   0.966   1.788  0.1696  1.2844 -0.4696
 6572TIP3   OH241274   1.220   6.421   7.817  0.2882 -0.1739 -0.4835
 6572TIP3    H141275   1.170   6.347   7.851  0.4695 -0.1515 -0.1631
 6572TIP3    H241276   1.193   6.429   7.725 -0.5321  0.0327 -0.2332
 6573TIP3   OH241277   2.890   2.126   6.093  0.3308 -0.7652  0.4152
 6573TIP3    H141278   2.973   2.111   6.137  0.6078 -0.1733  0.0995
 6573TIP3    H241279   2.824   2.117   6.163  0.8023  0.7504  1.0895
 6574TIP3   OH241280   4.579   3.346   8.632 -0.3540  0.1911 -0.0426
 6574TIP3    H141281   4.511   3.295   8.675 -1.2288  1.1219 -0.2712
 6574TIP3    H241282   4.574   3.432   8.674  1.3422  0.0015  0.6069
 6575TIP3   OH241283   4.949   4.436   8.336 -0.5672 -0.5715  0.1527
 6575TIP3    H141284   5.012   4.471   8.273 -1.1904 -1.6920 -1.1719
 6575TIP3    H241285   4.996   4.367   8.382 -0.2723 -0.1344  0.5028
 6576TIP3   OH241286   4.475   5.850   8.665 -0.5416 -0.2747  0.4005
 6576TIP3    H141287   4.474   5.920   8.731 -2.4982  0.3496 -0.2117
 6576TIP3    H241288   4.446   5.772   8.713  2.1141 -0.8635  1.2012
 6577TIP3   OH241289   6.397   5.780   1.742  0.5459 -0.6690 -0.0610
 6577TIP3    H141290   6.383   5.687   1.729  0.7753 -0.8096  0.6552
 6577TIP3    H241291   6.410   5.790   1.836 -0.4309  0.2127  0.0037
 6578TIP3   OH241292   3.874   6.009   8.361 -0.3171 -0.2953  0.7575
 6578TIP3    H141293   3.843   6.025   8.272  3.1055 -1.3900 -0.8169
 6578TIP3    H241294   3.848   6.087   8.409 -1.2241  0.9102 -1.4950
 6579TIP3   OH241295   1.559   1.721   0.818 -0.2501 -0.0737  0.0975
 6579TIP3    H141296   1.552   1.720   0.722 -1.5401 -0.6824  0.1835
 6579TIP3    H241297   1.492   1.660   0.847  1.3077 -1.2676  1.3360
 6580TIP3   OH241298   3.840   3.565   7.894 -0.4759 -0.7696 -0.2869
 6580TIP3    H141299   3.817   3.587   7.984  4.0228 -1.1419  1.2219
 6580TIP3    H241300   3.865   3.648   7.854 -0.8411 -0.8217 -0.6277
 6581TIP3   OH241301   6.330   3.585   2.731 -0.1978 -0.9967 -0.0479
 6581TIP3    H141302   6.234   3.587   2.737 -0.3983 -0.4498 -2.2403
 6581TIP3    H241303   6.349   3.506   2.681  0.1960  0.4380 -2.3204
 6582TIP3   OH241304   1.385   2.438   7.460  1.2292  0.5405 -0.1346
 6582TIP3    H141305   1.394   2.476   7.548  2.0484 -1.8104  0.8725
 6582TIP3    H241306   1.299   2.466   7.430  0.2928  0.2055  2.0656
 6583TIP3   OH241307   1.281   2.945   2.007 -0.6944  0.6009  0.1402
 6583TIP3    H141308   1.257   3.033   2.035  2.1599  1.8639 -0.9552
 6583TIP3    H241309   1.368   2.932   2.044 -0.7406 -1.4724 -0.3807
 6584TIP3   OH241310   4.088   5.863   1.505  0.3387 -0.2136  0.0385
 6584TIP3    H141311   4.115   5.797   1.569 -0.1365  0.8905  1.4507
 6584TIP3    H241312   4.005   5.896   1.539  0.9530  1.6570 -0.1917
 6585TIP3   OH241313   0.387   0.806   1.049  0.4395 -0.2646  0.3057
 6585TIP3    H141314   0.391   0.799   0.953 -0.4816 -1.9011  0.3413
 6585TIP3    H241315   0.341   0.727   1.076  0.1009  0.4977  2.0704
 6586TIP3   OH241316   2.193   5.498   6.585 -0.2320 -0.8690  0.3063
 6586TIP3    H141317   2.120   5.496   6.647 -0.6691 -1.2823 -0.2196
 6586TIP3    H241318   2.158   5.462   6.504  0.1011  0.4054 -0.4391
 6587TIP3   OH241319   0.137   1.336   0.153 -0.3100  0.4397  0.0792
 6587TIP3    H141320   0.076   1.263   0.145  0.1397 -0.0713  1.1720
 6587TIP3    H241321   0.199   1.308   0.220  0.2325  1.5735  0.0646
 6588TIP3   OH241322   3.014   1.638   6.181  0.5540  0.2343 -0.3633
 6588TIP3    H141323   2.947   1.583   6.142  0.9954 -0.3127 -0.3713
 6588TIP3    H241324   3.002   1.627   6.276  0.7785 -0.0593 -0.3649
 6589TIP3   OH241325   4.645   3.030   2.545 -0.0856  0.1425  0.2493
 6589TIP3    H141326   4.580   3.098   2.525 -0.4188 -0.7851 -2.2492
 6589TIP3    H241327   4.729   3.076   2.548 -0.4079  0.7926 -0.5127
 6590TIP3   OH241328   4.460   2.377   2.651 -0.6629 -0.4896 -0.1038
 6590TIP3    H141329   4.501   2.463   2.655 -1.6580  0.1682 -2.2776
 6590TIP3    H241330   4.532   2.317   2.630  0.4784 -0.6885  3.6558
 6591TIP3   OH241331   5.287   2.127   1.582  0.8506 -0.6855  0.2717
 6591TIP3    H141332   5.382   2.123   1.584  0.9069 -1.7313 -1.8808
 6591TIP3    H241333   5.258   2.051   1.633  1.2061 -1.1838 -0.2623
 6592TIP3   OH241334   2.784   4.369   2.755  0.3914 -0.4278 -0.2133
 6592TIP3    H141335   2.862   4.348   2.704 -0.0039  0.9887 -1.4663
 6592TIP3    H241336   2.720   4.302   2.731 -0.1056  0.7514 -2.3965
 6593TIP3   OH241337   4.281   2.683   1.437 -0.1791  0.5727 -0.3767
 6593TIP3    H141338   4.371   2.690   1.406 -0.1694  0.7812 -0.3028
 6593TIP3    H241339   4.279   2.735   1.518  0.1840 -1.2119  0.8376
 6594TIP3   OH241340   0.074   6.850   2.268 -0.3069 -0.4424  0.3238
 6594TIP3    H141341   0.017   6.825   2.341  0.7076  0.5158  1.5002
 6594TIP3    H241342   0.130   6.918   2.305  2.4189 -2.1493 -0.4050
 6595TIP3   OH241343   3.804   5.090   7.264  0.1286 -0.1926  0.5154
 6595TIP3    H141344   3.769   5.007   7.297 -0.4504  0.3101  1.2116
 6595TIP3    H241345   3.825   5.072   7.173 -0.4492 -0.9731  0.5177
 6596TIP3   OH241346   6.736   3.453   7.113 -0.1640  0.4734  0.5122
 6596TIP3    H141347   6.778   3.472   7.029 -0.5354 -0.4069  0.1130
 6596TIP3    H241348   6.799   3.399   7.160 -0.6108 -0.4257  0.1148
 6597TIP3   OH241349   1.211   5.352   8.388  0.2979  0.1629 -0.4156
 6597TIP3    H141350   1.248   5.269   8.356  1.3146  0.5710 -0.3490
 6597TIP3    H241351   1.120   5.351   8.357 -1.1416 -2.9044  3.1767
 6598TIP3   OH241352   6.823   2.074   7.913 -0.1137 -0.4159 -0.4218
 6598TIP3    H141353   6.825   2.025   7.995 -0.3442 -1.0729 -0.8009
 6598TIP3    H241354   6.912   2.108   7.903 -0.0281 -0.5243 -0.0163
 6599TIP3   OH241355   4.873   5.269   1.687 -0.2994 -0.2475  0.0410
 6599TIP3    H141356   4.959   5.271   1.645 -0.1875 -0.3458  0.2630
 6599TIP3    H241357   4.832   5.351   1.661 -1.4444 -1.5697 -2.7781
 6600TIP3   OH241358   0.428   6.803   2.247 -0.3747 -0.0583 -0.4506
 6600TIP3    H141359   0.385   6.850   2.319  1.8053  0.8169  0.3443
 6600TIP3    H241360   0.508   6.768   2.285  0.1346 -0.7920 -2.1168
 6601TIP3   OH241361   1.193   6.090   6.707  0.3922 -0.2841  0.1980
 6601TIP3    H141362   1.202   6.175   6.665 -0.8879  0.3641  1.1652
 6601TIP3    H241363   1.254   6.033   6.661 -0.7287  0.4559 -2.3364
 6602TIP3   OH241364   4.399   4.776   0.626  0.4281 -0.5181  0.1155
 6602TIP3    H141365   4.452   4.730   0.691  2.0133  1.2908  0.1609
 6602TIP3    H241366   4.356   4.846   0.674  0.2966 -0.1963 -0.4560
 6603TIP3   OH241367   2.025   5.359   0.544  0.6385  0.1295 -0.1321
 6603TIP3    H141368   1.961   5.363   0.614  2.5306  0.2617  1.7111
 6603TIP3    H241369   2.088   5.293   0.573  1.0697 -0.3945 -2.1173
 6604TIP3   OH241370   5.228   3.196   7.705 -0.3999  0.0590 -0.2842
 6604TIP3    H141371   5.209   3.215   7.797 -1.6080  0.0687 -0.5092
 6604TIP3    H241372   5.151   3.148   7.675 -1.1882  2.1729 -1.9218
 6605TIP3   OH241373   2.209   1.842   1.758  0.5745  0.3254  0.0769
 6605TIP3    H141374   2.262   1.778   1.805 -1.0965 -0.5226  0.8720
 6605TIP3    H241375   2.121   1.833   1.794  0.2698  3.1498  0.3122
 6606TIP3   OH241376   3.413   2.409   0.144  0.4885 -0.0532  0.1293
 6606TIP3    H141377   3.499   2.433   0.108  0.4332 -0.8496 -0.5853
 6606TIP3    H241378   3.409   2.453   0.229 -0.0200  3.2225 -1.4319
 6607TIP3   OH241379   3.574   0.258   1.605  0.4717 -0.1558 -0.4204
 6607TIP3    H141380   3.485   0.230   1.625  0.6524  0.1585  0.8757
 6607TIP3    H241381   3.592   0.220   1.519 -0.9510 -0.1099 -0.7564
 6608TIP3   OH241382   2.601   0.832   6.890 -0.5181  0.4500 -0.5157
 6608TIP3    H141383   2.657   0.765   6.929  0.7129  1.8530  0.2582
 6608TIP3    H241384   2.530   0.784   6.849  0.2948 -1.3088  0.0528
 6609TIP3   OH241385   2.032   4.747   7.590  0.0469 -0.3669  0.0388
 6609TIP3    H141386   2.109   4.694   7.571  0.1294  0.6470 -2.9386
 6609TIP3    H241387   1.963   4.710   7.535 -0.1637  1.8373 -1.3299
 6610TIP3   OH241388   5.304   4.776   8.626  0.5170 -0.5384 -0.5238
 6610TIP3    H141389   5.386   4.774   8.578  1.6039 -2.2386  1.2307
 6610TIP3    H241390   5.289   4.685   8.653 -2.7434 -0.5900 -1.9875
 6611TIP3   OH241391   3.010   3.390   7.913 -0.3994  0.0272 -0.0290
 6611TIP3    H141392   2.935   3.366   7.967  0.2552 -1.5163  0.2421
 6611TIP3    H241393   3.033   3.478   7.943 -2.1967  0.6175 -0.2554
 6612TIP3   OH241394   5.106   3.586   1.542  0.0852  0.0861 -0.6909
 6612TIP3    H141395   5.146   3.655   1.489  1.0242  0.6314  0.6831
 6612TIP3    H241396   5.180   3.540   1.581 -0.5753 -0.7666 -0.4231
 6613TIP3   OH241397   4.864   6.722   7.581  0.2800 -0.1042  0.5296
 6613TIP3    H141398   4.952   6.759   7.571 -0.1682  0.9484  0.4210
 6613TIP3    H241399   4.877   6.627   7.573  1.1711  0.1257 -1.1831
 6614TIP3   OH241400   4.729   4.631   8.071 -0.1883 -0.2678  0.0619
 6614TIP3    H141401   4.646   4.649   8.026  0.2296 -0.3036 -0.7415
 6614TIP3    H241402   4.769   4.718   8.082  0.8189 -0.4259 -1.8477
 6615TIP3   OH241403   4.099   0.957   0.960  0.3098 -0.1315  0.5794
 6615TIP3    H141404   4.019   0.907   0.945 -0.4413  1.2539 -0.2148
 6615TIP3    H241405   4.123   0.990   0.873  1.3464  0.0665  0.9247
 6616TIP3   OH241406   5.038   5.152   2.014 -0.8026 -0.0297 -0.9168
 6616TIP3    H141407   5.063   5.211   2.085 -0.7494 -1.2258  0.0813
 6616TIP3    H241408   4.949   5.125   2.035 -1.0909  0.2296 -1.7509
 6617TIP3   OH241409   1.030   4.692   0.137  0.2210 -0.0476 -0.5320
 6617TIP3    H141410   0.952   4.704   0.083  0.4340 -0.8983 -1.0542
 6617TIP3    H241411   1.004   4.717   0.225 -0.5043  0.1286 -0.7962
 6618TIP3   OH241412   3.763   3.786   8.415  0.6040  0.0386 -0.3832
 6618TIP3    H141413   3.754   3.836   8.333  0.8244  2.3989  0.9491
 6618TIP3    H241414   3.673   3.773   8.445  0.5901  1.7644  0.4296
 6619TIP3   OH241415   5.627   6.545   8.401  0.3746  0.5900 -0.0067
 6619TIP3    H141416   5.614   6.547   8.307 -0.6939  0.6238  0.1304
 6619TIP3    H241417   5.632   6.452   8.424  1.2757  0.5885 -0.1651
 6620TIP3   OH241418   5.563   2.768   1.393 -0.2249  0.1662 -0.7064
 6620TIP3    H141419   5.547   2.739   1.303 -2.2889 -0.1455 -0.2793
 6620TIP3    H241420   5.636   2.830   1.385 -0.7254  0.5703 -2.6635
 6621TIP3   OH241421   3.790   2.765   1.666 -0.2589 -0.2130  0.8616
 6621TIP3    H141422   3.714   2.718   1.700 -1.2860  0.4318 -0.4908
 6621TIP3    H241423   3.771   2.779   1.574  2.0295 -1.0714  0.1789
 6622TIP3   OH241424   6.485   4.738   6.259  0.1627  0.1096  0.1908
 6622TIP3    H141425   6.549   4.739   6.330  0.2216 -2.3239  0.2347
 6622TIP3    H241426   6.441   4.823   6.265  2.3583  1.2718  1.0709
 6623TIP3   OH241427   0.280   6.555   1.288 -0.0331  0.1232 -0.8620
 6623TIP3    H141428   0.321   6.614   1.351  0.3533  0.0064 -1.0055
 6623TIP3    H241429   0.186   6.560   1.309  0.1900 -0.8235  0.5223
 6624TIP3   OH241430   1.991   2.217   6.946 -0.5047  0.5416  0.7179
 6624TIP3    H141431   2.066   2.159   6.933 -1.5774 -0.8572  0.5312
 6624TIP3    H241432   1.916   2.158   6.951 -1.3683  1.7348  3.0612
 6625TIP3   OH241433   2.190   2.813   0.547 -0.1756 -0.3291  0.1968
 6625TIP3    H141434   2.171   2.906   0.562  0.3792 -0.1992  0.1120
 6625TIP3    H241435   2.104   2.774   0.532 -0.4035  0.2034  0.0625
 6626TIP3   OH241436   5.376   1.196   0.982  0.2022  0.7933 -0.2434
 6626TIP3    H141437   5.281   1.192   0.989  0.2672 -1.9904  0.4657
 6626TIP3    H241438   5.395   1.286   0.958 -2.5206  1.7376  0.7752
 6627TIP3   OH241439   0.577   4.571   0.904  0.3330 -0.0644  0.1367
 6627TIP3    H141440   0.607   4.614   0.985 -0.4220 -1.3200  1.1154
 6627TIP3    H241441   0.503   4.517   0.931 -1.0420  0.7741 -1.7182
 6628TIP3   OH241442   1.289   6.173   7.380 -0.2803  0.1834  0.1485
 6628TIP3    H141443   1.350   6.230   7.428  0.9069 -1.0647  0.1855
 6628TIP3    H241444   1.278   6.216   7.296  1.5728 -0.0967 -0.2890
 6629TIP3   OH241445   0.714   3.201   0.469  0.2802 -0.5627  0.0166
 6629TIP3    H141446   0.623   3.174   0.456  0.0190  0.3964 -0.2904
 6629TIP3    H241447   0.754   3.192   0.382 -0.0129  0.7036 -0.2716
 6630TIP3   OH241448   6.711   0.033   6.652 -0.6764 -0.1733  0.0803
 6630TIP3    H141449   6.689   0.091   6.579  3.3172  2.6693  0.8291
 6630TIP3    H241450   6.647   0.055   6.720 -1.1132  1.1624 -0.7236
 6631TIP3   OH241451   1.831   1.089   8.425 -0.4499 -0.0339 -0.1553
 6631TIP3    H141452   1.903   1.097   8.361 -2.6755 -2.3888 -3.2692
 6631TIP3    H241453   1.797   1.178   8.434  1.6044  0.8012 -0.0883
 6632TIP3   OH241454   1.090   0.543   0.682 -0.1257  0.2954  0.3111
 6632TIP3    H141455   1.115   0.558   0.773 -0.8029 -0.9004  0.7075
 6632TIP3    H241456   1.172   0.525   0.637  0.0235 -1.0440  1.0838
 6633TIP3   OH241457   6.366   6.184   0.756 -0.5948  0.1185  0.1445
 6633TIP3    H141458   6.420   6.176   0.677 -2.3911  0.3477 -1.1641
 6633TIP3    H241459   6.365   6.095   0.792  0.3943  0.0489  0.0342
 6634TIP3   OH241460   5.397   2.151   1.956 -0.1697  0.1787  0.1441
 6634TIP3    H141461   5.386   2.157   2.050 -1.3881 -2.1109  0.2348
 6634TIP3    H241462   5.324   2.200   1.919 -0.6308 -0.2655  0.4507
 6635TIP3   OH241463   1.955   0.550   7.054  0.4339 -0.1823 -0.7609
 6635TIP3    H141464   1.916   0.617   6.999  0.2411 -0.6243 -1.1726
 6635TIP3    H241465   2.030   0.593   7.095 -0.7043  0.8115  0.3749
 6636TIP3   OH241466   2.184   1.451   0.040  0.2279 -0.0141  0.1329
 6636TIP3    H141467   2.275   1.442   0.069  0.5598 -1.3258 -1.1818
 6636TIP3    H241468   2.172   1.545   0.027  1.9078  0.0777 -1.1752
 6637TIP3   OH241469   4.766   2.184   6.142  0.2793  0.1755  0.2679
 6637TIP3    H141470   4.823   2.208   6.215  1.5527 -1.9317  0.0457
 6637TIP3    H241471   4.826   2.160   6.071 -0.9125 -0.0957 -0.6883
 6638TIP3   OH241472   1.691   6.583   1.528  0.1116  0.1559  0.0370
 6638TIP3    H141473   1.729   6.521   1.590 -0.7069  0.2022  0.6034
 6638TIP3    H241474   1.600   6.592   1.556  0.0165  1.0228 -0.5092
 6639TIP3   OH241475   3.258   2.013   7.223  0.3537 -0.3997 -0.4287
 6639TIP3    H141476   3.293   1.958   7.153 -0.0953 -0.1685 -0.8383
 6639TIP3    H241477   3.191   2.067   7.180  0.6593  0.3386  0.0030
 6640TIP3   OH241478   4.368   6.668   0.923 -0.4001 -0.0171 -0.4486
 6640TIP3    H141479   4.410   6.710   0.848  0.1663  1.3821  0.6033
 6640TIP3    H241480   4.386   6.575   0.911 -1.1730  0.0469 -2.5503
 6641TIP3   OH241481   3.835   0.952   0.800  0.8543 -0.1145  1.1459
 6641TIP3    H141482   3.900   0.931   0.733  1.6655 -1.0531  2.2009
 6641TIP3    H241483   3.810   0.867   0.836 -1.2245  0.1911  0.5518
 6642TIP3   OH241484   6.563   0.747   8.032  0.1196  0.1232  0.3789
 6642TIP3    H141485   6.582   0.695   8.110  1.5721  1.1641  0.7767
 6642TIP3    H241486   6.506   0.817   8.064 -1.1500 -0.7298  0.0174
 6643TIP3   OH241487   0.676   6.414   0.132  0.5779  0.5584  0.4138
 6643TIP3    H141488   0.654   6.408   0.038  0.3898 -3.1555  0.5297
 6643TIP3    H241489   0.771   6.425   0.134  0.7083 -0.3184 -0.2552
 6644TIP3   OH241490   5.190   5.547   0.222  0.1766 -0.1989 -0.2799
 6644TIP3    H141491   5.176   5.483   0.292  0.2650 -0.8919 -0.8832
 6644TIP3    H241492   5.102   5.565   0.188  0.3449 -1.7536 -1.6245
 6645TIP3   OH241493   0.356   1.762   8.206 -0.2150  0.1609  0.0221
 6645TIP3    H141494   0.391   1.846   8.236 -0.2805  0.0555  0.3999
 6645TIP3    H241495   0.312   1.783   8.124 -0.5423  0.5640  0.2943
 6646TIP3   OH241496   1.209   4.485   7.380  0.6455  0.0940 -0.3361
 6646TIP3    H141497   1.300   4.492   7.352  0.6978  4.0050  0.2690
 6646TIP3    H241498   1.160   4.469   7.300  1.6427  0.6944 -1.0833
 6647TIP3   OH241499   4.375   0.935   0.134 -0.1000  0.2425 -0.6044
 6647TIP3    H141500   4.424   0.927   0.216 -0.9966  0.0177 -0.0738
 6647TIP3    H241501   4.441   0.930   0.066  0.4689 -1.5777  0.0276
 6648TIP3   OH241502   0.314   4.463   1.284 -0.2885  0.6187  0.5091
 6648TIP3    H141503   0.249   4.494   1.347 -1.1368 -0.7422  0.3587
 6648TIP3    H241504   0.397   4.465   1.332 -0.8910 -0.2121  1.6333
 6649TIP3   OH241505   3.572   4.665   7.999  0.3248 -0.0193 -0.8372
 6649TIP3    H141506   3.491   4.645   7.952 -0.9669  0.8434  0.9211
 6649TIP3    H241507   3.640   4.665   7.931 -1.2161 -0.2684 -2.4345
 6650TIP3   OH241508   5.393   6.325   8.340 -0.1497  0.5837  0.4732
 6650TIP3    H141509   5.477   6.295   8.375 -0.3414 -0.6941 -0.0931
 6650TIP3    H241510   5.415   6.366   8.256 -0.3267 -2.6876 -1.3269
 6651TIP3   OH241511   3.533   1.024   1.121  0.3756 -0.0139 -0.1202
 6651TIP3    H141512   3.582   0.942   1.117  0.6371  0.1803 -2.7628
 6651TIP3    H241513   3.442   0.998   1.104  0.3661  0.1906 -0.3807
 6652TIP3   OH241514   2.252   3.004   1.217  0.3448 -0.7094  0.2070
 6652TIP3    H141515   2.232   3.082   1.270  0.3712 -0.0258 -0.7639
 6652TIP3    H241516   2.174   2.992   1.163  0.8550 -0.5748 -0.5690
 6653TIP3   OH241517   4.349   3.049   7.728  0.1207  0.1461  0.0411
 6653TIP3    H141518   4.384   2.994   7.798 -0.2551 -0.3673 -0.1738
 6653TIP3    H241519   4.255   3.054   7.745  0.0290  0.0306 -0.4152
 6654TIP3   OH241520   1.438   6.280   1.678 -0.1630 -0.4281 -0.3968
 6654TIP3    H141521   1.510   6.322   1.725 -0.3418 -2.6694  2.1502
 6654TIP3    H241522   1.426   6.196   1.723 -2.9740 -1.0689 -2.0948
 6655TIP3   OH241523   0.109   6.580   0.784 -0.5247 -0.5603 -0.3166
 6655TIP3    H141524   0.149   6.493   0.785 -1.9174 -1.2318  0.9079
 6655TIP3    H241525   0.170   6.634   0.834  0.4807 -0.7493 -1.3046
 6656TIP3   OH241526   6.462   2.726   2.484 -0.2587  0.2903 -0.3336
 6656TIP3    H141527   6.467   2.634   2.459  0.0528  0.1487  0.2486
 6656TIP3    H241528   6.508   2.772   2.414 -0.0610 -0.0323 -0.4158
 6657TIP3   OH241529   1.316   6.789   6.789 -0.2370 -0.3050  0.3016
 6657TIP3    H141530   1.344   6.879   6.773 -1.8668  0.3170  0.7396
 6657TIP3    H241531   1.251   6.796   6.859  0.7824 -2.0256  1.5132
 6658TIP3   OH241532   0.405   6.387   1.493 -0.4515  0.4079  0.5667
 6658TIP3    H141533   0.449   6.471   1.498 -0.3237  0.3474  0.4530
 6658TIP3    H241534   0.350   6.394   1.415 -0.0980  0.2205  0.3007
 6659TIP3   OH241535   4.183   0.540   7.914 -0.0764 -0.5373  0.2778
 6659TIP3    H141536   4.208   0.447   7.914  0.1868 -0.5219  2.7610
 6659TIP3    H241537   4.230   0.578   7.987 -0.9416  1.3691 -0.0914
 6660TIP3   OH241538   4.320   4.544   2.328  0.6177  0.2933 -0.6040
 6660TIP3    H141539   4.372   4.490   2.388 -0.6731  0.3151  0.5848
 6660TIP3    H241540   4.342   4.634   2.352  1.2759  0.3213 -1.2550
 6661TIP3   OH241541   2.944   3.576   7.082  0.0471  0.1963 -0.1977
 6661TIP3    H141542   3.040   3.571   7.091  0.0260 -1.3058 -0.6318
 6661TIP3    H241543   2.929   3.662   7.041  1.0925  1.0552  1.1150
 6662TIP3   OH241544   2.638   2.446   7.355  0.0738  0.1621 -0.2191
 6662TIP3    H141545   2.553   2.479   7.327  0.3872  0.6206 -0.6500
 6662TIP3    H241546   2.618   2.376   7.417 -0.6950 -2.0343 -2.7689
 6663TIP3   OH241547   2.894   0.704   1.677  0.1484 -0.2028  0.3359
 6663TIP3    H141548   2.832   0.752   1.732  1.2214  0.2338  1.1850
 6663TIP3    H241549   2.921   0.629   1.731 -1.7058 -2.0232 -1.0599
 6664TIP3   OH241550   2.514   1.319   2.325 -0.1034  0.1294 -0.2509
 6664TIP3    H141551   2.599   1.324   2.369 -0.6796 -0.5632  0.9889
 6664TIP3    H241552   2.486   1.410   2.317  0.8186  0.3739 -0.8060
 6665TIP3   OH241553   2.108   2.985   8.038  0.4825 -0.1559 -0.3749
 6665TIP3    H141554   2.070   2.959   7.955  2.4464 -1.3398 -0.9686
 6665TIP3    H241555   2.170   2.915   8.060  0.6986  0.5803  1.6218
 6666TIP3   OH241556   2.388   1.399   0.794  0.1345 -0.6868  0.0976
 6666TIP3    H141557   2.446   1.323   0.804  0.3334 -0.3458  2.0327
 6666TIP3    H241558   2.308   1.364   0.754 -0.3562 -2.2573  2.2773
 6667TIP3   OH241559   2.943   3.831   1.686 -0.1778 -0.0107 -0.1557
 6667TIP3    H141560   2.876   3.869   1.742  1.5125  1.8828  0.7259
 6667TIP3    H241561   2.971   3.752   1.733  0.8090  1.2380  1.4912
 6668TIP3   OH241562   0.440   4.663   7.918 -0.5261 -0.7043  0.1685
 6668TIP3    H141563   0.360   4.695   7.876  0.3162  0.5156 -0.5610
 6668TIP3    H241564   0.507   4.669   7.851  0.5816  0.0728  1.2945
 6669TIP3   OH241565   5.701   2.670   6.427 -0.1862 -0.0960  0.0627
 6669TIP3    H141566   5.687   2.663   6.521  1.2540  1.9150  0.5113
 6669TIP3    H241567   5.651   2.747   6.401  1.6821  1.1062 -0.1971
 6670TIP3   OH241568   2.959   1.309   6.852 -0.2807  1.0323 -0.4281
 6670TIP3    H141569   2.869   1.342   6.860 -0.3898  0.8276 -0.7960
 6670TIP3    H241570   2.985   1.332   6.763 -0.0832  0.7995 -0.4296
 6671TIP3   OH241571   4.323   3.775   2.222 -0.4777  0.0619 -1.1188
 6671TIP3    H141572   4.385   3.729   2.279  0.2102 -0.2106 -2.0583
 6671TIP3    H241573   4.239   3.735   2.242 -0.3154  0.2382 -0.0290
 6672TIP3   OH241574   0.803   0.950   1.242 -0.3163  0.4172 -0.3436
 6672TIP3    H141575   0.850   1.023   1.200  1.4855 -0.5054 -0.0551
 6672TIP3    H241576   0.817   0.963   1.335  1.1826 -0.9606 -0.3235
 6673TIP3   OH241577   5.614   1.559   6.539  0.2850  0.0041 -0.3574
 6673TIP3    H141578   5.542   1.530   6.596 -0.1818  0.4579 -0.7201
 6673TIP3    H241579   5.674   1.484   6.538  1.1989  0.5777  2.1566
 6674TIP3   OH241580   0.177   3.641   0.205 -0.1877  0.1000  0.4886
 6674TIP3    H141581   0.238   3.670   0.274  0.4253  1.5396 -0.6060
 6674TIP3    H241582   0.221   3.566   0.166 -0.2609 -0.3634  1.2736
 6675TIP3   OH241583   4.631   6.340   8.332  0.0875 -0.4017 -0.0225
 6675TIP3    H141584   4.670   6.315   8.415 -0.1900  2.0638  0.9336
 6675TIP3    H241585   4.538   6.318   8.341 -0.1085  0.6606  0.6996
 6676TIP3   OH241586   5.869   5.927   8.348 -0.4445 -0.3966 -0.4533
 6676TIP3    H141587   5.932   5.872   8.302  0.8689  0.9754 -0.3840
 6676TIP3    H241588   5.864   5.890   8.436 -0.3950 -1.0271 -0.7136
 6677TIP3   OH241589   5.956   0.799   1.165 -0.3459  0.1699  0.5490
 6677TIP3    H141590   6.032   0.843   1.128 -0.7395 -0.1252 -0.6587
 6677TIP3    H241591   5.946   0.838   1.252 -0.6854  2.5162 -0.4647
 6678TIP3   OH241592   0.713   3.093   0.928 -0.2820  0.5666 -1.3104
 6678TIP3    H141593   0.718   3.040   0.848 -0.0736 -0.6659 -0.5065
 6678TIP3    H241594   0.797   3.080   0.971 -1.5865 -1.7182  0.8540
 6679TIP3   OH241595   5.831   6.205   8.638  0.5266 -0.2797 -0.1365
 6679TIP3    H141596   5.907   6.227   8.583  0.1725 -0.0138 -0.5252
 6679TIP3    H241597   5.861   6.132   8.692  0.6962 -0.9219 -1.0813
 6680TIP3   OH241598   3.652   1.360   7.724  0.2838 -0.0252  0.7259
 6680TIP3    H141599   3.692   1.315   7.649 -0.5983  1.0815 -0.4363
 6680TIP3    H241600   3.714   1.344   7.795  0.5424 -2.1536  0.1174
 6681TIP3   OH241601   3.450   3.387   6.947  0.0995  0.1910  0.4975
 6681TIP3    H141602   3.541   3.387   6.917  0.4490  2.2957  1.3780
 6681TIP3    H241603   3.399   3.364   6.869  1.3411 -0.4260 -0.1550
 6682TIP3   OH241604   5.395   0.999   6.853 -0.3231  0.2480 -0.7796
 6682TIP3    H141605   5.356   1.077   6.892  1.0235  1.1181 -1.1029
 6682TIP3    H241606   5.338   0.927   6.880 -0.6926  1.1254  0.8687
 6683TIP3   OH241607   1.532   5.672   7.468 -0.1126 -0.1079  0.2957
 6683TIP3    H141608   1.612   5.620   7.473 -0.1980 -0.6641 -2.7014
 6683TIP3    H241609   1.462   5.608   7.460 -0.9688  0.3737  2.8454
 6684TIP3   OH241610   1.275   6.821   7.644 -0.1364 -0.2281  0.1477
 6684TIP3    H141611   1.370   6.813   7.651 -0.1498 -1.3068 -0.6923
 6684TIP3    H241612   1.253   6.778   7.561 -1.4481 -0.8509  0.7898
 6685TIP3   OH241613   5.807   5.497   0.558 -0.1535  0.1292 -0.7059
 6685TIP3    H141614   5.841   5.473   0.472 -0.6917 -0.5221 -0.7488
 6685TIP3    H241615   5.777   5.414   0.596  0.5746  0.3285  0.3360
 6686TIP3   OH241616   3.631   4.025   0.762 -0.3368  0.3871  0.4175
 6686TIP3    H141617   3.690   4.088   0.805 -0.8516 -0.1956  2.0526
 6686TIP3    H241618   3.689   3.953   0.735 -0.3352 -0.7690  3.1254
 6687TIP3   OH241619   5.480   6.413   7.622 -0.1542 -0.1912 -0.0769
 6687TIP3    H141620   5.427   6.344   7.662 -0.7233 -0.7884 -1.7703
 6687TIP3    H241621   5.422   6.454   7.558  0.0093  2.2449  1.2086
 6688TIP3   OH241622   1.922   0.485   1.709 -0.3219  0.4718  0.1900
 6688TIP3    H141623   1.882   0.550   1.767 -2.4974 -0.2742 -0.3945
 6688TIP3    H241624   1.853   0.462   1.647  1.0667 -0.8425 -0.9494
 6689TIP3   OH241625   0.195   1.404   7.800  0.0655 -0.5778 -0.0084
 6689TIP3    H141626   0.247   1.470   7.753  0.5489 -2.2972 -2.0539
 6689TIP3    H241627   0.137   1.455   7.857  2.0079  1.5002  0.2306
 6690TIP3   OH241628   6.159   0.857   1.516 -0.3241  0.3524 -0.6802
 6690TIP3    H141629   6.132   0.911   1.590 -1.0728 -1.0617  0.1248
 6690TIP3    H241630   6.255   0.859   1.519 -0.3460  0.4488  0.2219
 6691TIP3   OH241631   6.538   3.955   0.397 -0.6562 -0.1045 -0.0523
 6691TIP3    H141632   6.506   4.034   0.439 -0.0635  0.4333 -0.5957
 6691TIP3    H241633   6.633   3.966   0.393 -0.4903 -1.1263  0.4274
 6692TIP3   OH241634   5.334   2.860   2.658 -0.9692 -0.6813  0.2222
 6692TIP3    H141635   5.307   2.946   2.692  2.0821  2.3585 -3.8924
 6692TIP3    H241636   5.412   2.838   2.708  0.1441  0.7729 -0.7727
 6693TIP3   OH241637   3.725   0.386   0.278 -0.2565 -0.0467  0.2394
 6693TIP3    H141638   3.768   0.312   0.234 -3.3731 -0.3047 -2.7859
 6693TIP3    H241639   3.727   0.457   0.214 -1.1883  1.0593  1.3746
 6694TIP3   OH241640   6.350   2.830   7.000 -0.5708 -0.3948  0.0873
 6694TIP3    H141641   6.429   2.869   6.964 -0.4697 -1.5624 -1.0338
 6694TIP3    H241642   6.331   2.756   6.942 -1.9842 -0.6713  0.8477
 6695TIP3   OH241643   1.195   1.717   6.625 -0.3402 -0.4818  0.3805
 6695TIP3    H141644   1.276   1.688   6.583 -0.4389  0.4027 -0.4447
 6695TIP3    H241645   1.194   1.812   6.613 -2.1243 -0.5997 -0.7922
 6696TIP3   OH241646   1.142   3.666   7.755  0.0995  0.3120 -0.0551
 6696TIP3    H141647   1.169   3.690   7.843 -1.0997  1.5711  0.0043
 6696TIP3    H241648   1.056   3.707   7.744 -1.0352 -2.0585 -0.8452
 6697TIP3   OH241649   1.677   1.065   1.923 -0.3340 -0.3037  0.0419
 6697TIP3    H141650   1.708   0.984   1.963 -0.0280  0.2145  0.8918
 6697TIP3    H241651   1.626   1.108   1.991  1.8548  1.5682  0.6595
 6698TIP3   OH241652   4.083   0.085   8.182  0.2461  0.4807 -0.2236
 6698TIP3    H141653   4.103  -0.008   8.174 -0.2265  0.1115  2.0531
 6698TIP3    H241654   4.012   0.100   8.119  0.1026 -0.7824 -0.3957
 6699TIP3   OH241655   3.498   0.693   1.363  0.6049 -0.2752 -0.2770
 6699TIP3    H141656   3.430   0.724   1.421  1.0958 -0.9327  0.6811
 6699TIP3    H241657   3.467   0.607   1.333  1.4335 -1.0520  0.9787
 6700TIP3   OH241658   2.452   1.739   7.190 -0.0981 -0.0657 -0.2209
 6700TIP3    H141659   2.429   1.650   7.164 -0.4212 -0.2395  0.6526
 6700TIP3    H241660   2.538   1.753   7.150 -0.2116 -0.6287 -0.6825
 6701TIP3   OH241661   1.583   1.758   0.257  0.0739 -0.7917  0.4468
 6701TIP3    H141662   1.550   1.669   0.244 -0.4426 -0.3657 -1.5118
 6701TIP3    H241663   1.505   1.813   0.250  0.1967 -0.2179  2.8433
 6702TIP3   OH241664   0.631   0.356   6.773  0.0250 -0.0717  0.1172
 6702TIP3    H141665   0.725   0.366   6.755 -0.1688  0.4783 -0.6845
 6702TIP3    H241666   0.588   0.399   6.698 -0.8516  1.3936  1.3995
 6703TIP3   OH241667   1.305   6.083   1.088  0.3329 -0.3714 -0.0058
 6703TIP3    H141668   1.263   5.998   1.072 -2.0791  1.0181 -1.7563
 6703TIP3    H241669   1.232   6.142   1.108  1.7823  1.6159 -0.3337
 6704TIP3   OH241670   6.832   0.495   1.272 -0.9727  0.2876 -0.1517
 6704TIP3    H141671   6.815   0.571   1.327 -0.9612  0.1141  0.0953
 6704TIP3    H241672   6.884   0.528   1.199 -1.0192  0.5245 -0.0759
 6705TIP3   OH241673   3.830   3.193   2.113  0.1629 -0.0975 -0.0219
 6705TIP3    H141674   3.890   3.125   2.143  1.1705 -0.2206 -2.1073
 6705TIP3    H241675   3.864   3.219   2.027 -1.1536  1.8733 -0.0174
 6706TIP3   OH241676   0.181   0.016   8.127  0.7881 -0.0437  0.6557
 6706TIP3    H141677   0.131   0.060   8.059  1.0598 -0.7655 -0.0391
 6706TIP3    H241678   0.247   0.080   8.155  1.8407 -0.3081 -1.0579
 6707TIP3   OH241679   6.402   6.184   1.698  0.2222  0.2714  0.7044
 6707TIP3    H141680   6.316   6.151   1.724  0.5402 -1.0991  0.0597
 6707TIP3    H241681   6.460   6.162   1.771  0.7407 -1.9828 -0.3263
 6708TIP3   OH241682   3.578   2.182   7.725  0.8648 -0.1843 -0.3716
 6708TIP3    H141683   3.523   2.105   7.737  2.1810 -0.8270  2.3668
 6708TIP3    H241684   3.663   2.147   7.697  1.4588  0.1958  0.8365
 6709TIP3   OH241685   5.593   4.465   2.017  0.1654  0.7016  0.2086
 6709TIP3    H141686   5.556   4.505   2.096 -1.0065  1.4234 -0.6754
 6709TIP3    H241687   5.521   4.416   1.979  1.1246 -0.8632  0.3442
 6710TIP3   OH241688   1.105   3.451   0.504 -0.0714  0.7734  0.1558
 6710TIP3    H141689   1.191   3.455   0.544  0.2295 -1.4969 -0.1345
 6710TIP3    H241690   1.120   3.416   0.416 -1.2238  0.8870 -0.1135
 6711TIP3   OH241691   2.052   3.166   1.713 -0.0029 -0.2663  0.0124
 6711TIP3    H141692   2.104   3.246   1.709 -1.5748  0.9827  2.4596
 6711TIP3    H241693   2.105   3.105   1.765 -0.0379  0.2056  0.6006
 6712TIP3   OH241694   2.611   2.769   6.251 -0.1752  0.1230 -0.0633
 6712TIP3    H141695   2.640   2.687   6.210 -0.2597  0.2843 -0.4491
 6712TIP3    H241696   2.563   2.741   6.329  0.9415 -0.1463  0.5387
 6713TIP3   OH241697   0.318   4.816   7.475 -0.5180 -0.1933 -0.0525
 6713TIP3    H141698   0.360   4.865   7.405  2.0493  0.4217  1.7478
 6713TIP3    H241699   0.327   4.724   7.450  0.4421  0.0144 -0.5186
 6714TIP3   OH241700   3.308   4.413   2.806 -0.0980  0.5870  0.1858
 6714TIP3    H141701   3.254   4.378   2.876  1.3538  0.8940  1.5297
 6714TIP3    H241702   3.398   4.388   2.830  0.4903  1.1074 -1.3216
 6715TIP3   OH241703   4.714   5.270   0.679  0.2573 -0.1775 -0.2516
 6715TIP3    H141704   4.702   5.246   0.588 -0.0071  0.3130 -0.3537
 6715TIP3    H241705   4.777   5.207   0.714 -0.3537 -0.9480 -0.5234
 6716TIP3   OH241706   3.050   4.071   8.194 -0.1751 -0.3500 -0.9026
 6716TIP3    H141707   3.043   4.055   8.100  0.8491  1.3819 -1.3107
 6716TIP3    H241708   3.128   4.125   8.204  0.9678 -2.2289  1.2063
 6717TIP3   OH241709   3.198   6.373   7.601 -0.2581  0.8683 -0.7070
 6717TIP3    H141710   3.265   6.357   7.667  0.7293 -0.7656 -2.0468
 6717TIP3    H241711   3.237   6.436   7.541  0.9732 -1.6181 -2.6391
 6718TIP3   OH241712   5.779   4.968   0.412  0.4394 -0.3340  0.4293
 6718TIP3    H141713   5.699   5.008   0.446 -0.9116 -2.5843  0.1047
 6718TIP3    H241714   5.835   5.042   0.389 -1.6493  1.3309  0.3880
 6719TIP3   OH241715   3.978   5.852   7.601  0.3668 -0.0512  0.0030
 6719TIP3    H141716   3.914   5.846   7.672  0.2140  0.6504 -0.0724
 6719TIP3    H241717   4.015   5.763   7.594 -1.9149 -0.9780 -1.1865
 6720TIP3   OH241718   5.191   5.824   7.403 -0.7543 -0.1645  0.3273
 6720TIP3    H141719   5.108   5.821   7.356 -0.6989  1.8173 -0.0055
 6720TIP3    H241720   5.207   5.918   7.416  0.5643 -0.5675  1.9408
 6721TIP3   OH241721   1.968   2.519   7.609  0.2462 -0.1745  0.9381
 6721TIP3    H141722   1.996   2.428   7.599  0.1553 -0.0505 -0.6618
 6721TIP3    H241723   1.879   2.513   7.644 -0.6375 -0.8255 -1.2148
 6722TIP3   OH241724   3.022   0.090   1.090 -0.5058  0.1337  0.0457
 6722TIP3    H141725   3.055   0.179   1.077  1.3487 -0.4700  0.3725
 6722TIP3    H241726   2.991   0.062   1.004 -1.1384  1.0871 -0.0486
 6723TIP3   OH241727   0.533   3.884   8.149 -0.5330 -0.3761 -0.2561
 6723TIP3    H141728   0.486   3.967   8.144 -1.0676 -0.7059 -0.7902
 6723TIP3    H241729   0.601   3.899   8.215 -1.1852  0.2002  0.2998
 6724TIP3   OH241730   5.818   2.041   6.433  0.2512 -0.1198  0.3483
 6724TIP3    H141731   5.737   2.067   6.387 -0.2145  0.1589  1.2982
 6724TIP3    H241732   5.858   1.977   6.375  1.2805  2.4048 -1.9553
 6725TIP3   OH241733   1.527   1.435   0.588  0.1822  0.8860  0.3992
 6725TIP3    H141734   1.444   1.451   0.632 -0.3838  0.5151 -0.5183
 6725TIP3    H241735   1.566   1.522   0.579 -1.5600  1.5105 -1.9966
 6726TIP3   OH241736   2.533   0.413   1.648 -0.4726  0.6327 -0.5022
 6726TIP3    H141737   2.530   0.382   1.738  0.4578 -0.3652 -0.7860
 6726TIP3    H241738   2.530   0.508   1.655  0.5948  0.6121  0.6554
 6727TIP3   OH241739   1.963   5.243   2.456 -0.4695  0.1396 -0.2479
 6727TIP3    H141740   1.975   5.324   2.505  0.1194  0.1133 -0.3419
 6727TIP3    H241741   1.993   5.264   2.367 -2.6625  0.5458 -0.9384
 6728TIP3   OH241742   4.370   5.034   8.233 -0.0620 -0.1623 -0.3169
 6728TIP3    H141743   4.314   5.098   8.276  0.0337  0.1562 -0.6561
 6728TIP3    H241744   4.312   4.961   8.212  0.0037 -0.5437  0.8196
 6729TIP3   OH241745   2.224   2.348   2.596  0.1160  0.1694  0.4886
 6729TIP3    H141746   2.136   2.314   2.582 -0.2553  0.7395  1.3554
 6729TIP3    H241747   2.221   2.437   2.561  1.1306 -0.6652 -1.9230
 6730TIP3   OH241748   4.231   0.744   7.066  0.9107  0.4340 -0.1440
 6730TIP3    H141749   4.257   0.724   6.976  0.9093  2.2136 -0.5756
 6730TIP3    H241750   4.142   0.778   7.059  0.4711 -0.5200  0.6808
 6731TIP3   OH241751   2.024   5.767   1.939  0.1250  0.4085  0.4723
 6731TIP3    H141752   1.940   5.802   1.968 -0.0730 -1.2259  2.0470
 6731TIP3    H241753   2.005   5.676   1.915  1.3815  0.0996  0.5977
 6732TIP3   OH241754   0.725   6.403   1.991  0.5236 -0.4290  0.9823
 6732TIP3    H141755   0.750   6.434   1.904 -1.2005 -2.2797 -0.2842
 6732TIP3    H241756   0.692   6.314   1.976  0.4637 -0.9391  3.5959
 6733TIP3   OH241757   1.771   1.233   7.179 -0.8358 -0.3859  0.1440
 6733TIP3    H141758   1.703   1.178   7.217 -0.5734 -0.9385 -0.1742
 6733TIP3    H241759   1.727   1.280   7.108 -1.1257  0.0233  0.5906
 6734TIP3   OH241760   6.685   1.747   1.513 -0.2415 -0.1305 -0.7549
 6734TIP3    H141761   6.699   1.685   1.584  0.8942 -0.8576 -1.5674
 6734TIP3    H241762   6.773   1.765   1.479 -0.5659  1.7002 -0.7529
 6735TIP3   OH241763   1.049   2.379   6.751 -0.0943  0.0671 -0.5421
 6735TIP3    H141764   0.959   2.410   6.756  0.4296  1.6073 -0.2288
 6735TIP3    H241765   1.041   2.284   6.742 -1.7752  0.2802 -1.8303
 6736TIP3   OH241766   0.048   6.326   8.424 -0.5442  0.1196  0.0245
 6736TIP3    H141767   0.090   6.387   8.485  0.2858 -0.0511 -0.3693
 6736TIP3    H241768  -0.045   6.328   8.449 -0.2293  0.0318  1.3149
 6737TIP3   OH241769   2.226   5.558   1.461  0.8009 -0.1244 -0.4312
 6737TIP3    H141770   2.266   5.550   1.548  0.8017  0.6598 -0.3560
 6737TIP3    H241771   2.216   5.467   1.431 -1.2638 -0.5472  1.3149
 6738TIP3   OH241772   0.256   0.730   1.538 -0.3639 -0.1556  0.0993
 6738TIP3    H141773   0.208   0.812   1.545 -0.2430 -0.1114  0.4380
 6738TIP3    H241774   0.282   0.710   1.628 -2.8312 -2.0574  0.4901
 6739TIP3   OH241775   2.058   0.722   2.061  0.3116  0.0113 -0.7497
 6739TIP3    H141776   2.065   0.628   2.077 -1.5182 -0.1859 -0.8891
 6739TIP3    H241777   1.979   0.731   2.007  0.1174  1.6724 -0.2440
 6740TIP3   OH241778   5.645   3.375   7.459  0.0850 -0.8011  0.1450
 6740TIP3    H141779   5.608   3.424   7.386 -0.1020 -0.9911  0.1109
 6740TIP3    H241780   5.586   3.300   7.470 -0.8065  0.0581  1.5220
 6741TIP3   OH241781   3.875   4.853   1.701  0.4291  0.3765 -0.2437
 6741TIP3    H141782   3.898   4.936   1.660  1.7716  0.1863  0.0918
 6741TIP3    H241783   3.873   4.790   1.629  0.7754  0.4307 -0.2991
 6742TIP3   OH241784   4.415   3.483   2.159 -0.0518 -0.0708 -0.1445
 6742TIP3    H141785   4.341   3.517   2.210 -2.4724  0.9594 -3.8743
 6742TIP3    H241786   4.377   3.413   2.106  1.6088  0.4317 -2.1275
 6743TIP3   OH241787   2.456   2.927   7.419 -0.0266 -0.5066  0.2713
 6743TIP3    H141788   2.467   2.836   7.393 -0.3241 -1.0585  1.9708
 6743TIP3    H241789   2.361   2.940   7.421  0.0082  0.2179 -1.0752
 6744TIP3   OH241790   1.418   1.538   1.685 -0.4375 -0.1701  1.3274
 6744TIP3    H141791   1.376   1.490   1.756 -1.6150  0.4968  1.1171
 6744TIP3    H241792   1.355   1.607   1.663  0.7983  0.8914  1.0055
 6745TIP3   OH241793   1.402   2.057   7.993  0.2195 -0.2301 -0.0356
 6745TIP3    H141794   1.397   2.014   7.908 -0.7260 -2.5765  1.0925
 6745TIP3    H241795   1.417   1.985   8.055  0.7465  1.3738  1.8099
 6746TIP3   OH241796   4.308   5.323   8.077 -0.0859  0.7710 -0.4484
 6746TIP3    H141797   4.354   5.306   7.995  0.0483  2.1731 -0.6958
 6746TIP3    H241798   4.375   5.360   8.135 -0.3757  0.6156 -0.0070
 6747TIP3   OH241799   1.162   2.050   0.148 -0.5576 -0.0668 -0.2670
 6747TIP3    H141800   1.175   2.145   0.152 -1.3334  0.1439 -1.9331
 6747TIP3    H241801   1.180   2.020   0.237 -1.3274  1.7655  0.5671
 6748TIP3   OH241802   0.345   0.118   7.301  0.0036  0.7639 -0.4467
 6748TIP3    H141803   0.344   0.097   7.207  0.1104 -2.4662  0.1414
 6748TIP3    H241804   0.436   0.100   7.328 -0.3771  0.1972  0.5110
 6749TIP3   OH241805   6.824   2.049   0.301  0.0636 -1.1404 -0.5279
 6749TIP3    H141806   6.789   2.095   0.225  0.8273 -1.5385 -1.1255
 6749TIP3    H241807   6.906   2.010   0.271  0.4934 -1.1174  0.5545
 6750TIP3   OH241808   0.427   3.944   2.278 -0.2863  0.0898 -0.4857
 6750TIP3    H141809   0.422   3.871   2.216 -1.4625  1.3382 -1.9754
 6750TIP3    H241810   0.521   3.959   2.291 -0.0183 -1.7859  0.0463
 6751TIP3   OH241811   5.599   2.392   0.813  0.4335  0.2654 -0.1052
 6751TIP3    H141812   5.650   2.392   0.894 -0.1012 -0.2867  0.2365
 6751TIP3    H241813   5.508   2.405   0.842  0.1016 -1.0019 -0.5175
 6752TIP3   OH241814   2.819   2.836   1.482  0.2975 -0.1243  0.1828
 6752TIP3    H141815   2.816   2.892   1.560  1.7937 -0.7456  0.7092
 6752TIP3    H241816   2.885   2.876   1.426 -0.7314  0.2864 -0.7846
 6753TIP3   OH241817   3.498   1.132   2.475  0.0615 -0.2244 -0.1148
 6753TIP3    H141818   3.409   1.097   2.463  0.3190 -1.5405  1.3130
 6753TIP3    H241819   3.527   1.091   2.557  1.8873  0.3942 -0.4251
 6754TIP3   OH241820   2.723   1.575   7.920  0.2237 -0.2894 -0.0863
 6754TIP3    H141821   2.698   1.666   7.905  0.8230 -0.0543  0.3124
 6754TIP3    H241822   2.761   1.546   7.836 -0.4347 -0.3415 -0.3759
 6755TIP3   OH241823   0.309   6.169   7.597 -0.2142 -0.3173 -0.1923
 6755TIP3    H141824   0.399   6.200   7.586 -0.9954  2.2136 -0.2229
 6755TIP3    H241825   0.289   6.185   7.689 -0.6342 -0.8850 -0.1783
 6756TIP3   OH241826   6.092   4.755   2.026  0.1124  0.1894  0.1466
 6756TIP3    H141827   6.089   4.848   2.049 -2.2573  0.3229 -0.4560
 6756TIP3    H241828   6.002   4.725   2.038  0.6150 -1.7804 -0.7123
 6757TIP3   OH241829   4.238   1.882   6.909 -0.0990  0.7719  0.7245
 6757TIP3    H141830   4.180   1.947   6.870  2.3169  2.0962 -0.9317
 6757TIP3    H241831   4.264   1.920   6.994 -1.6306  0.1220  1.5216
 6758TIP3   OH241832   4.006   0.927   2.476  0.2398 -0.2089  0.0059
 6758TIP3    H141833   3.921   0.966   2.457 -1.2345 -2.2495  1.9159
 6758TIP3    H241834   4.059   0.946   2.398 -1.8663  1.2798 -1.1707
 6759TIP3   OH241835   2.472   6.530   2.231 -0.1604  0.3930  0.1248
 6759TIP3    H141836   2.561   6.523   2.198 -0.2202 -0.3708  0.1189
 6759TIP3    H241837   2.466   6.620   2.265  0.7226  0.3179  0.4888
 6760TIP3   OH241838   3.105   6.320   8.637  0.4254  0.2909 -0.5399
 6760TIP3    H141839   3.141   6.233   8.619  0.6782  0.3350 -0.2531
 6760TIP3    H241840   3.141   6.375   8.567  1.0368  0.3623 -0.1803
 6761TIP3   OH241841   1.331   5.387   6.695 -0.1880  0.6951  0.3547
 6761TIP3    H141842   1.236   5.392   6.700 -0.4422 -2.0026 -0.2219
 6761TIP3    H241843   1.349   5.380   6.601  0.5073  0.4894  0.4975
 6762TIP3   OH241844   1.650   6.358   7.300  0.0308  0.1352  0.3596
 6762TIP3    H141845   1.598   6.297   7.247 -1.9036  0.7896  1.3945
 6762TIP3    H241846   1.739   6.351   7.265 -1.0659  0.3212 -2.7873
 6763TIP3   OH241847   3.233   2.905   0.416  0.0987 -0.7820  0.0582
 6763TIP3    H141848   3.319   2.898   0.458 -0.0297  1.4933  0.8362
 6763TIP3    H241849   3.180   2.956   0.478 -1.6399 -1.5726 -0.6972
 6764TIP3   OH241850   5.582   0.661   0.894 -0.0378 -0.4984  0.4095
 6764TIP3    H141851   5.595   0.754   0.880 -0.7090 -0.0421  2.5263
 6764TIP3    H241852   5.642   0.638   0.965 -0.3220 -1.5512  0.3377
 6765TIP3   OH241853   6.105   5.606   1.760  0.1007 -0.2489  0.4219
 6765TIP3    H141854   6.063   5.587   1.844  1.2074 -0.7539  0.8843
 6765TIP3    H241855   6.190   5.562   1.766  0.9091  1.1684 -0.2763
 6766TIP3   OH241856   2.962   0.629   6.553 -0.1475  0.7380 -0.1421
 6766TIP3    H141857   2.927   0.578   6.626 -0.7524 -0.5258 -1.2719
 6766TIP3    H241858   3.056   0.612   6.554 -0.5563 -2.1318 -1.7049
 6767TIP3   OH241859   5.045   4.572   0.953 -0.3164 -0.2391  0.9179
 6767TIP3    H141860   5.011   4.602   0.869 -0.1336  0.6822  1.1594
 6767TIP3    H241861   4.967   4.545   1.002 -0.5459  0.3567  0.8884
 6768TIP3   OH241862   2.881   5.631   7.360 -0.5068  0.3215 -0.7508
 6768TIP3    H141863   2.795   5.646   7.399 -0.8133 -0.5960 -1.0422
 6768TIP3    H241864   2.875   5.670   7.272 -0.6405  0.2298 -0.7829
 6769TIP3   OH241865   5.239   5.478   7.032 -0.0053  0.3189  0.6123
 6769TIP3    H141866   5.146   5.455   7.030  0.0598 -0.2996  2.5288
 6769TIP3    H241867   5.240   5.571   7.055 -0.1627  0.2047  1.1069
 6770TIP3   OH241868   5.961   1.653   8.653 -0.3500  0.2519 -0.1316
 6770TIP3    H141869   6.029   1.592   8.626  0.4401  0.8711  0.4132
 6770TIP3    H241870   6.007   1.719   8.705 -0.9560  1.9675 -1.6717
 6771TIP3   OH241871   0.137   3.685   0.658  0.5741  0.6132  0.0110
 6771TIP3    H141872   0.158   3.610   0.602  0.0265  0.4152  0.0654
 6771TIP3    H241873   0.222   3.722   0.681  0.8157  0.6630 -0.9047
 6772TIP3   OH241874   2.399   2.625   1.340 -0.0581 -0.3979 -0.0346
 6772TIP3    H141875   2.348   2.666   1.410  0.4205  0.2190 -0.0438
 6772TIP3    H241876   2.464   2.690   1.315  0.3594 -0.9526 -0.4394
 6773TIP3   OH241877   0.656   2.058   7.943 -0.1139 -0.5656 -0.4160
 6773TIP3    H141878   0.589   1.993   7.921  0.5849 -0.9251 -1.5304
 6773TIP3    H241879   0.738   2.010   7.941  0.5481  0.5278 -2.3901
 6774TIP3   OH241880   4.167   6.807   1.061  0.1614  0.0827 -0.3448
 6774TIP3    H141881   4.129   6.733   1.015 -0.2695  0.4291 -0.5588
 6774TIP3    H241882   4.259   6.807   1.036  0.4840 -1.1681  0.6962
 6775TIP3   OH241883   2.744   1.649   1.079 -0.5147  0.5054 -0.0982
 6775TIP3    H141884   2.713   1.719   1.021  0.1527  0.2118 -0.8309
 6775TIP3    H241885   2.827   1.681   1.113  0.0730 -0.1439 -0.8765
 6776TIP3   OH241886   4.041   0.427   0.138  0.4858  0.0609  0.3951
 6776TIP3    H141887   4.005   0.514   0.151  1.4065  0.3652  1.0519
 6776TIP3    H241888   4.074   0.402   0.225  0.3243 -0.8953  0.1929
 6777TIP3   OH241889   2.519   3.433   0.269  0.3892  0.2004  0.4996
 6777TIP3    H141890   2.501   3.352   0.222  1.3764  0.1070  0.2595
 6777TIP3    H241891   2.611   3.426   0.294  0.7847  1.6845 -0.4229
 6778TIP3   OH241892   5.876   5.862   7.507  0.5155  0.2331  0.1681
 6778TIP3    H141893   5.916   5.948   7.519  1.1123 -0.0002 -0.1182
 6778TIP3    H241894   5.902   5.835   7.419  0.1532 -0.1490  0.1740
 6779TIP3   OH241895   5.570   4.431   0.775 -0.1256  0.1216 -0.2633
 6779TIP3    H141896   5.635   4.486   0.731 -1.2389 -0.2738 -2.5407
 6779TIP3    H241897   5.518   4.493   0.826 -0.1413  0.9432 -1.2423
 6780TIP3   OH241898   3.813   0.741   2.193 -0.7148 -0.4964  0.2936
 6780TIP3    H141899   3.759   0.693   2.130  0.9810 -0.3346 -1.3742
 6780TIP3    H241900   3.828   0.678   2.264  1.2431 -2.4563 -1.7058
 6781TIP3   OH241901   6.444   1.958   1.021 -0.0400  0.2313  0.0752
 6781TIP3    H141902   6.526   1.911   1.033  1.2870  2.1103 -1.0841
 6781TIP3    H241903   6.436   1.970   0.926 -0.9476  1.2794  0.2578
 6782TIP3   OH241904   6.503   5.781   7.910  0.8865  0.1845 -0.0142
 6782TIP3    H141905   6.572   5.845   7.927  0.6890 -0.0609  1.8834
 6782TIP3    H241906   6.422   5.827   7.932  0.8262 -1.0748  2.8130
 6783TIP3   OH241907   4.187   2.197   7.458 -0.8469 -0.2381 -0.5486
 6783TIP3    H141908   4.163   2.258   7.389 -1.1629 -0.7021 -0.8568
 6783TIP3    H241909   4.248   2.136   7.417  0.8213  0.8511  0.1940
 6784TIP3   OH241910   1.878   0.734   6.836  0.1870  0.4293 -0.4813
 6784TIP3    H141911   1.973   0.728   6.839  0.1830  0.7838  0.7894
 6784TIP3    H241912   1.852   0.674   6.765  1.1263 -2.5499  1.4778
 6785TIP3   OH241913   5.101   2.804   1.515 -0.5531  0.0699 -0.0410
 6785TIP3    H141914   5.159   2.868   1.557 -0.5748 -0.7566  1.2729
 6785TIP3    H241915   5.157   2.761   1.451  1.0830 -2.3470  2.7697
 6786TIP3   OH241916   0.985   6.089   1.247 -0.5981 -0.1470  0.4116
 6786TIP3    H141917   1.048   6.023   1.277  1.4021  1.2858 -0.4048
 6786TIP3    H241918   0.938   6.115   1.326 -0.6673 -1.7288  0.9265
 6787TIP3   OH241919   0.726   1.119   8.477 -0.3572 -0.1493 -0.4781
 6787TIP3    H141920   0.808   1.080   8.507 -0.8522 -2.8489 -2.2342
 6787TIP3    H241921   0.662   1.095   8.544 -0.4371 -1.5998 -1.0221
 6788TIP3   OH241922   4.168   3.112   1.866 -0.1913 -0.5278 -0.3575
 6788TIP3    H141923   4.215   3.085   1.787  2.3154 -0.6452  1.1009
 6788TIP3    H241924   4.143   3.030   1.909  1.8814 -0.5617  0.8832
 6789TIP3   OH241925   5.030   0.585   1.147  0.1165 -0.0302 -0.0325
 6789TIP3    H141926   4.971   0.510   1.155 -0.0791  0.1652  0.3465
 6789TIP3    H241927   4.972   0.661   1.137  0.2693  0.3118  1.4990
 6790TIP3   OH241928   6.100   4.386   7.198  0.3997  0.3842 -0.6336
 6790TIP3    H141929   6.094   4.300   7.158 -0.2562 -0.4263  1.0884
 6790TIP3    H241930   6.015   4.399   7.240  0.7817  1.4959 -0.1626
 6791TIP3   OH241931   6.061   0.916   6.750  0.6268  0.2183 -0.1653
 6791TIP3    H141932   5.997   0.986   6.735  0.8197  0.4582  0.1161
 6791TIP3    H241933   6.088   0.927   6.841  0.2613 -0.5640  0.0417
 6792TIP3   OH241934   1.197   6.710   0.089  0.3488  0.4010  0.6560
 6792TIP3    H141935   1.235   6.654   0.021 -0.3629 -0.7621  1.1902
 6792TIP3    H241936   1.164   6.786   0.042  1.9326  0.7130 -0.0107
 6793TIP3   OH241937   0.321   1.607   8.428  0.5517  0.0606  0.1905
 6793TIP3    H141938   0.333   1.517   8.395 -1.0345 -0.7462  1.6500
 6793TIP3    H241939   0.347   1.663   8.354  0.2265 -1.5975 -1.2616
 6794TIP3   OH241940   2.630   0.759   6.520  0.0158 -0.2495  0.0810
 6794TIP3    H141941   2.632   0.757   6.424  3.2792 -0.7281  0.0691
 6794TIP3    H241942   2.646   0.669   6.547 -1.5742 -0.2652  1.1701
 6795TIP3   OH241943   4.379   0.649   7.726  0.1484 -0.7382 -0.2340
 6795TIP3    H141944   4.405   0.557   7.723 -2.4539 -1.5324 -0.5863
 6795TIP3    H241945   4.313   0.653   7.796 -1.0376  0.4842 -1.3763
 6796TIP3   OH241946   2.900   3.841   2.603  0.1644 -0.4034  0.2556
 6796TIP3    H141947   2.887   3.757   2.648 -0.3462  0.0470  0.9772
 6796TIP3    H241948   2.991   3.839   2.575 -0.3948 -2.1314 -1.7137
 6797TIP3   OH241949   0.189   2.326   0.012  0.2437  0.8671 -0.0326
 6797TIP3    H141950   0.154   2.353  -0.073 -0.9586  1.9434  0.7637
 6797TIP3    H241951   0.229   2.405   0.048  0.0446  0.6292  0.7347
 6798TIP3   OH241952   6.832   2.871   7.161  0.3535  0.3046  0.0735
 6798TIP3    H141953   6.743   2.854   7.193  0.2860  1.0968  0.3207
 6798TIP3    H241954   6.818   2.912   7.075  0.4746  0.6273  0.2080
 6799TIP3   OH241955   0.989   6.204   6.333  0.3825  0.4415  0.2969
 6799TIP3    H141956   0.910   6.162   6.298 -0.0510  1.5061 -0.0616
 6799TIP3    H241957   0.983   6.294   6.302  3.3523 -0.1416 -2.4523
 6800TIP3   OH241958   2.514   2.560   1.711  0.1930  0.2770 -0.9383
 6800TIP3    H141959   2.554   2.588   1.794 -2.5537  2.0657 -0.0989
 6800TIP3    H241960   2.493   2.468   1.725  0.4792  0.3462  0.0639
 6801TIP3   OH241961   1.861   2.696   8.251 -0.7299  0.7396  0.6537
 6801TIP3    H141962   1.952   2.712   8.277 -0.9678  3.3270  0.1212
 6801TIP3    H241963   1.844   2.606   8.279  1.8031  0.3821  1.2864
 6802TIP3   OH241964   1.208   3.016   8.194 -0.1777  0.3538 -0.2894
 6802TIP3    H141965   1.286   3.053   8.236  0.5981 -0.4736 -0.9815
 6802TIP3    H241966   1.228   3.017   8.101 -1.3730  0.9651 -0.5637
 6803TIP3   OH241967   6.047   2.478   0.033 -0.3969 -0.0949  0.1020
 6803TIP3    H141968   6.027   2.494  -0.059  2.8316 -1.5639 -0.9785
 6803TIP3    H241969   6.083   2.389   0.035  0.2400  0.1447  2.6877
 6804TIP3   OH241970   2.026   2.643   0.027  0.3411  0.5236  0.6900
 6804TIP3    H141971   2.070   2.728   0.023  0.7725  0.3279  1.1696
 6804TIP3    H241972   2.001   2.634   0.119  1.2728 -0.3514  0.8713
 6805TIP3   OH241973   4.599   4.000   0.437  0.1485 -0.1451  0.2036
 6805TIP3    H141974   4.574   3.910   0.414  0.7507  0.2005 -2.0602
 6805TIP3    H241975   4.682   3.990   0.483  1.0823 -0.7053 -1.5161
 6806TIP3   OH241976   2.571   3.232   0.089 -0.0765  0.1075  0.0136
 6806TIP3    H141977   2.665   3.242   0.075 -0.3037 -0.2542 -2.0867
 6806TIP3    H241978   2.536   3.210   0.003 -2.2546  1.4218  0.4776
 6807TIP3   OH241979   0.689   0.032   0.618  0.3670 -0.1584  0.2058
 6807TIP3    H141980   0.770   0.005   0.575  0.2954 -0.2280  0.1124
 6807TIP3    H241981   0.704   0.122   0.646  0.7588 -0.4288  0.8844
 6808TIP3   OH241982   5.699   6.242   0.441 -0.2052  0.1919  0.0520
 6808TIP3    H141983   5.614   6.205   0.466  0.1185  0.2387  1.2686
 6808TIP3    H241984   5.725   6.193   0.363 -0.5710 -0.9669  0.6476
 6809TIP3   OH241985   2.129   0.535   1.091  0.6224  0.1535  0.3245
 6809TIP3    H141986   2.143   0.484   1.171  0.1972 -1.1473 -0.4108
 6809TIP3    H241987   2.217   0.566   1.068  0.7752  0.4206  1.1931
 6810TIP3   OH241988   6.210   6.149   7.489  0.1189  0.2604  0.1103
 6810TIP3    H141989   6.150   6.203   7.539  0.7193  0.5753  0.5093
 6810TIP3    H241990   6.203   6.182   7.399  0.5727  1.1030  0.3705
 6811TIP3   OH241991   5.996   2.250   8.493  0.2973 -0.2963  0.6459
 6811TIP3    H141992   6.077   2.206   8.517  1.2531  0.9225 -0.2782
 6811TIP3    H241993   6.023   2.334   8.457 -1.3356 -0.1621 -0.3709
 6812TIP3   OH241994   3.080   4.638   1.697 -0.5357 -0.4136 -0.3586
 6812TIP3    H141995   3.097   4.671   1.785 -3.1147 -0.4242  0.2135
 6812TIP3    H241996   3.130   4.556   1.692  1.1789  0.5396  0.3474
 6813TIP3   OH241997   5.452   4.248   8.368  0.5678 -0.1270 -0.1629
 6813TIP3    H141998   5.547   4.249   8.384  0.9020 -2.4606 -1.5252
 6813TIP3    H241999   5.441   4.295   8.286  0.5386  0.2433  0.0541
 6814TIP3   OH242000   3.941   4.575   7.952  0.0847 -0.2796 -0.3138
 6814TIP3    H142001   4.020   4.554   7.901  1.2789 -0.0645  1.3747
 6814TIP3    H242002   3.933   4.503   8.014 -0.2705  0.3625  0.4051
 6815TIP3   OH242003   3.695   5.734   0.744 -0.4494  0.3812 -0.2144
 6815TIP3    H142004   3.650   5.672   0.687 -1.7060  1.7009 -0.7114
 6815TIP3    H242005   3.786   5.734   0.713 -0.6438 -0.5019 -0.7980
 6816TIP3   OH242006   4.569   1.170   1.250 -0.5048 -0.2424 -0.1796
 6816TIP3    H142007   4.506   1.135   1.187 -0.3816  0.6755 -0.8332
 6816TIP3    H242008   4.636   1.213   1.196 -0.6206  0.9349  0.5782
 6817TIP3   OH242009   1.341   0.808   0.778  0.4984 -0.4772  0.7631
 6817TIP3    H142010   1.355   0.902   0.762  1.8622 -0.6589  0.7774
 6817TIP3    H242011   1.331   0.771   0.690 -0.5002 -0.2742  0.7740
 6818TIP3   OH242012   4.779   5.613   0.878  0.1298  0.2018  0.6684
 6818TIP3    H142013   4.858   5.560   0.888  0.8004  1.3509  1.8923
 6818TIP3    H242014   4.796   5.666   0.799  0.2485 -0.0956  0.4938
 6819TIP3   OH242015   5.681   3.986   7.693 -0.0758  0.2877 -0.0667
 6819TIP3    H142016   5.595   3.972   7.734  0.0849  0.7626  0.4442
 6819TIP3    H242017   5.727   4.043   7.754  0.9987 -0.8106  0.1738
 6820TIP3   OH242018   5.610   5.753   0.799 -0.8026 -0.3851 -0.2270
 6820TIP3    H142019   5.668   5.821   0.765 -0.5626  0.1082  1.1128
 6820TIP3    H242020   5.524   5.775   0.764 -0.8582  1.0266  0.7465
 6821TIP3   OH242021   2.272   5.146   0.716  0.7037 -0.1216  0.2785
 6821TIP3    H142022   2.209   5.103   0.774  1.1018  0.7680  1.4359
 6821TIP3    H242023   2.281   5.087   0.642  0.1846 -1.3366  1.1392
 6822TIP3   OH242024   4.816   1.310   7.663 -0.2709 -0.0963 -0.2727
 6822TIP3    H142025   4.877   1.270   7.724  0.4098 -0.7215 -1.3293
 6822TIP3    H242026   4.868   1.329   7.585 -1.1066  0.6962 -0.6579
 6823TIP3   OH242027   2.453   6.770   7.872 -0.3901  0.2894  0.4053
 6823TIP3    H142028   2.393   6.782   7.798  1.3128 -0.5524 -1.1908
 6823TIP3    H242029   2.450   6.676   7.890 -1.1498  0.5489  1.7661
 6824TIP3   OH242030   6.036   5.344   0.917  0.0694 -0.9642 -0.0060
 6824TIP3    H142031   5.987   5.426   0.925  0.3294 -0.8644  0.5807
 6824TIP3    H242032   5.969   5.276   0.928 -0.1815 -0.8398 -0.7054
 6825TIP3   OH242033   1.559   0.172   8.635  0.0110  0.4094  0.6217
 6825TIP3    H142034   1.595   0.099   8.685  0.5564  0.1905 -0.0716
 6825TIP3    H242035   1.636   0.214   8.596 -0.3973  0.5537 -0.0553
 6826TIP3   OH242036   1.346   6.284   0.764 -0.2732  0.5610 -0.0280
 6826TIP3    H142037   1.336   6.291   0.860 -3.8434  0.5992 -0.2373
 6826TIP3    H242038   1.368   6.373   0.736 -0.6693  0.8975  0.6756
 6827TIP3   OH242039   3.051   1.235   7.827  0.6186  0.3153  0.5488
 6827TIP3    H142040   3.078   1.180   7.900  0.7733 -0.6577 -0.2060
 6827TIP3    H242041   2.990   1.180   7.778 -1.3532  1.8122  1.2234
 6828TIP3   OH242042   3.937   0.688   0.173 -0.9890 -0.0040  0.0609
 6828TIP3    H142043   3.855   0.706   0.219 -0.4323 -0.9642  1.4961
 6828TIP3    H242044   3.980   0.773   0.165 -2.1605  0.5258 -0.8139
 6829TIP3   OH242045   3.675   3.418   7.372  0.5274 -0.5506 -0.2615
 6829TIP3    H142046   3.749   3.431   7.313  1.2916 -1.4696  0.4486
 6829TIP3    H242047   3.679   3.491   7.433  0.2835 -0.0938 -0.7881
 6830TIP3   OH242048   2.188   0.004   2.136 -0.6049  0.1847 -0.3653
 6830TIP3    H142049   2.108  -0.018   2.184 -1.7551  1.0087 -1.8215
 6830TIP3    H242050   2.166  -0.014   2.044  1.1798 -0.3798 -0.7132
 6831TIP3   OH242051   0.593   1.994   1.071  0.1952 -0.1606  0.0438
 6831TIP3    H142052   0.584   1.936   1.147 -0.8971  0.2861  0.2732
 6831TIP3    H242053   0.524   1.965   1.011 -0.8165  1.3242  0.4533
 6832TIP3   OH242054   4.587   5.712   7.868 -0.5779 -0.6585 -0.9214
 6832TIP3    H142055   4.522   5.683   7.933 -1.0669  2.1301  0.0016
 6832TIP3    H242056   4.671   5.695   7.910 -0.8153 -1.2626 -0.6794
 6833TIP3   OH242057   1.275   0.746   6.886 -0.5152 -0.4786  0.3094
 6833TIP3    H142058   1.352   0.700   6.853 -0.7455 -0.7218  0.1048
 6833TIP3    H242059   1.310   0.826   6.926  0.0728 -1.6442  2.2298
 6834TIP3   OH242060   3.563   3.086   2.137 -0.3735  0.9261 -0.3356
 6834TIP3    H142061   3.649   3.126   2.124 -1.2997  3.2162  0.0903
 6834TIP3    H242062   3.578   3.014   2.198  1.2388  1.2267 -0.3382
 6835TIP3   OH242063   5.399   4.871   1.346  0.2584  0.3376  0.1179
 6835TIP3    H142064   5.443   4.878   1.431  2.1143 -0.3497 -0.7305
 6835TIP3    H242065   5.471   4.865   1.283 -1.0214 -2.4470 -1.2452
 6836TIP3   OH242066   5.934   4.675   6.509  0.3563  0.1242  0.4881
 6836TIP3    H142067   6.016   4.692   6.463 -0.2358  0.9451 -0.2898
 6836TIP3    H242068   5.878   4.750   6.487 -1.2404 -1.2849 -0.4573
 6837TIP3   OH242069   0.525   6.379   8.303  0.4159 -0.1289  0.3873
 6837TIP3    H142070   0.593   6.358   8.239 -0.1597  2.5288 -1.2255
 6837TIP3    H242071   0.548   6.466   8.335 -1.5300  0.2944  0.7670
 6838TIP3   OH242072   1.731   5.841   7.498  0.3899  0.0053  0.0759
 6838TIP3    H142073   1.783   5.868   7.422 -1.9350  1.9691 -0.9648
 6838TIP3    H242074   1.661   5.788   7.461  0.3051 -0.6569  1.1383
 6839TIP3   OH242075   4.815   5.000   0.750  0.3947 -0.2107 -0.0016
 6839TIP3    H142076   4.740   4.959   0.794 -1.0805 -0.6559 -2.7066
 6839TIP3    H242077   4.812   4.966   0.661  1.3633  2.8948 -1.3504
 6840TIP3   OH242078   1.190   5.442   0.805  0.3909  0.2771  0.3592
 6840TIP3    H142079   1.219   5.448   0.714  1.5059 -1.0583  0.5742
 6840TIP3    H242080   1.188   5.348   0.823 -0.5891  0.4900  1.4863
 6841TIP3   OH242081   4.222   5.530   1.173  0.1297 -0.0953 -0.3437
 6841TIP3    H142082   4.280   5.593   1.215 -0.2058 -0.5509  0.8414
 6841TIP3    H242083   4.154   5.584   1.133  0.1516  0.3335  0.1776
 6842TIP3   OH242084   2.466   1.455   6.713 -0.1434 -0.6151  0.1501
 6842TIP3    H142085   2.439   1.504   6.790 -1.5702  1.5697 -1.6006
 6842TIP3    H242086   2.432   1.366   6.727 -0.6071 -0.2013  1.8797
 6843TIP3   OH242087   2.694   0.082   0.162  0.4125  0.2638  0.0862
 6843TIP3    H142088   2.740   0.166   0.161 -1.8214  1.9594  5.2471
 6843TIP3    H242089   2.760   0.019   0.193  1.2658  0.7341 -0.7036
 6844TIP3   OH242090   2.799   4.511   0.771  0.3638 -0.2030 -0.5682
 6844TIP3    H142091   2.765   4.502   0.860 -0.6237  1.8805 -0.6765
 6844TIP3    H242092   2.780   4.427   0.730 -0.7296 -0.6109  0.6957
 6845TIP3   OH242093   0.310   5.338   7.884 -0.1632 -0.1722 -0.2393
 6845TIP3    H142094   0.316   5.367   7.793 -0.2253 -0.1536 -0.2377
 6845TIP3    H242095   0.384   5.278   7.896  1.0446  1.3479  0.2533
 6846TIP3   OH242096   5.505   2.451   7.240  0.0657  0.2746  0.1100
 6846TIP3    H142097   5.569   2.509   7.281  0.4218  1.2349 -1.6819
 6846TIP3    H242098   5.447   2.510   7.191 -0.6549 -0.7538 -0.3150
 6847TIP3   OH242099   1.835   4.921   6.971  0.3346 -0.3760 -0.3295
 6847TIP3    H142100   1.750   4.963   6.957  0.7543  0.7309  0.3213
 6847TIP3    H242101   1.899   4.981   6.934  0.8477 -1.1894 -0.7906
 6848TIP3   OH242102   0.071   3.266   1.755  0.3203 -0.1162  0.3345
 6848TIP3    H142103  -0.001   3.327   1.739  0.4167  0.9294  3.2547
 6848TIP3    H242104   0.028   3.184   1.779  0.0814  0.3161  1.4253
 6849TIP3   OH242105   2.326   5.918   0.598  0.0973 -0.3981  0.7433
 6849TIP3    H142106   2.369   5.960   0.524 -0.1713 -0.4648  0.5451
 6849TIP3    H242107   2.234   5.944   0.590  0.5481  2.2951  2.9049
 6850TIP3   OH242108   0.495   3.709   1.654  0.0386  0.2942  0.4012
 6850TIP3    H142109   0.577   3.710   1.703 -0.0634 -1.5291  0.7006
 6850TIP3    H242110   0.427   3.699   1.721 -0.3165  0.3878  0.0579
 6851TIP3   OH242111   0.557   4.479   1.420 -0.4709 -0.4496  0.0311
 6851TIP3    H142112   0.606   4.542   1.367  0.9139 -2.0240 -0.6112
 6851TIP3    H242113   0.595   4.488   1.508  1.5629 -2.1662 -0.6117
 6852TIP3   OH242114   5.235   4.818   0.948  0.1590 -0.0093 -0.3260
 6852TIP3    H142115   5.190   4.889   0.902 -0.6217  1.1621  2.0734
 6852TIP3    H242116   5.183   4.740   0.928  0.6280  0.1608 -2.4494
 6853TIP3   OH242117   0.646   5.109   0.763 -0.1664 -0.0911 -0.8929
 6853TIP3    H142118   0.722   5.167   0.761  0.1202 -0.4930 -1.6971
 6853TIP3    H242119   0.661   5.046   0.693 -0.7830 -0.7625 -0.4364
 6854TIP3   OH242120   4.619   2.607   6.964 -0.1888 -0.2182 -0.1678
 6854TIP3    H142121   4.686   2.629   6.899  0.3226 -1.2959 -0.0282
 6854TIP3    H242122   4.638   2.517   6.988 -1.1509 -0.2430  0.5509
 6855TIP3   OH242123   5.395   1.018   0.390  0.1532 -0.1482 -0.1271
 6855TIP3    H142124   5.387   1.109   0.360 -1.5799  0.5225  2.1255
 6855TIP3    H242125   5.455   1.023   0.465  2.9081 -1.5069 -2.0449
 6856TIP3   OH242126   4.263   0.995   0.435  0.4989  0.2617  0.0707
 6856TIP3    H142127   4.239   1.084   0.462  1.2633  0.8175 -1.0184
 6856TIP3    H242128   4.357   0.999   0.420  0.6634 -0.9323  0.7075
 6857TIP3   OH242129   2.724   0.528   7.385 -0.4038 -0.6378 -0.0058
 6857TIP3    H142130   2.804   0.578   7.369  0.7891 -2.3085  0.4796
 6857TIP3    H242131   2.692   0.561   7.469 -0.2129  0.0186 -0.1835
 6858TIP3   OH242132   1.643   0.219   7.383 -0.2092  0.0783 -0.0256
 6858TIP3    H142133   1.732   0.189   7.362 -0.4213  1.1758 -2.8885
 6858TIP3    H242134   1.649   0.314   7.383 -0.9954  0.1937  2.0339
 6859TIP3   OH242135   0.586   0.347   0.561 -0.1151 -0.1312  0.1473
 6859TIP3    H142136   0.640   0.419   0.594 -1.0871  1.3063 -1.2507
 6859TIP3    H242137   0.533   0.320   0.637 -1.4767  2.3038  0.1852
 6860TIP3   OH242138   3.376   1.458   7.125 -0.2064  0.2814  0.6458
 6860TIP3    H142139   3.382   1.367   7.096 -1.8688  0.9856 -2.3251
 6860TIP3    H242140   3.399   1.510   7.047 -1.9137  2.3993  1.4554
 6861TIP3   OH242141   3.203   0.710   1.337 -0.1987 -0.2291 -0.3073
 6861TIP3    H142142   3.198   0.624   1.379 -0.7726 -0.5781 -1.0787
 6861TIP3    H242143   3.153   0.701   1.256  0.6731  0.5098 -0.9533
 6862TIP3   OH242144   1.587   4.508   0.278  0.0146 -0.5054 -0.7868
 6862TIP3    H142145   1.540   4.516   0.361  1.5339  3.0329 -0.0687
 6862TIP3    H242146   1.557   4.425   0.241 -1.1394 -1.9968  3.0045
 6863TIP3   OH242147   4.994   6.584   8.460 -0.3901 -0.5632 -0.0624
 6863TIP3    H142148   4.998   6.645   8.386  1.7109 -0.9728 -0.3531
 6863TIP3    H242149   5.083   6.550   8.467 -0.8491 -1.4668  1.8994
 6864TIP3   OH242150   4.071   2.402   1.700 -0.2517  0.2818  0.3722
 6864TIP3    H142151   3.999   2.343   1.724  0.5161 -0.9020 -0.1488
 6864TIP3    H242152   4.060   2.477   1.758 -0.7445 -0.7514  1.6723
 6865TIP3   OH242153   0.269   5.992   0.861 -0.4558 -0.2524 -0.0444
 6865TIP3    H142154   0.283   5.915   0.915  0.1822 -1.3223 -1.6695
 6865TIP3    H242155   0.239   5.958   0.777 -2.3943  1.4168 -0.0987
 6866TIP3   OH242156   6.769   0.223   7.065 -0.8469 -0.3228  0.1582
 6866TIP3    H142157   6.699   0.169   7.028 -0.9271 -0.0498 -0.0903
 6866TIP3    H242158   6.749   0.227   7.159 -0.1629 -1.7338  0.4013
 6867TIP3   OH242159   4.483   0.312   0.547  0.3791 -0.0288 -0.8206
 6867TIP3    H142160   4.571   0.294   0.513  1.0468  0.3173  0.6488
 6867TIP3    H242161   4.451   0.226   0.576  0.9477  0.0969  0.2272
 6868TIP3   OH242162   0.163   5.319   2.070  0.2077  0.1226  0.3948
 6868TIP3    H142163   0.156   5.414   2.071 -0.4765  0.0764  0.5362
 6868TIP3    H242164   0.173   5.294   2.162  0.6804  0.0752  0.3329
 6869TIP3   OH242165   4.437   5.368   0.121 -0.2332 -0.0607  0.0399
 6869TIP3    H142166   4.503   5.300   0.104  1.0084  0.9743  0.5643
 6869TIP3    H242167   4.417   5.358   0.214 -0.6609 -0.2295 -0.0688
 6870TIP3   OH242168   1.490   4.434   1.538 -0.2091 -0.4123  0.3400
 6870TIP3    H142169   1.581   4.454   1.515  0.5635 -2.8732  1.0261
 6870TIP3    H242170   1.491   4.420   1.632 -0.9629 -1.8785  0.1634
 6871TIP3   OH242171   6.122   3.506   0.200 -0.6384 -0.2702  0.4628
 6871TIP3    H142172   6.092   3.585   0.156 -1.4128 -0.4702  0.6165
 6871TIP3    H242173   6.216   3.521   0.215 -0.4270 -0.0568 -0.9253
 6872TIP3   OH242174   6.540   6.360   1.269 -0.0100  0.8116 -0.0659
 6872TIP3    H142175   6.608   6.397   1.326 -1.3762  1.4043  1.2546
 6872TIP3    H242176   6.477   6.320   1.329  0.9193 -3.0309 -1.3783
 6873TIP3   OH242177   0.098   1.865   0.887  0.4126  0.3753  0.0663
 6873TIP3    H142178   0.035   1.882   0.817  1.0493  1.1908 -0.3338
 6873TIP3    H242179   0.081   1.934   0.952  0.6945  0.4264  0.0887
 6874TIP3   OH242180   3.628   5.909   7.701  0.4446  0.1494 -0.3915
 6874TIP3    H142181   3.701   5.910   7.764 -1.0656 -0.3966  1.4820
 6874TIP3    H242182   3.639   5.989   7.650  0.8298  1.5606  1.7390
 6875TIP3   OH242183   5.764   1.807   7.105 -0.3057  0.0699  0.3583
 6875TIP3    H142184   5.768   1.844   7.017 -0.1072  1.0396  0.7607
 6875TIP3    H242185   5.822   1.731   7.102 -0.3321  0.0771 -0.3588
 6876TIP3   OH242186   4.822   5.362   7.791  0.0600 -0.2479  0.1353
 6876TIP3    H142187   4.744   5.384   7.741 -1.1093 -0.7404  1.6709
 6876TIP3    H242188   4.790   5.309   7.864  1.8482 -0.5736  0.7333
 6877TIP3   OH242189   2.482   3.825   1.260  0.1374  0.0722 -0.1208
 6877TIP3    H142190   2.552   3.793   1.202  2.1512  0.4070  1.9859
 6877TIP3    H242191   2.453   3.747   1.307 -0.6084  0.0199 -0.6527
 6878TIP3   OH242192   2.206   0.322   0.661 -0.1310  0.8791 -0.1379
 6878TIP3    H142193   2.125   0.295   0.619 -0.2164  0.1434  0.4882
 6878TIP3    H242194   2.239   0.393   0.605 -0.4520  0.2138 -1.2096
 6879TIP3   OH242195   3.714   4.028   7.191 -0.2087  0.3952  0.0194
 6879TIP3    H142196   3.751   4.029   7.103  1.5018  0.5135  0.7006
 6879TIP3    H242197   3.727   3.938   7.222 -0.6783  0.3872  0.1943
 6880TIP3   OH242198   4.824   4.589   0.293 -0.3279 -0.0374  0.8123
 6880TIP3    H142199   4.854   4.514   0.344  1.0887 -0.7230 -0.8978
 6880TIP3    H242200   4.903   4.640   0.277 -1.1732  1.5238  1.4097
 6881TIP3   OH242201   2.732   3.607   1.446 -0.1731  0.2877 -0.1041
 6881TIP3    H142202   2.817   3.652   1.451 -1.2348  2.3532  0.4306
 6881TIP3    H242203   2.729   3.553   1.525  0.4672  0.5548  0.1107
 6882TIP3   OH242204   5.559   0.953   0.598  0.1918  0.5311 -0.0585
 6882TIP3    H142205   5.646   0.913   0.600  0.0555  0.2514  0.2612
 6882TIP3    H242206   5.520   0.932   0.683 -0.1035  0.8491 -0.1086
 6883TIP3   OH242207   1.168   3.026   7.241  0.0251 -0.1974  0.2606
 6883TIP3    H142208   1.166   3.007   7.335  0.3418 -2.5743 -0.1496
 6883TIP3    H242209   1.116   2.956   7.202  1.1366 -0.1088 -1.4533
 6884TIP3   OH242210   4.561   1.989   7.578  0.0497 -0.4173 -0.1002
 6884TIP3    H142211   4.555   2.018   7.669  0.9074  1.8575 -0.7189
 6884TIP3    H242212   4.652   1.962   7.567  1.7546  4.7430 -1.6184
 6885TIP3   OH242213   2.033   0.379   7.456 -0.2665 -0.3858  0.1809
 6885TIP3    H142214   2.109   0.435   7.441 -2.2246  2.5409  0.2897
 6885TIP3    H242215   2.008   0.396   7.547 -0.9922 -1.3964  0.1956
 6886TIP3   OH242216   5.741   3.713   8.455 -0.1673  0.4626 -0.1314
 6886TIP3    H142217   5.786   3.668   8.383 -2.6857 -0.0973 -1.4662
 6886TIP3    H242218   5.757   3.806   8.439  0.0073  0.3019 -0.9316
 6887TIP3   OH242219   2.199   0.054   7.210 -0.0150  0.7223  0.2737
 6887TIP3    H142220   2.247   0.118   7.262 -1.2177  1.1096  0.9523
 6887TIP3    H242221   2.258  -0.021   7.203  1.4821  1.9328 -0.6643
 6888TIP3   OH242222   3.338   6.489   7.391 -0.2528  0.8964  0.0333
 6888TIP3    H142223   3.407   6.494   7.324 -0.1724  0.1977  0.0528
 6888TIP3    H242224   3.367   6.549   7.459 -0.6743  2.1388 -0.8452
 6889TIP3   OH242225   0.868   3.090   2.055  0.2216  0.5075 -0.2026
 6889TIP3    H142226   0.937   3.045   2.104  0.0983  2.0372  1.4813
 6889TIP3    H242227   0.913   3.128   1.980  0.9079  0.1770  0.0289
 6890TIP3   OH242228   5.080   2.550   6.630  0.2712  0.0723  0.5232
 6890TIP3    H142229   5.109   2.465   6.595 -0.3677 -0.0786  0.3471
 6890TIP3    H242230   5.109   2.614   6.565  0.2148 -0.0762  0.3489
 6891TIP3   OH242231   3.978   5.972   2.542 -0.4462  0.4254  0.2266
 6891TIP3    H142232   3.908   6.036   2.527 -1.3211 -0.8721 -1.6412
 6891TIP3    H242233   4.038   5.985   2.468 -1.3673 -1.7769 -0.9827
 6892TIP3   OH242234   5.190   5.449   8.362  0.3924  0.0091  0.8652
 6892TIP3    H142235   5.159   5.535   8.332  0.7300 -0.2687 -0.3418
 6892TIP3    H242236   5.160   5.443   8.453 -0.7706  0.8454  0.5594
 6893TIP3   OH242237   4.477   1.896   8.215 -0.0966  0.6264 -0.0784
 6893TIP3    H142238   4.432   1.835   8.273 -0.5427  0.3460 -0.7119
 6893TIP3    H242239   4.569   1.892   8.242 -0.5865  2.1856  2.1313
 6894TIP3   OH242240   1.491   0.142   1.304  0.5920  0.0509 -0.2617
 6894TIP3    H142241   1.436   0.175   1.233 -0.1859  2.1257  1.2044
 6894TIP3    H242242   1.445   0.167   1.384  2.0011 -1.2077  1.0036
 6895TIP3   OH242243   2.368   5.249   0.400  0.3393 -0.4371  0.3396
 6895TIP3    H142244   2.300   5.206   0.452  0.0608 -0.5320 -0.0955
 6895TIP3    H242245   2.449   5.232   0.448  0.2571 -1.5602  0.1070
 6896TIP3   OH242246   0.114   1.738   8.617 -0.1889  0.5382 -0.7020
 6896TIP3    H142247   0.141   1.827   8.593  1.5338  0.2009 -0.1557
 6896TIP3    H242248   0.163   1.681   8.558 -0.5764 -0.0999 -0.4231
 6897TIP3   OH242249   1.230   6.017   8.507  0.3031 -0.3209  0.1364
 6897TIP3    H142250   1.309   6.050   8.464 -0.9713  1.9602 -0.5930
 6897TIP3    H242251   1.190   5.957   8.444  0.8817 -0.6769  0.0987
 6898TIP3   OH242252   0.323   3.776   2.071  0.2621  0.4051  0.9408
 6898TIP3    H142253   0.280   3.837   2.012  2.5620  0.7417 -0.4849
 6898TIP3    H242254   0.251   3.734   2.119 -1.8145 -0.5048 -2.6411
 6899TIP3   OH242255   1.893   0.158   7.320  0.1525 -0.2122 -0.4449
 6899TIP3    H142256   1.900   0.119   7.233  2.3894 -1.7244  0.3533
 6899TIP3    H242257   1.946   0.238   7.315  0.5844 -0.4921 -0.3836
 6900TIP3   OH242258   5.199   3.626   2.184 -0.3186  0.1365  0.0474
 6900TIP3    H142259   5.117   3.630   2.234  0.2197 -1.3008  1.1334
 6900TIP3    H242260   5.264   3.665   2.242 -0.4219  2.5318 -1.3507
 6901TIP3   OH242261   3.761   1.634   8.312  0.2272  0.3334  0.3953
 6901TIP3    H142262   3.833   1.571   8.309  0.1330  0.2546 -2.1465
 6901TIP3    H242263   3.765   1.679   8.228 -2.3436  0.7423  0.4271
 6902TIP3   OH242264   6.572   5.144   6.162  0.3809 -1.1521  0.6051
 6902TIP3    H142265   6.522   5.069   6.194  1.2202 -0.8286  2.8343
 6902TIP3    H242266   6.538   5.218   6.211  1.7626 -0.6325  0.8241
 6903TIP3   OH242267   6.768   3.073   1.876  0.3056 -0.0868 -0.2274
 6903TIP3    H142268   6.841   3.018   1.904  1.6199 -0.5576 -3.9748
 6903TIP3    H242269   6.690   3.031   1.913  1.5840 -2.4303 -0.0299
 6904TIP3   OH242270   4.376   5.133   0.599 -0.6024  0.1060 -0.0049
 6904TIP3    H142271   4.368   5.090   0.684 -4.1632 -1.0430 -0.7756
 6904TIP3    H242272   4.419   5.068   0.544 -0.1953  0.0443  0.3756
 6905TIP3   OH242273   3.139   0.351   7.813 -0.1716 -0.6756  0.5148
 6905TIP3    H142274   3.076   0.423   7.811 -0.8122 -1.2501 -0.0971
 6905TIP3    H242275   3.170   0.343   7.723  1.9687  0.6079  1.0475
 6906TIP3   OH242276   3.845   4.649   1.873  0.1263  0.1987 -0.4761
 6906TIP3    H142277   3.846   4.708   1.798  1.2303 -0.0799 -0.6885
 6906TIP3    H242278   3.873   4.703   1.947 -0.7602  0.4191 -0.2794
 6907TIP3   OH242279   2.992   2.936   7.720  0.1131 -0.4413 -0.0500
 6907TIP3    H142280   3.008   2.858   7.667  2.3145 -0.9994  1.3401
 6907TIP3    H242281   3.054   3.001   7.687 -0.3758  0.1099  0.0890
 6908TIP3   OH242282   0.125   6.145   0.201  0.5048  0.2575 -0.3763
 6908TIP3    H142283   0.035   6.117   0.219  0.4047  0.0917 -1.1273
 6908TIP3    H242284   0.139   6.218   0.261  0.8156 -1.4257  1.7097
 6909TIP3   OH242285   6.491   2.397   7.597 -0.2344 -0.2569 -0.5869
 6909TIP3    H142286   6.519   2.484   7.624  1.1784 -1.5283  2.5630
 6909TIP3    H242287   6.525   2.338   7.665 -3.2053 -3.0134 -1.2083
 6910TIP3   OH242288   5.974   4.691   0.384  0.1426  0.1108 -0.4044
 6910TIP3    H142289   5.901   4.645   0.423  0.5556  0.0195  0.2717
 6910TIP3    H242290   5.934   4.750   0.320 -0.3795 -1.3631 -1.4883
 6911TIP3   OH242291   6.536   6.199   7.905 -0.5784  0.6682 -0.3543
 6911TIP3    H142292   6.520   6.281   7.859  0.4484  1.1879  0.1614
 6911TIP3    H242293   6.555   6.225   7.996 -1.3190 -0.2285  0.0794
 6912TIP3   OH242294   2.429   5.415   1.184 -0.1968 -0.3188  0.0789
 6912TIP3    H142295   2.346   5.408   1.230  0.1516  0.4866  0.8716
 6912TIP3    H242296   2.495   5.398   1.251  0.3463  1.6105  0.1074
 6913TIP3   OH242297   4.077   2.622   1.112 -0.0734  0.2519 -0.3477
 6913TIP3    H142298   4.068   2.681   1.036 -0.2215 -0.2068 -0.6941
 6913TIP3    H242299   3.998   2.568   1.109 -0.2361  0.4492  0.3283
 6914TIP3   OH242300   0.032   3.852   0.126 -0.0002 -0.0397 -0.2143
 6914TIP3    H142301  -0.035   3.784   0.124  0.4840 -0.7772  2.9407
 6914TIP3    H242302   0.113   3.807   0.150  0.8156  1.3391 -0.2364
 6915TIP3   OH242303   4.205   0.130   1.595  0.1315  0.3297  0.4307
 6915TIP3    H142304   4.211   0.059   1.530  0.7143  2.2422 -1.7510
 6915TIP3    H242305   4.272   0.109   1.660  0.0925 -1.2435  0.0052
 6916TIP3   OH242306   2.540   5.273   6.858 -0.0226  0.3856 -0.4206
 6916TIP3    H142307   2.528   5.195   6.912 -0.5266  0.5841 -0.2406
 6916TIP3    H242308   2.624   5.309   6.886 -0.3001  0.5159  0.2700
 6917TIP3   OH242309   6.107   6.370   7.632  0.1397 -0.0522 -0.1039
 6917TIP3    H142310   6.140   6.395   7.546  1.0514 -0.2397  0.1889
 6917TIP3    H242311   6.061   6.448   7.663 -1.2501 -0.3631 -1.2508
 6918TIP3   OH242312   6.699   6.792   2.439 -0.0550  0.4801  0.2206
 6918TIP3    H142313   6.701   6.719   2.500  0.6037  1.3439  1.2863
 6918TIP3    H242314   6.606   6.806   2.420 -0.4557  1.2875  2.4560
 6919TIP3   OH242315   2.392   2.627   7.460 -0.0815 -0.4595 -0.0036
 6919TIP3    H142316   2.356   2.580   7.385  0.5610 -0.2009 -0.4795
 6919TIP3    H242317   2.368   2.573   7.536 -1.1384 -0.4847 -0.3388
 6920TIP3   OH242318   1.448   2.511   1.503  0.0410 -0.0897  0.0254
 6920TIP3    H142319   1.402   2.594   1.520 -0.2061 -0.2037 -0.0853
 6920TIP3    H242320   1.470   2.478   1.590 -1.8314 -1.0151  0.2078
 6921TIP3   OH242321   2.173   6.499   7.651 -0.4299  0.0066 -0.0772
 6921TIP3    H142322   2.103   6.507   7.715 -0.7567  1.7642 -0.5818
 6921TIP3    H242323   2.212   6.587   7.648  0.5533 -0.4387 -1.1839
 6922TIP3   OH242324   5.317   0.650   8.284  0.0011 -0.1953  0.2260
 6922TIP3    H142325   5.237   0.617   8.244 -0.2728 -1.8949  2.0377
 6922TIP3    H242326   5.287   0.703   8.358  0.5160 -0.8850  0.9482
 6923TIP3   OH242327   6.360   0.489   7.640  0.1275  0.7482  0.4711
 6923TIP3    H142328   6.283   0.435   7.624  0.6507  0.1158  0.0578
 6923TIP3    H242329   6.326   0.563   7.691 -0.5923  0.0255  1.0763
 6924TIP3   OH242330   6.250   2.912   7.832 -0.1871  0.0847 -0.2676
 6924TIP3    H142331   6.243   2.822   7.801 -0.3648 -0.3521  0.9836
 6924TIP3    H242332   6.194   2.963   7.773 -1.1965 -0.8524 -0.1421
 6925TIP3   OH242333   3.754   1.033   7.046 -0.6978  0.1855  0.2147
 6925TIP3    H142334   3.713   1.110   7.009 -0.3808  0.3882  0.2760
 6925TIP3    H242335   3.793   0.988   6.971 -0.9868  0.0189  0.1634
 6926TIP3   OH242336   5.314   1.792   7.372 -0.2063 -0.4548 -0.4490
 6926TIP3    H142337   5.361   1.844   7.437 -0.8364  0.3986 -0.6613
 6926TIP3    H242338   5.376   1.723   7.347 -0.3720 -1.5291  1.9076
 6927TIP3   OH242339   3.114   3.810   8.145 -0.1027  0.6791 -0.4122
 6927TIP3    H142340   3.086   3.884   8.199 -1.4074 -1.4108  1.9957
 6927TIP3    H242341   3.033   3.763   8.125  0.8550 -1.2254 -0.0468
 6928TIP3   OH242342   0.505   5.243   0.304  0.3369  0.4480 -0.5767
 6928TIP3    H142343   0.492   5.152   0.333  0.8687  0.2086 -1.0672
 6928TIP3    H242344   0.438   5.257   0.237  0.0778  0.5076 -0.3054
 6929TIP3   OH242345   1.905   2.337   0.177 -0.4561 -0.4692 -0.0456
 6929TIP3    H142346   1.996   2.308   0.173 -0.7381 -1.3109 -1.0178
 6929TIP3    H242347   1.888   2.350   0.270  1.3043  1.9731  0.0233
 6930TIP3   OH242348   0.543   2.418   8.205  0.3667  0.4719  0.9944
 6930TIP3    H142349   0.564   2.484   8.138  0.8827  0.2211  0.9039
 6930TIP3    H242350   0.472   2.456   8.255 -0.0466  0.6614  0.2833
 6931TIP3   OH242351   4.035   5.282   8.047  0.4513  0.8342 -0.0826
 6931TIP3    H142352   3.980   5.325   8.113 -0.6170  0.9803 -1.0522
 6931TIP3    H242353   4.115   5.260   8.095 -0.2725  0.9774  1.2524
 6932TIP3   OH242354   4.154   4.587   1.332 -0.0665 -0.2922  0.7827
 6932TIP3    H142355   4.218   4.574   1.262  0.5394 -2.5942  1.6755
 6932TIP3    H242356   4.163   4.679   1.356 -0.0091  0.4592 -1.8481
 6933TIP3   OH242357   5.590   4.962   8.182  0.3809  0.0401 -0.0307
 6933TIP3    H142358   5.578   4.913   8.101 -0.1891 -1.5674  0.9812
 6933TIP3    H242359   5.680   4.945   8.208 -0.0700 -1.3052  0.7883
 6934TIP3   OH242360   5.784   6.622   1.778 -0.3812 -0.1203  0.3754
 6934TIP3    H142361   5.862   6.602   1.831  0.0523  0.6264  0.0429
 6934TIP3    H242362   5.807   6.593   1.690  0.4434  2.1037 -0.2235
 6935TIP3   OH242363   3.566   5.983   1.860 -0.0635  0.0114  0.0349
 6935TIP3    H142364   3.515   5.917   1.814  0.3186  0.0108 -0.3980
 6935TIP3    H242365   3.644   5.935   1.891 -0.7133 -0.1934  1.4382
 6936TIP3   OH242366   4.267   3.009   1.613  0.2414  0.1478 -0.7421
 6936TIP3    H142367   4.206   3.056   1.556  0.4990  1.9974  0.4366
 6936TIP3    H242368   4.353   3.043   1.589  0.3662  0.8506  0.6215
 6937TIP3   OH242369   2.384   4.099   1.006 -0.5215  0.0975 -0.0101
 6937TIP3    H142370   2.459   4.110   1.065  1.2672  1.1835 -2.3233
 6937TIP3    H242371   2.336   4.025   1.043  1.1194 -0.0291  2.1294
 6938TIP3   OH242372   0.907   1.549   0.686 -0.3505  0.0326  0.1417
 6938TIP3    H142373   1.001   1.534   0.672 -0.8193 -1.8361 -1.3465
 6938TIP3    H242374   0.874   1.467   0.721 -1.6139  0.2804 -0.4089
 6939TIP3   OH242375   0.517   4.050   1.767  0.5494  0.1567 -0.6115
 6939TIP3    H142376   0.529   3.998   1.687 -1.5866  0.2656 -1.0456
 6939TIP3    H242377   0.547   3.992   1.837  1.9267 -0.1505 -1.3996
 6940TIP3   OH242378   6.225   5.725   7.301  0.1739 -0.5764  0.0501
 6940TIP3    H142379   6.229   5.806   7.352  0.1226 -1.5103  1.6043
 6940TIP3    H242380   6.260   5.658   7.360 -0.2043 -1.7703 -1.0406
 6941TIP3   OH242381   2.297   3.534   0.726  0.0657 -0.1450 -0.1203
 6941TIP3    H142382   2.215   3.522   0.774 -0.1943 -0.0360 -0.5370
 6941TIP3    H242383   2.278   3.501   0.638  0.5309 -0.3106 -0.1629
 6942TIP3   OH242384   5.211   3.997   1.982  0.2966 -0.2113  0.0876
 6942TIP3    H142385   5.179   3.977   2.070 -3.2512  2.1234 -0.4829
 6942TIP3    H242386   5.195   3.917   1.932 -0.5021 -0.5859  0.9108
 6943TIP3   OH242387   3.066   2.838   1.855 -0.4797  0.0444  0.5363
 6943TIP3    H142388   2.977   2.805   1.863 -0.4372 -0.1139  0.3724
 6943TIP3    H242389   3.060   2.931   1.877 -0.3826 -0.3228  2.2235
 6944TIP3   OH242390   1.896   6.681   1.866  0.1045  0.0798 -0.0636
 6944TIP3    H142391   1.910   6.587   1.871  1.0458  0.2469  0.7377
 6944TIP3    H242392   1.813   6.696   1.911 -0.1521 -0.3779 -0.3769
 6945TIP3   OH242393   4.350   5.790   8.047  0.7099 -0.2109  0.6011
 6945TIP3    H142394   4.356   5.741   8.129 -0.3589 -0.2886  0.6406
 6945TIP3    H242395   4.293   5.738   7.991 -1.4556  1.5076  1.0557
 6946TIP3   OH242396   1.309   6.726   7.371  0.6440  0.1479  0.0576
 6946TIP3    H142397   1.366   6.776   7.313  0.4112  0.1607 -0.1629
 6946TIP3    H242398   1.243   6.688   7.313  1.5685 -1.5156  0.0203
 6947TIP3   OH242399   1.737   0.606   0.804  0.2436 -0.0648  0.3086
 6947TIP3    H142400   1.813   0.557   0.836 -0.6127 -0.8613  1.1809
 6947TIP3    H242401   1.695   0.547   0.742  1.4653  1.1803 -1.8329
 6948TIP3   OH242402   3.552   4.488   1.012  0.2829 -0.4856 -0.2529
 6948TIP3    H142403   3.481   4.520   1.068 -0.6828 -1.1872 -1.0555
 6948TIP3    H242404   3.575   4.402   1.048 -0.0412 -0.7476 -0.6680
 6949TIP3   OH242405   1.474   2.711   7.081 -0.1339  0.0007 -0.5136
 6949TIP3    H142406   1.480   2.618   7.103  0.8528 -0.0642 -0.9806
 6949TIP3    H242407   1.564   2.744   7.091 -0.3655  0.7706 -0.8836
 6950TIP3   OH242408   0.900   0.413   8.616 -0.2410 -0.0456 -0.1156
 6950TIP3    H142409   0.819   0.408   8.564 -0.7120  1.8031  0.3515
 6950TIP3    H242410   0.872   0.403   8.706  0.5206 -2.7301 -0.0913
 6951TIP3   OH242411   1.702   2.229   1.693 -0.8777  0.1951  0.2663
 6951TIP3    H142412   1.763   2.284   1.742  0.2488  0.1630 -1.0656
 6951TIP3    H242413   1.756   2.163   1.651 -2.1642 -1.8399  1.5925
 6952TIP3   OH242414   6.321   0.147   0.562 -0.3765 -0.6262 -0.1898
 6952TIP3    H142415   6.293   0.086   0.630  0.4119 -1.6022 -0.7061
 6952TIP3    H242416   6.246   0.204   0.548 -1.2973 -1.7471  0.0073
 6953TIP3   OH242417   5.192   0.293   2.015 -0.9948  0.1249 -0.1708
 6953TIP3    H142418   5.212   0.269   2.105 -1.0867 -0.2703 -0.2508
 6953TIP3    H242419   5.254   0.242   1.962  0.7335  2.1819 -0.2449
 6954TIP3   OH242420   4.106   4.369   1.794  0.6945 -0.1722 -0.9400
 6954TIP3    H142421   4.151   4.302   1.846 -1.0004  0.3820  1.4571
 6954TIP3    H242422   4.020   4.377   1.835  0.4722  2.7962 -1.7091
 6955TIP3   OH242423   3.899   0.575   7.476  0.4070  0.4201 -0.6664
 6955TIP3    H142424   3.951   0.573   7.557 -0.4322  0.4049 -0.1172
 6955TIP3    H242425   3.898   0.667   7.450  0.8620  0.3938 -0.7832
 6956TIP3   OH242426   3.151   1.718   1.672  0.4464  0.2629  0.1767
 6956TIP3    H142427   3.088   1.718   1.600  1.4506 -0.4107 -0.7482
 6956TIP3    H242428   3.204   1.796   1.657  0.5512  0.2126  0.2836
 6957TIP3   OH242429   5.046   3.910   8.157 -0.0299  0.1113 -0.0475
 6957TIP3    H142430   5.062   3.863   8.239  1.3185 -0.2580 -0.4931
 6957TIP3    H242431   4.959   3.948   8.168  0.4368  0.7600  1.8832
 6958TIP3   OH242432   2.632   5.054   8.312  0.3818  0.5623 -0.4480
 6958TIP3    H142433   2.615   5.023   8.402 -1.0615 -0.3948 -1.0109
 6958TIP3    H242434   2.605   4.981   8.257  1.4002  1.0884 -1.6728
 6959TIP3   OH242435   2.926   4.397   6.715  0.2000  0.2323 -0.3206
 6959TIP3    H142436   2.862   4.451   6.668  0.7013  0.6932 -0.4872
 6959TIP3    H242437   2.976   4.353   6.646 -0.8230 -1.2205 -0.1852
 6960TIP3   OH242438   4.255   6.549   0.018 -0.1257 -0.6101 -0.2784
 6960TIP3    H142439   4.312   6.480  -0.015  0.8504 -0.3812  0.8568
 6960TIP3    H242440   4.168   6.510   0.017 -0.5164 -0.1084 -4.5602
 6961TIP3   OH242441   6.530   0.569   1.202 -0.0212 -0.5223  0.6504
 6961TIP3    H142442   6.513   0.502   1.135 -0.7999  0.8037 -0.5520
 6961TIP3    H242443   6.445   0.612   1.214  0.8553  1.6194 -0.2045
 6962TIP3   OH242444   5.798   6.258   1.708  0.1846  0.1106  0.2741
 6962TIP3    H142445   5.881   6.272   1.753  0.3018 -0.6678  0.3105
 6962TIP3    H242446   5.739   6.227   1.777  0.1712 -0.4082  0.0303
 6963TIP3   OH242447   1.387   5.632   1.221 -0.7505  0.3158 -0.0984
 6963TIP3    H142448   1.448   5.613   1.292 -2.2226 -2.2441  0.6397
 6963TIP3    H242449   1.406   5.722   1.195  2.8979 -0.1581  0.4466
 6964TIP3   OH242450   5.873   4.385   8.658  0.0744 -0.0208 -0.0076
 6964TIP3    H142451   5.875   4.428   8.743 -0.4095 -1.3162  0.6809
 6964TIP3    H242452   5.939   4.431   8.606 -0.5712  1.6816  0.6107
 6965TIP3   OH242453   2.540   1.939   7.369 -0.0855  0.5523 -0.5132
 6965TIP3    H142454   2.497   1.869   7.319 -0.4632  0.3792  0.0441
 6965TIP3    H242455   2.616   1.963   7.316 -0.6379  0.5716 -1.3115
 6966TIP3   OH242456   5.914   6.140   7.552 -0.3410 -0.5516  0.3467
 6966TIP3    H142457   5.841   6.186   7.511 -0.5898 -0.7430  0.5736
 6966TIP3    H242458   5.945   6.199   7.621  1.3097  0.6379 -1.3055
 6967TIP3   OH242459   0.055   2.175   1.437  0.0280 -0.0407 -0.2506
 6967TIP3    H142460   0.145   2.167   1.404 -0.4298  0.7021 -1.7795
 6967TIP3    H242461   0.001   2.176   1.358 -1.2421  0.6157  0.6033
 6968TIP3   OH242462   2.917   5.357   1.587  0.1807  0.1575 -0.1450
 6968TIP3    H142463   2.846   5.417   1.609 -0.3513 -0.6457  0.3728
 6968TIP3    H242464   2.956   5.333   1.671 -0.5679 -1.3564 -0.1934
 6969TIP3   OH242465   2.240   5.337   1.953  0.1210  0.4123  0.2925
 6969TIP3    H142466   2.149   5.365   1.961  0.0961  0.4214 -0.0059
 6969TIP3    H242467   2.291   5.417   1.959  0.0107  0.6389 -1.3190
 6970TIP3   OH242468   0.224   0.759   2.425  0.0541  0.3163 -0.4488
 6970TIP3    H142469   0.244   0.775   2.333  0.0600  0.5151 -0.4123
 6970TIP3    H242470   0.166   0.831   2.450 -0.0636  0.1829 -0.3368
 6971TIP3   OH242471   2.559   5.594   0.973 -0.3209  0.3646  0.0540
 6971TIP3    H142472   2.632   5.581   1.033  0.6187 -0.4576 -1.2249
 6971TIP3    H242473   2.491   5.534   1.004 -0.1644  0.5359  0.7500
 6972TIP3   OH242474   3.021   4.396   8.087 -0.2337  0.1395  0.5925
 6972TIP3    H142475   2.949   4.355   8.039  0.3914 -3.8252  2.5989
 6972TIP3    H242476   2.994   4.391   8.179  1.0181  2.1795  1.1301
 6973TIP3   OH242477   3.743   1.567   0.761  0.6656  0.2689  0.6873
 6973TIP3    H142478   3.706   1.580   0.848 -0.4616 -1.6032  0.5461
 6973TIP3    H242479   3.750   1.472   0.752 -0.5175  0.3461 -1.7677
 6974TIP3   OH242480   1.899   6.774   1.587 -0.8068  0.3088 -0.1662
 6974TIP3    H142481   1.855   6.710   1.531  0.2210  0.0699 -0.7313
 6974TIP3    H242482   1.920   6.725   1.667  0.2220 -0.1729 -0.7045
 6975TIP3   OH242483   1.932   5.459   8.498 -0.3011  0.4655 -0.2379
 6975TIP3    H142484   1.956   5.486   8.410  0.6140  0.6677  0.0512
 6975TIP3    H242485   1.837   5.466   8.502 -0.3577  0.3041 -1.2503
 6976TIP3   OH242486   2.066   5.497   2.513 -0.4038 -0.3078  0.0651
 6976TIP3    H142487   2.156   5.470   2.493 -0.7941 -1.4995 -0.2134
 6976TIP3    H242488   2.074   5.552   2.591  0.5493 -0.5361  0.1498
 6977TIP3   OH242489   2.212   0.444   1.705  0.0168  0.0452  0.0630
 6977TIP3    H142490   2.118   0.459   1.690  0.1760 -1.4363 -3.0693
 6977TIP3    H242491   2.218   0.353   1.733  0.6136 -0.3425 -1.2770
 6978TIP3   OH242492   4.123   2.562   6.454 -0.3569  0.4832 -0.6345
 6978TIP3    H142493   4.174   2.493   6.412  0.6604  0.5094  0.5323
 6978TIP3    H242494   4.175   2.641   6.442 -0.3797  0.6130  0.1037
 6979TIP3   OH242495   2.199   3.915   1.484  0.2734  0.0336  0.1791
 6979TIP3    H142496   2.242   3.939   1.566 -0.9404  1.8378  0.3547
 6979TIP3    H242497   2.140   3.988   1.466 -1.9641 -1.8203 -0.5620
 6980TIP3   OH242498   4.622   0.171   1.784  0.6531  0.2898 -0.4175
 6980TIP3    H142499   4.656   0.213   1.705  0.0662  0.8549 -0.3779
 6980TIP3    H242500   4.568   0.099   1.750  1.4347 -0.2762 -0.4909
 6981TIP3   OH242501   4.535   2.868   0.067  0.4311  0.6716 -0.2080
 6981TIP3    H142502   4.563   2.835  -0.018  1.6975 -0.0685  0.4591
 6981TIP3    H242503   4.441   2.884   0.057  0.5224  0.4255 -1.6756
 6982TIP3   OH242504   5.320   0.067   7.867  0.1303  0.0392  0.0036
 6982TIP3    H142505   5.333   0.129   7.939  1.1386 -0.0866 -0.0562
 6982TIP3    H242506   5.389   0.088   7.805 -2.4096  2.1468 -2.3939
 6983TIP3   OH242507   4.387   3.615   1.514  0.0899 -0.4940  0.1942
 6983TIP3    H142508   4.342   3.539   1.551  3.0072 -3.1430 -1.1696
 6983TIP3    H242509   4.478   3.603   1.541  1.4326  0.1590 -3.4742
 6984TIP3   OH242510   2.430   5.652   7.626  0.4094 -0.0089  0.2369
 6984TIP3    H142511   2.402   5.716   7.562  1.2099  0.6381  0.5081
 6984TIP3    H242512   2.485   5.591   7.577 -1.0409 -1.0251 -0.2023
 6985TIP3   OH242513   6.800   2.235   7.167  0.4544  0.5272 -0.2468
 6985TIP3    H142514   6.799   2.286   7.086  4.4604 -0.7932 -1.3344
 6985TIP3    H242515   6.874   2.271   7.217 -0.3392 -0.3846  1.6862
 6986TIP3   OH242516   3.425   6.695   7.537 -0.5643  0.5559  0.2154
 6986TIP3    H142517   3.511   6.676   7.577 -0.2554  1.2437 -0.1175
 6986TIP3    H242518   3.378   6.744   7.604 -1.6275 -1.8610  1.3578
 6987TIP3   OH242519   1.312   2.400   1.014  0.0594  0.0309  0.1036
 6987TIP3    H142520   1.299   2.383   1.107 -0.1128 -0.0292  0.0688
 6987TIP3    H242521   1.357   2.485   1.011  0.4532 -0.1720  0.2565
 6988TIP3   OH242522   2.932   1.156   1.134  0.5160 -0.0532  0.1849
 6988TIP3    H142523   2.853   1.128   1.179 -1.5017  1.3078 -2.2052
 6988TIP3    H242524   2.901   1.221   1.071  3.6472  0.8981 -0.5397
 6989TIP3   OH242525   4.764   5.399   2.457  0.1838  0.2827  0.0475
 6989TIP3    H142526   4.807   5.440   2.533  0.9262  0.4517 -0.4553
 6989TIP3    H242527   4.755   5.470   2.393  2.7370 -0.5520 -1.3764
 6990TIP3   OH242528   5.465   6.355   2.574  0.2339  0.2616  0.2658
 6990TIP3    H142529   5.415   6.424   2.617 -0.7030 -0.3345  0.1693
 6990TIP3    H242530   5.469   6.285   2.640 -0.4090 -0.2954 -0.2687
 6991TIP3   OH242531   5.544   2.797   7.088  0.3573 -0.0029  0.2062
 6991TIP3    H142532   5.576   2.885   7.067  0.4083 -0.0838 -0.0615
 6991TIP3    H242533   5.449   2.806   7.090  0.3851  0.1906  0.7858
 6992TIP3   OH242534   0.952   4.887   1.360 -0.4212  0.2893 -0.1277
 6992TIP3    H142535   0.858   4.895   1.345 -0.2248 -0.6760 -2.1357
 6992TIP3    H242536   0.960   4.838   1.442 -1.6359  1.3025  0.6243
 6993TIP3   OH242537   1.918   3.566   1.101 -0.4736 -0.3241  0.6998
 6993TIP3    H142538   1.892   3.474   1.099  3.2885 -1.5543  1.1880
 6993TIP3    H242539   1.985   3.574   1.034 -1.8982  2.6129 -0.5832
 6994TIP3   OH242540   3.867   3.911   0.211 -0.6442 -0.6023  0.0662
 6994TIP3    H142541   3.892   3.912   0.303  0.6584 -0.7076 -0.2640
 6994TIP3    H242542   3.791   3.853   0.207 -0.5260 -0.8373  1.0221
 6995TIP3   OH242543   2.060   1.575   8.228 -0.1935  0.3544  0.6720
 6995TIP3    H142544   1.964   1.579   8.220 -0.3010 -2.0600 -0.2346
 6995TIP3    H242545   2.076   1.548   8.318 -0.5137 -1.0859  0.3288
 6996TIP3   OH242546   1.772   2.178   7.154 -0.6189  0.4280  0.5487
 6996TIP3    H142547   1.780   2.262   7.109  0.6792  0.4203  0.7483
 6996TIP3    H242548   1.826   2.118   7.103 -3.2428 -0.9089 -0.9307
 6997TIP3   OH242549   6.576   6.026   1.873 -0.3424  0.0881 -1.0907
 6997TIP3    H142550   6.521   6.056   1.946 -0.9952 -1.9773 -0.6469
 6997TIP3    H242551   6.662   6.064   1.891 -0.4800 -0.3467  0.8079
 6998TIP3   OH242552   6.038   4.292   1.773 -0.5270 -0.5288 -0.2320
 6998TIP3    H142553   5.968   4.307   1.836  0.2349  0.7078  0.3594
 6998TIP3    H242554   6.116   4.274   1.826 -0.2231 -1.1553 -0.8609
 6999TIP3   OH242555   4.851   2.593   0.424 -1.1610 -0.4783  0.5436
 6999TIP3    H142556   4.848   2.510   0.377 -0.0490 -0.6448  0.7495
 6999TIP3    H242557   4.779   2.645   0.386  0.2239 -0.2468 -2.0029
 7000TIP3   OH242558   5.638   2.031   0.065  0.2421 -0.2020  0.4384
 7000TIP3    H142559   5.681   2.113   0.089  1.4238 -0.6209 -0.1987
 7000TIP3    H242560   5.703   1.963   0.081 -0.2142 -0.8698 -0.4160
 7001TIP3   OH242561   6.275   2.219   0.972 -0.1389 -0.4844 -0.6677
 7001TIP3    H142562   6.238   2.192   0.888  0.4567  0.2119 -1.1691
 7001TIP3    H242563   6.262   2.144   1.029  1.2467 -1.7698 -1.9355
 7002TIP3   OH242564   3.830   5.543   1.407  0.3410  0.0108 -0.3086
 7002TIP3    H142565   3.916   5.501   1.402 -0.1288 -1.7847  3.0425
 7002TIP3    H242566   3.846   5.624   1.455  0.1749 -0.7009  1.0271
 7003TIP3   OH242567   5.358   1.574   0.365 -0.3977  0.5337 -0.1258
 7003TIP3    H142568   5.281   1.567   0.309  0.7775  0.6403 -1.8749
 7003TIP3    H242569   5.420   1.626   0.313  1.0311  0.0336  0.9994
 7004TIP3   OH242570   6.507   2.883   8.515 -0.1006  0.3754 -0.2811
 7004TIP3    H142571   6.599   2.905   8.526  0.4168 -1.4685 -0.6122
 7004TIP3    H242572   6.470   2.957   8.466  1.0725  1.3362  0.2331
 7005TIP3   OH242573   3.267   0.839   8.067 -0.8642 -0.1273  0.1112
 7005TIP3    H142574   3.222   0.804   8.144 -0.9721 -0.2217  0.0058
 7005TIP3    H242575   3.263   0.768   8.003 -1.3958  0.2016 -0.2316
 7006TIP3   OH242576   4.198   0.683   7.499 -0.2905  0.0087 -0.2125
 7006TIP3    H142577   4.196   0.778   7.509  0.7728  0.1959 -1.4681
 7006TIP3    H242578   4.238   0.651   7.580 -1.0618  0.5878  0.4085
 7007TIP3   OH242579   0.077   0.512   7.134  0.2387  0.1995  0.2960
 7007TIP3    H142580   0.071   0.496   7.229  2.5072 -1.0192  0.3051
 7007TIP3    H242581   0.061   0.606   7.125  1.2255  0.5801  2.0481
 7008TIP3   OH242582   6.358   3.574   1.937 -0.7299 -0.1985  0.1032
 7008TIP3    H142583   6.300   3.521   1.992 -0.7706 -0.0206  0.2345
 7008TIP3    H242584   6.347   3.538   1.849 -0.2984 -0.7986  0.2897
 7009TIP3   OH242585   5.066   0.534   8.203 -0.2661 -0.2883 -0.2490
 7009TIP3    H142586   5.001   0.588   8.248 -0.6739  1.3665 -2.6423
 7009TIP3    H242587   5.023   0.449   8.192 -1.7461  0.5259 -1.0459
 7010TIP3   OH242588   5.381   3.568   1.980  0.2759 -0.4238 -0.3253
 7010TIP3    H142589   5.326   3.575   2.059 -2.1816 -4.8051 -1.3410
 7010TIP3    H242590   5.471   3.569   2.014 -0.5002  1.5949  2.0130
 7011TIP3   OH242591   6.171   5.266   6.944  0.4855 -0.2782  0.5993
 7011TIP3    H142592   6.209   5.280   7.031 -1.5558  0.1835  1.4769
 7011TIP3    H242593   6.095   5.209   6.960 -0.4372  0.5235 -0.7465
 7012TIP3   OH242594   3.210   4.849   6.979  0.3634 -0.0544  0.8469
 7012TIP3    H142595   3.149   4.823   6.910 -1.6213 -0.3908  2.6160
 7012TIP3    H242596   3.280   4.785   6.975 -0.3800 -0.8436 -0.0251
 7013TIP3   OH242597   4.366   1.258   0.500 -0.7065  0.2259  0.1191
 7013TIP3    H142598   4.372   1.343   0.544 -1.2778 -1.1843  3.1738
 7013TIP3    H242599   4.457   1.234   0.480 -0.3165  0.5222  1.4497
 7014TIP3   OH242600   6.196   4.207   0.897  0.3223  0.6833  0.5583
 7014TIP3    H142601   6.274   4.245   0.939  0.2959 -0.2679  1.5012
 7014TIP3    H242602   6.199   4.114   0.921 -0.9924  0.5937  0.4290
 7015TIP3   OH242603   6.833   6.242   6.506 -0.1937 -1.0269  0.5445
 7015TIP3    H142604   6.831   6.338   6.498  0.3399 -0.9375  1.3567
 7015TIP3    H242605   6.901   6.225   6.571 -2.2361 -1.8221  2.6092
 7016TIP3   OH242606   2.767   3.965   8.672 -0.0572  0.4041 -0.7329
 7016TIP3    H142607   2.860   3.943   8.674 -0.5359 -2.3805 -2.2530
 7016TIP3    H242608   2.732   3.912   8.600 -3.0960  0.0829  0.8004
 7017TIP3   OH242609   0.522   0.134   0.181  0.2026  0.2873  0.4688
 7017TIP3    H142610   0.561   0.144   0.268 -0.7463 -0.5298  1.0171
 7017TIP3    H242611   0.527   0.040   0.163 -0.4145  0.3296  0.0387
 7018TIP3   OH242612   5.998   1.661   0.255 -0.1548 -0.8014  0.2644
 7018TIP3    H142613   6.064   1.709   0.305  0.1363 -0.5090 -0.3850
 7018TIP3    H242614   5.994   1.575   0.297  0.0188 -0.5388  0.8387
 7019TIP3   OH242615   4.748   6.842   8.367  0.3780  0.1583  0.1549
 7019TIP3    H142616   4.740   6.759   8.319  0.0401  0.0892  0.3276
 7019TIP3    H242617   4.704   6.825   8.450 -1.2050  1.0360 -0.4722
 7020TIP3   OH242618   0.254   2.046   8.255  0.1085 -0.2437  0.3621
 7020TIP3    H142619   0.347   2.067   8.265  0.4890 -0.8427 -1.5196
 7020TIP3    H242620   0.224   2.105   8.186 -1.3158  0.9450  1.9085
 7021TIP3   OH242621   2.491   1.058   0.584 -0.4520 -0.1826 -0.7592
 7021TIP3    H142622   2.559   0.991   0.579 -2.4514 -2.2229 -2.3326
 7021TIP3    H242623   2.430   1.027   0.650  0.1272  1.7355  0.7868
 7022TIP3   OH242624   1.453   0.992   0.575 -0.3199 -0.0253 -0.2290
 7022TIP3    H142625   1.528   1.022   0.627  1.1348 -0.6400 -1.8666
 7022TIP3    H242626   1.390   1.063   0.580  0.2395  0.4074  1.4079
 7023TIP3   OH242627   3.148   3.027   0.186 -0.0144  0.4033  0.4037
 7023TIP3    H142628   3.208   2.986   0.248  0.0872 -0.5479 -0.3068
 7023TIP3    H242629   3.136   2.962   0.117  0.0788  1.5384 -0.7205
 7024TIP3   OH242630   2.881   0.064   7.565 -0.0073 -0.2111 -0.4438
 7024TIP3    H142631   2.804   0.122   7.558 -0.2269 -0.5030 -0.4721
 7024TIP3    H242632   2.904   0.066   7.658  1.2359  1.5183 -0.7441
 7025TIP3   OH242633   2.098   3.977   8.040 -0.0923  0.1319 -0.2222
 7025TIP3    H142634   2.178   3.942   8.079  1.1636  1.9759 -0.9933
 7025TIP3    H242635   2.049   4.013   8.114  0.5327  0.3455  0.0946
 7026TIP3   OH242636   3.003   5.992   1.167  0.5708  0.1713 -0.1925
 7026TIP3    H142637   2.948   6.041   1.107  0.6039  0.0774 -0.2990
 7026TIP3    H242638   3.089   6.032   1.160  0.7819 -0.3720 -0.8307
 7027TIP3   OH242639   4.686   6.779   0.289  0.4174 -0.2114 -0.4756
 7027TIP3    H142640   4.759   6.824   0.246 -0.4431  1.4524 -0.2660
 7027TIP3    H242641   4.608   6.826   0.260 -0.4557 -1.0798  0.3989
 7028TIP3   OH242642   5.133   6.280   0.316  0.2157 -0.0206 -0.3015
 7028TIP3    H142643   5.087   6.310   0.237  2.0051 -0.3778 -1.5330
 7028TIP3    H242644   5.216   6.328   0.315 -0.4841  1.5012  2.5120
 7029TIP3   OH242645   4.286   0.698   6.425 -0.4528 -0.0291 -0.3146
 7029TIP3    H142646   4.213   0.641   6.449 -1.3386  0.9505 -0.6116
 7029TIP3    H242647   4.246   0.766   6.371  1.0152 -0.5765 -2.1660
 7030TIP3   OH242648   5.485   0.600   7.292  0.3643  0.5690 -0.4409
 7030TIP3    H142649   5.485   0.630   7.383 -0.9295 -0.4382 -0.0848
 7030TIP3    H242650   5.574   0.569   7.277  0.0836 -1.1338  1.1513
 7031TIP3   OH242651   3.985   1.954   8.381  0.1920 -0.6238  0.7653
 7031TIP3    H142652   3.988   1.939   8.287  1.0296 -0.2722  0.7304
 7031TIP3    H242653   3.958   1.870   8.417 -1.0671 -0.4958  0.1532
 7032TIP3   OH242654   1.926   0.898   8.635  0.0022 -0.2172 -0.0781
 7032TIP3    H142655   1.893   0.963   8.573  0.6635  1.3251  1.0968
 7032TIP3    H242656   1.992   0.849   8.585  1.7404  2.0868 -0.2494
 7033TIP3   OH242657   1.264   3.691   0.342 -0.2750  0.1552  0.2809
 7033TIP3    H142658   1.216   3.611   0.319 -0.8963  0.5617  0.1290
 7033TIP3    H242659   1.324   3.704   0.269  0.7079 -0.8328  0.8778
 7034TIP3   OH242660   5.323   1.729   1.734  0.2369  0.6387  0.0331
 7034TIP3    H142661   5.305   1.778   1.654 -0.4120 -2.1097 -1.6361
 7034TIP3    H242662   5.237   1.701   1.764  0.6363 -0.0548  0.5386
 7035TIP3   OH242663   6.109   0.884   0.697 -0.1876 -0.1902 -0.4080
 7035TIP3    H142664   6.157   0.810   0.660  1.0594  1.1335 -1.6131
 7035TIP3    H242665   6.054   0.846   0.765 -0.1296 -2.3068 -1.4626
 7036TIP3   OH242666   5.098   1.689   7.252  0.1606  0.3349 -0.3940
 7036TIP3    H142667   5.164   1.688   7.321  0.2708  1.0563 -0.4756
 7036TIP3    H242668   5.114   1.610   7.201  0.0904 -0.2008  0.3891
 7037TIP3   OH242669   1.270   5.432   8.665 -0.4228  0.1284 -0.1895
 7037TIP3    H142670   1.293   5.387   8.584 -2.0455  0.1533 -0.6877
 7037TIP3    H242671   1.240   5.363   8.724 -2.1755  0.4134 -0.6901
 7038TIP3   OH242672   1.016   2.121   1.787  0.3445  0.0193 -0.4380
 7038TIP3    H142673   1.049   2.081   1.867  1.5242  0.8082 -0.5101
 7038TIP3    H242674   0.998   2.212   1.810  0.8034  0.2816 -1.0903
 7039TIP3   OH242675   5.243   1.832   8.296  0.7072  0.1239 -0.4087
 7039TIP3    H142676   5.323   1.881   8.310  0.3741  0.5678 -0.0454
 7039TIP3    H242677   5.173   1.890   8.326  0.2973 -0.4933 -0.1547
 7040TIP3   OH242678   0.568   0.957   7.669  0.1462 -0.2243 -0.0561
 7040TIP3    H142679   0.556   0.898   7.744  2.0914  0.6707  1.0436
 7040TIP3    H242680   0.521   1.037   7.693 -1.7962 -0.9577 -1.1881
 7041TIP3   OH242681   1.568   6.485   2.019  0.5810 -0.2024  0.0616
 7041TIP3    H142682   1.550   6.502   2.111 -1.1758 -0.2344 -0.2346
 7041TIP3    H242683   1.547   6.392   2.008 -0.7168  0.1507 -0.6622
 7042TIP3   OH242684   6.867   1.989   1.128 -0.4695  0.1155  0.4883
 7042TIP3    H142685   6.805   1.920   1.107 -0.6549  0.2756  0.5053
 7042TIP3    H242686   6.830   2.068   1.088 -0.8549  0.4392  1.4461
 7043TIP3   OH242687   2.768   5.745   8.378 -0.9552  0.1465 -0.4109
 7043TIP3    H142688   2.769   5.691   8.457 -1.8287 -0.5938 -0.8904
 7043TIP3    H242689   2.810   5.691   8.311  1.1274  1.3189 -0.1543
 7044TIP3   OH242690   6.835   6.101   8.628 -0.2591 -0.4036  0.1016
 7044TIP3    H142691   6.778   6.178   8.632  1.0600  0.6045  0.1326
 7044TIP3    H242692   6.904   6.119   8.692  0.0693 -1.6225  0.1074
 7045TIP3   OH242693   2.468   6.573   8.671  0.4285  0.2360 -0.4483
 7045TIP3    H142694   2.406   6.511   8.633  0.2996  0.4914 -0.6630
 7045TIP3    H242695   2.423   6.608   8.748  0.2333  0.5544 -0.7074
 7046TIP3   OH242696   0.190   2.342   7.623  0.6532  0.3201 -0.4848
 7046TIP3    H142697   0.215   2.417   7.677  0.4257 -0.4094  0.6656
 7046TIP3    H242698   0.099   2.325   7.648  0.9207 -0.7644 -0.2152
 7047TIP3   OH242699   4.044   6.445   6.802 -0.0893 -0.1207  0.6663
 7047TIP3    H142700   4.006   6.529   6.776 -0.5502 -0.4303  0.3215
 7047TIP3    H242701   4.084   6.412   6.722 -2.3766 -1.5501  0.0227
 7048TIP3   OH242702   5.618   6.684   8.685 -0.1912 -0.1285 -0.1647
 7048TIP3    H142703   5.564   6.705   8.609  0.0411  0.1057 -0.2651
 7048TIP3    H242704   5.660   6.601   8.662  0.2014  0.1479 -0.4697
 7049TIP3   OH242705   0.955   4.997   0.627  0.6716 -0.4601 -0.3938
 7049TIP3    H142706   0.865   5.013   0.600  0.5811  0.1036  0.2178
 7049TIP3    H242707   0.959   4.903   0.643 -0.0996 -0.3374  0.6067
 7050TIP3   OH242708   3.982   5.768   8.457 -0.1318  0.3843  0.0788
 7050TIP3    H142709   3.939   5.850   8.431 -1.1753 -0.1630  0.0500
 7050TIP3    H242710   4.022   5.736   8.376 -0.7450  0.2627 -0.1833
 7051TIP3   OH242711   6.501   1.344   0.065 -0.2224 -0.2844 -0.0461
 7051TIP3    H142712   6.540   1.355  -0.021 -0.7062 -3.1479 -0.7498
 7051TIP3    H242713   6.441   1.270   0.054 -1.1844  0.0257  2.4852
 7052TIP3   OH242714   5.055   1.342   7.545 -0.4108 -0.0128  0.4616
 7052TIP3    H142715   5.139   1.384   7.526 -0.6686  0.4559  0.3549
 7052TIP3    H242716   5.056   1.263   7.491 -1.0261  1.1804 -1.3840
 7053TIP3   OH242717   2.811   0.171   7.297  0.2376  0.0823  0.1799
 7053TIP3    H142718   2.780   0.088   7.260 -0.8780 -0.0360  1.2893
 7053TIP3    H242719   2.731   0.223   7.310  0.6269  0.3480  1.7750
 7054TIP3   OH242720   6.683   0.964   7.873 -0.5281 -0.3241 -0.5494
 7054TIP3    H142721   6.637   1.006   7.800 -0.5211  2.7028  1.0357
 7054TIP3    H242722   6.613   0.935   7.932 -0.4970 -1.5903 -1.1058
 7055TIP3   OH242723   2.188   2.925   7.397  0.2547  0.4528  0.0936
 7055TIP3    H142724   2.197   2.883   7.311  0.6545 -0.9468  0.7853
 7055TIP3    H242725   2.118   2.876   7.441  0.9815  0.2352  1.0605
 7056TIP3   OH242726   5.396   5.350   1.218  0.0559  0.4546 -0.1414
 7056TIP3    H142727   5.350   5.426   1.253  0.6337  1.8217 -2.1577
 7056TIP3    H242728   5.481   5.351   1.262 -0.7182 -0.3687  1.4499
 7057TIP3   OH242729   2.488   2.856   7.956  0.1485 -0.1683  0.1871
 7057TIP3    H142730   2.433   2.815   8.022  0.0611  0.0893  0.2773
 7057TIP3    H242731   2.465   2.949   7.960 -0.0986 -0.1943 -0.4297
 7058TIP3   OH242732   5.458   0.390   7.848 -0.1434  0.0587 -0.0885
 7058TIP3    H142733   5.492   0.475   7.876  1.9746 -1.0997  1.0407
 7058TIP3    H242734   5.408   0.358   7.923 -2.6107  1.0441 -1.1791
 7059TIP3   OH242735   6.273   0.681   1.182  0.2440  0.4180 -0.2180
 7059TIP3    H142736   6.310   0.765   1.157 -2.4906  1.4761 -1.1313
 7059TIP3    H242737   6.230   0.649   1.102 -0.1528 -1.0612  0.5335
 7060TIP3   OH242738   0.952   5.659   2.065  0.0681  0.0978  0.5357
 7060TIP3    H142739   0.982   5.729   2.007  0.1493 -1.1045 -0.9304
 7060TIP3    H242740   1.031   5.609   2.084  0.0848  0.6088  1.9089
 7061TIP3   OH242741   2.917   1.659   7.014 -0.7685 -0.2258 -0.3757
 7061TIP3    H142742   2.992   1.621   7.060 -0.5576 -0.7283 -1.1003
 7061TIP3    H242743   2.953   1.685   6.929 -1.1772  0.5488 -0.3189
 7062TIP3   OH242744   5.232   6.531   7.120  0.0611 -0.0735  0.2132
 7062TIP3    H142745   5.175   6.550   7.046  1.3080  1.4255 -0.4271
 7062TIP3    H242746   5.242   6.614   7.166  1.4142 -0.3595  0.4999
 7063TIP3   OH242747   0.184   4.261   7.236 -0.0746  0.2514 -0.1669
 7063TIP3    H142748   0.115   4.209   7.276 -0.5482  0.1439 -1.0945
 7063TIP3    H242749   0.144   4.346   7.219  0.5163  0.7388  0.7821
 7064TIP3   OH242750   2.518   3.248   0.558  0.0987  0.1884  0.6780
 7064TIP3    H142751   2.601   3.256   0.606 -0.6033  2.0323  1.6643
 7064TIP3    H242752   2.504   3.334   0.520 -0.3805 -0.6736 -1.2621
 7065TIP3   OH242753   6.748   4.086   0.148 -0.0642 -0.4246 -0.4660
 7065TIP3    H142754   6.767   4.131   0.231  0.6521 -0.6402 -0.4993
 7065TIP3    H242755   6.804   4.008   0.151 -0.3452 -0.6466 -0.9725
 7066TIP3   OH242756   3.296   4.622   1.125 -0.2619  0.0141 -0.0525
 7066TIP3    H142757   3.236   4.693   1.146  1.0073  1.4247 -0.9502
 7066TIP3    H242758   3.240   4.552   1.091 -1.6722  0.0542  2.0089
 7067TIP3   OH242759   1.862   2.465   2.034  0.1043 -0.4862  0.2992
 7067TIP3    H142760   1.857   2.392   2.096 -0.8063 -0.5861  0.1220
 7067TIP3    H242761   1.874   2.423   1.949 -0.9975 -0.4679  0.1253
 7068TIP3   OH242762   3.582   6.522   7.245 -0.8224 -0.3671 -0.1406
 7068TIP3    H142763   3.592   6.430   7.223  0.6764 -0.5469  1.1304
 7068TIP3    H242764   3.671   6.557   7.247 -0.9522  0.1383  3.1586
 7069TIP3   OH242765   0.120   5.833   0.032  0.2739 -0.1811 -0.1880
 7069TIP3    H142766   0.213   5.855   0.034  0.3445 -0.3784 -0.7953
 7069TIP3    H242767   0.106   5.780   0.110  0.6127  0.0823  0.0525
 7070TIP3   OH242768   5.984   3.015   1.044  0.0327  0.0609  0.8057
 7070TIP3    H142769   5.898   2.985   1.014  1.5165 -2.7621 -1.1744
 7070TIP3    H242770   6.013   2.948   1.106  2.3227 -1.3690 -1.5858
 7071TIP3   OH242771   1.445   3.196   7.485 -0.3903  0.5275  0.0353
 7071TIP3    H142772   1.453   3.129   7.418  1.2127 -0.5361  1.2271
 7071TIP3    H242773   1.368   3.171   7.536 -0.6602  0.4250 -0.4238
 7072TIP3   OH242774   4.344   3.686   1.933  0.5122  0.6809  0.0237
 7072TIP3    H142775   4.347   3.722   2.021 -4.0215  0.4730  0.5288
 7072TIP3    H242776   4.315   3.595   1.945  1.8366 -0.0221 -1.6586
 7073LIG     C142777   1.654   0.578   6.064  0.2183  0.2339  0.0749
 7073LIG     C242778   1.748   0.573   6.184  0.1815  0.4823 -0.2139
 7073LIG     C342779   1.893   0.550   6.134  0.7848 -0.4938  0.3581
 7073LIG      O42780   1.713   0.460   6.259  0.0748  0.7694  0.8929
 7073LIG     H142781   1.557   0.615   6.103 -0.2135 -1.9354  1.2383
 7073LIG     H242782   1.639   0.477   6.020  2.1091 -0.0579 -0.0214
 7073LIG     H342783   1.690   0.647   5.985  0.4045 -0.4840 -0.4706
 7073LIG     H442784   1.753   0.663   6.249  1.1758 -0.1554  0.6175
 7073LIG     H542785   1.894   0.453   6.079  2.6507 -0.3935  0.1309
 7073LIG     H642786   1.961   0.554   6.222  2.1260  1.1944 -0.6857
 7073LIG     H742787   1.928   0.627   6.062  0.1249  0.4125  0.9932
 7073LIG     H842788   1.632   0.488   6.301  0.3620  0.0678  1.9502
   6.86984   6.86984   8.69266
