Title
42785
    1SAPS     N    1   5.672   2.072   6.757 -0.1678  0.3048  0.5216
    1SAPS   HN1    2   5.608   2.057   6.677  0.7928 -2.6362  0.2115
    1SAPS   HN2    3   5.620   2.095   6.844  0.6978  1.4873  0.7558
    1SAPS   HN3    4   5.722   2.158   6.726 -0.2442  0.3224  0.4480
    1SAPS   C12    5   5.763   1.961   6.776 -0.0069  0.0874  1.0679
    1SAPS  H12A    6   5.834   1.989   6.853  1.8909 -1.6157  0.0391
    1SAPS   C13    7   5.684   1.840   6.823  0.1712 -0.9509 -0.3205
    1SAPS  O13A    8   5.558   1.848   6.840 -0.9278  0.0569  0.3641
    1SAPS  O13B    9   5.747   1.743   6.858  0.7688  0.4341 -0.0713
    1SAPS   C11   10   5.828   1.930   6.630 -0.8458  0.1970  0.9263
    1SAPS  H11A   11   5.750   1.915   6.552 -0.9697 -2.6346  1.5073
    1SAPS  H11B   12   5.867   1.827   6.633  1.2940  0.9626  0.8509
    1SAPS     P   13   6.081   1.992   6.619 -0.2759 -0.1174  0.5726
    1SAPS   O13   14   6.151   2.121   6.629  0.5053 -0.1932  0.6979
    1SAPS   O14   15   6.088   1.905   6.733 -0.3200 -0.3023 -0.5370
    1SAPS   O12   16   5.925   2.030   6.589 -0.2250  0.1629 -0.7216
    1SAPS   O11   17   6.129   1.922   6.492 -0.3219  0.4053 -0.4268
    1SAPS    C1   18   6.141   1.983   6.361  0.9313  0.3120 -0.3152
    1SAPS    HA   19   6.061   2.054   6.332 -1.3525 -1.7955  0.4083
    1SAPS    HB   20   6.234   2.044   6.362 -0.4796  2.6765  3.1572
    1SAPS    C2   21   6.153   1.870   6.248  0.2158  0.1568  0.3190
    1SAPS    HS   22   6.244   1.811   6.271  0.0929  0.5482  1.9430
    1SAPS   O21   23   6.156   1.911   6.112 -0.2722 -0.1987  0.9883
    1SAPS   C21   24   6.269   1.976   6.075  0.6135 -0.2742  0.0517
    1SAPS   O22   25   6.369   1.987   6.142 -0.0788  0.4731 -0.0030
    1SAPS   C22   26   6.255   2.055   5.950  0.8648 -0.0629  0.4769
    1SAPS   H2R   27   6.227   2.158   5.981  0.1926 -0.5168  1.4276
    1SAPS   H2S   28   6.355   2.052   5.903  0.2183  4.3037 -1.6727
    1SAPS    C3   29   6.036   1.774   6.270 -0.3174 -0.0740  0.3237
    1SAPS    HX   30   5.950   1.844   6.271  1.5478  2.3356  0.4828
    1SAPS    HY   31   6.052   1.728   6.370 -0.5828 -1.4971 -0.2595
    1SAPS   O31   32   6.019   1.676   6.164  0.0796  0.1995 -0.0715
    1SAPS   C31   33   6.070   1.557   6.191  0.5543 -0.3391 -0.6883
    1SAPS   O32   34   6.146   1.531   6.284  0.6012 -0.4375  0.7938
    1SAPS   C32   35   6.022   1.457   6.090  0.3136 -0.1902  0.0166
    1SAPS   H2X   36   5.911   1.451   6.089  0.3310 -4.2167  1.4825
    1SAPS   H2Y   37   6.049   1.358   6.132 -0.0004  0.6429  2.2738
    1SAPS   C23   38   6.160   1.993   5.846  0.2725  0.2546  0.1081
    1SAPS   H3R   39   6.151   2.057   5.756 -5.0632  0.3179  0.3781
    1SAPS   H3S   40   6.056   1.998   5.885 -0.8172 -0.4415 -2.5047
    1SAPS   C24   41   6.201   1.850   5.796 -0.0201  0.4014 -0.0543
    1SAPS   H4R   42   6.118   1.810   5.736 -0.0090 -0.3826  0.4342
    1SAPS   H4S   43   6.201   1.778   5.881 -0.5594 -0.8800 -1.1112
    1SAPS   C25   44   6.341   1.861   5.738 -0.7033 -0.5668 -1.0560
    1SAPS   H5R   45   6.417   1.866   5.816 -1.1474 -1.0210 -0.5879
    1SAPS   C26   46   6.381   1.850   5.612  0.2007  0.0291  0.9305
    1SAPS   H6R   47   6.489   1.835   5.593  0.3919  1.2118  1.0133
    1SAPS   C27   48   6.296   1.834   5.483  1.0534  0.2901 -0.7990
    1SAPS   H7R   49   6.191   1.838   5.518  1.4295 -0.9641  0.5883
    1SAPS   H7S   50   6.317   1.730   5.450 -0.9361 -0.5653  0.4656
    1SAPS   C28   51   6.322   1.921   5.367 -0.7985  0.0408  0.1908
    1SAPS   H8R   52   6.308   2.028   5.385 -2.2249  0.0569 -0.8421
    1SAPS   C29   53   6.339   1.874   5.238  0.3664 -0.2440  0.2056
    1SAPS   H9R   54   6.364   1.946   5.158  0.1945 -0.3823  0.0253
    1SAPS  C210   55   6.344   1.724   5.191 -0.1345  0.0761 -0.3894
    1SAPS  H10R   56   6.364   1.663   5.282 -0.9151 -0.7650 -0.7666
    1SAPS  H10S   57   6.439   1.712   5.135 -0.5084  1.1842 -1.2872
    1SAPS  C211   58   6.230   1.681   5.111 -0.2547  0.1330 -0.0789
    1SAPS  H11R   59   6.140   1.691   5.172 -0.5857  0.7309 -0.6552
    1SAPS  C212   60   6.223   1.657   4.980 -0.2260  0.6890  0.1253
    1SAPS  H12R   61   6.131   1.609   4.943  0.4342 -0.9757  0.5517
    1SAPS  C213   62   6.344   1.671   4.892  0.7690  0.2604 -0.0383
    1SAPS  H13R   63   6.402   1.578   4.875 -2.4972 -1.6562 -1.8209
    1SAPS  H13S   64   6.412   1.749   4.933  2.1191 -0.7055 -0.3866
    1SAPS  C214   65   6.305   1.741   4.762 -0.3960 -0.1778 -0.6336
    1SAPS  H14R   66   6.295   1.678   4.672 -1.9230  0.1992 -0.7550
    1SAPS  C215   67   6.287   1.869   4.740  0.0801 -0.3420  0.4829
    1SAPS  H15R   68   6.275   1.897   4.634 -0.7020  1.5361  1.0191
    1SAPS  C216   69   6.295   1.992   4.829 -0.7685  0.7071 -0.7066
    1SAPS  H16R   70   6.382   2.055   4.801  1.2809 -1.3121  0.7940
    1SAPS  H16S   71   6.305   1.969   4.937 -2.5964  2.0754 -0.1953
    1SAPS  C217   72   6.168   2.077   4.823 -0.4753  0.3216 -0.1817
    1SAPS  H17R   73   6.148   2.087   4.714 -0.0605 -0.7920 -0.3749
    1SAPS  H17S   74   6.188   2.175   4.871 -0.5265  1.0188 -1.5267
    1SAPS  C218   75   6.042   2.014   4.883  0.2032 -0.4982  0.0750
    1SAPS  H18R   76   6.022   1.911   4.846 -0.4618 -0.3766  0.0905
    1SAPS  H18S   77   5.956   2.073   4.845  0.2806 -2.1062 -2.9836
    1SAPS  C219   78   6.046   2.010   5.036 -0.4095  0.6444  0.5705
    1SAPS  H19R   79   6.132   1.951   5.073 -0.0190 -0.5914 -2.0687
    1SAPS  H19S   80   5.951   1.954   5.052  0.3737 -0.8198  0.3071
    1SAPS  C220   81   6.036   2.142   5.098  0.2997  0.0397 -0.0664
    1SAPS  H20R   82   6.103   2.221   5.058 -2.0765  2.3138  0.1543
    1SAPS  H20S   83   6.062   2.130   5.205  0.9727 -0.7094 -0.3048
    1SAPS  H20T   84   5.933   2.184   5.094  0.7133  1.1806  0.6920
    1SAPS   C33   85   6.096   1.469   5.954  0.3862  0.1986 -0.1622
    1SAPS   H3X   86   6.199   1.430   5.969 -0.3613 -1.5795  0.7137
    1SAPS   H3Y   87   6.097   1.568   5.905 -0.0615  1.3031  1.9693
    1SAPS   C34   88   6.049   1.359   5.856 -0.0630 -0.0780 -0.0486
    1SAPS   H4X   89   5.943   1.388   5.836 -1.2727 -2.9473  1.5618
    1SAPS   H4Y   90   6.063   1.256   5.895  0.1992 -1.0194 -2.4828
    1SAPS   C35   91   6.119   1.366   5.715 -0.0175  0.4721  0.5131
    1SAPS   H5X   92   6.202   1.292   5.715  1.1267  1.7131  0.6843
    1SAPS   H5Y   93   6.166   1.467   5.704  0.0399  0.5932  1.7010
    1SAPS   C36   94   6.033   1.342   5.590  0.1547 -0.2267  0.6259
    1SAPS   H6X   95   5.936   1.395   5.596 -0.1814 -0.5922 -1.1183
    1SAPS   H6Y   96   6.004   1.234   5.596 -0.2765 -0.1824 -0.4602
    1SAPS   C37   97   6.105   1.364   5.452 -0.2116 -0.0507 -0.3177
    1SAPS   H7X   98   6.185   1.287   5.456  1.8542  2.0377  2.0431
    1SAPS   H7Y   99   6.148   1.464   5.429 -2.0538  0.8858  0.1499
    1SAPS   C38  100   6.012   1.333   5.333 -0.0655 -0.4716 -0.0708
    1SAPS   H8X  101   5.933   1.410   5.325  2.5649  2.2299 -3.2168
    1SAPS   H8Y  102   5.962   1.234   5.347 -2.3374  0.7022  0.5713
    1SAPS   C39  103   6.081   1.344   5.192  0.8678 -0.2793 -0.1430
    1SAPS   H9X  104   6.103   1.452   5.185 -1.7558  0.4504  1.5192
    1SAPS   H9Y  105   6.007   1.319   5.112  0.8194 -0.1019 -0.1529
    1SAPS  C310  106   6.199   1.252   5.177 -0.2176 -0.4376 -0.5951
    1SAPS  H10X  107   6.182   1.146   5.204 -0.0504 -0.2145  0.4077
    1SAPS  H10Y  108   6.280   1.299   5.236 -1.6094  1.0804  0.1687
    1SAPS  C311  109   6.258   1.265   5.031 -0.1553  0.0444 -0.1746
    1SAPS  H11X  110   6.335   1.185   5.030  0.8713  1.0073 -0.4309
    1SAPS  H11Y  111   6.305   1.363   5.007 -1.6205  0.0902 -3.3292
    1SAPS  C312  112   6.159   1.223   4.920 -0.0290  0.3936  0.1662
    1SAPS  H12X  113   6.067   1.284   4.911 -0.9781 -1.1930 -1.3230
    1SAPS  H12Y  114   6.132   1.117   4.938  0.4776  0.3848  0.9229
    1SAPS  C313  115   6.221   1.230   4.770 -0.1509 -0.3564 -0.0887
    1SAPS  H13X  116   6.188   1.134   4.725 -0.4417  0.4214 -1.5918
    1SAPS  H13Y  117   6.329   1.215   4.791 -0.4533 -2.4873  0.1602
    1SAPS  C314  118   6.195   1.363   4.698 -0.2026  0.3634  0.2216
    1SAPS  H14X  119   6.205   1.442   4.775 -0.6669  1.7173 -1.0651
    1SAPS  H14Y  120   6.090   1.370   4.663  0.3951 -0.5629 -1.9085
    1SAPS  C315  121   6.291   1.388   4.583 -0.1475 -0.5821 -0.3867
    1SAPS  H15X  122   6.387   1.414   4.632 -0.5730  0.1153  0.0979
    1SAPS  H15Y  123   6.254   1.479   4.531 -1.9863 -0.7259  0.5862
    1SAPS  C316  124   6.307   1.270   4.486 -0.1207 -0.1417 -0.2293
    1SAPS  H16X  125   6.217   1.236   4.431 -0.0618  0.8206 -0.9355
    1SAPS  H16Y  126   6.329   1.175   4.540 -2.3591 -0.9387 -0.6189
    1SAPS  C317  127   6.426   1.301   4.391 -0.0315  0.5803  0.4978
    1SAPS  H17X  128   6.499   1.336   4.468 -0.0452  0.3624  0.6115
    1SAPS  H17Y  129   6.407   1.379   4.315 -1.4912 -1.2282 -1.1000
    1SAPS  C318  130   6.484   1.175   4.322 -0.2568 -0.2903  0.0520
    1SAPS  H18X  131   6.580   1.189   4.269 -0.2886 -1.4511 -0.3622
    1SAPS  H18Y  132   6.399   1.134   4.262 -1.3768 -2.1005  2.6429
    1SAPS  H18Z  133   6.504   1.112   4.411  1.4684  0.0309 -0.0782
    2SAPS     N  134   1.117   3.719   7.197  0.8580  0.4232  0.5216
    2SAPS   HN1  135   1.214   3.682   7.203  2.3053  3.8591  0.4455
    2SAPS   HN2  136   1.069   3.719   7.290  0.1157  0.6959  0.1431
    2SAPS   HN3  137   1.055   3.661   7.137  1.0222 -1.2280  1.8745
    2SAPS   C12  138   1.133   3.860   7.141 -0.0739  0.2157 -0.1594
    2SAPS  H12A  139   1.051   3.878   7.072  0.6014 -0.2315 -1.0953
    2SAPS   C13  140   1.131   3.965   7.254  0.2316 -0.1749 -0.8835
    2SAPS  O13A  141   1.096   3.925   7.370 -0.1166 -0.2746  0.3016
    2SAPS  O13B  142   1.126   4.087   7.225 -0.0891  0.2580  0.2241
    2SAPS   C11  143   1.266   3.872   7.058  0.1839  0.1241  0.5456
    2SAPS  H11A  144   1.348   3.856   7.132  1.3065  4.7467  0.5885
    2SAPS  H11B  145   1.285   3.966   7.002  1.2694 -0.8812 -0.8490
    2SAPS     P  146   1.378   3.748   6.846  0.0390  0.0811  0.1220
    2SAPS   O13  147   1.512   3.785   6.898  0.2900 -0.3771 -0.1619
    2SAPS   O14  148   1.362   3.618   6.774  0.6878 -0.4741 -0.6074
    2SAPS   O12  149   1.270   3.764   6.961  0.3517  0.1930 -0.3741
    2SAPS   O11  150   1.333   3.870   6.747  0.5814  0.6872 -0.3184
    2SAPS    C1  151   1.192   3.879   6.705  0.4188  0.6263  0.2474
    2SAPS    HA  152   1.111   3.882   6.780 -0.6305  1.8602 -0.8801
    2SAPS    HB  153   1.183   3.976   6.650 -0.2069  0.3127 -0.2137
    2SAPS    C2  154   1.159   3.780   6.585  0.4289  0.8693 -0.5605
    2SAPS    HS  155   1.139   3.681   6.631  1.4936  0.6547 -0.5358
    2SAPS   O21  156   1.275   3.759   6.501  0.0521 -0.1815 -0.0435
    2SAPS   C21  157   1.264   3.651   6.430 -0.2855  0.5736  0.9687
    2SAPS   O22  158   1.175   3.569   6.433 -0.1818 -0.0141  0.3686
    2SAPS   C22  159   1.376   3.660   6.327 -0.3644 -0.1665  0.0920
    2SAPS   H2R  160   1.396   3.765   6.298 -2.5480 -0.2298 -1.9295
    2SAPS   H2S  161   1.473   3.630   6.372 -0.8759 -1.7165  0.2290
    2SAPS    C3  162   1.017   3.794   6.506 -0.3938 -0.3360 -0.3897
    2SAPS    HX  163   0.938   3.824   6.579 -0.7178  1.2801 -1.3668
    2SAPS    HY  164   0.988   3.693   6.469 -1.8557 -0.3798  0.7562
    2SAPS   O31  165   1.027   3.902   6.418 -0.0406  0.1234  0.2270
    2SAPS   C31  166   0.943   3.887   6.313  0.1408  0.3587  0.4356
    2SAPS   O32  167   0.865   3.797   6.298  0.6160 -0.2947  0.4348
    2SAPS   C32  168   0.967   3.998   6.221  0.2450 -0.5480  0.5251
    2SAPS   H2X  169   1.076   4.005   6.200 -0.0259  2.9602 -0.4131
    2SAPS   H2Y  170   0.937   4.095   6.266 -2.3005 -0.1512 -1.7542
    2SAPS   C23  171   1.363   3.576   6.191  0.2511  0.6662 -0.3522
    2SAPS   H3R  172   1.348   3.467   6.201  0.8682  0.5727 -0.3949
    2SAPS   H3S  173   1.459   3.588   6.136 -0.9200  0.2293 -2.5952
    2SAPS   C24  174   1.249   3.622   6.095  0.4347 -0.1478  0.2135
    2SAPS   H4R  175   1.152   3.585   6.135  0.6818 -2.0929 -0.8720
    2SAPS   H4S  176   1.260   3.575   5.995 -0.4229 -1.2405  0.6094
    2SAPS   C25  177   1.249   3.771   6.071  0.0876 -0.4025 -0.4056
    2SAPS   H5R  178   1.248   3.838   6.159 -0.7322  0.6322 -1.1832
    2SAPS   C26  179   1.245   3.831   5.950 -0.1291 -0.3378 -0.6169
    2SAPS   H6R  180   1.259   3.939   5.961 -0.5411 -0.2504 -0.9248
    2SAPS   C27  181   1.237   3.774   5.812 -0.4323  0.2444 -0.2746
    2SAPS   H7R  182   1.173   3.684   5.801  1.0832 -0.6558 -2.4583
    2SAPS   H7S  183   1.340   3.746   5.782  0.5187  2.4672  0.6876
    2SAPS   C28  184   1.170   3.862   5.708  0.0661 -0.7366 -0.5320
    2SAPS   H8R  185   1.071   3.892   5.746 -0.0354 -1.7150  0.0370
    2SAPS   C29  186   1.209   3.903   5.588  0.9137 -0.5111 -0.0671
    2SAPS   H9R  187   1.148   3.971   5.527  2.6930  1.5309  0.3418
    2SAPS  C210  188   1.332   3.861   5.515 -0.6828  0.4675 -0.3033
    2SAPS  H10R  189   1.300   3.822   5.416 -0.3363  0.6718 -0.4994
    2SAPS  H10S  190   1.377   3.775   5.569 -2.3027 -0.1780  0.0533
    2SAPS  C211  191   1.428   3.978   5.499 -0.0500  0.3976 -0.1861
    2SAPS  H11R  192   1.444   4.051   5.580  0.8330 -0.9613  0.9244
    2SAPS  C212  193   1.483   4.010   5.380 -0.0551  0.2225 -0.2828
    2SAPS  H12R  194   1.547   4.100   5.377 -2.4870  2.0272 -1.8675
    2SAPS  C213  195   1.479   3.938   5.251 -0.3292  0.6846 -0.2310
    2SAPS  H13R  196   1.497   4.005   5.164  1.0550 -0.2642 -0.7232
    2SAPS  H13S  197   1.374   3.912   5.227 -0.0826 -1.6107  0.8955
    2SAPS  C214  198   1.561   3.807   5.256  0.4322  0.4556  0.6323
    2SAPS  H14R  199   1.619   3.800   5.349  1.2667 -2.8161 -0.0018
    2SAPS  C215  200   1.563   3.713   5.168 -0.0063 -0.3670  0.0211
    2SAPS  H15R  201   1.639   3.636   5.192 -0.3513 -0.5567  0.5247
    2SAPS  C216  202   1.491   3.718   5.030  0.2742 -0.3237 -0.7559
    2SAPS  H16R  203   1.457   3.821   5.006 -0.6180 -0.4463 -0.0654
    2SAPS  H16S  204   1.410   3.644   5.015  0.0990 -0.3679  0.3245
    2SAPS  C217  205   1.593   3.687   4.925  0.0181 -0.2330  0.6855
    2SAPS  H17R  206   1.629   3.582   4.940  0.3550  0.1341  2.6814
    2SAPS  H17S  207   1.672   3.764   4.936  1.0458 -0.9622 -1.1142
    2SAPS  C218  208   1.519   3.690   4.783 -0.2513  0.2670  0.3844
    2SAPS  H18R  209   1.477   3.791   4.763  1.7199  0.7190 -1.8755
    2SAPS  H18S  210   1.438   3.615   4.777 -0.7712  0.8375  0.1837
    2SAPS  C219  211   1.633   3.666   4.681 -0.0002  0.0756 -0.2805
    2SAPS  H19R  212   1.672   3.564   4.700 -0.9256 -0.4233 -0.9989
    2SAPS  H19S  213   1.718   3.733   4.706 -0.2206  0.4428 -0.5001
    2SAPS  C220  214   1.580   3.690   4.537 -0.9591 -0.3201 -0.0724
    2SAPS  H20R  215   1.504   3.612   4.515 -1.9511  0.8021 -0.7491
    2SAPS  H20S  216   1.660   3.687   4.460  0.1508 -1.0483  1.0838
    2SAPS  H20T  217   1.531   3.790   4.537  2.4341  1.5185  1.0091
    2SAPS   C33  218   0.908   3.979   6.077  0.5552  0.3617 -0.1048
    2SAPS   H3X  219   0.797   3.978   6.085  0.6048  1.3029  0.9211
    2SAPS   H3Y  220   0.949   3.881   6.043  0.7522 -0.1073  1.3964
    2SAPS   C34  221   0.954   4.084   5.975 -0.2842  0.4342 -0.1622
    2SAPS   H4X  222   1.061   4.064   5.952  0.4888  0.2246  3.0552
    2SAPS   H4Y  223   0.959   4.181   6.030 -0.7966 -0.9825  2.5547
    2SAPS   C35  224   0.867   4.083   5.856 -0.2340  0.3177  0.1738
    2SAPS   H5X  225   0.766   4.128   5.869  0.3171  1.7152 -0.2491
    2SAPS   H5Y  226   0.840   3.983   5.816 -1.6509  1.3317 -1.5264
    2SAPS   C36  227   0.943   4.168   5.749 -0.1203  0.3844  0.2845
    2SAPS   H6X  228   1.045   4.124   5.739 -0.0483  0.4499  0.7248
    2SAPS   H6Y  229   0.953   4.277   5.766 -0.2491  0.5376 -0.5972
    2SAPS   C37  230   0.863   4.150   5.614 -0.6780 -0.0170 -0.2258
    2SAPS   H7X  231   0.756   4.179   5.625 -0.4958  0.6946 -0.2571
    2SAPS   H7Y  232   0.871   4.042   5.589  0.9876  0.2737 -1.0695
    2SAPS   C38  233   0.923   4.211   5.488  0.4097 -0.1058  0.5408
    2SAPS   H8X  234   1.028   4.176   5.498  0.9216  0.8289 -1.1110
    2SAPS   H8Y  235   0.925   4.322   5.486 -2.4875  0.0201  0.1548
    2SAPS   C39  236   0.859   4.146   5.363 -0.4649  0.5559 -1.0022
    2SAPS   H9X  237   0.758   4.192   5.365 -0.4529  0.6199  1.1393
    2SAPS   H9Y  238   0.849   4.036   5.378  1.1964  0.1465 -2.4623
    2SAPS  C310  239   0.944   4.175   5.246  0.3751  0.0113 -0.0363
    2SAPS  H10X  240   0.956   4.282   5.219 -0.1523 -0.2307 -1.2686
    2SAPS  H10Y  241   0.889   4.128   5.162  1.4753 -0.1092 -0.7131
    2SAPS  C311  242   1.080   4.100   5.242 -0.3862 -0.5809  0.9040
    2SAPS  H11X  243   1.065   3.995   5.275 -0.0244 -0.8922  0.1045
    2SAPS  H11Y  244   1.150   4.149   5.314  0.8158 -1.3913  0.3083
    2SAPS  C312  245   1.151   4.106   5.101  0.4702 -0.8572  0.3111
    2SAPS  H12X  246   1.257   4.072   5.108  1.0762  1.0408  1.0850
    2SAPS  H12Y  247   1.146   4.215   5.081  0.9540 -1.0189 -0.8310
    2SAPS  C313  248   1.088   4.020   4.993  0.1519 -0.3237 -0.1765
    2SAPS  H13X  249   0.986   4.055   4.964 -0.3200 -0.6973  0.9834
    2SAPS  H13Y  250   1.075   3.919   5.036  1.3721 -0.6122 -0.4477
    2SAPS  C314  251   1.165   4.019   4.860 -0.0460 -0.2742 -0.1247
    2SAPS  H14X  252   1.260   3.963   4.871  0.6504  1.0173  0.7488
    2SAPS  H14Y  253   1.188   4.124   4.831 -3.2406  0.7904  0.7544
    2SAPS  C315  254   1.092   3.965   4.737  0.0814  0.7562  0.3731
    2SAPS  H15X  255   0.998   4.018   4.710  0.2441  1.0924  0.4682
    2SAPS  H15Y  256   1.059   3.861   4.760  1.0037  0.5242  0.7152
    2SAPS  C316  257   1.187   3.950   4.615  0.1493  0.0856 -0.6624
    2SAPS  H16X  258   1.283   3.916   4.659 -1.1469 -1.5165  1.1441
    2SAPS  H16Y  259   1.200   4.048   4.564 -0.8059 -0.0649 -1.2324
    2SAPS  C317  260   1.134   3.845   4.521  0.0523 -0.2696  0.1531
    2SAPS  H17X  261   1.046   3.881   4.465  0.4563 -0.4891 -0.6427
    2SAPS  H17Y  262   1.099   3.762   4.586 -0.5515  1.8658  2.7138
    2SAPS  C318  263   1.245   3.790   4.426 -0.0247 -0.0517 -0.6780
    2SAPS  H18X  264   1.208   3.714   4.354  0.8447  0.2773 -1.4737
    2SAPS  H18Y  265   1.321   3.743   4.493  1.0318  1.1873 -0.9834
    2SAPS  H18Z  266   1.284   3.875   4.368 -1.0358  1.2676  0.4958
    3SAPS     N  267   1.498   2.660   6.893  0.5967 -0.1027  0.1574
    3SAPS   HN1  268   1.565   2.663   6.973  0.4820  1.1389  0.2223
    3SAPS   HN2  269   1.450   2.751   6.878  0.4743 -0.2490 -0.3554
    3SAPS   HN3  270   1.436   2.581   6.921  0.7926 -0.8493 -1.3794
    3SAPS   C12  271   1.596   2.631   6.778  0.5426  0.4936 -0.0589
    3SAPS  H12A  272   1.679   2.699   6.789 -0.0225  1.3867 -1.0522
    3SAPS   C13  273   1.649   2.488   6.789 -0.2289  0.8939 -0.9745
    3SAPS  O13A  274   1.613   2.417   6.888  0.1030  0.0010 -0.2273
    3SAPS  O13B  275   1.753   2.455   6.728  0.6532  0.4426  0.3153
    3SAPS   C11  276   1.529   2.652   6.638  0.0599  0.0449  0.2364
    3SAPS  H11A  277   1.616   2.646   6.569  0.6291 -2.4452  1.0930
    3SAPS  H11B  278   1.482   2.753   6.636  1.0967  0.5350 -0.2600
    3SAPS     P  279   1.406   2.500   6.460 -0.1963  0.0935 -0.1876
    3SAPS   O13  280   1.540   2.456   6.419 -0.2389 -0.0595  0.2138
    3SAPS   O14  281   1.301   2.399   6.454  0.7789 -0.1462  0.5145
    3SAPS   O12  282   1.428   2.550   6.605 -0.2678  0.5339 -0.3603
    3SAPS   O11  283   1.364   2.627   6.379 -0.0705 -0.1123 -0.1079
    3SAPS    C1  284   1.227   2.669   6.379  0.2745 -0.2221 -0.1106
    3SAPS    HA  285   1.156   2.595   6.336 -0.0388  0.4193 -0.7234
    3SAPS    HB  286   1.190   2.696   6.481 -0.1183 -2.0042  0.2492
    3SAPS    C2  287   1.204   2.799   6.302 -0.1253 -0.3683  0.2530
    3SAPS    HS  288   1.095   2.805   6.318 -0.0526 -1.5071  1.3004
    3SAPS   O21  289   1.259   2.782   6.175 -0.1971  0.2171  0.0269
    3SAPS   C21  290   1.191   2.707   6.085 -0.1916 -0.4513  0.4730
    3SAPS   O22  291   1.076   2.670   6.100  0.4234 -0.2413 -0.3177
    3SAPS   C22  292   1.282   2.666   5.972  0.2234  0.2225 -0.4823
    3SAPS   H2R  293   1.375   2.621   6.014 -0.0583  2.7772  3.3213
    3SAPS   H2S  294   1.226   2.587   5.915  1.9928  0.5875 -2.9063
    3SAPS    C3  295   1.275   2.929   6.358  0.1731  0.2204  0.0530
    3SAPS    HX  296   1.380   2.904   6.382  0.0300 -0.5963 -0.1602
    3SAPS    HY  297   1.223   2.946   6.455 -0.6091 -0.4555 -0.2396
    3SAPS   O31  298   1.246   3.056   6.287 -0.0172 -0.0704 -0.0985
    3SAPS   C31  299   1.348   3.078   6.198 -0.1032  0.5513 -0.0257
    3SAPS   O32  300   1.453   3.011   6.191  0.2397  1.0563  0.1843
    3SAPS   C32  301   1.315   3.200   6.111 -0.1462  0.4105 -0.2598
    3SAPS   H2X  302   1.394   3.275   6.134 -0.3908  0.6368 -0.1544
    3SAPS   H2Y  303   1.214   3.237   6.138  0.2880  1.1073  0.4398
    3SAPS   C23  304   1.311   2.781   5.879 -0.2752 -0.2424 -0.0591
    3SAPS   H3R  305   1.352   2.862   5.943 -0.5134 -1.3644  1.5640
    3SAPS   H3S  306   1.217   2.805   5.825  0.8300 -1.1504 -2.5336
    3SAPS   C24  307   1.417   2.746   5.777 -0.6789 -0.5739  0.2684
    3SAPS   H4R  308   1.511   2.720   5.832  0.0689 -0.4358 -0.9043
    3SAPS   H4S  309   1.417   2.838   5.715 -2.7818  0.4167  1.6273
    3SAPS   C25  310   1.393   2.628   5.687 -0.8699  0.4697  0.3462
    3SAPS   H5R  311   1.376   2.532   5.738  2.3044 -2.0369 -2.7529
    3SAPS   C26  312   1.388   2.631   5.553  0.1918  1.0954  0.0405
    3SAPS   H6R  313   1.358   2.540   5.498 -0.5354  0.8751  0.7986
    3SAPS   C27  314   1.379   2.751   5.471  0.1906 -0.5263  0.0499
    3SAPS   H7R  315   1.485   2.772   5.443  0.0145 -1.6532 -1.5988
    3SAPS   H7S  316   1.327   2.826   5.534  0.7730  0.3542 -0.4917
    3SAPS   C28  317   1.313   2.750   5.340  0.2143  0.3033  0.2170
    3SAPS   H8R  318   1.226   2.816   5.336 -0.7333 -0.8389  1.3335
    3SAPS   C29  319   1.342   2.660   5.242  0.3045  0.0597  0.0277
    3SAPS   H9R  320   1.289   2.679   5.147 -0.2560 -0.6382  0.1870
    3SAPS  C210  321   1.445   2.550   5.246  0.0073  0.0890  0.3287
    3SAPS  H10R  322   1.521   2.577   5.323  1.0264 -1.9028  0.0893
    3SAPS  H10S  323   1.510   2.556   5.156 -2.2191  0.3969 -1.3576
    3SAPS  C211  324   1.400   2.408   5.247  0.3492 -0.0587 -0.1872
    3SAPS  H11R  325   1.399   2.361   5.346 -1.3977  0.3147  0.0071
    3SAPS  C212  326   1.338   2.345   5.140  0.0166  0.2824 -0.4135
    3SAPS  H12R  327   1.306   2.241   5.160  2.5763 -0.1444  2.1255
    3SAPS  C213  328   1.340   2.387   4.997  0.0649 -0.1036 -0.0021
    3SAPS  H13R  329   1.443   2.380   4.958  0.5471 -0.6462  1.3236
    3SAPS  H13S  330   1.318   2.495   4.990  1.8547  0.3394  0.6928
    3SAPS  C214  331   1.240   2.312   4.915  0.0315  0.5593  0.3443
    3SAPS  H14R  332   1.148   2.276   4.963  1.6002 -2.6782  1.2036
    3SAPS  C215  333   1.244   2.282   4.785  0.0197 -0.2614 -0.5501
    3SAPS  H15R  334   1.169   2.211   4.746 -2.2208  1.3949  0.4675
    3SAPS  C216  335   1.350   2.327   4.685  0.5085  0.5813 -0.6554
    3SAPS  H16R  336   1.389   2.430   4.702  0.7944  0.1283  1.8016
    3SAPS  H16S  337   1.316   2.314   4.580 -0.6804 -1.4566 -0.0710
    3SAPS  C217  338   1.473   2.233   4.695  0.4830 -0.5409 -0.2800
    3SAPS  H17R  339   1.437   2.128   4.689 -0.3406 -0.3207  0.6887
    3SAPS  H17S  340   1.533   2.260   4.784  1.3680  3.3961 -1.8877
    3SAPS  C218  341   1.575   2.228   4.581  0.1038 -1.0622 -0.3996
    3SAPS  H18R  342   1.518   2.203   4.489  1.5744  0.0256 -1.6747
    3SAPS  H18S  343   1.656   2.153   4.598 -0.1476 -1.1265  0.5172
    3SAPS  C219  344   1.643   2.371   4.559  0.1513 -0.5393 -0.0175
    3SAPS  H19R  345   1.559   2.425   4.511  0.4479 -1.7849 -2.0854
    3SAPS  H19S  346   1.676   2.419   4.653  1.1989 -0.4269 -0.4364
    3SAPS  C220  347   1.750   2.374   4.454 -0.4229  0.0784  0.0533
    3SAPS  H20R  348   1.841   2.329   4.500 -0.9923 -1.4302 -0.2391
    3SAPS  H20S  349   1.765   2.476   4.415  1.0162  0.0267  0.4257
    3SAPS  H20T  350   1.725   2.315   4.363 -1.3796 -1.3110  1.1674
    3SAPS   C33  351   1.308   3.154   5.968  0.4111  0.4230  1.4167
    3SAPS   H3X  352   1.240   3.067   5.957 -1.0833  1.4515  2.2430
    3SAPS   H3Y  353   1.408   3.112   5.944 -0.3758 -0.7309 -0.0584
    3SAPS   C34  354   1.290   3.265   5.870  0.3908 -0.2252 -0.0375
    3SAPS   H4X  355   1.318   3.231   5.768  1.3289 -2.2827  0.8513
    3SAPS   H4Y  356   1.354   3.351   5.900  1.7358 -1.7797  1.7824
    3SAPS   C35  357   1.147   3.324   5.854 -0.1681  0.1404  0.1081
    3SAPS   H5X  358   1.097   3.336   5.952 -0.1381 -2.0904  0.4522
    3SAPS   H5Y  359   1.165   3.426   5.813  0.2460 -0.7022 -1.9558
    3SAPS   C36  360   1.059   3.237   5.760  0.3553  0.1444  0.2053
    3SAPS   H6X  361   0.956   3.274   5.741  0.7144  0.0985 -2.1670
    3SAPS   H6Y  362   1.051   3.134   5.801  1.2362  0.3595  0.9639
    3SAPS   C37  363   1.112   3.218   5.617  0.0681  0.5772 -1.2247
    3SAPS   H7X  364   1.192   3.141   5.613  0.3631  0.7622  0.4385
    3SAPS   H7Y  365   1.154   3.315   5.583 -0.9326  2.1359  1.5832
    3SAPS   C38  366   1.006   3.172   5.525 -0.1635  0.7798 -0.3748
    3SAPS   H8X  367   0.950   3.262   5.494  1.5638  1.7152 -0.9145
    3SAPS   H8Y  368   0.923   3.120   5.578  0.5088 -0.4798 -0.5102
    3SAPS   C39  369   1.050   3.087   5.405  0.4641  0.3253 -0.5101
    3SAPS   H9X  370   1.057   2.979   5.430 -1.2448  0.0514 -1.0337
    3SAPS   H9Y  371   1.155   3.117   5.388  0.2436  0.9115 -0.8541
    3SAPS  C310  372   0.969   3.104   5.278 -0.0985  0.2553  0.6340
    3SAPS  H10X  373   0.935   3.208   5.261 -0.0781 -0.0560 -1.5499
    3SAPS  H10Y  374   0.872   3.052   5.293  0.6928 -2.5709 -2.8428
    3SAPS  C311  375   1.035   3.053   5.146  0.9163 -0.0572  0.1428
    3SAPS  H11X  376   1.083   2.957   5.175  0.0500 -0.1277  1.4175
    3SAPS  H11Y  377   1.112   3.125   5.113 -0.2789  1.3937  0.4061
    3SAPS  C312  378   0.930   3.013   5.040  0.0435 -0.5124 -0.5638
    3SAPS  H12X  379   0.888   3.102   4.988 -1.1220  0.5091  1.9159
    3SAPS  H12Y  380   0.854   2.953   5.095  0.6096 -1.8464 -1.2191
    3SAPS  C313  381   0.993   2.920   4.933 -0.4018  0.0477  0.3828
    3SAPS  H13X  382   0.925   2.883   4.853 -0.4387  0.0175  0.4285
    3SAPS  H13Y  383   1.042   2.836   4.987  0.3243 -1.3212 -2.2015
    3SAPS  C314  384   1.115   2.983   4.851  0.2708 -0.5520  0.4781
    3SAPS  H14X  385   1.194   3.023   4.918  1.4293 -0.7089 -0.7649
    3SAPS  H14Y  386   1.065   3.061   4.790  1.4220 -0.9517 -1.0223
    3SAPS  C315  387   1.184   2.890   4.758 -0.7693 -0.7599  0.0151
    3SAPS  H15X  388   1.226   2.941   4.668 -0.4591 -0.2472  0.4458
    3SAPS  H15Y  389   1.108   2.827   4.708 -0.2468 -0.7903 -0.7733
    3SAPS  C316  390   1.298   2.810   4.821  0.0099  0.6027 -0.3229
    3SAPS  H16X  391   1.246   2.752   4.900  0.2588 -2.9878 -2.6008
    3SAPS  H16Y  392   1.384   2.873   4.851  0.8480  0.7209 -2.7972
    3SAPS  C317  393   1.354   2.708   4.718  0.5913 -0.3364 -0.0722
    3SAPS  H17X  394   1.267   2.649   4.684  0.5595  0.5061 -1.5671
    3SAPS  H17Y  395   1.426   2.639   4.766  0.4434  0.8577  1.9620
    3SAPS  C318  396   1.416   2.773   4.590 -0.8850 -0.0365 -0.4685
    3SAPS  H18X  397   1.346   2.835   4.529  0.0126  0.5103 -0.9608
    3SAPS  H18Y  398   1.443   2.687   4.524 -1.3991 -1.0650  0.6171
    3SAPS  H18Z  399   1.514   2.820   4.612 -0.0044 -2.3153  0.8028
    4SAPS     N  400   5.236   3.821   6.529  0.0007 -0.5364  0.0106
    4SAPS   HN1  401   5.190   3.729   6.542 -1.7320  0.1036 -1.2989
    4SAPS   HN2  402   5.161   3.887   6.500  0.9719 -0.0518 -1.5360
    4SAPS   HN3  403   5.311   3.823   6.457  1.8434  1.3490  1.8298
    4SAPS   C12  404   5.308   3.869   6.643 -0.7890 -0.2062 -0.0437
    4SAPS  H12A  405   5.264   3.954   6.692  2.4645  1.5212  0.2019
    4SAPS   C13  406   5.337   3.757   6.754 -0.8898  0.2294  0.4502
    4SAPS  O13A  407   5.284   3.647   6.739 -0.1279 -0.5422 -0.3210
    4SAPS  O13B  408   5.366   3.795   6.869  0.3196  0.7865 -0.0469
    4SAPS   C11  409   5.444   3.938   6.602 -0.2047  0.8738  0.4593
    4SAPS  H11A  410   5.478   3.993   6.692 -0.9514 -1.1454  2.0730
    4SAPS  H11B  411   5.417   4.000   6.514 -1.3154  1.1505  0.9821
    4SAPS     P  412   5.685   3.862   6.563  0.0490  0.1568 -0.1320
    4SAPS   O13  413   5.723   3.903   6.703 -0.7728 -0.2961 -0.3757
    4SAPS   O14  414   5.759   3.750   6.493  0.2572 -0.1237 -0.4387
    4SAPS   O12  415   5.531   3.833   6.555  0.4742  0.3291 -1.0783
    4SAPS   O11  416   5.695   3.985   6.473 -0.6435 -0.1698 -0.1225
    4SAPS    C1  417   5.687   3.977   6.330  0.3489 -0.1924 -0.1016
    4SAPS    HA  418   5.724   3.878   6.296 -0.2699 -1.0210  1.5352
    4SAPS    HB  419   5.583   3.986   6.291  0.6561  0.0866 -0.8672
    4SAPS    C2  420   5.774   4.089   6.259 -0.2751  0.2928  0.2465
    4SAPS    HS  421   5.727   4.184   6.293 -1.6164 -0.1702 -0.2554
    4SAPS   O21  422   5.756   4.074   6.112  1.3193  0.3370  0.6207
    4SAPS   C21  423   5.805   4.178   6.037  0.1330  0.0953 -0.9575
    4SAPS   O22  424   5.865   4.276   6.080  0.1876  0.1970 -0.1597
    4SAPS   C22  425   5.764   4.157   5.895  0.4100 -0.0533 -0.6475
    4SAPS   H2R  426   5.791   4.057   5.856  0.2796  1.1284 -4.1163
    4SAPS   H2S  427   5.654   4.172   5.898  0.5082  0.5612 -0.0022
    4SAPS    C3  428   5.921   4.077   6.305 -0.3727  0.3214 -0.0447
    4SAPS    HX  429   5.926   4.070   6.416  0.4600 -3.2389 -0.1780
    4SAPS    HY  430   5.966   4.165   6.256 -2.2644  0.7941 -1.0484
    4SAPS   O31  431   5.972   3.945   6.277  0.2947 -0.4812  0.2334
    4SAPS   C31  432   6.063   3.949   6.173  0.8376 -0.2886  0.0549
    4SAPS   O32  433   6.090   4.052   6.107  0.6096 -0.2519 -0.3288
    4SAPS   C32  434   6.132   3.814   6.149 -0.1327 -0.2430 -0.5951
    4SAPS   H2X  435   6.110   3.745   6.234  1.8077  2.4459  2.2962
    4SAPS   H2Y  436   6.240   3.835   6.138 -0.0505 -0.1695  0.2854
    4SAPS   C23  437   5.824   4.262   5.798  0.2141 -0.0790 -0.3066
    4SAPS   H3R  438   5.829   4.366   5.839 -0.3182 -0.7707  1.6239
    4SAPS   H3S  439   5.756   4.272   5.711  0.2784  1.0616 -0.2432
    4SAPS   C24  440   5.956   4.205   5.748 -0.1086 -0.8456  0.2836
    4SAPS   H4R  441   5.923   4.124   5.679  0.6449  0.8048 -2.1832
    4SAPS   H4S  442   6.014   4.154   5.827  2.3909 -1.8818 -2.0435
    4SAPS   C25  443   6.037   4.314   5.672 -0.4635 -0.6304  0.0198
    4SAPS   H5R  444   6.087   4.391   5.732 -1.8479 -0.7058  1.3512
    4SAPS   C26  445   6.065   4.304   5.544  0.6867  0.1789  0.6490
    4SAPS   H6R  446   6.130   4.382   5.501  1.3450 -0.5384  0.3209
    4SAPS   C27  447   6.033   4.196   5.435  0.6268 -0.3906 -0.6924
    4SAPS   H7R  448   5.923   4.201   5.419  0.2572 -3.4134  0.2734
    4SAPS   H7S  449   6.062   4.094   5.468  1.0918 -0.6804 -1.9486
    4SAPS   C28  450   6.097   4.220   5.302  0.3976 -0.3583 -0.2172
    4SAPS   H8R  451   6.183   4.156   5.275  0.3823 -0.0113 -1.1302
    4SAPS   C29  452   6.071   4.324   5.227  0.6032 -0.0461  0.0316
    4SAPS   H9R  453   6.129   4.330   5.134 -0.4087 -0.4256 -0.6473
    4SAPS  C210  454   5.977   4.441   5.261 -0.0929  0.7709  0.2201
    4SAPS  H10R  455   6.035   4.534   5.243  0.0048  0.3338 -1.9526
    4SAPS  H10S  456   5.947   4.445   5.368 -0.0466 -0.7054  0.3060
    4SAPS  C211  457   5.852   4.455   5.169  0.5435  0.2923 -0.1903
    4SAPS  H11R  458   5.764   4.393   5.190 -0.0320  0.7936 -1.0424
    4SAPS  C212  459   5.839   4.539   5.062  0.6852  0.8315 -0.2827
    4SAPS  H12R  460   5.746   4.525   5.005  0.2201 -4.6120  1.2538
    4SAPS  C213  461   5.947   4.617   4.994  0.2084 -0.0584  0.3195
    4SAPS  H13R  462   5.985   4.564   4.903  1.2179 -0.7052  1.0895
    4SAPS  H13S  463   6.029   4.621   5.068  2.0570 -2.3531 -1.4315
    4SAPS  C214  464   5.899   4.759   4.962  0.3467 -0.3434 -0.8677
    4SAPS  H14R  465   5.832   4.798   5.040 -0.9212 -0.6851 -1.7672
    4SAPS  C215  466   5.930   4.832   4.854  0.8354 -0.1801 -0.7998
    4SAPS  H15R  467   5.882   4.931   4.843 -2.2797 -1.0222  2.9217
    4SAPS  C216  468   6.026   4.792   4.743  0.0038 -0.5584 -0.6929
    4SAPS  H16R  469   5.975   4.776   4.646 -2.0005 -0.0332  0.2294
    4SAPS  H16S  470   6.073   4.694   4.764 -1.1825 -0.6440  2.0131
    4SAPS  C217  471   6.141   4.896   4.732 -0.0612  0.2792 -0.0453
    4SAPS  H17R  472   6.183   4.910   4.835  1.0414  0.2802 -0.4758
    4SAPS  H17S  473   6.098   4.990   4.692  0.4289 -0.0761 -1.4751
    4SAPS  C218  474   6.259   4.854   4.639 -0.1212 -0.1061  0.2217
    4SAPS  H18R  475   6.210   4.851   4.539  1.2721 -0.8882 -0.4716
    4SAPS  H18S  476   6.301   4.754   4.662 -1.0139  0.0373  2.7595
    4SAPS  C219  477   6.371   4.957   4.649 -0.1531 -0.0122  0.3190
    4SAPS  H19R  478   6.423   4.943   4.746  0.0122 -2.2523 -0.0512
    4SAPS  H19S  479   6.337   5.062   4.632  0.8439  0.2032 -0.4351
    4SAPS  C220  480   6.475   4.939   4.534  0.4419  0.2086 -0.1007
    4SAPS  H20R  481   6.546   5.024   4.523  0.2804  0.1876 -1.4983
    4SAPS  H20S  482   6.427   4.949   4.434 -2.2892 -0.2787  1.0629
    4SAPS  H20T  483   6.519   4.840   4.557 -0.8390 -0.7952 -1.7372
    4SAPS   C33  484   6.091   3.736   6.020 -0.2513 -0.0223  0.0737
    4SAPS   H3X  485   5.981   3.730   6.008 -0.0125  0.0840 -3.0939
    4SAPS   H3Y  486   6.122   3.630   6.028  0.5328  0.3201  2.5259
    4SAPS   C34  487   6.149   3.799   5.892  0.0910  0.2576 -0.5075
    4SAPS   H4X  488   6.258   3.807   5.917 -0.0372  0.5896 -0.0468
    4SAPS   H4Y  489   6.114   3.901   5.869 -0.8584  0.4169  1.4015
    4SAPS   C35  490   6.140   3.702   5.765  0.0472  0.3514  0.0514
    4SAPS   H5X  491   6.034   3.670   5.764  0.2600 -0.3747 -0.6057
    4SAPS   H5Y  492   6.203   3.611   5.774  0.8451  0.8653 -0.1822
    4SAPS   C36  493   6.169   3.777   5.631 -0.2913  0.2164 -0.3568
    4SAPS   H6X  494   6.280   3.786   5.630 -0.1191 -1.2752  1.3080
    4SAPS   H6Y  495   6.108   3.869   5.631 -0.5939  0.0259  0.5174
    4SAPS   C37  496   6.132   3.707   5.505 -0.3220  0.3610  0.1883
    4SAPS   H7X  497   6.025   3.682   5.494  0.2129 -1.5785 -1.0257
    4SAPS   H7Y  498   6.189   3.612   5.502  1.5387  1.3206  1.9515
    4SAPS   C38  499   6.161   3.798   5.385 -0.0306 -0.1374 -0.6335
    4SAPS   H8X  500   6.254   3.854   5.410  0.1522  0.3891 -2.3942
    4SAPS   H8Y  501   6.079   3.871   5.368 -0.4287 -0.2773  0.5615
    4SAPS   C39  502   6.187   3.706   5.265  0.0660 -0.9398  0.5950
    4SAPS   H9X  503   6.120   3.617   5.262  0.8849 -1.5506 -0.4159
    4SAPS   H9Y  504   6.291   3.667   5.275  0.3141  0.0743  2.2293
    4SAPS  C310  505   6.161   3.779   5.128 -0.2271 -0.0597  0.1651
    4SAPS  H10X  506   6.175   3.889   5.140  1.7856 -0.3883  1.4282
    4SAPS  H10Y  507   6.060   3.752   5.091  0.5265 -3.6403  0.3866
    4SAPS  C311  508   6.259   3.728   5.024  0.3208 -0.7576 -0.3179
    4SAPS  H11X  509   6.361   3.732   5.068  0.5836 -0.9897 -0.9080
    4SAPS  H11Y  510   6.240   3.779   4.928 -1.4306 -0.6653  0.0380
    4SAPS  C312  511   6.234   3.579   4.994 -0.4815 -0.0594 -0.4760
    4SAPS  H12X  512   6.126   3.555   4.991 -0.5479 -0.1179  1.2433
    4SAPS  H12Y  513   6.272   3.513   5.076  0.3358  0.7913 -0.1587
    4SAPS  C313  514   6.308   3.526   4.872  0.5410  0.2577  0.4351
    4SAPS  H13X  515   6.416   3.553   4.883  0.9407 -0.3016 -1.7020
    4SAPS  H13Y  516   6.272   3.567   4.776  0.0710 -2.5386 -0.6462
    4SAPS  C314  517   6.314   3.376   4.853 -0.0491 -0.0321 -0.5006
    4SAPS  H14X  518   6.215   3.345   4.812  0.8133  0.9381 -3.6621
    4SAPS  H14Y  519   6.329   3.316   4.945 -2.1161 -0.9388 -0.6992
    4SAPS  C315  520   6.405   3.325   4.737  0.2484 -0.1591 -1.2352
    4SAPS  H15X  521   6.381   3.382   4.644  2.1454  2.8013 -0.0481
    4SAPS  H15Y  522   6.377   3.218   4.728  2.0537 -0.8788  0.8940
    4SAPS  C316  523   6.558   3.335   4.766  0.3298  0.6771  1.0882
    4SAPS  H16X  524   6.581   3.331   4.874  0.1536  2.7599  1.2434
    4SAPS  H16Y  525   6.593   3.437   4.739  1.5607  0.2393  0.9890
    4SAPS  C317  526   6.651   3.234   4.699 -0.0152 -0.1641  0.2681
    4SAPS  H17X  527   6.756   3.267   4.716  0.6301 -1.8555 -0.1922
    4SAPS  H17Y  528   6.650   3.238   4.588  2.9549  0.1657  0.1514
    4SAPS  C318  529   6.635   3.096   4.758 -0.1637  0.7461  0.6876
    4SAPS  H18X  530   6.715   3.025   4.725  0.3839  0.5712  2.2656
    4SAPS  H18Y  531   6.537   3.058   4.723 -0.4706  0.9416  1.3187
    4SAPS  H18Z  532   6.651   3.109   4.867  2.1147  0.2674  0.4764
    5SAPS     N  533   2.622   2.283   6.839 -0.2946  0.4084 -0.0181
    5SAPS   HN1  534   2.627   2.237   6.746  1.4344  0.1326  0.1610
    5SAPS   HN2  535   2.537   2.340   6.854 -0.2368  0.1714  1.3945
    5SAPS   HN3  536   2.706   2.345   6.844 -1.5808  2.2198  0.1166
    5SAPS   C12  537   2.636   2.191   6.958 -0.1663 -0.1289 -0.7869
    5SAPS  H12A  538   2.720   2.124   6.942 -0.4116 -0.6402  0.0069
    5SAPS   C13  539   2.649   2.256   7.096 -0.3268  0.3984 -0.3911
    5SAPS  O13A  540   2.693   2.373   7.097  0.4422 -0.1262 -0.4144
    5SAPS  O13B  541   2.666   2.173   7.190 -0.0783 -0.7026  0.0149
    5SAPS   C11  542   2.502   2.112   6.961  0.1466  0.7642 -0.0124
    5SAPS  H11A  543   2.423   2.189   6.973  0.3596  0.8256  1.1154
    5SAPS  H11B  544   2.496   2.043   7.048  0.0266  3.2383  2.0515
    5SAPS     P  545   2.347   1.976   6.800  0.4580  0.0853  0.5878
    5SAPS   O13  546   2.329   1.846   6.872  0.3860 -0.5633 -0.7807
    5SAPS   O14  547   2.239   2.073   6.820  0.7383 -0.1324  0.2036
    5SAPS   O12  548   2.486   2.039   6.838 -0.1402 -0.0206 -0.2155
    5SAPS   O11  549   2.366   1.942   6.650 -0.1175  0.1458  0.1099
    5SAPS    C1  550   2.412   2.045   6.561 -0.0627 -0.2524 -1.4117
    5SAPS    HA  551   2.427   2.145   6.606 -1.4847 -0.5583 -0.1566
    5SAPS    HB  552   2.508   2.012   6.516  0.9652 -1.1265  1.2363
    5SAPS    C2  553   2.315   2.052   6.440  0.0175  0.0799  0.6570
    5SAPS    HS  554   2.214   2.072   6.481 -0.0329  1.3090 -0.0192
    5SAPS   O21  555   2.306   1.918   6.366 -0.1190 -0.4861  0.0141
    5SAPS   C21  556   2.209   1.907   6.273 -0.6052 -0.1992  0.3031
    5SAPS   O22  557   2.133   1.994   6.249 -0.6430 -0.2421  0.0169
    5SAPS   C22  558   2.217   1.777   6.194  0.3411  0.2801 -1.4595
    5SAPS   H2R  559   2.321   1.769   6.157  1.3375  0.6208  1.0620
    5SAPS   H2S  560   2.190   1.690   6.258 -3.2906  3.0915  1.2613
    5SAPS    C3  561   2.351   2.168   6.338  0.1502 -0.2799  0.3166
    5SAPS    HX  562   2.360   2.266   6.389 -0.6442  0.3391 -0.6954
    5SAPS    HY  563   2.272   2.190   6.263 -1.0299 -0.3036  1.5185
    5SAPS   O31  564   2.476   2.130   6.269  0.0971 -0.3404 -0.5778
    5SAPS   C31  565   2.592   2.184   6.305  0.1516  0.0526 -0.2246
    5SAPS   O32  566   2.606   2.272   6.389 -0.0017  0.0076  0.5905
    5SAPS   C32  567   2.709   2.119   6.223  0.1779 -0.0356 -0.1056
    5SAPS   H2X  568   2.709   2.017   6.267 -0.1929 -0.0374 -0.1080
    5SAPS   H2Y  569   2.803   2.171   6.251  0.5518  0.3886 -2.0424
    5SAPS   C23  570   2.117   1.770   6.075 -0.4639 -0.1043 -0.1297
    5SAPS   H3R  571   2.149   1.854   6.010  1.8005  1.1271  2.3805
    5SAPS   H3S  572   2.014   1.793   6.111 -0.5198 -2.2752  1.3284
    5SAPS   C24  573   2.122   1.630   6.006  0.3233 -0.0836  0.7520
    5SAPS   H4R  574   2.228   1.596   6.001 -0.1064 -1.3254 -0.5222
    5SAPS   H4S  575   2.095   1.657   5.901 -1.8452 -1.7431  0.8272
    5SAPS   C25  576   2.033   1.527   6.065  0.4228  0.4314 -0.5009
    5SAPS   H5R  577   2.050   1.509   6.172 -2.6786  0.5735  0.1286
    5SAPS   C26  578   1.930   1.466   6.007  0.6436 -0.0437  0.6009
    5SAPS   H6R  579   1.872   1.389   6.060 -1.5289 -0.0509 -1.6025
    5SAPS   C27  580   1.886   1.480   5.865 -0.1704  0.2945  0.4161
    5SAPS   H7R  581   1.956   1.437   5.791 -1.1949  4.4513 -3.3539
    5SAPS   H7S  582   1.885   1.588   5.840  2.4236  0.6052  1.3701
    5SAPS   C28  583   1.741   1.424   5.853 -0.1163 -0.0283 -0.8862
    5SAPS   H8R  584   1.731   1.330   5.797 -0.0365  0.9979 -2.6898
    5SAPS   C29  585   1.626   1.490   5.888 -0.5284 -0.8164 -0.2783
    5SAPS   H9R  586   1.528   1.446   5.866 -2.6306  1.6676  3.0971
    5SAPS  C210  587   1.620   1.632   5.944  0.3068 -0.0822 -0.7725
    5SAPS  H10R  588   1.537   1.685   5.894 -2.4347 -0.4266  2.9696
    5SAPS  H10S  589   1.712   1.691   5.922  2.4375 -2.4748  1.0985
    5SAPS  C211  590   1.597   1.649   6.095 -0.3478 -0.8996  0.2740
    5SAPS  H11R  591   1.680   1.644   6.168  0.4114 -1.0354 -0.5790
    5SAPS  C212  592   1.483   1.689   6.152 -0.6620 -0.1515 -0.3374
    5SAPS  H12R  593   1.479   1.680   6.261 -1.5399 -0.1249 -0.3630
    5SAPS  C213  594   1.347   1.713   6.091  0.0683 -1.2370  0.6636
    5SAPS  H13R  595   1.275   1.637   6.128 -0.0838 -1.4287 -0.0050
    5SAPS  H13S  596   1.341   1.680   5.985  0.6545  1.9120 -0.4654
    5SAPS  C214  597   1.294   1.851   6.107 -0.1556  0.2068 -1.2245
    5SAPS  H14R  598   1.225   1.860   6.192  2.3074 -1.8788  1.2194
    5SAPS  C215  599   1.305   1.960   6.032  0.3440 -0.0791 -0.1777
    5SAPS  H15R  600   1.271   2.058   6.069 -0.0079  0.5993 -2.1888
    5SAPS  C216  601   1.393   1.975   5.911 -0.7007  1.0842 -0.6876
    5SAPS  H16R  602   1.330   1.993   5.821 -0.6406  0.9942 -0.7475
    5SAPS  H16S  603   1.448   1.881   5.888  0.8462  1.9097 -0.4931
    5SAPS  C217  604   1.508   2.087   5.915 -0.1130 -0.0299 -0.3651
    5SAPS  H17R  605   1.561   2.090   6.013 -1.9885  0.4813  0.6782
    5SAPS  H17S  606   1.457   2.185   5.919 -1.5674 -0.7838  0.3525
    5SAPS  C218  607   1.616   2.069   5.817  0.0935  0.6446 -0.0762
    5SAPS  H18R  608   1.652   1.966   5.836 -1.1201  0.2858  0.3945
    5SAPS  H18S  609   1.708   2.121   5.852  0.6414  1.5612 -2.6855
    5SAPS  C219  610   1.584   2.102   5.673  0.2089  0.7234 -0.7589
    5SAPS  H19R  611   1.532   2.200   5.667  0.1319  0.6609 -1.1411
    5SAPS  H19S  612   1.506   2.031   5.640 -0.1030  0.1424  1.1588
    5SAPS  C220  613   1.704   2.098   5.572 -0.7644 -0.4176 -0.3975
    5SAPS  H20R  614   1.729   1.997   5.534  3.6278  0.6311 -0.8153
    5SAPS  H20S  615   1.798   2.124   5.625 -0.1961 -1.2471 -0.9742
    5SAPS  H20T  616   1.693   2.171   5.489  1.8380 -2.6154 -2.8896
    5SAPS   C33  617   2.692   2.116   6.071  0.0483  0.0576  0.1871
    5SAPS   H3X  618   2.590   2.075   6.055  0.1200 -0.8127  1.7581
    5SAPS   H3Y  619   2.749   2.048   6.005 -0.6335 -0.4914  0.1551
    5SAPS   C34  620   2.696   2.251   6.001  0.9350  0.4174  0.0697
    5SAPS   H4X  621   2.789   2.307   6.026 -0.6666  2.6980  1.3326
    5SAPS   H4Y  622   2.615   2.313   6.045  0.4167  0.4507 -0.9230
    5SAPS   C35  623   2.677   2.242   5.850 -0.2571  0.2644  0.6633
    5SAPS   H5X  624   2.598   2.166   5.834 -1.6420  1.4136  1.7797
    5SAPS   H5Y  625   2.770   2.200   5.806 -0.1246  1.1132  0.0916
    5SAPS   C36  626   2.629   2.373   5.794 -0.8539  0.2953  0.3979
    5SAPS   H6X  627   2.715   2.438   5.824  0.5286 -1.2512 -0.0391
    5SAPS   H6Y  628   2.534   2.412   5.836 -0.7406 -0.2409  1.1812
    5SAPS   C37  629   2.624   2.359   5.633  0.4965 -0.2585 -0.2807
    5SAPS   H7X  630   2.712   2.302   5.598 -0.2061 -0.2715 -2.1128
    5SAPS   H7Y  631   2.627   2.460   5.586  0.4997  0.2264  0.7322
    5SAPS   C38  632   2.480   2.310   5.583 -0.4023  0.0091  0.2426
    5SAPS   H8X  633   2.404   2.390   5.598  0.6229  1.0426  0.1092
    5SAPS   H8Y  634   2.466   2.217   5.642  0.3500  1.9874  3.8983
    5SAPS   C39  635   2.480   2.280   5.430  0.2377  0.9480 -0.2208
    5SAPS   H9X  636   2.391   2.215   5.418  0.2362 -0.4269  4.9064
    5SAPS   H9Y  637   2.575   2.224   5.416  0.5476  0.4207  3.1804
    5SAPS  C310  638   2.461   2.397   5.338  0.4781  0.9030  0.2869
    5SAPS  H10X  639   2.548   2.465   5.346  1.7030 -0.6138  0.1868
    5SAPS  H10Y  640   2.374   2.457   5.373  0.9719  1.2810  0.8980
    5SAPS  C311  641   2.440   2.338   5.198  0.4693 -0.1517  0.4430
    5SAPS  H11X  642   2.337   2.295   5.196 -0.2382  1.4895  0.1773
    5SAPS  H11Y  643   2.518   2.262   5.176 -2.0900 -2.6621 -0.6159
    5SAPS  C312  644   2.444   2.448   5.092 -0.1255 -0.4182  0.0422
    5SAPS  H12X  645   2.548   2.486   5.080 -0.8847  1.2789 -1.5768
    5SAPS  H12Y  646   2.388   2.537   5.129  1.8816  0.7416  0.4683
    5SAPS  C313  647   2.411   2.407   4.950  0.3559  0.1356  0.3933
    5SAPS  H13X  648   2.411   2.498   4.886 -2.1661  0.8284  1.2488
    5SAPS  H13Y  649   2.305   2.375   4.949  0.0196  0.9177  2.9142
    5SAPS  C314  650   2.496   2.297   4.891 -0.7818 -0.0718 -0.7154
    5SAPS  H14X  651   2.439   2.237   4.816 -3.5257  0.6771  0.6436
    5SAPS  H14Y  652   2.529   2.222   4.966  1.8301  2.1182  0.4892
    5SAPS  C315  653   2.618   2.358   4.821 -0.3360 -0.1122  0.2896
    5SAPS  H15X  654   2.685   2.420   4.883 -1.1434 -1.5240  2.7195
    5SAPS  H15Y  655   2.591   2.424   4.736  1.9319  0.3973 -0.1131
    5SAPS  C316  656   2.715   2.247   4.781 -0.3342 -0.2033  0.0767
    5SAPS  H16X  657   2.656   2.164   4.736 -2.6217  1.8129 -0.9129
    5SAPS  H16Y  658   2.767   2.216   4.874 -0.9732  2.6821  1.5096
    5SAPS  C317  659   2.835   2.293   4.684 -0.1395  0.4583 -0.5573
    5SAPS  H17X  660   2.896   2.373   4.730  1.9891 -1.5676  0.3367
    5SAPS  H17Y  661   2.786   2.331   4.592  2.9033  1.1002 -2.0303
    5SAPS  C318  662   2.932   2.179   4.645 -0.2445 -0.2175 -0.4499
    5SAPS  H18X  663   2.875   2.092   4.610 -2.1706  1.0838 -0.6883
    5SAPS  H18Y  664   2.982   2.151   4.740  0.8628 -0.0981 -0.9818
    5SAPS  H18Z  665   3.016   2.214   4.581  1.2785  0.7979  1.9419
    6SAPS     N  666   5.203   3.072   6.636 -0.0342  0.2877 -0.2272
    6SAPS   HN1  667   5.287   3.012   6.628 -0.4312 -0.4449  0.8565
    6SAPS   HN2  668   5.127   3.035   6.575  1.1606  2.4598 -3.2786
    6SAPS   HN3  669   5.216   3.169   6.602  0.1822  0.4671  0.3654
    6SAPS   C12  670   5.149   3.089   6.772  0.0671 -0.1037  0.2139
    6SAPS  H12A  671   5.133   2.991   6.812 -3.2552  0.5215  0.6931
    6SAPS   C13  672   5.237   3.166   6.872 -0.2090  0.3116 -0.0720
    6SAPS  O13A  673   5.350   3.203   6.829 -0.7290  0.5742 -0.8909
    6SAPS  O13B  674   5.196   3.189   6.986  0.3894  0.1823 -0.2846
    6SAPS   C11  675   5.018   3.173   6.760  1.1366  0.8310 -0.2012
    6SAPS  H11A  676   5.041   3.277   6.729 -1.2117  1.5519  0.3001
    6SAPS  H11B  677   4.964   3.174   6.857 -0.8104 -0.8246 -1.1941
    6SAPS     P  678   4.791   3.181   6.608 -0.3332  0.2031 -0.1295
    6SAPS   O13  679   4.676   3.083   6.627 -1.1642 -0.6584  0.3122
    6SAPS   O14  680   4.784   3.312   6.674  0.4059 -0.7428  0.5336
    6SAPS   O12  681   4.930   3.115   6.658  0.1519 -0.5789  0.3973
    6SAPS   O11  682   4.811   3.206   6.456  0.2494  0.6827 -0.2464
    6SAPS    C1  683   4.930   3.252   6.388 -0.4593 -1.1083 -0.8245
    6SAPS    HA  684   5.018   3.256   6.456  0.8384 -0.2882 -2.4601
    6SAPS    HB  685   4.963   3.172   6.317  0.8045 -0.5313 -0.9275
    6SAPS    C2  686   4.918   3.394   6.334 -0.0757 -0.0968 -0.0204
    6SAPS    HS  687   4.890   3.456   6.422  1.4305  0.7784 -0.1229
    6SAPS   O21  688   4.826   3.395   6.228  0.2384 -0.0113 -0.0403
    6SAPS   C21  689   4.701   3.419   6.262 -0.0211  0.3109 -0.7219
    6SAPS   O22  690   4.669   3.447   6.377 -0.3032  0.2928  0.5772
    6SAPS   C22  691   4.603   3.404   6.147 -0.5914 -0.1278 -0.2335
    6SAPS   H2R  692   4.626   3.302   6.112  0.5734  0.4243 -1.1690
    6SAPS   H2S  693   4.500   3.411   6.188 -1.9315  4.2336 -3.5339
    6SAPS    C3  694   5.062   3.452   6.282 -0.0320 -0.1440  0.9215
    6SAPS    HX  695   5.129   3.479   6.366  0.1487 -0.9541  1.0450
    6SAPS    HY  696   5.034   3.540   6.220  0.4012 -0.5021  0.1959
    6SAPS   O31  697   5.135   3.357   6.200 -0.3790  0.7069  0.5938
    6SAPS   C31  698   5.223   3.410   6.111 -0.4331  0.2492 -0.1841
    6SAPS   O32  699   5.271   3.522   6.119  1.2225 -0.1381  0.6589
    6SAPS   C32  700   5.255   3.307   6.002 -0.2863  0.2581  0.2883
    6SAPS   H2X  701   5.168   3.239   5.997 -0.0467 -0.1730  1.6037
    6SAPS   H2Y  702   5.345   3.248   6.028  0.4972  0.7984 -1.0851
    6SAPS   C23  703   4.618   3.508   6.039 -0.3989  0.0533  0.8931
    6SAPS   H3R  704   4.721   3.497   5.999 -1.5930 -4.1010 -1.6159
    6SAPS   H3S  705   4.599   3.614   6.068 -2.6992 -0.6569  2.2308
    6SAPS   C24  706   4.524   3.476   5.929  0.1128  0.2084  0.0234
    6SAPS   H4R  707   4.529   3.367   5.904 -1.1125 -0.1249  1.1357
    6SAPS   H4S  708   4.546   3.524   5.831  0.2845  0.3662  0.1397
    6SAPS   C25  709   4.380   3.502   5.963  0.6233 -0.1895  0.5938
    6SAPS   H5R  710   4.352   3.473   6.065  3.6243  2.3649  2.3421
    6SAPS   C26  711   4.287   3.563   5.887  0.3017  0.0899 -0.5980
    6SAPS   H6R  712   4.189   3.563   5.937  0.1075 -0.9118 -0.9537
    6SAPS   C27  713   4.294   3.625   5.746 -0.6519 -0.1503  0.9616
    6SAPS   H7R  714   4.399   3.602   5.718 -1.4804 -1.6396 -1.2575
    6SAPS   H7S  715   4.291   3.735   5.757 -0.1209 -0.0710  0.3436
    6SAPS   C28  716   4.192   3.569   5.645 -0.2579 -0.3260  0.3013
    6SAPS   H8R  717   4.086   3.571   5.675 -0.3267  1.1371  0.0511
    6SAPS   C29  718   4.225   3.522   5.523  1.2156  0.9761 -0.2025
    6SAPS   H9R  719   4.143   3.506   5.451  0.4971 -0.7632  0.9235
    6SAPS  C210  720   4.364   3.514   5.465  0.1896  0.0302  1.2474
    6SAPS  H10R  721   4.417   3.435   5.522 -0.6668 -1.4504  0.0575
    6SAPS  H10S  722   4.425   3.607   5.469  1.1838 -0.5514  0.1638
    6SAPS  C211  723   4.355   3.457   5.322 -0.1698 -0.1114 -0.1947
    6SAPS  H11R  724   4.300   3.362   5.311  1.1727 -0.7437 -1.9099
    6SAPS  C212  725   4.371   3.524   5.207 -0.2060  0.9640 -0.1518
    6SAPS  H12R  726   4.361   3.464   5.116 -0.5981  1.4697 -0.4520
    6SAPS  C213  727   4.429   3.665   5.202  0.0767  1.2898  0.2646
    6SAPS  H13R  728   4.527   3.658   5.149 -1.2780 -0.5320 -2.2014
    6SAPS  H13S  729   4.452   3.701   5.304 -2.2322 -0.0943  1.3413
    6SAPS  C214  730   4.343   3.765   5.127 -0.1049 -0.1148  0.1230
    6SAPS  H14R  731   4.240   3.780   5.164 -0.2285  0.3724 -0.4084
    6SAPS  C215  732   4.377   3.833   5.011 -0.1823 -0.2161  0.1643
    6SAPS  H15R  733   4.312   3.908   4.965  0.4325 -0.5247 -1.2747
    6SAPS  C216  734   4.498   3.804   4.920  0.1000  0.1310  0.1889
    6SAPS  H16R  735   4.586   3.782   4.984 -0.1431  2.2557  1.3475
    6SAPS  H16S  736   4.528   3.890   4.857 -0.1342  2.8117  3.4650
    6SAPS  C217  737   4.464   3.679   4.835  0.5683  0.7514 -0.0668
    6SAPS  H17R  738   4.374   3.707   4.776  0.2693 -0.1571 -0.0607
    6SAPS  H17S  739   4.431   3.598   4.904 -3.5030  0.8705 -1.6061
    6SAPS  C218  740   4.567   3.634   4.730 -0.4996 -0.9978 -0.1918
    6SAPS  H18R  741   4.572   3.720   4.659  0.4559 -1.3122 -0.5218
    6SAPS  H18S  742   4.531   3.538   4.687 -3.7885 -0.3398  0.7602
    6SAPS  C219  743   4.699   3.617   4.791 -0.1442 -0.4107  0.5651
    6SAPS  H19R  744   4.693   3.570   4.891  0.1760  0.6546  1.0895
    6SAPS  H19S  745   4.737   3.720   4.799 -1.1653  0.1589 -1.2217
    6SAPS  C220  746   4.792   3.551   4.690 -0.2723  0.6099  0.6027
    6SAPS  H20R  747   4.902   3.566   4.697 -0.3494  0.8019  1.6242
    6SAPS  H20S  748   4.764   3.591   4.591 -1.1527  1.6963  1.2709
    6SAPS  H20T  749   4.782   3.440   4.685 -0.6189  0.6572  0.2461
    6SAPS   C33  750   5.273   3.381   5.870  0.3688  0.4954 -0.0101
    6SAPS   H3X  751   5.377   3.420   5.873  0.6345 -0.0863 -1.2307
    6SAPS   H3Y  752   5.210   3.470   5.848  1.3874  1.0859 -0.5901
    6SAPS   C34  753   5.268   3.279   5.749  0.1432 -0.1746 -0.3243
    6SAPS   H4X  754   5.165   3.242   5.732 -0.1565  0.4873  0.0043
    6SAPS   H4Y  755   5.340   3.199   5.778 -0.7660 -0.8957  0.0130
    6SAPS   C35  756   5.323   3.326   5.619  0.5190 -0.3249  0.3666
    6SAPS   H5X  757   5.431   3.354   5.622  0.2472  0.9256 -0.7275
    6SAPS   H5Y  758   5.261   3.414   5.594 -0.9422 -1.1626  0.9231
    6SAPS   C36  759   5.296   3.225   5.504 -0.0398  0.2162 -0.1354
    6SAPS   H6X  760   5.186   3.209   5.493 -0.1931  1.4809 -0.6415
    6SAPS   H6Y  761   5.358   3.137   5.530 -0.2371  0.3871  0.9490
    6SAPS   C37  762   5.347   3.272   5.364 -0.0738  0.5879 -0.3433
    6SAPS   H7X  763   5.458   3.284   5.369  0.5336 -3.4726 -0.7051
    6SAPS   H7Y  764   5.286   3.362   5.342  2.0143  2.5460  1.3381
    6SAPS   C38  765   5.319   3.172   5.247 -0.1418  0.8028 -0.8378
    6SAPS   H8X  766   5.209   3.164   5.233 -0.2990 -0.0901  0.6062
    6SAPS   H8Y  767   5.369   3.073   5.260  0.6431  1.4108  1.1310
    6SAPS   C39  768   5.371   3.234   5.117 -0.2219  0.4067 -0.3034
    6SAPS   H9X  769   5.476   3.270   5.117  0.6543 -1.9786 -0.0703
    6SAPS   H9Y  770   5.310   3.325   5.095 -0.5934  0.3212  0.3427
    6SAPS  C310  771   5.354   3.142   4.996 -0.6119 -0.7889  0.0438
    6SAPS  H10X  772   5.256   3.092   5.012  0.4194 -2.4735  1.5706
    6SAPS  H10Y  773   5.440   3.072   4.994 -0.3078 -0.4237  0.2102
    6SAPS  C311  774   5.350   3.219   4.857 -0.4280 -0.3368 -0.6510
    6SAPS  H11X  775   5.450   3.265   4.845 -0.0189 -1.1465 -0.4704
    6SAPS  H11Y  776   5.271   3.297   4.850  0.6607  0.7862 -0.6730
    6SAPS  C312  777   5.340   3.121   4.738 -0.5985  0.4519  0.6295
    6SAPS  H12X  778   5.411   3.036   4.742 -0.6691  0.4100  1.0841
    6SAPS  H12Y  779   5.379   3.183   4.655  0.2702 -1.8178 -0.7531
    6SAPS  C313  780   5.200   3.067   4.708  0.7819 -0.7081  0.8514
    6SAPS  H13X  781   5.122   3.139   4.674  1.2016 -0.8810 -0.5186
    6SAPS  H13Y  782   5.167   3.015   4.800  0.0620 -0.6885  0.6110
    6SAPS  C314  783   5.197   2.957   4.595 -0.6321 -0.0732  0.3295
    6SAPS  H14X  784   5.144   2.864   4.624 -0.5339 -0.6162 -1.1116
    6SAPS  H14Y  785   5.306   2.939   4.581 -0.7830 -0.7290 -0.0486
    6SAPS  C315  786   5.150   3.014   4.463  0.0571  0.5812 -0.0799
    6SAPS  H15X  787   5.206   3.105   4.433 -1.7408  0.8726 -2.9018
    6SAPS  H15Y  788   5.042   3.039   4.463  0.0496  0.5762  0.7244
    6SAPS  C316  789   5.183   2.922   4.344 -0.6842  0.5968 -0.6142
    6SAPS  H16X  790   5.291   2.900   4.354 -0.4825  1.4956 -0.7635
    6SAPS  H16Y  791   5.167   2.986   4.254 -3.8547  1.6822  0.5863
    6SAPS  C317  792   5.104   2.793   4.324  1.3649  1.0551  0.6029
    6SAPS  H17X  793   4.997   2.816   4.310  0.9917  1.1984  3.2098
    6SAPS  H17Y  794   5.107   2.728   4.413  0.6790 -1.0806 -0.8694
    6SAPS  C318  795   5.136   2.708   4.204 -0.4256 -0.0951 -0.4379
    6SAPS  H18X  796   5.236   2.666   4.230 -0.0068  2.1034  1.9557
    6SAPS  H18Y  797   5.134   2.771   4.112 -1.6132 -0.0216 -0.3709
    6SAPS  H18Z  798   5.063   2.629   4.179  0.2892 -0.7793 -0.3814
    7SAPS     N  799   5.525   5.217   6.897  0.1999 -0.2896 -0.0794
    7SAPS   HN1  800   5.530   5.123   6.940  0.6036 -0.8909 -1.4017
    7SAPS   HN2  801   5.424   5.238   6.885  0.1712  0.3249  1.0870
    7SAPS   HN3  802   5.576   5.214   6.806  1.7130 -1.4222  0.7797
    7SAPS   C12  803   5.602   5.316   6.970  0.4958 -0.4890  0.0655
    7SAPS  H12A  804   5.544   5.338   7.057  0.4910 -1.9097  0.4472
    7SAPS   C13  805   5.742   5.270   7.017  0.3661  0.3598  0.0399
    7SAPS  O13A  806   5.772   5.149   6.998  0.3261  0.2623 -0.2147
    7SAPS  O13B  807   5.803   5.330   7.105  0.1156 -0.2465 -0.2865
    7SAPS   C11  808   5.614   5.451   6.895  0.4922 -0.2786  0.0239
    7SAPS  H11A  809   5.678   5.439   6.805  0.3313  0.4006 -0.1932
    7SAPS  H11B  810   5.659   5.526   6.963 -3.0041  0.8080  1.3819
    7SAPS     P  811   5.438   5.638   6.828 -0.1848 -0.2392  0.0721
    7SAPS   O13  812   5.292   5.634   6.788  0.2777 -0.0705 -0.2358
    7SAPS   O14  813   5.465   5.714   6.952 -0.4302 -0.2080 -0.0660
    7SAPS   O12  814   5.492   5.494   6.845  0.2162  0.1064  0.4077
    7SAPS   O11  815   5.529   5.698   6.712  0.8193  0.1964 -0.3346
    7SAPS    C1  816   5.548   5.623   6.593  0.5291  0.4609  0.4247
    7SAPS    HA  817   5.647   5.573   6.598  0.3878  0.1870  0.4986
    7SAPS    HB  818   5.474   5.541   6.579  1.1590  0.2391 -2.3107
    7SAPS    C2  819   5.550   5.709   6.463 -0.6183  0.3980  0.0754
    7SAPS    HS  820   5.618   5.795   6.483  0.2384 -0.5349  1.3217
    7SAPS   O21  821   5.417   5.748   6.425 -0.2343 -0.0604  0.2511
    7SAPS   C21  822   5.379   5.873   6.435  0.3117  0.1368 -0.1389
    7SAPS   O22  823   5.444   5.964   6.485 -0.4501 -0.4566 -0.5545
    7SAPS   C22  824   5.248   5.886   6.367 -0.8542 -0.6704  0.3511
    7SAPS   H2R  825   5.181   5.823   6.429  0.3232 -2.0362  0.2783
    7SAPS   H2S  826   5.220   5.993   6.366  0.3060 -0.3532 -0.9459
    7SAPS    C3  827   5.622   5.632   6.342  0.2824  0.1568  0.0218
    7SAPS    HX  828   5.546   5.566   6.295  1.1008 -1.4268  0.8251
    7SAPS    HY  829   5.717   5.578   6.366  0.4396  0.2072 -0.4899
    7SAPS   O31  830   5.639   5.732   6.242 -0.5158  0.1742 -0.1257
    7SAPS   C31  831   5.715   5.691   6.142  0.3187  0.2217 -0.2895
    7SAPS   O32  832   5.774   5.584   6.141 -0.3087  0.3636  0.0273
    7SAPS   C32  833   5.711   5.797   6.024 -0.2648  0.3998  0.6776
    7SAPS   H2X  834   5.759   5.751   5.934 -1.0247  1.7933 -0.4878
    7SAPS   H2Y  835   5.766   5.885   6.064  1.3136 -0.0237 -0.4368
    7SAPS   C23  836   5.239   5.845   6.219  0.1389  0.6793  0.1720
    7SAPS   H3R  837   5.310   5.760   6.206 -1.0351 -0.3103  0.0468
    7SAPS   H3S  838   5.273   5.929   6.156 -1.3618  1.6076  0.5586
    7SAPS   C24  839   5.096   5.794   6.180  0.5114 -0.9438 -0.5534
    7SAPS   H4R  840   5.074   5.717   6.257 -1.4755  1.8723  1.9219
    7SAPS   H4S  841   5.101   5.730   6.089  1.0691 -1.9435  0.1532
    7SAPS   C25  842   4.990   5.900   6.169 -1.0467 -0.6260 -0.3657
    7SAPS   H5R  843   4.940   5.939   6.260  0.3804  0.8549 -0.1522
    7SAPS   C26  844   4.954   5.952   6.053  0.0769  0.5606  0.1574
    7SAPS   H6R  845   4.864   6.015   6.054  0.2400  0.7977  0.2341
    7SAPS   C27  846   5.005   5.917   5.912  0.0583 -0.1290 -0.1818
    7SAPS   H7R  847   5.111   5.882   5.910 -0.7450 -2.8730  0.2894
    7SAPS   H7S  848   5.003   6.013   5.856  0.8687 -0.7261 -1.2715
    7SAPS   C28  849   4.914   5.806   5.854 -0.6804  0.5873  0.4682
    7SAPS   H8R  850   4.869   5.732   5.922 -2.4149  0.0141 -1.2046
    7SAPS   C29  851   4.874   5.812   5.729 -0.1741 -0.5357 -0.7231
    7SAPS   H9R  852   4.809   5.730   5.697 -0.2374 -0.4218 -0.8885
    7SAPS  C210  853   4.906   5.924   5.631 -0.5979 -0.5780 -0.2302
    7SAPS  H10R  854   4.936   6.017   5.683  0.2283 -0.9132 -0.0991
    7SAPS  H10S  855   4.819   5.949   5.566 -0.2772  2.4849  0.3783
    7SAPS  C211  856   5.009   5.880   5.529 -0.5586  0.3312  0.6303
    7SAPS  H11R  857   5.067   5.794   5.565 -2.0866 -0.9879  0.0960
    7SAPS  C212  858   5.039   5.939   5.411  0.2634 -0.0027 -0.2620
    7SAPS  H12R  859   5.118   5.881   5.361  1.4027  1.0853  0.2106
    7SAPS  C213  860   4.982   6.065   5.356 -0.0975  0.3937  0.0557
    7SAPS  H13R  861   5.066   6.134   5.332  2.0576 -2.1960 -0.3551
    7SAPS  H13S  862   4.923   6.113   5.436 -0.5136 -0.0399  0.0089
    7SAPS  C214  863   4.885   6.039   5.243 -0.8420 -0.1308  0.3776
    7SAPS  H14R  864   4.780   6.034   5.275 -0.2257  0.2283  2.6460
    7SAPS  C215  865   4.919   6.022   5.111 -0.1496  0.7530  0.3344
    7SAPS  H15R  866   4.842   5.996   5.037  1.7731 -3.8783 -0.4108
    7SAPS  C216  867   5.063   6.038   5.054 -0.9310 -0.7277  0.6251
    7SAPS  H16R  868   5.143   6.023   5.130  0.5942 -0.1185 -0.8053
    7SAPS  H16S  869   5.085   6.144   5.028  0.4743 -1.1349  0.0558
    7SAPS  C217  870   5.099   5.944   4.934 -0.9354  0.6045  0.2834
    7SAPS  H17R  871   5.100   5.837   4.965  1.9083  1.4152  3.4076
    7SAPS  H17S  872   5.205   5.963   4.907 -0.7791 -1.8047 -1.1101
    7SAPS  C218  873   5.014   5.951   4.805  0.8634 -0.2515 -0.4152
    7SAPS  H18R  874   4.906   5.934   4.828  1.4486 -1.8380  1.4245
    7SAPS  H18S  875   5.048   5.867   4.741 -0.3248 -3.0175  2.2854
    7SAPS  C219  876   5.003   6.090   4.740 -0.7289  0.0416 -1.0401
    7SAPS  H19R  877   5.105   6.134   4.732 -0.7620 -0.0542 -2.0720
    7SAPS  H19S  878   4.948   6.152   4.814  0.2101  0.3699 -0.5987
    7SAPS  C220  879   4.919   6.084   4.614 -0.8898  0.5579  0.3442
    7SAPS  H20R  880   4.814   6.051   4.629 -0.2377 -2.2211 -0.5307
    7SAPS  H20S  881   4.959   6.008   4.543 -0.5556  0.1248  0.9820
    7SAPS  H20T  882   4.922   6.183   4.564  0.5841 -0.7154 -2.3503
    7SAPS   C33  883   5.581   5.857   5.978 -0.2724  0.3025  0.6943
    7SAPS   H3X  884   5.608   5.936   5.905  0.0091 -1.4239 -1.1731
    7SAPS   H3Y  885   5.527   5.901   6.064  0.7562  1.3668  0.8241
    7SAPS   C34  886   5.489   5.763   5.899 -0.0596  0.3799  0.2231
    7SAPS   H4X  887   5.390   5.813   5.890 -0.7806 -1.3789 -3.1321
    7SAPS   H4Y  888   5.482   5.670   5.960  2.3696 -0.9212 -1.3284
    7SAPS   C35  889   5.534   5.720   5.763 -0.8976  0.3086  0.2573
    7SAPS   H5X  890   5.486   5.626   5.728  0.1500 -0.5496  1.0695
    7SAPS   H5Y  891   5.642   5.697   5.756 -1.0668 -0.6125  0.5423
    7SAPS   C36  892   5.525   5.826   5.652 -0.0450  0.8644 -0.5609
    7SAPS   H6X  893   5.588   5.912   5.684 -0.4105  0.7075  0.6296
    7SAPS   H6Y  894   5.418   5.856   5.660 -0.8781 -1.8737 -0.5279
    7SAPS   C37  895   5.558   5.777   5.510 -0.0265 -0.2867  0.3499
    7SAPS   H7X  896   5.504   5.683   5.487 -1.2249  0.0468  1.6738
    7SAPS   H7Y  897   5.667   5.758   5.500  0.1990  1.0421  0.0404
    7SAPS   C38  898   5.518   5.879   5.404  0.2831 -0.1338 -0.6544
    7SAPS   H8X  899   5.595   5.959   5.407  1.0046 -0.8459 -0.0753
    7SAPS   H8Y  900   5.415   5.918   5.421  0.2378  0.4450 -2.0795
    7SAPS   C39  901   5.519   5.824   5.261  0.8812  0.4202 -0.0715
    7SAPS   H9X  902   5.462   5.728   5.266  2.4275 -0.4643  1.6894
    7SAPS   H9Y  903   5.616   5.783   5.225  0.5163 -0.1753 -0.3996
    7SAPS  C310  904   5.452   5.915   5.155 -0.0869 -0.0728  0.7188
    7SAPS  H10X  905   5.470   6.022   5.178  1.0389 -0.3636  1.2821
    7SAPS  H10Y  906   5.341   5.908   5.156 -0.2151  1.3256  2.9518
    7SAPS  C311  907   5.493   5.890   5.009 -0.2421 -0.3271  0.0410
    7SAPS  H11X  908   5.604   5.880   5.009 -0.1177  0.5569 -1.7516
    7SAPS  H11Y  909   5.482   5.983   4.949  0.6166  0.2604  0.7618
    7SAPS  C312  910   5.427   5.768   4.957  0.1063  0.4184 -0.0717
    7SAPS  H12X  911   5.320   5.791   4.977  0.6427  0.3948  3.2920
    7SAPS  H12Y  912   5.458   5.683   5.021  0.5500  2.1745  2.1462
    7SAPS  C313  913   5.464   5.730   4.810 -0.1422  0.1654 -0.3046
    7SAPS  H13X  914   5.574   5.719   4.803 -0.1464 -1.4985  1.4653
    7SAPS  H13Y  915   5.443   5.811   4.737  1.7323 -0.3927 -1.5302
    7SAPS  C314  916   5.413   5.595   4.759  0.6130  0.6053  0.1199
    7SAPS  H14X  917   5.462   5.517   4.822  0.6550  1.6136  1.3566
    7SAPS  H14Y  918   5.451   5.571   4.657 -0.5221 -0.2829 -0.1152
    7SAPS  C315  919   5.256   5.578   4.756 -0.9420  0.6224 -0.9180
    7SAPS  H15X  920   5.222   5.673   4.711 -0.0154  1.9940  1.1155
    7SAPS  H15Y  921   5.218   5.569   4.861 -0.3621  0.6070 -0.7034
    7SAPS  C316  922   5.223   5.452   4.679  0.4261 -0.1221  0.3680
    7SAPS  H16X  923   5.253   5.459   4.572  1.7243 -2.0005  0.5604
    7SAPS  H16Y  924   5.112   5.439   4.677  0.6438 -2.6625 -1.7539
    7SAPS  C317  925   5.266   5.307   4.725  0.0366 -1.6124 -0.2131
    7SAPS  H17X  926   5.236   5.277   4.827 -0.0300 -2.5970 -0.5157
    7SAPS  H17Y  927   5.377   5.300   4.724  0.1396 -0.8341  1.7748
    7SAPS  C318  928   5.209   5.201   4.630 -0.3700 -0.0246  0.6608
    7SAPS  H18X  929   5.098   5.197   4.627 -0.5207  2.1732  1.1215
    7SAPS  H18Y  930   5.252   5.100   4.645  0.9033  0.2735 -0.7302
    7SAPS  H18Z  931   5.245   5.216   4.526  0.4981 -3.9132  0.2502
    8SAPS     N  932   3.503   1.305   6.670  0.0142  0.1269 -0.4094
    8SAPS   HN1  933   3.419   1.247   6.691  0.4773  0.5034  3.0223
    8SAPS   HN2  934   3.476   1.387   6.611 -2.0637  2.4041  3.3241
    8SAPS   HN3  935   3.568   1.244   6.616  0.1952  0.9371 -1.1328
    8SAPS   C12  936   3.589   1.336   6.788  0.7736 -0.3451 -0.4493
    8SAPS  H12A  937   3.540   1.427   6.821 -0.7824 -0.7828 -1.4578
    8SAPS   C13  938   3.588   1.241   6.898  0.6206 -0.3110 -0.6139
    8SAPS  O13A  939   3.526   1.132   6.889 -0.9132 -0.1799 -0.3423
    8SAPS  O13B  940   3.658   1.263   6.996  0.0947 -1.1558 -0.6823
    8SAPS   C11  941   3.734   1.360   6.739 -0.3439  0.3063  0.1168
    8SAPS  H11A  942   3.789   1.268   6.707  1.8477  1.4845  0.2944
    8SAPS  H11B  943   3.788   1.398   6.828 -0.9469 -0.4671  0.8226
    8SAPS     P  944   3.759   1.604   6.663 -0.0011 -0.4493  0.1308
    8SAPS   O13  945   3.653   1.659   6.756  0.4416 -0.3966  0.3812
    8SAPS   O14  946   3.890   1.620   6.717 -0.3857 -0.5272  0.0525
    8SAPS   O12  947   3.736   1.451   6.629 -0.1130 -0.3367  0.1795
    8SAPS   O11  948   3.747   1.682   6.518 -0.4207  0.2756  0.1474
    8SAPS    C1  949   3.635   1.638   6.440 -0.0991  0.1227 -0.2561
    8SAPS    HA  950   3.588   1.543   6.475 -0.4035  0.8593  1.4461
    8SAPS    HB  951   3.552   1.711   6.437  1.3739  1.8210 -2.5206
    8SAPS    C2  952   3.674   1.593   6.293  0.4984 -0.7322  0.3174
    8SAPS    HS  953   3.593   1.525   6.257 -0.2360 -2.1329  4.1450
    8SAPS   O21  954   3.794   1.520   6.291 -0.0757  0.3178  0.2073
    8SAPS   C21  955   3.794   1.390   6.328 -0.1878 -0.6203 -0.2573
    8SAPS   O22  956   3.688   1.330   6.352  0.8775  0.0597  0.3320
    8SAPS   C22  957   3.932   1.343   6.340 -0.3105  0.3263 -0.5750
    8SAPS   H2R  958   4.012   1.420   6.337  1.4035 -1.1272  2.4887
    8SAPS   H2S  959   3.954   1.314   6.445 -1.7775 -0.5182 -0.4627
    8SAPS    C3  960   3.680   1.721   6.207 -0.2968  0.3836 -0.2719
    8SAPS    HX  961   3.729   1.803   6.265  2.8397 -1.6311  0.1820
    8SAPS    HY  962   3.577   1.744   6.172 -0.4567 -1.7283 -1.3708
    8SAPS   O31  963   3.758   1.702   6.084  0.6269 -0.3846 -0.1308
    8SAPS   C31  964   3.890   1.750   6.080  0.0353  0.5711  0.7377
    8SAPS   O32  965   3.937   1.813   6.172  0.6422  0.6220 -0.2563
    8SAPS   C32  966   3.959   1.702   5.955  0.3614 -0.5600 -0.0264
    8SAPS   H2X  967   3.959   1.592   5.942 -0.0696 -0.4910 -0.7044
    8SAPS   H2Y  968   4.066   1.725   5.975 -0.0102  1.4339 -0.1030
    8SAPS   C23  969   3.968   1.234   6.241 -0.0189  0.0272 -0.2787
    8SAPS   H3R  970   3.919   1.144   6.285 -1.5947  0.3594 -1.3072
    8SAPS   H3S  971   4.078   1.215   6.246 -0.0372 -0.9554 -2.4475
    8SAPS   C24  972   3.922   1.255   6.097  0.1689  0.1604  0.0019
    8SAPS   H4R  973   3.964   1.355   6.077  2.5694 -0.1281  2.9718
    8SAPS   H4S  974   3.812   1.252   6.081  0.3627  0.1368 -1.4543
    8SAPS   C25  975   3.979   1.157   6.003 -0.6171  0.4679 -0.4962
    8SAPS   H5R  976   4.000   1.056   6.040 -1.5105  0.1324 -0.8869
    8SAPS   C26  977   4.029   1.178   5.882  0.3504 -0.3081 -0.3974
    8SAPS   H6R  978   4.077   1.096   5.828 -0.9388 -1.7307  0.5518
    8SAPS   C27  979   4.000   1.303   5.794 -0.0258  0.2464  0.1339
    8SAPS   H7R  980   3.966   1.392   5.852 -0.4033  0.1543  0.0601
    8SAPS   H7S  981   3.902   1.280   5.746 -0.7961 -1.4948  2.3469
    8SAPS   C28  982   4.115   1.337   5.706 -0.8023 -0.6510 -0.3773
    8SAPS   H8R  983   4.187   1.399   5.761 -1.2605  1.7502 -2.2944
    8SAPS   C29  984   4.136   1.321   5.576 -0.6032 -0.0298  0.1839
    8SAPS   H9R  985   4.221   1.371   5.529  0.1890 -2.1290 -0.7469
    8SAPS  C210  986   4.036   1.257   5.488 -0.1212  0.5596 -0.0092
    8SAPS  H10R  987   3.961   1.200   5.547 -0.3653  0.2708 -0.5940
    8SAPS  H10S  988   4.097   1.189   5.425  2.1083  1.9105  0.5932
    8SAPS  C211  989   3.951   1.351   5.407 -0.4814  0.2526  0.2199
    8SAPS  H11R  990   3.878   1.404   5.471  0.0448  0.4198  0.7000
    8SAPS  C212  991   3.939   1.358   5.272  0.1783 -0.4405 -0.2468
    8SAPS  H12R  992   3.871   1.436   5.233  0.6064 -0.1335 -0.3835
    8SAPS  C213  993   4.018   1.281   5.171  0.2110  0.2482  0.4497
    8SAPS  H13R  994   3.968   1.187   5.139  0.5847  0.2314 -0.1019
    8SAPS  H13S  995   4.110   1.239   5.217  0.9148 -0.6153 -1.6225
    8SAPS  C214  996   4.074   1.386   5.074  0.3605 -0.9764  0.1443
    8SAPS  H14R  997   4.124   1.477   5.111 -0.1872 -0.8199  0.4988
    8SAPS  C215  998   4.069   1.367   4.941  0.3509  0.0700  0.8042
    8SAPS  H15R  999   4.085   1.455   4.878  0.9536 -0.1139  0.6862
    8SAPS  C216 1000   4.009   1.254   4.859 -0.6377 -0.7081 -0.0591
    8SAPS  H16R 1001   3.925   1.213   4.920 -1.1901  0.6766  0.1485
    8SAPS  H16S 1002   4.083   1.172   4.856 -0.8285 -1.0260  2.1305
    8SAPS  C217 1003   3.959   1.301   4.720  0.3329 -0.1487  0.6492
    8SAPS  H17R 1004   3.906   1.398   4.722  1.0388  0.2353  1.0233
    8SAPS  H17S 1005   3.888   1.228   4.675 -1.6670  0.6802  2.2790
    8SAPS  C218 1006   4.071   1.331   4.614 -0.3795  0.1695 -0.0681
    8SAPS  H18R 1007   4.139   1.246   4.631 -0.0833  0.6951  1.5828
    8SAPS  H18S 1008   4.127   1.421   4.650 -0.1984  0.3450 -0.7802
    8SAPS  C219 1009   4.025   1.354   4.472 -0.3153  1.1239 -0.4955
    8SAPS  H19R 1010   3.953   1.438   4.469 -3.3124 -1.2320  0.1293
    8SAPS  H19S 1011   3.977   1.264   4.427  1.1931  0.7078 -1.3570
    8SAPS  C220 1012   4.147   1.387   4.387 -0.1447  0.0916  0.1580
    8SAPS  H20R 1013   4.195   1.481   4.421  2.2994 -1.4106  1.1315
    8SAPS  H20S 1014   4.117   1.398   4.280  2.4205  0.2372 -0.6063
    8SAPS  H20T 1015   4.221   1.303   4.384 -0.7276 -0.4228 -0.1676
    8SAPS   C33 1016   3.912   1.761   5.826 -0.3557  0.0895  0.5643
    8SAPS   H3X 1017   3.943   1.867   5.821 -0.1783  0.0369  0.5566
    8SAPS   H3Y 1018   3.801   1.767   5.825 -0.4196 -0.9245  0.5979
    8SAPS   C34 1019   3.972   1.683   5.706 -0.3673 -0.4305 -0.9409
    8SAPS   H4X 1020   3.917   1.587   5.692  0.9642 -1.4633  0.5678
    8SAPS   H4Y 1021   4.077   1.664   5.738 -0.5606  0.4157  0.2636
    8SAPS   C35 1022   3.978   1.772   5.583 -0.2672 -0.4061  0.2267
    8SAPS   H5X 1023   4.070   1.833   5.590 -0.1543 -0.7394  2.7291
    8SAPS   H5Y 1024   3.893   1.844   5.583 -1.0873 -1.3390  0.8337
    8SAPS   C36 1025   3.972   1.693   5.452 -0.1148  0.0049 -0.2149
    8SAPS   H6X 1026   3.876   1.638   5.459 -0.7359  0.9683 -0.8484
    8SAPS   H6Y 1027   4.057   1.622   5.442  1.8200  2.4463 -2.9217
    8SAPS   C37 1028   3.976   1.792   5.335 -0.0658 -0.1447  0.7225
    8SAPS   H7X 1029   4.078   1.832   5.344 -0.9336  1.9643  1.7442
    8SAPS   H7Y 1030   3.898   1.870   5.322  0.0039 -0.4932 -3.3135
    8SAPS   C38 1031   3.971   1.713   5.202  0.0321  0.6548 -0.3582
    8SAPS   H8X 1032   3.884   1.644   5.202 -1.1704  2.0884 -1.8228
    8SAPS   H8Y 1033   4.062   1.650   5.215  1.0376  2.5058  2.7645
    8SAPS   C39 1034   3.987   1.795   5.069 -0.4169  0.3068 -0.8852
    8SAPS   H9X 1035   4.095   1.815   5.056  0.1430 -1.1411  1.0228
    8SAPS   H9Y 1036   3.934   1.890   5.091  1.2771  0.7908  1.5026
    8SAPS  C310 1037   3.937   1.723   4.948 -0.6979  0.2540  0.3374
    8SAPS  H10X 1038   3.826   1.732   4.938 -0.8107  0.4390  1.6515
    8SAPS  H10Y 1039   3.957   1.615   4.962 -0.7129  0.0273 -1.2090
    8SAPS  C311 1040   3.987   1.783   4.823  0.3829  0.5808  1.3182
    8SAPS  H11X 1041   4.098   1.778   4.830  0.2452 -0.9228  3.6216
    8SAPS  H11Y 1042   3.957   1.888   4.806  0.5335  0.3571 -0.5379
    8SAPS  C312 1043   3.952   1.696   4.703  0.5352 -0.4437  0.1551
    8SAPS  H12X 1044   3.844   1.712   4.681  1.1064  2.7062 -0.8323
    8SAPS  H12Y 1045   3.964   1.586   4.718 -1.2240 -0.5924  0.6335
    8SAPS  C313 1046   4.037   1.738   4.583  0.1043 -0.1722  0.9065
    8SAPS  H13X 1047   4.031   1.661   4.503  1.7097  0.5478  0.0603
    8SAPS  H13Y 1048   4.141   1.730   4.620  0.4648 -0.8781 -0.1961
    8SAPS  C314 1049   3.999   1.882   4.523  0.3028  0.3151 -0.8012
    8SAPS  H14X 1050   4.081   1.916   4.457 -0.5776  0.2689 -1.9559
    8SAPS  H14Y 1051   3.989   1.948   4.611 -2.0667 -0.6859 -0.2391
    8SAPS  C315 1052   3.865   1.886   4.449  0.1109 -0.0314  0.7204
    8SAPS  H15X 1053   3.836   1.987   4.413  0.5643  1.1406  3.3919
    8SAPS  H15Y 1054   3.781   1.846   4.508  0.8278 -0.5597  1.4028
    8SAPS  C316 1055   3.872   1.797   4.324  0.0868  0.3537  0.0188
    8SAPS  H16X 1056   3.904   1.697   4.362 -0.1371  0.7126  1.1945
    8SAPS  H16Y 1057   3.954   1.834   4.258  0.8140  1.0343  1.2702
    8SAPS  C317 1058   3.741   1.795   4.243 -0.4814 -0.8126 -0.5175
    8SAPS  H17X 1059   3.728   1.898   4.204 -0.0365 -0.3886  0.4207
    8SAPS  H17Y 1060   3.654   1.770   4.309  1.6189 -1.3450  2.2527
    8SAPS  C318 1061   3.742   1.703   4.126 -0.4373  0.2523  0.0913
    8SAPS  H18X 1062   3.637   1.693   4.091 -0.2563 -1.4504 -0.0301
    8SAPS  H18Y 1063   3.779   1.609   4.170 -0.0243  1.1194  1.6504
    8SAPS  H18Z 1064   3.806   1.746   4.045  1.5395  0.7849  1.8541
    9SAPS     N 1065   4.323   5.769   6.871  0.2092 -0.1984  0.2294
    9SAPS   HN1 1066   4.344   5.695   6.802 -0.0840 -1.3369  1.3285
    9SAPS   HN2 1067   4.220   5.782   6.858  0.3587  0.0319 -0.8451
    9SAPS   HN3 1068   4.368   5.861   6.850 -1.3525  0.4264 -0.5485
    9SAPS   C12 1069   4.359   5.719   7.003  0.2795  0.6400  0.5422
    9SAPS  H12A 1070   4.464   5.697   6.994  0.1869  1.0235 -2.5641
    9SAPS   C13 1071   4.339   5.821   7.121  0.4136 -0.0669 -0.5414
    9SAPS  O13A 1072   4.298   5.945   7.100 -0.1140  0.1620  0.5039
    9SAPS  O13B 1073   4.347   5.781   7.242  0.4587  0.6825  0.3911
    9SAPS   C11 1074   4.279   5.592   7.028  0.1340  0.0158  0.0385
    9SAPS  H11A 1075   4.171   5.617   7.042  0.3656  1.2365 -0.2079
    9SAPS  H11B 1076   4.312   5.545   7.123 -0.8944  1.9103  1.4092
    9SAPS     P 1077   4.235   5.367   6.892  0.3307  0.4307 -0.0747
    9SAPS   O13 1078   4.310   5.267   6.973 -0.5468 -0.5683 -0.0458
    9SAPS   O14 1079   4.086   5.372   6.910 -0.6045  0.0071  0.2800
    9SAPS   O12 1080   4.291   5.508   6.914 -0.1057  0.2629  0.1662
    9SAPS   O11 1081   4.270   5.343   6.737  0.5390  0.9545 -0.4269
    9SAPS    C1 1082   4.284   5.216   6.676 -0.2105 -0.0334 -0.7691
    9SAPS    HA 1083   4.393   5.203   6.660 -0.1137  0.1377 -0.2378
    9SAPS    HB 1084   4.252   5.131   6.740  0.1434  1.5918  1.7146
    9SAPS    C2 1085   4.203   5.218   6.546 -0.1508  0.5904 -0.0909
    9SAPS    HS 1086   4.102   5.236   6.589  0.1085 -2.2874  2.0805
    9SAPS   O21 1087   4.217   5.094   6.478 -0.0835  0.7136 -0.2131
    9SAPS   C21 1088   4.121   5.054   6.397  0.3503 -0.3953 -0.1856
    9SAPS   O22 1089   4.004   5.095   6.398  0.6736  0.0309 -0.1988
    9SAPS   C22 1090   4.171   4.933   6.311  0.1121 -0.1721 -0.5784
    9SAPS   H2R 1091   4.175   4.849   6.384  3.6322  1.1800  0.9680
    9SAPS   H2S 1092   4.094   4.908   6.234 -0.3357  1.7097 -0.7743
    9SAPS    C3 1093   4.250   5.329   6.448  0.3853 -0.4613  0.5361
    9SAPS    HX 1094   4.359   5.319   6.428 -0.1676 -1.2818 -2.5092
    9SAPS    HY 1095   4.239   5.425   6.503  0.0155  0.2452 -0.7282
    9SAPS   O31 1096   4.183   5.324   6.323 -0.0146 -0.8593  0.4315
    9SAPS   C31 1097   4.065   5.385   6.330  0.1741  0.1222  0.2875
    9SAPS   O32 1098   4.013   5.447   6.423 -0.2532  0.0057  0.2916
    9SAPS   C32 1099   3.998   5.360   6.195  0.2305 -0.5340 -0.0689
    9SAPS   H2X 1100   3.888   5.373   6.210  0.5574  1.3736  1.0277
    9SAPS   H2Y 1101   4.015   5.256   6.160 -1.2365 -0.4592 -1.0907
    9SAPS   C23 1102   4.304   4.960   6.241  0.5761 -0.2057 -0.2223
    9SAPS   H3R 1103   4.327   4.860   6.199  1.5465 -0.4805  0.9119
    9SAPS   H3S 1104   4.389   4.981   6.310  0.6335 -1.2050  0.0243
    9SAPS   C24 1105   4.306   5.072   6.137  0.5553 -0.1199  0.3426
    9SAPS   H4R 1106   4.255   5.159   6.184  0.2474 -0.6436  1.0142
    9SAPS   H4S 1107   4.251   5.051   6.043 -0.4468  2.7525  0.1965
    9SAPS   C25 1108   4.444   5.119   6.103  0.4482 -0.0277  0.4666
    9SAPS   H5R 1109   4.517   5.118   6.185  1.7961  0.7820 -0.6820
    9SAPS   C26 1110   4.482   5.155   5.980 -0.6647  0.6234  0.2466
    9SAPS   H6R 1111   4.585   5.190   5.963  0.2191 -2.1913 -0.8040
    9SAPS   C27 1112   4.397   5.164   5.854 -0.0839  0.4108  0.2245
    9SAPS   H7R 1113   4.432   5.261   5.812 -1.3928  1.4253  1.3913
    9SAPS   H7S 1114   4.290   5.180   5.879 -0.5535 -0.0022 -1.3558
    9SAPS   C28 1115   4.420   5.040   5.770 -0.1619 -0.5807  0.1990
    9SAPS   H8R 1116   4.486   4.962   5.809 -0.3532 -2.1231 -2.3645
    9SAPS   C29 1117   4.372   5.024   5.644 -0.7759  0.1598 -0.0517
    9SAPS   H9R 1118   4.389   4.923   5.603 -1.2650 -0.9129  2.2375
    9SAPS  C210 1119   4.265   5.110   5.582 -0.0165  0.0321  0.0289
    9SAPS  H10R 1120   4.306   5.202   5.534  0.5878 -0.6109 -0.6992
    9SAPS  H10S 1121   4.195   5.146   5.660 -0.0498 -0.0382  0.0308
    9SAPS  C211 1122   4.179   5.043   5.475 -0.4651 -0.1381 -0.0350
    9SAPS  H11R 1123   4.073   5.024   5.495 -0.2555 -2.2984 -0.6725
    9SAPS  C212 1124   4.228   4.989   5.361 -0.8842  0.2003  0.3835
    9SAPS  H12R 1125   4.161   4.950   5.284  1.2309  0.6131 -1.7829
    9SAPS  C213 1126   4.370   5.004   5.303 -0.5668 -0.0580 -0.4263
    9SAPS  H13R 1127   4.392   4.942   5.214 -0.8274 -0.6096 -0.1117
    9SAPS  H13S 1128   4.437   4.950   5.373 -0.3774  0.0141 -0.5536
    9SAPS  C214 1129   4.420   5.147   5.288 -0.0338 -0.2376  0.1343
    9SAPS  H14R 1130   4.398   5.212   5.373 -2.1073 -1.5453  0.6752
    9SAPS  C215 1131   4.471   5.203   5.176  0.3103  0.1557 -0.4439
    9SAPS  H15R 1132   4.506   5.307   5.180 -1.4251  0.7385  2.8438
    9SAPS  C216 1133   4.501   5.121   5.053  0.4364 -0.0834 -0.1520
    9SAPS  H16R 1134   4.522   5.013   5.070  1.2519  0.1471  0.3589
    9SAPS  H16S 1135   4.598   5.161   5.016  1.1974 -1.8912 -0.1942
    9SAPS  C217 1136   4.391   5.142   4.953  0.0369 -0.2539 -0.3622
    9SAPS  H17R 1137   4.362   5.249   4.957  0.1001 -0.2601  0.4735
    9SAPS  H17S 1138   4.297   5.089   4.978 -0.3162 -0.2092 -1.5323
    9SAPS  C218 1139   4.446   5.131   4.814 -0.2959  0.5428  0.2351
    9SAPS  H18R 1140   4.535   5.196   4.799 -1.3304  2.5765  2.2977
    9SAPS  H18S 1141   4.370   5.163   4.739 -0.7228 -2.3726 -0.6960
    9SAPS  C219 1142   4.486   4.983   4.775  0.1052  1.0448 -0.5981
    9SAPS  H19R 1143   4.451   4.959   4.672 -0.8168 -0.5262  0.0433
    9SAPS  H19S 1144   4.433   4.904   4.834 -0.3658 -0.1594 -2.5334
    9SAPS  C220 1145   4.635   4.954   4.795 -0.9666 -0.7614  0.5810
    9SAPS  H20R 1146   4.662   4.966   4.902 -0.7474  0.8878  0.3636
    9SAPS  H20S 1147   4.699   5.031   4.745  0.2528 -1.4639  1.0102
    9SAPS  H20T 1148   4.672   4.854   4.762 -1.6431  0.1415 -3.5262
    9SAPS   C33 1149   4.059   5.459   6.086 -0.5895  0.7141 -0.9579
    9SAPS   H3X 1150   4.062   5.562   6.127 -1.9639  0.1244  0.7192
    9SAPS   H3Y 1151   3.987   5.464   6.001 -0.6277  2.1787 -0.8589
    9SAPS   C34 1152   4.191   5.402   6.036 -0.2491 -0.0571 -0.6362
    9SAPS   H4X 1153   4.164   5.300   6.000 -0.0467 -0.1831 -0.4402
    9SAPS   H4Y 1154   4.276   5.402   6.108  0.9216  1.5995 -1.9512
    9SAPS   C35 1155   4.257   5.472   5.911  0.3953  0.2973  0.2015
    9SAPS   H5X 1156   4.358   5.434   5.884  0.6648  2.0022 -1.4045
    9SAPS   H5Y 1157   4.272   5.579   5.938  0.0684 -0.1571  2.3706
    9SAPS   C36 1158   4.168   5.455   5.789  0.4948 -0.5392 -0.7138
    9SAPS   H6X 1159   4.070   5.504   5.805  1.1920  0.1214  2.0530
    9SAPS   H6Y 1160   4.152   5.345   5.776  0.0256 -0.4317 -1.0716
    9SAPS   C37 1161   4.229   5.508   5.661  0.0487  0.1248  0.1595
    9SAPS   H7X 1162   4.329   5.460   5.651 -0.3656 -1.4956  2.7640
    9SAPS   H7Y 1163   4.242   5.617   5.673 -3.0759  0.8947 -2.1139
    9SAPS   C38 1164   4.135   5.486   5.550 -0.5498  0.3255  0.1645
    9SAPS   H8X 1165   4.045   5.549   5.561 -2.0020 -1.4502 -0.9370
    9SAPS   H8Y 1166   4.106   5.381   5.528 -1.6250 -0.0252  2.8590
    9SAPS   C39 1167   4.204   5.534   5.418 -0.2699 -0.0593  0.7775
    9SAPS   H9X 1168   4.275   5.455   5.384 -0.6877 -0.4940  0.8932
    9SAPS   H9Y 1169   4.232   5.641   5.424 -1.2394  0.2745 -0.2352
    9SAPS  C310 1170   4.100   5.535   5.303  0.0412  0.5124 -0.6913
    9SAPS  H10X 1171   4.134   5.572   5.204  1.7508 -1.6541 -0.9900
    9SAPS  H10Y 1172   4.006   5.585   5.337 -1.5483 -2.3005 -0.6279
    9SAPS  C311 1173   4.057   5.386   5.273  0.2387 -0.3691  0.2541
    9SAPS  H11X 1174   4.006   5.346   5.363  1.5310 -2.7639  0.0011
    9SAPS  H11Y 1175   4.151   5.330   5.258  0.7880  0.4052  0.7209
    9SAPS  C312 1176   3.970   5.386   5.145 -0.5655 -0.3341  0.4318
    9SAPS  H12X 1177   4.037   5.409   5.059 -1.7849  2.9644  0.2478
    9SAPS  H12Y 1178   3.884   5.455   5.147 -0.0664  0.3182 -0.2857
    9SAPS  C313 1179   3.903   5.249   5.117 -0.8294 -0.0610 -0.7539
    9SAPS  H13X 1180   3.962   5.162   5.152 -1.3178  0.3124  1.1090
    9SAPS  H13Y 1181   3.881   5.244   5.008 -1.3528 -1.9581 -0.5969
    9SAPS  C314 1182   3.769   5.240   5.186  0.3439 -0.0375 -0.3885
    9SAPS  H14X 1183   3.699   5.187   5.117  0.8600  0.7487 -1.5518
    9SAPS  H14Y 1184   3.734   5.341   5.214  1.3669  0.1493  0.2546
    9SAPS  C315 1185   3.785   5.167   5.319  0.2345 -0.1200 -0.1020
    9SAPS  H15X 1186   3.866   5.211   5.380  0.5818 -0.4645 -0.3106
    9SAPS  H15Y 1187   3.829   5.066   5.307  2.2348  0.6801  0.1474
    9SAPS  C316 1188   3.665   5.168   5.419  0.1728 -0.4537 -0.1863
    9SAPS  H16X 1189   3.582   5.107   5.377  2.1525 -1.5440 -2.7504
    9SAPS  H16Y 1190   3.623   5.271   5.428  1.3227 -0.0347  0.7063
    9SAPS  C317 1191   3.713   5.112   5.555 -0.1128 -0.0157  0.5079
    9SAPS  H17X 1192   3.776   5.190   5.603 -1.6802  0.6946  1.4650
    9SAPS  H17Y 1193   3.773   5.023   5.526 -0.3902  0.6485 -2.4827
    9SAPS  C318 1194   3.611   5.073   5.653 -0.0793  0.4846 -0.6091
    9SAPS  H18X 1195   3.658   5.041   5.748  0.3069  1.1113 -0.5887
    9SAPS  H18Y 1196   3.539   5.005   5.602 -0.6570 -0.2878  1.1664
    9SAPS  H18Z 1197   3.555   5.166   5.678  0.8510  0.4421  1.8503
   10SAPS     N 1198   4.230   4.074   6.610 -0.6904  0.1325  0.6043
   10SAPS   HN1 1199   4.219   4.083   6.507  0.1585 -2.5082  0.2227
   10SAPS   HN2 1200   4.239   4.174   6.638  0.8984  0.1294  0.1788
   10SAPS   HN3 1201   4.314   4.015   6.625  0.0382  0.8732 -0.4256
   10SAPS   C12 1202   4.102   4.016   6.673 -0.3924 -0.1190 -0.8456
   10SAPS  H12A 1203   4.112   4.028   6.780 -2.7797 -0.3162 -0.5572
   10SAPS   C13 1204   3.970   4.085   6.623 -0.4905 -0.0889  0.3603
   10SAPS  O13A 1205   3.972   4.151   6.514 -0.3074  0.0189  0.2219
   10SAPS  O13B 1206   3.861   4.059   6.680 -0.3216  0.5485 -0.5290
   10SAPS   C11 1207   4.113   3.863   6.662  0.1438  0.4519 -0.0097
   10SAPS  H11A 1208   4.015   3.820   6.691  0.0184  1.3425  0.9285
   10SAPS  H11B 1209   4.186   3.813   6.729  0.4603 -0.2928 -0.8745
   10SAPS     P 1210   4.151   3.682   6.476  0.0605 -0.1063 -0.1874
   10SAPS   O13 1211   4.268   3.610   6.532  0.2832 -0.3824 -0.5049
   10SAPS   O14 1212   4.016   3.628   6.501  0.2847  0.0943 -0.2900
   10SAPS   O12 1213   4.151   3.830   6.527 -0.2452 -0.2490  0.1187
   10SAPS   O11 1214   4.166   3.698   6.319  0.6333 -0.2524  0.3946
   10SAPS    C1 1215   4.291   3.739   6.263  0.0630 -0.1754  0.0240
   10SAPS    HA 1216   4.374   3.681   6.310  0.4182  0.1108 -0.2423
   10SAPS    HB 1217   4.310   3.705   6.159  0.7846  0.7602 -0.1651
   10SAPS    C2 1218   4.311   3.891   6.277 -0.7735  0.7804 -0.1348
   10SAPS    HS 1219   4.301   3.922   6.383 -2.4141 -1.6946  0.5194
   10SAPS   O21 1220   4.196   3.946   6.204  0.3273 -0.2614 -0.5589
   10SAPS   C21 1221   4.176   4.070   6.244 -0.6194 -0.1522 -0.2994
   10SAPS   O22 1222   4.242   4.127   6.335  0.7496  0.2117  0.3758
   10SAPS   C22 1223   4.063   4.150   6.188  0.2777  0.1255  0.4635
   10SAPS   H2R 1224   3.993   4.167   6.272  0.0964  0.4854  0.2437
   10SAPS   H2S 1225   4.098   4.253   6.166  1.0386  0.3872  2.6880
   10SAPS    C3 1226   4.445   3.929   6.215  0.0628 -0.0741  0.6676
   10SAPS    HX 1227   4.507   3.852   6.267 -2.3270 -3.2572 -0.8083
   10SAPS    HY 1228   4.478   4.030   6.246  0.3285 -0.2513  0.9737
   10SAPS   O31 1229   4.458   3.909   6.069  0.7267  0.1070 -0.4173
   10SAPS   C31 1230   4.578   3.916   6.029 -1.0686  0.1793 -0.0599
   10SAPS   O32 1231   4.681   3.930   6.094  0.7602  0.0179 -0.0782
   10SAPS   C32 1232   4.584   3.877   5.883 -0.2335  0.2759 -0.5646
   10SAPS   H2X 1233   4.514   3.946   5.831 -0.8493  0.8928  1.0117
   10SAPS   H2Y 1234   4.542   3.774   5.880  1.1880 -0.4802  2.2148
   10SAPS   C23 1235   4.011   4.080   6.061 -0.7241  0.1158  0.1933
   10SAPS   H3R 1236   3.913   4.121   6.028  0.2035  2.0318 -0.2762
   10SAPS   H3S 1237   3.989   3.971   6.071 -3.6866  0.4751 -1.4116
   10SAPS   C24 1238   4.113   4.094   5.950  0.0185 -0.4045  0.6476
   10SAPS   H4R 1239   4.075   4.040   5.861 -2.1693  1.0229  0.6175
   10SAPS   H4S 1240   4.203   4.038   5.981  1.4023  1.1271 -0.4166
   10SAPS   C25 1241   4.146   4.231   5.906  0.1364 -0.5188  0.1623
   10SAPS   H5R 1242   4.060   4.300   5.909  0.8404  0.3633  0.5849
   10SAPS   C26 1243   4.260   4.287   5.859 -0.2745  0.3207 -0.5410
   10SAPS   H6R 1244   4.260   4.394   5.836 -1.9089  1.0551  2.3905
   10SAPS   C27 1245   4.386   4.206   5.831  0.0714  0.3186 -0.0520
   10SAPS   H7R 1246   4.416   4.229   5.726  1.8931 -0.5511  0.2388
   10SAPS   H7S 1247   4.372   4.096   5.828 -1.6587  0.5215 -0.2327
   10SAPS   C28 1248   4.492   4.233   5.935 -0.2644  0.2797 -0.4105
   10SAPS   H8R 1249   4.459   4.230   6.040 -1.5757  2.1943 -0.7172
   10SAPS   C29 1250   4.624   4.268   5.915 -0.0210 -0.4201 -0.0441
   10SAPS   H9R 1251   4.689   4.278   6.003  0.4411 -1.8343 -0.1899
   10SAPS  C210 1252   4.682   4.299   5.776 -0.1282  0.6885 -0.3575
   10SAPS  H10R 1253   4.687   4.410   5.776 -0.9327  0.7699  1.6308
   10SAPS  H10S 1254   4.620   4.259   5.693 -0.2638  0.7335 -0.2774
   10SAPS  C211 1255   4.820   4.245   5.750 -0.6620  0.0880 -0.4505
   10SAPS  H11R 1256   4.848   4.160   5.814 -0.9743  0.5651  0.3284
   10SAPS  C212 1257   4.906   4.274   5.651 -0.1674 -1.0440 -0.0308
   10SAPS  H12R 1258   5.004   4.224   5.641 -0.3598 -1.1856 -1.4005
   10SAPS  C213 1259   4.879   4.386   5.558  0.0919  0.4453 -0.2142
   10SAPS  H13R 1260   4.936   4.477   5.588  0.1329  0.4171 -0.2064
   10SAPS  H13S 1261   4.774   4.424   5.556 -0.1149 -0.1263 -0.4058
   10SAPS  C214 1262   4.903   4.345   5.412  0.0651 -0.0320 -0.3064
   10SAPS  H14R 1263   4.918   4.239   5.390 -0.5795 -0.7686  2.4609
   10SAPS  C215 1264   4.933   4.428   5.317  0.7052 -0.0163  0.9890
   10SAPS  H15R 1265   4.971   4.384   5.224 -1.0223  2.6034 -1.0956
   10SAPS  C216 1266   4.928   4.580   5.319 -0.2600 -0.2765  0.7237
   10SAPS  H16R 1267   5.034   4.614   5.307  0.3567 -1.7848  1.6412
   10SAPS  H16S 1268   4.890   4.615   5.418  1.4933 -3.0445  2.5087
   10SAPS  C217 1269   4.851   4.640   5.191  0.5796  0.5223 -0.8446
   10SAPS  H17R 1270   4.896   4.598   5.099  2.4659 -0.9339  0.6610
   10SAPS  H17S 1271   4.859   4.751   5.189 -0.1876  0.6373  0.9177
   10SAPS  C218 1272   4.706   4.605   5.197 -0.0533  0.0965 -0.3745
   10SAPS  H18R 1273   4.663   4.602   5.300 -1.2345 -0.1400 -0.8596
   10SAPS  H18S 1274   4.703   4.497   5.171  0.2172  0.3588 -1.5380
   10SAPS  C219 1275   4.617   4.679   5.092 -0.3816 -0.4966  0.5749
   10SAPS  H19R 1276   4.651   4.676   4.986  1.7587  2.8731  0.9876
   10SAPS  H19S 1277   4.615   4.786   5.123 -2.2257 -0.2243 -0.3371
   10SAPS  C220 1278   4.474   4.623   5.098  0.0288  0.5243  0.0256
   10SAPS  H20R 1279   4.409   4.692   5.041  2.2343  0.5461 -2.7203
   10SAPS  H20S 1280   4.439   4.619   5.203  1.6140  0.7679  0.5983
   10SAPS  H20T 1281   4.466   4.518   5.064 -2.4615  0.1456  1.6095
   10SAPS   C33 1282   4.723   3.876   5.824 -0.3181 -0.6018 -0.2798
   10SAPS   H3X 1283   4.792   3.819   5.889 -0.3984  2.3634  2.6676
   10SAPS   H3Y 1284   4.764   3.979   5.836 -0.5334 -0.6452  0.9603
   10SAPS   C34 1285   4.728   3.841   5.674  0.0222  0.3198  0.0394
   10SAPS   H4X 1286   4.721   3.731   5.660  0.1938 -0.0562  2.5065
   10SAPS   H4Y 1287   4.823   3.875   5.627 -1.2308  1.4346 -1.7939
   10SAPS   C35 1288   4.611   3.906   5.599 -0.3829 -0.0473  0.6103
   10SAPS   H5X 1289   4.627   4.016   5.594  0.8191 -0.2698 -1.5416
   10SAPS   H5Y 1290   4.511   3.878   5.639  0.1634 -1.7550  0.8738
   10SAPS   C36 1291   4.614   3.859   5.455  0.1300 -0.3119  0.3979
   10SAPS   H6X 1292   4.520   3.890   5.405 -0.0116 -0.7065  0.4165
   10SAPS   H6Y 1293   4.622   3.749   5.444 -2.7868 -0.6562  0.8936
   10SAPS   C37 1294   4.722   3.927   5.368  0.2298 -0.1974  0.0705
   10SAPS   H7X 1295   4.825   3.897   5.400  0.4790  0.2083 -0.3391
   10SAPS   H7Y 1296   4.708   4.037   5.366 -0.6258 -0.2731  1.0347
   10SAPS   C38 1297   4.702   3.887   5.216 -0.3264 -1.1492 -0.0384
   10SAPS   H8X 1298   4.597   3.897   5.181 -0.1315  0.2800 -0.2940
   10SAPS   H8Y 1299   4.719   3.779   5.196  0.0798 -0.8585 -1.4095
   10SAPS   C39 1300   4.788   3.969   5.110 -0.2353  0.6416 -0.3362
   10SAPS   H9X 1301   4.774   3.925   5.009 -2.5146 -0.3007  0.3240
   10SAPS   H9Y 1302   4.897   3.957   5.130 -0.2524 -1.5827 -1.3121
   10SAPS  C310 1303   4.758   4.122   5.107 -0.8474 -0.0627  0.6886
   10SAPS  H10X 1304   4.787   4.175   5.200  0.9239  3.4033 -1.6118
   10SAPS  H10Y 1305   4.651   4.140   5.081 -0.2294  0.3487 -1.8651
   10SAPS  C311 1306   4.834   4.197   4.999 -0.3916 -0.4546  1.3210
   10SAPS  H11X 1307   4.942   4.174   4.982 -0.4485  0.6948 -0.9058
   10SAPS  H11Y 1308   4.850   4.302   5.033 -1.3798 -0.2367  1.1253
   10SAPS  C312 1309   4.750   4.208   4.865 -0.6686 -0.4863 -0.6075
   10SAPS  H12X 1310   4.685   4.118   4.859 -0.6941 -0.4690 -0.5892
   10SAPS  H12Y 1311   4.822   4.228   4.783 -0.6165  2.3851  0.0303
   10SAPS  C313 1312   4.658   4.335   4.865 -1.1381  0.2763 -0.1373
   10SAPS  H13X 1313   4.701   4.419   4.923 -0.4710  0.1324 -0.4122
   10SAPS  H13Y 1314   4.566   4.304   4.919 -1.9285  0.2096 -1.4876
   10SAPS  C314 1315   4.611   4.386   4.728  0.0090 -0.0980  0.2236
   10SAPS  H14X 1316   4.523   4.450   4.749 -2.1192 -1.9763 -2.2567
   10SAPS  H14Y 1317   4.561   4.305   4.671 -2.7053 -0.4056  2.7975
   10SAPS  C315 1318   4.717   4.458   4.640 -0.3204  0.5492  0.0782
   10SAPS  H15X 1319   4.810   4.403   4.617  0.1128  1.1986  0.2535
   10SAPS  H15Y 1320   4.753   4.545   4.699  0.2615  0.4482 -0.1235
   10SAPS  C316 1321   4.662   4.504   4.509  0.1218  0.4185 -0.1168
   10SAPS  H16X 1322   4.562   4.548   4.530 -1.9701 -1.9175 -4.1400
   10SAPS  H16Y 1323   4.632   4.421   4.441  0.1029 -0.1065  0.5259
   10SAPS  C317 1324   4.749   4.603   4.431  0.5224 -0.3419 -0.0019
   10SAPS  H17X 1325   4.712   4.604   4.326 -1.0830 -3.2742  0.4336
   10SAPS  H17Y 1326   4.857   4.576   4.431  1.0818  1.6843  0.1309
   10SAPS  C318 1327   4.736   4.749   4.481  0.1739 -0.3976  0.6601
   10SAPS  H18X 1328   4.631   4.782   4.472 -0.3195 -2.0883 -0.2683
   10SAPS  H18Y 1329   4.802   4.807   4.412 -1.8848  1.8105  0.4285
   10SAPS  H18Z 1330   4.782   4.778   4.578  3.3546 -0.5209 -0.6866
   11SAPS     N 1331   0.799   0.144   1.440  0.0274  0.4808 -0.1624
   11SAPS   HN1 1332   0.768   0.107   1.347  0.2501 -1.2866  0.4217
   11SAPS   HN2 1333   0.785   0.246   1.453 -0.4208  0.3310  0.6279
   11SAPS   HN3 1334   0.899   0.118   1.444  0.2182  0.8736 -1.7722
   11SAPS   C12 1335   0.708   0.079   1.545  0.8536  0.5441  0.6575
   11SAPS  H12A 1336   0.609   0.084   1.504  1.5352  1.0524 -0.9769
   11SAPS   C13 1337   0.739  -0.071   1.576  0.3491 -0.7206  0.1411
   11SAPS  O13A 1338   0.848  -0.120   1.535  0.2059  0.2267 -0.3138
   11SAPS  O13B 1339   0.671  -0.126   1.662 -0.3488 -0.7291  0.4385
   11SAPS   C11 1340   0.706   0.169   1.666 -0.3823  0.4203  0.2278
   11SAPS  H11A 1341   0.648   0.120   1.748  1.0197 -1.2429  0.2695
   11SAPS  H11B 1342   0.651   0.264   1.645 -0.4056  1.6365  4.8183
   11SAPS     P 1343   0.910   0.334   1.738 -0.1914 -0.3060  0.2516
   11SAPS   O13 1344   1.035   0.307   1.810  0.0823 -0.3856 -0.1860
   11SAPS   O14 1345   0.917   0.402   1.604 -0.0168  0.4913  0.5062
   11SAPS   O12 1346   0.831   0.199   1.719  0.0151  0.0907  0.2455
   11SAPS   O11 1347   0.821   0.423   1.824 -0.0628  0.1750 -0.2672
   11SAPS    C1 1348   0.738   0.365   1.922  0.7110 -0.0644 -0.9510
   11SAPS    HA 1349   0.632   0.387   1.899  0.6353 -0.0351 -0.5882
   11SAPS    HB 1350   0.746   0.255   1.924 -1.2382 -0.2383 -0.2266
   11SAPS    C2 1351   0.753   0.418   2.060 -0.0037 -0.3676 -0.2750
   11SAPS    HS 1352   0.690   0.365   2.135  0.1113 -2.1088 -1.3551
   11SAPS   O21 1353   0.727   0.561   2.060  0.8551 -0.3221  0.1916
   11SAPS   C21 1354   0.593   0.589   2.077  0.0109 -0.2317  0.2934
   11SAPS   O22 1355   0.502   0.506   2.087  0.3613 -0.2637 -0.0287
   11SAPS   C22 1356   0.569   0.745   2.096  0.5366 -0.2010 -0.4838
   11SAPS   H2R 1357   0.664   0.779   2.142 -0.4909  0.9278  0.9132
   11SAPS   H2S 1358   0.558   0.798   2.000 -0.1810  0.3599 -0.1072
   11SAPS    C3 1359   0.898   0.413   2.109 -1.0216 -0.4188 -0.1075
   11SAPS    HX 1360   0.966   0.469   2.041  0.3282 -0.6613  1.0006
   11SAPS    HY 1361   0.932   0.308   2.101 -0.8471 -0.3387 -0.4292
   11SAPS   O31 1362   0.910   0.463   2.250  0.4672  0.5497  0.2808
   11SAPS   C31 1363   0.966   0.582   2.267 -0.5473 -0.5092 -0.4052
   11SAPS   O32 1364   1.011   0.660   2.187 -0.1084 -0.2446  0.6591
   11SAPS   C32 1365   0.990   0.596   2.424 -0.4634  0.2597  0.1646
   11SAPS   H2X 1366   1.085   0.543   2.449 -1.0408 -2.8994 -3.3351
   11SAPS   H2Y 1367   0.904   0.549   2.476 -1.0380 -0.4896 -1.3788
   11SAPS   C23 1368   0.451   0.772   2.186  1.0495 -0.7506  0.1009
   11SAPS   H3R 1369   0.370   0.714   2.139  1.4987  0.1510 -1.9041
   11SAPS   H3S 1370   0.430   0.881   2.193 -0.7327 -1.1120  0.8533
   11SAPS   C24 1371   0.472   0.720   2.329  0.0735 -0.0742  0.5336
   11SAPS   H4R 1372   0.556   0.778   2.372  1.5731 -1.1932 -0.7679
   11SAPS   H4S 1373   0.513   0.617   2.319 -0.6981 -0.2209 -1.6348
   11SAPS   C25 1374   0.348   0.721   2.422  0.8329  0.0017 -0.6750
   11SAPS   H5R 1375   0.254   0.691   2.374 -0.2983  0.5335  1.1285
   11SAPS   C26 1376   0.339   0.758   2.548 -0.0608  0.2821  0.7417
   11SAPS   H6R 1377   0.242   0.763   2.598  0.0995  1.7490  0.9647
   11SAPS   C27 1378   0.451   0.807   2.634 -0.3172  0.1798  0.2730
   11SAPS   H7R 1379   0.408   0.905   2.663 -0.7028 -0.2360  1.1580
   11SAPS   H7S 1380   0.540   0.846   2.582  2.5316  0.4604  4.8362
   11SAPS   C28 1381   0.484   0.719   2.756 -0.1253 -0.2237  0.0376
   11SAPS   H8R 1382   0.538   0.625   2.735  1.2963  0.6767 -0.4521
   11SAPS   C29 1383   0.447   0.735   2.883 -0.1366 -0.9123 -0.4264
   11SAPS   H9R 1384   0.477   0.665   2.963 -0.8964  1.0127  1.6589
   11SAPS  C210 1385   0.385   0.869   2.939  0.3995  0.1305 -1.5887
   11SAPS  H10R 1386   0.346   0.930   2.855 -2.2167  1.9301  0.7530
   11SAPS  H10S 1387   0.469   0.932   2.975  0.5889 -1.1012  0.2559
   11SAPS  C211 1388   0.280   0.871   3.050 -0.0851  0.4181  0.2442
   11SAPS  H11R 1389   0.175   0.858   3.018 -0.3397  0.9244  0.8532
   11SAPS  C212 1390   0.309   0.870   3.178 -0.4561  0.4960  0.3233
   11SAPS  H12R 1391   0.222   0.880   3.245  0.0671  0.8886  0.9517
   11SAPS  C213 1392   0.447   0.867   3.245  0.4138 -0.4453 -0.0721
   11SAPS  H13R 1393   0.527   0.870   3.168 -1.3862  2.4266 -2.0062
   11SAPS  H13S 1394   0.457   0.776   3.308  2.2302 -0.2026  0.0566
   11SAPS  C214 1395   0.465   0.985   3.341 -0.4584 -0.4061  0.5421
   11SAPS  H14R 1396   0.508   1.066   3.280  1.0529 -2.9497 -2.0281
   11SAPS  C215 1397   0.467   0.980   3.473  0.5357  0.3595 -0.5467
   11SAPS  H15R 1398   0.503   1.062   3.537 -2.2411 -0.9954  3.0259
   11SAPS  C216 1399   0.423   0.859   3.554 -0.0282  0.6676  0.0727
   11SAPS  H16R 1400   0.425   0.757   3.509  2.2794 -0.3061  2.1120
   11SAPS  H16S 1401   0.320   0.877   3.591  1.3158  1.7767  3.6960
   11SAPS  C217 1402   0.488   0.844   3.694 -0.1546 -0.2322 -0.1122
   11SAPS  H17R 1403   0.597   0.866   3.700 -0.1963 -0.2843  3.5305
   11SAPS  H17S 1404   0.479   0.740   3.733 -0.1331  0.1328  0.9179
   11SAPS  C218 1405   0.428   0.947   3.796  0.5048  0.4251 -0.4644
   11SAPS  H18R 1406   0.327   0.911   3.824  0.2222  1.2439 -0.4191
   11SAPS  H18S 1407   0.414   1.046   3.749  1.1840  0.1060 -1.3896
   11SAPS  C219 1408   0.505   0.959   3.925 -0.1204 -0.2715  0.8228
   11SAPS  H19R 1409   0.450   1.036   3.985 -1.5848 -0.7033  0.0855
   11SAPS  H19S 1410   0.606   1.001   3.909 -0.0855 -0.1379  1.3639
   11SAPS  C220 1411   0.517   0.826   3.994 -1.0086  0.9848  0.0700
   11SAPS  H20R 1412   0.571   0.837   4.090  1.2833  0.8910 -1.1523
   11SAPS  H20S 1413   0.583   0.759   3.935 -2.4757  0.1864 -0.7145
   11SAPS  H20T 1414   0.417   0.778   4.002 -1.4698  1.2220 -3.1054
   11SAPS   C33 1415   0.995   0.746   2.470  0.1608 -0.0756 -0.6132
   11SAPS   H3X 1416   0.936   0.803   2.396 -1.2468  0.9833  1.2313
   11SAPS   H3Y 1417   1.100   0.781   2.458  0.5668 -1.8471 -3.0846
   11SAPS   C34 1418   0.946   0.757   2.616 -0.2318  0.3083  0.2502
   11SAPS   H4X 1419   1.009   0.688   2.675 -0.0110  1.2494  1.1364
   11SAPS   H4Y 1420   0.842   0.719   2.621 -0.6277  1.2182 -0.6121
   11SAPS   C35 1421   0.968   0.895   2.664  0.4920  0.2340 -0.1405
   11SAPS   H5X 1422   0.900   0.965   2.610  0.6572  0.5100  0.0095
   11SAPS   H5Y 1423   1.072   0.927   2.643  0.6015  0.5977  0.8876
   11SAPS   C36 1424   0.941   0.915   2.817  0.6880 -0.5161 -0.4210
   11SAPS   H6X 1425   0.835   0.903   2.848  0.5076  0.2616 -0.7139
   11SAPS   H6Y 1426   0.958   1.021   2.848  2.2799 -0.8085 -0.2097
   11SAPS   C37 1427   1.036   0.825   2.899 -0.0284 -0.6431  0.1369
   11SAPS   H7X 1428   1.138   0.826   2.856 -0.2648 -1.6134 -0.4703
   11SAPS   H7Y 1429   0.992   0.724   2.894 -0.2072 -0.5380 -0.5511
   11SAPS   C38 1430   1.043   0.869   3.041 -0.5316 -0.0547 -0.1064
   11SAPS   H8X 1431   0.951   0.847   3.100 -0.0962 -0.3953  0.4521
   11SAPS   H8Y 1432   1.071   0.976   3.042  1.4652 -0.5423  1.0778
   11SAPS   C39 1433   1.134   0.776   3.124 -0.5579 -0.2559  0.5392
   11SAPS   H9X 1434   1.230   0.775   3.068 -0.5500 -0.1095  0.5518
   11SAPS   H9Y 1435   1.093   0.672   3.130  1.6027 -1.2091 -0.2084
   11SAPS  C310 1436   1.164   0.825   3.267  0.0252 -0.3541  0.3097
   11SAPS  H10X 1437   1.065   0.817   3.318  0.1430  1.8899  0.9877
   11SAPS  H10Y 1438   1.185   0.933   3.261 -1.3401 -0.0288  0.9958
   11SAPS  C311 1439   1.261   0.741   3.345  0.4636 -0.5736 -0.2728
   11SAPS  H11X 1440   1.353   0.787   3.303 -0.6034  1.5580 -0.3965
   11SAPS  H11Y 1441   1.265   0.638   3.302 -0.1827 -0.6818 -0.0870
   11SAPS  C312 1442   1.244   0.746   3.495  0.6203 -0.1353  0.0200
   11SAPS  H12X 1443   1.228   0.853   3.521  0.6375 -0.2082  0.3340
   11SAPS  H12Y 1444   1.338   0.710   3.542  0.4917  0.4833  0.7723
   11SAPS  C313 1445   1.129   0.678   3.566 -0.3782  0.0776  0.0698
   11SAPS  H13X 1446   1.124   0.578   3.519  0.7040  0.7550 -1.6032
   11SAPS  H13Y 1447   1.032   0.732   3.569 -0.4813 -0.0867 -0.2774
   11SAPS  C314 1448   1.156   0.657   3.720  0.6997  0.6442  0.4281
   11SAPS  H14X 1449   1.147   0.760   3.760 -2.2803 -0.1580  2.1386
   11SAPS  H14Y 1450   1.259   0.616   3.728  0.3345 -0.5717 -0.6669
   11SAPS  C315 1451   1.058   0.570   3.803  0.2330 -0.0450  0.1188
   11SAPS  H15X 1452   1.057   0.470   3.756  1.0522 -0.7007  1.4468
   11SAPS  H15Y 1453   0.956   0.614   3.798 -0.4646 -1.7379 -1.4264
   11SAPS  C316 1454   1.104   0.564   3.952 -0.0180 -0.1075 -0.2225
   11SAPS  H16X 1455   1.060   0.644   4.015  0.1715  0.0007 -0.2244
   11SAPS  H16Y 1456   1.215   0.578   3.951 -0.1908  1.5950  0.7927
   11SAPS  C317 1457   1.065   0.440   4.038 -0.5220 -0.2265  0.4925
   11SAPS  H17X 1458   1.140   0.439   4.120 -1.5397  3.1252  1.6046
   11SAPS  H17Y 1459   1.096   0.356   3.972 -0.2717 -0.4200  0.8535
   11SAPS  C318 1460   0.927   0.426   4.097  0.7832  0.7590  0.2667
   11SAPS  H18X 1461   0.899   0.513   4.160  3.7238  1.0432  1.3147
   11SAPS  H18Y 1462   0.909   0.334   4.156 -2.7795  0.5620 -0.8394
   11SAPS  H18Z 1463   0.844   0.423   4.022  0.2413 -0.8387  0.8803
   12SAPS     N 1464   5.385   6.149   2.006  0.0827 -0.1810  0.1446
   12SAPS   HN1 1465   5.392   6.249   1.979  0.3860 -0.2341  0.0149
   12SAPS   HN2 1466   5.399   6.131   2.107 -0.9749 -0.3037  0.2800
   12SAPS   HN3 1467   5.468   6.099   1.967 -0.2439  0.7288 -1.8131
   12SAPS   C12 1468   5.256   6.093   1.960  0.1174  0.1983 -0.4239
   12SAPS  H12A 1469   5.189   6.128   2.037 -0.5357 -1.1318 -0.3735
   12SAPS   C13 1470   5.205   6.157   1.830  0.2920 -0.6048 -0.4844
   12SAPS  O13A 1471   5.271   6.247   1.770  0.3661  0.0091  0.1445
   12SAPS  O13B 1472   5.102   6.104   1.778  0.3920  0.3156 -0.3556
   12SAPS   C11 1473   5.268   5.936   1.940  0.2550  0.0116 -0.7408
   12SAPS  H11A 1474   5.305   5.919   1.836  0.6746  1.7591 -0.9071
   12SAPS  H11B 1475   5.164   5.898   1.940  0.8689 -1.8968  1.4947
   12SAPS     P 1476   5.333   5.714   2.069  0.1391 -0.4640 -0.4158
   12SAPS   O13 1477   5.266   5.649   1.952 -0.2446  0.2340 -0.1442
   12SAPS   O14 1478   5.465   5.663   2.104  0.6219  0.1802  0.1910
   12SAPS   O12 1479   5.348   5.872   2.043  0.0132 -0.1208 -0.6187
   12SAPS   O11 1480   5.241   5.717   2.203 -0.1423 -0.2022  0.3521
   12SAPS    C1 1481   5.220   5.600   2.286  0.1297 -0.5024  1.1088
   12SAPS    HA 1482   5.116   5.560   2.285 -0.6140  1.3453  0.7138
   12SAPS    HB 1483   5.283   5.514   2.253  1.7327  0.5284  1.3949
   12SAPS    C2 1484   5.263   5.616   2.434 -0.0696 -0.6593 -0.0069
   12SAPS    HS 1485   5.373   5.625   2.434  0.0643 -1.9609  1.2577
   12SAPS   O21 1486   5.223   5.495   2.507 -0.8691 -0.3488 -0.1401
   12SAPS   C21 1487   5.321   5.412   2.526 -0.1971 -0.0121  0.2365
   12SAPS   O22 1488   5.427   5.415   2.466 -0.3429  0.5650 -0.7598
   12SAPS   C22 1489   5.289   5.307   2.633  0.0083 -0.0716  0.4187
   12SAPS   H2R 1490   5.210   5.339   2.704 -0.7692  0.5767 -0.7097
   12SAPS   H2S 1491   5.253   5.218   2.576 -0.6998  0.1806  0.4636
   12SAPS    C3 1492   5.191   5.735   2.500  0.4881 -0.3054  0.4227
   12SAPS    HX 1493   5.080   5.728   2.489  0.5864  0.3591 -1.3079
   12SAPS    HY 1494   5.228   5.829   2.454  0.2838  0.0743  1.0217
   12SAPS   O31 1495   5.219   5.726   2.635  0.5317 -0.4140  0.1676
   12SAPS   C31 1496   5.192   5.835   2.700  0.1950  0.0016 -0.2694
   12SAPS   O32 1497   5.145   5.938   2.657  0.3591  0.0852  0.1271
   12SAPS   C32 1498   5.235   5.806   2.845 -0.0116  0.5178  1.4548
   12SAPS   H2X 1499   5.339   5.767   2.841  0.9034  2.8566  0.8251
   12SAPS   H2Y 1500   5.165   5.729   2.883  0.4260 -0.6547  0.0015
   12SAPS   C23 1501   5.409   5.267   2.724 -0.7595 -0.2204 -0.6755
   12SAPS   H3R 1502   5.497   5.237   2.664 -0.6954  3.0796 -2.4114
   12SAPS   H3S 1503   5.383   5.187   2.797 -1.5445  1.4910  1.0056
   12SAPS   C24 1504   5.456   5.389   2.815 -0.0926  0.7959  0.7233
   12SAPS   H4R 1505   5.469   5.469   2.738 -0.3697 -0.6719 -0.9270
   12SAPS   H4S 1506   5.556   5.364   2.854  0.5271 -0.5766 -1.5211
   12SAPS   C25 1507   5.365   5.434   2.921  0.2858 -0.3070  0.1789
   12SAPS   H5R 1508   5.283   5.496   2.881 -0.9203 -0.1577  2.6972
   12SAPS   C26 1509   5.385   5.427   3.053 -0.2032 -0.4703  0.0539
   12SAPS   H6R 1510   5.310   5.487   3.108 -1.2015 -1.4673 -0.1915
   12SAPS   C27 1511   5.494   5.359   3.134 -0.7356 -1.1609 -0.4436
   12SAPS   H7R 1512   5.527   5.268   3.079  0.8948 -0.1082 -1.3089
   12SAPS   H7S 1513   5.441   5.323   3.225 -0.8410  1.1092  0.4701
   12SAPS   C28 1514   5.615   5.446   3.168  0.4942  0.1032  0.1150
   12SAPS   H8R 1515   5.687   5.466   3.088 -0.9872  1.0831 -1.0331
   12SAPS   C29 1516   5.640   5.507   3.283  0.0733 -0.3225  0.1898
   12SAPS   H9R 1517   5.718   5.585   3.289 -0.4966  0.2580  0.1009
   12SAPS  C210 1518   5.554   5.508   3.408 -0.4248  0.2371 -0.2479
   12SAPS  H10R 1519   5.457   5.461   3.380 -1.6790  1.8768  1.1151
   12SAPS  H10S 1520   5.521   5.609   3.440 -0.4594 -0.9595  4.1715
   12SAPS  C211 1521   5.614   5.435   3.529  0.8156 -0.0540 -0.1413
   12SAPS  H11R 1522   5.703   5.372   3.511  0.9341 -0.5113  1.7944
   12SAPS  C212 1523   5.583   5.448   3.660  0.2372  0.0038 -0.4709
   12SAPS  H12R 1524   5.632   5.388   3.738 -0.4997 -2.8884 -2.0666
   12SAPS  C213 1525   5.476   5.541   3.715 -0.2898  0.0120 -0.4710
   12SAPS  H13R 1526   5.398   5.572   3.642 -0.3141 -0.5744 -0.6973
   12SAPS  H13S 1527   5.521   5.635   3.753 -0.6196  0.4851 -1.2347
   12SAPS  C214 1528   5.401   5.466   3.828  0.1831  0.3925 -0.3216
   12SAPS  H14R 1529   5.348   5.373   3.803 -1.6885  1.5498 -0.8404
   12SAPS  C215 1530   5.397   5.506   3.950  0.8337 -0.3527  0.7617
   12SAPS  H15R 1531   5.346   5.436   4.017  1.0224 -0.2934  0.9662
   12SAPS  C216 1532   5.449   5.637   4.015  0.0192 -0.2682 -0.6527
   12SAPS  H16R 1533   5.367   5.705   4.046 -0.9068 -2.1363  1.2867
   12SAPS  H16S 1534   5.513   5.701   3.952  2.5122 -1.1171  0.8531
   12SAPS  C217 1535   5.534   5.602   4.146  0.4330 -0.3069 -0.1792
   12SAPS  H17R 1536   5.465   5.551   4.216  0.1654 -1.7773 -1.4530
   12SAPS  H17S 1537   5.582   5.694   4.186 -0.5077  0.4735 -0.7923
   12SAPS  C218 1538   5.649   5.501   4.119  0.2722  0.1574  0.3291
   12SAPS  H18R 1539   5.593   5.410   4.088 -1.1272  1.0886  0.0572
   12SAPS  H18S 1540   5.696   5.475   4.216 -1.1134  1.6094  1.4293
   12SAPS  C219 1541   5.754   5.554   4.037  0.3778  0.2570 -0.2196
   12SAPS  H19R 1542   5.722   5.595   3.939  3.1698 -1.6192 -2.0825
   12SAPS  H19S 1543   5.834   5.477   4.023  0.9240  0.5695  1.0677
   12SAPS  C220 1544   5.830   5.665   4.114  0.2791  0.3112 -0.2988
   12SAPS  H20R 1545   5.936   5.671   4.081  0.2433  0.5653 -0.3628
   12SAPS  H20S 1546   5.818   5.637   4.221  0.2131 -0.0663 -0.4011
   12SAPS  H20T 1547   5.770   5.758   4.105 -1.6603 -0.8194  0.2635
   12SAPS   C33 1548   5.224   5.932   2.934 -0.1011 -0.9042 -0.3573
   12SAPS   H3X 1549   5.130   5.984   2.906  0.5257  0.7465  0.5116
   12SAPS   H3Y 1550   5.305   6.005   2.915 -0.3521 -0.2358  0.9824
   12SAPS   C34 1551   5.229   5.893   3.083 -0.1163 -0.4876 -0.0109
   12SAPS   H4X 1552   5.158   5.809   3.103  1.2737 -1.6877  0.0215
   12SAPS   H4Y 1553   5.181   5.973   3.143  0.4851  0.5863 -0.9097
   12SAPS   C35 1554   5.364   5.845   3.132 -0.5324 -0.1491  0.3539
   12SAPS   H5X 1555   5.446   5.912   3.099 -1.0800  1.4465  2.0984
   12SAPS   H5Y 1556   5.390   5.750   3.081 -1.2620  0.5873 -1.5003
   12SAPS   C36 1557   5.382   5.816   3.283 -0.1647  0.1452 -0.1492
   12SAPS   H6X 1558   5.492   5.823   3.292  0.0702 -1.2573 -1.5200
   12SAPS   H6Y 1559   5.350   5.711   3.298 -0.5275  0.3090  0.2463
   12SAPS   C37 1560   5.303   5.918   3.366  0.0730 -0.4591  0.2307
   12SAPS   H7X 1561   5.192   5.917   3.362 -0.0285  0.4705  1.9662
   12SAPS   H7Y 1562   5.344   6.016   3.335  0.7206 -1.1638 -1.2220
   12SAPS   C38 1563   5.340   5.901   3.512 -0.6352 -0.1962 -0.1459
   12SAPS   H8X 1564   5.449   5.920   3.521 -0.1771 -1.9318 -1.5998
   12SAPS   H8Y 1565   5.319   5.794   3.534 -0.7429 -0.2523 -0.5186
   12SAPS   C39 1566   5.264   5.985   3.615 -0.3158 -0.4142  0.2045
   12SAPS   H9X 1567   5.160   5.955   3.591 -0.2050  1.7792 -3.9939
   12SAPS   H9Y 1568   5.278   6.093   3.591  2.1792 -0.9579 -1.2081
   12SAPS  C310 1569   5.314   5.967   3.758  0.4728 -0.5749  0.3453
   12SAPS  H10X 1570   5.420   6.000   3.759  0.4986 -0.6463  1.4117
   12SAPS  H10Y 1571   5.299   5.860   3.782 -0.2229 -0.9546 -1.6273
   12SAPS  C311 1572   5.240   6.063   3.856 -0.2899 -0.6526 -0.3516
   12SAPS  H11X 1573   5.136   6.024   3.861 -0.3506 -0.6245 -1.3132
   12SAPS  H11Y 1574   5.235   6.165   3.811  2.0793 -0.3840 -0.1409
   12SAPS  C312 1575   5.301   6.065   3.996  0.6458 -0.0338 -0.7423
   12SAPS  H12X 1576   5.322   5.960   4.025 -3.0652 -0.1612  2.3227
   12SAPS  H12Y 1577   5.215   6.100   4.058  1.5007  3.4392 -1.2961
   12SAPS  C313 1578   5.413   6.169   4.009 -0.3681 -0.2030  0.3674
   12SAPS  H13X 1579   5.400   6.247   3.931  0.4640  0.6632  1.0785
   12SAPS  H13Y 1580   5.511   6.124   3.980 -0.2308  0.2717  0.0865
   12SAPS  C314 1581   5.425   6.234   4.146  0.3887 -0.0917 -0.2169
   12SAPS  H14X 1582   5.449   6.155   4.220 -2.7115 -0.7239  0.2146
   12SAPS  H14Y 1583   5.331   6.288   4.169  0.8320  1.7782 -2.4558
   12SAPS  C315 1584   5.537   6.334   4.157  0.0789 -0.2461 -0.0773
   12SAPS  H15X 1585   5.520   6.406   4.074  0.6560  0.4950  0.4222
   12SAPS  H15Y 1586   5.632   6.276   4.153 -0.5945 -1.3230 -0.9992
   12SAPS  C316 1587   5.527   6.431   4.277  0.2849  0.2303  0.5658
   12SAPS  H16X 1588   5.552   6.372   4.367  3.9212 -0.2261 -0.5689
   12SAPS  H16Y 1589   5.420   6.462   4.277  0.2791  0.3413 -1.3877
   12SAPS  C317 1590   5.616   6.554   4.280  0.5611 -0.0074  0.0957
   12SAPS  H17X 1591   5.601   6.607   4.184  1.3223 -1.0114 -0.5923
   12SAPS  H17Y 1592   5.722   6.524   4.288  1.9325  4.1238 -0.3501
   12SAPS  C318 1593   5.584   6.646   4.398  0.0851  0.1158 -0.0798
   12SAPS  H18X 1594   5.476   6.671   4.395  0.0694 -0.0581 -1.1853
   12SAPS  H18Y 1595   5.657   6.730   4.400  2.0489 -1.5225  0.6526
   12SAPS  H18Z 1596   5.607   6.586   4.489 -0.8378 -1.6761 -0.9985
   13SAPS     N 1597   6.698   6.324   1.864  0.7447  0.1937 -0.0802
   13SAPS   HN1 1598   6.720   6.250   1.933 -1.0229 -0.7282 -0.4459
   13SAPS   HN2 1599   6.788   6.376   1.872  1.3785 -1.1577  2.8101
   13SAPS   HN3 1600   6.622   6.387   1.899 -0.7583 -0.6051 -1.7378
   13SAPS   C12 1601   6.661   6.261   1.741  0.3359 -0.3270  0.1834
   13SAPS  H12A 1602   6.646   6.338   1.668 -0.9298 -0.3694  0.3877
   13SAPS   C13 1603   6.760   6.157   1.688 -0.4271  0.6136 -0.1679
   13SAPS  O13A 1604   6.848   6.115   1.755  0.1829  0.4458 -0.4836
   13SAPS  O13B 1605   6.723   6.092   1.583  0.4410 -0.1736 -0.4721
   13SAPS   C11 1606   6.516   6.191   1.751 -0.2427 -0.7604 -0.2422
   13SAPS  H11A 1607   6.535   6.093   1.800 -0.5038 -1.1147 -0.8343
   13SAPS  H11B 1608   6.479   6.175   1.647  1.3607  1.9178 -1.3250
   13SAPS     P 1609   6.325   6.362   1.748  0.0376  0.5929  0.5138
   13SAPS   O13 1610   6.407   6.458   1.666  0.4756  0.5468 -0.9297
   13SAPS   O14 1611   6.233   6.261   1.685  0.7088 -0.1220 -0.7100
   13SAPS   O12 1612   6.425   6.274   1.828 -0.0799 -0.0868  0.0858
   13SAPS   O11 1613   6.240   6.447   1.857  0.2846 -0.0912 -0.3616
   13SAPS    C1 1614   6.187   6.389   1.975  0.2716  0.3672 -0.3588
   13SAPS    HA 1615   6.100   6.447   2.015  0.5252  1.3414 -1.1632
   13SAPS    HB 1616   6.163   6.282   1.961  1.3198  0.4522 -3.7277
   13SAPS    C2 1617   6.290   6.398   2.088  0.7905 -0.1159 -0.2839
   13SAPS    HS 1618   6.389   6.357   2.058  0.9128 -1.7931  2.1227
   13SAPS   O21 1619   6.239   6.329   2.204 -0.3663 -0.3465 -0.1099
   13SAPS   C21 1620   6.333   6.271   2.279  0.0280  0.2982  0.2958
   13SAPS   O22 1621   6.453   6.273   2.260  0.1847  0.3249  0.2913
   13SAPS   C22 1622   6.266   6.212   2.403 -0.7886  0.6239 -0.7947
   13SAPS   H2R 1623   6.345   6.209   2.482 -2.9394  1.1019  1.5073
   13SAPS   H2S 1624   6.182   6.273   2.444 -1.7131 -1.3411  0.3873
   13SAPS    C3 1625   6.316   6.549   2.112  0.3118  0.6137 -0.8824
   13SAPS    HX 1626   6.221   6.580   2.160  0.7954  0.0547  0.4789
   13SAPS    HY 1627   6.323   6.617   2.024  0.5376  3.2809  1.0807
   13SAPS   O31 1628   6.420   6.583   2.203 -0.6566  0.0601  0.3684
   13SAPS   C31 1629   6.544   6.580   2.153 -0.2505 -0.6427 -0.1606
   13SAPS   O32 1630   6.575   6.546   2.043  0.0189 -0.1295  0.2495
   13SAPS   C32 1631   6.649   6.629   2.248 -0.4116  0.9318 -0.0908
   13SAPS   H2X 1632   6.642   6.740   2.241 -0.0269  1.0075  0.5424
   13SAPS   H2Y 1633   6.746   6.615   2.195 -0.1144  1.5192  0.2733
   13SAPS   C23 1634   6.221   6.066   2.394 -0.1657 -0.0225  0.8570
   13SAPS   H3R 1635   6.305   5.999   2.369  0.9967  0.9794  1.9588
   13SAPS   H3S 1636   6.133   6.062   2.326  0.5419  0.3811 -0.0984
   13SAPS   C24 1637   6.166   6.015   2.531 -0.3720  0.0272  0.7571
   13SAPS   H4R 1638   6.061   6.047   2.550 -0.3927 -1.1286  3.0174
   13SAPS   H4S 1639   6.222   6.063   2.614  1.1344  1.9983 -1.2810
   13SAPS   C25 1640   6.177   5.864   2.549 -0.4831  0.3769  0.2488
   13SAPS   H5R 1641   6.278   5.821   2.561 -0.4103  0.7245  0.9318
   13SAPS   C26 1642   6.066   5.787   2.530 -0.2910 -0.7223  0.6788
   13SAPS   H6R 1643   6.076   5.683   2.564 -0.0656 -0.5853  1.0333
   13SAPS   C27 1644   5.921   5.839   2.500 -0.2060  0.4017 -0.2071
   13SAPS   H7R 1645   5.923   5.887   2.400  1.5422  0.5846 -0.1038
   13SAPS   H7S 1646   5.888   5.923   2.565  1.2441  1.2210 -0.5079
   13SAPS   C28 1647   5.814   5.725   2.504  0.0887  0.1347 -0.8196
   13SAPS   H8R 1648   5.810   5.649   2.425  1.8382 -0.7919 -0.0619
   13SAPS   C29 1649   5.738   5.691   2.611 -0.6330  0.1635 -0.1921
   13SAPS   H9R 1650   5.659   5.617   2.594  1.0051 -1.9870  1.1217
   13SAPS  C210 1651   5.739   5.768   2.741 -0.5243  0.0832 -0.6817
   13SAPS  H10R 1652   5.705   5.871   2.717  0.1885  0.5493  0.2156
   13SAPS  H10S 1653   5.841   5.800   2.772 -0.5570  0.4007 -0.8977
   13SAPS  C211 1654   5.663   5.706   2.857 -0.8602 -0.0607  0.5091
   13SAPS  H11R 1655   5.600   5.620   2.831 -3.4277  1.2881  1.8860
   13SAPS  C212 1656   5.665   5.741   2.983  0.2298  0.0042 -0.7449
   13SAPS  H12R 1657   5.617   5.680   3.061  1.0951  0.5534  0.2481
   13SAPS  C213 1658   5.755   5.852   3.039  0.1627  0.3054 -0.0027
   13SAPS  H13R 1659   5.698   5.906   3.118 -2.5378  0.3032 -1.8057
   13SAPS  H13S 1660   5.768   5.933   2.964  3.3145 -1.2179 -1.2663
   13SAPS  C214 1661   5.896   5.813   3.084 -0.0881  0.4178 -0.6182
   13SAPS  H14R 1662   5.952   5.759   3.006 -3.4123 -0.6334 -2.4824
   13SAPS  C215 1663   5.958   5.838   3.202 -0.2852  0.6582 -0.1503
   13SAPS  H15R 1664   6.056   5.792   3.219 -0.6321  0.0407  0.2279
   13SAPS  C216 1665   5.921   5.929   3.323  0.9716  0.2454  0.2795
   13SAPS  H16R 1666   5.841   5.996   3.284  0.2240 -0.7010  0.1575
   13SAPS  H16S 1667   6.000   5.998   3.360  2.8487 -1.8598  0.3732
   13SAPS  C217 1668   5.869   5.845   3.441  0.5481 -0.0590 -0.6408
   13SAPS  H17R 1669   5.939   5.762   3.462 -2.1601 -2.6199 -1.0688
   13SAPS  H17S 1670   5.771   5.801   3.411 -0.0962  2.4069 -2.5877
   13SAPS  C218 1671   5.842   5.923   3.567  0.4276 -0.4679  0.3037
   13SAPS  H18R 1672   5.789   6.018   3.547 -1.2986 -0.6738  3.2497
   13SAPS  H18S 1673   5.938   5.938   3.620 -0.3284  1.1669  1.2836
   13SAPS  C219 1674   5.753   5.846   3.660 -0.0094 -0.8419 -0.4049
   13SAPS  H19R 1675   5.795   5.744   3.674  0.6416 -0.7771 -1.6823
   13SAPS  H19S 1676   5.655   5.838   3.607  0.4982 -2.5221 -1.1711
   13SAPS  C220 1677   5.734   5.922   3.794 -0.0059 -0.1144  0.2318
   13SAPS  H20R 1678   5.649   5.873   3.846  0.3410 -1.1269 -0.1358
   13SAPS  H20S 1679   5.716   6.031   3.781 -1.0419 -0.4881 -2.0040
   13SAPS  H20T 1680   5.835   5.907   3.837 -0.3242 -0.2320  0.9583
   13SAPS   C33 1681   6.648   6.587   2.391 -0.5121  0.5093  1.0899
   13SAPS   H3X 1682   6.546   6.604   2.433 -1.3404 -1.0003 -0.2146
   13SAPS   H3Y 1683   6.715   6.640   2.463 -0.1348  2.2829 -0.4651
   13SAPS   C34 1684   6.706   6.441   2.408  0.5684 -0.5620  0.0518
   13SAPS   H4X 1685   6.797   6.437   2.345 -0.8815  1.7107 -2.3890
   13SAPS   H4Y 1686   6.637   6.359   2.379  1.0032 -1.9115  2.5805
   13SAPS   C35 1687   6.735   6.409   2.557 -0.2203  0.5989 -0.3126
   13SAPS   H5X 1688   6.809   6.480   2.600  1.1144 -0.8910 -0.0380
   13SAPS   H5Y 1689   6.775   6.305   2.556 -1.5200  0.0785  0.1907
   13SAPS   C36 1690   6.614   6.400   2.646  0.3688  0.8223 -0.6359
   13SAPS   H6X 1691   6.528   6.358   2.589 -0.2229 -2.2515  2.2506
   13SAPS   H6Y 1692   6.591   6.501   2.685 -0.1752  0.7350 -0.7189
   13SAPS   C37 1693   6.634   6.306   2.767 -0.2927 -0.7169  0.1917
   13SAPS   H7X 1694   6.723   6.341   2.823 -0.1717  1.1353 -1.0634
   13SAPS   H7Y 1695   6.671   6.206   2.738  1.3905 -0.5991  1.7645
   13SAPS   C38 1696   6.520   6.304   2.864 -0.0961 -0.5496  0.4561
   13SAPS   H8X 1697   6.468   6.207   2.850 -0.1595 -0.5867  0.9448
   13SAPS   H8Y 1698   6.444   6.381   2.841 -2.2691 -2.5311  0.6187
   13SAPS   C39 1699   6.564   6.320   3.007  0.2261 -0.6805 -0.3001
   13SAPS   H9X 1700   6.483   6.365   3.069 -2.1501 -0.7935 -3.0869
   13SAPS   H9Y 1701   6.648   6.391   3.008 -1.7604  1.7998 -0.0006
   13SAPS  C310 1702   6.601   6.193   3.076  0.9007  0.1105  0.4029
   13SAPS  H10X 1703   6.682   6.163   3.007 -0.7267  1.4953 -2.3081
   13SAPS  H10Y 1704   6.519   6.118   3.074 -0.4566  1.5057  0.9934
   13SAPS  C311 1705   6.665   6.213   3.214 -0.7497  0.3068 -0.0423
   13SAPS  H11X 1706   6.734   6.299   3.205  1.5620 -1.3558  0.8002
   13SAPS  H11Y 1707   6.720   6.119   3.236 -1.9746 -0.0647  1.6063
   13SAPS  C312 1708   6.572   6.218   3.335  0.3917 -0.0054 -0.1957
   13SAPS  H12X 1709   6.505   6.130   3.348 -1.1839  1.3188  1.0566
   13SAPS  H12Y 1710   6.510   6.306   3.309  1.0963  0.3615 -0.6527
   13SAPS  C313 1711   6.638   6.249   3.467  0.0489  0.5311 -0.8778
   13SAPS  H13X 1712   6.687   6.349   3.466  1.0856  0.0939  1.1501
   13SAPS  H13Y 1713   6.705   6.165   3.493 -0.9651  0.3061  1.2288
   13SAPS  C314 1714   6.535   6.250   3.588 -0.1173 -0.2755  0.4332
   13SAPS  H14X 1715   6.586   6.218   3.681  0.4741 -0.4342  0.0614
   13SAPS  H14Y 1716   6.470   6.166   3.556 -0.4293  0.3982 -0.7588
   13SAPS  C315 1717   6.469   6.395   3.601 -0.2455  0.2664  0.2266
   13SAPS  H15X 1718   6.446   6.419   3.495  0.5396 -0.4992 -0.1251
   13SAPS  H15Y 1719   6.542   6.472   3.634  0.6839 -1.1192  1.5174
   13SAPS  C316 1720   6.338   6.400   3.680  0.6806 -0.3751 -0.7139
   13SAPS  H16X 1721   6.344   6.341   3.773 -0.4117  2.3659  1.2423
   13SAPS  H16Y 1722   6.259   6.354   3.616  1.3352  0.7757 -2.4486
   13SAPS  C317 1723   6.285   6.536   3.714  0.4618 -0.8692 -0.4024
   13SAPS  H17X 1724   6.262   6.581   3.615 -0.0661 -0.9348 -0.3126
   13SAPS  H17Y 1725   6.357   6.600   3.770  0.4541 -0.4017 -0.9133
   13SAPS  C318 1726   6.151   6.522   3.782 -0.3252 -0.2755 -0.2772
   13SAPS  H18X 1727   6.162   6.488   3.887 -0.8908 -0.9024 -0.4124
   13SAPS  H18Y 1728   6.091   6.444   3.730  2.0451 -1.6398 -1.1193
   13SAPS  H18Z 1729   6.097   6.619   3.787 -3.4658 -1.8854  0.0916
   14SAPS     N 1730   3.344   0.524   1.966 -0.0393  0.0083  0.1891
   14SAPS   HN1 1731   3.368   0.516   2.067  3.7712  0.3454 -0.5511
   14SAPS   HN2 1732   3.426   0.572   1.923  1.2307 -2.2838 -0.1029
   14SAPS   HN3 1733   3.253   0.573   1.956  1.1034  2.5112  1.1480
   14SAPS   C12 1734   3.326   0.387   1.925  0.4252  0.0311  0.0363
   14SAPS  H12A 1735   3.290   0.384   1.823  1.2303  1.1474 -0.2919
   14SAPS   C13 1736   3.447   0.292   1.907 -0.5959  0.0912  0.4764
   14SAPS  O13A 1737   3.558   0.335   1.948  0.1420  0.1192  0.2174
   14SAPS  O13B 1738   3.433   0.176   1.863 -0.0699 -0.2966  0.9134
   14SAPS   C11 1739   3.232   0.301   2.021  0.7068 -0.3827 -0.3885
   14SAPS  H11A 1740   3.296   0.277   2.108  2.2600 -1.1280 -1.6957
   14SAPS  H11B 1741   3.199   0.199   1.992 -0.1695 -1.4980  3.9413
   14SAPS     P 1742   3.055   0.387   2.198  0.5926  0.4412  0.2516
   14SAPS   O13 1743   2.983   0.513   2.220  0.5348 -0.4293  0.8291
   14SAPS   O14 1744   2.983   0.253   2.211 -0.6278 -0.3865  0.4734
   14SAPS   O12 1745   3.116   0.378   2.056  0.3213 -0.4493 -0.1133
   14SAPS   O11 1746   3.187   0.384   2.284 -0.0536 -0.5159 -0.0065
   14SAPS    C1 1747   3.205   0.451   2.409 -0.0496 -0.2691 -0.3522
   14SAPS    HA 1748   3.310   0.477   2.430 -0.7757  0.6752  2.4715
   14SAPS    HB 1749   3.164   0.554   2.407  1.2087  0.3760  2.4662
   14SAPS    C2 1750   3.159   0.372   2.529  0.3361 -0.0579 -0.8236
   14SAPS    HS 1751   3.230   0.287   2.531  1.5599  0.9333 -0.5912
   14SAPS   O21 1752   3.023   0.348   2.515 -0.2151  0.1321 -0.2417
   14SAPS   C21 1753   2.981   0.234   2.565  0.6283  0.3197  0.6344
   14SAPS   O22 1754   3.053   0.144   2.606  1.1933  0.5525  0.5198
   14SAPS   C22 1755   2.824   0.233   2.567  0.3155  0.5289  0.1057
   14SAPS   H2R 1756   2.791   0.252   2.463  1.0753 -0.9196 -0.4223
   14SAPS   H2S 1757   2.798   0.128   2.590 -1.9764  1.1211  0.4878
   14SAPS    C3 1758   3.183   0.465   2.659 -0.4077 -0.2054 -0.3506
   14SAPS    HX 1759   3.115   0.552   2.647 -0.0148  0.3249  1.0246
   14SAPS    HY 1760   3.287   0.503   2.666  0.1421 -1.5872 -0.7203
   14SAPS   O31 1761   3.153   0.393   2.776  0.1090  0.2810  0.3737
   14SAPS   C31 1762   3.241   0.315   2.818  1.1831  0.3992 -0.3027
   14SAPS   O32 1763   3.353   0.287   2.779  0.3029 -0.4764  0.2753
   14SAPS   C32 1764   3.180   0.252   2.940 -0.1569 -0.0562  0.5805
   14SAPS   H2X 1765   3.104   0.176   2.914  1.5432 -2.8724  3.2041
   14SAPS   H2Y 1766   3.132   0.331   3.001 -0.2164 -0.1608  0.6697
   14SAPS   C23 1767   2.745   0.321   2.667 -0.4421  0.1353 -0.1941
   14SAPS   H3R 1768   2.652   0.352   2.614 -2.7889 -3.2862  1.5046
   14SAPS   H3S 1769   2.803   0.410   2.700  1.2007 -0.5094 -1.2661
   14SAPS   C24 1770   2.696   0.244   2.794 -0.2127  0.0484  0.3289
   14SAPS   H4R 1771   2.660   0.149   2.750  3.8204 -1.5034 -0.0047
   14SAPS   H4S 1772   2.610   0.303   2.834 -0.6000  1.3063 -2.1967
   14SAPS   C25 1773   2.810   0.214   2.889 -0.5195 -0.2897 -0.1238
   14SAPS   H5R 1774   2.908   0.187   2.847  1.1169  0.7673  2.7942
   14SAPS   C26 1775   2.800   0.223   3.021  0.1615  0.3921  0.3403
   14SAPS   H6R 1776   2.886   0.190   3.081  1.8228 -0.4305 -2.3498
   14SAPS   C27 1777   2.673   0.258   3.097 -0.0480 -0.3142  0.5511
   14SAPS   H7R 1778   2.589   0.192   3.068 -1.3869  1.3890  0.3622
   14SAPS   H7S 1779   2.647   0.362   3.067 -2.9407 -0.7632  1.2365
   14SAPS   C28 1780   2.704   0.241   3.240 -0.0791  0.2863 -0.6133
   14SAPS   H8R 1781   2.777   0.163   3.265 -0.6214  0.3779  1.4346
   14SAPS   C29 1782   2.638   0.314   3.331 -0.3543  0.5260  0.3778
   14SAPS   H9R 1783   2.649   0.302   3.440 -0.3286  0.8992  0.4188
   14SAPS  C210 1784   2.536   0.420   3.306 -0.0777  0.6669 -0.1809
   14SAPS  H10R 1785   2.458   0.381   3.237 -1.1950  2.2029  0.1429
   14SAPS  H10S 1786   2.588   0.511   3.269 -0.2133 -0.1312 -2.5264
   14SAPS  C211 1787   2.453   0.446   3.422  0.0582 -1.0485 -0.2650
   14SAPS  H11R 1788   2.401   0.357   3.463  0.0188 -1.1094 -0.4475
   14SAPS  C212 1789   2.471   0.552   3.505 -0.0746 -0.3807 -0.2137
   14SAPS  H12R 1790   2.405   0.562   3.593  1.0711  0.1357  0.6108
   14SAPS  C213 1791   2.550   0.682   3.479  0.7416  0.5001 -0.3924
   14SAPS  H13R 1792   2.615   0.668   3.390  2.8034  1.0638  0.9819
   14SAPS  H13S 1793   2.601   0.721   3.569  0.2387 -0.2866  0.2427
   14SAPS  C214 1794   2.462   0.796   3.434  0.0401  0.0830 -0.4815
   14SAPS  H14R 1795   2.397   0.840   3.511 -0.0364  1.9257 -1.5229
   14SAPS  C215 1796   2.459   0.841   3.310 -0.9850 -0.5322 -0.1539
   14SAPS  H15R 1797   2.403   0.933   3.288 -0.3338 -0.5539 -2.1796
   14SAPS  C216 1798   2.535   0.814   3.182  0.3006  0.2451 -0.3649
   14SAPS  H16R 1799   2.584   0.716   3.200 -1.2278  0.0555  3.8180
   14SAPS  H16S 1800   2.617   0.887   3.167  1.3666 -0.7996  0.2472
   14SAPS  C217 1801   2.448   0.795   3.047 -0.3995  0.0653 -0.3438
   14SAPS  H17R 1802   2.397   0.893   3.029  1.3347  0.9492 -0.6420
   14SAPS  H17S 1803   2.375   0.714   3.068 -0.4776 -0.0561 -1.0388
   14SAPS  C218 1804   2.537   0.740   2.933 -0.3346  0.1675 -0.3461
   14SAPS  H18R 1805   2.568   0.634   2.937  1.2820  0.6351  0.2929
   14SAPS  H18S 1806   2.630   0.800   2.928 -0.8979  1.0659 -0.3157
   14SAPS  C219 1807   2.456   0.746   2.802  0.2179 -0.0255 -0.1202
   14SAPS  H19R 1808   2.432   0.851   2.775 -0.3462 -0.0048  0.4303
   14SAPS  H19S 1809   2.360   0.690   2.811  0.9770 -1.3117  0.2313
   14SAPS  C220 1810   2.536   0.681   2.692  0.5523 -0.7800  1.0476
   14SAPS  H20R 1811   2.467   0.653   2.609  1.4431 -1.6114  0.5689
   14SAPS  H20S 1812   2.603   0.594   2.713  0.7273 -0.7105  0.7909
   14SAPS  H20T 1813   2.600   0.759   2.645 -0.6915  0.4130  1.3040
   14SAPS   C33 1814   3.288   0.175   3.020  1.2277 -0.2812  0.3096
   14SAPS   H3X 1815   3.379   0.239   3.027  2.2839 -1.2929 -2.5474
   14SAPS   H3Y 1816   3.317   0.090   2.954 -1.3313 -0.4354 -0.6996
   14SAPS   C34 1817   3.227   0.108   3.152  0.4977  0.6081  0.7134
   14SAPS   H4X 1818   3.314   0.042   3.172  3.6807  3.8989 -1.0076
   14SAPS   H4Y 1819   3.130   0.057   3.131  0.5602  0.9953 -0.6536
   14SAPS   C35 1820   3.220   0.203   3.266  0.7278  0.0968 -0.1553
   14SAPS   H5X 1821   3.210   0.306   3.227 -0.8075  0.4852  1.1354
   14SAPS   H5Y 1822   3.321   0.228   3.304 -0.6934  5.3218  0.9576
   14SAPS   C36 1823   3.109   0.174   3.372  0.8593 -0.0240  0.1382
   14SAPS   H6X 1824   3.020   0.139   3.314  2.6260 -2.1680 -1.4423
   14SAPS   H6Y 1825   3.080   0.269   3.423  0.6409  0.0723 -0.1616
   14SAPS   C37 1826   3.155   0.058   3.456  0.4235  0.4838  0.6278
   14SAPS   H7X 1827   3.247   0.083   3.513  1.8570 -1.7694 -0.5790
   14SAPS   H7Y 1828   3.181  -0.025   3.387 -0.2020  0.4705  0.3986
   14SAPS   C38 1829   3.044   0.004   3.555  1.1114 -0.2323 -0.0110
   14SAPS   H8X 1830   2.966  -0.045   3.494  1.0201 -0.1666  0.0535
   14SAPS   H8Y 1831   2.992   0.088   3.607  0.6785 -0.4498 -0.0955
   14SAPS   C39 1832   3.105  -0.100   3.655  0.1071 -0.2042  0.7743
   14SAPS   H9X 1833   3.175  -0.043   3.719  1.2814 -1.2242  0.4375
   14SAPS   H9Y 1834   3.161  -0.170   3.590 -0.9787 -0.2134 -0.1868
   14SAPS  C310 1835   3.011  -0.182   3.743 -0.4745 -0.6778 -0.4479
   14SAPS  H10X 1836   2.941  -0.238   3.677 -0.1385 -0.9457 -0.5767
   14SAPS  H10Y 1837   2.945  -0.116   3.804 -0.6158  0.2531 -1.5765
   14SAPS  C311 1838   3.089  -0.274   3.841  0.3900 -0.0704  0.9735
   14SAPS  H11X 1839   3.165  -0.206   3.884  1.1682 -0.4366  0.2159
   14SAPS  H11Y 1840   3.142  -0.348   3.777 -2.4275 -1.2633 -0.1395
   14SAPS  C312 1841   2.993  -0.347   3.937  0.1759 -0.4093  0.1348
   14SAPS  H12X 1842   3.065  -0.408   3.995  1.8534  1.9970  0.6966
   14SAPS  H12Y 1843   2.919  -0.417   3.890 -2.6206  1.5854  1.2778
   14SAPS  C313 1844   2.907  -0.258   4.028  0.1642 -0.3163  0.0280
   14SAPS  H13X 1845   2.822  -0.207   3.977 -0.0574  0.6847  1.3362
   14SAPS  H13Y 1846   2.970  -0.176   4.069 -0.7920  0.9171 -0.8650
   14SAPS  C314 1847   2.847  -0.346   4.146  0.6190  0.3170 -0.4265
   14SAPS  H14X 1848   2.916  -0.430   4.172  0.8635  0.7408  0.3300
   14SAPS  H14Y 1849   2.756  -0.402   4.115  0.3034  0.0992  0.8320
   14SAPS  C315 1850   2.793  -0.272   4.271  0.0392 -0.2766  0.1906
   14SAPS  H15X 1851   2.721  -0.344   4.317  2.7196 -2.0109  1.9260
   14SAPS  H15Y 1852   2.743  -0.176   4.246  2.1224  0.1666 -2.7382
   14SAPS  C316 1853   2.909  -0.262   4.372 -0.2587 -0.8347 -0.5128
   14SAPS  H16X 1854   2.976  -0.174   4.367  0.0082 -0.9371  0.8977
   14SAPS  H16Y 1855   2.970  -0.354   4.355  0.0675 -0.4573 -1.4521
   14SAPS  C317 1856   2.846  -0.269   4.512 -0.2313 -1.0175 -0.4296
   14SAPS  H17X 1857   2.796  -0.368   4.519  1.7252 -1.8977  2.3812
   14SAPS  H17Y 1858   2.764  -0.194   4.518  1.0792  0.3857  0.5285
   14SAPS  C318 1859   2.937  -0.248   4.630  0.2307 -0.0157 -0.9204
   14SAPS  H18X 1860   2.881  -0.284   4.719  2.4181  0.0601  0.5514
   14SAPS  H18Y 1861   2.960  -0.140   4.636 -1.3063  0.3357 -0.8394
   14SAPS  H18Z 1862   3.027  -0.312   4.625 -0.2942 -0.8284 -0.2261
   15SAPS     N 1863   1.307   0.679   1.703  0.0454  0.1708 -0.3628
   15SAPS   HN1 1864   1.337   0.592   1.655  0.8389  0.6440 -0.7555
   15SAPS   HN2 1865   1.244   0.661   1.784  0.3483  0.3407 -0.0855
   15SAPS   HN3 1866   1.246   0.731   1.636 -1.4349  1.8999  2.1546
   15SAPS   C12 1867   1.421   0.759   1.751 -0.2303  0.1658 -0.0332
   15SAPS  H12A 1868   1.458   0.726   1.847  0.3891 -0.4106 -0.4648
   15SAPS   C13 1869   1.541   0.749   1.663 -0.6547  0.6840  0.3610
   15SAPS  O13A 1870   1.547   0.669   1.563  0.0753 -0.4633 -0.3707
   15SAPS  O13B 1871   1.648   0.800   1.711 -0.2252  0.5291  0.1781
   15SAPS   C11 1872   1.385   0.915   1.752  0.7059 -0.3041 -0.4880
   15SAPS  H11A 1873   1.343   0.941   1.652 -0.8689  0.3380  0.3088
   15SAPS  H11B 1874   1.482   0.967   1.766  1.0791 -0.7866 -1.2137
   15SAPS     P 1875   1.291   1.090   1.929 -0.2700  0.0895  0.2090
   15SAPS   O13 1876   1.383   1.184   1.857  0.1056  0.2757  0.1713
   15SAPS   O14 1877   1.158   1.151   1.952 -0.3609 -0.2108  0.0101
   15SAPS   O12 1878   1.285   0.951   1.851  0.3534 -0.2144 -0.4107
   15SAPS   O11 1879   1.351   1.062   2.067  0.2423  0.2062 -0.3183
   15SAPS    C1 1880   1.299   0.947   2.137 -0.3504 -0.0378  0.9444
   15SAPS    HA 1881   1.191   0.968   2.148 -0.8088 -0.3278 -2.0344
   15SAPS    HB 1882   1.303   0.858   2.071  2.3026  0.1350  0.7304
   15SAPS    C2 1883   1.383   0.906   2.256 -0.0478  0.5197  0.1179
   15SAPS    HS 1884   1.327   0.831   2.317 -1.6030  0.5984 -1.1538
   15SAPS   O21 1885   1.416   1.019   2.342 -0.6421 -0.1028  0.1330
   15SAPS   C21 1886   1.313   1.082   2.388  0.1671  0.3076  0.6650
   15SAPS   O22 1887   1.199   1.051   2.374  0.1944 -0.6402 -0.6002
   15SAPS   C22 1888   1.359   1.219   2.429 -0.7494 -0.0534  0.0655
   15SAPS   H2R 1889   1.431   1.202   2.512  1.1024  0.0256 -1.4628
   15SAPS   H2S 1890   1.395   1.281   2.344 -0.7089  0.6777  0.6133
   15SAPS    C3 1891   1.517   0.832   2.222  0.3345 -0.0215  0.3924
   15SAPS    HX 1892   1.570   0.904   2.156  1.5593 -1.3405 -0.0970
   15SAPS    HY 1893   1.496   0.743   2.159 -0.9046  0.6007 -0.1046
   15SAPS   O31 1894   1.595   0.799   2.338 -0.2358  0.1975 -0.2519
   15SAPS   C31 1895   1.693   0.888   2.371  0.2264  0.5476 -0.4740
   15SAPS   O32 1896   1.738   0.979   2.299  0.4315  0.3759  0.3525
   15SAPS   C32 1897   1.728   0.862   2.519 -0.7117  0.0882 -0.6555
   15SAPS   H2X 1898   1.836   0.848   2.537 -1.1404 -0.4834  2.0125
   15SAPS   H2Y 1899   1.687   0.762   2.545 -0.5624  0.3868  0.8296
   15SAPS   C23 1900   1.232   1.294   2.494  0.2496 -0.1006 -0.6793
   15SAPS   H3R 1901   1.166   1.318   2.407  1.7056 -1.7376 -2.3111
   15SAPS   H3S 1902   1.266   1.395   2.525 -2.4986  0.9993 -0.9357
   15SAPS   C24 1903   1.148   1.227   2.604  0.4827 -0.1271  0.2551
   15SAPS   H4R 1904   1.216   1.192   2.685  2.3342  0.8383 -0.8193
   15SAPS   H4S 1905   1.092   1.137   2.568 -1.3051  0.3279  1.7335
   15SAPS   C25 1906   1.038   1.324   2.640  0.1658  1.4550  0.2900
   15SAPS   H5R 1907   0.962   1.343   2.563 -1.0217 -1.0289  0.7447
   15SAPS   C26 1908   1.010   1.385   2.758 -0.4774  0.5874  0.5065
   15SAPS   H6R 1909   0.941   1.470   2.750 -0.0991  0.7007 -3.6257
   15SAPS   C27 1910   1.079   1.372   2.890 -0.3463  0.2689 -0.1157
   15SAPS   H7R 1911   1.181   1.332   2.871  0.0746  1.7532 -1.2023
   15SAPS   H7S 1912   1.030   1.302   2.960 -0.7389  1.4741  0.8559
   15SAPS   C28 1913   1.062   1.507   2.956 -0.6349 -0.7513 -0.0365
   15SAPS   H8R 1914   1.092   1.595   2.897 -3.1395 -0.3816 -0.8839
   15SAPS   C29 1915   1.032   1.522   3.089  0.7367  0.2268  0.2201
   15SAPS   H9R 1916   1.012   1.623   3.128 -1.0000 -0.2893  0.7716
   15SAPS  C210 1917   0.998   1.415   3.195 -0.5954 -0.0490  0.1553
   15SAPS  H10R 1918   1.018   1.446   3.300  1.4092  2.0057 -0.7521
   15SAPS  H10S 1919   1.059   1.323   3.179 -1.0614 -0.8383  2.5527
   15SAPS  C211 1920   0.859   1.374   3.177 -0.3405  0.1525  0.0327
   15SAPS  H11R 1921   0.827   1.398   3.074  2.0558  1.3294 -0.4981
   15SAPS  C212 1922   0.793   1.300   3.263  0.6527 -0.2474  0.2735
   15SAPS  H12R 1923   0.687   1.278   3.242  0.7092  1.3182 -1.8746
   15SAPS  C213 1924   0.836   1.254   3.396 -0.1799  0.0506 -0.3954
   15SAPS  H13R 1925   0.788   1.319   3.472 -1.2167  0.8647 -1.7128
   15SAPS  H13S 1926   0.944   1.276   3.402 -0.1795  0.4755 -1.6891
   15SAPS  C214 1927   0.804   1.108   3.417 -0.0912  0.2187 -0.8113
   15SAPS  H14R 1928   0.761   1.061   3.327  0.2895 -1.7118 -0.0247
   15SAPS  C215 1929   0.843   1.027   3.516 -0.3322  0.3358  0.4824
   15SAPS  H15R 1930   0.819   0.920   3.516 -1.3041  0.5494  0.6000
   15SAPS  C216 1931   0.934   1.066   3.629 -0.1845 -0.3069 -0.2838
   15SAPS  H16R 1932   0.951   1.176   3.637 -2.8853  0.0388  3.2105
   15SAPS  H16S 1933   1.032   1.016   3.617  0.6973  1.9437 -4.6719
   15SAPS  C217 1934   0.867   1.047   3.771  0.2781  0.3300  0.5215
   15SAPS  H17R 1935   0.856   0.937   3.775  0.1307  0.1343 -2.4446
   15SAPS  H17S 1936   0.769   1.099   3.770 -0.8676 -1.7203 -1.3006
   15SAPS  C218 1937   0.959   1.095   3.888  0.1016  0.1678  0.5180
   15SAPS  H18R 1938   0.904   1.135   3.976  0.8320  0.4752  0.8393
   15SAPS  H18S 1939   1.008   1.188   3.852 -1.0777  1.2452  1.5946
   15SAPS  C219 1940   1.045   0.987   3.955 -0.2102 -0.0890 -0.4075
   15SAPS  H19R 1941   1.103   0.937   3.874  1.3736 -2.0464  1.7756
   15SAPS  H19S 1942   0.981   0.909   4.001  1.1942 -1.7482 -1.1324
   15SAPS  C220 1943   1.138   1.030   4.067 -0.5282  0.9577 -0.0719
   15SAPS  H20R 1944   1.195   0.944   4.109  1.0400  1.2632 -1.4735
   15SAPS  H20S 1945   1.085   1.079   4.151  0.4073  1.1808  0.4004
   15SAPS  H20T 1946   1.209   1.101   4.019  1.6939 -2.1460 -1.7466
   15SAPS   C33 1947   1.663   0.965   2.617  0.1924  0.5842  0.1231
   15SAPS   H3X 1948   1.661   1.060   2.559 -0.4784  0.3058 -0.3256
   15SAPS   H3Y 1949   1.727   0.965   2.707  1.5604 -2.9701 -0.6871
   15SAPS   C34 1950   1.520   0.929   2.648 -0.2242  0.0352 -0.8690
   15SAPS   H4X 1951   1.502   0.835   2.705 -1.9867  1.3165  0.8664
   15SAPS   H4Y 1952   1.467   0.938   2.551 -1.0861  2.6214 -0.2548
   15SAPS   C35 1953   1.467   1.030   2.750  0.2719 -0.5539 -0.8263
   15SAPS   H5X 1954   1.356   1.025   2.746  0.3380 -1.1032 -2.6431
   15SAPS   H5Y 1955   1.514   1.129   2.731  1.6597 -0.8441  0.8118
   15SAPS   C36 1956   1.497   0.986   2.895 -0.1522 -0.6611  0.5010
   15SAPS   H6X 1957   1.606   1.000   2.912 -0.1126 -1.1374  0.6442
   15SAPS   H6Y 1958   1.476   0.878   2.909  1.7384 -0.8465  2.4336
   15SAPS   C37 1959   1.424   1.081   2.993  0.4261  0.3663 -0.1986
   15SAPS   H7X 1960   1.314   1.068   2.978  0.2049  1.5151  0.3631
   15SAPS   H7Y 1961   1.451   1.185   2.967  1.1298  1.1783  3.3061
   15SAPS   C38 1962   1.468   1.055   3.141 -0.6042 -0.0621 -0.0418
   15SAPS   H8X 1963   1.440   0.956   3.183  0.2438 -0.4101 -0.2777
   15SAPS   H8Y 1964   1.415   1.133   3.200  0.5885  1.8700 -1.4223
   15SAPS   C39 1965   1.615   1.087   3.160 -0.7189 -0.3610  0.4997
   15SAPS   H9X 1966   1.644   1.180   3.107 -1.7385 -0.5949 -0.5220
   15SAPS   H9Y 1967   1.665   1.006   3.103 -0.4452  0.2002 -0.0659
   15SAPS  C310 1968   1.653   1.103   3.307  0.2573  0.2096 -0.0139
   15SAPS  H10X 1969   1.581   1.169   3.359  0.0298  0.6716 -0.8905
   15SAPS  H10Y 1970   1.748   1.160   3.310 -2.2041  4.7594  1.3770
   15SAPS  C311 1971   1.646   0.969   3.390 -0.4727 -1.4342  0.2804
   15SAPS  H11X 1972   1.718   0.898   3.345 -0.9364 -2.3990  1.0192
   15SAPS  H11Y 1973   1.545   0.923   3.388 -1.0858 -0.1211 -0.0805
   15SAPS  C312 1974   1.689   0.970   3.538  0.2767 -0.0233 -0.0531
   15SAPS  H12X 1975   1.751   1.060   3.562  0.9484 -0.7398  1.0180
   15SAPS  H12Y 1976   1.766   0.891   3.555  0.2738 -0.0188 -0.0193
   15SAPS  C313 1977   1.567   0.966   3.631  0.4626 -0.0688  0.0864
   15SAPS  H13X 1978   1.486   0.897   3.597 -1.4928  0.8525  2.5744
   15SAPS  H13Y 1979   1.511   1.062   3.624  0.7583  0.1402  0.5966
   15SAPS  C314 1980   1.605   0.941   3.775 -0.2040 -0.0894 -0.3499
   15SAPS  H14X 1981   1.681   1.021   3.789 -1.6811  1.4651 -0.7775
   15SAPS  H14Y 1982   1.649   0.842   3.797  2.8383  1.4709  1.2466
   15SAPS  C315 1983   1.492   0.968   3.881  0.7488  0.1517  0.3599
   15SAPS  H15X 1984   1.396   0.921   3.851 -0.6708  2.1050  1.5982
   15SAPS  H15Y 1985   1.477   1.076   3.900 -1.4509 -0.2961  1.4803
   15SAPS  C316 1986   1.524   0.897   4.015  0.5365 -0.5542 -0.4960
   15SAPS  H16X 1987   1.581   0.803   3.996  2.9074  0.8599 -0.8225
   15SAPS  H16Y 1988   1.425   0.870   4.058  1.2258 -3.8734 -0.6831
   15SAPS  C317 1989   1.596   0.984   4.112  0.8231 -0.3509 -0.6746
   15SAPS  H17X 1990   1.562   0.952   4.213  0.0161  0.0477 -0.8107
   15SAPS  H17Y 1991   1.561   1.088   4.100  0.3909 -0.4768 -0.5245
   15SAPS  C318 1992   1.751   0.989   4.085 -0.2937 -0.2935 -0.6633
   15SAPS  H18X 1993   1.807   1.007   4.180 -1.4042  0.3929 -0.1099
   15SAPS  H18Y 1994   1.767   1.061   4.003 -1.1021  0.1124 -0.4748
   15SAPS  H18Z 1995   1.779   0.888   4.049 -0.6402 -0.0023 -1.7773
   16SAPS     N 1996   3.155   2.175   2.154 -1.0418 -0.2476  0.0504
   16SAPS   HN1 1997   3.140   2.079   2.191  1.0567 -1.3703 -1.7597
   16SAPS   HN2 1998   3.150   2.238   2.237  1.9742  0.2878 -0.0711
   16SAPS   HN3 1999   3.080   2.194   2.085  0.4837 -0.9087 -1.8587
   16SAPS   C12 2000   3.290   2.180   2.095 -0.1779  0.1477  0.3913
   16SAPS  H12A 2001   3.294   2.116   2.007  0.7557 -0.4455  0.8525
   16SAPS   C13 2002   3.333   2.320   2.045 -0.1955  0.2771  0.4534
   16SAPS  O13A 2003   3.273   2.423   2.071  0.3855 -0.4942 -0.0226
   16SAPS  O13B 2004   3.442   2.321   1.982  0.2082  0.0197  0.1808
   16SAPS   C11 2005   3.398   2.138   2.200  0.1926  0.4474  0.2706
   16SAPS  H11A 2006   3.419   2.223   2.268 -0.2164  0.2917  0.5948
   16SAPS  H11B 2007   3.490   2.113   2.142 -0.4249 -1.9258  0.1982
   16SAPS     P 2008   3.448   1.932   2.362 -0.0516  0.6103 -0.2467
   16SAPS   O13 2009   3.416   1.791   2.340 -0.0344 -0.1498 -0.9053
   16SAPS   O14 2010   3.588   1.980   2.339  0.2253  0.6619 -0.0555
   16SAPS   O12 2011   3.361   2.017   2.265  0.4004  0.5871  0.9692
   16SAPS   O11 2012   3.403   1.979   2.512 -0.2280  0.2966 -0.3994
   16SAPS    C1 2013   3.297   2.071   2.523  0.2325 -0.0271  0.4145
   16SAPS    HA 2014   3.329   2.166   2.475  1.0477  0.3468  1.6332
   16SAPS    HB 2015   3.208   2.038   2.467 -2.1064 -0.0186  3.8201
   16SAPS    C2 2016   3.251   2.085   2.667  0.0626 -0.5070  0.3823
   16SAPS    HS 2017   3.322   2.146   2.727 -1.1326  2.0505 -0.6473
   16SAPS   O21 2018   3.233   1.954   2.713  0.3584 -0.4019  0.2830
   16SAPS   C21 2019   3.250   1.940   2.852 -0.4892 -0.4657 -0.1678
   16SAPS   O22 2020   3.297   2.029   2.922 -0.0444  0.0973  0.2096
   16SAPS   C22 2021   3.163   1.822   2.894  0.1011 -0.8065 -0.1599
   16SAPS   H2R 2022   3.080   1.826   2.820 -0.1090  1.0380  0.1088
   16SAPS   H2S 2023   3.222   1.730   2.878  1.3324 -0.4013  1.6741
   16SAPS    C3 2024   3.122   2.176   2.682 -0.1338 -0.2946 -0.0008
   16SAPS    HX 2025   3.059   2.141   2.597  0.2779  1.6607 -1.1844
   16SAPS    HY 2026   3.141   2.283   2.660 -0.0968 -0.5361 -1.2184
   16SAPS   O31 2027   3.061   2.156   2.808 -0.0125 -0.0022 -0.0668
   16SAPS   C31 2028   2.938   2.214   2.815  0.0247 -0.2986 -0.7635
   16SAPS   O32 2029   2.883   2.280   2.731 -0.9289 -0.0497  0.2851
   16SAPS   C32 2030   2.885   2.195   2.957 -0.7044  0.4277 -0.5772
   16SAPS   H2X 2031   2.963   2.136   3.010 -0.7436 -1.1048 -2.1320
   16SAPS   H2Y 2032   2.796   2.132   2.939 -1.0931  1.2839 -1.7786
   16SAPS   C23 2033   3.119   1.827   3.043 -0.4861  0.0770 -0.5163
   16SAPS   H3R 2034   3.033   1.897   3.047 -2.2419 -1.9425 -1.0868
   16SAPS   H3S 2035   3.199   1.861   3.112 -1.3119  2.2650 -0.5438
   16SAPS   C24 2036   3.072   1.684   3.089  0.2296  0.0771  0.2732
   16SAPS   H4R 2037   3.031   1.689   3.192 -0.8252  1.3823 -0.1875
   16SAPS   H4S 2038   3.164   1.622   3.093 -2.0765 -3.5905  0.7910
   16SAPS   C25 2039   2.977   1.609   3.001 -0.1192 -0.6557 -0.8642
   16SAPS   H5R 2040   3.017   1.587   2.901 -0.6963  0.8573 -1.4651
   16SAPS   C26 2041   2.846   1.583   3.021  0.1585 -0.5406 -0.9197
   16SAPS   H6R 2042   2.782   1.527   2.952 -1.9058  1.6706 -0.9346
   16SAPS   C27 2043   2.774   1.616   3.150 -0.4329  0.0508 -0.0662
   16SAPS   H7R 2044   2.840   1.606   3.239  0.2474  0.1067 -0.5541
   16SAPS   H7S 2045   2.695   1.539   3.165 -2.5084  2.2538  0.9422
   16SAPS   C28 2046   2.708   1.756   3.145  0.3612  0.1178 -0.3686
   16SAPS   H8R 2047   2.736   1.815   3.056  0.8457  0.4952  0.0289
   16SAPS   C29 2048   2.609   1.797   3.218 -0.0812  0.9191 -0.2543
   16SAPS   H9R 2049   2.567   1.894   3.189  0.8964  0.9229 -1.7546
   16SAPS  C210 2050   2.549   1.725   3.338  0.8997 -0.2472 -0.1490
   16SAPS  H10R 2051   2.534   1.804   3.415  0.1035 -0.0485 -0.5088
   16SAPS  H10S 2052   2.625   1.653   3.375 -0.2592 -0.5270  1.8460
   16SAPS  C211 2053   2.420   1.661   3.286  0.6093  0.0663  0.1497
   16SAPS  H11R 2054   2.415   1.627   3.182 -4.7843 -1.3204  0.5621
   16SAPS  C212 2055   2.299   1.655   3.346 -0.1644  0.2392  0.2967
   16SAPS  H12R 2056   2.219   1.602   3.293 -1.5178  0.8625  1.6313
   16SAPS  C213 2057   2.272   1.708   3.481  0.4928 -0.0396 -0.2582
   16SAPS  H13R 2058   2.351   1.774   3.524 -0.4108  1.8202 -1.3050
   16SAPS  H13S 2059   2.251   1.618   3.541 -2.4826  0.4895 -0.3574
   16SAPS  C214 2060   2.138   1.782   3.472 -0.6518 -0.4106  0.1791
   16SAPS  H14R 2061   2.153   1.889   3.452  1.2362 -0.8561 -0.9982
   16SAPS  C215 2062   2.017   1.734   3.488  0.3742  0.1363  0.0873
   16SAPS  H15R 2063   1.934   1.805   3.475 -0.8274 -1.4161 -1.0500
   16SAPS  C216 2064   1.979   1.590   3.517  0.6747 -0.0425  0.0227
   16SAPS  H16R 2065   2.060   1.522   3.484 -0.3129 -1.4730  0.4350
   16SAPS  H16S 2066   1.892   1.559   3.456  1.2947  0.8600 -1.3808
   16SAPS  C217 2067   1.956   1.564   3.669  0.0100  0.1505  0.5974
   16SAPS  H17R 2068   1.912   1.658   3.707 -1.6216  0.5630 -2.0768
   16SAPS  H17S 2069   2.057   1.543   3.710  0.2369 -0.1160 -0.0973
   16SAPS  C218 2070   1.855   1.457   3.697  0.3054  0.0879 -0.2351
   16SAPS  H18R 2071   1.891   1.359   3.658  0.9209  0.6621 -1.1644
   16SAPS  H18S 2072   1.756   1.478   3.652 -1.1934  0.5296  3.0530
   16SAPS  C219 2073   1.824   1.441   3.844 -0.7981  0.1003  0.2602
   16SAPS  H19R 2074   1.812   1.538   3.897  0.3573 -1.1536  2.9977
   16SAPS  H19S 2075   1.911   1.389   3.891 -0.4834  0.5369  0.1663
   16SAPS  C220 2076   1.686   1.364   3.872  0.7661 -0.1650 -0.9862
   16SAPS  H20R 2077   1.688   1.296   3.960 -0.6088 -0.2846 -1.0341
   16SAPS  H20S 2078   1.682   1.298   3.782  0.1229 -2.3432  0.5512
   16SAPS  H20T 2079   1.607   1.441   3.869  1.8797  1.0733  0.0575
   16SAPS   C33 2080   2.831   2.317   3.039  0.4964  0.6796  0.5910
   16SAPS   H3X 2081   2.816   2.400   2.967 -1.2850  0.9103  1.1728
   16SAPS   H3Y 2082   2.915   2.354   3.102 -0.4636  0.5670  1.9965
   16SAPS   C34 2083   2.700   2.293   3.123 -0.3725 -0.6471 -0.1047
   16SAPS   H4X 2084   2.627   2.235   3.063  1.2441 -1.3862 -1.4701
   16SAPS   H4Y 2085   2.656   2.388   3.160  0.2145 -0.8616  1.2005
   16SAPS   C35 2086   2.733   2.211   3.250  0.8848  0.0466  0.4830
   16SAPS   H5X 2087   2.805   2.264   3.316  0.7081  2.4520 -1.0990
   16SAPS   H5Y 2088   2.770   2.110   3.222 -0.1067 -0.5652  1.3157
   16SAPS   C36 2089   2.604   2.187   3.332 -0.2721  0.8123 -0.2495
   16SAPS   H6X 2090   2.535   2.132   3.265  0.9536 -0.1275 -0.7739
   16SAPS   H6Y 2091   2.569   2.292   3.346  0.9825  1.0801  1.0647
   16SAPS   C37 2092   2.615   2.119   3.471 -0.8099 -0.0215  0.6128
   16SAPS   H7X 2093   2.681   2.190   3.525 -0.4303  1.0429 -1.1669
   16SAPS   H7Y 2094   2.671   2.024   3.457  0.2257  0.8565 -1.7962
   16SAPS   C38 2095   2.474   2.103   3.526 -1.0866 -0.3248 -0.0854
   16SAPS   H8X 2096   2.424   2.033   3.456 -2.4980 -3.0452  3.3307
   16SAPS   H8Y 2097   2.420   2.199   3.540 -0.5829  0.2346 -1.7439
   16SAPS   C39 2098   2.479   2.039   3.667  0.2671 -0.2247 -0.0070
   16SAPS   H9X 2099   2.548   2.102   3.727  1.1556 -1.4619  0.3020
   16SAPS   H9Y 2100   2.514   1.934   3.666 -0.5667 -0.6875  3.7990
   16SAPS  C310 2101   2.344   2.016   3.734  1.2255 -0.3514  0.5751
   16SAPS  H10X 2102   2.277   1.953   3.672  0.5017 -0.4135  1.4031
   16SAPS  H10Y 2103   2.288   2.112   3.728  1.5379 -0.2531 -1.9206
   16SAPS  C311 2104   2.345   1.963   3.878 -0.3638 -0.6248 -0.3769
   16SAPS  H11X 2105   2.381   2.046   3.944 -0.3682 -0.7189 -0.2546
   16SAPS  H11Y 2106   2.421   1.882   3.870 -1.7054 -2.0940  0.9307
   16SAPS  C312 2107   2.217   1.890   3.926 -0.7621  0.2391 -0.0817
   16SAPS  H12X 2108   2.240   1.849   4.027  0.7103 -2.1546 -1.2873
   16SAPS  H12Y 2109   2.213   1.803   3.857  1.7896 -0.9636  1.1538
   16SAPS  C313 2110   2.096   1.974   3.931  0.5883  0.4149 -0.0043
   16SAPS  H13X 2111   2.072   2.009   3.828  0.4016 -0.8807 -0.4131
   16SAPS  H13Y 2112   2.104   2.074   3.980 -0.2319 -0.3588  1.7898
   16SAPS  C314 2113   1.975   1.890   3.981  0.2563 -0.4862 -0.1059
   16SAPS  H14X 2114   1.974   1.795   3.923 -0.3263 -1.2173  1.0557
   16SAPS  H14Y 2115   1.880   1.943   3.958  0.9662  0.7140 -0.4010
   16SAPS  C315 2116   1.978   1.844   4.124  0.0016  0.1251 -0.4257
   16SAPS  H15X 2117   2.081   1.811   4.147 -0.2918 -1.3206 -1.1028
   16SAPS  H15Y 2118   1.902   1.763   4.129 -0.7413  0.8612  0.4878
   16SAPS  C316 2119   1.937   1.964   4.219  0.3412  1.0147  0.0337
   16SAPS  H16X 2120   1.835   1.998   4.194 -0.9049 -0.2810  2.8344
   16SAPS  H16Y 2121   1.998   2.054   4.199 -0.4857  1.4349 -0.6679
   16SAPS  C317 2122   1.933   1.938   4.370 -0.2043 -0.1815 -0.3021
   16SAPS  H17X 2123   2.029   1.886   4.388  1.2023  2.2343 -0.2753
   16SAPS  H17Y 2124   1.847   1.869   4.381 -0.0671 -0.1761  0.9047
   16SAPS  C318 2125   1.918   2.063   4.450  0.0440  0.0718  0.4877
   16SAPS  H18X 2126   1.901   2.043   4.558 -1.2400 -1.2490  0.0801
   16SAPS  H18Y 2127   1.829   2.120   4.416 -0.8095 -1.0051  0.8570
   16SAPS  H18Z 2128   2.012   2.121   4.449 -0.2478  0.6925  2.9299
   17SAPS     N 2129   4.078   0.750   2.105 -0.9401  0.5036 -0.3244
   17SAPS   HN1 2130   4.009   0.708   2.171  0.4136 -1.7615 -0.2147
   17SAPS   HN2 2131   4.124   0.671   2.055 -3.1858 -1.3070  0.2991
   17SAPS   HN3 2132   4.151   0.813   2.145 -2.0317  0.7636  1.3222
   17SAPS   C12 2133   4.002   0.841   2.014  0.3986  0.6848 -0.0876
   17SAPS  H12A 2134   4.068   0.868   1.932 -1.1955  1.6235 -1.1167
   17SAPS   C13 2135   3.879   0.777   1.944  0.9941  0.3683 -0.5525
   17SAPS  O13A 2136   3.836   0.660   1.976 -0.4786  0.6474  0.3241
   17SAPS  O13B 2137   3.810   0.849   1.864 -0.5337  0.9634  0.4075
   17SAPS   C11 2138   3.969   0.970   2.089 -0.0049  0.0040 -0.1503
   17SAPS  H11A 2139   3.889   0.950   2.163  1.9339 -1.3426  1.6782
   17SAPS  H11B 2140   3.923   1.038   2.014  3.0670 -1.0213 -3.2102
   17SAPS     P 2141   4.079   1.171   2.204 -0.2465 -0.0780 -0.3366
   17SAPS   O13 2142   4.189   1.251   2.142  0.1386 -0.1327  0.5490
   17SAPS   O14 2143   3.946   1.227   2.169 -0.3752 -0.4525 -0.1216
   17SAPS   O12 2144   4.088   1.027   2.153  0.4194 -0.1833  0.3724
   17SAPS   O11 2145   4.092   1.152   2.363  0.2677  0.4492  0.1484
   17SAPS    C1 2146   4.009   1.056   2.436  0.2740  0.0940  0.0546
   17SAPS    HA 2147   3.921   1.118   2.464 -2.6128 -3.9681  0.7725
   17SAPS    HB 2148   3.966   0.971   2.378 -0.7588  0.2365  0.5740
   17SAPS    C2 2149   4.081   1.018   2.572  0.4642  0.1985  0.7101
   17SAPS    HS 2150   4.005   0.964   2.634 -2.0747  1.4903 -1.1127
   17SAPS   O21 2151   4.130   1.136   2.647  0.4788  0.5925 -0.5193
   17SAPS   C21 2152   4.049   1.184   2.746  0.8651  0.7321  0.4962
   17SAPS   O22 2153   3.933   1.154   2.762  0.2727 -0.8014 -0.2002
   17SAPS   C22 2154   4.136   1.270   2.834  0.1685 -0.6013  0.1259
   17SAPS   H2R 2155   4.241   1.235   2.823  0.0621 -1.0804  0.6138
   17SAPS   H2S 2156   4.129   1.375   2.798  0.7822 -1.2813 -2.1690
   17SAPS    C3 2157   4.195   0.915   2.535 -0.5002 -0.4164  0.4605
   17SAPS    HX 2158   4.272   0.981   2.489 -2.9438  0.7539 -2.2893
   17SAPS    HY 2159   4.146   0.853   2.457 -1.5552 -0.5957  1.2506
   17SAPS   O31 2160   4.233   0.842   2.653  0.6257  0.3686 -0.5840
   17SAPS   C31 2161   4.345   0.877   2.707 -0.6929  0.4184 -0.5356
   17SAPS   O32 2162   4.425   0.960   2.666 -0.0860  0.0813  0.4422
   17SAPS   C32 2163   4.364   0.804   2.838  0.4235 -0.0361  0.0439
   17SAPS   H2X 2164   4.379   0.695   2.825  0.5066 -0.3747  2.4529
   17SAPS   H2Y 2165   4.270   0.816   2.896  1.0843 -1.4275  1.4685
   17SAPS   C23 2166   4.108   1.262   2.982 -0.1428 -0.0938  0.7027
   17SAPS   H3R 2167   4.093   1.153   2.989  0.6011 -0.2582 -0.2016
   17SAPS   H3S 2168   4.011   1.313   2.999  0.1492  1.1399 -0.9978
   17SAPS   C24 2169   4.214   1.314   3.086 -0.3285  0.1124 -0.1795
   17SAPS   H4R 2170   4.297   1.242   3.066 -0.4562 -0.4614  1.2418
   17SAPS   H4S 2171   4.176   1.289   3.188 -1.9627  1.8081 -0.3164
   17SAPS   C25 2172   4.243   1.459   3.056 -0.4142  0.2880  0.3973
   17SAPS   H5R 2173   4.249   1.487   2.950  0.9110 -1.6810 -0.0922
   17SAPS   C26 2174   4.246   1.554   3.148 -0.7965 -0.0295  0.5961
   17SAPS   H6R 2175   4.265   1.658   3.120 -1.5574  0.2672  1.1509
   17SAPS   C27 2176   4.238   1.532   3.297  0.4958  0.5616 -0.0061
   17SAPS   H7R 2177   4.301   1.615   3.337 -0.0789 -0.0141  2.2549
   17SAPS   H7S 2178   4.276   1.430   3.322 -0.7610 -0.4896 -2.1373
   17SAPS   C28 2179   4.102   1.545   3.374 -0.4694  0.0521  0.4110
   17SAPS   H8R 2180   4.046   1.635   3.346  0.3158  0.3953 -0.0823
   17SAPS   C29 2181   4.028   1.465   3.451  0.1167  0.1755  0.2905
   17SAPS   H9R 2182   3.934   1.507   3.490 -0.6833 -1.6372  0.4088
   17SAPS  C210 2183   4.064   1.326   3.498  1.0309  0.1481 -0.3537
   17SAPS  H10R 2184   4.168   1.289   3.481  0.5229 -1.9342  0.7480
   17SAPS  H10S 2185   3.998   1.259   3.439 -0.1951 -1.9853  3.1460
   17SAPS  C211 2186   4.031   1.295   3.641 -0.3328 -0.5460 -0.1914
   17SAPS  H11R 2187   4.121   1.297   3.704 -1.5505  2.4312  1.6361
   17SAPS  C212 2188   3.909   1.286   3.705 -0.2342 -0.2303 -0.3325
   17SAPS  H12R 2189   3.911   1.261   3.812  0.0322 -0.5594 -0.4113
   17SAPS  C213 2190   3.773   1.311   3.632  0.3951  0.0900  0.0663
   17SAPS  H13R 2191   3.772   1.275   3.527 -0.8644  0.0675  0.0707
   17SAPS  H13S 2192   3.767   1.421   3.615  0.2119  0.1326  0.3952
   17SAPS  C214 2193   3.652   1.254   3.704  0.8709  0.4305 -0.3042
   17SAPS  H14R 2194   3.612   1.164   3.655  0.1651  0.1628  0.7241
   17SAPS  C215 2195   3.573   1.316   3.797  0.1226 -0.1059  0.1451
   17SAPS  H15R 2196   3.478   1.276   3.835  0.2560  0.8769  1.5914
   17SAPS  C216 2197   3.605   1.455   3.849  0.3247 -0.9519 -0.0608
   17SAPS  H16R 2198   3.704   1.488   3.811 -0.1318 -0.6123 -0.9722
   17SAPS  H16S 2199   3.606   1.459   3.960  0.7829 -0.1719 -0.0776
   17SAPS  C217 2200   3.508   1.566   3.793 -0.5836 -0.0662 -0.0324
   17SAPS  H17R 2201   3.482   1.546   3.687  1.0944  0.0787 -0.4859
   17SAPS  H17S 2202   3.552   1.667   3.809 -1.8707  0.1536  2.9191
   17SAPS  C218 2203   3.371   1.550   3.865 -1.2029 -0.6512 -0.0889
   17SAPS  H18R 2204   3.347   1.443   3.882 -1.3742 -0.1253  4.0246
   17SAPS  H18S 2205   3.289   1.602   3.812 -0.6697  0.3745  0.0614
   17SAPS  C219 2206   3.365   1.608   4.009 -0.2793 -0.2636 -0.4130
   17SAPS  H19R 2207   3.402   1.712   4.005 -0.2966 -0.0325  2.9575
   17SAPS  H19S 2208   3.442   1.556   4.069 -0.2414  0.0969 -0.1485
   17SAPS  C220 2209   3.230   1.596   4.076  0.4525 -0.6773 -0.6869
   17SAPS  H20R 2210   3.162   1.674   4.034  1.5043  2.3364  2.7164
   17SAPS  H20S 2211   3.239   1.586   4.186  1.1634 -0.7336 -0.7497
   17SAPS  H20T 2212   3.193   1.496   4.046 -0.6413  0.0483 -1.9146
   17SAPS   C33 2213   4.489   0.843   2.919 -0.0004  0.4743  0.0027
   17SAPS   H3X 2214   4.549   0.924   2.873 -0.5373  1.3313  0.7752
   17SAPS   H3Y 2215   4.539   0.745   2.904 -2.0806 -0.2786 -3.0903
   17SAPS   C34 2216   4.479   0.869   3.076 -0.4056  0.8643  0.0416
   17SAPS   H4X 2217   4.579   0.850   3.119  0.3075 -1.2022 -2.3174
   17SAPS   H4Y 2218   4.406   0.795   3.115 -0.4209  0.1847 -1.2231
   17SAPS   C35 2219   4.432   1.009   3.099  0.0107 -0.2917 -0.2282
   17SAPS   H5X 2220   4.343   1.034   3.038  0.0498 -0.3654 -0.3172
   17SAPS   H5Y 2221   4.520   1.068   3.065  0.5252 -0.3547  0.9676
   17SAPS   C36 2222   4.416   1.034   3.251  0.0702 -0.0094  0.1572
   17SAPS   H6X 2223   4.403   1.144   3.250  0.3239  0.0665 -2.6898
   17SAPS   H6Y 2224   4.512   1.016   3.304 -0.0939  1.5853  1.0488
   17SAPS   C37 2225   4.304   0.957   3.322  0.7076  0.8337  0.3146
   17SAPS   H7X 2226   4.303   0.846   3.317 -0.4591  0.8756 -2.1087
   17SAPS   H7Y 2227   4.203   0.988   3.286  0.6049  0.6141  0.4113
   17SAPS   C38 2228   4.309   0.987   3.467 -0.1395 -0.9796 -0.6795
   17SAPS   H8X 2229   4.212   0.992   3.522  0.2997 -1.6402  0.1781
   17SAPS   H8Y 2230   4.344   1.093   3.474  1.7467 -1.5626 -0.7278
   17SAPS   C39 2231   4.409   0.906   3.551  0.4265  0.1421  0.3470
   17SAPS   H9X 2232   4.515   0.930   3.525  0.0334  1.3151 -0.2322
   17SAPS   H9Y 2233   4.398   0.800   3.520  1.2706  0.3821 -0.8451
   17SAPS  C310 2234   4.396   0.920   3.701 -0.3115 -0.7839  0.1543
   17SAPS  H10X 2235   4.465   0.859   3.762  0.7204  1.5691  1.4652
   17SAPS  H10Y 2236   4.298   0.886   3.740 -0.0973 -2.8493 -0.9808
   17SAPS  C311 2237   4.407   1.068   3.743  0.8669  0.2345 -0.3540
   17SAPS  H11X 2238   4.323   1.121   3.694  0.2125 -1.1104 -0.7474
   17SAPS  H11Y 2239   4.500   1.118   3.708 -0.2373  0.5710 -2.9830
   17SAPS  C312 2240   4.391   1.092   3.896 -0.0584  0.2661 -0.0188
   17SAPS  H12X 2241   4.404   1.201   3.909  2.2134 -0.0862  1.3795
   17SAPS  H12Y 2242   4.476   1.042   3.949 -0.3721 -1.4319 -1.0397
   17SAPS  C313 2243   4.259   1.038   3.949  0.4105  0.1169 -0.2615
   17SAPS  H13X 2244   4.253   0.928   3.961 -1.6687  0.2437  0.2335
   17SAPS  H13Y 2245   4.176   1.058   3.878  0.6755 -1.3472 -1.0191
   17SAPS  C314 2246   4.233   1.101   4.081  0.2349 -0.3107  0.0453
   17SAPS  H14X 2247   4.213   1.210   4.083 -0.1831 -0.3905  0.7384
   17SAPS  H14Y 2248   4.325   1.075   4.139  0.4294  0.8089  0.2576
   17SAPS  C315 2249   4.111   1.038   4.160  0.2775  0.3685  0.7253
   17SAPS  H15X 2250   4.124   1.055   4.269 -0.7857 -1.7850  1.2348
   17SAPS  H15Y 2251   4.118   0.929   4.141 -0.0553  0.5480 -0.5231
   17SAPS  C316 2252   3.975   1.101   4.119 -0.1404 -0.1539  0.0787
   17SAPS  H16X 2253   3.966   1.088   4.009 -0.2160 -3.0856  0.3343
   17SAPS  H16Y 2254   3.962   1.210   4.136  0.9714  0.0807 -0.5305
   17SAPS  C317 2255   3.873   1.034   4.205  0.1451 -0.4030 -0.5643
   17SAPS  H17X 2256   3.901   1.059   4.309 -0.7617 -1.0258 -0.1602
   17SAPS  H17Y 2257   3.875   0.923   4.205 -1.5714 -0.4721  0.6994
   17SAPS  C318 2258   3.727   1.062   4.177  0.2679 -0.3853  0.3655
   17SAPS  H18X 2259   3.706   1.171   4.175 -1.9304 -0.7542  1.2017
   17SAPS  H18Y 2260   3.662   1.024   4.258 -0.8783 -1.2439 -0.9242
   17SAPS  H18Z 2261   3.695   1.010   4.084  0.7713 -1.0861  0.5752
   18SAPS     N 2262   1.106   6.706   1.487 -0.1189  0.1024  0.2267
   18SAPS   HN1 2263   1.005   6.707   1.514 -0.3298  0.1850 -0.5482
   18SAPS   HN2 2264   1.096   6.695   1.384  1.2609 -0.8031  0.1716
   18SAPS   HN3 2265   1.151   6.618   1.519 -1.7471  0.0449  2.6565
   18SAPS   C12 2266   1.166   6.839   1.519  0.3313 -0.6099 -0.6991
   18SAPS  H12A 2267   1.271   6.831   1.495  0.6711  0.6302  0.2776
   18SAPS   C13 2268   1.096   6.957   1.444  0.1994 -0.0163  0.4075
   18SAPS  O13A 2269   1.032   6.926   1.340 -0.0347  0.0616  0.0301
   18SAPS  O13B 2270   1.137   7.074   1.458  0.4489 -0.1156 -0.4691
   18SAPS   C11 2271   1.139   6.858   1.678  0.1189  0.4158  0.7137
   18SAPS  H11A 2272   1.032   6.841   1.702  0.0149 -1.5350 -0.9298
   18SAPS  H11B 2273   1.163   6.960   1.718  0.6458  0.6129 -0.0842
   18SAPS     P 2274   1.170   6.694   1.886  0.5446 -0.3645 -0.6546
   18SAPS   O13 2275   1.019   6.700   1.889  0.5885 -0.1382 -0.4185
   18SAPS   O14 2276   1.240   6.567   1.913  0.0188 -0.4654  0.1674
   18SAPS   O12 2277   1.214   6.764   1.751 -0.4803 -0.2673 -0.4051
   18SAPS   O11 2278   1.218   6.808   1.990  0.2822  0.3356  0.5826
   18SAPS    C1 2279   1.264   6.784   2.116 -0.7106 -0.5492 -0.2891
   18SAPS    HA 2280   1.328   6.695   2.131  1.9776  1.5312  1.8003
   18SAPS    HB 2281   1.344   6.860   2.131 -0.0129 -0.9703 -1.7066
   18SAPS    C2 2282   1.157   6.792   2.238  0.1492  0.3271  0.5157
   18SAPS    HS 2283   1.196   6.752   2.334 -1.4061 -1.5714  0.4091
   18SAPS   O21 2284   1.040   6.714   2.206  0.2862  0.2176  0.2733
   18SAPS   C21 2285   1.065   6.586   2.192 -0.5230  0.2909  0.7061
   18SAPS   O22 2286   1.174   6.535   2.219  0.2741 -0.7209 -0.1660
   18SAPS   C22 2287   0.952   6.509   2.128  0.5000 -0.1910 -1.2984
   18SAPS   H2R 2288   0.885   6.562   2.058  0.7333  1.8214 -0.0668
   18SAPS   H2S 2289   1.007   6.431   2.070  1.1910 -0.1681 -0.6849
   18SAPS    C3 2290   1.107   6.932   2.274 -0.2758 -0.1601  0.2269
   18SAPS    HX 2291   1.055   6.972   2.184  0.2348  0.5792  0.2514
   18SAPS    HY 2292   1.196   6.993   2.297 -0.1811 -0.0295 -0.4558
   18SAPS   O31 2293   1.018   6.934   2.382 -0.5530  0.6365 -0.0496
   18SAPS   C31 2294   1.064   6.949   2.504 -0.5387 -0.4709  0.5083
   18SAPS   O32 2295   1.171   7.002   2.537 -0.3273  0.2320  0.1850
   18SAPS   C32 2296   0.967   6.895   2.609 -0.1922  0.6015 -0.6150
   18SAPS   H2X 2297   0.958   6.786   2.588  1.6549 -0.0990  1.7160
   18SAPS   H2Y 2298   0.875   6.955   2.595 -0.8148  0.7347  3.0374
   18SAPS   C23 2299   0.868   6.424   2.228 -0.0099 -0.0802 -0.0853
   18SAPS   H3R 2300   0.943   6.360   2.279  0.0304  0.0187 -0.0231
   18SAPS   H3S 2301   0.802   6.365   2.160 -0.6468 -0.2792  0.6854
   18SAPS   C24 2302   0.800   6.508   2.334 -0.2328 -0.3368 -0.3331
   18SAPS   H4R 2303   0.732   6.574   2.275 -0.3200 -1.2420 -1.2780
   18SAPS   H4S 2304   0.872   6.570   2.392 -1.1625  0.7989 -0.3500
   18SAPS   C25 2305   0.719   6.423   2.435 -0.7925 -0.5446  0.3098
   18SAPS   H5R 2306   0.703   6.320   2.400  2.3287 -0.5298 -1.5343
   18SAPS   C26 2307   0.654   6.470   2.541 -0.4417  0.5285 -0.7872
   18SAPS   H6R 2308   0.601   6.396   2.604 -1.2025  1.1101 -0.7293
   18SAPS   C27 2309   0.665   6.612   2.601  0.2902  0.1280 -0.3433
   18SAPS   H7R 2310   0.769   6.644   2.579 -0.0445  0.9461 -0.7998
   18SAPS   H7S 2311   0.647   6.602   2.710 -2.7532  0.6971 -0.7133
   18SAPS   C28 2312   0.574   6.709   2.534  0.2116 -0.3341  0.0852
   18SAPS   H8R 2313   0.593   6.731   2.428  2.5705  0.1836  0.5626
   18SAPS   C29 2314   0.475   6.780   2.590 -0.1070  0.9082 -0.1527
   18SAPS   H9R 2315   0.419   6.844   2.520 -0.5657  0.0891 -0.5462
   18SAPS  C210 2316   0.429   6.775   2.734  0.1792 -0.9835  0.5801
   18SAPS  H10R 2317   0.421   6.667   2.760 -0.6687 -1.0514  0.0728
   18SAPS  H10S 2318   0.329   6.822   2.728  1.1802  1.1545 -1.1327
   18SAPS  C211 2319   0.520   6.852   2.826  0.4213 -0.1112 -0.5633
   18SAPS  H11R 2320   0.587   6.917   2.768 -0.0025 -1.1922 -2.3064
   18SAPS  C212 2321   0.526   6.859   2.964  0.4926 -0.1200  0.0311
   18SAPS  H12R 2322   0.602   6.926   3.006  1.0439 -1.8198  1.9005
   18SAPS  C213 2323   0.423   6.801   3.057  0.2034  0.3219  0.5101
   18SAPS  H13R 2324   0.471   6.770   3.152  0.1112  1.6103  1.0008
   18SAPS  H13S 2325   0.371   6.717   3.007 -1.4658  2.2540 -1.2031
   18SAPS  C214 2326   0.302   6.894   3.083  1.0067  0.6340  0.4699
   18SAPS  H14R 2327   0.267   6.938   2.988  1.7637 -0.2704 -0.2603
   18SAPS  C215 2328   0.243   6.927   3.197 -0.5388 -0.1259  0.0538
   18SAPS  H15R 2329   0.176   7.014   3.201  0.1225  0.3548  1.3430
   18SAPS  C216 2330   0.263   6.870   3.338  0.2084  0.2442  0.5456
   18SAPS  H16R 2331   0.361   6.818   3.351  0.2950  0.4137  0.5816
   18SAPS  H16S 2332   0.186   6.791   3.346 -1.3642  1.7473  0.9797
   18SAPS  C217 2333   0.243   6.954   3.461 -0.1815 -0.7955 -0.1926
   18SAPS  H17R 2334   0.147   7.007   3.476  0.4120 -0.2261  1.9391
   18SAPS  H17S 2335   0.336   7.015   3.459  0.9369 -2.1677  2.9372
   18SAPS  C218 2336   0.239   6.884   3.595 -0.2660  0.1266  0.1905
   18SAPS  H18R 2337   0.332   6.824   3.587 -1.0579 -1.1091 -0.2024
   18SAPS  H18S 2338   0.157   6.812   3.617 -1.4464  1.2953 -0.2367
   18SAPS  C219 2339   0.263   6.964   3.725  0.2984 -0.1131  0.4694
   18SAPS  H19R 2340   0.187   7.045   3.730  1.3340  1.0513 -1.5096
   18SAPS  H19S 2341   0.363   7.013   3.719 -0.4379  1.3593 -0.2558
   18SAPS  C220 2342   0.248   6.888   3.854 -0.3614  0.1850  0.1050
   18SAPS  H20R 2343   0.288   6.952   3.936  2.1196  0.0521 -0.9127
   18SAPS  H20S 2344   0.303   6.791   3.862 -0.2694  0.2298  0.0189
   18SAPS  H20T 2345   0.141   6.861   3.866 -0.4838 -0.0652 -1.3562
   18SAPS   C33 2346   1.015   6.909   2.753 -0.1550  0.7766  0.0982
   18SAPS   H3X 2347   1.026   7.014   2.789 -3.2774  0.5604  2.0604
   18SAPS   H3Y 2348   1.112   6.857   2.761 -1.6195 -2.1976 -0.1945
   18SAPS   C34 2349   0.923   6.840   2.858 -0.5828 -0.0502  0.8739
   18SAPS   H4X 2350   0.893   6.736   2.830  2.6046 -0.3913 -1.8471
   18SAPS   H4Y 2351   0.832   6.903   2.851  0.2959  1.1652 -0.0868
   18SAPS   C35 2352   0.963   6.836   3.003 -0.3055 -1.1864  0.3035
   18SAPS   H5X 2353   1.016   6.931   3.026 -1.3967 -0.1202 -1.4463
   18SAPS   H5Y 2354   1.029   6.748   3.022  1.0967 -0.1460  0.3817
   18SAPS   C36 2355   0.841   6.830   3.096  0.3855 -0.1421 -0.2315
   18SAPS   H6X 2356   0.771   6.748   3.070  0.1905 -0.9221  2.4326
   18SAPS   H6Y 2357   0.790   6.927   3.081  1.9327  0.7495  0.1335
   18SAPS   C37 2358   0.880   6.829   3.241 -0.1431 -0.1678  0.1407
   18SAPS   H7X 2359   0.923   6.922   3.283 -1.3122 -0.2117  1.5183
   18SAPS   H7Y 2360   0.961   6.755   3.258 -0.1496 -0.5858 -1.5109
   18SAPS   C38 2361   0.763   6.791   3.334 -0.7261  0.1551  0.4755
   18SAPS   H8X 2362   0.722   6.691   3.311  1.9257 -0.9508  0.1575
   18SAPS   H8Y 2363   0.693   6.875   3.316 -0.4243  0.5820  1.2247
   18SAPS   C39 2364   0.785   6.795   3.483 -0.7987  0.0796  0.1932
   18SAPS   H9X 2365   0.683   6.775   3.523 -1.0223  0.6915 -0.0504
   18SAPS   H9Y 2366   0.807   6.901   3.509  0.4159  0.2158 -1.2402
   18SAPS  C310 2367   0.891   6.704   3.551 -0.0181 -0.3875  0.0504
   18SAPS  H10X 2368   0.980   6.694   3.484  0.2111  2.4295 -0.1791
   18SAPS  H10Y 2369   0.857   6.598   3.552  0.2089 -0.4974 -1.3199
   18SAPS  C311 2370   0.932   6.760   3.685 -0.4019  0.3326  0.0045
   18SAPS  H11X 2371   0.841   6.762   3.747 -1.9220 -0.4902 -2.0882
   18SAPS  H11Y 2372   0.967   6.865   3.672  0.0149  0.1174 -0.7074
   18SAPS  C312 2373   1.040   6.663   3.749  0.1787 -0.4250 -0.2337
   18SAPS  H12X 2374   1.136   6.654   3.694  0.3064 -0.7155  0.0368
   18SAPS  H12Y 2375   0.992   6.564   3.759 -3.1520  1.2091  2.4263
   18SAPS  C313 2376   1.074   6.720   3.890 -0.1260  0.9364  0.0679
   18SAPS  H13X 2377   0.978   6.702   3.945 -0.6330 -3.3374 -1.8177
   18SAPS  H13Y 2378   1.099   6.827   3.877  1.9999  0.7318  1.8623
   18SAPS  C314 2379   1.190   6.641   3.959  0.1462 -0.0409  0.0132
   18SAPS  H14X 2380   1.221   6.690   4.054  2.0234 -0.2872 -0.4288
   18SAPS  H14Y 2381   1.281   6.643   3.895  1.0575  1.4658  1.2664
   18SAPS  C315 2382   1.156   6.509   4.002 -0.7692  0.5963  0.0070
   18SAPS  H15X 2383   1.248   6.447   4.012 -0.3829  1.1583 -0.0295
   18SAPS  H15Y 2384   1.092   6.450   3.932 -2.4036  0.2975  1.6761
   18SAPS  C316 2385   1.086   6.483   4.137  0.3384 -0.1091 -0.1698
   18SAPS  H16X 2386   1.126   6.541   4.223 -1.5071  0.8636  0.0736
   18SAPS  H16Y 2387   1.101   6.375   4.161 -0.0892 -0.0692  0.2975
   18SAPS  C317 2388   0.943   6.524   4.128  0.0646  0.4787  0.0461
   18SAPS  H17X 2389   0.899   6.480   4.036  1.0974 -2.8597  0.9927
   18SAPS  H17Y 2390   0.941   6.635   4.131  0.2719  0.5412 -1.3919
   18SAPS  C318 2391   0.863   6.460   4.243 -0.3285  0.2890  0.4329
   18SAPS  H18X 2392   0.756   6.487   4.246 -0.8733 -1.7292  0.6507
   18SAPS  H18Y 2393   0.912   6.478   4.341  3.8915 -2.3467 -0.8904
   18SAPS  H18Z 2394   0.863   6.350   4.231  2.8470  0.0944  1.1996
   19SAPS     N 2395   5.398   3.319   2.120  0.0390 -1.0015 -0.2801
   19SAPS   HN1 2396   5.370   3.401   2.062  0.9413 -2.0418 -2.2529
   19SAPS   HN2 2397   5.311   3.262   2.116 -1.6804  1.1963  2.2513
   19SAPS   HN3 2398   5.420   3.338   2.220 -2.3674 -0.2640  0.1819
   19SAPS   C12 2399   5.496   3.238   2.045  0.3149  0.1944  0.1461
   19SAPS  H12A 2400   5.439   3.196   1.963  0.3735 -0.3793  0.3945
   19SAPS   C13 2401   5.608   3.323   1.980 -0.3010  0.2046  0.4670
   19SAPS  O13A 2402   5.603   3.447   1.975 -0.2500  0.2607 -0.3327
   19SAPS  O13B 2403   5.687   3.256   1.907  0.1629  0.2309  0.1551
   19SAPS   C11 2404   5.537   3.118   2.137 -0.7450 -0.2738 -0.1134
   19SAPS  H11A 2405   5.598   3.153   2.223  0.9658 -0.1757 -1.3192
   19SAPS  H11B 2406   5.602   3.050   2.078 -0.1231  0.9128 -0.8530
   19SAPS     P 2407   5.396   2.903   2.213 -0.3089 -0.1793 -0.0473
   19SAPS   O13 2408   5.270   2.855   2.156  0.4093  0.3100 -0.5029
   19SAPS   O14 2409   5.526   2.828   2.174  0.0694 -0.1495  0.1933
   19SAPS   O12 2410   5.415   3.057   2.173  0.7741 -0.0191  0.2638
   19SAPS   O11 2411   5.391   2.905   2.370  0.8319  0.0699 -0.5845
   19SAPS    C1 2412   5.318   3.018   2.434  0.1837  0.6295 -0.0769
   19SAPS    HA 2413   5.389   3.085   2.488  0.5176  0.4068 -0.2391
   19SAPS    HB 2414   5.270   3.088   2.363 -4.2013 -2.5840 -0.6314
   19SAPS    C2 2415   5.207   2.962   2.531  0.1109  0.4966  0.1405
   19SAPS    HS 2416   5.176   3.053   2.587 -0.5472 -1.2516  2.8309
   19SAPS   O21 2417   5.262   2.859   2.627 -0.4259 -0.4048  0.4395
   19SAPS   C21 2418   5.369   2.915   2.692  0.4241  0.1117 -0.3758
   19SAPS   O22 2419   5.394   3.036   2.695  0.3860 -0.0782 -0.4404
   19SAPS   C22 2420   5.441   2.800   2.769 -0.0908  0.2633 -0.4424
   19SAPS   H2R 2421   5.505   2.744   2.699 -0.6012 -1.2169  0.2372
   19SAPS   H2S 2422   5.515   2.851   2.834  1.1320  0.0643 -1.6282
   19SAPS    C3 2423   5.084   2.913   2.453 -0.2526 -0.1309 -0.0370
   19SAPS    HX 2424   5.116   2.827   2.389 -0.4422 -0.0660 -0.2209
   19SAPS    HY 2425   5.039   2.984   2.381 -0.2580 -0.0969  0.0005
   19SAPS   O31 2426   4.980   2.877   2.544 -0.0117 -0.2943 -0.2791
   19SAPS   C31 2427   4.954   2.752   2.564 -0.0564 -0.1188 -0.2209
   19SAPS   O32 2428   5.019   2.662   2.518 -0.1883 -0.5151  0.3161
   19SAPS   C32 2429   4.824   2.742   2.656  0.7517 -0.0494 -0.5096
   19SAPS   H2X 2430   4.741   2.708   2.592 -1.5768  1.0296  1.7560
   19SAPS   H2Y 2431   4.791   2.845   2.682 -2.1557 -1.1270  0.5069
   19SAPS   C23 2432   5.352   2.704   2.865 -0.1093  0.6964 -0.9290
   19SAPS   H3R 2433   5.292   2.642   2.794  3.0812 -3.3721 -0.4523
   19SAPS   H3S 2434   5.282   2.772   2.917  1.2109  0.8455  0.7231
   19SAPS   C24 2435   5.429   2.613   2.964 -0.2230 -0.5729 -0.4345
   19SAPS   H4R 2436   5.362   2.585   3.048  0.0381  2.1572  0.7717
   19SAPS   H4S 2437   5.509   2.664   3.020 -1.0099 -1.1770  1.3390
   19SAPS   C25 2438   5.482   2.490   2.891 -0.0555 -0.2104  0.1341
   19SAPS   H5R 2439   5.433   2.454   2.800  0.0246  1.1461 -0.4654
   19SAPS   C26 2440   5.609   2.440   2.899 -0.4429 -0.2457  0.1552
   19SAPS   H6R 2441   5.641   2.360   2.831 -0.3923 -1.9545  2.0849
   19SAPS   C27 2442   5.718   2.499   2.991 -0.1073 -0.2384 -0.2139
   19SAPS   H7R 2443   5.701   2.599   3.036  1.7393 -0.2227  0.5559
   19SAPS   H7S 2444   5.815   2.520   2.942 -0.0580 -1.6185 -0.7580
   19SAPS   C28 2445   5.764   2.422   3.111 -0.1425  0.5775 -0.4577
   19SAPS   H8R 2446   5.783   2.491   3.194 -1.6214  0.5657 -0.0711
   19SAPS   C29 2447   5.775   2.294   3.135  0.0726  0.8102  0.2431
   19SAPS   H9R 2448   5.826   2.257   3.225  0.6918 -4.2806 -1.8168
   19SAPS  C210 2449   5.750   2.172   3.049 -0.0997 -0.5628 -0.8890
   19SAPS  H10R 2450   5.652   2.183   2.997 -2.1045 -4.2597  1.6141
   19SAPS  H10S 2451   5.728   2.083   3.112 -0.5629 -1.3383 -2.1227
   19SAPS  C211 2452   5.854   2.138   2.953  0.3156  0.1949 -0.2943
   19SAPS  H11R 2453   5.847   2.192   2.858 -0.8445  1.0736  0.2698
   19SAPS  C212 2454   5.945   2.042   2.974 -0.1581  0.3723  0.0985
   19SAPS  H12R 2455   6.016   2.016   2.894 -1.7484  2.4300 -2.1133
   19SAPS  C213 2456   5.959   1.972   3.105 -0.0899 -0.7021 -0.4264
   19SAPS  H13R 2457   6.004   1.874   3.078 -0.2197 -0.6052 -1.0076
   19SAPS  H13S 2458   5.865   1.951   3.161  0.6015  1.5550  1.7722
   19SAPS  C214 2459   6.057   2.034   3.206  0.1350  0.2476  0.6922
   19SAPS  H14R 2460   6.149   2.081   3.169 -0.5125  0.8712 -0.1792
   19SAPS  C215 2461   6.052   2.032   3.341  0.8093 -0.2775 -0.6748
   19SAPS  H15R 2462   6.147   2.064   3.386  0.7438 -0.0039 -0.7295
   19SAPS  C216 2463   5.941   1.971   3.422  0.4526  0.2125 -1.0851
   19SAPS  H16R 2464   5.858   1.938   3.357  0.2224  1.5436 -1.4980
   19SAPS  H16S 2465   5.902   2.046   3.495  0.3398  1.8184 -2.7395
   19SAPS  C217 2466   5.987   1.864   3.525 -0.1294  0.5305  0.2739
   19SAPS  H17R 2467   6.022   1.782   3.459 -1.1908  1.4141 -1.4618
   19SAPS  H17S 2468   5.903   1.821   3.583  0.9374 -1.7456  0.2348
   19SAPS  C218 2469   6.087   1.905   3.634 -0.3145 -0.3039  0.2631
   19SAPS  H18R 2470   6.065   2.005   3.679 -1.1585 -0.8185  1.0286
   19SAPS  H18S 2471   6.186   1.904   3.584 -0.1090 -1.6002  0.6613
   19SAPS  C219 2472   6.106   1.796   3.740 -0.0126 -0.2146  0.2212
   19SAPS  H19R 2473   6.029   1.817   3.818  0.5355  0.8937  0.4757
   19SAPS  H19S 2474   6.201   1.815   3.794 -0.7794  0.9293  1.2254
   19SAPS  C220 2475   6.110   1.655   3.691  0.0420 -1.2659 -0.3251
   19SAPS  H20R 2476   6.004   1.628   3.670 -0.1389 -0.3722 -0.6347
   19SAPS  H20S 2477   6.151   1.589   3.770  1.8961 -1.6305 -1.5270
   19SAPS  H20T 2478   6.163   1.634   3.596  0.9921 -0.1365 -0.0650
   19SAPS   C33 2479   4.849   2.669   2.787  0.3860  0.4061 -0.9422
   19SAPS   H3X 2480   4.930   2.593   2.783  0.0644  0.0270 -0.4637
   19SAPS   H3Y 2481   4.762   2.605   2.813  0.7292  0.2069 -0.2547
   19SAPS   C34 2482   4.850   2.769   2.912  0.3298  0.1272 -0.1063
   19SAPS   H4X 2483   4.758   2.832   2.906  0.2598 -0.0988 -2.1633
   19SAPS   H4Y 2484   4.934   2.841   2.906 -1.8364  2.7735 -1.5143
   19SAPS   C35 2485   4.848   2.691   3.043 -0.7384  0.2438  0.2228
   19SAPS   H5X 2486   4.925   2.610   3.047 -0.3121  0.6923  1.6428
   19SAPS   H5Y 2487   4.750   2.642   3.059 -0.5064 -0.2094  0.2904
   19SAPS   C36 2488   4.862   2.778   3.163  0.2694 -0.1596  0.3227
   19SAPS   H6X 2489   4.788   2.859   3.145 -0.0907 -0.8152 -1.3445
   19SAPS   H6Y 2490   4.967   2.815   3.164  0.6281 -1.1566  2.0180
   19SAPS   C37 2491   4.825   2.703   3.285 -0.4613  0.1320 -0.0934
   19SAPS   H7X 2492   4.881   2.607   3.288  0.5408  0.6539 -1.0523
   19SAPS   H7Y 2493   4.719   2.671   3.295  0.0452 -1.4778  0.4468
   19SAPS   C38 2494   4.854   2.788   3.411 -0.0927 -0.5596 -0.1499
   19SAPS   H8X 2495   4.823   2.724   3.497 -0.0402 -1.9363 -1.1201
   19SAPS   H8Y 2496   4.803   2.886   3.420 -0.8623 -0.9266 -0.4144
   19SAPS   C39 2497   5.001   2.829   3.434 -0.4982  0.2191 -0.0944
   19SAPS   H9X 2498   5.048   2.898   3.361  0.4827 -0.9036 -0.5467
   19SAPS   H9Y 2499   5.055   2.732   3.427  1.0101  0.9865  0.5916
   19SAPS  C310 2500   5.034   2.859   3.583 -0.4104  0.2355  0.0767
   19SAPS  H10X 2501   5.144   2.868   3.595 -0.3275  1.9752 -1.5589
   19SAPS  H10Y 2502   5.009   2.770   3.645  2.5215 -1.2085 -0.6233
   19SAPS  C311 2503   4.973   2.994   3.629  0.2303  0.0607  0.0337
   19SAPS  H11X 2504   4.879   3.010   3.572  0.0787 -2.2654 -0.5007
   19SAPS  H11Y 2505   5.041   3.075   3.595  0.5930 -0.3431 -0.2158
   19SAPS  C312 2506   4.955   2.996   3.781  0.3837  0.6180 -0.2166
   19SAPS  H12X 2507   5.059   2.978   3.815  0.9258 -0.6974 -2.3776
   19SAPS  H12Y 2508   4.888   2.910   3.806  1.1030  0.4817  1.3767
   19SAPS  C313 2509   4.894   3.131   3.832  0.3950  0.6255  0.2907
   19SAPS  H13X 2510   4.785   3.132   3.807  0.8094  2.1643 -1.7517
   19SAPS  H13Y 2511   4.949   3.212   3.779 -3.3569  1.9224 -2.0703
   19SAPS  C314 2512   4.906   3.146   3.978  0.0829  0.2816  0.3478
   19SAPS  H14X 2513   5.009   3.127   4.014  0.2540 -0.7689 -0.6394
   19SAPS  H14Y 2514   4.830   3.085   4.031  2.6594 -1.6343  2.0465
   19SAPS  C315 2515   4.876   3.295   4.004 -0.0777 -0.0466 -0.4987
   19SAPS  H15X 2516   4.790   3.321   3.938 -0.0503  0.8326 -0.2012
   19SAPS  H15Y 2517   4.964   3.356   3.973 -0.6887  0.4605 -1.3296
   19SAPS  C316 2518   4.842   3.326   4.152 -0.0873  0.2454 -0.5020
   19SAPS  H16X 2519   4.779   3.244   4.192 -1.2484  3.0036  4.1828
   19SAPS  H16Y 2520   4.781   3.419   4.157  0.8071  0.8000  0.8501
   19SAPS  C317 2521   4.970   3.339   4.236 -0.5759  0.4314 -0.0575
   19SAPS  H17X 2522   5.031   3.428   4.207 -0.2293 -0.1161 -1.0712
   19SAPS  H17Y 2523   5.037   3.253   4.216 -0.7621  0.4794 -0.9391
   19SAPS  C318 2524   4.936   3.346   4.377 -0.0570 -0.0106  0.0210
   19SAPS  H18X 2525   5.022   3.381   4.437  0.8143 -3.4147  0.9666
   19SAPS  H18Y 2526   4.918   3.242   4.411 -0.9304  0.1773  0.1632
   19SAPS  H18Z 2527   4.849   3.414   4.389  0.2758  1.0681 -2.8996
   20SAPS     N 2528   1.217   3.699   2.132 -0.0273  0.2589 -0.1356
   20SAPS   HN1 2529   1.178   3.615   2.180  1.1441 -1.7262 -2.4657
   20SAPS   HN2 2530   1.276   3.758   2.194  1.8703  0.4873 -2.0622
   20SAPS   HN3 2531   1.143   3.763   2.096 -1.2458 -1.2662 -0.4503
   20SAPS   C12 2532   1.320   3.675   2.022 -0.0584  0.1554 -0.0537
   20SAPS  H12A 2533   1.261   3.613   1.956  0.9569 -1.2185  0.3080
   20SAPS   C13 2534   1.367   3.805   1.951  0.1098 -0.5332  0.3343
   20SAPS  O13A 2535   1.349   3.912   2.011 -0.0001  0.1520 -0.4993
   20SAPS  O13B 2536   1.441   3.810   1.845 -0.1413 -0.1751 -0.2391
   20SAPS   C11 2537   1.434   3.589   2.086  0.0506  0.5917  0.0685
   20SAPS  H11A 2538   1.508   3.572   2.004 -1.1538  1.7044 -1.3118
   20SAPS  H11B 2539   1.397   3.493   2.127 -0.5403  0.8020  0.0325
   20SAPS     P 2540   1.640   3.634   2.239 -0.0484 -0.0122 -0.0608
   20SAPS   O13 2541   1.725   3.626   2.117 -0.3478  0.6974 -0.2881
   20SAPS   O14 2542   1.686   3.739   2.331  0.2434  0.2088 -0.1781
   20SAPS   O12 2543   1.490   3.661   2.195  0.3048 -0.2312  0.1662
   20SAPS   O11 2544   1.644   3.498   2.315 -0.1885 -0.7051  0.3073
   20SAPS    C1 2545   1.528   3.452   2.394  0.2256 -0.5413 -0.1576
   20SAPS    HA 2546   1.434   3.503   2.364 -0.3799 -0.8191  1.1728
   20SAPS    HB 2547   1.508   3.348   2.361  1.7434 -1.5072  1.7677
   20SAPS    C2 2548   1.542   3.478   2.546  0.5418  0.0804  0.0676
   20SAPS    HS 2549   1.453   3.444   2.603  0.4556  0.0702 -0.0698
   20SAPS   O21 2550   1.552   3.619   2.569 -0.3686  0.3025  0.0116
   20SAPS   C21 2551   1.435   3.685   2.560 -0.8049  1.1458  0.0880
   20SAPS   O22 2552   1.324   3.632   2.551 -0.3035 -0.6275 -0.2632
   20SAPS   C22 2553   1.456   3.837   2.567  0.3601  0.5901 -0.0533
   20SAPS   H2R 2554   1.548   3.856   2.507  1.2756 -1.1369  0.7154
   20SAPS   H2S 2555   1.367   3.886   2.523 -0.6862 -1.6147 -0.5149
   20SAPS    C3 2556   1.667   3.407   2.593 -0.4376  0.2202 -0.7943
   20SAPS    HX 2557   1.759   3.459   2.558  1.1643 -0.3504  2.1884
   20SAPS    HY 2558   1.671   3.303   2.554 -0.8625  0.1955 -0.7802
   20SAPS   O31 2559   1.672   3.411   2.736 -0.0754 -0.2770 -0.1024
   20SAPS   C31 2560   1.719   3.518   2.800 -0.8350  0.7781 -0.1155
   20SAPS   O32 2561   1.782   3.608   2.746  0.4921 -0.3337 -0.2448
   20SAPS   C32 2562   1.688   3.511   2.950 -0.5949  0.1772 -0.0723
   20SAPS   H2X 2563   1.781   3.516   3.010  0.0368  2.6461 -1.1478
   20SAPS   H2Y 2564   1.633   3.415   2.965  0.3326 -0.1176  1.6627
   20SAPS   C23 2565   1.481   3.886   2.705  0.0450 -0.3456 -0.6770
   20SAPS   H3R 2566   1.505   3.995   2.697 -1.0427 -0.0247  0.1805
   20SAPS   H3S 2567   1.570   3.833   2.746 -1.6482 -1.8567  1.2177
   20SAPS   C24 2568   1.375   3.861   2.811  0.0635  0.2709  0.2964
   20SAPS   H4R 2569   1.413   3.888   2.912 -0.3819  0.2086  0.4862
   20SAPS   H4S 2570   1.374   3.750   2.819  3.9630  0.0960  0.3141
   20SAPS   C25 2571   1.244   3.924   2.783 -0.4836  0.1239 -0.6210
   20SAPS   H5R 2572   1.205   3.910   2.681 -2.5413 -0.7306  0.2282
   20SAPS   C26 2573   1.157   3.973   2.877 -0.8463  0.6260 -0.3574
   20SAPS   H6R 2574   1.054   3.998   2.847 -0.5829  0.6782 -1.2592
   20SAPS   C27 2575   1.189   3.973   3.026 -0.0125  0.3434  0.4661
   20SAPS   H7R 2576   1.277   4.041   3.033  0.1068  0.3906 -1.1729
   20SAPS   H7S 2577   1.225   3.873   3.060  1.5679  0.8490  0.3860
   20SAPS   C28 2578   1.076   4.021   3.116 -0.9780 -0.0608  0.0394
   20SAPS   H8R 2579   0.973   4.018   3.078 -1.2185 -1.0110  0.7095
   20SAPS   C29 2580   1.102   4.069   3.239 -0.3283  0.8567 -0.1728
   20SAPS   H9R 2581   1.022   4.106   3.305  2.1505  2.5393  2.1422
   20SAPS  C210 2582   1.238   4.078   3.308 -0.3432 -0.2543 -0.0425
   20SAPS  H10R 2583   1.325   4.071   3.239  0.1724 -1.4753  0.7082
   20SAPS  H10S 2584   1.249   3.992   3.377  1.1068 -0.9446 -1.0776
   20SAPS  C211 2585   1.247   4.220   3.365  0.6703  0.1064 -0.8750
   20SAPS  H11R 2586   1.272   4.298   3.292  1.2867  1.3568  0.6313
   20SAPS  C212 2587   1.247   4.251   3.495  1.2945 -0.2850  0.4493
   20SAPS  H12R 2588   1.270   4.353   3.527 -4.4644  0.9044  1.9036
   20SAPS  C213 2589   1.236   4.170   3.616  1.0326  0.1833  0.1957
   20SAPS  H13R 2590   1.260   4.228   3.707 -1.2190 -1.0742  1.6875
   20SAPS  H13S 2591   1.323   4.102   3.601  1.0361  0.7135 -2.8020
   20SAPS  C214 2592   1.116   4.082   3.642 -0.0861  0.1627  0.0369
   20SAPS  H14R 2593   1.030   4.083   3.573 -0.5914  1.9699  0.6430
   20SAPS  C215 2594   1.110   4.003   3.747  0.2232  0.7328  1.0487
   20SAPS  H15R 2595   1.017   3.953   3.778  0.2446  1.5699  2.5453
   20SAPS  C216 2596   1.222   3.973   3.855  0.1998  0.2938  1.1898
   20SAPS  H16R 2597   1.311   4.037   3.838 -1.1300  2.0206  0.4322
   20SAPS  H16S 2598   1.252   3.866   3.849 -0.7251  0.0707  0.0761
   20SAPS  C217 2599   1.171   4.004   3.993 -0.4993  0.0577 -0.1641
   20SAPS  H17R 2600   1.064   3.973   4.002 -0.2887 -0.4805  0.6265
   20SAPS  H17S 2601   1.179   4.114   4.005 -0.1559 -0.1808  2.3071
   20SAPS  C218 2602   1.264   3.958   4.103 -0.3348 -0.5654  0.2620
   20SAPS  H18R 2603   1.285   3.849   4.109  0.1380 -0.4472  0.7954
   20SAPS  H18S 2604   1.208   3.986   4.195 -1.1367 -0.8898 -0.1179
   20SAPS  C219 2605   1.395   4.041   4.103  0.1005 -0.0449  0.4669
   20SAPS  H19R 2606   1.361   4.146   4.110 -1.5997 -0.4616 -0.8207
   20SAPS  H19S 2607   1.464   4.021   4.018  0.5814  2.2930  0.2412
   20SAPS  C220 2608   1.485   3.999   4.221  0.2752  0.5792 -0.8296
   20SAPS  H20R 2609   1.497   3.889   4.215  0.6297  0.6472 -1.5246
   20SAPS  H20S 2610   1.435   4.014   4.319  0.2139 -1.1157 -0.5789
   20SAPS  H20T 2611   1.583   4.052   4.216 -0.2156  1.3976 -3.0852
   20SAPS   C33 2612   1.600   3.629   2.986 -0.1763  0.6391  0.1662
   20SAPS   H3X 2613   1.515   3.632   2.914  0.4461 -0.3475 -0.6416
   20SAPS   H3Y 2614   1.670   3.710   2.955  0.7556 -0.1100  0.2655
   20SAPS   C34 2615   1.576   3.634   3.138 -0.3458 -0.1556  0.3200
   20SAPS   H4X 2616   1.677   3.639   3.183  0.0186  2.4591 -0.6285
   20SAPS   H4Y 2617   1.528   3.536   3.159  1.1472 -0.8250  0.6906
   20SAPS   C35 2618   1.472   3.738   3.188  0.2848 -0.3571  0.6467
   20SAPS   H5X 2619   1.391   3.739   3.112  0.7706  0.8709  0.1261
   20SAPS   H5Y 2620   1.520   3.838   3.181  1.6947 -1.0179  0.5539
   20SAPS   C36 2621   1.411   3.704   3.324 -0.1290  0.3143  0.2461
   20SAPS   H6X 2622   1.339   3.621   3.306 -1.6884  1.5366  0.6151
   20SAPS   H6Y 2623   1.338   3.784   3.349 -0.9963 -0.0081 -1.1084
   20SAPS   C37 2624   1.509   3.688   3.440  0.5267 -0.8309 -0.3129
   20SAPS   H7X 2625   1.584   3.611   3.414 -0.4286 -1.9867  0.2691
   20SAPS   H7Y 2626   1.442   3.645   3.517 -0.9939  1.5581 -0.2009
   20SAPS   C38 2627   1.571   3.818   3.490 -0.2746  0.1594  0.1922
   20SAPS   H8X 2628   1.498   3.902   3.497  0.8573  1.1708  0.2145
   20SAPS   H8Y 2629   1.639   3.845   3.406  2.0368 -0.0078  1.9425
   20SAPS   C39 2630   1.645   3.795   3.623 -0.7255 -1.1645  0.5320
   20SAPS   H9X 2631   1.697   3.891   3.646  0.5476 -1.0367 -2.4132
   20SAPS   H9Y 2632   1.730   3.727   3.602 -0.6643 -1.1642  0.7750
   20SAPS  C310 2633   1.565   3.743   3.745 -0.0226  0.1636  0.3927
   20SAPS  H10X 2634   1.526   3.641   3.729 -2.2225  0.8776  0.8994
   20SAPS  H10Y 2635   1.471   3.801   3.741 -0.7175 -1.0005 -0.7567
   20SAPS  C311 2636   1.635   3.763   3.885 -0.1181 -0.0761  1.1223
   20SAPS  H11X 2637   1.580   3.697   3.956 -0.7808 -0.2736  0.4377
   20SAPS  H11Y 2638   1.613   3.868   3.914  0.0933  1.6166 -3.8958
   20SAPS  C312 2639   1.782   3.737   3.888 -1.0526  0.2506  0.5186
   20SAPS  H12X 2640   1.834   3.805   3.816  0.3008  0.6572  1.8489
   20SAPS  H12Y 2641   1.795   3.636   3.845  0.6612  1.1347 -1.2046
   20SAPS  C313 2642   1.838   3.746   4.033 -0.4694  0.1941  0.1320
   20SAPS  H13X 2643   1.773   3.696   4.107 -1.6825  2.1001  0.4388
   20SAPS  H13Y 2644   1.854   3.852   4.064 -0.9327  0.3265 -0.0628
   20SAPS  C314 2645   1.978   3.678   4.042 -0.0624  0.5224 -0.7142
   20SAPS  H14X 2646   2.035   3.697   3.948  1.1021  1.5981  0.1779
   20SAPS  H14Y 2647   1.959   3.569   4.041 -0.2559  0.5546 -1.2127
   20SAPS  C315 2648   2.054   3.714   4.170  0.7402 -0.0356 -0.1549
   20SAPS  H15X 2649   2.059   3.824   4.157 -2.4660  0.0594 -1.5025
   20SAPS  H15Y 2650   2.158   3.676   4.182  0.6734  0.1111  1.0777
   20SAPS  C316 2651   1.975   3.689   4.300  0.3656 -0.3861  0.1294
   20SAPS  H16X 2652   1.938   3.586   4.315  0.3330 -0.3497  0.3073
   20SAPS  H16Y 2653   1.879   3.743   4.287  0.6950 -0.0069 -0.8223
   20SAPS  C317 2654   2.064   3.730   4.416  0.4906 -0.1268  0.7647
   20SAPS  H17X 2655   2.110   3.831   4.406 -0.6709  0.3367 -0.0302
   20SAPS  H17Y 2656   2.141   3.650   4.413 -0.6071 -1.2323 -3.0095
   20SAPS  C318 2657   2.009   3.712   4.554  0.6472 -0.1978  0.1281
   20SAPS  H18X 2658   2.021   3.614   4.603 -1.5280  0.4338  2.1578
   20SAPS  H18Y 2659   1.901   3.739   4.552  1.0127  1.3217 -0.7654
   20SAPS  H18Z 2660   2.058   3.787   4.619 -0.2849  0.3772  0.1924
   21CHL1    C3 2661   5.591   2.963   5.860  0.7172  0.0177 -0.5050
   21CHL1    H3 2662   5.493   2.917   5.836 -1.2931  2.7565  1.7599
   21CHL1    O3 2663   5.584   3.032   5.982  0.1328 -0.0629  0.4561
   21CHL1   H3' 2664   5.611   3.122   5.962  1.2364 -0.4291  0.2284
   21CHL1    C4 2665   5.695   2.859   5.860  0.3010  0.0220  0.5810
   21CHL1   H4A 2666   5.796   2.902   5.879  0.4836 -0.9552  1.9658
   21CHL1   H4B 2667   5.690   2.797   5.952  0.4527  1.3117  1.4809
   21CHL1    C5 2668   5.711   2.791   5.727 -0.2777 -0.4256 -0.4028
   21CHL1    C6 2669   5.689   2.659   5.718  0.0923  0.0271  0.1294
   21CHL1    H6 2670   5.649   2.606   5.805 -0.8620  0.5597  0.0279
   21CHL1    C7 2671   5.706   2.585   5.588  0.9680 -0.1530 -0.2476
   21CHL1   H7A 2672   5.754   2.486   5.604  0.2355 -0.7750 -1.6478
   21CHL1   H7B 2673   5.605   2.567   5.545  0.7610 -1.3693  0.7181
   21CHL1    C8 2674   5.788   2.666   5.482 -0.2589  0.1123 -0.4293
   21CHL1    H8 2675   5.895   2.661   5.513 -0.3945  0.5656  0.1344
   21CHL1   C14 2676   5.774   2.602   5.344 -0.1600  0.1660  0.4545
   21CHL1   H14 2677   5.668   2.605   5.312 -0.1174 -0.0439  0.2920
   21CHL1   C15 2678   5.804   2.456   5.332 -0.3972  0.5764  0.0932
   21CHL1  H15A 2679   5.896   2.433   5.390 -0.6273 -0.4819  0.0661
   21CHL1  H15B 2680   5.732   2.385   5.378  0.5115 -1.7110 -1.7777
   21CHL1   C16 2681   5.834   2.435   5.179  0.6132  0.1822  0.8997
   21CHL1  H16A 2682   5.940   2.406   5.164  1.0337  2.0360 -0.0983
   21CHL1  H16B 2683   5.775   2.351   5.136  1.4471  1.9221 -4.3298
   21CHL1   C17 2684   5.826   2.572   5.120  0.5298  0.1242  0.7391
   21CHL1   H17 2685   5.723   2.600   5.089  0.0718  1.8712  3.4834
   21CHL1   C13 2686   5.841   2.673   5.233 -0.1291  0.0280 -0.0208
   21CHL1   C18 2687   5.988   2.684   5.261 -0.7131 -0.2157 -0.2452
   21CHL1  H18A 2688   6.033   2.752   5.186  1.1751 -1.0349  0.0831
   21CHL1  H18B 2689   6.022   2.708   5.364 -3.1623  0.6956  0.4260
   21CHL1  H18C 2690   6.018   2.579   5.237 -1.0083 -0.1850 -0.7678
   21CHL1   C12 2691   5.777   2.812   5.223  0.4805  0.1363 -0.3617
   21CHL1  H12A 2692   5.832   2.853   5.136  1.3546 -3.3713 -1.6083
   21CHL1  H12B 2693   5.673   2.791   5.190  0.9664 -0.7166 -1.3945
   21CHL1   C11 2694   5.781   2.893   5.355  1.1038 -0.2898  0.0011
   21CHL1  H11A 2695   5.887   2.924   5.371  0.8923 -0.1982  1.3168
   21CHL1  H11B 2696   5.718   2.982   5.334 -0.1973 -1.1792  0.0317
   21CHL1    C9 2697   5.729   2.811   5.478  0.0569 -0.5006 -0.2761
   21CHL1    H9 2698   5.620   2.795   5.466 -0.0840  0.0333  0.2239
   21CHL1   C10 2699   5.749   2.878   5.611  0.1427 -0.3625  0.0626
   21CHL1   C19 2700   5.891   2.930   5.623 -0.1287 -0.6943 -0.1317
   21CHL1  H19A 2701   5.906   3.020   5.558 -3.4574 -0.3378 -0.5577
   21CHL1  H19B 2702   5.917   2.964   5.725 -1.8751 -0.1280  0.1462
   21CHL1  H19C 2703   5.962   2.847   5.602  0.4769 -0.1503 -0.2982
   21CHL1    C1 2704   5.647   2.991   5.611  0.2995  0.6643  0.2516
   21CHL1   H1A 2705   5.680   3.066   5.536  0.2465  0.6228  0.1863
   21CHL1   H1B 2706   5.542   2.965   5.584 -0.6998  2.2541  2.3463
   21CHL1    C2 2707   5.628   3.064   5.749 -1.0519  0.0357 -0.6200
   21CHL1   H2A 2708   5.544   3.137   5.744 -2.1042 -1.0942 -0.1257
   21CHL1   H2B 2709   5.720   3.104   5.796 -0.0273 -1.4188 -1.3315
   21CHL1   C20 2710   5.912   2.594   4.990  0.4877  0.3897  0.8330
   21CHL1   H20 2711   6.018   2.591   5.023  0.6454 -1.2689  0.2857
   21CHL1   C21 2712   5.874   2.726   4.916 -1.0332  0.5588 -0.7493
   21CHL1  H21A 2713   5.764   2.726   4.903 -0.8747 -1.8291 -2.8666
   21CHL1  H21B 2714   5.930   2.715   4.821  0.4643 -2.4681  0.3323
   21CHL1  H21C 2715   5.906   2.824   4.957 -2.2503  1.3497 -1.6223
   21CHL1   C22 2716   5.894   2.471   4.893 -0.1440 -0.0131  1.2203
   21CHL1  H22A 2717   5.898   2.370   4.939 -3.3244 -1.0715 -0.5098
   21CHL1  H22B 2718   5.788   2.472   4.860  0.0091  0.4498  0.7359
   21CHL1   C23 2719   5.978   2.458   4.770  0.1976 -0.6001  0.3609
   21CHL1  H23A 2720   5.967   2.550   4.708 -1.1303 -0.9941 -0.0185
   21CHL1  H23B 2721   6.082   2.435   4.804 -0.3235 -2.1782  0.9911
   21CHL1   C24 2722   5.937   2.340   4.669 -0.0498 -0.3719  0.1114
   21CHL1  H24A 2723   5.936   2.249   4.732 -1.4960  0.5172  1.4627
   21CHL1  H24B 2724   5.836   2.369   4.634 -0.4007  1.5588  2.4168
   21CHL1   C25 2725   6.025   2.317   4.548  0.1834 -0.4054  0.7190
   21CHL1   H25 2726   6.128   2.309   4.589  1.5032 -0.9927 -2.4341
   21CHL1   C26 2727   5.975   2.190   4.473 -0.7996 -0.6460 -0.4542
   21CHL1  H26A 2728   5.877   2.225   4.432 -1.1171  0.4746  1.1561
   21CHL1  H26B 2729   6.038   2.150   4.391 -1.9771 -2.8313 -0.3720
   21CHL1  H26C 2730   5.953   2.106   4.542  2.2655 -1.9474 -0.9205
   21CHL1   C27 2731   6.020   2.434   4.453 -0.6582  0.2003 -0.6707
   21CHL1  H27A 2732   5.921   2.465   4.415 -1.0764 -1.1650 -0.7619
   21CHL1  H27B 2733   6.059   2.529   4.494  0.1472 -0.8976  1.2471
   21CHL1  H27C 2734   6.079   2.406   4.362  0.5600 -1.8935  0.6857
   22CHL1    C3 2735   5.626   2.193   5.681  0.2426 -0.1834  0.1820
   22CHL1    H3 2736   5.677   2.291   5.665 -0.4152 -0.0382 -1.0702
   22CHL1    O3 2737   5.628   2.156   5.818 -0.1038 -0.0741  0.2255
   22CHL1   H3' 2738   5.572   2.078   5.820 -0.1697 -0.0193  1.7254
   22CHL1    C4 2739   5.482   2.201   5.633  0.4320 -0.6578  0.4045
   22CHL1   H4A 2740   5.427   2.106   5.648 -1.0596  0.1872  0.4220
   22CHL1   H4B 2741   5.431   2.283   5.689  0.9107 -1.5961  2.2994
   22CHL1    C5 2742   5.479   2.222   5.483  0.1079 -0.7090  0.0300
   22CHL1    C6 2743   5.409   2.319   5.428  0.0763 -0.6082  0.4193
   22CHL1    H6 2744   5.352   2.397   5.481 -1.3690 -0.4896 -1.2149
   22CHL1    C7 2745   5.398   2.337   5.279  0.0808 -1.0708  0.1390
   22CHL1   H7A 2746   5.291   2.357   5.256  0.1875 -1.3587 -0.6721
   22CHL1   H7B 2747   5.456   2.427   5.248 -0.8292  0.0220  1.5099
   22CHL1    C8 2748   5.436   2.207   5.201 -0.0157 -0.2923 -0.0097
   22CHL1    H8 2749   5.351   2.136   5.215 -2.1497  2.1525  0.1808
   22CHL1   C14 2750   5.462   2.252   5.054 -0.0272  0.7202  0.4788
   22CHL1   H14 2751   5.550   2.320   5.053  1.5383 -0.9892 -3.9976
   22CHL1   C15 2752   5.356   2.334   4.985 -0.0075  1.2201 -0.0274
   22CHL1  H15A 2753   5.254   2.294   5.005  0.9373 -1.1408  0.3748
   22CHL1  H15B 2754   5.353   2.439   5.019  0.5985  1.1520  0.2381
   22CHL1   C16 2755   5.402   2.323   4.838  0.4098  0.6726  0.0582
   22CHL1  H16A 2756   5.311   2.287   4.785  0.3701  0.9077 -0.0360
   22CHL1  H16B 2757   5.430   2.420   4.792  0.8849  0.6251  0.2417
   22CHL1   C17 2758   5.518   2.221   4.828 -0.3775 -0.4342 -0.5132
   22CHL1   H17 2759   5.609   2.282   4.842  0.0660 -1.0195 -0.7656
   22CHL1   C13 2760   5.497   2.142   4.954 -0.2685 -0.6692 -0.2933
   22CHL1   C18 2761   5.375   2.048   4.938  0.2117  0.2823 -0.6838
   22CHL1  H18A 2762   5.298   2.107   4.885  1.4852  3.3217  0.6434
   22CHL1  H18B 2763   5.411   1.953   4.892 -0.2348  0.0576 -0.5816
   22CHL1  H18C 2764   5.322   2.037   5.035 -0.0434  0.0655 -0.8464
   22CHL1   C12 2765   5.628   2.068   5.010  0.6396  0.0678  0.4443
   22CHL1  H12A 2766   5.656   1.979   4.950  0.4523  1.3236 -1.6393
   22CHL1  H12B 2767   5.713   2.140   5.003 -0.1243  0.9023 -0.8265
   22CHL1   C11 2768   5.611   2.031   5.160 -0.5068  0.0728 -0.0633
   22CHL1  H11A 2769   5.529   1.956   5.164  0.3468 -0.8628  0.3115
   22CHL1  H11B 2770   5.695   1.980   5.210 -0.3134  1.5582  1.1731
   22CHL1    C9 2771   5.561   2.148   5.251 -0.1943 -0.2938 -0.3012
   22CHL1    H9 2772   5.637   2.230   5.253 -0.8294  0.2920  1.3091
   22CHL1   C10 2773   5.555   2.117   5.399 -0.0197 -0.4293 -0.3204
   22CHL1   C19 2774   5.482   1.981   5.416  0.6262 -0.5724  0.9785
   22CHL1  H19A 2775   5.383   1.996   5.369  1.4001  1.2110 -0.1782
   22CHL1  H19B 2776   5.541   1.907   5.358  0.8460  0.5248 -0.2345
   22CHL1  H19C 2777   5.478   1.943   5.521  2.3009  0.0342  1.2903
   22CHL1    C1 2778   5.700   2.105   5.463 -0.2645  0.2459  0.2442
   22CHL1   H1A 2779   5.752   2.012   5.431 -0.1433 -0.0611  1.3164
   22CHL1   H1B 2780   5.762   2.196   5.451 -1.1695  1.0103  1.1752
   22CHL1    C2 2781   5.706   2.085   5.616 -0.0096 -0.0048 -0.0452
   22CHL1   H2A 2782   5.809   2.077   5.657 -0.2313  1.2675  0.8389
   22CHL1   H2B 2783   5.648   1.992   5.632  0.0653  0.2583  2.1481
   22CHL1   C20 2784   5.524   2.153   4.685 -0.7365  0.0189  0.1478
   22CHL1   H20 2785   5.431   2.092   4.678 -1.2711  0.5253  2.2812
   22CHL1   C21 2786   5.648   2.064   4.670  0.0720  0.0812 -0.1568
   22CHL1  H21A 2787   5.746   2.110   4.695 -1.1082  1.1705  2.8910
   22CHL1  H21B 2788   5.665   2.029   4.565  1.5803 -2.3118  0.7827
   22CHL1  H21C 2789   5.634   1.972   4.731  0.2975 -0.4248 -0.8503
   22CHL1   C22 2790   5.529   2.260   4.576  0.3802 -0.9640 -0.3633
   22CHL1  H22A 2791   5.450   2.336   4.589  0.2922 -0.7308 -2.0028
   22CHL1  H22B 2792   5.626   2.313   4.585  1.6392 -2.5523 -3.1069
   22CHL1   C23 2793   5.490   2.214   4.433  0.7251  0.7807  0.4101
   22CHL1  H23A 2794   5.557   2.127   4.416  0.6111  1.0383 -1.5998
   22CHL1  H23B 2795   5.385   2.182   4.447  0.8435  0.2392  0.0916
   22CHL1   C24 2796   5.499   2.318   4.321  0.5422  0.3857  0.4132
   22CHL1  H24A 2797   5.415   2.381   4.358 -0.1405 -0.2929  0.0502
   22CHL1  H24B 2798   5.591   2.381   4.324  1.4215 -0.9002  1.8579
   22CHL1   C25 2799   5.479   2.266   4.175  0.5488 -0.2922 -0.2273
   22CHL1   H25 2800   5.407   2.182   4.186 -0.3982  0.7594  2.4514
   22CHL1   C26 2801   5.424   2.394   4.099  0.3127  0.5942  0.4559
   22CHL1  H26A 2802   5.495   2.478   4.107  0.8419  0.2309 -0.3120
   22CHL1  H26B 2803   5.411   2.379   3.990  2.0728  1.2084  0.1385
   22CHL1  H26C 2804   5.330   2.435   4.142 -0.0652 -1.8388  2.1656
   22CHL1   C27 2805   5.608   2.221   4.122  0.3857 -0.0757  0.5782
   22CHL1  H27A 2806   5.592   2.168   4.026  2.4454 -0.6073  0.4805
   22CHL1  H27B 2807   5.682   2.303   4.107  1.0424 -0.7179  0.2406
   22CHL1  H27C 2808   5.666   2.150   4.185  0.9739 -0.3170 -0.2211
   23CHL1    C3 2809   4.944   2.172   5.672  0.7431  0.4758  0.4888
   23CHL1    H3 2810   4.949   2.279   5.642 -2.1541 -0.3318 -3.7110
   23CHL1    O3 2811   4.936   2.167   5.813 -0.2923 -0.1612 -0.1181
   23CHL1   H3' 2812   4.921   2.076   5.837 -0.1364 -0.7614 -2.1357
   23CHL1    C4 2813   4.821   2.106   5.614 -0.0097  0.2158  0.5984
   23CHL1   H4A 2814   4.815   2.000   5.645 -1.6049  0.0600 -0.1609
   23CHL1   H4B 2815   4.743   2.166   5.665  0.4409 -0.5799  2.2989
   23CHL1    C5 2816   4.817   2.119   5.467 -0.1401 -0.1311 -0.2402
   23CHL1    C6 2817   4.722   2.197   5.404 -0.0615 -0.0892  0.0532
   23CHL1    H6 2818   4.638   2.231   5.466 -0.9868 -0.0209 -1.2019
   23CHL1    C7 2819   4.714   2.222   5.258 -1.1876  0.8513  0.0916
   23CHL1   H7A 2820   4.607   2.208   5.233 -1.4928 -0.1134  1.7420
   23CHL1   H7B 2821   4.743   2.327   5.237 -0.9196  0.6053 -0.7977
   23CHL1    C8 2822   4.799   2.127   5.177 -0.6168 -0.2789 -0.2255
   23CHL1    H8 2823   4.756   2.025   5.170  0.8720 -0.8093 -2.9998
   23CHL1   C14 2824   4.811   2.173   5.032 -0.0289  0.0175  0.0234
   23CHL1   H14 2825   4.874   2.265   5.034  0.3879 -0.2436  2.5094
   23CHL1   C15 2826   4.684   2.199   4.949 -0.1971  0.0250  0.4902
   23CHL1  H15A 2827   4.603   2.123   4.956  0.4323 -1.0901 -2.7673
   23CHL1  H15B 2828   4.642   2.298   4.978 -0.3293 -0.2247  1.1736
   23CHL1   C16 2829   4.731   2.194   4.801 -0.1428  0.1250  0.2297
   23CHL1  H16A 2830   4.660   2.120   4.757  0.3564 -0.8923  1.0988
   23CHL1  H16B 2831   4.710   2.295   4.758 -2.1481 -0.4075 -0.1695
   23CHL1   C17 2832   4.877   2.151   4.805 -0.4413  0.5068 -0.3483
   23CHL1   H17 2833   4.945   2.238   4.816  1.7881 -1.5230  4.6906
   23CHL1   C13 2834   4.897   2.078   4.940  0.4056 -0.1185  0.5273
   23CHL1   C18 2835   4.824   1.939   4.933  0.0724  0.5229  0.0628
   23CHL1  H18A 2836   4.882   1.877   4.861  0.6897 -1.5511  2.2165
   23CHL1  H18B 2837   4.827   1.887   5.032 -0.7068  1.8601  0.8159
   23CHL1  H18C 2838   4.719   1.946   4.899  0.4644  2.1676 -0.9083
   23CHL1   C12 2839   5.039   2.072   5.000 -0.5854  0.6699 -0.2741
   23CHL1  H12A 2840   5.103   2.009   4.936 -2.2022  0.3322 -1.6376
   23CHL1  H12B 2841   5.091   2.170   5.000  0.2583  0.2267 -0.6241
   23CHL1   C11 2842   5.034   2.015   5.149 -0.0694  0.3210  0.3215
   23CHL1  H11A 2843   4.995   1.911   5.146 -1.1827  0.7423 -0.7269
   23CHL1  H11B 2844   5.138   2.019   5.187  0.6564 -1.3203 -1.3423
   23CHL1    C9 2845   4.944   2.105   5.242 -0.8418  0.0517 -0.1755
   23CHL1    H9 2846   4.990   2.206   5.242  0.0725 -0.3230  1.2880
   23CHL1   C10 2847   4.939   2.064   5.393 -0.1692 -0.0985 -0.2000
   23CHL1   C19 2848   4.918   1.915   5.387 -0.4555 -0.1438  0.2634
   23CHL1  H19A 2849   4.900   1.876   5.489  0.9027 -1.7621 -0.0622
   23CHL1  H19B 2850   4.826   1.882   5.334 -0.4367 -1.3718  0.9566
   23CHL1  H19C 2851   5.003   1.854   5.349 -0.7007 -0.8456  0.8252
   23CHL1    C1 2852   5.072   2.102   5.465 -0.2277  0.3279 -0.9484
   23CHL1   H1A 2853   5.152   2.031   5.437  0.2102  1.2095 -2.0273
   23CHL1   H1B 2854   5.096   2.204   5.426  2.0545  1.3240  2.5751
   23CHL1    C2 2855   5.070   2.097   5.627 -0.7396 -0.0646  0.6452
   23CHL1   H2A 2856   5.171   2.135   5.655 -0.1546 -1.3181  0.3124
   23CHL1   H2B 2857   5.065   1.993   5.665 -1.2936 -0.5730 -0.7598
   23CHL1   C20 2858   4.917   2.085   4.670 -0.3766  0.8804  0.0734
   23CHL1   H20 2859   4.859   1.990   4.661  0.4217  0.4209 -0.3956
   23CHL1   C21 2860   5.063   2.050   4.660 -0.8291  0.0401  0.1258
   23CHL1  H21A 2861   5.081   1.953   4.713  2.7423 -0.8956 -2.4089
   23CHL1  H21B 2862   5.122   2.136   4.698 -0.5929 -0.0096 -0.1257
   23CHL1  H21C 2863   5.104   2.036   4.558  0.6956 -1.0303  0.8432
   23CHL1   C22 2864   4.883   2.186   4.552 -0.2675  0.1621  0.2938
   23CHL1  H22A 2865   4.774   2.208   4.547 -0.7224 -1.6049  1.5003
   23CHL1  H22B 2866   4.932   2.283   4.575 -0.0788  0.1037  0.1423
   23CHL1   C23 2867   4.919   2.141   4.410 -0.0691 -0.2788  0.3255
   23CHL1  H23A 2868   5.030   2.135   4.398  0.2026  1.5454  1.4613
   23CHL1  H23B 2869   4.869   2.046   4.384  0.9607 -0.2046 -2.1751
   23CHL1   C24 2870   4.866   2.244   4.311  0.1812 -0.2860  0.0340
   23CHL1  H24A 2871   4.755   2.248   4.320  0.2532 -0.3960  1.0620
   23CHL1  H24B 2872   4.898   2.341   4.354 -2.7209  1.3981 -1.3082
   23CHL1   C25 2873   4.917   2.242   4.169 -0.9179 -0.0927  0.5813
   23CHL1   H25 2874   4.933   2.137   4.136  1.9795  0.7005 -0.8475
   23CHL1   C26 2875   4.815   2.304   4.069  0.2067  0.1816  0.2530
   23CHL1  H26A 2876   4.812   2.412   4.092 -2.4357  0.0531  0.8471
   23CHL1  H26B 2877   4.856   2.299   3.966 -1.6280  1.4051 -0.5737
   23CHL1  H26C 2878   4.714   2.263   4.088  0.6850 -0.9347  0.4729
   23CHL1   C27 2879   5.056   2.305   4.168 -0.2280 -0.1374 -0.7604
   23CHL1  H27A 2880   5.046   2.410   4.203  0.3290 -0.5543  0.7374
   23CHL1  H27B 2881   5.135   2.251   4.225  1.5954  2.0150 -1.0938
   23CHL1  H27C 2882   5.085   2.306   4.061  1.4794  1.3107 -0.3277
   24CHL1    C3 2883   5.136   3.829   5.927 -0.1559 -0.7998 -0.1254
   24CHL1    H3 2884   5.214   3.772   5.983  1.7478  2.5467  0.8922
   24CHL1    O3 2885   5.035   3.866   6.020  0.1657 -0.3897  0.1651
   24CHL1   H3' 2886   4.998   3.951   5.996 -0.5645 -0.6630  0.2990
   24CHL1    C4 2887   5.199   3.957   5.870 -0.8904  0.2279 -0.1890
   24CHL1   H4A 2888   5.125   4.030   5.830  0.8162 -0.1955 -4.6806
   24CHL1   H4B 2889   5.254   3.998   5.957  1.5659 -1.3415 -0.9122
   24CHL1    C5 2890   5.294   3.920   5.754  0.5140 -0.3393 -0.2815
   24CHL1    C6 2891   5.421   3.965   5.754  0.0873 -0.3978 -0.3027
   24CHL1    H6 2892   5.456   4.012   5.847  0.4575  0.8937 -1.0692
   24CHL1    C7 2893   5.519   3.960   5.639 -0.8559 -0.4862  0.2045
   24CHL1   H7A 2894   5.564   4.057   5.611 -2.5411  0.1262 -0.5498
   24CHL1   H7B 2895   5.607   3.895   5.656 -1.6786 -1.7150 -0.1079
   24CHL1    C8 2896   5.454   3.900   5.514 -0.2187 -0.1239  0.3378
   24CHL1    H8 2897   5.406   3.977   5.449  1.6639  1.5113  0.7852
   24CHL1   C14 2898   5.560   3.831   5.432 -0.3124  0.0491 -0.6558
   24CHL1   H14 2899   5.589   3.742   5.492 -1.6735  0.3236  0.4814
   24CHL1   C15 2900   5.683   3.909   5.390 -0.5336  0.2463  0.4879
   24CHL1  H15A 2901   5.651   4.010   5.360 -0.4802 -0.3097 -1.5797
   24CHL1  H15B 2902   5.755   3.927   5.472  0.5745 -0.3059 -0.3375
   24CHL1   C16 2903   5.740   3.828   5.269  1.3349  0.0599  1.0925
   24CHL1  H16A 2904   5.759   3.894   5.182 -1.1661  0.2899  0.6416
   24CHL1  H16B 2905   5.827   3.773   5.310  1.7699  0.9085  1.3278
   24CHL1   C17 2906   5.636   3.712   5.242  0.4915 -0.0740  0.0403
   24CHL1   H17 2907   5.671   3.617   5.288  0.9930 -1.4891 -2.9991
   24CHL1   C13 2908   5.504   3.761   5.305 -0.6131 -0.7137 -0.0715
   24CHL1   C18 2909   5.438   3.866   5.207 -0.2034 -0.5223  0.5863
   24CHL1  H18A 2910   5.401   3.826   5.111  0.3466  1.4138 -0.4978
   24CHL1  H18B 2911   5.350   3.914   5.254 -0.7175 -2.0227  1.2211
   24CHL1  H18C 2912   5.511   3.946   5.180  1.3581 -1.5296  1.6878
   24CHL1   C12 2913   5.417   3.641   5.343 -0.1281  0.0901 -0.5804
   24CHL1  H12A 2914   5.366   3.604   5.251 -0.1375  0.7675 -0.8559
   24CHL1  H12B 2915   5.467   3.553   5.387  1.7879  0.9611 -0.8982
   24CHL1   C11 2916   5.311   3.695   5.435 -0.5681 -0.2341 -0.1512
   24CHL1  H11A 2917   5.251   3.762   5.370  0.8538  2.7070  1.3811
   24CHL1  H11B 2918   5.244   3.614   5.471 -0.5094  0.2334  1.0510
   24CHL1    C9 2919   5.353   3.788   5.551 -0.2034 -0.1431  0.1567
   24CHL1    H9 2920   5.408   3.722   5.622  0.3782 -0.2666 -0.4009
   24CHL1   C10 2921   5.236   3.839   5.642  0.0020  0.1455  0.3084
   24CHL1   C19 2922   5.143   3.920   5.557 -0.3560 -0.5800  0.8480
   24CHL1  H19A 2923   5.202   3.998   5.504 -0.3612 -0.5958  0.8186
   24CHL1  H19B 2924   5.098   3.861   5.475  0.5190 -1.4312  0.9562
   24CHL1  H19C 2925   5.059   3.959   5.618 -1.4538 -1.1934 -0.2397
   24CHL1    C1 2926   5.163   3.717   5.707 -0.6037 -0.0949 -0.8687
   24CHL1   H1A 2927   5.098   3.698   5.619 -3.1775  1.3149  0.6021
   24CHL1   H1B 2928   5.234   3.636   5.734 -1.7685 -0.7419  0.4012
   24CHL1    C2 2929   5.067   3.750   5.816  0.5355  0.3988 -0.0153
   24CHL1   H2A 2930   5.029   3.661   5.870  1.1555  0.2507  0.1953
   24CHL1   H2B 2931   4.979   3.799   5.770  0.0720 -0.0592  0.3766
   24CHL1   C20 2932   5.626   3.672   5.085  0.5133  0.3433 -0.0052
   24CHL1   H20 2933   5.569   3.746   5.025  0.9828 -0.7781 -1.8903
   24CHL1   C21 2934   5.564   3.535   5.067  0.0073 -0.1105 -0.3625
   24CHL1  H21A 2935   5.592   3.461   5.145  0.2010 -1.1135 -1.3598
   24CHL1  H21B 2936   5.578   3.495   4.964 -1.6273  1.6076 -1.3394
   24CHL1  H21C 2937   5.453   3.529   5.072  0.1436 -2.9087  1.0121
   24CHL1   C22 2938   5.763   3.666   5.019  0.8167 -0.3232  0.3853
   24CHL1  H22A 2939   5.833   3.751   5.031  1.1898 -0.2579 -1.7749
   24CHL1  H22B 2940   5.819   3.580   5.063 -0.0597 -0.8366  0.5355
   24CHL1   C23 2941   5.766   3.637   4.866 -0.0850 -0.0714 -0.3489
   24CHL1  H23A 2942   5.788   3.530   4.847  1.5332  0.0000  0.9614
   24CHL1  H23B 2943   5.667   3.673   4.828 -0.0402 -0.1152 -0.5066
   24CHL1   C24 2944   5.878   3.715   4.795 -0.7422 -0.0305 -0.0702
   24CHL1  H24A 2945   5.853   3.823   4.802  0.7733  0.6642 -3.2837
   24CHL1  H24B 2946   5.976   3.700   4.846 -1.2475  0.2401  0.9965
   24CHL1   C25 2947   5.892   3.676   4.649 -0.5031  0.5288  0.1226
   24CHL1   H25 2948   5.800   3.687   4.588 -0.7154 -1.0151  0.1305
   24CHL1   C26 2949   6.004   3.770   4.583 -0.8356  0.4357  0.0121
   24CHL1  H26A 2950   5.964   3.873   4.571 -0.2636  1.0238  2.5434
   24CHL1  H26B 2951   6.094   3.776   4.648  0.0519  2.3187 -1.3109
   24CHL1  H26C 2952   6.048   3.727   4.491  2.6680 -1.1640  2.2093
   24CHL1   C27 2953   5.937   3.532   4.639 -0.1063  0.9827 -1.2030
   24CHL1  H27A 2954   5.961   3.505   4.534 -0.0598  0.4530 -1.0591
   24CHL1  H27B 2955   6.021   3.511   4.708  0.2739  1.5556 -1.4823
   24CHL1  H27C 2956   5.855   3.463   4.670 -1.0020  1.6604 -1.9917
   25CHL1    C3 2957   1.899   1.049   5.955 -0.0653  0.2298 -0.0622
   25CHL1    H3 2958   1.848   1.147   5.960 -1.6759 -0.5203 -1.0103
   25CHL1    O3 2959   1.898   0.994   6.087 -0.1745  0.0637  0.3443
   25CHL1   H3' 2960   1.992   0.990   6.106 -0.5182 -1.3157  2.0255
   25CHL1    C4 2961   1.836   0.958   5.850  0.0319 -0.4871 -0.8942
   25CHL1   H4A 2962   1.870   0.852   5.856 -0.5993 -0.6198  0.7377
   25CHL1   H4B 2963   1.730   0.950   5.883  0.3954  1.4062  0.8902
   25CHL1    C5 2964   1.848   1.004   5.706  0.0041 -0.3692  0.7270
   25CHL1    C6 2965   1.742   1.027   5.632  0.1945 -0.0417  0.1625
   25CHL1    H6 2966   1.639   1.012   5.668  0.6917 -0.3635  1.5290
   25CHL1    C7 2967   1.761   1.060   5.483  0.0333  0.6319 -0.1147
   25CHL1   H7A 2968   1.694   0.995   5.422  1.2075 -0.5456 -0.1850
   25CHL1   H7B 2969   1.733   1.164   5.457 -1.9944  0.4993  1.2820
   25CHL1    C8 2970   1.895   1.022   5.430 -0.3160  0.2067 -0.5442
   25CHL1    H8 2971   1.901   0.911   5.427  0.1847  0.2277 -0.2793
   25CHL1   C14 2972   1.920   1.089   5.295 -0.7540 -0.3995  0.0292
   25CHL1   H14 2973   1.931   1.196   5.323 -1.9895 -0.1627 -0.3197
   25CHL1   C15 2974   1.798   1.080   5.192 -0.2443 -0.6342 -0.0338
   25CHL1  H15A 2975   1.765   0.975   5.180 -0.7019 -0.3872 -1.0579
   25CHL1  H15B 2976   1.708   1.132   5.233 -0.3839 -0.7346 -0.2114
   25CHL1   C16 2977   1.866   1.137   5.066  0.9165 -0.0007  0.0774
   25CHL1  H16A 2978   1.847   1.062   4.986  2.2957  0.1611 -0.4304
   25CHL1  H16B 2979   1.808   1.231   5.050  0.2127  0.0153  2.3928
   25CHL1   C17 2980   2.027   1.138   5.094 -0.2832 -0.6243 -0.2061
   25CHL1   H17 2981   2.055   1.240   5.129 -2.0222 -0.9216  2.3065
   25CHL1   C13 2982   2.050   1.061   5.225  0.3891 -0.0164 -0.0916
   25CHL1   C18 2983   2.062   0.908   5.206  0.2993  0.5564  0.8055
   25CHL1  H18A 2984   2.158   0.886   5.154 -0.2627 -1.0413  0.3716
   25CHL1  H18B 2985   2.061   0.861   5.306  0.8896 -0.0709  0.5244
   25CHL1  H18C 2986   1.978   0.866   5.146  0.7142  0.7939  0.0351
   25CHL1   C12 2987   2.169   1.099   5.312  0.4620 -0.1769 -0.2509
   25CHL1  H12A 2988   2.266   1.068   5.268  0.7825 -0.5773  0.7183
   25CHL1  H12B 2989   2.179   1.209   5.324 -2.6450  0.2206 -0.5368
   25CHL1   C11 2990   2.153   1.043   5.460 -0.5214 -0.5191  0.1783
   25CHL1  H11A 2991   2.172   0.934   5.454  1.3386 -0.2599  0.7207
   25CHL1  H11B 2992   2.235   1.089   5.519 -1.2296  0.6345  0.3087
   25CHL1    C9 2993   2.010   1.073   5.518  0.1949  0.1304 -0.3650
   25CHL1    H9 2994   1.993   1.182   5.531  1.9479  0.5049 -1.0192
   25CHL1   C10 2995   1.996   1.017   5.666 -0.2761  0.1195 -0.3521
   25CHL1   C19 2996   2.060   0.875   5.676 -0.2031 -0.2951  0.0521
   25CHL1  H19A 2997   2.169   0.869   5.656 -0.5252 -3.5936 -1.3257
   25CHL1  H19B 2998   2.046   0.830   5.777  0.4113  1.0790  0.7800
   25CHL1  H19C 2999   2.007   0.810   5.603 -1.8745  0.5477  0.4569
   25CHL1    C1 3000   2.073   1.109   5.773  0.4475  0.2164 -0.1599
   25CHL1   H1A 3001   2.181   1.117   5.747  0.6300 -0.8010  0.2430
   25CHL1   H1B 3002   2.036   1.214   5.770  2.1291  0.8218 -1.1178
   25CHL1    C2 3003   2.050   1.073   5.923  0.2300 -0.1400  0.1414
   25CHL1   H2A 3004   2.096   1.141   5.998 -0.3090  1.3042 -0.8002
   25CHL1   H2B 3005   2.111   0.981   5.937  0.7194 -0.0445 -1.1643
   25CHL1   C20 3006   2.118   1.105   4.976 -0.5477  0.3684  0.4394
   25CHL1   H20 3007   2.206   1.057   5.024 -1.3866 -0.0786  1.5952
   25CHL1   C21 3008   2.153   1.239   4.904 -0.1800  0.4805  0.2466
   25CHL1  H21A 3009   2.056   1.288   4.884  0.5388  2.1397  0.6545
   25CHL1  H21B 3010   2.197   1.219   4.804 -1.4745  0.4684 -0.3274
   25CHL1  H21C 3011   2.211   1.309   4.968  1.5524  0.0995 -0.8400
   25CHL1   C22 3012   2.058   1.006   4.878 -0.1041  0.9581 -0.1405
   25CHL1  H22A 3013   2.008   0.920   4.927  0.5980 -0.5371 -1.9453
   25CHL1  H22B 3014   1.983   1.040   4.804 -2.1882 -2.4295  0.2235
   25CHL1   C23 3015   2.170   0.945   4.789  0.8261 -0.6162 -0.5271
   25CHL1  H23A 3016   2.217   1.031   4.736  0.6740 -0.9107 -1.1477
   25CHL1  H23B 3017   2.243   0.906   4.862  0.1182  0.7188  0.9768
   25CHL1   C24 3018   2.140   0.830   4.690  0.7839 -0.1964 -0.4841
   25CHL1  H24A 3019   2.233   0.797   4.639  1.2339  0.4925 -0.1152
   25CHL1  H24B 3020   2.110   0.739   4.746  0.7188 -1.2153 -2.1020
   25CHL1   C25 3021   2.043   0.857   4.567  0.1554  0.3473 -0.0815
   25CHL1   H25 3022   1.944   0.882   4.609  0.1251  1.2103 -0.6322
   25CHL1   C26 3023   2.093   0.969   4.476  0.0554 -0.5884 -0.2671
   25CHL1  H26A 3024   2.194   0.962   4.431  0.9907  0.8612  1.4784
   25CHL1  H26B 3025   2.027   0.991   4.390 -0.2304  1.5698  0.4492
   25CHL1  H26C 3026   2.101   1.060   4.540  2.1302 -0.9389  0.0415
   25CHL1   C27 3027   2.039   0.735   4.477  0.2680  0.0872 -0.6400
   25CHL1  H27A 3028   2.003   0.643   4.528 -0.2525  0.4846 -0.2811
   25CHL1  H27B 3029   1.962   0.760   4.401 -0.6565  0.2696  0.3358
   25CHL1  H27C 3030   2.135   0.722   4.422 -0.7466 -0.1831 -2.4406
   26CHL1    C3 3031   6.689   2.859   6.217 -0.2571  0.1512 -0.1877
   26CHL1    H3 3032   6.795   2.866   6.249 -0.1593  0.9455 -0.6712
   26CHL1    O3 3033   6.597   2.860   6.329  0.2305 -0.7217  0.3877
   26CHL1   H3' 3034   6.531   2.798   6.299  0.8680 -0.4577 -1.7114
   26CHL1    C4 3035   6.661   2.980   6.123  0.5302  0.2910 -0.5028
   26CHL1   H4A 3036   6.552   2.976   6.100  0.5443  0.4097 -0.5937
   26CHL1   H4B 3037   6.691   3.071   6.180  0.7184  0.3450 -0.6901
   26CHL1    C5 3038   6.731   2.967   5.989  0.7331 -0.4344  0.5473
   26CHL1    C6 3039   6.793   3.075   5.936  0.7620  0.4014 -0.0616
   26CHL1    H6 3040   6.777   3.165   5.997  0.0217  0.3393 -0.1514
   26CHL1    C7 3041   6.859   3.074   5.798 -0.1264 -0.2377  0.3119
   26CHL1   H7A 3042   6.843   3.174   5.753 -1.9195 -0.6198  0.0448
   26CHL1   H7B 3043   6.967   3.049   5.806 -0.0416  0.1976  0.5630
   26CHL1    C8 3044   6.799   2.966   5.703 -0.2387 -0.3635 -0.6940
   26CHL1    H8 3045   6.699   3.005   5.674 -0.0458 -0.8351 -2.0580
   26CHL1   C14 3046   6.874   2.940   5.576  0.1852  0.4834 -0.8860
   26CHL1   H14 3047   6.976   2.913   5.611  0.1455  2.4876  1.0205
   26CHL1   C15 3048   6.890   3.060   5.482  0.6124 -0.3091  0.6746
   26CHL1  H15A 3049   6.790   3.106   5.465  1.6750  1.9209  0.0289
   26CHL1  H15B 3050   6.962   3.138   5.514 -0.4594  0.4082  1.4016
   26CHL1   C16 3051   6.923   3.000   5.347 -0.4126 -0.6734 -0.3802
   26CHL1  H16A 3052   6.874   3.042   5.256 -1.5336 -0.1545  0.4374
   26CHL1  H16B 3053   7.031   3.023   5.335 -1.0914  3.3665 -0.2043
   26CHL1   C17 3054   6.906   2.841   5.356  0.2369 -0.1807  0.2602
   26CHL1   H17 3055   7.002   2.796   5.389  0.6988  0.5006 -0.1066
   26CHL1   C13 3056   6.814   2.832   5.484 -0.4030 -0.6888 -0.2263
   26CHL1   C18 3057   6.662   2.861   5.438 -0.3620  0.7691 -0.0973
   26CHL1  H18A 3058   6.661   2.938   5.358 -0.9358 -1.1407 -2.0387
   26CHL1  H18B 3059   6.626   2.770   5.384 -0.4557  1.1238 -0.6467
   26CHL1  H18C 3060   6.591   2.884   5.520 -1.9012  0.3202 -1.2563
   26CHL1   C12 3061   6.833   2.694   5.566 -0.0299 -0.1780 -0.1460
   26CHL1  H12A 3062   6.817   2.604   5.503 -2.9889  0.7335 -0.8870
   26CHL1  H12B 3063   6.939   2.688   5.597 -0.5842 -1.9585  1.5957
   26CHL1   C11 3064   6.740   2.711   5.684 -0.1248  0.3050 -0.2643
   26CHL1  H11A 3065   6.635   2.724   5.651  0.2023  0.5167 -1.2387
   26CHL1  H11B 3066   6.748   2.622   5.751  0.5096  1.0447  0.6704
   26CHL1    C9 3067   6.781   2.830   5.775  0.4224  0.0552  1.1380
   26CHL1    H9 3068   6.881   2.798   5.812  0.4144 -1.5829 -0.1422
   26CHL1   C10 3069   6.700   2.834   5.913  0.7249  0.5609  0.0532
   26CHL1   C19 3070   6.555   2.833   5.863 -0.0990 -0.6432  0.3678
   26CHL1  H19A 3071   6.492   2.842   5.954  2.2349  0.3430  2.0028
   26CHL1  H19B 3072   6.537   2.920   5.795 -0.3138 -0.0823  1.1320
   26CHL1  H19C 3073   6.517   2.752   5.798  2.3910 -3.3215  1.9818
   26CHL1    C1 3074   6.740   2.715   6.013  0.5222 -0.8063 -0.5477
   26CHL1   H1A 3075   6.723   2.618   5.961 -0.5448 -0.4963 -0.8153
   26CHL1   H1B 3076   6.848   2.728   6.033  0.4573  1.0749 -1.2346
   26CHL1    C2 3077   6.658   2.729   6.142  0.3404  0.4963 -0.6302
   26CHL1   H2A 3078   6.683   2.650   6.216 -2.0671 -0.3256 -0.6226
   26CHL1   H2B 3079   6.550   2.726   6.119  0.0947 -1.0383  0.5977
   26CHL1   C20 3080   6.851   2.789   5.218  0.0536 -0.0710 -0.4233
   26CHL1   H20 3081   6.752   2.832   5.191 -0.3104 -0.8431 -0.3538
   26CHL1   C21 3082   6.826   2.636   5.232  0.4849  0.7906  0.7561
   26CHL1  H21A 3083   6.783   2.596   5.138  2.2810  2.6954 -0.9824
   26CHL1  H21B 3084   6.752   2.606   5.310 -1.9947  0.0278 -1.6995
   26CHL1  H21C 3085   6.914   2.573   5.257 -0.8606 -2.2477 -1.5375
   26CHL1   C22 3086   6.942   2.811   5.098 -0.4874 -0.0298 -0.1665
   26CHL1  H22A 3087   6.974   2.917   5.087 -1.5701  0.1228 -2.3275
   26CHL1  H22B 3088   7.033   2.753   5.126 -0.1021  0.4237 -0.4461
   26CHL1   C23 3089   6.899   2.769   4.956  0.2422  0.6279  0.6690
   26CHL1  H23A 3090   6.913   2.659   4.964 -2.9590  0.2352  2.4690
   26CHL1  H23B 3091   6.793   2.802   4.943 -0.0279 -0.1673  0.8348
   26CHL1   C24 3092   6.986   2.820   4.839  1.2279  0.1353 -0.6365
   26CHL1  H24A 3093   6.969   2.928   4.824 -0.3668  0.0374  0.3491
   26CHL1  H24B 3094   7.095   2.808   4.860  1.0754 -2.1054 -0.8699
   26CHL1   C25 3095   6.953   2.753   4.702  0.3102 -0.2278  0.4021
   26CHL1   H25 3096   7.005   2.655   4.691  0.8804 -0.0129  1.0565
   26CHL1   C26 3097   6.803   2.713   4.677 -0.3800  0.0718 -0.6299
   26CHL1  H26A 3098   6.786   2.674   4.574 -0.2719  2.5483 -1.6633
   26CHL1  H26B 3099   6.775   2.639   4.755  0.4791  3.1342  2.8384
   26CHL1  H26C 3100   6.735   2.801   4.691 -0.6206 -0.1718 -0.2353
   26CHL1   C27 3101   7.001   2.842   4.588 -0.4512 -0.2716  0.1968
   26CHL1  H27A 3102   6.958   2.944   4.592  1.5015  0.5670  1.3931
   26CHL1  H27B 3103   7.112   2.846   4.599 -0.4132 -3.5581  2.4918
   26CHL1  H27C 3104   6.976   2.793   4.491  0.8632 -1.7906  0.5689
   27CHL1    C3 3105   3.892   0.461   5.963 -0.2503  0.7202  0.6707
   27CHL1    H3 3106   4.000   0.464   5.939 -0.1862 -0.6717  0.7216
   27CHL1    O3 3107   3.893   0.472   6.105 -0.1584 -0.1266  0.2141
   27CHL1   H3' 3108   3.807   0.457   6.145 -0.5604  1.2875 -0.0473
   27CHL1    C4 3109   3.817   0.581   5.901 -0.2684  0.3281 -0.1286
   27CHL1   H4A 3110   3.716   0.596   5.947 -0.7783  2.3803 -1.7590
   27CHL1   H4B 3111   3.873   0.673   5.926 -1.7239  0.9603  0.9509
   27CHL1    C5 3112   3.801   0.569   5.754  0.7289 -0.3064 -0.8038
   27CHL1    C6 3113   3.841   0.668   5.671 -0.4198  0.2655  0.8346
   27CHL1    H6 3114   3.895   0.757   5.707  1.4055 -0.2815 -0.4598
   27CHL1    C7 3115   3.826   0.667   5.526 -0.2799  0.0664 -0.2784
   27CHL1   H7A 3116   3.772   0.762   5.505 -4.3877 -1.5599  1.7600
   27CHL1   H7B 3117   3.924   0.662   5.473 -0.6603 -1.3914 -0.8963
   27CHL1    C8 3118   3.733   0.554   5.472 -0.1159 -0.3438 -0.1998
   27CHL1    H8 3119   3.627   0.585   5.483  0.3594  1.9174 -1.2737
   27CHL1   C14 3120   3.755   0.531   5.318  0.6306  0.1628  0.5140
   27CHL1   H14 3121   3.850   0.475   5.307 -1.0043 -3.2684  2.1254
   27CHL1   C15 3122   3.769   0.654   5.228 -0.1229  0.1716 -0.1417
   27CHL1  H15A 3123   3.682   0.722   5.234 -0.2990  0.0836 -1.3633
   27CHL1  H15B 3124   3.868   0.701   5.245  0.0893 -0.1892 -0.3751
   27CHL1   C16 3125   3.763   0.597   5.086 -0.4130  0.7383 -0.3946
   27CHL1  H16A 3126   3.683   0.655   5.035 -1.4749 -0.0547  0.3335
   27CHL1  H16B 3127   3.862   0.608   5.035 -0.8248  0.8731 -1.1851
   27CHL1   C17 3128   3.720   0.444   5.110 -0.1497 -0.8233  0.7699
   27CHL1   H17 3129   3.809   0.379   5.111 -0.0276 -0.7398 -0.9780
   27CHL1   C13 3130   3.660   0.436   5.246  0.4363  0.3678 -0.2203
   27CHL1   C18 3131   3.508   0.485   5.259  0.0584 -1.0682 -0.0127
   27CHL1  H18A 3132   3.472   0.493   5.364  0.2708  3.2548 -0.1114
   27CHL1  H18B 3133   3.504   0.586   5.214  0.3810 -0.6866  0.8002
   27CHL1  H18C 3134   3.444   0.412   5.206 -1.2291 -1.0498  1.4480
   27CHL1   C12 3135   3.668   0.304   5.320 -0.6440  0.1138  0.6154
   27CHL1  H12A 3136   3.605   0.222   5.279 -0.4662  1.3949 -2.5426
   27CHL1  H12B 3137   3.774   0.273   5.314 -0.4109  1.0298 -0.3338
   27CHL1   C11 3138   3.652   0.319   5.475  0.4127  0.1814 -0.0153
   27CHL1  H11A 3139   3.551   0.352   5.508  0.5290 -0.4735  1.0399
   27CHL1  H11B 3140   3.672   0.217   5.514 -2.6279 -0.4736  0.0819
   27CHL1    C9 3141   3.748   0.415   5.548  0.5954 -0.6457  0.1158
   27CHL1    H9 3142   3.851   0.384   5.522  0.4550  0.5367 -2.1231
   27CHL1   C10 3143   3.736   0.440   5.701  0.3931  0.1565  0.2513
   27CHL1   C19 3144   3.581   0.424   5.735  0.1626  0.5946  0.2142
   27CHL1  H19A 3145   3.554   0.318   5.714 -2.6903  0.6966  2.7312
   27CHL1  H19B 3146   3.563   0.433   5.844  1.9277 -1.6926  0.7848
   27CHL1  H19C 3147   3.522   0.501   5.682  1.0136  0.3016 -1.2107
   27CHL1    C1 3148   3.812   0.317   5.764  0.1185 -0.5090 -0.0703
   27CHL1   H1A 3149   3.763   0.222   5.734  4.1328 -2.4802 -1.1075
   27CHL1   H1B 3150   3.919   0.314   5.734  0.6658 -2.0293  1.7686
   27CHL1    C2 3151   3.819   0.326   5.924  0.0171  0.2432  0.5054
   27CHL1   H2A 3152   3.882   0.241   5.958 -1.5975 -2.3511 -2.4761
   27CHL1   H2B 3153   3.719   0.325   5.973  0.2305 -1.0038  0.9506
   27CHL1   C20 3154   3.632   0.393   4.992 -0.2316  0.4039  0.3756
   27CHL1   H20 3155   3.540   0.454   4.988 -0.8995 -0.6451 -1.5556
   27CHL1   C21 3156   3.603   0.239   5.005 -0.4665 -0.2247 -0.3738
   27CHL1  H21A 3157   3.699   0.194   5.037 -0.8028 -0.2214  0.6540
   27CHL1  H21B 3158   3.562   0.200   4.909  0.0989  1.6356 -1.4156
   27CHL1  H21C 3159   3.526   0.226   5.084 -0.6759  1.8805 -0.1951
   27CHL1   C22 3160   3.704   0.419   4.856 -0.6279  0.5170  0.2320
   27CHL1  H22A 3161   3.729   0.527   4.854 -2.0233  0.8685  0.4572
   27CHL1  H22B 3162   3.796   0.356   4.855 -0.7304  0.2597  2.5672
   27CHL1   C23 3163   3.613   0.404   4.732  0.0673 -0.6125 -0.1986
   27CHL1  H23A 3164   3.583   0.297   4.735 -0.6926 -0.4110 -0.4446
   27CHL1  H23B 3165   3.511   0.444   4.753 -0.7610 -2.1373 -1.1415
   27CHL1   C24 3166   3.687   0.447   4.608 -0.1263 -0.1724  0.1333
   27CHL1  H24A 3167   3.709   0.555   4.621 -1.5382  0.1512 -0.0305
   27CHL1  H24B 3168   3.786   0.396   4.604 -1.0035 -2.2236  2.5185
   27CHL1   C25 3169   3.617   0.413   4.476 -0.4180 -0.3978  0.3965
   27CHL1   H25 3170   3.525   0.474   4.482  1.5712  2.7985  0.8521
   27CHL1   C26 3171   3.702   0.452   4.360 -0.1351 -0.5900 -0.7217
   27CHL1  H26A 3172   3.712   0.562   4.346 -1.2285 -0.4660 -0.5933
   27CHL1  H26B 3173   3.804   0.408   4.363  0.0806 -0.3110 -2.5308
   27CHL1  H26C 3174   3.654   0.433   4.262 -0.7046  1.1266 -0.8102
   27CHL1   C27 3175   3.581   0.260   4.457  0.4145  0.2876 -0.6412
   27CHL1  H27A 3176   3.672   0.196   4.457  0.2566  0.0613 -0.4469
   27CHL1  H27B 3177   3.526   0.244   4.361  0.1462  0.4869 -0.5238
   27CHL1  H27C 3178   3.515   0.243   4.545  0.2049  0.1854 -0.8173
   28CHL1    C3 3179   0.143   0.234   5.836 -0.5105 -0.4096 -0.3647
   28CHL1    H3 3180   0.060   0.165   5.808  0.5119 -0.9683 -2.1687
   28CHL1    O3 3181   0.144   0.284   5.966  0.1077  0.7569 -0.6906
   28CHL1   H3' 3182   0.110   0.211   6.017  2.5901 -0.5830 -0.7520
   28CHL1    C4 3183   0.272   0.160   5.812 -0.6582 -0.4927  0.0736
   28CHL1   H4A 3184   0.362   0.220   5.834  0.9607 -2.0278 -1.9382
   28CHL1   H4B 3185   0.273   0.077   5.886 -2.2904  0.2751  1.0123
   28CHL1    C5 3186   0.280   0.118   5.670  0.4052  1.2003  0.0067
   28CHL1    C6 3187   0.307  -0.009   5.636  0.6424  0.2688 -0.6339
   28CHL1    H6 3188   0.330  -0.085   5.712  1.0634  0.0590 -0.9701
   28CHL1    C7 3189   0.315  -0.066   5.499  0.0290 -0.2728 -0.8490
   28CHL1   H7A 3190   0.401  -0.132   5.477  0.8762  0.3882  0.3553
   28CHL1   H7B 3191   0.216  -0.113   5.478 -0.6483 -0.0414  1.4924
   28CHL1    C8 3192   0.336   0.050   5.394 -0.3083  1.5604  0.2172
   28CHL1    H8 3193   0.444   0.077   5.388  0.3719 -0.6014  1.6656
   28CHL1   C14 3194   0.295  -0.010   5.262 -0.1236  0.6199 -0.2039
   28CHL1   H14 3195   0.187  -0.038   5.266 -0.0140  0.2652  3.1900
   28CHL1   C15 3196   0.361  -0.138   5.219  0.1409  0.1169  0.5638
   28CHL1  H15A 3197   0.470  -0.127   5.204 -0.0434 -0.9498 -2.0260
   28CHL1  H15B 3198   0.325  -0.233   5.265 -2.0900  0.8705  0.5000
   28CHL1   C16 3199   0.313  -0.147   5.073  0.6633  0.0790 -0.2985
   28CHL1  H16A 3200   0.391  -0.181   5.003  0.2765  0.7645 -1.0883
   28CHL1  H16B 3201   0.222  -0.211   5.074 -1.1068  2.4008 -1.1136
   28CHL1   C17 3202   0.258  -0.006   5.034 -0.0119  0.1203  0.1794
   28CHL1   H17 3203   0.148  -0.001   5.048  0.3163 -0.8498  4.4807
   28CHL1   C13 3204   0.302   0.090   5.147 -0.1109  0.5453 -0.1431
   28CHL1   C18 3205   0.447   0.134   5.113  0.2923 -0.4121  0.0083
   28CHL1  H18A 3206   0.482   0.186   5.205 -0.2432  0.0157 -0.0273
   28CHL1  H18B 3207   0.517   0.051   5.090  0.0383 -0.4628 -0.5944
   28CHL1  H18C 3208   0.447   0.218   5.041  2.7103 -0.7167 -0.4140
   28CHL1   C12 3209   0.207   0.211   5.182  0.5047 -0.3144  0.3406
   28CHL1  H12A 3210   0.240   0.282   5.102  0.4948  0.5529  1.0889
   28CHL1  H12B 3211   0.104   0.175   5.164  0.1676  0.9998 -0.5701
   28CHL1   C11 3212   0.236   0.269   5.315  1.1158 -0.5010  0.1658
   28CHL1  H11A 3213   0.336   0.317   5.304  0.8920 -0.2826 -1.0521
   28CHL1  H11B 3214   0.167   0.356   5.325 -0.2434 -1.3547 -1.3971
   28CHL1    C9 3215   0.243   0.168   5.426 -0.7073  0.8567  0.1980
   28CHL1    H9 3216   0.143   0.122   5.437 -0.1766 -0.6889 -1.1179
   28CHL1   C10 3217   0.259   0.228   5.569 -0.0604  1.0121 -0.7142
   28CHL1   C19 3218   0.380   0.331   5.574  0.7630  0.0217  0.3661
   28CHL1  H19A 3219   0.403   0.362   5.679  0.6794  0.7387  0.1797
   28CHL1  H19B 3220   0.475   0.291   5.532  0.6213 -1.6473  1.5406
   28CHL1  H19C 3221   0.355   0.411   5.501 -2.7822 -0.7978  0.5197
   28CHL1    C1 3222   0.130   0.311   5.597  0.0535 -0.1698  0.0213
   28CHL1   H1A 3223   0.115   0.394   5.524 -0.6210 -0.2602  0.0449
   28CHL1   H1B 3224   0.039   0.252   5.574  1.9351 -2.9038 -0.8874
   28CHL1    C2 3225   0.125   0.354   5.741 -0.0838 -0.0096 -0.0817
   28CHL1   H2A 3226   0.028   0.406   5.756  1.1621  2.1725  0.8510
   28CHL1   H2B 3227   0.201   0.429   5.772  2.3253 -1.7021 -1.5183
   28CHL1   C20 3228   0.283   0.023   4.890  0.2164 -0.0933  0.1340
   28CHL1   H20 3229   0.390   0.049   4.873 -0.1035  0.7503 -0.6646
   28CHL1   C21 3230   0.199   0.147   4.852 -0.6282  0.2161 -0.5922
   28CHL1  H21A 3231   0.230   0.238   4.908  0.4954  1.1930 -2.6656
   28CHL1  H21B 3232   0.091   0.132   4.873 -0.5025 -1.7271 -1.1550
   28CHL1  H21C 3233   0.220   0.186   4.750  0.2450  0.5611 -0.2894
   28CHL1   C22 3234   0.239  -0.098   4.797 -0.2274 -0.0356 -0.5745
   28CHL1  H22A 3235   0.322  -0.167   4.822  0.2363  1.4310  2.2989
   28CHL1  H22B 3236   0.140  -0.128   4.837  0.8785  0.9956  3.4145
   28CHL1   C23 3237   0.248  -0.061   4.647 -0.0260 -0.0316 -0.4364
   28CHL1  H23A 3238   0.160   0.003   4.623 -1.0268 -1.2454 -0.1208
   28CHL1  H23B 3239   0.343  -0.008   4.626 -1.5562  2.5117 -1.4362
   28CHL1   C24 3240   0.245  -0.188   4.557  0.0572  0.8072  0.7492
   28CHL1  H24A 3241   0.322  -0.267   4.572 -0.2079  0.5654  0.8198
   28CHL1  H24B 3242   0.146  -0.234   4.574 -0.0132  0.0581 -1.4899
   28CHL1   C25 3243   0.246  -0.163   4.399  0.7037  0.0835 -0.8043
   28CHL1   H25 3244   0.339  -0.111   4.369  1.8761 -1.8419 -0.7047
   28CHL1   C26 3245   0.265  -0.294   4.337  0.8859  0.2694 -0.3049
   28CHL1  H26A 3246   0.187  -0.369   4.359  1.8185 -0.5087  0.4568
   28CHL1  H26B 3247   0.273  -0.287   4.227 -1.9532  0.8501 -0.5484
   28CHL1  H26C 3248   0.362  -0.341   4.365  1.3039  1.9614  1.2850
   28CHL1   C27 3249   0.123  -0.085   4.351 -0.7346 -0.5434 -0.5772
   28CHL1  H27A 3250   0.030  -0.124   4.399 -0.7197 -1.2427 -1.1070
   28CHL1  H27B 3251   0.125   0.021   4.384  0.8132 -0.6007 -0.4448
   28CHL1  H27C 3252   0.113  -0.091   4.241 -0.3985  0.5436 -0.6783
   29CHL1    C3 3253   3.836   3.274   5.680 -0.2661 -0.6158 -0.3370
   29CHL1    H3 3254   3.786   3.363   5.636 -0.2560  0.3552  1.4888
   29CHL1    O3 3255   3.817   3.280   5.821 -0.2336  0.7872  0.4163
   29CHL1   H3' 3256   3.892   3.322   5.863  1.2235 -3.2450  2.3943
   29CHL1    C4 3257   3.764   3.155   5.615  0.1813  0.6173  0.6948
   29CHL1   H4A 3258   3.781   3.065   5.678 -0.3114  1.1996  1.6845
   29CHL1   H4B 3259   3.658   3.188   5.620 -1.0917 -1.9635 -3.8233
   29CHL1    C5 3260   3.795   3.125   5.467  0.1578 -0.2828 -0.6285
   29CHL1    C6 3261   3.699   3.100   5.374 -0.7142  0.3761 -0.2364
   29CHL1    H6 3262   3.591   3.091   5.398 -0.8637  1.0956 -0.6181
   29CHL1    C7 3263   3.726   3.089   5.229 -0.3304 -0.1928  0.8151
   29CHL1   H7A 3264   3.673   3.007   5.174  0.4855  0.4729 -1.0607
   29CHL1   H7B 3265   3.694   3.184   5.180  1.7190  0.3348  0.4082
   29CHL1    C8 3266   3.873   3.061   5.188  0.0769 -1.1876  0.1234
   29CHL1    H8 3267   3.890   2.954   5.213  0.0789 -1.1495  0.2866
   29CHL1   C14 3268   3.901   3.087   5.045  0.5982  0.1182  0.2900
   29CHL1   H14 3269   3.895   3.198   5.035  0.7603  0.3014  1.9279
   29CHL1   C15 3270   3.803   3.026   4.950  0.3655 -0.3060 -0.2904
   29CHL1  H15A 3271   3.774   2.923   4.981 -1.3085  0.5915  1.3361
   29CHL1  H15B 3272   3.710   3.086   4.937 -1.7918 -3.5866 -1.1333
   29CHL1   C16 3273   3.882   3.017   4.813  0.4123 -0.4927  0.2153
   29CHL1  H16A 3274   3.891   2.911   4.782  0.7301 -0.7008  0.9857
   29CHL1  H16B 3275   3.834   3.081   4.736  3.5535  2.0939  0.1879
   29CHL1   C17 3276   4.013   3.087   4.849  0.0517  0.1280  0.3035
   29CHL1   H17 3277   3.993   3.196   4.842 -0.3179  0.0659  0.4070
   29CHL1   C13 3278   4.038   3.057   4.993 -0.0248  0.5733  0.1711
   29CHL1   C18 3279   4.075   2.910   5.017 -0.1912 -0.0165  0.1036
   29CHL1  H18A 3280   4.184   2.894   4.998 -0.4841 -0.2721 -1.4966
   29CHL1  H18B 3281   4.053   2.875   5.120  2.8348 -1.9098  0.2311
   29CHL1  H18C 3282   4.024   2.845   4.943  1.6682 -1.4949  0.0412
   29CHL1   C12 3283   4.135   3.151   5.065  0.5984 -0.0955 -0.0561
   29CHL1  H12A 3284   4.240   3.131   5.035  0.8332  0.7183  0.2024
   29CHL1  H12B 3285   4.111   3.255   5.033  1.7489  0.4807  0.8815
   29CHL1   C11 3286   4.116   3.140   5.221  0.7934  0.2202  0.3577
   29CHL1  H11A 3287   4.170   3.045   5.238  3.7516  1.6794 -0.2417
   29CHL1  H11B 3288   4.164   3.228   5.269 -0.5747  0.0783  2.0683
   29CHL1    C9 3289   3.963   3.153   5.268  0.3695  0.2099  0.6270
   29CHL1    H9 3290   3.939   3.259   5.247  2.4918  0.7356  0.6833
   29CHL1   C10 3291   3.947   3.136   5.424  0.1851  0.2870 -0.7214
   29CHL1   C19 3292   4.029   3.014   5.472 -0.0020 -0.1247  0.1042
   29CHL1  H19A 3293   4.022   2.990   5.581  1.8717 -0.3939  0.1873
   29CHL1  H19B 3294   4.008   2.923   5.412 -1.2817  0.7870 -0.8619
   29CHL1  H19C 3295   4.138   3.030   5.466  0.2516 -1.4041  0.8360
   29CHL1    C1 3296   4.009   3.262   5.499  0.1088 -0.0784  0.4547
   29CHL1   H1A 3297   4.119   3.269   5.485  0.0867  0.7754  0.6320
   29CHL1   H1B 3298   3.970   3.357   5.458 -0.4948 -0.4379  0.1780
   29CHL1    C2 3299   3.987   3.271   5.650  0.3675 -0.6258 -0.4171
   29CHL1   H2A 3300   4.040   3.354   5.702 -0.5751 -1.8376  2.7295
   29CHL1   H2B 3301   4.023   3.176   5.694  0.4350  0.1999  1.4060
   29CHL1   C20 3302   4.131   3.066   4.748 -0.7391  0.0659 -0.3602
   29CHL1   H20 3303   4.197   2.987   4.788  0.6537  1.9701  1.3263
   29CHL1   C21 3304   4.219   3.196   4.750 -0.1912  0.1441  0.0851
   29CHL1  H21A 3305   4.148   3.278   4.722 -2.1965 -0.7864  2.0912
   29CHL1  H21B 3306   4.287   3.176   4.664  0.8502  2.2104  0.3637
   29CHL1  H21C 3307   4.279   3.225   4.839  1.6508  2.0850 -1.6695
   29CHL1   C22 3308   4.084   3.034   4.608  0.0827 -0.3800  0.2348
   29CHL1  H22A 3309   4.176   3.017   4.549 -1.4017 -0.6620 -2.1725
   29CHL1  H22B 3310   4.027   2.940   4.590 -1.0841  0.6337 -1.8104
   29CHL1   C23 3311   4.023   3.152   4.520 -0.5851 -0.0080 -0.5837
   29CHL1  H23A 3312   3.944   3.200   4.582  0.6270  0.7298  0.4345
   29CHL1  H23B 3313   4.105   3.226   4.507 -0.7766  0.3202  0.0143
   29CHL1   C24 3314   3.949   3.100   4.394 -0.2622 -0.0762  0.5526
   29CHL1  H24A 3315   3.860   3.046   4.432 -1.6821  3.3349  2.6142
   29CHL1  H24B 3316   3.912   3.191   4.342 -0.4920 -0.1721  0.5475
   29CHL1   C25 3317   4.036   3.017   4.289 -0.3414  0.3786  0.3598
   29CHL1   H25 3318   4.055   2.921   4.341  0.1981  0.0753 -0.3800
   29CHL1   C26 3319   3.955   2.983   4.164 -0.0446  0.4160 -0.1654
   29CHL1  H26A 3320   3.848   2.960   4.187 -0.1100  0.7033 -0.1813
   29CHL1  H26B 3321   3.963   3.070   4.097  1.6246  0.1726 -0.3057
   29CHL1  H26C 3322   4.005   2.898   4.113 -0.4841  0.2653 -0.3557
   29CHL1   C27 3323   4.168   3.087   4.244 -0.4549  0.6203 -0.5130
   29CHL1  H27A 3324   4.131   3.182   4.200  0.1418  0.9551 -0.2918
   29CHL1  H27B 3325   4.227   3.115   4.334  1.3563  0.4936 -1.6044
   29CHL1  H27C 3326   4.227   3.018   4.180 -1.0388 -0.6180  0.2320
   30CHL1    C3 3327   6.745   3.514   6.195  0.5301  0.2217  0.0248
   30CHL1    H3 3328   6.844   3.470   6.169 -0.1072 -0.2830 -1.6967
   30CHL1    O3 3329   6.727   3.527   6.330 -0.2133 -0.4067 -0.3500
   30CHL1   H3' 3330   6.797   3.590   6.350 -0.3798  0.3245 -1.9192
   30CHL1    C4 3331   6.735   3.647   6.131 -0.6147 -0.0989  0.4158
   30CHL1   H4A 3332   6.643   3.703   6.158 -1.5352 -1.4495  0.1798
   30CHL1   H4B 3333   6.820   3.707   6.169  0.8389 -1.9050  0.1465
   30CHL1    C5 3334   6.740   3.638   5.980 -0.5609 -0.2063 -0.1248
   30CHL1    C6 3335   6.839   3.698   5.916 -0.1034  0.3423 -0.0081
   30CHL1    H6 3336   6.919   3.741   5.977 -0.9903  3.6194 -0.9726
   30CHL1    C7 3337   6.864   3.698   5.767  0.4313  0.0696 -0.5247
   30CHL1   H7A 3338   6.884   3.799   5.726  2.6137 -1.1771 -2.8613
   30CHL1   H7B 3339   6.946   3.626   5.744  0.2489 -0.0901 -0.6778
   30CHL1    C8 3340   6.737   3.641   5.685  0.8853  0.1666 -0.5510
   30CHL1    H8 3341   6.664   3.724   5.693  0.7423 -0.1533  2.4941
   30CHL1   C14 3342   6.775   3.606   5.545  0.6673 -0.0820 -0.4361
   30CHL1   H14 3343   6.834   3.513   5.554 -1.0135 -1.3405 -1.7940
   30CHL1   C15 3344   6.860   3.698   5.450  0.0155  0.8168 -0.5611
   30CHL1  H15A 3345   6.830   3.805   5.446  2.7327  1.6327 -1.2297
   30CHL1  H15B 3346   6.967   3.689   5.479 -0.9428  0.3217  3.3126
   30CHL1   C16 3347   6.833   3.644   5.310 -0.0452 -0.3031 -0.3562
   30CHL1  H16A 3348   6.793   3.716   5.236 -1.4417 -0.3985  0.2682
   30CHL1  H16B 3349   6.931   3.611   5.269 -0.0065 -3.5804  1.9575
   30CHL1   C17 3350   6.739   3.518   5.332  0.3717 -0.1360  0.2717
   30CHL1   H17 3351   6.801   3.435   5.372  0.5571  0.3363  0.9916
   30CHL1   C13 3352   6.654   3.550   5.461 -0.2869 -1.0019 -0.6779
   30CHL1   C18 3353   6.555   3.657   5.431  0.1135  0.0011  0.2672
   30CHL1  H18A 3354   6.490   3.692   5.514 -1.3989  2.8952 -1.9259
   30CHL1  H18B 3355   6.607   3.742   5.380 -0.2594 -0.7740 -1.4931
   30CHL1  H18C 3356   6.492   3.620   5.347 -0.1044 -1.3752  1.0122
   30CHL1   C12 3357   6.589   3.427   5.536 -0.2535 -0.0583  0.0241
   30CHL1  H12A 3358   6.499   3.397   5.478  0.1382  2.0570 -1.8061
   30CHL1  H12B 3359   6.671   3.352   5.534 -1.2809 -1.1952 -0.7782
   30CHL1   C11 3360   6.558   3.459   5.683  0.4517 -0.1276 -0.4933
   30CHL1  H11A 3361   6.469   3.524   5.679 -0.3059 -0.7864  2.8644
   30CHL1  H11B 3362   6.530   3.364   5.733  1.4622 -1.2032 -1.8571
   30CHL1    C9 3363   6.667   3.523   5.761  0.3728  0.0661  0.3336
   30CHL1    H9 3364   6.744   3.443   5.767  0.8731  0.4589 -0.5316
   30CHL1   C10 3365   6.638   3.547   5.919  0.2410 -0.3231 -0.0233
   30CHL1   C19 3366   6.491   3.594   5.926 -0.1006 -0.3257  0.0251
   30CHL1  H19A 3367   6.417   3.517   5.895  0.9625 -1.6668  0.6867
   30CHL1  H19B 3368   6.457   3.628   6.026  0.7745 -0.3735  0.3527
   30CHL1  H19C 3369   6.474   3.674   5.851  0.0370 -0.0526  0.2856
   30CHL1    C1 3370   6.650   3.413   5.990 -0.7007  0.2132 -0.7302
   30CHL1   H1A 3371   6.568   3.344   5.958 -1.7245  0.2721  1.5928
   30CHL1   H1B 3372   6.753   3.379   5.966  0.4348  2.4190  0.6924
   30CHL1    C2 3373   6.644   3.420   6.144  0.3245 -0.0799 -0.6331
   30CHL1   H2A 3374   6.670   3.320   6.186 -2.7698 -0.9260 -0.5148
   30CHL1   H2B 3375   6.538   3.441   6.168  0.0085 -1.6116 -0.5614
   30CHL1   C20 3376   6.673   3.477   5.200  0.2367 -0.4452 -0.6496
   30CHL1   H20 3377   6.604   3.559   5.170 -2.2036 -1.9156  0.6470
   30CHL1   C21 3378   6.589   3.345   5.217 -0.0551  0.5709  0.5672
   30CHL1  H21A 3379   6.556   3.308   5.118 -0.1540 -0.2624  0.9013
   30CHL1  H21B 3380   6.494   3.371   5.268 -0.1774 -0.7029  1.0030
   30CHL1  H21C 3381   6.646   3.260   5.260  1.4255  0.2753 -1.7828
   30CHL1   C22 3382   6.779   3.461   5.087  0.4410  0.0987 -0.1776
   30CHL1  H22A 3383   6.721   3.445   4.994 -1.7329  1.8844  0.7930
   30CHL1  H22B 3384   6.830   3.559   5.073 -0.4348  0.3209 -2.2110
   30CHL1   C23 3385   6.878   3.346   5.097  0.5623  0.0211  0.0920
   30CHL1  H23A 3386   6.933   3.351   5.194  0.6327 -1.1218  0.1270
   30CHL1  H23B 3387   6.815   3.255   5.104 -0.5054  0.6350 -1.1388
   30CHL1   C24 3388   6.966   3.337   4.969  0.6278  0.3895  0.7741
   30CHL1  H24A 3389   6.906   3.347   4.876  0.5412  0.9383  0.8850
   30CHL1  H24B 3390   7.052   3.406   4.967  0.1951  0.9320 -1.3127
   30CHL1   C25 3391   7.029   3.199   4.959 -0.4114  0.3609  0.2422
   30CHL1   H25 3392   6.947   3.127   4.977  1.3540 -1.9461 -0.3487
   30CHL1   C26 3393   7.094   3.164   4.820  0.4516 -0.5100  0.2172
   30CHL1  H26A 3394   7.127   3.059   4.806  2.1013 -0.1287  1.0733
   30CHL1  H26B 3395   7.016   3.196   4.748  0.0296 -0.4411  0.7000
   30CHL1  H26C 3396   7.181   3.232   4.811  0.6883 -0.2869  3.2810
   30CHL1   C27 3397   7.129   3.174   5.074  0.4107  0.3016 -0.9143
   30CHL1  H27A 3398   7.207   3.253   5.072  1.1499 -0.4162 -1.5285
   30CHL1  H27B 3399   7.076   3.187   5.170 -1.0289  0.0272 -1.6406
   30CHL1  H27C 3400   7.178   3.074   5.076  0.1967  0.1960  1.0711
   31CHL1    C3 3401   2.145   3.313   5.940  0.0108  0.4983  0.3021
   31CHL1    H3 3402   2.054   3.250   5.932  0.1291  0.5154 -1.5039
   31CHL1    O3 3403   2.179   3.337   6.074  0.1174 -0.1616 -0.2319
   31CHL1   H3' 3404   2.115   3.401   6.106 -1.3740 -0.6351 -2.0832
   31CHL1    C4 3405   2.264   3.255   5.862 -0.2640 -0.1822  0.1072
   31CHL1   H4A 3406   2.350   3.324   5.877 -0.2135 -0.4852  1.2924
   31CHL1   H4B 3407   2.286   3.162   5.919 -0.5953 -1.0409 -1.1240
   31CHL1    C5 3408   2.243   3.234   5.713 -0.4443 -0.4212  0.0657
   31CHL1    C6 3409   2.253   3.118   5.657 -0.4030 -0.4151  0.7131
   31CHL1    H6 3410   2.279   3.029   5.717 -1.3425 -0.0025  1.7640
   31CHL1    C7 3411   2.224   3.102   5.510  0.4581 -0.6971  0.1409
   31CHL1   H7A 3412   2.295   3.030   5.463  2.3670  1.6467 -0.7993
   31CHL1   H7B 3413   2.125   3.052   5.506 -0.0762  0.3836 -2.9739
   31CHL1    C8 3414   2.204   3.224   5.421 -0.6033 -1.5898 -0.4440
   31CHL1    H8 3415   2.305   3.268   5.402 -0.9768 -1.0320 -1.2026
   31CHL1   C14 3416   2.138   3.198   5.292 -0.2136  0.0734  0.2181
   31CHL1   H14 3417   2.045   3.142   5.316  0.7309 -0.9570  1.6785
   31CHL1   C15 3418   2.207   3.090   5.198 -0.5407  0.0719  0.3015
   31CHL1  H15A 3419   2.316   3.109   5.184 -0.4360  0.3526  1.3460
   31CHL1  H15B 3420   2.192   2.986   5.233  2.7399 -0.4916  0.3573
   31CHL1   C16 3421   2.149   3.116   5.063  1.0196 -0.7773 -0.3413
   31CHL1  H16A 3422   2.231   3.150   4.996 -1.3174  1.4347 -2.2881
   31CHL1  H16B 3423   2.103   3.026   5.018  1.2495 -0.8438 -0.4439
   31CHL1   C17 3424   2.060   3.241   5.077  0.2974  0.1096  0.1648
   31CHL1   H17 3425   1.956   3.208   5.098 -0.0742  0.5083 -0.9594
   31CHL1   C13 3426   2.104   3.315   5.203  0.0690 -0.6099 -0.8503
   31CHL1   C18 3427   2.221   3.398   5.164  0.1196  0.4217  0.0302
   31CHL1  H18A 3428   2.287   3.333   5.103  0.7087  0.1216  0.9543
   31CHL1  H18B 3429   2.185   3.490   5.114  0.4862  0.2342 -0.5842
   31CHL1  H18C 3430   2.283   3.430   5.251 -1.3211  0.7823  0.9621
   31CHL1   C12 3431   2.013   3.403   5.288  0.0343  0.0836 -0.0339
   31CHL1  H12A 3432   1.986   3.497   5.235  0.3110 -0.3616 -0.9821
   31CHL1  H12B 3433   1.922   3.347   5.319 -0.2115 -0.6959 -1.9604
   31CHL1   C11 3434   2.075   3.447   5.420 -0.2806 -1.2023 -0.4062
   31CHL1  H11A 3435   2.162   3.513   5.399 -0.8842  0.7902  2.7361
   31CHL1  H11B 3436   1.996   3.504   5.474  1.1798  0.5569 -0.0424
   31CHL1    C9 3437   2.128   3.330   5.502  0.6209  0.0244 -0.2767
   31CHL1    H9 3438   2.032   3.275   5.511  0.1410  0.1725 -3.3667
   31CHL1   C10 3439   2.190   3.358   5.639 -0.1000 -0.5418  0.5185
   31CHL1   C19 3440   2.305   3.461   5.629 -0.4504  0.2224  0.2105
   31CHL1  H19A 3441   2.369   3.409   5.554  0.0595  0.0500  0.7543
   31CHL1  H19B 3442   2.269   3.557   5.587  0.6440  0.1719 -0.9029
   31CHL1  H19C 3443   2.357   3.490   5.722 -1.4846  1.3869  0.4476
   31CHL1    C1 3444   2.084   3.422   5.727 -0.0871  0.5170  1.4380
   31CHL1   H1A 3445   2.065   3.522   5.682 -1.0966  0.4326  1.6601
   31CHL1   H1B 3446   1.993   3.358   5.724  0.4694 -0.3027 -1.8284
   31CHL1    C2 3447   2.114   3.446   5.873 -1.0057 -0.1716  0.0261
   31CHL1   H2A 3448   2.023   3.498   5.908 -1.3341 -0.0607 -0.9522
   31CHL1   H2B 3449   2.201   3.514   5.887  0.7918 -2.1993 -0.7103
   31CHL1   C20 3450   2.041   3.312   4.946  0.7328  0.0731  0.2990
   31CHL1   H20 3451   2.132   3.371   4.920  0.7471 -0.0229  0.1289
   31CHL1   C21 3452   1.927   3.412   4.965 -0.5082 -0.3761 -0.0032
   31CHL1  H21A 3453   1.908   3.473   4.874 -0.0286  0.5197  0.4730
   31CHL1  H21B 3454   1.961   3.484   5.044 -0.8765 -0.3361  0.1226
   31CHL1  H21C 3455   1.834   3.363   4.998 -1.2545  0.9468 -0.0602
   31CHL1   C22 3456   2.013   3.206   4.827 -0.2195 -0.0740  0.3302
   31CHL1  H22A 3457   2.108   3.152   4.807 -0.4941 -0.2534 -0.5426
   31CHL1  H22B 3458   1.935   3.129   4.845  0.6592 -1.8535 -2.6890
   31CHL1   C23 3459   1.990   3.284   4.699  0.2181 -0.0290 -0.2424
   31CHL1  H23A 3460   1.881   3.306   4.700  0.2073 -0.0854 -0.1194
   31CHL1  H23B 3461   2.041   3.382   4.690 -0.8845  0.4944 -1.0667
   31CHL1   C24 3462   2.020   3.185   4.576  0.0769 -0.1430  0.1699
   31CHL1  H24A 3463   2.118   3.139   4.598  0.2888  0.4250  0.4083
   31CHL1  H24B 3464   1.945   3.103   4.576 -1.7744  1.4659  1.2031
   31CHL1   C25 3465   2.032   3.256   4.438 -0.0138  0.2761  0.9543
   31CHL1   H25 3466   2.094   3.348   4.449 -0.4762  0.9603 -1.6783
   31CHL1   C26 3467   2.098   3.161   4.342 -0.0882  0.5757  0.2383
   31CHL1  H26A 3468   2.039   3.068   4.329 -0.0170  0.3863  1.2122
   31CHL1  H26B 3469   2.110   3.211   4.244 -0.9231 -0.0788 -0.2148
   31CHL1  H26C 3470   2.202   3.138   4.372 -0.2476  0.8104  1.0029
   31CHL1   C27 3471   1.897   3.292   4.385  0.1651 -0.4613 -0.3827
   31CHL1  H27A 3472   1.903   3.336   4.283 -1.7108 -2.5564 -1.4948
   31CHL1  H27B 3473   1.834   3.201   4.377  0.5190 -0.6813 -0.7428
   31CHL1  H27C 3474   1.853   3.367   4.454  4.4696  2.2766 -0.2518
   32CHL1    C3 3475   5.802   0.849   6.255 -0.3871 -0.0455  0.6701
   32CHL1    H3 3476   5.700   0.858   6.211 -1.2853 -0.0788  2.6188
   32CHL1    O3 3477   5.801   0.858   6.396  0.2615  0.4995  0.0060
   32CHL1   H3' 3478   5.894   0.865   6.415  0.4246 -1.8291  0.2430
   32CHL1    C4 3479   5.876   0.716   6.214 -0.2924 -0.0165  0.2644
   32CHL1   H4A 3480   5.979   0.715   6.256 -0.0772  0.5651 -0.2357
   32CHL1   H4B 3481   5.829   0.626   6.260 -0.0621  1.0864  2.8667
   32CHL1    C5 3482   5.877   0.699   6.063 -0.9782  0.3091  0.5034
   32CHL1    C6 3483   5.824   0.595   5.997 -0.2906  0.3262  0.0685
   32CHL1    H6 3484   5.780   0.521   6.066 -0.5084  1.8486  1.6083
   32CHL1    C7 3485   5.823   0.569   5.850  0.0020  0.0939 -0.0657
   32CHL1   H7A 3486   5.843   0.466   5.814  1.3910  0.9272 -1.8956
   32CHL1   H7B 3487   5.721   0.600   5.818  0.1293 -0.7578 -1.3949
   32CHL1    C8 3488   5.925   0.670   5.782  0.2701  0.4143  0.4375
   32CHL1    H8 3489   6.027   0.628   5.797 -0.2296 -1.1300 -0.2710
   32CHL1   C14 3490   5.893   0.676   5.637  0.0781 -0.4094  0.4307
   32CHL1   H14 3491   5.793   0.724   5.634 -0.0137 -0.6481 -2.4587
   32CHL1   C15 3492   5.863   0.544   5.559 -0.2185  0.4319 -0.6211
   32CHL1  H15A 3493   5.943   0.472   5.588 -2.8715 -2.1733  0.7224
   32CHL1  H15B 3494   5.764   0.499   5.578  1.4515 -2.6303  1.6873
   32CHL1   C16 3495   5.873   0.581   5.410  0.0501 -0.3742  0.5390
   32CHL1  H16A 3496   5.945   0.516   5.356 -0.3055  0.4727 -1.0137
   32CHL1  H16B 3497   5.775   0.559   5.363 -0.3914 -1.0689  1.7724
   32CHL1   C17 3498   5.915   0.731   5.405  0.4616 -0.6097  0.1743
   32CHL1   H17 3499   5.819   0.786   5.413  0.7334 -0.0150 -0.5248
   32CHL1   C13 3500   5.987   0.764   5.542  0.2274  0.4436 -0.4632
   32CHL1   C18 3501   6.128   0.702   5.537 -0.3994 -0.0708 -0.0767
   32CHL1  H18A 3502   6.181   0.715   5.633  1.3950 -3.3876 -0.4898
   32CHL1  H18B 3503   6.126   0.593   5.514 -1.8345  0.1329 -1.0782
   32CHL1  H18C 3504   6.194   0.736   5.454 -0.9685 -1.6058 -1.2235
   32CHL1   C12 3505   5.976   0.909   5.591 -0.0532 -0.5668  0.0082
   32CHL1  H12A 3506   6.049   0.977   5.544 -0.6482 -0.4080 -0.6983
   32CHL1  H12B 3507   5.872   0.933   5.561 -0.0471 -0.0559  0.3697
   32CHL1   C11 3508   5.994   0.920   5.745  0.4748 -0.8660 -0.4650
   32CHL1  H11A 3509   6.104   0.924   5.764  0.2903 -0.4001  0.5651
   32CHL1  H11B 3510   5.954   1.020   5.772  1.4524 -0.6630  0.3036
   32CHL1    C9 3511   5.922   0.813   5.841  0.0795  0.2676  0.3058
   32CHL1    H9 3512   5.814   0.842   5.842  0.2014  0.7335  0.0563
   32CHL1   C10 3513   5.948   0.816   5.993 -0.3498  0.7421  0.2610
   32CHL1   C19 3514   6.102   0.802   6.019 -0.5156  0.2468 -0.7255
   32CHL1  H19A 3515   6.143   0.707   5.979  0.6194  0.4637 -0.1136
   32CHL1  H19B 3516   6.147   0.894   5.975  0.5138 -0.5547 -1.3803
   32CHL1  H19C 3517   6.112   0.796   6.129 -2.5857 -3.0107 -0.5746
   32CHL1    C1 3518   5.900   0.950   6.045 -0.8072  0.1460 -0.9084
   32CHL1   H1A 3519   5.972   1.024   6.005 -0.1212  0.4996  0.9124
   32CHL1   H1B 3520   5.797   0.969   6.006 -1.5447 -1.3453  0.2069
   32CHL1    C2 3521   5.891   0.964   6.195 -0.5093 -0.3871  0.3138
   32CHL1   H2A 3522   5.851   1.065   6.218 -2.1212 -0.9066 -0.1043
   32CHL1   H2B 3523   5.993   0.949   6.237  0.2152  1.1203 -0.8315
   32CHL1   C20 3524   5.983   0.782   5.272  0.9791 -0.3397  0.5670
   32CHL1   H20 3525   6.084   0.736   5.275  0.3757 -1.7459  0.0796
   32CHL1   C21 3526   5.982   0.934   5.271  0.6627  0.8047  0.0557
   32CHL1  H21A 3527   5.979   0.969   5.166 -3.6683  3.0172  0.6636
   32CHL1  H21B 3528   6.074   0.967   5.323  2.3266 -1.1414 -1.5243
   32CHL1  H21C 3529   5.890   0.971   5.322  0.6456 -0.7882  1.2556
   32CHL1   C22 3530   5.929   0.714   5.137 -0.1474  0.3319 -0.1562
   32CHL1  H22A 3531   5.925   0.603   5.146 -1.6408  0.2899 -0.9856
   32CHL1  H22B 3532   5.821   0.738   5.128 -0.0940  0.4064 -0.6284
   32CHL1   C23 3533   6.011   0.748   5.015 -0.0355  0.3699  0.1220
   32CHL1  H23A 3534   6.008   0.859   5.010 -1.7315  0.3408 -0.2599
   32CHL1  H23B 3535   6.112   0.705   5.027  1.4754  2.9425 -2.2581
   32CHL1   C24 3536   5.954   0.704   4.880  0.3409 -0.2497  0.3235
   32CHL1  H24A 3537   5.985   0.599   4.857  0.3607  0.0604 -1.1738
   32CHL1  H24B 3538   5.843   0.708   4.874  0.2131 -1.5896  1.2975
   32CHL1   C25 3539   5.995   0.786   4.751 -0.0026 -0.2517  0.0129
   32CHL1   H25 3540   5.956   0.889   4.770 -0.9923 -0.5828 -0.2022
   32CHL1   C26 3541   6.148   0.799   4.733 -0.1267 -0.2836 -0.1190
   32CHL1  H26A 3542   6.194   0.857   4.816 -2.2160 -0.3804  1.1830
   32CHL1  H26B 3543   6.193   0.697   4.732  0.4207 -0.0532  0.4109
   32CHL1  H26C 3544   6.163   0.858   4.640 -1.0805 -0.3622 -0.3372
   32CHL1   C27 3545   5.929   0.714   4.633 -0.3902  0.2709  0.0269
   32CHL1  H27A 3546   5.821   0.709   4.658 -0.2774  1.5194  0.8777
   32CHL1  H27B 3547   5.922   0.782   4.545 -2.4556  0.6862  0.4551
   32CHL1  H27C 3548   5.972   0.614   4.612 -1.5686 -0.3908  0.6951
   33CHL1    C3 3549   2.596   6.715   5.782 -0.0615  0.1329 -0.5596
   33CHL1    H3 3550   2.646   6.621   5.749 -1.3795 -1.7998  2.4611
   33CHL1    O3 3551   2.612   6.730   5.921  0.1212 -0.2063 -0.5569
   33CHL1   H3' 3552   2.552   6.803   5.938 -0.6327 -0.7567 -0.8125
   33CHL1    C4 3553   2.649   6.839   5.723 -0.1612 -0.5188  0.6450
   33CHL1   H4A 3554   2.583   6.925   5.744  0.2673 -0.0177 -0.0167
   33CHL1   H4B 3555   2.748   6.872   5.762  1.0542 -2.4402 -0.5988
   33CHL1    C5 3556   2.643   6.816   5.573  0.1510  0.5660 -0.1658
   33CHL1    C6 3557   2.756   6.808   5.498 -0.2301 -0.4307 -0.0260
   33CHL1    H6 3558   2.852   6.836   5.544  0.1116 -1.9980  0.3066
   33CHL1    C7 3559   2.759   6.778   5.351  0.3679 -0.0575 -0.0779
   33CHL1   H7A 3560   2.837   6.840   5.302 -1.2344  1.5200 -0.7579
   33CHL1   H7B 3561   2.793   6.674   5.335  0.8980  0.2487 -0.9962
   33CHL1    C8 3562   2.623   6.813   5.284  0.1202 -0.6927  0.2828
   33CHL1    H8 3563   2.607   6.923   5.286  0.5080 -0.6063 -0.8621
   33CHL1   C14 3564   2.622   6.773   5.135 -0.0865  0.3068  0.8816
   33CHL1   H14 3565   2.626   6.662   5.135 -1.9594  0.2016  1.1904
   33CHL1   C15 3566   2.738   6.802   5.040 -0.7180  0.2547 -0.4735
   33CHL1  H15A 3567   2.784   6.902   5.056 -0.7302  0.5324 -2.0529
   33CHL1  H15B 3568   2.817   6.724   5.037 -0.4486  0.4367  0.9526
   33CHL1   C16 3569   2.673   6.800   4.901  0.0822  0.0316 -0.4015
   33CHL1  H16A 3570   2.684   6.905   4.865  1.8235 -0.0181 -0.0935
   33CHL1  H16B 3571   2.716   6.730   4.827 -0.0712  0.8635 -1.3072
   33CHL1   C17 3572   2.527   6.758   4.922  0.2816  0.4808 -0.3829
   33CHL1   H17 3573   2.534   6.648   4.933  2.4512  0.6448  0.4002
   33CHL1   C13 3574   2.488   6.799   5.067  0.7027 -0.6154 -0.4030
   33CHL1   C18 3575   2.440   6.950   5.078  0.7141  0.3051 -0.2174
   33CHL1  H18A 3576   2.519   7.021   5.047  1.7348 -0.2117  1.1329
   33CHL1  H18B 3577   2.368   6.957   4.994 -1.0861  0.9158  1.2983
   33CHL1  H18C 3578   2.403   6.985   5.177 -0.3059  1.8508 -1.0950
   33CHL1   C12 3579   2.383   6.714   5.131 -0.8009 -0.2549 -0.2790
   33CHL1  H12A 3580   2.287   6.734   5.078  0.0357 -0.2476 -1.8692
   33CHL1  H12B 3581   2.405   6.608   5.107  0.9826 -0.0887  0.4730
   33CHL1   C11 3582   2.378   6.739   5.282  0.4742  0.1522  0.5443
   33CHL1  H11A 3583   2.314   6.829   5.293 -1.2306 -0.9694  0.2585
   33CHL1  H11B 3584   2.318   6.658   5.330  0.8510  0.0842  0.9051
   33CHL1    C9 3585   2.514   6.748   5.360 -0.1579 -0.6594  0.1399
   33CHL1    H9 3586   2.540   6.640   5.373 -0.3103 -0.6373  0.6600
   33CHL1   C10 3587   2.499   6.785   5.506 -0.2376 -0.7789  0.5236
   33CHL1   C19 3588   2.425   6.920   5.509 -0.1608  0.2748 -0.5387
   33CHL1  H19A 3589   2.457   6.994   5.433  1.2214 -0.6928 -0.9395
   33CHL1  H19B 3590   2.316   6.908   5.490 -0.5360  1.3370  0.8066
   33CHL1  H19C 3591   2.422   6.965   5.611 -3.7659  1.9330 -1.2097
   33CHL1    C1 3592   2.421   6.689   5.591 -0.7947 -0.7855 -0.3925
   33CHL1   H1A 3593   2.311   6.699   5.577 -1.1730 -0.6012  2.1295
   33CHL1   H1B 3594   2.445   6.585   5.560 -0.8839 -1.0773  0.4777
   33CHL1    C2 3595   2.443   6.693   5.741 -0.2075  0.1800  0.7516
   33CHL1   H2A 3596   2.403   6.603   5.792  0.5176  0.9257  2.7692
   33CHL1   H2B 3597   2.388   6.779   5.785 -0.6446 -0.5517  1.6683
   33CHL1   C20 3598   2.433   6.782   4.796 -0.9636 -0.2642  0.5731
   33CHL1   H20 3599   2.407   6.890   4.793 -2.8235 -0.6699  0.4972
   33CHL1   C21 3600   2.299   6.712   4.813 -0.0674  0.0122 -0.6867
   33CHL1  H21A 3601   2.306   6.602   4.815  1.5358  0.0795  1.8137
   33CHL1  H21B 3602   2.238   6.728   4.721  0.7387  1.6737 -0.9800
   33CHL1  H21C 3603   2.234   6.746   4.897  0.2444 -0.6836 -0.1593
   33CHL1   C22 3604   2.501   6.746   4.658 -0.2999 -0.5303  0.4539
   33CHL1  H22A 3605   2.606   6.781   4.653 -0.6999  0.5431 -1.2797
   33CHL1  H22B 3606   2.511   6.638   4.636  0.4376  0.0127 -2.2624
   33CHL1   C23 3607   2.430   6.817   4.542 -0.1069 -0.0837 -0.4206
   33CHL1  H23A 3608   2.330   6.769   4.536  0.9798 -2.5763  0.1019
   33CHL1  H23B 3609   2.432   6.924   4.571  1.0287 -0.0681 -0.5030
   33CHL1   C24 3610   2.503   6.797   4.410 -0.3938 -0.1953 -0.4625
   33CHL1  H24A 3611   2.609   6.830   4.402  0.0294 -1.7045 -1.3683
   33CHL1  H24B 3612   2.507   6.689   4.384 -1.2701 -0.9144  2.0494
   33CHL1   C25 3613   2.427   6.854   4.285  0.0828 -0.4836 -0.2537
   33CHL1   H25 3614   2.317   6.855   4.302  0.3656 -1.4318  1.8769
   33CHL1   C26 3615   2.467   6.997   4.260  1.0723  0.0034  0.9231
   33CHL1  H26A 3616   2.565   6.989   4.207  1.7549 -3.1352  2.4176
   33CHL1  H26B 3617   2.388   7.042   4.196 -0.0399 -1.2467  1.3733
   33CHL1  H26C 3618   2.465   7.051   4.357 -2.1451  0.6281  0.6293
   33CHL1   C27 3619   2.460   6.761   4.169 -0.3492  0.5720  0.2596
   33CHL1  H27A 3620   2.421   6.664   4.207  0.5543  0.5005  1.0514
   33CHL1  H27B 3621   2.413   6.801   4.077 -0.3840  0.1383  0.0887
   33CHL1  H27C 3622   2.568   6.752   4.146 -0.5866 -2.0583 -0.1428
   34CHL1    C3 3623   0.593   1.102   6.340  0.1375  0.5027 -0.2324
   34CHL1    H3 3624   0.539   1.005   6.332  3.1054 -1.3970  0.7003
   34CHL1    O3 3625   0.596   1.142   6.475 -0.0504  0.1953 -0.3877
   34CHL1   H3' 3626   0.645   1.225   6.473  0.5372 -0.1390 -0.0189
   34CHL1    C4 3627   0.735   1.092   6.285 -0.3724  0.2534 -0.4375
   34CHL1   H4A 3628   0.788   1.189   6.294 -0.8483  0.4213  0.7558
   34CHL1   H4B 3629   0.792   1.020   6.348 -2.1736 -0.2419  0.7140
   34CHL1    C5 3630   0.738   1.057   6.139  0.3078  0.6413 -0.1113
   34CHL1    C6 3631   0.807   0.950   6.093  0.6968  0.5111 -0.1582
   34CHL1    H6 3632   0.878   0.900   6.161  2.2722 -0.3110 -2.2961
   34CHL1    C7 3633   0.821   0.927   5.943 -0.1681  0.2939 -0.1780
   34CHL1   H7A 3634   0.925   0.904   5.913 -0.1444  2.9743 -2.5681
   34CHL1   H7B 3635   0.755   0.843   5.912 -2.3197  0.7650  2.7424
   34CHL1    C8 3636   0.773   1.048   5.857 -0.9648  0.5065  0.9579
   34CHL1    H8 3637   0.848   1.128   5.875 -0.6677  0.0171  2.0124
   34CHL1   C14 3638   0.759   1.010   5.714 -0.3891 -0.1115  0.1996
   34CHL1   H14 3639   0.696   0.918   5.708  0.6053 -0.7500 -3.6412
   34CHL1   C15 3640   0.890   0.972   5.652  0.3114  0.0478 -0.3111
   34CHL1  H15A 3641   0.964   1.050   5.680 -0.8977  1.3441 -0.5501
   34CHL1  H15B 3642   0.942   0.879   5.681  0.5439 -0.3673 -1.9535
   34CHL1   C16 3643   0.851   0.967   5.503  0.5983 -0.1844 -0.3215
   34CHL1  H16A 3644   0.933   1.008   5.441  1.3266  0.5774  1.0742
   34CHL1  H16B 3645   0.854   0.860   5.476  3.7348 -0.2829  0.1174
   34CHL1   C17 3646   0.718   1.042   5.478  0.8096  0.0407  0.5976
   34CHL1   H17 3647   0.638   0.966   5.472 -0.2985  1.2994 -2.7236
   34CHL1   C13 3648   0.707   1.115   5.611  0.2203  0.5958 -0.5918
   34CHL1   C18 3649   0.799   1.239   5.611  0.0719 -0.0350 -0.5003
   34CHL1  H18A 3650   0.906   1.230   5.585  0.4850  2.1196  0.2612
   34CHL1  H18B 3651   0.752   1.326   5.560  0.7400  0.9953  0.6054
   34CHL1  H18C 3652   0.809   1.271   5.716  0.6622 -1.2403 -0.1748
   34CHL1   C12 3653   0.565   1.144   5.662 -0.3802 -0.1718  0.0234
   34CHL1  H12A 3654   0.526   1.230   5.604 -1.2768  1.1405  2.3967
   34CHL1  H12B 3655   0.500   1.056   5.639 -0.1749  0.3570 -2.8531
   34CHL1   C11 3656   0.561   1.187   5.813  0.2416  0.2894  0.3248
   34CHL1  H11A 3657   0.620   1.281   5.811  1.0322 -0.1621  1.7315
   34CHL1  H11B 3658   0.461   1.219   5.850  1.4445 -0.0706  4.3412
   34CHL1    C9 3659   0.636   1.098   5.908 -0.1976 -0.2726 -0.4787
   34CHL1    H9 3660   0.578   1.005   5.926 -0.0791 -0.2962 -0.2233
   34CHL1   C10 3661   0.651   1.151   6.051 -0.1610  0.4785  0.6994
   34CHL1   C19 3662   0.710   1.294   6.049  0.0839 -0.3675  0.1341
   34CHL1  H19A 3663   0.627   1.366   6.037  0.0711 -0.1943  1.1923
   34CHL1  H19B 3664   0.761   1.324   6.143 -2.3759 -0.8362  1.6831
   34CHL1  H19C 3665   0.785   1.306   5.967 -0.4333  0.2950 -0.2509
   34CHL1    C1 3666   0.507   1.165   6.108  0.6823  0.0903 -0.0340
   34CHL1   H1A 3667   0.432   1.220   6.047  0.3860 -1.2454 -0.9302
   34CHL1   H1B 3668   0.465   1.062   6.119 -2.2382  1.1873 -0.1190
   34CHL1    C2 3669   0.512   1.204   6.261 -0.0207 -0.2790  0.2867
   34CHL1   H2A 3670   0.412   1.214   6.308  0.0580 -0.6165  0.5291
   34CHL1   H2B 3671   0.553   1.307   6.257  0.0794 -0.3514 -0.7126
   34CHL1   C20 3672   0.705   1.123   5.348 -0.0429 -0.2001 -0.2950
   34CHL1   H20 3673   0.783   1.202   5.348  1.5551 -1.6883 -0.6943
   34CHL1   C21 3674   0.568   1.183   5.334 -0.3219 -0.6065  0.5302
   34CHL1  H21A 3675   0.491   1.120   5.384 -0.5708 -0.1370  0.7429
   34CHL1  H21B 3676   0.536   1.196   5.228 -0.2582 -0.3484  0.5428
   34CHL1  H21C 3677   0.568   1.281   5.386  0.0517 -0.7983  0.8974
   34CHL1   C22 3678   0.732   1.029   5.231 -0.0272  0.2319 -0.1757
   34CHL1  H22A 3679   0.806   0.948   5.252  0.4657  0.9188  0.8198
   34CHL1  H22B 3680   0.637   0.985   5.195 -0.7183 -0.5754  2.4278
   34CHL1   C23 3681   0.798   1.100   5.111 -0.3919 -0.4194 -0.2421
   34CHL1  H23A 3682   0.738   1.192   5.090 -0.6503 -0.3801  0.6328
   34CHL1  H23B 3683   0.898   1.131   5.149  0.2906 -2.0953 -0.6166
   34CHL1   C24 3684   0.832   1.017   4.989  0.6394  0.3927 -0.6112
   34CHL1  H24A 3685   0.941   1.029   4.974  0.7550 -1.3099 -1.3839
   34CHL1  H24B 3686   0.829   0.910   5.016  1.9049 -0.3182 -2.9768
   34CHL1   C25 3687   0.762   1.049   4.860 -0.4364 -0.4246  0.1962
   34CHL1   H25 3688   0.742   1.158   4.860 -0.0832 -0.3512 -0.7723
   34CHL1   C26 3689   0.854   1.017   4.735  0.1456  0.1248  0.0105
   34CHL1  H26A 3690   0.877   0.909   4.748  0.5367  0.4271  2.4368
   34CHL1  H26B 3691   0.795   1.037   4.643  0.1823  0.9087  0.1519
   34CHL1  H26C 3692   0.941   1.086   4.735  0.3593 -0.1415 -0.3260
   34CHL1   C27 3693   0.633   0.973   4.844  0.2864  0.0892  0.4410
   34CHL1  H27A 3694   0.604   0.964   4.737 -1.1231  0.5623  0.7647
   34CHL1  H27B 3695   0.645   0.875   4.896 -0.4136  0.5373  1.4878
   34CHL1  H27C 3696   0.550   1.029   4.893 -1.2197 -2.4189  0.9476
   35CHL1    C3 3697   0.815   2.756   5.907 -0.1497  0.6632  0.0910
   35CHL1    H3 3698   0.707   2.777   5.892 -0.3621 -0.9935 -1.0160
   35CHL1    O3 3699   0.852   2.789   6.042 -0.1683 -0.5091 -0.1272
   35CHL1   H3' 3700   0.939   2.752   6.058 -0.1586 -0.6190 -0.4297
   35CHL1    C4 3701   0.839   2.607   5.878  0.1618  0.3767 -0.0260
   35CHL1   H4A 3702   0.941   2.580   5.913 -0.4191  0.3725  1.7636
   35CHL1   H4B 3703   0.757   2.560   5.936 -0.6049  1.0445 -0.5372
   35CHL1    C5 3704   0.815   2.558   5.737  0.2294  0.3832  0.0569
   35CHL1    C6 3705   0.742   2.453   5.698  0.6303  0.0527 -0.3049
   35CHL1    H6 3706   0.694   2.392   5.776  0.4187 -1.3331 -1.4695
   35CHL1    C7 3707   0.725   2.402   5.559  0.1269  0.2084  0.2013
   35CHL1   H7A 3708   0.742   2.292   5.563  3.1192  0.4371 -2.0963
   35CHL1   H7B 3709   0.619   2.415   5.529 -0.1318 -1.3856  0.3423
   35CHL1    C8 3710   0.829   2.461   5.457  0.2067  0.9281 -0.7876
   35CHL1    H8 3711   0.930   2.415   5.472 -0.5642 -1.1171 -1.5098
   35CHL1   C14 3712   0.797   2.423   5.314  0.8015  0.1013 -0.2796
   35CHL1   H14 3713   0.694   2.463   5.304  0.6154 -0.5976 -1.2112
   35CHL1   C15 3714   0.772   2.275   5.277  1.0264  0.1070 -0.1853
   35CHL1  H15A 3715   0.862   2.215   5.306  2.0578 -0.1823 -3.5921
   35CHL1  H15B 3716   0.688   2.226   5.331  0.9039 -1.4567 -1.6806
   35CHL1   C16 3717   0.758   2.273   5.124  0.6516 -0.2348 -0.5341
   35CHL1  H16A 3718   0.822   2.197   5.074  2.2737  0.1711  0.8206
   35CHL1  H16B 3719   0.652   2.269   5.091 -0.8583  2.2918  3.3173
   35CHL1   C17 3720   0.801   2.424   5.082  0.0011 -0.9017  0.0019
   35CHL1   H17 3721   0.708   2.484   5.082  1.1865  1.0564 -0.7601
   35CHL1   C13 3722   0.871   2.487   5.200 -0.4166  0.1308  0.0724
   35CHL1   C18 3723   1.015   2.435   5.194 -0.8554  0.0542 -0.4022
   35CHL1  H18A 3724   1.025   2.324   5.193  1.0018  0.0622  2.6396
   35CHL1  H18B 3725   1.075   2.486   5.116 -1.0182 -3.2666 -2.9082
   35CHL1  H18C 3726   1.068   2.462   5.288 -0.7498 -4.5199  1.0953
   35CHL1   C12 3727   0.847   2.639   5.227  0.0949 -0.6059  0.0069
   35CHL1  H12A 3728   0.913   2.678   5.147 -0.2569 -0.2340 -0.1032
   35CHL1  H12B 3729   0.748   2.678   5.198 -0.1409 -1.6417 -0.6487
   35CHL1   C11 3730   0.899   2.688   5.362  0.3920 -0.2316 -0.7658
   35CHL1  H11A 3731   1.009   2.670   5.361  0.2414 -1.4262  0.5343
   35CHL1  H11B 3732   0.889   2.798   5.370 -1.7309 -0.4328 -0.0200
   35CHL1    C9 3733   0.837   2.614   5.486  0.2593  1.0709 -0.3181
   35CHL1    H9 3734   0.735   2.659   5.493  0.6489  1.7575  1.4157
   35CHL1   C10 3735   0.886   2.642   5.630 -0.9019 -0.0574  0.0968
   35CHL1   C19 3736   1.042   2.610   5.640  0.1615  0.1341  0.8404
   35CHL1  H19A 3737   1.072   2.640   5.742 -1.8651 -1.0489  1.8498
   35CHL1  H19B 3738   1.059   2.503   5.615  4.6716  0.4715  1.5978
   35CHL1  H19C 3739   1.102   2.668   5.567 -1.4732 -0.8551 -1.4093
   35CHL1    C1 3740   0.874   2.794   5.656  0.6592 -0.0740 -0.1815
   35CHL1   H1A 3741   0.949   2.841   5.590  0.1288  2.8505  1.1185
   35CHL1   H1B 3742   0.769   2.820   5.629  0.0751 -2.6016 -0.5789
   35CHL1    C2 3743   0.898   2.846   5.805 -0.3210 -0.2299 -0.1127
   35CHL1   H2A 3744   0.874   2.954   5.813  2.3632  0.4502 -0.0173
   35CHL1   H2B 3745   1.004   2.836   5.836  0.0510 -2.8509 -1.9212
   35CHL1   C20 3746   0.871   2.429   4.949  0.4595  0.7113 -0.2705
   35CHL1   H20 3747   0.960   2.362   4.949 -1.9488 -2.7394 -1.1137
   35CHL1   C21 3748   0.908   2.567   4.896 -0.7529  0.2383 -0.3198
   35CHL1  H21A 3749   0.825   2.632   4.931 -0.3646 -0.1800  1.4920
   35CHL1  H21B 3750   0.931   2.590   4.789  0.7206  1.5289  0.2320
   35CHL1  H21C 3751   1.000   2.594   4.952  0.1408 -2.8463 -0.1039
   35CHL1   C22 3752   0.779   2.373   4.840  0.8785 -0.3793  0.0045
   35CHL1  H22A 3753   0.722   2.285   4.878 -0.0727  0.9017  1.7027
   35CHL1  H22B 3754   0.710   2.457   4.818  1.0788 -0.1015  0.4286
   35CHL1   C23 3755   0.854   2.339   4.711 -0.6646 -0.2381  0.0858
   35CHL1  H23A 3756   0.942   2.406   4.700  1.6125 -2.5528  2.7892
   35CHL1  H23B 3757   0.902   2.243   4.740 -0.4668  0.0025  0.5573
   35CHL1   C24 3758   0.757   2.336   4.594  0.2686  0.3961  0.1845
   35CHL1  H24A 3759   0.664   2.289   4.633  0.3367  0.2652  0.1888
   35CHL1  H24B 3760   0.732   2.437   4.553  1.4530 -0.0240 -1.7175
   35CHL1   C25 3761   0.794   2.236   4.476 -0.5233 -0.0099 -0.1452
   35CHL1   H25 3762   0.799   2.139   4.530  1.1217 -1.2224 -2.3513
   35CHL1   C26 3763   0.697   2.223   4.356 -0.1677 -0.3102 -0.5571
   35CHL1  H26A 3764   0.685   2.323   4.310 -2.0194 -0.4991 -0.5252
   35CHL1  H26B 3765   0.739   2.151   4.283  0.4037  0.8787 -1.4316
   35CHL1  H26C 3766   0.599   2.179   4.383 -0.7732  0.2173 -1.8465
   35CHL1   C27 3767   0.928   2.276   4.431 -0.3356  0.9855  0.2033
   35CHL1  H27A 3768   0.915   2.379   4.391 -0.5617  1.1493  0.6895
   35CHL1  H27B 3769   0.999   2.270   4.516 -0.8439  1.2436  0.6508
   35CHL1  H27C 3770   0.966   2.223   4.340  1.3688  3.6663 -0.7636
   36CHL1    C3 3771   4.274   2.991   5.792 -0.1722  0.0864  0.1687
   36CHL1    H3 3772   4.182   3.027   5.741 -0.0613  0.4933  0.2503
   36CHL1    O3 3773   4.240   2.968   5.928 -0.5368 -0.3948  0.3544
   36CHL1   H3' 3774   4.306   2.908   5.960 -0.2553 -1.0486 -1.3359
   36CHL1    C4 3775   4.333   2.863   5.730  0.6103 -0.1745  0.1305
   36CHL1   H4A 3776   4.420   2.845   5.797  1.0741 -0.0815 -0.4365
   36CHL1   H4B 3777   4.266   2.774   5.734 -2.4960  1.6225 -3.9395
   36CHL1    C5 3778   4.379   2.875   5.586  0.1344  0.3386  0.3016
   36CHL1    C6 3779   4.341   2.784   5.491 -0.3929 -0.2723  0.1110
   36CHL1    H6 3780   4.276   2.699   5.517  0.6670 -0.2549  3.3062
   36CHL1    C7 3781   4.406   2.798   5.355 -1.0796  0.2284 -0.6933
   36CHL1   H7A 3782   4.447   2.696   5.340 -0.2090  0.4954 -0.2414
   36CHL1   H7B 3783   4.339   2.831   5.273 -4.5325  0.2773  1.9413
   36CHL1    C8 3784   4.524   2.900   5.348  0.5036 -0.5226 -0.7867
   36CHL1    H8 3785   4.613   2.855   5.396 -0.5170 -0.6861  1.0541
   36CHL1   C14 3786   4.554   2.934   5.201  0.6841 -0.0444 -0.6767
   36CHL1   H14 3787   4.463   2.986   5.164 -0.2124 -1.4190 -0.4522
   36CHL1   C15 3788   4.566   2.816   5.109 -0.6131 -0.6445  0.0188
   36CHL1  H15A 3789   4.645   2.742   5.135  1.7517  0.4460 -3.4973
   36CHL1  H15B 3790   4.477   2.752   5.090  0.0496 -1.3696 -0.7350
   36CHL1   C16 3791   4.627   2.877   4.981  0.1341 -0.7432 -0.3657
   36CHL1  H16A 3792   4.715   2.828   4.933  1.0723 -1.3448  1.8176
   36CHL1  H16B 3793   4.548   2.867   4.904  1.0329 -0.4499 -1.3484
   36CHL1   C17 3794   4.670   3.022   5.013 -0.1460 -0.3900  0.1184
   36CHL1   H17 3795   4.590   3.088   4.974 -0.3844 -0.4046  0.5703
   36CHL1   C13 3796   4.664   3.036   5.171  0.5871 -0.2065  0.0110
   36CHL1   C18 3797   4.801   2.980   5.221 -0.4235  0.0025  0.2817
   36CHL1  H18A 3798   4.882   3.054   5.203 -0.4101  0.4967  2.1289
   36CHL1  H18B 3799   4.792   2.955   5.329  0.7635  0.2797  0.4658
   36CHL1  H18C 3800   4.827   2.886   5.167  2.5213  0.8958 -0.0362
   36CHL1   C12 3801   4.631   3.168   5.239  0.6725  0.6518 -0.1141
   36CHL1  H12A 3802   4.730   3.220   5.241  0.8791  0.2514  0.7637
   36CHL1  H12B 3803   4.561   3.234   5.184 -0.7234 -0.0067  0.8286
   36CHL1   C11 3804   4.593   3.138   5.391 -0.2047  0.2753 -0.1936
   36CHL1  H11A 3805   4.691   3.112   5.436  0.8067 -0.5251 -2.6791
   36CHL1  H11B 3806   4.548   3.234   5.425 -0.7556 -0.2281  0.5303
   36CHL1    C9 3807   4.489   3.021   5.420 -0.2776  0.5412  0.2859
   36CHL1    H9 3808   4.394   3.054   5.374 -0.2878 -0.1284 -0.1766
   36CHL1   C10 3809   4.460   3.000   5.571 -0.1948 -0.2375 -0.1201
   36CHL1   C19 3810   4.597   2.971   5.642 -0.6587  0.3305  0.3789
   36CHL1  H19A 3811   4.663   3.060   5.634 -2.2341  1.6687  1.5538
   36CHL1  H19B 3812   4.589   2.953   5.751 -0.9497  1.3706  0.5462
   36CHL1  H19C 3813   4.646   2.881   5.601 -0.1808 -0.4308  2.5179
   36CHL1    C1 3814   4.400   3.130   5.628  0.1047 -0.2994  0.3238
   36CHL1   H1A 3815   4.472   3.215   5.627 -1.2656  0.8894  0.2859
   36CHL1   H1B 3816   4.304   3.149   5.576  0.6012  0.6240 -0.2704
   36CHL1    C2 3817   4.364   3.118   5.779  0.4982  0.0499  0.5273
   36CHL1   H2A 3818   4.288   3.191   5.813 -2.2613 -1.7476 -1.3280
   36CHL1   H2B 3819   4.450   3.103   5.848  1.0946 -0.2110 -0.2522
   36CHL1   C20 3820   4.783   3.091   4.935 -1.3218 -0.5417  0.1145
   36CHL1   H20 3821   4.880   3.054   4.975 -1.0107 -0.5631 -0.6496
   36CHL1   C21 3822   4.803   3.240   4.958  0.1144 -0.3348 -0.1374
   36CHL1  H21A 3823   4.717   3.298   4.917  0.8500  0.9331  0.0634
   36CHL1  H21B 3824   4.893   3.268   4.900 -0.5755  1.6668 -0.3533
   36CHL1  H21C 3825   4.822   3.259   5.066 -0.9059  1.2798 -0.1925
   36CHL1   C22 3826   4.785   3.047   4.781 -0.5900  0.0330  0.0356
   36CHL1  H22A 3827   4.888   3.063   4.742 -1.2238 -0.5339 -2.0073
   36CHL1  H22B 3828   4.791   2.936   4.781  2.3307  0.0238 -2.7003
   36CHL1   C23 3829   4.677   3.096   4.690  0.2162 -0.1073  0.5275
   36CHL1  H23A 3830   4.582   3.052   4.728 -2.6658  4.0560 -1.0732
   36CHL1  H23B 3831   4.656   3.205   4.695  0.2643 -0.1454  1.9533
   36CHL1   C24 3832   4.692   3.051   4.543  0.1957  0.2113  0.0258
   36CHL1  H24A 3833   4.766   3.110   4.486  0.5470  0.6780  0.9465
   36CHL1  H24B 3834   4.711   2.942   4.549  0.7048  0.2767 -0.3412
   36CHL1   C25 3835   4.557   3.061   4.482  0.4636 -0.3362  0.1622
   36CHL1   H25 3836   4.479   3.016   4.547  0.1431  0.6941  0.5152
   36CHL1   C26 3837   4.514   3.207   4.460  0.8007  0.1060 -0.6468
   36CHL1  H26A 3838   4.489   3.259   4.555  1.0524  1.2411 -1.1810
   36CHL1  H26B 3839   4.590   3.269   4.408  2.0392 -0.7888  0.0570
   36CHL1  H26C 3840   4.422   3.210   4.398 -0.5991 -2.6202  1.1012
   36CHL1   C27 3841   4.559   2.989   4.344  0.2357 -0.2495  0.5158
   36CHL1  H27A 3842   4.637   3.048   4.290  1.3450 -0.4343  1.8646
   36CHL1  H27B 3843   4.577   2.880   4.362  1.1365  0.1392  2.1627
   36CHL1  H27C 3844   4.458   2.998   4.299 -0.0355 -0.1629  1.1384
   37CHL1    C3 3845   1.283   6.493   5.849 -0.4716  0.5180 -0.2775
   37CHL1    H3 3846   1.348   6.405   5.827 -1.8323 -0.2444 -1.4021
   37CHL1    O3 3847   1.285   6.518   5.985 -0.3452  0.1419  0.3954
   37CHL1   H3' 3848   1.200   6.488   6.018 -0.1409 -0.3820  0.4591
   37CHL1    C4 3849   1.349   6.607   5.781 -0.6841 -0.0744 -0.0105
   37CHL1   H4A 3850   1.286   6.695   5.806  0.3219  0.8793 -0.7360
   37CHL1   H4B 3851   1.450   6.632   5.820 -0.7537  1.1565 -0.5891
   37CHL1    C5 3852   1.344   6.582   5.634  0.0335 -0.3396 -0.4526
   37CHL1    C6 3853   1.461   6.567   5.563 -0.0737 -0.7729 -0.2504
   37CHL1    H6 3854   1.557   6.602   5.605  0.5343 -0.8573 -1.5180
   37CHL1    C7 3855   1.463   6.536   5.420 -0.6999  0.1704 -0.0728
   37CHL1   H7A 3856   1.532   6.603   5.364  0.0303 -1.2915 -0.9903
   37CHL1   H7B 3857   1.506   6.434   5.419 -0.9614 -0.0787  3.3790
   37CHL1    C8 3858   1.331   6.547   5.348  0.3637  0.6268  0.4215
   37CHL1    H8 3859   1.303   6.653   5.328 -1.4363  0.3998  1.5026
   37CHL1   C14 3860   1.349   6.471   5.210 -0.7599 -0.1132 -0.6708
   37CHL1   H14 3861   1.360   6.363   5.233 -2.9944 -0.5266 -1.3408
   37CHL1   C15 3862   1.465   6.518   5.127 -0.2924 -0.1952 -0.3252
   37CHL1  H15A 3863   1.467   6.629   5.121  2.1512 -0.1700 -0.3707
   37CHL1  H15B 3864   1.556   6.481   5.179 -0.1445  1.4750  0.6801
   37CHL1   C16 3865   1.429   6.454   4.992  0.1189 -0.4441 -0.0006
   37CHL1  H16A 3866   1.459   6.516   4.905  2.0155  0.3692  1.1592
   37CHL1  H16B 3867   1.498   6.368   4.978 -1.5314 -1.9617  0.7919
   37CHL1   C17 3868   1.281   6.401   5.000  0.0394  0.7324 -0.4869
   37CHL1   H17 3869   1.283   6.291   5.013 -4.2587  0.0834 -3.2827
   37CHL1   C13 3870   1.225   6.465   5.127  0.0784  0.6751 -0.4206
   37CHL1   C18 3871   1.174   6.613   5.090 -0.1905  0.1255  0.0431
   37CHL1  H18A 3872   1.086   6.603   5.023  0.7287 -0.3049 -1.1341
   37CHL1  H18B 3873   1.144   6.676   5.177 -1.5243  1.2594 -1.1992
   37CHL1  H18C 3874   1.254   6.665   5.035  1.6578 -1.7931  0.7612
   37CHL1   C12 3875   1.116   6.394   5.210 -0.1505  0.5810  0.1049
   37CHL1  H12A 3876   1.016   6.390   5.162 -1.1002 -1.2572  2.0837
   37CHL1  H12B 3877   1.148   6.289   5.220  1.6207  0.9616 -1.1266
   37CHL1   C11 3878   1.092   6.463   5.344 -0.7448  0.4174  0.2489
   37CHL1  H11A 3879   1.045   6.564   5.343 -0.0419  0.7663 -1.5019
   37CHL1  H11B 3880   1.016   6.397   5.393 -0.1471 -1.4817 -1.2691
   37CHL1    C9 3881   1.222   6.482   5.428  0.1413  0.0274 -0.4690
   37CHL1    H9 3882   1.253   6.379   5.457 -2.3570 -0.6781 -0.0566
   37CHL1   C10 3883   1.213   6.556   5.565  0.6977 -0.1380 -0.4417
   37CHL1   C19 3884   1.133   6.686   5.551  0.1983 -0.3139  0.0949
   37CHL1  H19A 3885   1.187   6.762   5.490 -0.0890 -0.3163 -0.1577
   37CHL1  H19B 3886   1.030   6.682   5.512  1.0439  1.5109 -2.5920
   37CHL1  H19C 3887   1.119   6.726   5.654  1.9548  1.4530 -0.2874
   37CHL1    C1 3888   1.136   6.458   5.656  0.1673 -0.4164  0.4978
   37CHL1   H1A 3889   1.029   6.455   5.626  0.5179 -2.3389 -0.7249
   37CHL1   H1B 3890   1.172   6.355   5.633 -1.4639 -0.6235 -1.3845
   37CHL1    C2 3891   1.134   6.482   5.809 -0.0783 -0.2701 -0.6873
   37CHL1   H2A 3892   1.092   6.398   5.868  1.9801 -0.1607  1.0436
   37CHL1   H2B 3893   1.077   6.575   5.828 -0.6572 -0.4157 -1.6139
   37CHL1   C20 3894   1.200   6.409   4.877 -1.1519 -0.6024  0.0276
   37CHL1   H20 3895   1.199   6.519   4.860 -1.1798 -0.7101 -0.6947
   37CHL1   C21 3896   1.056   6.362   4.899 -0.3420  0.8365 -0.4571
   37CHL1  H21A 3897   1.005   6.335   4.804  0.7133  3.1528 -1.7752
   37CHL1  H21B 3898   0.990   6.432   4.955 -0.2581 -0.6940  1.6387
   37CHL1  H21C 3899   1.069   6.269   4.958 -1.9161  0.4548 -0.6547
   37CHL1   C22 3900   1.270   6.333   4.758  0.5402 -0.7408 -0.2804
   37CHL1  H22A 3901   1.373   6.304   4.787  0.6113 -0.5711 -0.3570
   37CHL1  H22B 3902   1.212   6.240   4.740  2.2560 -1.3904 -3.0713
   37CHL1   C23 3903   1.282   6.412   4.624 -0.2962 -0.3247 -0.0518
   37CHL1  H23A 3904   1.197   6.482   4.606  0.9972  1.4048  0.2602
   37CHL1  H23B 3905   1.370   6.480   4.634 -1.0230  1.1771 -2.7673
   37CHL1   C24 3906   1.313   6.322   4.502  0.1375  0.5281  0.0356
   37CHL1  H24A 3907   1.226   6.256   4.481 -0.2656  0.8361  0.7140
   37CHL1  H24B 3908   1.314   6.389   4.414 -0.9754 -0.0750 -0.4445
   37CHL1   C25 3909   1.446   6.246   4.517 -0.0263  0.1088 -0.1512
   37CHL1   H25 3910   1.433   6.180   4.605  1.4652 -0.2503 -0.1720
   37CHL1   C26 3911   1.481   6.153   4.401  0.2930 -0.6664 -1.0596
   37CHL1  H26A 3912   1.400   6.080   4.383 -2.6323  1.9925  0.3395
   37CHL1  H26B 3913   1.491   6.213   4.308  0.4571  0.1062 -0.5546
   37CHL1  H26C 3914   1.582   6.109   4.418  0.4250  0.1238  0.4048
   37CHL1   C27 3915   1.561   6.343   4.541 -0.0277  0.7229  0.3334
   37CHL1  H27A 3916   1.555   6.417   4.458 -0.0787 -0.0718 -0.3820
   37CHL1  H27B 3917   1.547   6.389   4.642 -1.2357 -0.0607  0.5479
   37CHL1  H27C 3918   1.654   6.284   4.539 -1.3954 -1.5645  0.6004
   38CHL1    C3 3919   4.264   0.328   6.006 -0.5166 -0.4457 -0.1433
   38CHL1    H3 3920   4.154   0.336   6.014 -0.7328 -1.5627 -1.7120
   38CHL1    O3 3921   4.313   0.311   6.137 -0.4061  0.2081 -0.4099
   38CHL1   H3' 3922   4.396   0.358   6.147  0.2331 -1.2609  2.1902
   38CHL1    C4 3923   4.296   0.190   5.928  0.1167 -0.2022  0.5844
   38CHL1   H4A 3924   4.406   0.174   5.927  0.3516  1.2748 -0.3731
   38CHL1   H4B 3925   4.241   0.111   5.984  0.2958 -0.5406  0.2824
   38CHL1    C5 3926   4.251   0.200   5.784  0.2138 -0.0057  0.1226
   38CHL1    C6 3927   4.162   0.111   5.732  0.3623 -0.3988 -1.2251
   38CHL1    H6 3928   4.134   0.026   5.796 -1.4966 -0.4696 -2.0580
   38CHL1    C7 3929   4.103   0.108   5.593 -0.2305 -0.3772  0.1259
   38CHL1   H7A 3930   4.105   0.004   5.553  1.9247 -0.3825  0.0973
   38CHL1   H7B 3931   3.995   0.135   5.591  0.1182  1.2143  0.9907
   38CHL1    C8 3932   4.190   0.199   5.498 -0.5800  0.1046 -0.0150
   38CHL1    H8 3933   4.284   0.141   5.484 -0.1513  0.8471 -0.2725
   38CHL1   C14 3934   4.128   0.200   5.361 -0.0599  0.4707 -0.0778
   38CHL1   H14 3935   4.029   0.248   5.375  0.7695  2.1692  0.2763
   38CHL1   C15 3936   4.090   0.067   5.300  0.0494  0.4888  0.1701
   38CHL1  H15A 3937   4.175  -0.004   5.306  0.9194  1.4575 -0.4682
   38CHL1  H15B 3938   3.998   0.018   5.339  0.1584  0.9400  1.0234
   38CHL1   C16 3939   4.063   0.107   5.154  0.5757 -0.1538 -0.2654
   38CHL1  H16A 3940   4.113   0.031   5.090  1.7916  0.6941 -0.3392
   38CHL1  H16B 3941   3.953   0.106   5.134  0.1495  0.8313  1.8137
   38CHL1   C17 3942   4.116   0.259   5.128 -0.3744  0.7657 -0.1392
   38CHL1   H17 3943   4.022   0.313   5.152  0.2896  1.7646  0.2955
   38CHL1   C13 3944   4.205   0.282   5.259 -0.4839 -0.4428  0.9032
   38CHL1   C18 3945   4.349   0.227   5.231  0.2449 -0.4932 -0.3882
   38CHL1  H18A 3946   4.390   0.300   5.158 -2.3141  2.7127  1.1057
   38CHL1  H18B 3947   4.410   0.221   5.324  1.1149  1.4871 -0.7848
   38CHL1  H18C 3948   4.340   0.128   5.182  1.0652 -1.0483  0.5292
   38CHL1   C12 3949   4.227   0.421   5.314 -0.0574 -0.0982  0.6250
   38CHL1  H12A 3950   4.279   0.481   5.235  0.5392 -0.6926  0.5564
   38CHL1  H12B 3951   4.128   0.466   5.335  1.2770  3.8041 -0.4562
   38CHL1   C11 3952   4.289   0.425   5.451 -0.4100 -0.2281  0.2296
   38CHL1  H11A 3953   4.398   0.403   5.443 -0.4297 -1.0907  1.9012
   38CHL1  H11B 3954   4.282   0.527   5.495  0.1990  0.3615 -1.0045
   38CHL1    C9 3955   4.221   0.333   5.561  0.0442  0.2641 -0.1124
   38CHL1    H9 3956   4.118   0.367   5.585  0.8362  2.3427  0.5204
   38CHL1   C10 3957   4.298   0.324   5.697  0.8501  0.6844  0.4672
   38CHL1   C19 3958   4.451   0.305   5.679 -0.3172 -0.3356  0.6508
   38CHL1  H19A 3959   4.500   0.312   5.778 -1.1186  0.7971  0.9801
   38CHL1  H19B 3960   4.486   0.223   5.612  0.2645  0.3932  0.0275
   38CHL1  H19C 3961   4.485   0.396   5.625 -2.7409 -0.1013 -0.5917
   38CHL1    C1 3962   4.281   0.456   5.782 -0.2155  0.3376 -0.3365
   38CHL1   H1A 3963   4.329   0.541   5.730 -0.6530 -0.7262 -2.5793
   38CHL1   H1B 3964   4.171   0.464   5.780 -0.4639 -1.4051  1.6319
   38CHL1    C2 3965   4.330   0.448   5.923 -0.4667 -0.3244 -0.4888
   38CHL1   H2A 3966   4.291   0.544   5.963 -0.5849 -0.9013  0.8267
   38CHL1   H2B 3967   4.440   0.442   5.938 -0.4094  1.1967 -0.0788
   38CHL1   C20 3968   4.164   0.281   4.986 -0.1231 -1.0948  0.0327
   38CHL1   H20 3969   4.269   0.247   4.971  0.2077 -0.5186  0.9653
   38CHL1   C21 3970   4.152   0.426   4.979 -0.4566 -0.2145 -0.2074
   38CHL1  H21A 3971   4.068   0.473   5.035 -0.2012  1.0650 -0.8395
   38CHL1  H21B 3972   4.160   0.458   4.872 -0.1660 -0.2027 -0.1833
   38CHL1  H21C 3973   4.252   0.465   5.009  0.7428 -1.7038 -2.0284
   38CHL1   C22 3974   4.078   0.226   4.877  0.3664  0.1122 -0.3649
   38CHL1  H22A 3975   4.044   0.125   4.906  1.5423 -0.2812 -0.2949
   38CHL1  H22B 3976   3.995   0.297   4.853  1.3120  1.0937 -0.8428
   38CHL1   C23 3977   4.151   0.214   4.744 -0.2608 -0.5443 -0.3714
   38CHL1  H23A 3978   4.200   0.310   4.720 -3.9714  0.9404 -2.9918
   38CHL1  H23B 3979   4.224   0.130   4.750 -1.6101 -1.7618 -0.4138
   38CHL1   C24 3980   4.055   0.180   4.625  0.1077 -0.1832 -0.4335
   38CHL1  H24A 3981   3.996   0.091   4.656 -0.0680  0.4845  1.2844
   38CHL1  H24B 3982   3.981   0.263   4.619  0.1178 -0.0926  0.5325
   38CHL1   C25 3983   4.115   0.166   4.481  0.5456 -0.6762  0.1104
   38CHL1   H25 3984   4.196   0.090   4.486  1.5652  0.3292 -0.6105
   38CHL1   C26 3985   4.008   0.114   4.388 -0.1259 -0.7861 -0.2126
   38CHL1  H26A 3986   3.928   0.186   4.359 -0.9619 -2.3928 -2.1322
   38CHL1  H26B 3987   4.044   0.091   4.286 -0.3513 -0.8372 -0.2811
   38CHL1  H26C 3988   3.962   0.020   4.427 -1.2441 -0.5803 -0.9842
   38CHL1   C27 3989   4.181   0.297   4.433  0.6819  0.2625 -0.3784
   38CHL1  H27A 3990   4.252   0.334   4.510 -0.0872  0.0858  0.4342
   38CHL1  H27B 3991   4.239   0.286   4.339  0.2148  0.4528 -0.6932
   38CHL1  H27C 3992   4.105   0.377   4.431  1.5454  1.0996 -1.4957
   39CHL1    C3 3993   5.942   6.180   6.142 -0.4509 -0.0291 -0.2053
   39CHL1    H3 3994   5.980   6.077   6.123  0.5675  0.6579 -2.2842
   39CHL1    O3 3995   5.939   6.194   6.285 -0.0084  0.0019  0.7331
   39CHL1   H3' 3996   5.852   6.157   6.300 -0.0611  0.4956  1.7000
   39CHL1    C4 3997   6.053   6.264   6.069  0.3161  0.0347 -0.1095
   39CHL1   H4A 3998   6.026   6.371   6.085  1.0733  0.2336 -0.1171
   39CHL1   H4B 3999   6.152   6.261   6.120 -0.2048  0.3361  0.9411
   39CHL1    C5 4000   6.054   6.254   5.916  0.2085  0.8629  0.3238
   39CHL1    C6 4001   6.161   6.205   5.854 -1.1683 -0.6149 -0.1215
   39CHL1    H6 4002   6.254   6.193   5.913  0.0927  2.1575 -1.3657
   39CHL1    C7 4003   6.166   6.180   5.701  0.6753 -0.0665 -0.6408
   39CHL1   H7A 4004   6.254   6.232   5.659  0.1645  0.6280 -0.8708
   39CHL1   H7B 4005   6.183   6.072   5.682  0.1342 -0.5441  1.2919
   39CHL1    C8 4006   6.039   6.224   5.630  0.2162 -0.4477  0.6788
   39CHL1    H8 4007   6.052   6.334   5.617 -0.7432 -0.4150 -0.1576
   39CHL1   C14 4008   6.033   6.154   5.496 -0.0159  0.6197  0.8992
   39CHL1   H14 4009   6.011   6.049   5.523 -1.5273  0.8568  0.6594
   39CHL1   C15 4010   6.161   6.142   5.406  0.7921 -0.7213 -0.5382
   39CHL1  H15A 4011   6.212   6.238   5.383 -0.3673 -0.4463 -2.1441
   39CHL1  H15B 4012   6.233   6.067   5.445 -0.2278 -2.0150 -1.0903
   39CHL1   C16 4013   6.113   6.085   5.274 -0.3708  0.3756 -0.2808
   39CHL1  H16A 4014   6.175   6.131   5.194  0.3281  1.3559  0.7895
   39CHL1  H16B 4015   6.126   5.975   5.266 -0.8349  0.4001 -1.5732
   39CHL1   C17 4016   5.958   6.109   5.270  0.3551 -0.3476 -1.5974
   39CHL1   H17 4017   5.909   6.017   5.309 -3.7577  3.1301  2.6183
   39CHL1   C13 4018   5.924   6.189   5.397  0.6455  0.0588 -0.7925
   39CHL1   C18 4019   5.936   6.337   5.350  0.2278  0.4926 -0.4402
   39CHL1  H18A 4020   5.977   6.409   5.424  1.2996  2.4619 -2.8138
   39CHL1  H18B 4021   6.002   6.357   5.263  1.5149  2.7959  0.9567
   39CHL1  H18C 4022   5.834   6.371   5.321 -0.1560 -0.9929 -0.9193
   39CHL1   C12 4023   5.785   6.160   5.475 -1.0461 -0.5693 -0.4269
   39CHL1  H12A 4024   5.698   6.193   5.413 -0.8226 -0.9401 -0.9498
   39CHL1  H12B 4025   5.785   6.050   5.493  0.3700 -0.5028  0.1161
   39CHL1   C11 4026   5.785   6.238   5.612  0.4938 -0.0383 -0.6401
   39CHL1  H11A 4027   5.794   6.348   5.601  1.0835 -0.0495 -0.2778
   39CHL1  H11B 4028   5.694   6.219   5.673  0.3729 -0.6352 -0.9943
   39CHL1    C9 4029   5.913   6.205   5.701  0.5688 -0.2812  0.6422
   39CHL1    H9 4030   5.899   6.096   5.717 -2.9394 -0.1170 -0.3813
   39CHL1   C10 4031   5.914   6.262   5.844 -0.4218 -0.0690  0.1422
   39CHL1   C19 4032   5.895   6.417   5.836  0.5081  0.6180 -0.5832
   39CHL1  H19A 4033   5.926   6.471   5.928  3.3295 -1.2382 -0.2943
   39CHL1  H19B 4034   5.949   6.457   5.748 -0.5853  1.5154 -0.8609
   39CHL1  H19C 4035   5.787   6.425   5.815 -0.0403 -1.7039  0.9072
   39CHL1    C1 4036   5.813   6.182   5.931 -0.4732 -0.5579  1.0420
   39CHL1   H1A 4037   5.714   6.188   5.882 -1.4738  1.1275  3.1316
   39CHL1   H1B 4038   5.851   6.078   5.924  1.1363 -0.0053  0.8950
   39CHL1    C2 4039   5.807   6.206   6.078 -0.1973 -1.0197 -0.6993
   39CHL1   H2A 4040   5.733   6.130   6.108 -0.2412 -1.7226 -2.4338
   39CHL1   H2B 4041   5.778   6.313   6.081 -0.3087 -0.8358 -3.9059
   39CHL1   C20 4042   5.884   6.145   5.134 -0.0197  0.2982 -0.0498
   39CHL1   H20 4043   5.810   6.224   5.158  1.4061  1.4146  0.8051
   39CHL1   C21 4044   5.804   6.015   5.095 -0.0071  0.2751  0.6481
   39CHL1  H21A 4045   5.736   5.984   5.178  0.8444  0.3943  1.4108
   39CHL1  H21B 4046   5.878   5.934   5.082  1.0252  1.1791  0.7227
   39CHL1  H21C 4047   5.751   6.026   4.999  2.3607  1.1103 -0.6557
   39CHL1   C22 4048   5.975   6.188   5.020 -0.2965  0.2759  0.4105
   39CHL1  H22A 4049   6.040   6.272   5.051  1.1948  0.0768 -1.9718
   39CHL1  H22B 4050   6.045   6.103   5.006  0.7641  0.9384  1.5168
   39CHL1   C23 4051   5.917   6.221   4.876 -0.5377 -0.4655 -1.1598
   39CHL1  H23A 4052   5.866   6.127   4.846 -1.6647 -1.1573  2.4266
   39CHL1  H23B 4053   5.850   6.307   4.892 -0.9890 -0.6665 -1.9163
   39CHL1   C24 4054   6.023   6.271   4.771 -0.4131  0.1514  0.5475
   39CHL1  H24A 4055   6.073   6.364   4.805  1.6475 -0.3675 -0.8806
   39CHL1  H24B 4056   6.105   6.197   4.770 -0.7680 -0.2415  0.0369
   39CHL1   C25 4057   5.963   6.276   4.631  0.0888  0.2858 -0.3631
   39CHL1   H25 4058   5.913   6.178   4.619  0.2385  0.4258 -2.4660
   39CHL1   C26 4059   5.854   6.382   4.607  1.1735  0.6536 -0.1391
   39CHL1  H26A 4060   5.892   6.484   4.623  0.6543  1.0289 -1.2084
   39CHL1  H26B 4061   5.822   6.369   4.501  0.4297  0.2807  0.1236
   39CHL1  H26C 4062   5.757   6.357   4.655  0.3945  3.1571 -0.2928
   39CHL1   C27 4063   6.074   6.290   4.523 -0.0919 -0.2753  0.0030
   39CHL1  H27A 4064   6.038   6.299   4.418 -2.6350  0.8409  0.9022
   39CHL1  H27B 4065   6.118   6.391   4.535 -3.9403  1.6686 -0.6299
   39CHL1  H27C 4066   6.147   6.208   4.542  1.8873  1.5614  0.6607
   40CHL1    C3 4067   6.217   2.616   6.009  0.1377 -0.8509 -0.3905
   40CHL1    H3 4068   6.307   2.682   6.011  0.2990 -1.0848  0.0282
   40CHL1    O3 4069   6.158   2.654   6.137  0.2401  0.2727  0.2304
   40CHL1   H3' 4070   6.099   2.580   6.156 -0.4327  0.6439 -0.3616
   40CHL1    C4 4071   6.128   2.659   5.892 -0.8213  0.2571 -0.6121
   40CHL1   H4A 4072   6.030   2.607   5.899 -2.0198  2.3786 -0.8353
   40CHL1   H4B 4073   6.102   2.766   5.888 -0.9560  0.3159  0.9982
   40CHL1    C5 4074   6.201   2.623   5.763 -0.3091 -0.1923 -0.4872
   40CHL1    C6 4075   6.234   2.714   5.670  0.3967 -0.1687 -0.6933
   40CHL1    H6 4076   6.198   2.816   5.688 -2.4067 -1.1382 -0.2819
   40CHL1    C7 4077   6.297   2.694   5.533 -0.3139 -0.3386 -0.4736
   40CHL1   H7A 4078   6.238   2.741   5.452 -1.4194  0.1229  0.5707
   40CHL1   H7B 4079   6.399   2.736   5.522  0.6002 -2.4956 -0.8992
   40CHL1    C8 4080   6.303   2.541   5.502 -0.4839  0.0098 -0.1344
   40CHL1    H8 4081   6.203   2.509   5.466 -0.1732  0.3015 -1.2927
   40CHL1   C14 4082   6.405   2.514   5.393 -0.8537 -0.0041 -0.0157
   40CHL1   H14 4083   6.504   2.546   5.432 -1.2831  1.0450  0.2385
   40CHL1   C15 4084   6.391   2.596   5.264  0.5635  0.0375  0.1007
   40CHL1  H15A 4085   6.288   2.609   5.225 -0.1973 -1.0709  1.6127
   40CHL1  H15B 4086   6.423   2.702   5.270 -0.3871  0.3581 -0.3153
   40CHL1   C16 4087   6.472   2.514   5.168 -0.3166  0.1250  0.3957
   40CHL1  H16A 4088   6.414   2.509   5.074 -1.3898  1.8388  0.9056
   40CHL1  H16B 4089   6.564   2.569   5.137 -0.8245  0.7139 -0.0729
   40CHL1   C17 4090   6.519   2.385   5.237  0.1688 -0.2217 -0.0466
   40CHL1   H17 4091   6.614   2.421   5.283 -1.1641 -0.6259  3.2974
   40CHL1   C13 4092   6.427   2.367   5.353 -0.6169 -0.0363 -0.0450
   40CHL1   C18 4093   6.289   2.307   5.307  0.3975  0.3943  0.4090
   40CHL1  H18A 4094   6.250   2.359   5.216  1.3157  0.4769  0.0488
   40CHL1  H18B 4095   6.303   2.202   5.275 -2.6837 -0.0505  0.2746
   40CHL1  H18C 4096   6.210   2.299   5.384 -1.1595  0.1777 -1.1514
   40CHL1   C12 4097   6.486   2.305   5.481 -0.3023 -0.0192 -0.0383
   40CHL1  H12A 4098   6.494   2.194   5.470 -1.3086 -0.1543  0.4857
   40CHL1  H12B 4099   6.587   2.336   5.516  1.8895 -2.5009 -3.4711
   40CHL1   C11 4100   6.388   2.319   5.601  0.5842  0.0418 -0.7317
   40CHL1  H11A 4101   6.289   2.273   5.579 -1.2146  3.6881 -1.0156
   40CHL1  H11B 4102   6.436   2.273   5.689  2.4793  2.4040 -0.4242
   40CHL1    C9 4103   6.343   2.465   5.628  0.4353 -0.7761  0.0925
   40CHL1    H9 4104   6.436   2.520   5.652 -0.6665  2.0418 -1.6247
   40CHL1   C10 4105   6.247   2.481   5.748  0.1306 -0.3669  0.2129
   40CHL1   C19 4106   6.122   2.389   5.733  0.1204 -0.1430  0.1828
   40CHL1  H19A 4107   6.147   2.283   5.713  0.5375 -0.0719  0.3265
   40CHL1  H19B 4108   6.063   2.395   5.827  1.4628  2.0829  0.9682
   40CHL1  H19C 4109   6.053   2.428   5.655 -1.1739 -0.9823  0.8736
   40CHL1    C1 4110   6.329   2.430   5.870 -0.1940  0.0257 -0.2633
   40CHL1   H1A 4111   6.328   2.319   5.861 -3.0720  0.0978 -2.0072
   40CHL1   H1B 4112   6.433   2.469   5.864  0.6131 -1.8266  0.8822
   40CHL1    C2 4113   6.258   2.471   6.001 -0.8983 -0.1957 -0.5166
   40CHL1   H2A 4114   6.331   2.451   6.082 -0.6402 -1.0862 -0.9587
   40CHL1   H2B 4115   6.167   2.412   6.023 -2.2991  1.5470 -1.3798
   40CHL1   C20 4116   6.550   2.270   5.145  0.2067  0.5547  0.1590
   40CHL1   H20 4117   6.458   2.241   5.090  0.3597 -0.3928  0.3833
   40CHL1   C21 4118   6.596   2.145   5.223 -0.1100  0.8875 -0.4874
   40CHL1  H21A 4119   6.681   2.178   5.287  0.5047 -0.7402 -0.4276
   40CHL1  H21B 4120   6.641   2.056   5.174 -1.8139 -1.2241  1.5441
   40CHL1  H21C 4121   6.508   2.120   5.287  0.3323  0.8182  0.1005
   40CHL1   C22 4122   6.648   2.306   5.024 -0.2338 -0.9261  0.4481
   40CHL1  H22A 4123   6.607   2.395   4.971  0.0039 -0.2553  1.3645
   40CHL1  H22B 4124   6.742   2.348   5.065 -0.1524 -0.1720 -0.4637
   40CHL1   C23 4125   6.665   2.190   4.917  0.1410  0.0972 -0.0721
   40CHL1  H23A 4126   6.719   2.108   4.968 -1.6266 -0.6253  0.7029
   40CHL1  H23B 4127   6.563   2.155   4.889  1.3239 -3.1307 -0.7819
   40CHL1   C24 4128   6.748   2.234   4.794 -0.3029 -0.5861 -0.8587
   40CHL1  H24A 4129   6.687   2.306   4.735  1.2529  0.6755 -1.0238
   40CHL1  H24B 4130   6.833   2.300   4.821 -1.3441  1.8232 -3.0458
   40CHL1   C25 4131   6.792   2.116   4.704  0.0783 -0.1071  0.3824
   40CHL1   H25 4132   6.844   2.036   4.761  0.6952 -0.7637 -1.0723
   40CHL1   C26 4133   6.658   2.047   4.642 -0.7734 -0.2940  0.1692
   40CHL1  H26A 4134   6.611   2.134   4.592 -0.6072  1.4618  2.8725
   40CHL1  H26B 4135   6.692   1.980   4.561  1.1876  1.0693 -0.1831
   40CHL1  H26C 4136   6.602   1.993   4.722  0.9230  0.0978  1.6652
   40CHL1   C27 4137   6.887   2.158   4.589  0.3703  0.5352 -0.5313
   40CHL1  H27A 4138   6.883   2.086   4.504 -0.8915 -0.2161  0.1261
   40CHL1  H27B 4139   6.865   2.260   4.549 -0.5258  0.6359  0.1627
   40CHL1  H27C 4140   6.990   2.157   4.629 -0.0869  1.2547  0.7146
   41CHL1    C3 4141   1.750   3.808   6.083 -0.2853  0.1872  0.2859
   41CHL1    H3 4142   1.802   3.712   6.105 -0.9207 -0.6820 -1.7148
   41CHL1    O3 4143   1.684   3.847   6.200 -0.2227  0.3700  0.2159
   41CHL1   H3' 4144   1.634   3.923   6.169 -0.7795  0.3381  1.0195
   41CHL1    C4 4145   1.845   3.918   6.042 -0.2478  0.3551 -0.0058
   41CHL1   H4A 4146   1.789   4.014   6.027  0.0076  0.5409  0.2238
   41CHL1   H4B 4147   1.914   3.929   6.128  0.9423 -0.9428 -0.7582
   41CHL1    C5 4148   1.915   3.879   5.913 -0.8767  0.1225 -0.2307
   41CHL1    C6 4149   2.048   3.851   5.911  0.7814 -0.5713  0.5209
   41CHL1    H6 4150   2.095   3.862   6.009  0.4935 -0.3350  0.6321
   41CHL1    C7 4151   2.122   3.833   5.790  0.4282  0.4756  0.4403
   41CHL1   H7A 4152   2.215   3.894   5.796  0.7448  0.2657 -1.5460
   41CHL1   H7B 4153   2.147   3.725   5.779 -1.0199  0.0139  1.5005
   41CHL1    C8 4154   2.040   3.882   5.673  0.6368 -0.1662  0.6292
   41CHL1    H8 4155   2.027   3.992   5.676 -0.5193 -0.1688 -1.7006
   41CHL1   C14 4156   2.111   3.848   5.541 -0.4005  0.2159 -0.2372
   41CHL1   H14 4157   2.114   3.737   5.537  1.4518  0.2729 -1.3375
   41CHL1   C15 4158   2.260   3.891   5.530 -0.3796 -0.1243 -0.0974
   41CHL1  H15A 4159   2.277   3.987   5.585  2.2432  0.2068 -1.3313
   41CHL1  H15B 4160   2.332   3.826   5.583  2.6054  3.1762  0.3346
   41CHL1   C16 4161   2.275   3.898   5.378 -0.2682 -0.4723  0.1693
   41CHL1  H16A 4162   2.321   3.996   5.355 -1.7111  0.5691  1.5803
   41CHL1  H16B 4163   2.344   3.813   5.360 -0.4297 -0.4948 -0.3599
   41CHL1   C17 4164   2.138   3.863   5.306 -0.3912  0.2251 -0.1537
   41CHL1   H17 4165   2.144   3.755   5.279  1.7859  0.1390  0.4420
   41CHL1   C13 4166   2.034   3.894   5.416 -0.2246  0.9842  0.2626
   41CHL1   C18 4167   2.010   4.044   5.418 -0.5978  0.7390  0.5466
   41CHL1  H18A 4168   1.960   4.084   5.327 -1.5715  0.9859  1.1796
   41CHL1  H18B 4169   1.943   4.074   5.501 -2.6133 -1.0453 -0.3551
   41CHL1  H18C 4170   2.104   4.100   5.438  0.4289 -0.4901 -0.5776
   41CHL1   C12 4171   1.904   3.817   5.400  0.0733  0.4942 -0.0629
   41CHL1  H12A 4172   1.845   3.845   5.310 -1.8158  0.7324  1.1991
   41CHL1  H12B 4173   1.929   3.709   5.400  0.2345  0.4892  2.0774
   41CHL1   C11 4174   1.820   3.840   5.531 -0.0366 -0.4407  0.2730
   41CHL1  H11A 4175   1.778   3.943   5.525  0.4649 -0.0925  2.0901
   41CHL1  H11B 4176   1.735   3.768   5.524 -1.2472  1.0410 -0.9406
   41CHL1    C9 4177   1.904   3.819   5.665  0.8366  0.0288  0.4678
   41CHL1    H9 4178   1.919   3.709   5.672  0.0244 -0.1677 -0.6113
   41CHL1   C10 4179   1.820   3.867   5.794  0.3607  0.4035  0.2775
   41CHL1   C19 4180   1.759   4.009   5.761 -0.0160 -0.1847 -0.3760
   41CHL1  H19A 4181   1.701   4.054   5.846 -0.2224 -1.4156  0.1557
   41CHL1  H19B 4182   1.830   4.085   5.722  1.4639 -1.0819  0.4880
   41CHL1  H19C 4183   1.677   4.014   5.686 -0.3521  1.4590  0.0502
   41CHL1    C1 4184   1.710   3.758   5.837  0.2901  0.0375 -0.6722
   41CHL1   H1A 4185   1.632   3.739   5.761 -2.4196  1.3288  1.6174
   41CHL1   H1B 4186   1.771   3.666   5.848  0.1258 -0.1745 -1.4395
   41CHL1    C2 4187   1.642   3.801   5.972 -0.0947  0.0360  0.0060
   41CHL1   H2A 4188   1.573   3.723   6.010 -0.4689  0.4121  0.1041
   41CHL1   H2B 4189   1.594   3.900   5.954  1.3665  0.8140  0.1807
   41CHL1   C20 4190   2.137   3.932   5.166 -0.6558  0.2510  0.0426
   41CHL1   H20 4191   2.164   4.036   5.191 -0.0674  0.0299  0.3398
   41CHL1   C21 4192   1.999   3.914   5.107  0.3021  0.1785 -0.2255
   41CHL1  H21A 4193   1.979   3.805   5.109  3.4570 -0.4921  0.4806
   41CHL1  H21B 4194   1.981   3.943   5.001 -3.9335 -0.9745 -0.0119
   41CHL1  H21C 4195   1.918   3.965   5.164 -1.3831 -0.7061 -1.7202
   41CHL1   C22 4196   2.248   3.874   5.073 -0.0364  0.2074 -0.0156
   41CHL1  H22A 4197   2.348   3.886   5.121  1.5922 -1.1764 -2.7652
   41CHL1  H22B 4198   2.226   3.768   5.049  0.7048  0.4726 -2.0738
   41CHL1   C23 4199   2.271   3.959   4.946  0.0863 -0.7360  0.5621
   41CHL1  H23A 4200   2.179   3.949   4.884  0.7669 -0.4112 -0.5273
   41CHL1  H23B 4201   2.278   4.067   4.974  1.4446 -0.9372  1.0729
   41CHL1   C24 4202   2.393   3.923   4.859 -0.1167  0.6167 -0.4141
   41CHL1  H24A 4203   2.381   3.963   4.757  1.3229  0.0267 -0.8337
   41CHL1  H24B 4204   2.483   3.965   4.908 -0.6072  2.3044 -0.8857
   41CHL1   C25 4205   2.430   3.772   4.836  0.7745 -0.0574  0.0205
   41CHL1   H25 4206   2.454   3.723   4.932  1.5272 -1.0986 -0.6703
   41CHL1   C26 4207   2.322   3.694   4.764  0.1618  0.2083  0.1615
   41CHL1  H26A 4208   2.230   3.707   4.825 -0.0763  0.6498 -0.2833
   41CHL1  H26B 4209   2.313   3.739   4.663 -1.5520  0.4394  0.3865
   41CHL1  H26C 4210   2.354   3.588   4.760  0.5531  0.2576  1.5209
   41CHL1   C27 4211   2.550   3.744   4.745  0.1681 -0.3688 -1.1668
   41CHL1  H27A 4212   2.573   3.637   4.731  0.2980 -0.4859 -0.1167
   41CHL1  H27B 4213   2.546   3.793   4.645  0.6541  0.1204 -0.9531
   41CHL1  H27C 4214   2.636   3.792   4.797 -0.0467 -1.3838  0.1820
   42CHL1    C3 4215   1.870   6.516   5.831 -0.0678 -0.4426  0.2224
   42CHL1    H3 4216   1.766   6.485   5.807  0.1228  0.3696 -1.8436
   42CHL1    O3 4217   1.894   6.520   5.965  0.1419 -0.6394  0.2011
   42CHL1   H3' 4218   1.986   6.541   5.982 -0.3455 -0.5824  3.3532
   42CHL1    C4 4219   1.967   6.418   5.770  0.6289 -0.3776 -0.2501
   42CHL1   H4A 4220   2.074   6.443   5.785  0.3520  0.5661  0.2260
   42CHL1   H4B 4221   1.947   6.323   5.823 -1.1727  0.2181  0.2009
   42CHL1    C5 4222   1.942   6.411   5.622 -0.2542 -0.5247  0.2658
   42CHL1    C6 4223   1.913   6.288   5.565 -0.0145 -0.1676 -0.4351
   42CHL1    H6 4224   1.905   6.196   5.625  2.0458  0.7776  1.4204
   42CHL1    C7 4225   1.880   6.262   5.414 -0.0536  0.5657 -0.5733
   42CHL1   H7A 4226   1.933   6.171   5.379  0.5870  0.9942 -0.7350
   42CHL1   H7B 4227   1.772   6.238   5.416  0.2146 -0.9151 -1.7755
   42CHL1    C8 4228   1.923   6.386   5.332  0.3080 -0.1957 -0.1052
   42CHL1    H8 4229   2.033   6.379   5.317  0.2425 -0.3226 -0.5237
   42CHL1   C14 4230   1.876   6.372   5.184 -0.1973 -0.7771 -0.7088
   42CHL1   H14 4231   1.765   6.366   5.193 -0.0760 -4.5836 -0.1614
   42CHL1   C15 4232   1.902   6.242   5.098 -0.0994 -0.4116 -0.3300
   42CHL1  H15A 4233   2.000   6.200   5.127 -0.0086  0.5129  0.8007
   42CHL1  H15B 4234   1.822   6.170   5.126 -1.1979  0.8329 -0.1443
   42CHL1   C16 4235   1.890   6.290   4.953  0.3202  0.4860 -0.0003
   42CHL1  H16A 4236   1.996   6.293   4.920  0.6191  3.0682  0.9702
   42CHL1  H16B 4237   1.822   6.231   4.888 -1.7727  1.4379  1.2280
   42CHL1   C17 4238   1.851   6.441   4.953 -0.1872 -0.6347 -0.6456
   42CHL1   H17 4239   1.741   6.444   4.959 -0.1481  1.1320 -0.0832
   42CHL1   C13 4240   1.907   6.492   5.097  0.6639 -0.0994  0.1406
   42CHL1   C18 4241   2.057   6.496   5.096 -0.2434 -0.1519 -0.0498
   42CHL1  H18A 4242   2.091   6.581   5.033 -0.0836  1.4230  2.0454
   42CHL1  H18B 4243   2.098   6.516   5.197  0.0273  0.1733 -0.2204
   42CHL1  H18C 4244   2.103   6.401   5.061 -0.0941 -0.2221  0.3386
   42CHL1   C12 4245   1.846   6.622   5.160 -0.4530 -0.4027  0.5175
   42CHL1  H12A 4246   1.859   6.712   5.097 -0.9148 -0.7876 -0.1381
   42CHL1  H12B 4247   1.735   6.609   5.162 -0.2797 -2.5617 -0.8520
   42CHL1   C11 4248   1.901   6.637   5.302 -0.0800 -0.5298  0.4370
   42CHL1  H11A 4249   2.006   6.670   5.292  0.2467 -1.5224  0.4156
   42CHL1  H11B 4250   1.844   6.717   5.354  1.2278  2.0635 -1.8719
   42CHL1    C9 4251   1.883   6.516   5.402 -0.5011 -0.6269 -0.2599
   42CHL1    H9 4252   1.775   6.515   5.429 -0.1370  2.6812  1.8839
   42CHL1   C10 4253   1.946   6.535   5.541  1.0185  0.0429  0.0486
   42CHL1   C19 4254   2.097   6.561   5.519  1.4322  0.6334  0.4003
   42CHL1  H19A 4255   2.154   6.484   5.463 -0.8307 -1.9116  1.3511
   42CHL1  H19B 4256   2.119   6.660   5.473  1.9163 -1.1749 -3.7499
   42CHL1  H19C 4257   2.142   6.556   5.620  0.5713 -1.5911  0.7523
   42CHL1    C1 4258   1.862   6.648   5.614  0.3554 -0.2845 -0.5087
   42CHL1   H1A 4259   1.887   6.748   5.573 -1.0123 -0.5975 -2.1827
   42CHL1   H1B 4260   1.753   6.630   5.606  0.4641 -0.4178 -1.8403
   42CHL1    C2 4261   1.889   6.657   5.765 -0.6141  0.6990 -0.1038
   42CHL1   H2A 4262   1.824   6.725   5.823 -0.0152  1.4837 -0.3316
   42CHL1   H2B 4263   1.995   6.686   5.781  0.4586  0.0774 -4.6804
   42CHL1   C20 4264   1.904   6.518   4.832  0.9119 -0.0075 -0.5046
   42CHL1   H20 4265   2.009   6.544   4.855 -0.2936  3.6065  1.8849
   42CHL1   C21 4266   1.832   6.657   4.813 -0.1252  0.2589  0.6640
   42CHL1  H21A 4267   1.724   6.636   4.798 -0.0012 -2.1747  2.6028
   42CHL1  H21B 4268   1.861   6.709   4.719 -1.5194  0.3477  0.2528
   42CHL1  H21C 4269   1.850   6.725   4.899  2.1325 -0.5342  0.8900
   42CHL1   C22 4270   1.890   6.442   4.699  0.1378 -0.4191  0.4653
   42CHL1  H22A 4271   1.943   6.347   4.720  0.7702  0.2851  2.2620
   42CHL1  H22B 4272   1.784   6.419   4.676  0.1522  1.3141 -1.5626
   42CHL1   C23 4273   1.957   6.509   4.576 -0.1156 -0.1056 -0.7897
   42CHL1  H23A 4274   1.898   6.598   4.547 -0.4165 -0.3717 -0.9972
   42CHL1  H23B 4275   2.064   6.527   4.601  0.1730 -0.7934 -1.4952
   42CHL1   C24 4276   1.945   6.422   4.454  0.5242 -0.0174 -0.4933
   42CHL1  H24A 4277   1.976   6.317   4.476  0.6946  0.1045 -0.1483
   42CHL1  H24B 4278   1.839   6.425   4.420 -0.1318  1.5870  1.4811
   42CHL1   C25 4279   2.032   6.459   4.325  0.9799 -0.3520 -0.3618
   42CHL1   H25 4280   2.135   6.460   4.368  0.1174  1.6589  1.8908
   42CHL1   C26 4281   2.032   6.354   4.218 -0.0997  0.3744 -0.9031
   42CHL1  H26A 4282   1.936   6.359   4.162 -0.8458  1.8383  0.4140
   42CHL1  H26B 4283   2.109   6.357   4.139 -0.2416 -1.7283 -1.1678
   42CHL1  H26C 4284   2.043   6.254   4.265  0.6004 -0.0247 -1.8911
   42CHL1   C27 4285   2.009   6.600   4.274  0.1685 -0.1095  0.0215
   42CHL1  H27A 4286   2.091   6.628   4.204  0.0805 -1.2984 -0.5888
   42CHL1  H27B 4287   1.915   6.609   4.215  1.8652 -2.0973 -3.2636
   42CHL1  H27C 4288   2.008   6.670   4.360  1.5483 -0.5880  0.4493
   43CHL1    C3 4289   1.345   0.142   5.934  0.6481  0.2940  0.4381
   43CHL1    H3 4290   1.311   0.037   5.927 -1.4875  0.9631 -0.1443
   43CHL1    O3 4291   1.344   0.187   6.069  0.2402 -0.4271 -0.0395
   43CHL1   H3' 4292   1.320   0.280   6.076  3.4499  0.5962 -0.5947
   43CHL1    C4 4293   1.477   0.172   5.876  0.1651 -0.4897  0.0946
   43CHL1   H4A 4294   1.521   0.270   5.902 -0.1454  0.0070 -1.1910
   43CHL1   H4B 4295   1.549   0.101   5.922 -0.2954 -1.3789 -0.5185
   43CHL1    C5 4296   1.477   0.158   5.725 -0.2244 -0.0717 -0.9601
   43CHL1    C6 4297   1.574   0.082   5.672 -0.5024 -0.1505  0.1617
   43CHL1    H6 4298   1.652   0.038   5.735  0.4349 -1.3435 -1.7529
   43CHL1    C7 4299   1.582   0.059   5.524 -0.2892  0.7112  0.0255
   43CHL1   H7A 4300   1.690   0.049   5.498 -0.1006 -1.4347  1.3659
   43CHL1   H7B 4301   1.536  -0.040   5.503 -2.3015  1.0820  2.3232
   43CHL1    C8 4302   1.501   0.165   5.435  0.2564 -0.5653 -0.4442
   43CHL1    H8 4303   1.554   0.262   5.434  0.9574 -0.8852  1.4888
   43CHL1   C14 4304   1.483   0.104   5.298  0.9822  0.5004  0.0411
   43CHL1   H14 4305   1.424   0.012   5.318  0.1863  1.3292  1.6907
   43CHL1   C15 4306   1.617   0.059   5.232 -0.2257  0.2342 -0.3838
   43CHL1  H15A 4307   1.688   0.141   5.254 -2.6372  3.7433 -4.1104
   43CHL1  H15B 4308   1.641  -0.047   5.258 -0.9289 -0.0066 -0.6837
   43CHL1   C16 4309   1.575   0.056   5.084  0.0716  0.1012 -0.2986
   43CHL1  H16A 4310   1.645   0.117   5.023  1.7584 -1.3556  0.0578
   43CHL1  H16B 4311   1.568  -0.050   5.050  1.9699 -0.1751  0.0329
   43CHL1   C17 4312   1.425   0.112   5.073 -0.0456  0.2047 -0.9245
   43CHL1   H17 4313   1.359   0.024   5.087 -0.2908  0.4584 -0.4482
   43CHL1   C13 4314   1.407   0.186   5.203  0.2994  0.2533  0.5613
   43CHL1   C18 4315   1.474   0.321   5.190  0.2166 -0.4336 -0.8377
   43CHL1  H18A 4316   1.435   0.379   5.104  4.6239  1.0117 -2.1109
   43CHL1  H18B 4317   1.464   0.377   5.285 -1.6445 -0.3072 -1.0626
   43CHL1  H18C 4318   1.583   0.323   5.169  0.5827  2.8696  0.8018
   43CHL1   C12 4319   1.268   0.194   5.262  0.0597 -0.3958 -0.7647
   43CHL1  H12A 4320   1.204   0.260   5.199 -0.4318  0.8975  1.0101
   43CHL1  H12B 4321   1.222   0.093   5.270 -0.2077 -0.3508 -1.6565
   43CHL1   C11 4322   1.265   0.254   5.400 -0.2256 -0.5356 -0.0275
   43CHL1  H11A 4323   1.292   0.361   5.393 -1.7614 -0.0119  1.3852
   43CHL1  H11B 4324   1.166   0.251   5.451 -0.1084 -1.7051  0.1679
   43CHL1    C9 4325   1.367   0.176   5.499 -0.2190 -0.1830  0.0289
   43CHL1    H9 4326   1.323   0.074   5.496  0.3900 -0.5284 -5.0448
   43CHL1   C10 4327   1.361   0.224   5.643 -0.3764  0.4526 -0.2451
   43CHL1   C19 4328   1.388   0.375   5.636 -0.5505  0.0393 -0.1843
   43CHL1  H19A 4329   1.298   0.432   5.605 -1.1980 -0.5110  0.6471
   43CHL1  H19B 4330   1.398   0.405   5.743  0.2084 -0.0013 -0.2376
   43CHL1  H19C 4331   1.483   0.410   5.591 -0.9008  4.6835  2.1257
   43CHL1    C1 4332   1.223   0.182   5.710 -0.8200  0.3339  0.3679
   43CHL1   H1A 4333   1.135   0.237   5.670 -0.7215 -0.6530 -1.3151
   43CHL1   H1B 4334   1.205   0.076   5.680  2.9494  0.4158 -2.9246
   43CHL1    C2 4335   1.230   0.215   5.862  0.0536 -0.0616  0.5332
   43CHL1   H2A 4336   1.132   0.187   5.907  0.3405  1.3383  2.1698
   43CHL1   H2B 4337   1.243   0.325   5.868 -0.2420  0.1952 -2.4002
   43CHL1   C20 4338   1.403   0.171   4.934  0.3230 -0.0110 -0.1802
   43CHL1   H20 4339   1.485   0.242   4.909 -0.8673  1.5363  0.1165
   43CHL1   C21 4340   1.265   0.242   4.924 -0.2112  0.0837  0.4942
   43CHL1  H21A 4341   1.177   0.175   4.938  1.0306 -1.3459  1.6776
   43CHL1  H21B 4342   1.249   0.288   4.824 -1.4712  2.7306  1.7941
   43CHL1  H21C 4343   1.268   0.334   4.986  0.0274  2.6993 -3.0965
   43CHL1   C22 4344   1.416   0.061   4.829  0.0171 -0.0411 -0.4593
   43CHL1  H22A 4345   1.516   0.019   4.849  0.0023  0.4031  0.6413
   43CHL1  H22B 4346   1.336  -0.014   4.849  0.0072  0.4205  1.4708
   43CHL1   C23 4347   1.399   0.090   4.676  0.7265  0.8149  1.4282
   43CHL1  H23A 4348   1.293   0.119   4.664  0.1152 -1.6089  0.4464
   43CHL1  H23B 4349   1.465   0.178   4.662 -0.6493  1.8201  1.0442
   43CHL1   C24 4350   1.432  -0.027   4.589  0.6381 -0.0467  0.1750
   43CHL1  H24A 4351   1.541  -0.043   4.594  1.0444  1.6862 -1.7638
   43CHL1  H24B 4352   1.381  -0.113   4.639  0.5123  1.8942  3.6432
   43CHL1   C25 4353   1.388  -0.000   4.433 -0.1667 -0.1530 -0.7500
   43CHL1   H25 4354   1.285   0.039   4.428 -0.1974 -0.0981  0.0900
   43CHL1   C26 4355   1.493   0.095   4.368 -0.0526 -0.1539  0.4269
   43CHL1  H26A 4356   1.540   0.170   4.435  1.2872 -0.2767 -0.3439
   43CHL1  H26B 4357   1.577   0.029   4.338  2.3658  3.8718 -2.6130
   43CHL1  H26C 4358   1.450   0.154   4.284 -2.7787 -2.6505 -0.1179
   43CHL1   C27 4359   1.378  -0.126   4.345  0.4174  0.7212  0.3882
   43CHL1  H27A 4360   1.293  -0.194   4.369 -1.7141  2.9581 -0.4263
   43CHL1  H27B 4361   1.368  -0.110   4.235 -1.9554 -1.1665  0.2426
   43CHL1  H27C 4362   1.474  -0.183   4.350 -0.7476 -1.4493 -0.5109
   44CHL1    C3 4363   4.092   2.361   5.884  0.3535  0.2978 -0.9778
   44CHL1    H3 4364   3.996   2.414   5.869  0.3801  0.9482  0.9291
   44CHL1    O3 4365   4.116   2.337   6.021 -0.0807  0.1003 -0.4853
   44CHL1   H3' 4366   4.128   2.421   6.065 -2.3708 -1.6223  4.0515
   44CHL1    C4 4367   4.093   2.224   5.820  0.7827 -0.1589  0.3804
   44CHL1   H4A 4368   4.184   2.164   5.841  0.8608 -0.8828 -1.8198
   44CHL1   H4B 4369   4.008   2.174   5.873 -0.5981 -0.2106 -1.7553
   44CHL1    C5 4370   4.076   2.237   5.668 -0.5668 -0.0228 -0.3827
   44CHL1    C6 4371   3.976   2.180   5.600  0.2875 -0.2324  0.2069
   44CHL1    H6 4372   3.895   2.136   5.660  0.1981  1.3579  1.2967
   44CHL1    C7 4373   3.990   2.167   5.451  0.3770 -0.0545 -0.0254
   44CHL1   H7A 4374   3.972   2.061   5.426  1.7493 -0.5695  1.0075
   44CHL1   H7B 4375   3.912   2.224   5.396  0.5601 -0.9025 -1.1954
   44CHL1    C8 4376   4.128   2.202   5.394 -0.1652 -0.1583  0.0208
   44CHL1    H8 4377   4.197   2.115   5.402  0.6254  0.4208 -0.3642
   44CHL1   C14 4378   4.111   2.230   5.243 -0.6719 -0.3769 -0.1804
   44CHL1   H14 4379   4.050   2.323   5.240 -2.1101 -1.3247 -1.3330
   44CHL1   C15 4380   4.044   2.120   5.164  0.1422 -0.4084 -0.6147
   44CHL1  H15A 4381   4.083   2.022   5.200  0.0656  0.0884  0.8820
   44CHL1  H15B 4382   3.936   2.108   5.184  0.1894  3.6087  3.9529
   44CHL1   C16 4383   4.082   2.150   5.015 -0.5554  0.3185 -0.1207
   44CHL1  H16A 4384   4.131   2.059   4.975  0.2255  1.0442 -0.8937
   44CHL1  H16B 4385   3.992   2.175   4.954  0.2044  1.8231 -0.6919
   44CHL1   C17 4386   4.187   2.267   5.018  0.2750 -0.0796 -0.6791
   44CHL1   H17 4387   4.134   2.364   5.004  1.4752  0.2592 -3.3488
   44CHL1   C13 4388   4.241   2.262   5.169 -0.3455  0.4538 -0.6626
   44CHL1   C18 4389   4.351   2.153   5.180  0.1883 -0.1039 -0.7346
   44CHL1  H18A 4390   4.315   2.065   5.123  2.4551 -0.8565 -1.1204
   44CHL1  H18B 4391   4.436   2.191   5.120 -0.1778  0.4839 -0.8850
   44CHL1  H18C 4392   4.382   2.119   5.282 -0.1483 -2.5067 -1.3651
   44CHL1   C12 4393   4.307   2.387   5.236 -0.0967  0.3658  0.3518
   44CHL1  H12A 4394   4.402   2.416   5.188 -2.1340 -0.6364 -5.0627
   44CHL1  H12B 4395   4.234   2.470   5.223 -1.8684 -0.8740  1.8428
   44CHL1   C11 4396   4.328   2.375   5.388 -0.3633  0.2626 -0.3018
   44CHL1  H11A 4397   4.404   2.295   5.398 -1.1146 -0.3182  1.1102
   44CHL1  H11B 4398   4.357   2.479   5.414 -1.4028  1.0116 -1.9595
   44CHL1    C9 4399   4.197   2.326   5.455 -0.2066 -0.5981 -0.2908
   44CHL1    H9 4400   4.136   2.417   5.441 -0.0137  0.2371  3.3066
   44CHL1   C10 4401   4.208   2.308   5.608 -0.8079 -0.0434 -0.3369
   44CHL1   C19 4402   4.340   2.235   5.642  0.4688 -0.8958  1.0754
   44CHL1  H19A 4403   4.355   2.203   5.747  1.5308 -2.1515  0.5594
   44CHL1  H19B 4404   4.336   2.137   5.590  1.0052 -0.4043  0.0988
   44CHL1  H19C 4405   4.428   2.299   5.620 -0.4020  0.4842  1.4333
   44CHL1    C1 4406   4.213   2.444   5.674 -0.1554 -0.7995 -0.6029
   44CHL1   H1A 4407   4.300   2.503   5.640  2.2395 -1.8524  3.1135
   44CHL1   H1B 4408   4.124   2.502   5.642  0.3539  0.0487 -0.5174
   44CHL1    C2 4409   4.207   2.440   5.829 -0.8953  0.1037 -0.7295
   44CHL1   H2A 4410   4.214   2.540   5.879  0.7805 -0.1835 -0.3071
   44CHL1   H2B 4411   4.301   2.392   5.866 -0.4633 -0.1987 -2.1650
   44CHL1   C20 4412   4.290   2.268   4.906  1.0010  0.0061 -0.5591
   44CHL1   H20 4413   4.378   2.202   4.921  1.5436  1.0461  0.9950
   44CHL1   C21 4414   4.336   2.414   4.888 -0.5954  0.4335 -0.3297
   44CHL1  H21A 4415   4.408   2.423   4.803 -0.2065 -0.4425 -0.1099
   44CHL1  H21B 4416   4.395   2.446   4.976  1.9865 -0.3920 -1.6503
   44CHL1  H21C 4417   4.249   2.479   4.866 -0.7050  0.2595 -0.4098
   44CHL1   C22 4418   4.237   2.232   4.762 -0.1918  0.1274 -0.4946
   44CHL1  H22A 4419   4.178   2.138   4.771  0.9653 -0.5330  0.4578
   44CHL1  H22B 4420   4.187   2.320   4.717 -1.4597  0.2625  1.0706
   44CHL1   C23 4421   4.345   2.189   4.660 -0.0646 -0.0097  0.2756
   44CHL1  H23A 4422   4.415   2.275   4.661  1.2821 -0.8696 -3.6338
   44CHL1  H23B 4423   4.402   2.103   4.700 -2.0888 -0.2415  2.9409
   44CHL1   C24 4424   4.288   2.155   4.530  0.8710  0.9993 -0.1539
   44CHL1  H24A 4425   4.221   2.066   4.539  0.4919  1.4192  1.4299
   44CHL1  H24B 4426   4.229   2.234   4.478 -1.5961 -0.9298 -0.5332
   44CHL1   C25 4427   4.399   2.106   4.433  0.2365  0.0041  0.1256
   44CHL1   H25 4428   4.456   2.022   4.477 -0.7799 -0.4649  0.5819
   44CHL1   C26 4429   4.348   2.055   4.299  0.5876  0.3025 -0.0520
   44CHL1  H26A 4430   4.424   2.003   4.237 -1.0857  0.5966 -2.4695
   44CHL1  H26B 4431   4.279   1.971   4.323 -0.4922  1.4026  0.8420
   44CHL1  H26C 4432   4.285   2.127   4.242  0.5377  1.2301  1.1320
   44CHL1   C27 4433   4.497   2.219   4.413  0.2002  0.2884 -0.4217
   44CHL1  H27A 4434   4.441   2.309   4.383 -0.1794  0.9746  2.0943
   44CHL1  H27B 4435   4.557   2.242   4.504  0.1689  1.9502 -0.8045
   44CHL1  H27C 4436   4.564   2.190   4.329 -0.5274 -4.3863  0.3358
   45CHL1    C3 4437   3.012   1.319   5.679 -0.4122  0.7187  0.5382
   45CHL1    H3 4438   2.967   1.222   5.651 -0.6498  1.2865 -1.1826
   45CHL1    O3 4439   3.019   1.320   5.819  0.1157 -0.3029 -0.7529
   45CHL1   H3' 4440   3.109   1.319   5.850 -0.9738  3.8403  3.8985
   45CHL1    C4 4441   3.151   1.332   5.612  0.4975  1.1748  0.4119
   45CHL1   H4A 4442   3.204   1.427   5.633 -1.0428  2.0829  0.3060
   45CHL1   H4B 4443   3.215   1.253   5.657  1.0744  0.5232 -1.4401
   45CHL1    C5 4444   3.136   1.302   5.464  0.0717 -0.0409  0.1956
   45CHL1    C6 4445   3.202   1.204   5.404  0.5435  0.4561  0.3745
   45CHL1    H6 4446   3.275   1.142   5.459 -0.4759  0.9371  2.3683
   45CHL1    C7 4447   3.191   1.178   5.253  0.0674  0.9189  0.2361
   45CHL1   H7A 4448   3.293   1.161   5.214 -0.1569 -1.4513  0.5265
   45CHL1   H7B 4449   3.130   1.086   5.239 -1.1545  1.8258 -0.5998
   45CHL1    C8 4450   3.133   1.299   5.177  0.2666  0.1399 -0.2210
   45CHL1    H8 4451   3.207   1.382   5.181 -0.0436  0.3593  1.5858
   45CHL1   C14 4452   3.113   1.259   5.034  0.2917  0.0556  1.1380
   45CHL1   H14 4453   3.041   1.175   5.030  1.0149 -0.5350 -0.6698
   45CHL1   C15 4454   3.231   1.213   4.950 -0.5576  0.6781  0.1910
   45CHL1  H15A 4455   3.310   1.289   4.970 -1.5846  2.0307 -0.6652
   45CHL1  H15B 4456   3.280   1.122   4.990 -0.6231  0.7615  0.4620
   45CHL1   C16 4457   3.190   1.217   4.803 -0.0678 -0.6934  0.6400
   45CHL1  H16A 4458   3.249   1.278   4.731 -3.7099  0.3804 -1.7050
   45CHL1  H16B 4459   3.176   1.119   4.752  0.0061  0.9324 -2.8275
   45CHL1   C17 4460   3.059   1.304   4.804  0.1024 -0.4923 -0.5946
   45CHL1   H17 4461   2.986   1.222   4.817 -0.1123 -0.0744  1.1203
   45CHL1   C13 4462   3.054   1.371   4.946  0.0999 -0.0689 -0.5124
   45CHL1   C18 4463   3.138   1.497   4.944  0.0858  0.9966 -0.2251
   45CHL1  H18A 4464   3.091   1.579   4.886  1.1994  2.0955  0.3912
   45CHL1  H18B 4465   3.155   1.538   5.046  2.6549  0.4723 -0.3713
   45CHL1  H18C 4466   3.243   1.474   4.917 -0.2480 -1.7125  0.5044
   45CHL1   C12 4467   2.911   1.402   5.006  0.3671 -0.2997  0.5952
   45CHL1  H12A 4468   2.860   1.475   4.939  1.1073 -0.3033  0.0172
   45CHL1  H12B 4469   2.839   1.318   4.999  0.3436 -0.3131  0.9730
   45CHL1   C11 4470   2.923   1.449   5.154 -0.1254 -0.7780  0.7256
   45CHL1  H11A 4471   2.987   1.539   5.146 -0.6694 -0.5311 -1.0810
   45CHL1  H11B 4472   2.818   1.465   5.188 -1.3833 -0.3887 -2.9399
   45CHL1    C9 4473   3.003   1.351   5.249 -0.0386 -0.6169  0.9140
   45CHL1    H9 4474   2.940   1.259   5.253  1.1379 -1.4480  0.8935
   45CHL1   C10 4475   3.041   1.402   5.392  0.6562  0.5877  0.0594
   45CHL1   C19 4476   3.096   1.544   5.387  0.3399  0.3192 -0.4921
   45CHL1  H19A 4477   3.114   1.583   5.489 -1.1997 -0.8799  0.2715
   45CHL1  H19B 4478   3.188   1.557   5.325  0.7920 -0.4131  0.0098
   45CHL1  H19C 4479   3.014   1.614   5.360 -1.3343 -0.4299  2.2580
   45CHL1    C1 4480   2.899   1.399   5.479 -0.7258 -0.4308  0.5340
   45CHL1   H1A 4481   2.827   1.472   5.436 -0.0802  0.8999  1.6515
   45CHL1   H1B 4482   2.848   1.300   5.467 -0.1624 -0.5707 -0.9168
   45CHL1    C2 4483   2.919   1.428   5.625  0.8618  0.0427  0.6185
   45CHL1   H2A 4484   2.822   1.411   5.677  0.8797  0.0665  0.6598
   45CHL1   H2B 4485   2.949   1.533   5.648 -0.4665  0.1618  2.0221
   45CHL1   C20 4486   3.016   1.393   4.691 -0.0541  0.3811  0.4701
   45CHL1   H20 4487   2.936   1.468   4.710  0.5280  1.1267  0.0218
   45CHL1   C21 4488   2.958   1.300   4.583  0.2376  0.2348  0.6053
   45CHL1  H21A 4489   2.897   1.216   4.623  0.1715 -0.5447 -1.0464
   45CHL1  H21B 4490   3.036   1.254   4.519  0.2144  0.6121  0.3058
   45CHL1  H21C 4491   2.896   1.364   4.516 -0.4260 -0.6323  0.3689
   45CHL1   C22 4492   3.115   1.487   4.614  0.0871 -0.2969  0.4341
   45CHL1  H22A 4493   3.178   1.540   4.689  1.1730 -0.5694 -0.2547
   45CHL1  H22B 4494   3.189   1.419   4.566  0.3124 -1.1749  1.9519
   45CHL1   C23 4495   3.059   1.598   4.529  0.2488  0.2070  0.0896
   45CHL1  H23A 4496   3.012   1.546   4.443  0.2056 -0.8509  0.7316
   45CHL1  H23B 4497   2.977   1.655   4.576  0.2876 -0.5097  1.0471
   45CHL1   C24 4498   3.169   1.696   4.485  0.8734 -0.3665 -0.0030
   45CHL1  H24A 4499   3.187   1.754   4.577 -0.9231 -0.8960  0.7381
   45CHL1  H24B 4500   3.270   1.657   4.463  0.2050 -1.9778 -0.3861
   45CHL1   C25 4501   3.129   1.802   4.380  0.3903 -0.1452  0.6177
   45CHL1   H25 4502   3.076   1.759   4.292 -1.4245  0.4357  1.3918
   45CHL1   C26 4503   3.032   1.902   4.446  0.5373  0.4239  0.1190
   45CHL1  H26A 4504   3.000   1.977   4.371  2.1730  0.4417 -0.6140
   45CHL1  H26B 4505   2.944   1.843   4.477  0.7458  0.6392  1.1856
   45CHL1  H26C 4506   3.065   1.963   4.533 -1.6215  0.3288  1.0631
   45CHL1   C27 4507   3.252   1.877   4.335  0.4421 -0.6487 -0.1066
   45CHL1  H27A 4508   3.230   1.972   4.281  0.5650  1.8596  3.9027
   45CHL1  H27B 4509   3.302   1.915   4.426  0.6026 -0.3499 -0.3172
   45CHL1  H27C 4510   3.321   1.811   4.279  0.4020 -0.1009 -0.8193
   46CHL1    C3 4511   3.573   5.488   6.162  0.3225 -0.1259 -0.2221
   46CHL1    H3 4512   3.601   5.389   6.118  2.0096  0.5699 -0.8042
   46CHL1    O3 4513   3.589   5.502   6.304 -0.0275 -0.2531 -0.4069
   46CHL1   H3' 4514   3.562   5.591   6.328  2.7249  0.6428 -0.2254
   46CHL1    C4 4515   3.653   5.602   6.093  0.2450 -0.1441  1.3169
   46CHL1   H4A 4516   3.624   5.704   6.126  0.5686  0.6511 -0.7522
   46CHL1   H4B 4517   3.757   5.584   6.127 -0.1418 -0.6862  2.2775
   46CHL1    C5 4518   3.626   5.597   5.939  0.7887 -0.5633 -0.1126
   46CHL1    C6 4519   3.721   5.560   5.855 -0.4080  0.3703  0.3259
   46CHL1    H6 4520   3.819   5.553   5.905 -1.1741  1.8878  2.1530
   46CHL1    C7 4521   3.712   5.547   5.707 -0.0727 -0.3143  0.0484
   46CHL1   H7A 4522   3.805   5.585   5.659  1.1513  0.2845  2.6761
   46CHL1   H7B 4523   3.707   5.438   5.691  0.4046 -0.5187  1.1669
   46CHL1    C8 4524   3.584   5.618   5.659  0.4794 -0.8073  0.5638
   46CHL1    H8 4525   3.586   5.727   5.680 -0.0086 -0.8616  0.8996
   46CHL1   C14 4526   3.566   5.595   5.514  1.2259  0.3366 -0.3989
   46CHL1   H14 4527   3.558   5.485   5.500 -0.1050  0.4124 -0.3342
   46CHL1   C15 4528   3.674   5.633   5.415 -0.4899 -0.4541  0.5407
   46CHL1  H15A 4529   3.701   5.739   5.435 -1.9143  0.0683 -0.1370
   46CHL1  H15B 4530   3.765   5.572   5.432  0.1682  1.0415  2.7011
   46CHL1   C16 4531   3.604   5.638   5.278 -0.0480 -0.1563  0.9310
   46CHL1  H16A 4532   3.623   5.734   5.226 -0.3301 -0.0354  1.0493
   46CHL1  H16B 4533   3.631   5.564   5.200 -1.3139  3.9544 -3.9840
   46CHL1   C17 4534   3.452   5.633   5.310 -0.3180 -0.2091 -0.2233
   46CHL1   H17 4535   3.420   5.528   5.298 -0.3708 -0.1747 -0.3873
   46CHL1   C13 4536   3.433   5.662   5.452  1.0656 -0.7757  0.0007
   46CHL1   C18 4537   3.441   5.815   5.483  0.7031 -0.2207  0.5828
   46CHL1  H18A 4538   3.345   5.860   5.449  0.2449 -1.4037  0.2517
   46CHL1  H18B 4539   3.449   5.837   5.591  1.7794 -1.6714  0.8241
   46CHL1  H18C 4540   3.527   5.862   5.431  0.0582 -0.1488 -0.4544
   46CHL1   C12 4541   3.316   5.590   5.530  0.3492  0.8233 -0.6939
   46CHL1  H12A 4542   3.217   5.624   5.492 -0.5306 -0.6359  0.2124
   46CHL1  H12B 4543   3.324   5.480   5.521 -2.0328  0.7672 -3.6114
   46CHL1   C11 4544   3.322   5.619   5.678 -0.6953  0.1245 -0.6307
   46CHL1  H11A 4545   3.306   5.728   5.688 -2.3418  0.2893 -3.8020
   46CHL1  H11B 4546   3.238   5.566   5.728 -0.7313 -1.4073 -2.2214
   46CHL1    C9 4547   3.459   5.576   5.746  0.2110  0.6700  0.5128
   46CHL1    H9 4548   3.451   5.466   5.741  1.0239  0.6024  0.6397
   46CHL1   C10 4549   3.480   5.616   5.889 -0.2450  0.4678 -0.3130
   46CHL1   C19 4550   3.428   5.764   5.917 -0.1657 -0.5272  0.1299
   46CHL1  H19A 4551   3.455   5.799   6.020 -3.2623  1.9444  0.2454
   46CHL1  H19B 4552   3.463   5.838   5.841  0.0709 -1.7036 -0.9308
   46CHL1  H19C 4553   3.318   5.771   5.910  0.0215  1.1877 -3.6483
   46CHL1    C1 4554   3.404   5.510   5.971 -0.0555  0.6524 -0.5081
   46CHL1   H1A 4555   3.295   5.521   5.956 -0.4598 -0.5753  1.2496
   46CHL1   H1B 4556   3.436   5.408   5.940  0.7235  0.0440  2.0046
   46CHL1    C2 4557   3.422   5.511   6.130 -0.3052 -0.2881  0.1188
   46CHL1   H2A 4558   3.352   5.441   6.181  0.9083 -0.7844  1.1399
   46CHL1   H2B 4559   3.382   5.611   6.156  1.7299  0.8668 -0.9511
   46CHL1   C20 4560   3.357   5.720   5.218 -0.3932 -0.0405  0.0512
   46CHL1   H20 4561   3.388   5.826   5.232  0.2836  0.1944 -2.6378
   46CHL1   C21 4562   3.210   5.698   5.246  0.2068 -0.5775 -0.5133
   46CHL1  H21A 4563   3.148   5.707   5.154 -0.0150 -0.0098 -0.3158
   46CHL1  H21B 4564   3.168   5.777   5.311  2.1817  0.9067 -0.9319
   46CHL1  H21C 4565   3.194   5.601   5.297 -1.9889  0.6119  1.2341
   46CHL1   C22 4566   3.387   5.699   5.061  0.3060 -1.0536 -0.2114
   46CHL1  H22A 4567   3.316   5.772   5.015  0.2265 -0.0372  1.4382
   46CHL1  H22B 4568   3.484   5.749   5.042  1.0707 -2.2098  0.5772
   46CHL1   C23 4569   3.368   5.558   5.007 -0.3003  0.1747 -0.3036
   46CHL1  H23A 4570   3.450   5.494   5.044 -0.8131 -0.1516  0.2856
   46CHL1  H23B 4571   3.268   5.519   5.036 -0.5360  0.6971 -0.3967
   46CHL1   C24 4572   3.370   5.557   4.849  0.0043  0.0764  0.6385
   46CHL1  H24A 4573   3.300   5.636   4.814  0.9634  0.9456  0.6339
   46CHL1  H24B 4574   3.468   5.590   4.810 -0.3031  2.8505  1.9337
   46CHL1   C25 4575   3.334   5.422   4.780  1.0367  0.7785 -0.1740
   46CHL1   H25 4576   3.251   5.380   4.842  2.0744 -2.9560 -1.0828
   46CHL1   C26 4577   3.271   5.456   4.645 -0.0508 -0.0407  0.2762
   46CHL1  H26A 4578   3.166   5.489   4.661 -0.4593 -1.1861  0.1195
   46CHL1  H26B 4579   3.337   5.530   4.595  0.6641  0.0250  1.2972
   46CHL1  H26C 4580   3.260   5.362   4.586 -1.3092 -0.2062  0.7421
   46CHL1   C27 4581   3.445   5.312   4.771 -0.0047  0.5877  0.6805
   46CHL1  H27A 4582   3.408   5.226   4.711  0.5649  2.1675 -2.1383
   46CHL1  H27B 4583   3.522   5.366   4.710  0.7558 -0.2855  0.8490
   46CHL1  H27C 4584   3.473   5.285   4.875 -0.1246 -0.3067  0.4826
   47CHL1    C3 4585   0.243   3.177   6.422  0.3443  0.2505  0.2337
   47CHL1    H3 4586   0.286   3.077   6.404  0.9420  0.2565  1.4927
   47CHL1    O3 4587   0.199   3.170   6.563 -0.3287 -0.1251 -0.1101
   47CHL1   H3' 4588   0.133   3.238   6.575 -1.0512 -0.4664 -1.8827
   47CHL1    C4 4589   0.357   3.268   6.394  0.0106 -0.0048 -0.0299
   47CHL1   H4A 4590   0.338   3.371   6.432  1.1626 -0.3466  1.6145
   47CHL1   H4B 4591   0.428   3.215   6.461 -1.1614 -0.6934  0.7118
   47CHL1    C5 4592   0.413   3.262   6.254  0.0821  0.5902  0.2977
   47CHL1    C6 4593   0.535   3.222   6.215 -0.0076 -0.1566  0.1979
   47CHL1    H6 4594   0.615   3.200   6.287 -0.2084  1.9359  1.1306
   47CHL1    C7 4595   0.576   3.199   6.069  0.2097  0.3814  0.4924
   47CHL1   H7A 4596   0.682   3.223   6.050  0.8974 -0.9398  2.3142
   47CHL1   H7B 4597   0.557   3.092   6.044  1.3034  0.0750  0.9438
   47CHL1    C8 4598   0.487   3.282   5.972  0.1811  0.3484 -0.1109
   47CHL1    H8 4599   0.518   3.387   5.991  0.8280  0.1700 -0.1640
   47CHL1   C14 4600   0.513   3.252   5.822 -0.3107 -0.3396 -0.6360
   47CHL1   H14 4601   0.470   3.149   5.822 -2.3001  0.3274  3.0896
   47CHL1   C15 4602   0.658   3.225   5.771 -0.7968 -0.8213 -0.4081
   47CHL1  H15A 4603   0.730   3.307   5.794 -1.1250 -0.3542 -1.0268
   47CHL1  H15B 4604   0.694   3.127   5.808 -0.8391 -1.3047 -1.6160
   47CHL1   C16 4605   0.636   3.223   5.619  0.8848 -0.0212 -0.5218
   47CHL1  H16A 4606   0.716   3.280   5.568  0.4248  0.3544 -0.8368
   47CHL1  H16B 4607   0.656   3.120   5.581 -1.9195 -0.9024  0.1401
   47CHL1   C17 4608   0.492   3.277   5.589 -0.4757 -0.2063  1.1211
   47CHL1   H17 4609   0.437   3.186   5.561 -0.8713  0.4052 -0.1322
   47CHL1   C13 4610   0.438   3.335   5.718  0.9202  0.2647 -0.5670
   47CHL1   C18 4611   0.469   3.482   5.732 -0.0268  0.7475 -0.2893
   47CHL1  H18A 4612   0.440   3.529   5.828 -0.5723 -0.3102  0.0735
   47CHL1  H18B 4613   0.579   3.489   5.720  0.2112 -1.9714 -0.1864
   47CHL1  H18C 4614   0.435   3.552   5.653  0.5802 -0.3717 -1.5767
   47CHL1   C12 4615   0.288   3.299   5.745  0.2587 -0.0749 -0.0902
   47CHL1  H12A 4616   0.230   3.361   5.673  3.0441  0.6716 -1.8263
   47CHL1  H12B 4617   0.279   3.189   5.728  2.9544 -0.3440 -0.2996
   47CHL1   C11 4618   0.249   3.339   5.893  0.1598 -0.3593  0.4449
   47CHL1  H11A 4619   0.259   3.448   5.906 -2.3141 -0.0807  0.4605
   47CHL1  H11B 4620   0.143   3.309   5.908  1.0808 -4.3231  0.1504
   47CHL1    C9 4621   0.335   3.266   6.004 -0.0933  0.4978  0.7167
   47CHL1    H9 4622   0.317   3.160   5.974 -1.4958  0.5943  1.1256
   47CHL1   C10 4623   0.300   3.298   6.152 -0.1697 -0.2985  0.3078
   47CHL1   C19 4624   0.279   3.450   6.168  0.3000  0.5407  0.3007
   47CHL1  H19A 4625   0.264   3.490   6.271  0.1001 -1.9399  1.2972
   47CHL1  H19B 4626   0.362   3.506   6.121  1.1056  0.0782  1.1627
   47CHL1  H19C 4627   0.201   3.477   6.093 -0.6932  0.3085  1.2219
   47CHL1    C1 4628   0.169   3.220   6.185  1.1422  0.1863  0.1102
   47CHL1   H1A 4629   0.080   3.261   6.131  0.6770 -2.3572 -1.2144
   47CHL1   H1B 4630   0.180   3.121   6.138  0.7831  0.4186 -0.4709
   47CHL1    C2 4631   0.129   3.215   6.332  0.8451 -0.1351  0.2932
   47CHL1   H2A 4632   0.048   3.139   6.329 -2.7553  3.4143 -1.5686
   47CHL1   H2B 4633   0.096   3.315   6.368 -0.1857 -0.0741 -0.7808
   47CHL1   C20 4634   0.489   3.366   5.460  0.5729  0.2010  0.0913
   47CHL1   H20 4635   0.553   3.457   5.463 -1.4297  1.7912 -1.8346
   47CHL1   C21 4636   0.338   3.411   5.443 -0.2836 -0.3594 -0.0238
   47CHL1  H21A 4637   0.309   3.501   5.501  2.5000  2.2093 -2.2945
   47CHL1  H21B 4638   0.262   3.331   5.458 -0.5540  0.0069  0.5896
   47CHL1  H21C 4639   0.346   3.447   5.338  1.6916 -2.5368 -0.7017
   47CHL1   C22 4640   0.535   3.283   5.335  0.5946  0.0425  0.4690
   47CHL1  H22A 4641   0.626   3.220   5.347 -0.5172 -1.9338 -0.8762
   47CHL1  H22B 4642   0.451   3.217   5.305  0.8999  0.8133 -2.4726
   47CHL1   C23 4643   0.567   3.370   5.213  0.3357 -0.0051  0.4973
   47CHL1  H23A 4644   0.480   3.428   5.177 -0.1524 -1.6735 -1.1938
   47CHL1  H23B 4645   0.644   3.444   5.243 -0.2088  0.6001  0.3971
   47CHL1   C24 4646   0.631   3.284   5.098  0.2615 -0.5830 -0.5161
   47CHL1  H24A 4647   0.741   3.273   5.104  0.4979  1.5718 -0.0669
   47CHL1  H24B 4648   0.581   3.185   5.099 -1.4198  0.0730  3.8952
   47CHL1   C25 4649   0.600   3.334   4.956 -0.0500 -0.9283  0.4238
   47CHL1   H25 4650   0.495   3.371   4.949  0.4206  0.4806  0.4953
   47CHL1   C26 4651   0.676   3.467   4.928 -0.0247 -0.0100 -0.3282
   47CHL1  H26A 4652   0.630   3.520   4.842 -2.7224 -0.5859  0.6887
   47CHL1  H26B 4653   0.670   3.535   5.015 -0.0636 -0.5918  0.1281
   47CHL1  H26C 4654   0.783   3.438   4.918 -0.4267 -1.9257  0.4641
   47CHL1   C27 4655   0.619   3.225   4.846  0.5545 -0.5736 -0.0347
   47CHL1  H27A 4656   0.585   3.261   4.747 -1.1137  0.2259  0.7858
   47CHL1  H27B 4657   0.725   3.193   4.845  1.2323  1.5345 -1.5804
   47CHL1  H27C 4658   0.550   3.143   4.876 -0.5862  0.6663  0.8478
   48CHL1    C3 4659   3.154   3.703   5.931  0.6318  0.2684  0.3706
   48CHL1    H3 4660   3.227   3.784   5.953  2.5382 -1.0762 -0.6954
   48CHL1    O3 4661   3.097   3.655   6.054 -0.4769  0.0396  0.3869
   48CHL1   H3' 4662   3.150   3.588   6.099  0.1918  2.1251  2.9441
   48CHL1    C4 4663   3.041   3.747   5.829  0.3251 -0.5154 -0.1932
   48CHL1   H4A 4664   2.957   3.674   5.820  0.5625 -1.3183  2.9327
   48CHL1   H4B 4665   2.988   3.835   5.871  0.3535 -0.4934 -0.2036
   48CHL1    C5 4666   3.096   3.784   5.698  0.3785 -0.3853  0.6163
   48CHL1    C6 4667   3.092   3.908   5.651  0.4731  0.1894  0.6787
   48CHL1    H6 4668   3.045   3.987   5.712  1.0612 -0.8942  2.6232
   48CHL1    C7 4669   3.145   3.961   5.519 -0.4378 -0.2299 -0.3575
   48CHL1   H7A 4670   3.064   4.012   5.463 -1.5310 -1.0906  0.3926
   48CHL1   H7B 4671   3.228   4.025   5.556  0.1726  1.1416 -3.7416
   48CHL1    C8 4672   3.200   3.853   5.427 -0.3923  0.3326 -1.0223
   48CHL1    H8 4673   3.111   3.810   5.378 -1.1848  1.1157 -0.3081
   48CHL1   C14 4674   3.304   3.906   5.337  0.3344  0.5284 -0.3296
   48CHL1   H14 4675   3.384   3.934   5.408 -0.4987 -0.5925  1.1054
   48CHL1   C15 4676   3.254   4.026   5.253 -0.7207  0.8928 -0.6812
   48CHL1  H15A 4677   3.151   4.003   5.219 -0.6768  0.8613 -0.7938
   48CHL1  H15B 4678   3.261   4.115   5.319  2.1606 -2.3515  4.0438
   48CHL1   C16 4679   3.350   4.037   5.137  0.1231  0.1754 -0.2353
   48CHL1  H16A 4680   3.282   4.031   5.049 -0.8553 -1.5921  0.5718
   48CHL1  H16B 4681   3.405   4.132   5.123  1.1382 -0.1835  1.1510
   48CHL1   C17 4682   3.438   3.903   5.149  1.5230 -0.4499  0.2512
   48CHL1   H17 4683   3.515   3.929   5.225 -0.8676  0.8767  2.3743
   48CHL1   C13 4684   3.352   3.809   5.234 -0.2655  0.2025  0.3721
   48CHL1   C18 4685   3.236   3.740   5.147  0.5815 -0.0990 -0.0619
   48CHL1  H18A 4686   3.285   3.681   5.067  2.2754  2.1323 -0.7595
   48CHL1  H18B 4687   3.176   3.677   5.217  2.4942 -1.9587 -0.0152
   48CHL1  H18C 4688   3.159   3.815   5.117 -1.4844 -1.9993  0.1605
   48CHL1   C12 4689   3.431   3.700   5.304  0.4887  0.4531  0.6335
   48CHL1  H12A 4690   3.449   3.608   5.244 -0.2049  0.7067  0.0174
   48CHL1  H12B 4691   3.523   3.745   5.347  1.2013 -0.2644 -0.0921
   48CHL1   C11 4692   3.347   3.645   5.428 -0.2326  0.5843 -0.7917
   48CHL1  H11A 4693   3.282   3.571   5.376 -0.2199  0.5172 -0.7121
   48CHL1  H11B 4694   3.408   3.576   5.491  0.4048  1.8251 -0.0189
   48CHL1    C9 4695   3.272   3.744   5.514  0.0252  0.2098  0.4576
   48CHL1    H9 4696   3.353   3.801   5.564 -0.0787  0.6296  0.1489
   48CHL1   C10 4697   3.192   3.683   5.632  0.1495  0.4642  0.5119
   48CHL1   C19 4698   3.101   3.565   5.574 -0.2816 -0.0350 -0.0786
   48CHL1  H19A 4699   3.059   3.601   5.478  1.0219 -1.1163 -1.1031
   48CHL1  H19B 4700   3.153   3.470   5.548 -2.2837 -1.1607 -0.1956
   48CHL1  H19C 4701   3.017   3.546   5.645  0.1652 -0.7569  0.2685
   48CHL1    C1 4702   3.294   3.618   5.727 -0.3843 -0.4095 -1.3125
   48CHL1   H1A 4703   3.323   3.517   5.690  2.3229 -0.0407 -0.3916
   48CHL1   H1B 4704   3.377   3.691   5.739  0.5031 -1.7576  1.8535
   48CHL1    C2 4705   3.239   3.590   5.871  0.7892 -0.2434 -0.1032
   48CHL1   H2A 4706   3.326   3.574   5.939 -0.0417 -1.3302  0.7330
   48CHL1   H2B 4707   3.175   3.500   5.865 -0.1243  0.4601 -1.3262
   48CHL1   C20 4708   3.505   3.852   5.028  0.0659 -0.7664 -0.1214
   48CHL1   H20 4709   3.527   3.750   5.066 -0.0940 -1.5890 -2.1241
   48CHL1   C21 4710   3.639   3.931   5.006  0.3172  0.1787 -0.0339
   48CHL1  H21A 4711   3.638   4.039   4.982 -2.0081  0.5397  1.3571
   48CHL1  H21B 4712   3.714   3.920   5.087  0.3258  0.2135 -0.0367
   48CHL1  H21C 4713   3.682   3.897   4.909 -1.2403  2.0530 -1.4573
   48CHL1   C22 4714   3.426   3.871   4.896  0.3834 -0.0240 -0.1216
   48CHL1  H22A 4715   3.320   3.838   4.902  0.5369 -0.7515 -1.2290
   48CHL1  H22B 4716   3.419   3.979   4.869  2.4991  0.3310  0.5394
   48CHL1   C23 4717   3.480   3.772   4.783 -0.4819 -1.3077 -0.6741
   48CHL1  H23A 4718   3.590   3.755   4.779  0.3681  2.0538  2.5241
   48CHL1  H23B 4719   3.442   3.671   4.810 -1.4387 -0.9557 -0.6583
   48CHL1   C24 4720   3.418   3.811   4.651  1.2258  0.1234 -0.1022
   48CHL1  H24A 4721   3.309   3.835   4.660  1.0499 -0.6929 -0.0011
   48CHL1  H24B 4722   3.463   3.908   4.621  0.9025  0.3429  0.1071
   48CHL1   C25 4723   3.424   3.710   4.536 -0.4646  0.5865 -0.0007
   48CHL1   H25 4724   3.386   3.610   4.566  1.1486  0.2943  1.2121
   48CHL1   C26 4725   3.355   3.781   4.417  0.4916  0.6121  0.1945
   48CHL1  H26A 4726   3.378   3.730   4.321  0.3906 -0.7183  0.8606
   48CHL1  H26B 4727   3.246   3.782   4.442  0.5930 -1.4301  0.8870
   48CHL1  H26C 4728   3.403   3.881   4.412 -1.1134  1.6097  2.5608
   48CHL1   C27 4729   3.575   3.671   4.496 -0.4520  0.2006 -0.0986
   48CHL1  H27A 4730   3.646   3.638   4.575 -0.4233 -1.1222 -0.6367
   48CHL1  H27B 4731   3.581   3.587   4.423  2.3471 -1.1741  1.5432
   48CHL1  H27C 4732   3.626   3.752   4.440  0.6204  0.0990  0.6977
   49CHL1    C3 4733   3.422   2.191   3.206  0.0972 -0.1249  0.5955
   49CHL1    H3 4734   3.508   2.232   3.262  0.7176 -0.0786 -0.3555
   49CHL1    O3 4735   3.471   2.176   3.075 -0.4327  0.5942  0.0410
   49CHL1   H3' 4736   3.409   2.125   3.023 -0.9722 -0.0971  1.3219
   49CHL1    C4 4737   3.387   2.058   3.255 -0.5241 -0.0993 -1.1069
   49CHL1   H4A 4738   3.311   2.020   3.183 -1.3345  0.5090 -0.5874
   49CHL1   H4B 4739   3.480   1.997   3.251 -0.1747 -0.1755  3.4331
   49CHL1    C5 4740   3.319   2.052   3.392 -0.1803 -0.6234  0.4075
   49CHL1    C6 4741   3.361   1.972   3.489 -0.1679 -0.1160  0.3813
   49CHL1    H6 4742   3.449   1.910   3.466 -0.4070 -0.6736  0.9027
   49CHL1    C7 4743   3.303   1.952   3.621  0.4212  0.5654  0.0354
   49CHL1   H7A 4744   3.298   1.844   3.643  0.1144  0.4890 -0.3822
   49CHL1   H7B 4745   3.369   2.002   3.695  0.1208  2.0564 -0.6584
   49CHL1    C8 4746   3.158   2.008   3.631 -0.1009 -0.6305  0.0572
   49CHL1    H8 4747   3.082   1.951   3.573 -0.3452 -0.2143 -0.0380
   49CHL1   C14 4748   3.118   2.025   3.776  0.3720  0.0062  0.1186
   49CHL1   H14 4749   3.177   2.109   3.821 -2.5543  1.7620  0.9548
   49CHL1   C15 4750   3.130   1.907   3.872  0.6751  0.6214 -0.0574
   49CHL1  H15A 4751   3.090   1.823   3.812 -1.7219  2.6490 -1.5115
   49CHL1  H15B 4752   3.237   1.886   3.894  0.7078  1.8129  1.0164
   49CHL1   C16 4753   3.047   1.954   3.993 -0.1348 -0.2439 -0.1494
   49CHL1  H16A 4754   2.974   1.878   4.028 -2.1655  2.2855  1.4310
   49CHL1  H16B 4755   3.110   1.963   4.084 -1.4398 -0.4258  0.7930
   49CHL1   C17 4756   2.973   2.084   3.953 -0.1805 -0.6751 -0.4001
   49CHL1   H17 4757   3.044   2.164   3.984 -0.6331  0.5768 -2.4582
   49CHL1   C13 4758   2.981   2.084   3.800 -0.7309 -0.1457  0.2821
   49CHL1   C18 4759   2.878   1.982   3.745 -0.4760  0.0410  0.2535
   49CHL1  H18A 4760   2.852   1.907   3.823  2.6594 -0.7893  0.6147
   49CHL1  H18B 4761   2.791   2.048   3.726 -0.7947  0.2644  2.3107
   49CHL1  H18C 4762   2.908   1.927   3.653 -2.4904 -2.4444  0.9375
   49CHL1   C12 4763   2.970   2.223   3.735  0.0524  0.1599  0.0934
   49CHL1  H12A 4764   2.868   2.265   3.739  0.5257  1.5274 -1.1763
   49CHL1  H12B 4765   3.028   2.302   3.788  1.7749  0.7398 -2.4514
   49CHL1   C11 4766   3.017   2.216   3.589  0.2371 -0.2531  0.4663
   49CHL1  H11A 4767   2.937   2.165   3.532 -0.7259  1.2882  0.3788
   49CHL1  H11B 4768   3.013   2.322   3.559  0.6502 -0.4008 -0.1125
   49CHL1    C9 4769   3.152   2.147   3.558  0.4260 -0.0899 -0.3104
   49CHL1    H9 4770   3.223   2.211   3.616 -0.4135  1.5708 -1.0438
   49CHL1   C10 4771   3.195   2.152   3.407  0.5672  0.0934  0.5496
   49CHL1   C19 4772   3.077   2.110   3.316  0.0955  0.6652 -0.0321
   49CHL1  H19A 4773   3.026   2.017   3.350  0.6465  0.5598  0.5076
   49CHL1  H19B 4774   3.002   2.192   3.308  1.5111  1.9461 -0.7896
   49CHL1  H19C 4775   3.102   2.079   3.212 -0.3936  0.9731 -0.2410
   49CHL1    C1 4776   3.251   2.289   3.358  0.0394 -0.7993  0.1294
   49CHL1   H1A 4777   3.174   2.369   3.370  1.0522  0.6573 -2.1534
   49CHL1   H1B 4778   3.335   2.331   3.417 -0.3454  0.4749 -0.1823
   49CHL1    C2 4779   3.308   2.297   3.216  0.0612 -0.1836  0.1670
   49CHL1   H2A 4780   3.354   2.398   3.207 -1.5522  0.4801 -0.9909
   49CHL1   H2B 4781   3.237   2.276   3.133 -0.4697  0.5760  0.4220
   49CHL1   C20 4782   2.839   2.097   4.017 -0.5090 -0.1608 -1.0284
   49CHL1   H20 4783   2.759   2.042   3.965 -1.1905  0.7256 -0.9476
   49CHL1   C21 4784   2.795   2.249   4.000  0.7784  0.6917  0.1495
   49CHL1  H21A 4785   2.887   2.310   4.014  0.3443  0.9090  2.5573
   49CHL1  H21B 4786   2.718   2.272   4.077  0.0270 -1.4069  0.0906
   49CHL1  H21C 4787   2.742   2.273   3.905 -0.3794  1.2559  0.9155
   49CHL1   C22 4788   2.841   2.071   4.171  0.5814  0.2087 -0.6231
   49CHL1  H22A 4789   2.849   1.962   4.192 -1.6079 -0.1776 -1.5149
   49CHL1  H22B 4790   2.935   2.116   4.209  1.2567 -0.9479 -0.8761
   49CHL1   C23 4791   2.717   2.093   4.259 -0.1327 -0.2048  0.4621
   49CHL1  H23A 4792   2.743   2.054   4.360 -0.6921  0.9007  1.0496
   49CHL1  H23B 4793   2.698   2.200   4.282  0.8476 -0.5030  3.0762
   49CHL1   C24 4794   2.587   2.022   4.208  0.3163  0.6242 -0.0393
   49CHL1  H24A 4795   2.542   2.081   4.125 -1.9501  0.2241  0.8144
   49CHL1  H24B 4796   2.625   1.926   4.167  1.0673  1.3366 -1.0792
   49CHL1   C25 4797   2.479   2.004   4.315  0.1451 -0.7338 -0.1051
   49CHL1   H25 4798   2.525   1.939   4.392 -0.4208 -2.3213 -1.0580
   49CHL1   C26 4799   2.440   2.140   4.377 -0.5093 -0.0392 -0.0254
   49CHL1  H26A 4800   2.377   2.125   4.468  0.9015  0.1293  1.0129
   49CHL1  H26B 4801   2.524   2.198   4.420 -0.5281 -1.0853  1.4922
   49CHL1  H26C 4802   2.386   2.198   4.299 -3.1682 -0.0193  1.7000
   49CHL1   C27 4803   2.357   1.920   4.273  0.1322 -0.3388 -0.8869
   49CHL1  H27A 4804   2.278   1.922   4.352  1.2110  0.9737  0.2107
   49CHL1  H27B 4805   2.317   1.961   4.178 -1.4939  0.0858 -0.0563
   49CHL1  H27C 4806   2.380   1.814   4.252 -0.8026 -0.3582 -1.8994
   50CHL1    C3 4807   6.180   5.250   2.898  0.1804  0.3101 -0.1661
   50CHL1    H3 4808   6.289   5.251   2.918  0.0617 -2.8359  1.2355
   50CHL1    O3 4809   6.149   5.215   2.766  0.8467  0.6336  0.5956
   50CHL1   H3' 4810   6.053   5.217   2.771  0.8794  1.6060  0.8432
   50CHL1    C4 4811   6.127   5.149   3.000 -0.1033 -0.2831  0.5069
   50CHL1   H4A 4812   6.019   5.127   2.986 -0.1038 -0.0185  0.0778
   50CHL1   H4B 4813   6.179   5.055   2.975  1.5975  0.8667 -0.5329
   50CHL1    C5 4814   6.152   5.191   3.145  0.6115 -0.9292 -0.0783
   50CHL1    C6 4815   6.212   5.106   3.228 -0.1750 -0.4080 -0.2903
   50CHL1    H6 4816   6.252   5.010   3.192 -1.8294 -1.3881  0.3863
   50CHL1    C7 4817   6.224   5.125   3.376  0.4337 -0.4898  0.3328
   50CHL1   H7A 4818   6.194   5.035   3.433 -2.9641  0.9674  1.0663
   50CHL1   H7B 4819   6.329   5.142   3.407 -0.0531 -0.4668  2.1076
   50CHL1    C8 4820   6.146   5.253   3.424  0.2748 -0.1070 -0.0204
   50CHL1    H8 4821   6.040   5.221   3.434  0.2648 -0.0784 -0.0386
   50CHL1   C14 4822   6.195   5.289   3.565 -0.5538 -0.3979  0.3965
   50CHL1   H14 4823   6.300   5.325   3.556  0.1095 -1.7815  2.0829
   50CHL1   C15 4824   6.191   5.179   3.667 -0.2957  0.3204 -0.2912
   50CHL1  H15A 4825   6.094   5.127   3.659  0.5678 -1.5296  0.6668
   50CHL1  H15B 4826   6.256   5.091   3.650 -0.4975  0.3514 -1.2470
   50CHL1   C16 4827   6.212   5.257   3.796 -0.2977  0.2757  1.0976
   50CHL1  H16A 4828   6.152   5.212   3.878 -1.3532 -2.0386 -0.8256
   50CHL1  H16B 4829   6.319   5.236   3.815 -0.3490 -0.7065  0.3900
   50CHL1   C17 4830   6.191   5.407   3.768 -0.7577  0.2536  0.3325
   50CHL1   H17 4831   6.292   5.445   3.742 -0.6806  0.5075  0.9924
   50CHL1   C13 4832   6.120   5.409   3.628 -0.1916  0.2128 -0.5867
   50CHL1   C18 4833   5.969   5.391   3.671  0.1036  0.0282  0.6191
   50CHL1  H18A 4834   5.908   5.368   3.581 -0.1495  1.9390  0.2439
   50CHL1  H18B 4835   5.961   5.297   3.730  0.1341 -0.7279 -0.5480
   50CHL1  H18C 4836   5.936   5.487   3.716  1.2356  1.1827 -0.9153
   50CHL1   C12 4837   6.141   5.530   3.542 -0.4948 -0.0779 -0.2061
   50CHL1  H12A 4838   6.100   5.626   3.581 -0.3121 -0.3411  0.6655
   50CHL1  H12B 4839   6.250   5.548   3.543 -0.3313 -0.9796 -0.4491
   50CHL1   C11 4840   6.092   5.506   3.395 -0.6086 -0.6871 -0.5920
   50CHL1  H11A 4841   5.981   5.492   3.392 -0.3930 -2.3829 -2.4244
   50CHL1  H11B 4842   6.126   5.584   3.323 -0.1132 -1.3051 -1.0324
   50CHL1    C9 4843   6.153   5.374   3.331 -0.1659 -0.0982  0.2598
   50CHL1    H9 4844   6.262   5.395   3.327 -0.2697  0.2322 -1.2013
   50CHL1   C10 4845   6.105   5.334   3.189 -0.4159  0.4765  0.1708
   50CHL1   C19 4846   5.952   5.320   3.193 -0.0633  0.2647 -0.2170
   50CHL1  H19A 4847   5.908   5.311   3.091  0.7018  2.2433 -0.7836
   50CHL1  H19B 4848   5.921   5.232   3.253 -2.2818 -0.9195 -2.8426
   50CHL1  H19C 4849   5.915   5.417   3.232 -0.7930 -0.5272  1.1105
   50CHL1    C1 4850   6.161   5.429   3.080  0.8745 -0.2880  0.2470
   50CHL1   H1A 4851   6.126   5.534   3.095  0.6110 -0.5064  1.2376
   50CHL1   H1B 4852   6.271   5.421   3.093  0.9773  0.6824  0.0466
   50CHL1    C2 4853   6.136   5.392   2.923 -0.3858 -0.1581 -0.9048
   50CHL1   H2A 4854   6.200   5.464   2.867 -0.1022  1.9178  1.8734
   50CHL1   H2B 4855   6.028   5.401   2.899 -1.0527  1.7807  2.2509
   50CHL1   C20 4856   6.136   5.487   3.883  0.0944 -0.1025  0.5740
   50CHL1   H20 4857   6.034   5.460   3.918 -0.9280  1.3592 -1.0937
   50CHL1   C21 4858   6.140   5.637   3.856  0.3184 -0.6941  0.2200
   50CHL1  H21A 4859   6.240   5.675   3.826  0.3062  0.3921  1.4485
   50CHL1  H21B 4860   6.117   5.690   3.951 -1.1909 -0.6410 -0.1590
   50CHL1  H21C 4861   6.064   5.667   3.781  2.1210 -0.7482 -1.7372
   50CHL1   C22 4862   6.221   5.463   4.012  0.7266 -0.3659  0.0572
   50CHL1  H22A 4863   6.168   5.510   4.097  0.0859  0.3102 -0.6937
   50CHL1  H22B 4864   6.226   5.353   4.023  0.6665 -0.5430 -1.4821
   50CHL1   C23 4865   6.365   5.502   4.014 -0.4062 -0.7961 -0.2908
   50CHL1  H23A 4866   6.410   5.475   3.916 -0.6567 -0.1295 -0.5895
   50CHL1  H23B 4867   6.386   5.611   4.021 -1.6230 -0.4572 -1.6525
   50CHL1   C24 4868   6.439   5.457   4.145 -0.2663 -0.5060  0.8845
   50CHL1  H24A 4869   6.535   5.512   4.145 -0.6087  0.0934  0.7071
   50CHL1  H24B 4870   6.377   5.483   4.234 -0.5127 -1.0469  0.8763
   50CHL1   C25 4871   6.469   5.307   4.152 -0.6882  0.3200  0.5559
   50CHL1   H25 4872   6.373   5.253   4.141 -0.1695 -0.3365 -1.0328
   50CHL1   C26 4873   6.571   5.260   4.044 -1.0920 -0.6020 -0.1137
   50CHL1  H26A 4874   6.656   5.331   4.030 -0.6080 -0.5309  2.7257
   50CHL1  H26B 4875   6.617   5.163   4.072 -0.8600 -0.2978  0.5752
   50CHL1  H26C 4876   6.519   5.250   3.946 -0.1914  1.2757 -0.8511
   50CHL1   C27 4877   6.514   5.255   4.290  0.0005 -0.1877 -0.6764
   50CHL1  H27A 4878   6.613   5.299   4.313  0.6571 -1.7571 -0.4035
   50CHL1  H27B 4879   6.448   5.285   4.375  2.2870  2.2000  0.4015
   50CHL1  H27C 4880   6.510   5.145   4.277 -1.9927 -0.2213 -0.1559
   51CHL1    C3 4881   0.088   0.489   2.806 -0.2031  0.5407  0.0912
   51CHL1    H3 4882   0.161   0.570   2.784 -0.7800  1.1364  0.3486
   51CHL1    O3 4883   0.056   0.428   2.681 -0.2466 -0.2254  0.0378
   51CHL1   H3' 4884   0.038   0.336   2.699  0.1455 -0.3200 -0.0513
   51CHL1    C4 4885   0.149   0.384   2.899 -0.4636  0.2241  0.3759
   51CHL1   H4A 4886   0.099   0.285   2.897  0.3757 -0.2815  2.1116
   51CHL1   H4B 4887   0.254   0.375   2.864 -0.6699  2.4289 -1.0072
   51CHL1    C5 4888   0.145   0.425   3.045  0.4079  0.4600  0.8325
   51CHL1    C6 4889   0.258   0.429   3.116  0.5468  0.8584 -0.0152
   51CHL1    H6 4890   0.352   0.394   3.071  0.6287 -0.9114  1.4333
   51CHL1    C7 4891   0.259   0.463   3.263  0.1626 -0.0440  0.2123
   51CHL1   H7A 4892   0.322   0.388   3.316 -0.1367 -0.9013 -0.6314
   51CHL1   H7B 4893   0.301   0.566   3.271  1.2848 -0.5741  1.8360
   51CHL1    C8 4894   0.122   0.464   3.330 -0.3491 -0.2384 -0.1323
   51CHL1    H8 4895   0.085   0.360   3.335 -0.2697 -0.4283 -2.4500
   51CHL1   C14 4896   0.137   0.538   3.463 -0.7294  0.4449  0.3614
   51CHL1   H14 4897   0.187   0.632   3.432 -0.4648  0.6146  1.3011
   51CHL1   C15 4898   0.244   0.475   3.564 -0.1463 -0.1723  0.2154
   51CHL1  H15A 4899   0.215   0.369   3.584 -0.1916 -0.1888  0.0573
   51CHL1  H15B 4900   0.349   0.479   3.527  0.5062  2.3893  2.0363
   51CHL1   C16 4901   0.217   0.552   3.691  0.4109 -0.6029  0.0298
   51CHL1  H16A 4902   0.224   0.486   3.780  2.2600  0.8236  1.0184
   51CHL1  H16B 4903   0.293   0.628   3.720 -1.9097  1.5150  0.9579
   51CHL1   C17 4904   0.079   0.627   3.671 -0.4298 -0.1368  0.0122
   51CHL1   H17 4905   0.110   0.730   3.643 -0.9300  0.0319  0.0713
   51CHL1   C13 4906   0.017   0.563   3.548 -0.1469 -1.3105 -0.5433
   51CHL1   C18 4907  -0.037   0.429   3.586 -0.4833 -0.4413 -0.2891
   51CHL1  H18A 4908  -0.062   0.369   3.495 -1.3729 -0.9019  0.2521
   51CHL1  H18B 4909   0.018   0.359   3.653  0.1964  0.0476 -0.3263
   51CHL1  H18C 4910  -0.134   0.443   3.638 -0.9239 -1.8507 -0.6817
   51CHL1   C12 4911  -0.076   0.650   3.452  0.0084 -0.6280 -0.0389
   51CHL1  H12A 4912  -0.166   0.683   3.508  1.0660 -1.2435  2.1345
   51CHL1  H12B 4913  -0.006   0.733   3.429 -0.0745 -0.9288 -1.4689
   51CHL1   C11 4914  -0.110   0.565   3.324 -0.3236  0.2025  0.8960
   51CHL1  H11A 4915  -0.170   0.482   3.366 -1.8354  1.1798  0.7464
   51CHL1  H11B 4916  -0.182   0.622   3.262 -1.0863 -2.6589 -1.0215
   51CHL1    C9 4917   0.019   0.540   3.242 -0.6909 -0.2039 -0.2243
   51CHL1    H9 4918   0.063   0.640   3.221 -0.5925 -0.0163  0.8169
   51CHL1   C10 4919   0.007   0.472   3.101  0.3298 -0.0979 -0.5971
   51CHL1   C19 4920  -0.073   0.340   3.110  0.3155  0.3960  0.3929
   51CHL1  H19A 4921  -0.172   0.354   3.159  0.4320 -0.9226  1.0522
   51CHL1  H19B 4922  -0.084   0.289   3.012  1.4687 -0.1829  0.5487
   51CHL1  H19C 4923  -0.019   0.266   3.173  1.4701 -0.2515 -1.2915
   51CHL1    C1 4924  -0.050   0.580   3.005  0.2886  0.3021  0.3135
   51CHL1   H1A 4925  -0.157   0.599   3.029 -0.0544  2.3582 -2.3670
   51CHL1   H1B 4926   0.011   0.672   3.014 -0.4662  0.8832 -0.3463
   51CHL1    C2 4927  -0.049   0.546   2.859  0.0883 -0.7161  0.2237
   51CHL1   H2A 4928  -0.071   0.629   2.789 -2.6135 -0.0555  1.7455
   51CHL1   H2B 4929  -0.133   0.475   2.845 -2.7415  2.1224  1.5361
   51CHL1   C20 4930   0.002   0.652   3.803  0.8820  1.0814  1.0147
   51CHL1   H20 4931  -0.029   0.556   3.849  1.0014 -0.4100 -1.7867
   51CHL1   C21 4932  -0.129   0.725   3.762 -0.1871 -0.1779 -1.3395
   51CHL1  H21A 4933  -0.182   0.770   3.849  0.4896 -1.1874 -0.3613
   51CHL1  H21B 4934  -0.189   0.642   3.719  0.3548 -2.7230  2.2491
   51CHL1  H21C 4935  -0.117   0.803   3.684 -3.6337  1.2673 -0.6003
   51CHL1   C22 4936   0.090   0.739   3.897  0.7333  0.4411  0.0037
   51CHL1  H22A 4937   0.182   0.682   3.924  1.3247  2.8623  3.8820
   51CHL1  H22B 4938   0.124   0.831   3.847  3.3571 -0.3080  0.2469
   51CHL1   C23 4939   0.027   0.769   4.033  0.5600 -0.5629  0.3616
   51CHL1  H23A 4940  -0.060   0.838   4.034  0.7169 -0.3158 -0.8948
   51CHL1  H23B 4941  -0.004   0.666   4.060 -1.0316 -0.1627  0.1629
   51CHL1   C24 4942   0.118   0.830   4.141 -0.9041 -0.2594  0.7592
   51CHL1  H24A 4943   0.200   0.760   4.168  1.8550  1.2669 -2.7963
   51CHL1  H24B 4944   0.178   0.915   4.104 -1.1907  0.9033  2.8294
   51CHL1   C25 4945   0.044   0.867   4.275  0.2957  0.3892 -0.2259
   51CHL1   H25 4946  -0.039   0.794   4.284  0.5301 -0.1163 -1.8133
   51CHL1   C26 4947   0.146   0.847   4.384  0.2979 -0.1429  0.6627
   51CHL1  H26A 4948   0.098   0.881   4.479 -4.1561 -0.9583 -1.0239
   51CHL1  H26B 4949   0.173   0.740   4.390  1.0151 -0.3677 -3.6607
   51CHL1  H26C 4950   0.244   0.896   4.365  1.0047 -1.4522  0.8632
   51CHL1   C27 4951  -0.019   1.007   4.276 -0.1031 -0.3882 -0.2454
   51CHL1  H27A 4952   0.062   1.083   4.266 -0.0585 -0.6344 -2.2122
   51CHL1  H27B 4953  -0.088   1.013   4.189 -1.9089 -1.6131  1.0373
   51CHL1  H27C 4954  -0.073   1.033   4.369  0.1953  0.5919 -0.3405
   52CHL1    C3 4955   5.086   1.981   2.599 -0.5123 -0.4543  0.4591
   52CHL1    H3 4956   4.978   2.001   2.614 -0.3670  0.1638  0.7127
   52CHL1    O3 4957   5.111   1.942   2.461  0.1911 -0.4154 -0.6747
   52CHL1   H3' 4958   5.069   2.010   2.408 -1.1969  2.0604  3.1795
   52CHL1    C4 4959   5.170   2.107   2.631  0.3932  0.3597 -1.1203
   52CHL1   H4A 4960   5.276   2.091   2.604  0.4513  1.5070 -1.6261
   52CHL1   H4B 4961   5.135   2.192   2.569 -0.4864  1.0637  0.2812
   52CHL1    C5 4962   5.163   2.144   2.779 -0.1473 -0.2514 -0.0405
   52CHL1    C6 4963   5.105   2.263   2.811 -0.2686  0.0646  0.4378
   52CHL1    H6 4964   5.080   2.327   2.726  0.2049 -1.9505 -1.3104
   52CHL1    C7 4965   5.086   2.303   2.951 -0.0572 -0.1731 -0.2930
   52CHL1   H7A 4966   5.125   2.407   2.956  2.3140 -0.9941 -0.4576
   52CHL1   H7B 4967   4.980   2.296   2.984 -0.3568  3.7447  0.0269
   52CHL1    C8 4968   5.176   2.223   3.049  0.0642  0.3606  0.2240
   52CHL1    H8 4969   5.278   2.263   3.031 -0.2378  1.2093  0.3274
   52CHL1   C14 4970   5.138   2.252   3.191 -0.0609 -0.6981 -0.6350
   52CHL1   H14 4971   5.037   2.207   3.209  0.9639 -2.1570  2.1434
   52CHL1   C15 4972   5.135   2.407   3.241  0.0916  0.4810  0.2875
   52CHL1  H15A 4973   5.200   2.464   3.171 -0.4556  0.4326 -0.2741
   52CHL1  H15B 4974   5.032   2.442   3.219  0.3952  1.5942  0.5809
   52CHL1   C16 4975   5.171   2.406   3.385  0.5811  1.0693 -0.2802
   52CHL1  H16A 4976   5.259   2.472   3.398  0.8923  0.6673 -0.3368
   52CHL1  H16B 4977   5.086   2.443   3.447  0.7317  1.6462 -0.4035
   52CHL1   C17 4978   5.195   2.251   3.420 -0.8844 -0.4381 -0.4343
   52CHL1   H17 4979   5.097   2.214   3.455  0.2150 -1.6386  1.6335
   52CHL1   C13 4980   5.229   2.180   3.291 -0.1383 -0.0377 -0.0065
   52CHL1   C18 4981   5.379   2.212   3.263  0.1850 -0.0058  0.3654
   52CHL1  H18A 4982   5.413   2.185   3.161  0.7557 -0.7017  0.7300
   52CHL1  H18B 4983   5.403   2.321   3.264  0.7915 -0.1338  0.4818
   52CHL1  H18C 4984   5.452   2.166   3.333 -0.1173 -0.7076  0.2322
   52CHL1   C12 4985   5.197   2.027   3.281 -0.0672 -0.0590 -0.1001
   52CHL1  H12A 4986   5.264   1.962   3.342 -1.1699 -1.1964 -0.0640
   52CHL1  H12B 4987   5.092   2.016   3.316  0.8544  0.2447  3.0347
   52CHL1   C11 4988   5.224   1.976   3.137 -0.4509  0.4777 -0.8577
   52CHL1  H11A 4989   5.335   1.967   3.126 -0.4907 -0.9003 -0.2951
   52CHL1  H11B 4990   5.184   1.874   3.151 -0.1448  0.6254  1.4262
   52CHL1    C9 4991   5.155   2.066   3.030 -0.0462  0.7341 -0.3497
   52CHL1    H9 4992   5.049   2.032   3.037  0.7912 -2.1948 -0.5945
   52CHL1   C10 4993   5.190   2.024   2.881  0.0801 -0.1497  0.3395
   52CHL1   C19 4994   5.346   2.004   2.867  0.3949 -0.6011 -0.0053
   52CHL1  H19A 4995   5.395   2.091   2.916  1.3931 -0.4623 -1.2148
   52CHL1  H19B 4996   5.362   1.913   2.929 -2.3437  0.3285  2.2791
   52CHL1  H19C 4997   5.377   1.996   2.761  0.3634  0.4094 -0.0963
   52CHL1    C1 4998   5.109   1.903   2.833  0.1422  0.0435 -1.2711
   52CHL1   H1A 4999   5.138   1.817   2.898  2.4913  0.2853 -1.8864
   52CHL1   H1B 5000   5.002   1.926   2.849  0.2718  0.4794 -1.0203
   52CHL1    C2 5001   5.127   1.864   2.687 -0.5624  0.6107 -0.5728
   52CHL1   H2A 5002   5.077   1.768   2.660  1.4093 -0.3782 -0.8601
   52CHL1   H2B 5003   5.234   1.839   2.673 -0.3935  0.3703  0.9145
   52CHL1   C20 5004   5.284   2.222   3.540 -0.1148  0.3580 -1.1663
   52CHL1   H20 5005   5.342   2.127   3.531 -0.4761 -0.0028  0.1538
   52CHL1   C21 5006   5.198   2.189   3.667  0.2023 -0.8819  0.1726
   52CHL1  H21A 5007   5.110   2.256   3.680  0.2740 -0.9688  1.2615
   52CHL1  H21B 5008   5.259   2.202   3.760 -1.0436 -1.1843  1.0604
   52CHL1  H21C 5009   5.170   2.083   3.649 -1.4725 -0.2002 -1.5648
   52CHL1   C22 5010   5.398   2.332   3.561 -0.4928 -0.7979 -0.3593
   52CHL1  H22A 5011   5.439   2.363   3.463  0.0739  0.7547  0.3436
   52CHL1  H22B 5012   5.361   2.425   3.611  4.2780 -0.1635  2.5806
   52CHL1   C23 5013   5.514   2.280   3.643  0.5845  0.4527  0.0777
   52CHL1  H23A 5014   5.478   2.239   3.740 -0.3259 -0.2088 -0.5213
   52CHL1  H23B 5015   5.566   2.205   3.581  1.9568  0.5873  1.0126
   52CHL1   C24 5016   5.612   2.394   3.685 -0.0810  1.1929 -0.6251
   52CHL1  H24A 5017   5.643   2.452   3.595  0.1188  1.2833 -0.4998
   52CHL1  H24B 5018   5.560   2.464   3.753 -1.2260  0.4507 -0.7002
   52CHL1   C25 5019   5.742   2.338   3.760 -0.3571 -0.0235 -0.6216
   52CHL1   H25 5020   5.713   2.264   3.837 -0.9337 -0.5287 -1.3075
   52CHL1   C26 5021   5.821   2.254   3.664  0.4648 -0.0570 -0.8063
   52CHL1  H26A 5022   5.764   2.159   3.658  0.5636 -0.2244  0.5744
   52CHL1  H26B 5023   5.824   2.305   3.566  2.4132 -0.4848 -1.0162
   52CHL1  H26C 5024   5.927   2.238   3.694 -0.2032 -1.3911  1.0550
   52CHL1   C27 5025   5.842   2.441   3.818  0.0921 -0.6414  0.1790
   52CHL1  H27A 5026   5.800   2.504   3.899 -0.1110 -1.3272  0.6109
   52CHL1  H27B 5027   5.927   2.391   3.868 -0.0260 -0.1525  0.8804
   52CHL1  H27C 5028   5.865   2.512   3.736  1.2043 -0.4825  0.6061
   53CHL1    C3 5029   5.567   0.654   2.432 -0.1578 -0.4934 -0.2579
   53CHL1    H3 5030   5.668   0.610   2.421 -0.5864 -1.0812 -2.3204
   53CHL1    O3 5031   5.537   0.697   2.300 -0.9282 -0.3446  0.8007
   53CHL1   H3' 5032   5.442   0.714   2.295 -1.1820 -1.7005  0.6154
   53CHL1    C4 5033   5.476   0.540   2.471  0.6673  0.2844 -1.0047
   53CHL1   H4A 5034   5.368   0.569   2.473  0.6872  0.4319  1.8884
   53CHL1   H4B 5035   5.469   0.455   2.400 -3.4980  0.4643 -1.0759
   53CHL1    C5 5036   5.503   0.495   2.619  0.0711 -0.2838  0.1262
   53CHL1    C6 5037   5.546   0.369   2.654 -0.1678  0.0670 -0.5463
   53CHL1    H6 5038   5.559   0.291   2.578 -0.0186  1.2565 -1.7663
   53CHL1    C7 5039   5.560   0.330   2.801 -0.3858 -0.2170 -0.3056
   53CHL1   H7A 5040   5.519   0.228   2.819  3.7574 -2.4356 -2.0291
   53CHL1   H7B 5041   5.668   0.316   2.824 -0.5024  2.6797  2.8048
   53CHL1    C8 5042   5.483   0.429   2.902  0.0836  0.4889  0.1526
   53CHL1    H8 5043   5.374   0.410   2.894  0.0553 -0.6689  2.3317
   53CHL1   C14 5044   5.515   0.405   3.050 -0.1740  0.4362  0.0985
   53CHL1   H14 5045   5.625   0.415   3.046  0.0461 -1.0144  1.3891
   53CHL1   C15 5046   5.493   0.261   3.104  0.2536 -0.3230  0.3940
   53CHL1  H15A 5047   5.392   0.228   3.070  0.0111  2.4003 -1.9791
   53CHL1  H15B 5048   5.575   0.197   3.066 -0.8384  0.4515 -3.8394
   53CHL1   C16 5049   5.507   0.279   3.261 -0.0265  0.4239  0.3799
   53CHL1  H16A 5050   5.411   0.235   3.297 -0.7064 -0.6649 -2.4881
   53CHL1  H16B 5051   5.597   0.220   3.289 -1.2567 -3.5551 -2.9864
   53CHL1   C17 5052   5.521   0.435   3.280 -0.7334  0.7971 -0.1255
   53CHL1   H17 5053   5.629   0.460   3.280 -0.6417  0.6725  2.4141
   53CHL1   C13 5054   5.466   0.502   3.156  1.1020  0.2737 -0.3734
   53CHL1   C18 5055   5.311   0.492   3.149  1.0083 -0.0947 -0.4743
   53CHL1  H18A 5056   5.275   0.410   3.214  0.4824  0.7541  0.3365
   53CHL1  H18B 5057   5.253   0.578   3.188 -1.5244 -1.4703 -1.0046
   53CHL1  H18C 5058   5.274   0.467   3.048 -0.4081  0.3503 -0.0825
   53CHL1   C12 5059   5.529   0.636   3.119 -0.2263  0.0673  0.4195
   53CHL1  H12A 5060   5.502   0.727   3.177  2.2526  1.0443  0.1366
   53CHL1  H12B 5061   5.639   0.633   3.108 -0.3725 -2.2854 -1.0654
   53CHL1   C11 5062   5.477   0.675   2.975  0.0272  0.0526  0.3648
   53CHL1  H11A 5063   5.368   0.696   2.984  0.2481  2.3915 -1.3803
   53CHL1  H11B 5064   5.523   0.772   2.947 -2.1547  1.3288  0.9627
   53CHL1    C9 5065   5.515   0.572   2.864 -0.4050 -0.3751 -0.2175
   53CHL1    H9 5066   5.626   0.580   2.868 -0.4103 -0.0286 -0.6852
   53CHL1   C10 5067   5.479   0.617   2.718 -0.0379  0.5854 -0.5699
   53CHL1   C19 5068   5.335   0.673   2.728  0.2776  0.5911  0.1821
   53CHL1  H19A 5069   5.331   0.771   2.779  0.8406  1.2990 -1.0769
   53CHL1  H19B 5070   5.288   0.678   2.627 -1.0883  2.8131  0.8828
   53CHL1  H19C 5071   5.286   0.590   2.784  0.1697 -0.0999 -0.9040
   53CHL1    C1 5072   5.578   0.725   2.670 -0.6418 -0.4423 -0.0113
   53CHL1   H1A 5073   5.572   0.802   2.750 -1.3095 -1.4900  0.9713
   53CHL1   H1B 5074   5.684   0.691   2.669 -0.4307  0.0848 -2.6603
   53CHL1    C2 5075   5.553   0.767   2.530 -0.4119 -0.8017 -0.8594
   53CHL1   H2A 5076   5.633   0.840   2.504  0.0126 -0.7621  0.4685
   53CHL1   H2B 5077   5.449   0.802   2.512 -0.5236 -1.0573 -0.7173
   53CHL1   C20 5078   5.466   0.484   3.419 -0.5002  0.4461 -0.3097
   53CHL1   H20 5079   5.358   0.458   3.413 -0.2515 -0.8441  0.4391
   53CHL1   C21 5080   5.485   0.637   3.455 -0.4068  0.4655 -0.0947
   53CHL1  H21A 5081   5.457   0.699   3.366 -0.5386 -0.0963 -0.4503
   53CHL1  H21B 5082   5.586   0.665   3.491 -0.2072 -2.1589  1.5907
   53CHL1  H21C 5083   5.418   0.661   3.540  1.1768  1.1519  1.0083
   53CHL1   C22 5084   5.524   0.403   3.536 -0.1051 -0.5412 -0.0431
   53CHL1  H22A 5085   5.525   0.294   3.516  1.0499 -0.6710  0.6050
   53CHL1  H22B 5086   5.630   0.437   3.542 -0.0983 -0.1079 -2.1332
   53CHL1   C23 5087   5.457   0.436   3.667 -0.7905 -0.4340  0.0751
   53CHL1  H23A 5088   5.473   0.542   3.694  1.5245 -0.7207  0.1204
   53CHL1  H23B 5089   5.349   0.413   3.666 -0.5627 -1.7206  1.1160
   53CHL1   C24 5090   5.523   0.359   3.778  0.5818  0.3321  0.4241
   53CHL1  H24A 5091   5.498   0.253   3.759 -0.7764  0.5565  0.8486
   53CHL1  H24B 5092   5.634   0.363   3.775  0.5813  1.0128  1.0124
   53CHL1   C25 5093   5.475   0.401   3.920 -0.0365  0.0579  0.3435
   53CHL1   H25 5094   5.370   0.434   3.905 -0.6854 -1.9069  0.3850
   53CHL1   C26 5095   5.455   0.280   4.019  0.0228 -0.5970  0.5086
   53CHL1  H26A 5096   5.556   0.241   4.044  0.3828 -0.5522 -0.8287
   53CHL1  H26B 5097   5.387   0.314   4.100 -2.1238 -3.1948 -0.0558
   53CHL1  H26C 5098   5.416   0.190   3.966  0.3356 -2.0262  2.5831
   53CHL1   C27 5099   5.556   0.519   3.973 -0.4036  0.0111 -0.0811
   53CHL1  H27A 5100   5.665   0.497   3.969 -0.0456  0.9376  2.4109
   53CHL1  H27B 5101   5.539   0.605   3.905 -1.7613 -0.4605 -0.3671
   53CHL1  H27C 5102   5.546   0.546   4.080  2.3906 -0.5884  0.4223
   54CHL1    C3 5103   5.137   0.906   2.437  0.1473 -0.1042 -0.7445
   54CHL1    H3 5104   5.235   0.861   2.461  0.4582  0.7013 -0.4939
   54CHL1    O3 5105   5.124   0.942   2.305  0.4966 -0.2348 -0.0264
   54CHL1   H3' 5106   5.061   1.013   2.318  1.9142  0.6634  2.7590
   54CHL1    C4 5107   5.012   0.826   2.476  0.1586  0.7449 -1.2461
   54CHL1   H4A 5108   4.924   0.888   2.449  0.1442  1.3814  0.1402
   54CHL1   H4B 5109   5.009   0.729   2.422  1.8414 -1.3688  2.1034
   54CHL1    C5 5110   5.003   0.798   2.632  0.3695  0.3365  1.1894
   54CHL1    C6 5111   5.006   0.673   2.681 -0.1054 -0.1192 -0.9716
   54CHL1    H6 5112   4.994   0.590   2.610 -0.0580 -1.3508  0.4165
   54CHL1    C7 5113   4.992   0.631   2.826  0.6039  0.4271 -0.0634
   54CHL1   H7A 5114   4.912   0.555   2.830  1.6149 -0.6200  2.5892
   54CHL1   H7B 5115   5.082   0.581   2.869 -0.4477 -0.5642  1.0303
   54CHL1    C8 5116   4.963   0.753   2.916  0.1028  1.1780  0.3216
   54CHL1    H8 5117   4.854   0.772   2.908 -0.3054 -0.3142  1.8091
   54CHL1   C14 5118   5.008   0.715   3.055  0.0225  0.0248 -0.2895
   54CHL1   H14 5119   5.116   0.696   3.040  0.0408 -0.0409 -0.0759
   54CHL1   C15 5120   4.947   0.600   3.124 -0.1771 -0.0135 -0.0041
   54CHL1  H15A 5121   4.838   0.589   3.112 -0.0495 -1.5229  0.0496
   54CHL1  H15B 5122   4.990   0.498   3.110 -0.0820  0.0685 -0.3114
   54CHL1   C16 5123   4.967   0.629   3.277  0.5424  0.3608 -0.2699
   54CHL1  H16A 5124   4.869   0.622   3.330 -1.9210  2.0699 -4.1373
   54CHL1  H16B 5125   5.028   0.549   3.323 -0.2305 -0.3601 -0.4731
   54CHL1   C17 5126   5.034   0.763   3.292 -0.9493  0.8947  0.7193
   54CHL1   H17 5127   5.144   0.757   3.277 -0.7177 -0.7310  2.6733
   54CHL1   C13 5128   4.989   0.827   3.163 -1.2437 -0.9129  0.0572
   54CHL1   C18 5129   4.842   0.879   3.169 -0.6504 -0.9674  0.0940
   54CHL1  H18A 5130   4.778   0.799   3.212 -0.7501 -0.8418  0.1759
   54CHL1  H18B 5131   4.821   0.967   3.233 -0.3805 -1.6628  1.1865
   54CHL1  H18C 5132   4.808   0.902   3.066 -0.9880 -0.3909  0.3317
   54CHL1   C12 5133   5.089   0.937   3.113  0.3625 -0.8469  0.0483
   54CHL1  H12A 5134   5.092   1.009   3.198  1.1083  1.2483 -1.6695
   54CHL1  H12B 5135   5.190   0.893   3.104  0.6081 -0.6614  1.5778
   54CHL1   C11 5136   5.045   0.999   2.974  0.2691  0.2502  0.2006
   54CHL1  H11A 5137   4.942   1.039   2.986  0.6205  2.4933 -2.9285
   54CHL1  H11B 5138   5.115   1.082   2.950  1.7227 -1.2925 -1.2109
   54CHL1    C9 5139   5.044   0.880   2.866  0.1868 -0.3817 -0.1536
   54CHL1    H9 5140   5.151   0.850   2.855  1.1361  2.8393 -0.6686
   54CHL1   C10 5141   5.005   0.927   2.722 -0.4779 -0.4700 -0.3219
   54CHL1   C19 5142   4.882   1.009   2.726 -0.3678  0.4767  0.5856
   54CHL1  H19A 5143   4.895   1.101   2.786 -0.4607  1.6477 -1.1367
   54CHL1  H19B 5144   4.870   1.040   2.620 -2.2231 -1.9560 -0.0079
   54CHL1  H19C 5145   4.792   0.947   2.747  0.0942 -0.1637  0.6997
   54CHL1    C1 5146   5.128   1.010   2.666  0.1225 -0.6888  0.1217
   54CHL1   H1A 5147   5.138   1.103   2.726  0.9712 -1.0688  0.5798
   54CHL1   H1B 5148   5.223   0.960   2.695  0.7748  1.1238  1.2873
   54CHL1    C2 5149   5.131   1.037   2.520  0.1739 -0.0825  0.3559
   54CHL1   H2A 5150   5.229   1.085   2.497  0.9426 -0.8891  1.7989
   54CHL1   H2B 5151   5.048   1.100   2.483 -0.1028  0.1622  1.3643
   54CHL1   C20 5152   5.028   0.830   3.434  0.1616 -0.4292  0.2439
   54CHL1   H20 5153   5.066   0.932   3.416  1.4022 -1.1259 -1.3482
   54CHL1   C21 5154   5.133   0.763   3.527  0.0208  0.1463  0.8450
   54CHL1  H21A 5155   5.071   0.693   3.587 -0.2262  0.2932  0.7613
   54CHL1  H21B 5156   5.172   0.842   3.595  0.4092  0.5893  0.1147
   54CHL1  H21C 5157   5.214   0.711   3.472 -2.6577 -3.5713  0.0544
   54CHL1   C22 5158   4.894   0.831   3.503 -0.6335  0.0827  0.4504
   54CHL1  H22A 5159   4.812   0.872   3.441 -0.0159 -0.6367 -0.8795
   54CHL1  H22B 5160   4.863   0.725   3.510 -2.1920  0.4602 -0.2921
   54CHL1   C23 5161   4.903   0.886   3.644 -0.3559 -0.0080 -0.6911
   54CHL1  H23A 5162   4.936   0.816   3.724 -1.1134 -1.4696 -1.6227
   54CHL1  H23B 5163   4.967   0.977   3.634 -0.5750 -0.0217 -2.7677
   54CHL1   C24 5164   4.766   0.942   3.685 -0.0366  0.2928 -0.8456
   54CHL1  H24A 5165   4.754   1.027   3.614  0.3643  0.0840 -1.1676
   54CHL1  H24B 5166   4.686   0.866   3.672 -0.3714  0.4032  0.4643
   54CHL1   C25 5167   4.760   0.994   3.823  0.2537 -0.1377  0.4275
   54CHL1   H25 5168   4.663   1.049   3.832 -0.5685 -1.7759  2.2954
   54CHL1   C26 5169   4.731   0.881   3.928 -0.1861  1.0014 -0.1024
   54CHL1  H26A 5170   4.820   0.816   3.933 -1.0600 -0.1249  1.9928
   54CHL1  H26B 5171   4.727   0.916   4.033 -0.9644 -1.1457  0.6322
   54CHL1  H26C 5172   4.636   0.825   3.912  0.3061  0.1872 -0.1748
   54CHL1   C27 5173   4.871   1.086   3.869 -0.3074 -0.0938  0.4055
   54CHL1  H27A 5174   4.952   1.018   3.904  2.0622  1.6772 -1.3276
   54CHL1  H27B 5175   4.909   1.155   3.790  0.5159 -0.1735  0.7262
   54CHL1  H27C 5176   4.845   1.150   3.956  0.6115  0.4617  0.2814
   55CHL1    C3 5177   6.071   4.125   2.861  0.4332  0.3521  0.0029
   55CHL1    H3 5178   6.141   4.209   2.883 -0.0861  0.0644  3.2298
   55CHL1    O3 5179   6.087   4.101   2.721 -0.4508  0.6183  0.3549
   55CHL1   H3' 5180   6.012   4.048   2.693 -0.7858  0.5407  1.3506
   55CHL1    C4 5181   6.111   3.997   2.939 -0.1837 -0.0982  0.1049
   55CHL1   H4A 5182   6.063   3.905   2.899 -0.6042 -0.1062  0.6162
   55CHL1   H4B 5183   6.219   3.990   2.915 -0.5541  0.2398 -1.8252
   55CHL1    C5 5184   6.084   4.014   3.086  0.3397  0.5633  0.1856
   55CHL1    C6 5185   6.176   3.975   3.180 -1.0508 -0.5013  0.2560
   55CHL1    H6 5186   6.271   3.927   3.151 -0.8636  0.1699 -0.2739
   55CHL1    C7 5187   6.163   3.994   3.326  0.4584  0.5895  0.8192
   55CHL1   H7A 5188   6.188   3.899   3.377 -1.0784  0.4301  1.3144
   55CHL1   H7B 5189   6.227   4.080   3.356 -0.1879  0.5947  2.2570
   55CHL1    C8 5190   6.020   4.020   3.369 -0.1872 -0.1240  0.6519
   55CHL1    H8 5191   5.966   3.925   3.353  0.2147 -0.1720 -0.5440
   55CHL1   C14 5192   6.013   4.073   3.510  0.8169 -0.0151  0.6987
   55CHL1   H14 5193   6.059   4.173   3.498  1.6197 -0.3980  0.5194
   55CHL1   C15 5194   6.092   3.985   3.611  0.1766  0.2522 -0.0854
   55CHL1  H15A 5195   6.084   3.877   3.585  0.6275 -0.3035  1.9555
   55CHL1  H15B 5196   6.203   3.995   3.611  0.1332  0.7795  0.9164
   55CHL1   C16 5197   6.028   4.013   3.747  0.4026 -0.1906  0.6220
   55CHL1  H16A 5198   6.005   3.928   3.814  1.7649  0.3711  1.8700
   55CHL1  H16B 5199   6.091   4.082   3.809 -2.4874  0.9763  2.4927
   55CHL1   C17 5200   5.904   4.102   3.720 -0.2898 -0.1064  0.9634
   55CHL1   H17 5201   5.947   4.204   3.730  2.3932 -1.1843  1.1503
   55CHL1   C13 5202   5.874   4.076   3.565 -0.1420 -0.1140  0.1136
   55CHL1   C18 5203   5.809   3.944   3.558  0.0953  0.6621  0.0723
   55CHL1  H18A 5204   5.853   3.863   3.619  0.3493  1.2648  0.7031
   55CHL1  H18B 5205   5.707   3.956   3.599 -0.1324  0.9959 -0.5693
   55CHL1  H18C 5206   5.796   3.903   3.455  1.0012  0.0907  0.1737
   55CHL1   C12 5207   5.803   4.185   3.491 -0.8085  0.3189 -0.5715
   55CHL1  H12A 5208   5.696   4.194   3.521 -0.3602  1.5507  0.7751
   55CHL1  H12B 5209   5.839   4.287   3.514  0.8335 -0.2699 -0.4223
   55CHL1   C11 5210   5.815   4.159   3.336  0.1833  0.0279 -1.0940
   55CHL1  H11A 5211   5.731   4.090   3.315  0.7758 -0.3234 -2.4593
   55CHL1  H11B 5212   5.782   4.255   3.290 -0.5395 -0.1111 -0.8743
   55CHL1    C9 5213   5.949   4.115   3.272  0.3639 -0.2303  0.4884
   55CHL1    H9 5214   6.014   4.205   3.271  1.0051 -0.6825  0.7402
   55CHL1   C10 5215   5.947   4.067   3.125 -0.4804  0.1799 -0.1933
   55CHL1   C19 5216   5.838   3.955   3.108 -0.5264 -0.7203  0.1148
   55CHL1  H19A 5217   5.835   3.913   3.005  1.1052  1.9788 -1.1317
   55CHL1  H19B 5218   5.859   3.868   3.173 -4.2809 -1.6477  0.3250
   55CHL1  H19C 5219   5.739   3.996   3.139 -0.1315  1.2932 -1.0850
   55CHL1    C1 5220   5.902   4.188   3.037  0.2849  0.3433 -0.3687
   55CHL1   H1A 5221   5.795   4.211   3.055 -0.1571 -1.0798 -1.0098
   55CHL1   H1B 5222   5.968   4.274   3.061  2.8679 -1.2367 -1.4120
   55CHL1    C2 5223   5.931   4.167   2.891 -0.0669  0.3753 -0.0055
   55CHL1   H2A 5224   5.912   4.264   2.842  0.5311  1.3734  1.6475
   55CHL1   H2B 5225   5.869   4.090   2.840 -0.4000  1.5254 -1.4024
   55CHL1   C20 5226   5.795   4.082   3.828  0.3207  0.1273  0.0190
   55CHL1   H20 5227   5.770   3.974   3.837 -1.5370  0.4411 -0.9311
   55CHL1   C21 5228   5.682   4.167   3.805 -0.1478 -0.4152 -0.1124
   55CHL1  H21A 5229   5.698   4.275   3.782 -1.1722 -0.2138  0.0327
   55CHL1  H21B 5230   5.606   4.164   3.886 -0.5447  1.5427 -0.3433
   55CHL1  H21C 5231   5.624   4.138   3.714  2.2751  0.0976 -1.9214
   55CHL1   C22 5232   5.848   4.119   3.965  0.4010 -0.5721  0.1237
   55CHL1  H22A 5233   5.951   4.077   3.972  0.5735 -0.3859 -1.0618
   55CHL1  H22B 5234   5.853   4.228   3.985 -0.2369 -0.0886 -2.0329
   55CHL1   C23 5235   5.772   4.051   4.083  0.6491  0.0323  0.3543
   55CHL1  H23A 5236   5.663   4.067   4.068  0.8714 -0.2852 -1.9861
   55CHL1  H23B 5237   5.799   3.945   4.064  3.9618  1.1601 -2.3934
   55CHL1   C24 5238   5.818   4.099   4.219  0.3381  0.3808 -0.2883
   55CHL1  H24A 5239   5.926   4.074   4.218  0.3837  0.5698 -1.0570
   55CHL1  H24B 5240   5.811   4.209   4.235  0.9296  0.2692  0.8351
   55CHL1   C25 5241   5.749   4.031   4.336  0.2135  0.0074 -0.1333
   55CHL1   H25 5242   5.642   4.058   4.341  0.5155  1.0049  2.0665
   55CHL1   C26 5243   5.758   3.881   4.343  0.0828 -0.3944  0.3484
   55CHL1  H26A 5244   5.701   3.841   4.429 -0.0430  0.8812  0.8668
   55CHL1  H26B 5245   5.711   3.834   4.253  1.2711 -0.5684 -0.2019
   55CHL1  H26C 5246   5.859   3.834   4.344 -0.1466 -0.9458 -0.5233
   55CHL1   C27 5247   5.811   4.092   4.467 -0.2496 -0.2285 -0.5779
   55CHL1  H27A 5248   5.763   4.043   4.554  1.1034  1.4815  1.2305
   55CHL1  H27B 5249   5.920   4.078   4.482 -0.4173 -2.1895 -0.9821
   55CHL1  H27C 5250   5.771   4.194   4.484 -1.0789 -0.2012 -2.4593
   56CHL1    C3 5251   6.056   4.558   2.716 -0.3966 -0.2441 -0.4177
   56CHL1    H3 5252   6.060   4.447   2.723  1.4143 -0.5315 -3.8502
   56CHL1    O3 5253   6.056   4.579   2.575 -0.1792  0.2799  0.6668
   56CHL1   H3' 5254   6.012   4.504   2.535  2.0469 -0.3461 -0.8176
   56CHL1    C4 5255   5.939   4.629   2.780  0.2942 -0.4646 -1.2928
   56CHL1   H4A 5256   5.930   4.736   2.754 -1.6906  0.0242  1.0577
   56CHL1   H4B 5257   5.848   4.577   2.743 -1.5342  0.9416  0.9614
   56CHL1    C5 5258   5.929   4.611   2.930 -1.0767 -0.0769  0.4682
   56CHL1    C6 5259   5.826   4.558   2.996  0.0914 -0.4828 -0.5093
   56CHL1    H6 5260   5.735   4.525   2.944 -0.3924  0.7102 -0.4419
   56CHL1    C7 5261   5.818   4.549   3.145  0.3419 -0.7094 -0.4186
   56CHL1   H7A 5262   5.721   4.582   3.189  0.7119 -0.2694  0.0736
   56CHL1   H7B 5263   5.808   4.444   3.180 -1.9082 -0.1440  0.8096
   56CHL1    C8 5264   5.932   4.626   3.227  0.7047 -0.1711  0.7092
   56CHL1    H8 5265   5.903   4.733   3.226  1.5468  0.0856 -1.3910
   56CHL1   C14 5266   5.938   4.562   3.363  0.4771 -0.6575  0.0524
   56CHL1   H14 5267   5.953   4.453   3.349  2.2541 -0.4990  0.4889
   56CHL1   C15 5268   5.813   4.584   3.444  0.2703 -0.6256 -0.3510
   56CHL1  H15A 5269   5.782   4.689   3.424  1.4975 -0.4532 -1.5036
   56CHL1  H15B 5270   5.731   4.515   3.416 -0.7257  0.5394 -0.4216
   56CHL1   C16 5271   5.855   4.571   3.591 -0.5099  0.0766 -0.6134
   56CHL1  H16A 5272   5.836   4.661   3.653 -2.5495 -0.1836 -0.8072
   56CHL1  H16B 5273   5.804   4.484   3.638 -1.2018  0.8086 -0.0004
   56CHL1   C17 5274   6.015   4.552   3.582  0.5665 -0.5803 -0.1453
   56CHL1   H17 5275   6.034   4.444   3.561  2.9346 -0.7938  2.4401
   56CHL1   C13 5276   6.054   4.620   3.447  0.1316 -0.1757 -0.5322
   56CHL1   C18 5277   6.053   4.777   3.478 -0.3001 -0.7097  0.1054
   56CHL1  H18A 5278   6.137   4.792   3.549  0.9372 -0.9662 -1.2691
   56CHL1  H18B 5279   6.067   4.827   3.380  0.9432 -3.0571 -1.0092
   56CHL1  H18C 5280   5.961   4.814   3.529  0.9592 -0.0821  2.0456
   56CHL1   C12 5281   6.193   4.580   3.378  0.4486 -0.0486 -0.3008
   56CHL1  H12A 5282   6.280   4.624   3.432 -0.9560  1.8461  0.5426
   56CHL1  H12B 5283   6.203   4.470   3.381 -1.2950 -0.2169  1.6579
   56CHL1   C11 5284   6.197   4.636   3.230 -0.3864  0.0916  0.4570
   56CHL1  H11A 5285   6.216   4.745   3.232 -3.4323  0.7157  0.5542
   56CHL1  H11B 5286   6.278   4.580   3.179 -0.9043 -0.0262 -0.2555
   56CHL1    C9 5287   6.068   4.601   3.152  0.0974  0.6938 -0.1886
   56CHL1    H9 5288   6.082   4.493   3.131  0.3440  0.8916 -1.1153
   56CHL1   C10 5289   6.061   4.652   3.008 -0.1757 -0.4325  0.0524
   56CHL1   C19 5290   6.069   4.809   3.001 -0.2600 -0.5725 -0.0859
   56CHL1  H19A 5291   6.165   4.842   3.046 -1.3189  0.8718  1.2356
   56CHL1  H19B 5292   6.071   4.851   2.898 -2.2477  0.8445  0.3979
   56CHL1  H19C 5293   5.986   4.856   3.058  0.7349 -0.9761  1.7672
   56CHL1    C1 5294   6.179   4.584   2.922 -0.5724 -0.4574 -0.3999
   56CHL1   H1A 5295   6.277   4.619   2.962 -1.1099  3.1235 -1.8445
   56CHL1   H1B 5296   6.176   4.475   2.941  0.0947 -0.2835  0.8310
   56CHL1    C2 5297   6.183   4.606   2.775 -0.4064  0.3010  0.3861
   56CHL1   H2A 5298   6.270   4.556   2.729  0.1350  1.6538 -0.1222
   56CHL1   H2B 5299   6.181   4.714   2.747 -0.7308 -0.0473 -0.9900
   56CHL1   C20 5300   6.090   4.564   3.709 -0.0478 -0.6854 -0.2925
   56CHL1   H20 5301   6.198   4.564   3.683  0.2571 -3.5980  0.6844
   56CHL1   C21 5302   6.056   4.444   3.802  0.6458 -0.2328 -1.0592
   56CHL1  H21A 5303   6.110   4.354   3.766  0.6741 -0.1531 -1.2144
   56CHL1  H21B 5304   5.947   4.429   3.813  0.6166 -1.5332 -2.6732
   56CHL1  H21C 5305   6.092   4.464   3.905 -0.1841 -3.3667 -0.0368
   56CHL1   C22 5306   6.072   4.695   3.788 -0.0333  0.5458  0.4845
   56CHL1  H22A 5307   6.052   4.782   3.721  3.7956 -0.5686 -2.4280
   56CHL1  H22B 5308   5.979   4.686   3.849 -0.3450 -1.5689 -0.2111
   56CHL1   C23 5309   6.191   4.733   3.881  0.0844 -0.0019  0.2513
   56CHL1  H23A 5310   6.195   4.654   3.959 -1.5290 -0.2404  0.1116
   56CHL1  H23B 5311   6.276   4.715   3.811 -1.4656 -1.5868 -1.2966
   56CHL1   C24 5312   6.178   4.874   3.941 -0.3950  0.0722 -0.0234
   56CHL1  H24A 5313   6.189   4.954   3.865 -0.3868  0.6158  0.5387
   56CHL1  H24B 5314   6.087   4.894   4.002  0.2540  0.4549  0.8494
   56CHL1   C25 5315   6.286   4.898   4.043 -0.3921 -0.4214  0.0518
   56CHL1   H25 5316   6.277   5.003   4.077  0.0281 -0.6422  0.8876
   56CHL1   C26 5317   6.266   4.809   4.173  0.1696 -0.4656  0.6888
   56CHL1  H26A 5318   6.256   4.700   4.151 -0.6565 -0.2728  0.0669
   56CHL1  H26B 5319   6.353   4.825   4.240 -0.3579 -1.6313  1.7079
   56CHL1  H26C 5320   6.177   4.849   4.226 -0.5232  2.1238 -2.2024
   56CHL1   C27 5321   6.428   4.879   3.986 -0.6501 -0.2190 -0.1587
   56CHL1  H27A 5322   6.493   4.924   4.064 -1.7319  0.7724  0.2075
   56CHL1  H27B 5323   6.456   4.774   3.967 -3.0216 -1.3756  2.0960
   56CHL1  H27C 5324   6.447   4.945   3.898  1.4089  2.8010  2.3104
   57CHL1    C3 5325   5.891   2.984   2.941 -1.1530  0.1739 -0.5874
   57CHL1    H3 5326   5.988   2.934   2.921 -0.9855  0.9601 -1.9277
   57CHL1    O3 5327   5.828   2.992   2.821  0.2953 -0.1074  0.0905
   57CHL1   H3' 5328   5.758   3.053   2.845  0.8508  0.7408 -0.3610
   57CHL1    C4 5329   5.823   2.896   3.044 -0.0530 -0.3509 -0.0336
   57CHL1   H4A 5330   5.715   2.923   3.048 -0.2611 -1.0273 -0.8691
   57CHL1   H4B 5331   5.828   2.791   3.008  1.2742  0.4198 -2.3146
   57CHL1    C5 5332   5.870   2.904   3.185 -0.7056  0.7713 -0.3293
   57CHL1    C6 5333   5.916   2.793   3.256 -0.4054  0.4728  0.8062
   57CHL1    H6 5334   5.900   2.695   3.208 -3.1186  1.7445 -1.1284
   57CHL1    C7 5335   5.962   2.797   3.400  0.3615 -0.5600  0.1313
   57CHL1   H7A 5336   5.902   2.720   3.454 -2.6267  1.0411 -0.7102
   57CHL1   H7B 5337   6.070   2.780   3.419  0.8888  1.5986 -0.6874
   57CHL1    C8 5338   5.915   2.928   3.461  0.3761 -0.2652 -0.5349
   57CHL1    H8 5339   5.805   2.915   3.474  0.7054 -1.4079  1.5709
   57CHL1   C14 5340   5.969   2.939   3.599  0.4718 -0.2723  0.8598
   57CHL1   H14 5341   6.080   2.946   3.594  0.7155 -1.6631  2.9378
   57CHL1   C15 5342   5.945   2.827   3.700 -0.2729 -0.0205  0.4943
   57CHL1  H15A 5343   5.843   2.791   3.675 -0.2094  0.9253 -1.3484
   57CHL1  H15B 5344   6.020   2.746   3.684  0.6543  1.0095 -0.5640
   57CHL1   C16 5345   5.965   2.883   3.838 -0.4139 -0.7667 -0.2807
   57CHL1  H16A 5346   5.897   2.856   3.921  0.1089 -3.8032 -0.7214
   57CHL1  H16B 5347   6.067   2.858   3.874 -1.4072 -1.4184  2.2578
   57CHL1   C17 5348   5.962   3.034   3.814 -0.4390 -0.0748 -0.1077
   57CHL1   H17 5349   6.069   3.061   3.811 -0.8448  1.5964 -1.2537
   57CHL1   C13 5350   5.913   3.063   3.674 -0.4137  0.3461 -0.2593
   57CHL1   C18 5351   5.762   3.064   3.675 -0.0943 -0.7779  0.1249
   57CHL1  H18A 5352   5.712   3.077   3.577  1.4814 -0.1191 -0.6343
   57CHL1  H18B 5353   5.717   2.970   3.713 -3.1367  0.4754 -0.1068
   57CHL1  H18C 5354   5.725   3.158   3.722 -1.6348 -0.3830 -1.7393
   57CHL1   C12 5355   5.969   3.190   3.605  0.6034  0.2901 -0.0683
   57CHL1  H12A 5356   5.922   3.281   3.647 -0.1730  0.0119 -0.3241
   57CHL1  H12B 5357   6.080   3.191   3.607  0.6019 -0.1339  1.2661
   57CHL1   C11 5358   5.920   3.192   3.458  0.0006  0.3719  0.5731
   57CHL1  H11A 5359   5.815   3.227   3.450  0.0588  0.1172 -3.5545
   57CHL1  H11B 5360   5.977   3.268   3.400 -0.7762 -1.3700 -2.7257
   57CHL1    C9 5361   5.941   3.054   3.380  0.2337  0.3733 -0.3371
   57CHL1    H9 5362   6.051   3.058   3.366  0.3532  5.4284  0.0221
   57CHL1   C10 5363   5.877   3.044   3.237  0.3989 -0.2742 -1.0933
   57CHL1   C19 5364   5.737   3.118   3.244  0.2088  0.6472 -0.6472
   57CHL1  H19A 5365   5.674   3.092   3.156 -0.5509 -0.7346  0.2631
   57CHL1  H19B 5366   5.689   3.079   3.336  1.6434 -1.2923 -0.6766
   57CHL1  H19C 5367   5.752   3.228   3.243 -0.0265  0.7313  1.1754
   57CHL1    C1 5368   5.968   3.118   3.140 -0.4109  0.2742  0.2547
   57CHL1   H1A 5369   5.970   3.223   3.177  1.3002  0.3293  0.0536
   57CHL1   H1B 5370   6.066   3.066   3.146 -0.6552 -0.2063  0.1689
   57CHL1    C2 5371   5.917   3.126   2.997  0.1606  0.0519 -1.2053
   57CHL1   H2A 5372   5.990   3.161   2.920  1.3714 -3.0039 -1.6138
   57CHL1   H2B 5373   5.827   3.191   2.993 -0.9978 -1.4821 -0.8819
   57CHL1   C20 5374   5.918   3.129   3.930  0.3715  0.4008  0.2165
   57CHL1   H20 5375   5.874   3.218   3.881 -1.9421 -1.4201 -1.2396
   57CHL1   C21 5376   6.042   3.162   4.017 -0.2812  0.0030 -0.2958
   57CHL1  H21A 5377   6.114   3.223   3.959 -0.0900  0.1486  0.0849
   57CHL1  H21B 5378   6.088   3.067   4.053  2.5011  1.3745  0.0185
   57CHL1  H21C 5379   6.030   3.229   4.105 -0.8917  1.1663 -1.2526
   57CHL1   C22 5380   5.797   3.076   4.015  0.5013 -0.4521  0.1802
   57CHL1  H22A 5381   5.714   3.034   3.955  1.4399 -1.0355 -0.7486
   57CHL1  H22B 5382   5.842   2.993   4.074 -0.7369 -0.8993  0.5211
   57CHL1   C23 5383   5.739   3.177   4.121 -0.3159  0.2103  0.2966
   57CHL1  H23A 5384   5.832   3.214   4.169 -0.5702 -0.2584  1.1727
   57CHL1  H23B 5385   5.682   3.260   4.075 -0.9771 -1.0784 -1.3134
   57CHL1   C24 5386   5.659   3.105   4.220 -0.2760 -0.2051 -0.2669
   57CHL1  H24A 5387   5.579   3.058   4.159 -0.2492 -3.0547  1.7152
   57CHL1  H24B 5388   5.710   3.020   4.271 -0.4615 -0.3076 -0.2503
   57CHL1   C25 5389   5.596   3.180   4.339 -0.5947 -0.1214 -0.2734
   57CHL1   H25 5390   5.531   3.109   4.394 -2.1498  0.7949 -0.8526
   57CHL1   C26 5391   5.714   3.215   4.442 -0.2146  0.2440  0.5556
   57CHL1  H26A 5392   5.723   3.133   4.518  0.4809  0.7478  1.0335
   57CHL1  H26B 5393   5.810   3.222   4.387 -1.2227  2.2249 -1.0447
   57CHL1  H26C 5394   5.691   3.306   4.501  1.8950  1.0848  0.1688
   57CHL1   C27 5395   5.507   3.296   4.313 -0.9408 -0.3698 -0.4618
   57CHL1  H27A 5396   5.448   3.317   4.405  0.4355  0.1224  0.3329
   57CHL1  H27B 5397   5.564   3.389   4.292 -0.7848 -0.0820  1.1430
   57CHL1  H27C 5398   5.432   3.285   4.231 -0.8585  1.3284 -0.7937
   58CHL1    C3 5399   6.679   4.234   2.835 -0.4213  0.0210 -0.3928
   58CHL1    H3 5400   6.781   4.193   2.850 -0.4727  0.1164  0.2446
   58CHL1    O3 5401   6.655   4.244   2.698 -0.0809  0.4296  0.5226
   58CHL1   H3' 5402   6.689   4.167   2.653 -0.5318  0.9201 -0.6898
   58CHL1    C4 5403   6.569   4.152   2.904  0.1804  0.6425 -0.4945
   58CHL1   H4A 5404   6.472   4.189   2.864 -1.0554  0.5701  2.2556
   58CHL1   H4B 5405   6.566   4.047   2.868 -2.7912 -0.4190  2.3874
   58CHL1    C5 5406   6.586   4.168   3.056  0.2372  0.3347 -0.1796
   58CHL1    C6 5407   6.616   4.059   3.125  0.1562 -0.2347  0.5933
   58CHL1    H6 5408   6.636   3.967   3.068  1.7783  0.3108  0.1967
   58CHL1    C7 5409   6.631   4.055   3.278 -0.1427 -0.1759  0.0330
   58CHL1   H7A 5410   6.593   3.956   3.313 -1.4243 -0.7123 -2.6136
   58CHL1   H7B 5411   6.740   4.050   3.298 -0.3161 -2.0963  0.6516
   58CHL1    C8 5412   6.561   4.175   3.343 -0.1086 -0.5804 -0.1033
   58CHL1    H8 5413   6.450   4.172   3.332 -0.2299  0.3892  0.6708
   58CHL1   C14 5414   6.592   4.189   3.492 -0.2306  0.2879 -0.7992
   58CHL1   H14 5415   6.700   4.217   3.488  0.1416 -1.1297 -1.5860
   58CHL1   C15 5416   6.575   4.067   3.580  0.1034  0.3166  0.2960
   58CHL1  H15A 5417   6.472   4.026   3.568  0.6959 -1.3213  0.4851
   58CHL1  H15B 5418   6.651   3.988   3.558  1.3945  1.4992  0.3744
   58CHL1   C16 5419   6.590   4.121   3.722 -0.4218 -0.8468  0.1186
   58CHL1  H16A 5420   6.495   4.096   3.774 -2.9048  0.8308 -3.2127
   58CHL1  H16B 5421   6.677   4.082   3.778 -0.4578  0.8057  1.4346
   58CHL1   C17 5422   6.594   4.279   3.707  0.1207 -0.5022  0.3569
   58CHL1   H17 5423   6.699   4.314   3.700  1.0708 -2.7653  1.9518
   58CHL1   C13 5424   6.529   4.310   3.570 -0.7049 -0.3478  0.3433
   58CHL1   C18 5425   6.375   4.297   3.580 -0.1998  0.0154  0.8141
   58CHL1  H18A 5426   6.340   4.302   3.475  2.0208  1.5873  0.0699
   58CHL1  H18B 5427   6.337   4.202   3.623 -0.1217  0.1023  1.0746
   58CHL1  H18C 5428   6.331   4.376   3.646  1.8803  2.0774 -0.1037
   58CHL1   C12 5429   6.571   4.433   3.493 -0.8166  0.0300 -0.1406
   58CHL1  H12A 5430   6.504   4.517   3.519 -3.1184 -1.1708 -1.7484
   58CHL1  H12B 5431   6.674   4.461   3.523  0.2203 -3.4277  0.0167
   58CHL1   C11 5432   6.541   4.425   3.342  0.1229 -0.6582 -0.2106
   58CHL1  H11A 5433   6.430   4.429   3.331  0.1643 -0.7300 -0.7090
   58CHL1  H11B 5434   6.574   4.521   3.296 -0.5164  0.4113  1.4925
   58CHL1    C9 5435   6.600   4.308   3.265 -0.9232  0.0152  0.1387
   58CHL1    H9 5436   6.709   4.310   3.283 -1.1869  1.5395  1.8626
   58CHL1   C10 5437   6.579   4.310   3.116 -0.0261 -0.1862 -0.1338
   58CHL1   C19 5438   6.437   4.359   3.077 -0.0969 -0.1594  0.1916
   58CHL1  H19A 5439   6.421   4.362   2.968  0.6782  0.3515  0.0806
   58CHL1  H19B 5440   6.361   4.295   3.127 -1.6139  1.1349 -0.4184
   58CHL1  H19C 5441   6.426   4.464   3.109 -0.0184 -0.1503  0.1898
   58CHL1    C1 5442   6.686   4.392   3.048 -0.2268 -0.3868 -0.6382
   58CHL1   H1A 5443   6.665   4.497   3.078 -1.5182 -0.2442 -1.9732
   58CHL1   H1B 5444   6.791   4.384   3.084  0.3334 -2.7700 -2.5193
   58CHL1    C2 5445   6.679   4.382   2.893 -0.3840 -0.5388 -0.2286
   58CHL1   H2A 5446   6.764   4.441   2.852 -1.5364  0.5387 -1.1442
   58CHL1   H2B 5447   6.591   4.439   2.858  2.0541  1.7882 -3.1931
   58CHL1   C20 5448   6.526   4.349   3.831  0.6809 -0.2404  0.4392
   58CHL1   H20 5449   6.417   4.328   3.837  0.6919 -0.8977 -1.2698
   58CHL1   C21 5450   6.537   4.506   3.810  0.2773  0.4802 -0.9352
   58CHL1  H21A 5451   6.645   4.527   3.801  0.4873 -0.5252 -0.9520
   58CHL1  H21B 5452   6.495   4.552   3.902 -2.8699 -0.7452 -1.6202
   58CHL1  H21C 5453   6.496   4.551   3.718  2.1845  0.6213 -1.7448
   58CHL1   C22 5454   6.595   4.305   3.963 -0.4797  0.0213  0.2222
   58CHL1  H22A 5455   6.582   4.196   3.984  0.5365  0.2352  2.3122
   58CHL1  H22B 5456   6.703   4.330   3.971 -0.4901 -0.2375  1.4224
   58CHL1   C23 5457   6.523   4.377   4.084 -0.0291  0.0871 -0.0773
   58CHL1  H23A 5458   6.567   4.479   4.079  1.3273 -0.4977 -0.8316
   58CHL1  H23B 5459   6.413   4.385   4.073  0.1800  1.1471 -1.8347
   58CHL1   C24 5460   6.572   4.316   4.208 -0.3969 -0.1614  0.1386
   58CHL1  H24A 5461   6.522   4.219   4.230 -2.0542 -0.0209 -2.6798
   58CHL1  H24B 5462   6.678   4.288   4.190 -1.3392 -2.6493 -2.2450
   58CHL1   C25 5463   6.560   4.417   4.324 -0.0930  0.2941 -0.4975
   58CHL1   H25 5464   6.599   4.366   4.415 -1.1615  0.2074 -0.0753
   58CHL1   C26 5465   6.653   4.546   4.308 -0.3577  0.8664 -0.5399
   58CHL1  H26A 5466   6.754   4.501   4.294 -0.5156  0.4414 -0.3181
   58CHL1  H26B 5467   6.625   4.613   4.224 -0.8986  1.0423 -0.2221
   58CHL1  H26C 5468   6.649   4.604   4.402  2.3831 -0.0298  0.2368
   58CHL1   C27 5469   6.416   4.456   4.351 -0.2131 -0.5342  0.1618
   58CHL1  H27A 5470   6.389   4.512   4.259  0.3079  1.8484  1.3940
   58CHL1  H27B 5471   6.355   4.363   4.355  0.2106 -0.8799 -0.7752
   58CHL1  H27C 5472   6.421   4.517   4.443 -0.1803  0.5779 -0.5590
   59CHL1    C3 5473   3.711   4.874   2.614 -0.1413 -0.5667  0.0658
   59CHL1    H3 5474   3.779   4.788   2.632 -0.8721 -0.7776  2.1303
   59CHL1    O3 5475   3.710   4.894   2.473 -0.3009 -0.6120 -0.0615
   59CHL1   H3' 5476   3.797   4.929   2.456 -0.4740 -0.9381 -1.7853
   59CHL1    C4 5477   3.572   4.847   2.669  0.3730  0.4872 -0.7228
   59CHL1   H4A 5478   3.493   4.923   2.647  0.0997  0.2412 -0.5983
   59CHL1   H4B 5479   3.527   4.759   2.618 -0.1014  1.0947 -1.3732
   59CHL1    C5 5480   3.565   4.831   2.816 -0.0789 -0.6046  0.1405
   59CHL1    C6 5481   3.515   4.727   2.875 -0.8308  0.0562 -0.8261
   59CHL1    H6 5482   3.472   4.640   2.824 -0.4584 -0.5988 -0.0383
   59CHL1    C7 5483   3.510   4.701   3.026  0.3541  0.0810 -0.4611
   59CHL1   H7A 5484   3.413   4.661   3.064  1.4000  0.2821  2.7808
   59CHL1   H7B 5485   3.582   4.619   3.049 -1.7904 -1.8431 -0.3285
   59CHL1    C8 5486   3.543   4.827   3.106 -0.4182  0.6031 -0.4467
   59CHL1    H8 5487   3.447   4.882   3.109 -0.4927  0.4442  0.1781
   59CHL1   C14 5488   3.592   4.777   3.248 -0.4388  0.5039  0.2255
   59CHL1   H14 5489   3.686   4.718   3.239  0.2131  0.4811  4.9292
   59CHL1   C15 5490   3.501   4.681   3.322 -0.0903  0.2345  0.1365
   59CHL1  H15A 5491   3.399   4.726   3.318 -0.1996  0.0558  0.7463
   59CHL1  H15B 5492   3.488   4.583   3.272 -0.7386 -0.0868  0.9115
   59CHL1   C16 5493   3.551   4.687   3.469  0.7703 -0.1580  0.8044
   59CHL1  H16A 5494   3.462   4.705   3.533  3.1718  0.4447  4.2135
   59CHL1  H16B 5495   3.596   4.595   3.511 -1.1085 -1.2717  0.5142
   59CHL1   C17 5496   3.661   4.799   3.460 -0.3687 -0.6317 -0.2488
   59CHL1   H17 5497   3.758   4.747   3.441 -0.8037 -2.5451  2.2712
   59CHL1   C13 5498   3.627   4.884   3.339  0.5713  0.1195 -0.1574
   59CHL1   C18 5499   3.501   4.967   3.374  0.5331 -0.0646 -0.1915
   59CHL1  H18A 5500   3.459   5.016   3.283  1.8026  4.4519  1.3593
   59CHL1  H18B 5501   3.423   4.912   3.430  0.3602 -0.6602 -0.9930
   59CHL1  H18C 5502   3.538   5.051   3.437  1.7168 -0.6146 -0.1234
   59CHL1   C12 5503   3.736   4.978   3.284  0.9082  0.2959 -0.1844
   59CHL1  H12A 5504   3.746   5.067   3.349  0.5323  0.1470  0.0820
   59CHL1  H12B 5505   3.834   4.926   3.293  0.7445  0.1386  0.7152
   59CHL1   C11 5506   3.698   5.029   3.144 -0.1559 -0.3745 -0.2691
   59CHL1  H11A 5507   3.611   5.098   3.153 -0.1091 -0.3517  0.0322
   59CHL1  H11B 5508   3.784   5.092   3.112 -0.2816  1.1837  2.1634
   59CHL1    C9 5509   3.655   4.909   3.048 -0.1197  0.7024  0.1082
   59CHL1    H9 5510   3.737   4.835   3.058 -0.3380  0.2443 -1.2227
   59CHL1   C10 5511   3.636   4.948   2.898  0.5151  0.2917 -0.1655
   59CHL1   C19 5512   3.539   5.070   2.897 -0.9141  0.3125 -0.1859
   59CHL1  H19A 5513   3.532   5.124   2.800 -1.7856 -0.0546 -0.3442
   59CHL1  H19B 5514   3.431   5.049   2.916 -0.8954  0.2147 -0.1888
   59CHL1  H19C 5515   3.576   5.152   2.962  1.3342 -1.1815  0.5308
   59CHL1    C1 5516   3.770   4.984   2.834 -0.0757 -0.3286  0.0790
   59CHL1   H1A 5517   3.811   5.076   2.880  0.9370 -0.7226 -0.0125
   59CHL1   H1B 5518   3.847   4.909   2.861 -1.3919 -1.4769  0.7989
   59CHL1    C2 5519   3.758   5.003   2.679 -0.5481 -0.4871 -0.3805
   59CHL1   H2A 5520   3.857   5.025   2.634  0.8472 -2.7164  1.3990
   59CHL1   H2B 5521   3.683   5.084   2.667 -0.7472 -0.8692 -1.9316
   59CHL1   C20 5522   3.686   4.865   3.599  0.4829  0.0680 -0.0114
   59CHL1   H20 5523   3.617   4.952   3.606  1.0934  1.0331 -3.8251
   59CHL1   C21 5524   3.827   4.911   3.601 -0.4189 -0.0796  0.5153
   59CHL1  H21A 5525   3.864   4.951   3.504  1.3547 -0.5690  0.9517
   59CHL1  H21B 5526   3.891   4.820   3.601  0.1429 -0.2634 -6.4478
   59CHL1  H21C 5527   3.842   4.982   3.685  1.9248  0.7600 -0.5376
   59CHL1   C22 5528   3.651   4.778   3.725 -0.5456 -0.3102 -0.6935
   59CHL1  H22A 5529   3.543   4.757   3.717 -0.5548 -0.9253  0.7178
   59CHL1  H22B 5530   3.705   4.681   3.714  0.5134  0.4515 -2.6477
   59CHL1   C23 5531   3.661   4.844   3.863  0.4583 -1.0870  0.1566
   59CHL1  H23A 5532   3.646   4.765   3.939  3.6089 -0.8163  1.1889
   59CHL1  H23B 5533   3.759   4.886   3.893 -0.4303  1.6985 -0.4709
   59CHL1   C24 5534   3.551   4.957   3.869 -0.4142  0.1167 -0.0212
   59CHL1  H24A 5535   3.558   5.021   3.778  2.5452 -1.3321 -0.9798
   59CHL1  H24B 5536   3.450   4.914   3.853  0.0284 -1.2549  0.7053
   59CHL1   C25 5537   3.548   5.040   4.003 -0.1868  0.6247 -0.2020
   59CHL1   H25 5538   3.651   5.047   4.044  0.2367 -1.0110 -0.9352
   59CHL1   C26 5539   3.498   5.179   3.973 -0.1558  0.6515  0.9371
   59CHL1  H26A 5540   3.557   5.232   3.894  2.2782  1.0835  2.9143
   59CHL1  H26B 5541   3.400   5.171   3.922 -0.4599 -0.0595  1.6189
   59CHL1  H26C 5542   3.504   5.245   4.062  0.9760 -0.2339  1.5330
   59CHL1   C27 5543   3.462   4.976   4.118  0.0564 -0.4452  0.5989
   59CHL1  H27A 5544   3.428   5.057   4.187 -0.6945  1.6397 -2.0793
   59CHL1  H27B 5545   3.365   4.941   4.077  0.5584 -0.4685 -0.5948
   59CHL1  H27C 5546   3.515   4.882   4.146 -2.0324 -2.3989 -1.6155
   60CHL1    C3 5547   0.444   1.798   2.687 -0.4647 -0.4138 -0.0133
   60CHL1    H3 5548   0.386   1.722   2.744 -0.9010  0.3114  0.5348
   60CHL1    O3 5549   0.402   1.810   2.556 -0.1413 -0.3615  0.0362
   60CHL1   H3' 5550   0.474   1.857   2.513 -1.3818  1.4400 -0.1760
   60CHL1    C4 5551   0.431   1.927   2.764  0.0530  0.7031 -0.4184
   60CHL1   H4A 5552   0.489   2.005   2.709  0.1007  2.0544  1.4294
   60CHL1   H4B 5553   0.327   1.964   2.753  0.5082  1.2214 -4.3603
   60CHL1    C5 5554   0.469   1.918   2.911 -1.4967  0.4056  0.8008
   60CHL1    C6 5555   0.386   1.962   3.005 -0.3543  0.9319  0.0517
   60CHL1    H6 5556   0.282   1.996   2.988 -0.5885  1.6388  2.4796
   60CHL1    C7 5557   0.424   1.952   3.150  0.5106  0.0191 -0.6837
   60CHL1   H7A 5558   0.391   2.045   3.201  1.5607 -1.1270  2.3372
   60CHL1   H7B 5559   0.353   1.877   3.191  0.3361 -1.1128 -2.9143
   60CHL1    C8 5560   0.568   1.909   3.177 -0.3566 -0.4412 -0.5457
   60CHL1    H8 5561   0.635   1.998   3.168  0.7595 -1.2774 -0.6960
   60CHL1   C14 5562   0.574   1.859   3.325  0.3474 -0.3471  0.1761
   60CHL1   H14 5563   0.512   1.767   3.335  2.6603 -2.2645 -1.9364
   60CHL1   C15 5564   0.526   1.961   3.439 -0.4612 -0.1843 -0.0786
   60CHL1  H15A 5565   0.575   2.061   3.431  3.0070 -1.6179  1.3328
   60CHL1  H15B 5566   0.416   1.959   3.452 -0.4613  1.5554  0.4725
   60CHL1   C16 5567   0.599   1.906   3.562 -0.3697  0.5077 -1.4144
   60CHL1  H16A 5568   0.663   1.985   3.606 -1.9397  0.7939  0.5442
   60CHL1  H16B 5569   0.521   1.873   3.634  1.7450 -2.3854 -0.2334
   60CHL1   C17 5570   0.694   1.792   3.516  0.0484 -0.0134  0.5485
   60CHL1   H17 5571   0.636   1.697   3.520 -0.8666  0.4387 -0.9888
   60CHL1   C13 5572   0.716   1.822   3.365  0.0867  0.2705  0.4735
   60CHL1   C18 5573   0.820   1.933   3.361 -0.5986  0.0590  0.0356
   60CHL1  H18A 5574   0.823   1.971   3.256 -2.1854  1.1280  0.3406
   60CHL1  H18B 5575   0.802   2.016   3.433  1.9445  0.1953  0.6079
   60CHL1  H18C 5576   0.919   1.889   3.385 -0.8126 -1.2215 -1.3357
   60CHL1   C12 5577   0.761   1.711   3.267  0.1985  0.9148 -1.2779
   60CHL1  H12A 5578   0.867   1.678   3.279 -0.2420  0.1686  1.1095
   60CHL1  H12B 5579   0.711   1.616   3.295  2.2511 -0.5711 -2.4039
   60CHL1   C11 5580   0.756   1.742   3.115  0.3780 -0.0112  0.2076
   60CHL1  H11A 5581   0.837   1.813   3.086  0.0121  0.9087  1.3666
   60CHL1  H11B 5582   0.779   1.651   3.055  3.2629  1.7274 -1.6180
   60CHL1    C9 5583   0.617   1.802   3.076  0.6489 -0.4875  0.0153
   60CHL1    H9 5584   0.544   1.718   3.085  0.5508 -0.5221 -0.9355
   60CHL1   C10 5585   0.608   1.855   2.924 -0.4163 -0.1449 -0.8464
   60CHL1   C19 5586   0.697   1.976   2.904 -0.0239  0.0680 -0.2420
   60CHL1  H19A 5587   0.672   2.072   2.953  1.6588 -0.0823  0.9983
   60CHL1  H19B 5588   0.803   1.946   2.922 -0.1642 -0.4771 -0.3029
   60CHL1  H19C 5589   0.705   1.995   2.795  2.7473 -1.1056 -0.3270
   60CHL1    C1 5590   0.650   1.737   2.827 -0.0462  0.4088  0.6420
   60CHL1   H1A 5591   0.761   1.747   2.822 -0.0867  0.2575 -1.8057
   60CHL1   H1B 5592   0.624   1.638   2.869 -0.4005  0.0556 -0.3820
   60CHL1    C2 5593   0.587   1.758   2.685  0.6368 -0.2434  0.5440
   60CHL1   H2A 5594   0.609   1.668   2.624 -1.1159  0.8075 -1.7762
   60CHL1   H2B 5595   0.653   1.833   2.636 -0.1285  0.0170 -0.1042
   60CHL1   C20 5596   0.808   1.775   3.616 -0.4219 -0.5131  0.1866
   60CHL1   H20 5597   0.878   1.859   3.595 -0.5778 -0.5077 -0.3444
   60CHL1   C21 5598   0.878   1.642   3.588 -1.3232 -0.1740 -0.2556
   60CHL1  H21A 5599   0.800   1.565   3.606 -1.0560 -0.1269  1.2126
   60CHL1  H21B 5600   0.957   1.614   3.662 -1.4710 -2.6875 -0.9634
   60CHL1  H21C 5601   0.918   1.645   3.484  1.2205  2.4749  0.6575
   60CHL1   C22 5602   0.761   1.788   3.762  0.5124 -0.7029  0.6411
   60CHL1  H22A 5603   0.728   1.892   3.781  0.9156 -0.6840  1.2674
   60CHL1  H22B 5604   0.673   1.721   3.773 -0.0772 -0.5660 -2.3415
   60CHL1   C23 5605   0.865   1.772   3.873  0.4151 -0.1189 -0.6818
   60CHL1  H23A 5606   0.895   1.665   3.880  0.3087 -0.3179 -2.6676
   60CHL1  H23B 5607   0.946   1.846   3.857 -0.3356  0.4755 -1.9177
   60CHL1   C24 5608   0.800   1.805   4.015  0.1696 -0.2812 -0.0543
   60CHL1  H24A 5609   0.769   1.911   4.007  0.0159 -0.4646 -2.8750
   60CHL1  H24B 5610   0.710   1.739   4.013 -0.2213  0.2273  0.3202
   60CHL1   C25 5611   0.889   1.768   4.125  0.0955 -0.1797 -0.7805
   60CHL1   H25 5612   0.950   1.677   4.104  0.0308 -0.2907 -0.4979
   60CHL1   C26 5613   0.990   1.883   4.151  0.1081 -0.1507  0.0324
   60CHL1  H26A 5614   1.064   1.854   4.229 -0.9100 -3.3406 -0.0462
   60CHL1  H26B 5615   1.058   1.906   4.066  2.4315  1.2641  2.1230
   60CHL1  H26C 5616   0.939   1.971   4.196 -0.4367 -0.1508 -0.5724
   60CHL1   C27 5617   0.805   1.735   4.255  0.3962  0.0147  1.1628
   60CHL1  H27A 5618   0.724   1.660   4.241 -0.1688  1.0289 -1.4493
   60CHL1  H27B 5619   0.859   1.716   4.351 -0.2863  1.7681  1.9555
   60CHL1  H27C 5620   0.748   1.826   4.282  0.7818  0.9551 -0.9849
   61CHL1    C3 5621   0.313   5.608   2.769  0.7975  0.2808  0.9029
   61CHL1    H3 5622   0.221   5.549   2.791 -0.8204  1.8988 -1.0689
   61CHL1    O3 5623   0.366   5.593   2.638  0.3512  0.5309  0.3975
   61CHL1   H3' 5624   0.432   5.524   2.643  0.4593  0.6090  0.0737
   61CHL1    C4 5625   0.276   5.756   2.792 -0.3390 -0.1533  0.2166
   61CHL1   H4A 5626   0.352   5.820   2.741  0.0277 -0.3508  0.5173
   61CHL1   H4B 5627   0.183   5.770   2.732 -0.6737 -0.6821  0.6097
   61CHL1    C5 5628   0.267   5.802   2.936  0.0975 -0.3255 -0.5569
   61CHL1    C6 5629   0.159   5.873   2.974 -0.3083 -0.2197 -0.3544
   61CHL1    H6 5630   0.082   5.896   2.899 -1.5520 -0.8477  0.6928
   61CHL1    C7 5631   0.134   5.919   3.117 -0.2054  0.3608 -0.4285
   61CHL1   H7A 5632   0.089   6.021   3.120 -3.1054 -0.7677 -1.7509
   61CHL1   H7B 5633   0.051   5.858   3.158 -0.1788 -0.0012 -0.8932
   61CHL1    C8 5634   0.259   5.904   3.211  0.1253  0.8324  0.0619
   61CHL1    H8 5635   0.329   5.985   3.181  1.9447 -1.2107 -1.5658
   61CHL1   C14 5636   0.208   5.901   3.357 -0.2063  0.2147  0.1055
   61CHL1   H14 5637   0.155   5.805   3.373 -0.1555  0.3475  1.1607
   61CHL1   C15 5638   0.101   6.002   3.396 -0.8047  0.9994 -0.7977
   61CHL1  H15A 5639   0.134   6.091   3.339  2.7800 -0.1360 -0.7660
   61CHL1  H15B 5640   0.006   5.962   3.355  0.6645 -2.1835 -1.3871
   61CHL1   C16 5641   0.117   6.016   3.555  0.2190  0.5025 -0.4309
   61CHL1  H16A 5642   0.150   6.119   3.580  0.9069  0.6027 -1.6710
   61CHL1  H16B 5643   0.021   5.988   3.601  1.5306 -0.5432  1.8471
   61CHL1   C17 5644   0.224   5.908   3.594 -0.3693  0.7037 -1.0384
   61CHL1   H17 5645   0.166   5.813   3.598  2.2703 -1.1013 -2.4929
   61CHL1   C13 5646   0.314   5.906   3.463 -0.6278  0.1962  0.2023
   61CHL1   C18 5647   0.387   6.040   3.448  0.0578 -0.4259 -0.2504
   61CHL1  H18A 5648   0.460   6.050   3.531 -0.1821  2.6403 -0.3112
   61CHL1  H18B 5649   0.456   6.050   3.361  4.1898  0.8291  2.8712
   61CHL1  H18C 5650   0.316   6.126   3.456 -0.6993 -1.1883  1.8080
   61CHL1   C12 5651   0.409   5.785   3.438 -0.1813  0.3634 -0.7716
   61CHL1  H12A 5652   0.503   5.811   3.491 -0.5396  1.0562 -0.4691
   61CHL1  H12B 5653   0.357   5.700   3.486  0.7586  1.3745  2.2441
   61CHL1   C11 5654   0.446   5.754   3.283 -0.1400 -0.4741 -0.2063
   61CHL1  H11A 5655   0.526   5.828   3.262 -1.4406  1.1042  0.2424
   61CHL1  H11B 5656   0.475   5.646   3.283 -2.7061 -1.3249  2.7274
   61CHL1    C9 5657   0.329   5.772   3.184  0.8633 -0.2958 -0.0988
   61CHL1    H9 5658   0.256   5.691   3.205 -1.2749  0.5483 -3.5133
   61CHL1   C10 5659   0.374   5.750   3.036  0.1171 -0.0321 -0.0366
   61CHL1   C19 5660   0.495   5.838   3.001  0.1476 -0.4820  0.0616
   61CHL1  H19A 5661   0.575   5.836   3.078 -2.1187  1.9362  2.7147
   61CHL1  H19B 5662   0.541   5.813   2.903  0.6062  0.4058  0.0421
   61CHL1  H19C 5663   0.469   5.946   3.001 -1.5795 -0.8164  2.4005
   61CHL1    C1 5664   0.409   5.600   3.011  0.6919 -0.0853  0.0579
   61CHL1   H1A 5665   0.496   5.572   3.075 -0.5072 -1.3760  1.1712
   61CHL1   H1B 5666   0.326   5.537   3.049 -0.0512  0.7928 -0.0530
   61CHL1    C2 5667   0.429   5.565   2.867  0.4486 -0.4416  0.4041
   61CHL1   H2A 5668   0.441   5.455   2.852 -1.6513 -0.7787  0.9547
   61CHL1   H2B 5669   0.523   5.610   2.828  0.3665 -0.4433  0.2019
   61CHL1   C20 5670   0.296   5.921   3.728  0.1054  0.1269 -0.8300
   61CHL1   H20 5671   0.357   6.012   3.712 -1.7838  1.0578 -3.2975
   61CHL1   C21 5672   0.391   5.801   3.755 -0.3445 -0.8734 -0.0150
   61CHL1  H21A 5673   0.359   5.716   3.691 -0.7637 -0.0804 -0.8840
   61CHL1  H21B 5674   0.388   5.766   3.860 -2.6584  1.9680  1.0149
   61CHL1  H21C 5675   0.493   5.839   3.737  0.2593 -1.0546  2.6496
   61CHL1   C22 5676   0.200   5.938   3.849 -0.1092 -0.2100  0.3304
   61CHL1  H22A 5677   0.270   5.939   3.936  1.9680  0.5559 -1.2738
   61CHL1  H22B 5678   0.146   6.035   3.842 -1.2040 -0.6512  2.0235
   61CHL1   C23 5679   0.088   5.832   3.862  0.5480  0.4907  0.2483
   61CHL1  H23A 5680   0.031   5.834   3.767  0.8037 -0.5063  0.0520
   61CHL1  H23B 5681   0.121   5.726   3.873  0.1206  0.4527  1.3806
   61CHL1   C24 5682  -0.006   5.865   3.982 -0.7923 -0.6918  0.5725
   61CHL1  H24A 5683   0.050   5.861   4.078  0.6773  0.9455 -0.1563
   61CHL1  H24B 5684  -0.027   5.974   3.978 -2.9772 -1.0692  0.5343
   61CHL1   C25 5685  -0.134   5.790   3.989  0.3163  0.9106 -0.0348
   61CHL1   H25 5686  -0.112   5.681   3.992  0.1808  0.8625 -0.6859
   61CHL1   C26 5687  -0.216   5.826   4.112  0.0271 -0.0796 -0.5654
   61CHL1  H26A 5688  -0.301   5.754   4.115  0.6576 -0.8504 -0.7761
   61CHL1  H26B 5689  -0.158   5.817   4.206  1.5738  2.1943 -1.2257
   61CHL1  H26C 5690  -0.245   5.933   4.116 -2.0986 -0.6148 -0.5138
   61CHL1   C27 5691  -0.219   5.816   3.864 -0.2894  0.4700 -0.1803
   61CHL1  H27A 5692  -0.256   5.920   3.853 -1.8033  0.1679  1.7260
   61CHL1  H27B 5693  -0.157   5.784   3.777 -1.3011  0.3349 -0.8773
   61CHL1  H27C 5694  -0.301   5.741   3.857  1.1188 -1.1114 -0.3078
   62CHL1    C3 5695   3.945   5.469   2.996  0.4563  0.4700  1.2662
   62CHL1    H3 5696   4.021   5.392   3.019 -0.7245 -1.5670 -1.2058
   62CHL1    O3 5697   3.920   5.477   2.851  0.1959  0.4918 -0.4241
   62CHL1   H3' 5698   4.009   5.483   2.815 -0.2229 -0.6090 -1.7332
   62CHL1    C4 5699   3.812   5.433   3.070 -0.0054  0.0140 -0.2438
   62CHL1   H4A 5700   3.731   5.496   3.029 -1.0706 -0.7738  0.6049
   62CHL1   H4B 5701   3.791   5.328   3.038  0.3184  0.6041 -2.5087
   62CHL1    C5 5702   3.828   5.442   3.221  0.1064  0.2988 -0.5487
   62CHL1    C6 5703   3.795   5.338   3.298 -0.0799 -0.6172  0.3175
   62CHL1    H6 5704   3.740   5.253   3.255  0.8880 -1.1931  0.1897
   62CHL1    C7 5705   3.802   5.340   3.447 -0.3367  0.7751  0.3476
   62CHL1   H7A 5706   3.705   5.311   3.492 -0.0936  1.3813  1.2931
   62CHL1   H7B 5707   3.885   5.275   3.481 -2.1760 -0.6848  2.2953
   62CHL1    C8 5708   3.821   5.482   3.507  0.1232  0.3428  0.3603
   62CHL1    H8 5709   3.723   5.531   3.488  0.1654 -0.1258 -1.2280
   62CHL1   C14 5710   3.843   5.481   3.659 -0.4684 -0.8977  0.0728
   62CHL1   H14 5711   3.938   5.426   3.671  0.1238 -0.7490 -3.0611
   62CHL1   C15 5712   3.732   5.419   3.748 -0.3650  0.0152 -0.4850
   62CHL1  H15A 5713   3.635   5.450   3.704 -0.0083  1.7946 -0.1035
   62CHL1  H15B 5714   3.728   5.308   3.742 -1.0341  0.0889 -2.0363
   62CHL1   C16 5715   3.747   5.479   3.892 -0.4993  0.0724  0.9036
   62CHL1  H16A 5716   3.655   5.531   3.925  0.2742  0.3004  2.8470
   62CHL1  H16B 5717   3.769   5.405   3.972 -0.2102 -2.2308 -1.1760
   62CHL1   C17 5718   3.864   5.584   3.875 -0.6619 -0.5325  0.4101
   62CHL1   H17 5719   3.959   5.527   3.886 -0.8466 -0.7917  0.6829
   62CHL1   C13 5720   3.858   5.626   3.717 -0.1388  0.1267 -0.1816
   62CHL1   C18 5721   3.736   5.723   3.701  0.4953 -0.8263  0.9499
   62CHL1  H18A 5722   3.656   5.687   3.769  1.8966 -1.5490  2.3080
   62CHL1  H18B 5723   3.777   5.817   3.745  0.0031  0.2543 -0.8147
   62CHL1  H18C 5724   3.704   5.740   3.596  1.8224  1.0086  0.7880
   62CHL1   C12 5725   3.984   5.685   3.660  0.7103 -0.2332  0.8255
   62CHL1  H12A 5726   3.992   5.794   3.680  1.7190 -0.0433 -0.4501
   62CHL1  H12B 5727   4.074   5.625   3.687  1.1413  0.5201  1.0838
   62CHL1   C11 5728   3.958   5.690   3.496 -0.6198  0.5470 -1.0084
   62CHL1  H11A 5729   3.880   5.768   3.481 -1.8065 -0.5663 -0.8757
   62CHL1  H11B 5730   4.057   5.721   3.457  0.0799 -1.3856 -0.8920
   62CHL1    C9 5731   3.922   5.563   3.425 -0.1484  0.3731  0.9057
   62CHL1    H9 5732   4.020   5.511   3.421  0.5270  1.6840 -0.4784
   62CHL1   C10 5733   3.893   5.571   3.274  0.2547  0.7510 -0.2689
   62CHL1   C19 5734   3.784   5.684   3.259  0.3471  0.3243 -0.2315
   62CHL1  H19A 5735   3.699   5.669   3.329 -0.4203  0.8596 -1.0305
   62CHL1  H19B 5736   3.822   5.784   3.289 -0.0603 -0.0365  1.6343
   62CHL1  H19C 5737   3.733   5.698   3.162  0.3066 -0.8608 -0.3948
   62CHL1    C1 5738   4.018   5.598   3.189 -0.1804  0.8635 -0.1229
   62CHL1   H1A 5739   4.067   5.694   3.217  0.6624  0.9087 -1.6272
   62CHL1   H1B 5740   4.093   5.519   3.212 -1.1218 -0.4078 -1.3523
   62CHL1    C2 5741   4.001   5.600   3.032  0.2257  0.1247 -0.5683
   62CHL1   H2A 5742   4.102   5.619   2.988 -0.2402  1.0974 -1.2392
   62CHL1   H2B 5743   3.922   5.674   3.009 -0.7328 -1.0389 -1.1045
   62CHL1   C20 5744   3.871   5.686   3.988  0.0211 -0.5084  0.6828
   62CHL1   H20 5745   3.790   5.761   3.971 -0.1042 -0.5743  0.9970
   62CHL1   C21 5746   4.009   5.748   3.985  0.6563 -0.1249 -0.1266
   62CHL1  H21A 5747   4.013   5.836   4.054  2.0652 -0.0006 -0.3321
   62CHL1  H21B 5748   4.037   5.781   3.883  0.8372 -0.3400 -0.1476
   62CHL1  H21C 5749   4.085   5.677   4.026 -0.6702 -0.0654  2.6639
   62CHL1   C22 5750   3.849   5.618   4.119 -0.6834 -0.4834  0.2200
   62CHL1  H22A 5751   3.747   5.576   4.131 -0.8401 -0.1364  0.1029
   62CHL1  H22B 5752   3.925   5.537   4.129 -0.3359 -0.0057  1.6082
   62CHL1   C23 5753   3.857   5.718   4.241  0.4547  0.5039  0.1127
   62CHL1  H23A 5754   3.961   5.751   4.263  0.9724 -1.6263  1.1673
   62CHL1  H23B 5755   3.788   5.803   4.223  0.0285  0.1266 -0.0544
   62CHL1   C24 5756   3.804   5.635   4.368 -0.4014 -1.0346 -0.3419
   62CHL1  H24A 5757   3.704   5.593   4.346 -1.4512  1.0325  0.2180
   62CHL1  H24B 5758   3.879   5.552   4.376 -0.0920 -0.7037  0.2571
   62CHL1   C25 5759   3.786   5.713   4.497 -0.0075 -0.5360 -0.0616
   62CHL1   H25 5760   3.716   5.798   4.493  0.4603 -0.1122  0.5242
   62CHL1   C26 5761   3.720   5.615   4.605 -0.0600  0.3400  0.3508
   62CHL1  H26A 5762   3.699   5.665   4.702  0.3634  1.3927 -0.0900
   62CHL1  H26B 5763   3.627   5.567   4.568 -0.3289 -1.6335  3.2513
   62CHL1  H26C 5764   3.797   5.537   4.627  0.7648  0.2948 -2.2973
   62CHL1   C27 5765   3.922   5.767   4.551  0.0441  0.4318  0.0106
   62CHL1  H27A 5766   3.902   5.816   4.649 -0.3529  0.4122 -0.0602
   62CHL1  H27B 5767   3.992   5.681   4.558  0.5156  0.6834 -1.3439
   62CHL1  H27C 5768   3.963   5.849   4.488 -0.9909  1.7208  0.9456
   63CHL1    C3 5769   6.310   3.041   2.879 -0.8435 -0.5476 -0.1886
   63CHL1    H3 5770   6.213   3.075   2.922 -0.6114  0.9135 -0.7644
   63CHL1    O3 5771   6.307   3.059   2.740  0.0819  0.2234 -0.0281
   63CHL1   H3' 5772   6.400   3.067   2.720 -0.0531 -0.7716 -1.1069
   63CHL1    C4 5773   6.422   3.119   2.944 -0.5239  0.3516 -0.2678
   63CHL1   H4A 5774   6.522   3.082   2.916  0.3767 -1.2038  4.2384
   63CHL1   H4B 5775   6.422   3.226   2.911  0.4585  0.3828 -0.1870
   63CHL1    C5 5776   6.421   3.103   3.095  0.1023  0.3026  0.3910
   63CHL1    C6 5777   6.406   3.213   3.163 -0.1860  0.5449 -0.4555
   63CHL1    H6 5778   6.393   3.309   3.110  4.3093  0.4299 -2.1522
   63CHL1    C7 5779   6.410   3.221   3.310  0.7482  1.2173 -0.3156
   63CHL1   H7A 5780   6.472   3.308   3.339  0.1110  1.5720  0.0179
   63CHL1   H7B 5781   6.308   3.244   3.348 -0.0899 -2.5197  0.1581
   63CHL1    C8 5782   6.461   3.088   3.371  0.4995  0.1660 -0.1221
   63CHL1    H8 5783   6.569   3.067   3.366  0.5569  0.7070 -1.5516
   63CHL1   C14 5784   6.413   3.079   3.513 -0.1106  0.3688 -0.5140
   63CHL1   H14 5785   6.302   3.089   3.520  0.1191  2.3036  4.1790
   63CHL1   C15 5786   6.453   3.190   3.601 -0.2022  0.2185 -0.0206
   63CHL1  H15A 5787   6.559   3.221   3.594 -0.4970  1.1354 -0.5594
   63CHL1  H15B 5788   6.400   3.285   3.579 -1.7014 -0.3062  1.1758
   63CHL1   C16 5789   6.421   3.138   3.743  0.3257 -0.8050 -0.4058
   63CHL1  H16A 5790   6.515   3.151   3.802  0.3793 -0.0853 -0.6336
   63CHL1  H16B 5791   6.341   3.199   3.791  2.7557  1.3070  1.2775
   63CHL1   C17 5792   6.390   2.990   3.723 -0.0669 -0.3316 -0.3699
   63CHL1   H17 5793   6.279   2.991   3.709 -0.0835  1.8867 -0.4745
   63CHL1   C13 5794   6.451   2.951   3.589  0.5952 -0.1855  0.3270
   63CHL1   C18 5795   6.606   2.932   3.599 -0.0562  0.1875  0.4576
   63CHL1  H18A 5796   6.630   2.835   3.650  0.1245  0.9030  1.7803
   63CHL1  H18B 5797   6.652   2.931   3.498  3.0432 -1.2867  1.7236
   63CHL1  H18C 5798   6.649   3.016   3.658 -0.9032 -0.3355  1.8874
   63CHL1   C12 5799   6.386   2.827   3.516 -0.0327 -0.2934 -0.4819
   63CHL1  H12A 5800   6.425   2.740   3.574 -2.4043  0.7884  3.1269
   63CHL1  H12B 5801   6.276   2.830   3.529 -0.0735  1.8499 -1.0664
   63CHL1   C11 5802   6.427   2.828   3.374  0.1571 -0.4932 -0.0629
   63CHL1  H11A 5803   6.533   2.796   3.371 -0.1267 -1.4696 -0.1803
   63CHL1  H11B 5804   6.376   2.746   3.319 -0.7165  0.4573 -0.7111
   63CHL1    C9 5805   6.398   2.958   3.299  0.1428 -1.0924  0.6504
   63CHL1    H9 5806   6.287   2.967   3.299  0.1095 -0.9476 -1.6855
   63CHL1   C10 5807   6.429   2.957   3.149  0.4533  0.0669  0.1605
   63CHL1   C19 5808   6.572   2.900   3.128  0.2691  0.0255 -0.7366
   63CHL1  H19A 5809   6.553   2.791   3.138 -2.0742  0.3429 -1.0262
   63CHL1  H19B 5810   6.620   2.920   3.030  4.1065 -0.8197  0.7926
   63CHL1  H19C 5811   6.639   2.935   3.209  0.2238 -1.0281 -0.2337
   63CHL1    C1 5812   6.331   2.874   3.059  0.8226  0.4393 -1.0810
   63CHL1   H1A 5813   6.350   2.766   3.076 -2.5544 -0.0519  0.3515
   63CHL1   H1B 5814   6.229   2.899   3.095  0.5599  0.3093 -1.7230
   63CHL1    C2 5815   6.341   2.893   2.909 -0.0801 -0.3984  0.8435
   63CHL1   H2A 5816   6.276   2.824   2.850 -0.8434  0.5422  0.5401
   63CHL1   H2B 5817   6.441   2.867   2.869 -1.2374 -3.3666 -0.3845
   63CHL1   C20 5818   6.421   2.910   3.849 -0.4424 -0.7496 -0.9959
   63CHL1   H20 5819   6.528   2.910   3.878 -0.6764 -3.1099  0.1922
   63CHL1   C21 5820   6.378   2.760   3.827  0.6180 -0.1781  0.2536
   63CHL1  H21A 5821   6.384   2.709   3.925  1.0634  0.8590  0.7791
   63CHL1  H21B 5822   6.461   2.716   3.768  1.3372  0.7733  0.5180
   63CHL1  H21C 5823   6.281   2.749   3.774  0.9174 -1.2913 -0.0834
   63CHL1   C22 5824   6.356   2.972   3.986 -0.0662 -0.5514  0.1665
   63CHL1  H22A 5825   6.396   3.075   3.986  2.2362 -1.3019 -2.5203
   63CHL1  H22B 5826   6.247   2.964   3.965 -0.3084  0.6287  0.9273
   63CHL1   C23 5827   6.395   2.903   4.117  0.1770  0.4770 -0.4334
   63CHL1  H23A 5828   6.359   2.963   4.203  1.2057 -0.9992  1.0851
   63CHL1  H23B 5829   6.352   2.800   4.121 -0.1708  0.5644 -1.4529
   63CHL1   C24 5830   6.555   2.903   4.138  0.2847  0.4507  0.2792
   63CHL1  H24A 5831   6.605   2.821   4.083  1.5845  2.1043 -1.1269
   63CHL1  H24B 5832   6.590   2.997   4.090  0.5892  0.2484  0.1031
   63CHL1   C25 5833   6.593   2.880   4.289 -0.3098 -0.4906 -0.2886
   63CHL1   H25 5834   6.537   2.960   4.343 -0.4611 -0.6644 -0.1885
   63CHL1   C26 5835   6.533   2.756   4.344  0.2823 -0.4878  0.2308
   63CHL1  H26A 5836   6.422   2.754   4.341  0.2314  0.8293  0.4163
   63CHL1  H26B 5837   6.574   2.669   4.289 -0.1420 -1.3747  1.2948
   63CHL1  H26C 5838   6.567   2.736   4.448  1.3160  0.6086  0.1375
   63CHL1   C27 5839   6.742   2.897   4.319 -0.0486 -0.3999  0.0429
   63CHL1  H27A 5840   6.759   2.906   4.428  1.8901 -0.3992 -0.2239
   63CHL1  H27B 5841   6.783   2.803   4.277 -1.2133 -0.1290 -1.8088
   63CHL1  H27C 5842   6.777   2.991   4.270  0.1823 -0.5267 -0.0352
   64CHL1    C3 5843   5.210   6.559   2.417 -0.4856 -0.2621  0.3398
   64CHL1    H3 5844   5.310   6.598   2.445  0.3625 -1.2004 -1.2556
   64CHL1    O3 5845   5.202   6.579   2.272 -0.9344  0.2454  0.2327
   64CHL1   H3' 5846   5.108   6.581   2.252 -0.8683  1.3042 -0.0572
   64CHL1    C4 5847   5.183   6.416   2.460 -0.1983  0.1496 -0.3294
   64CHL1   H4A 5848   5.084   6.369   2.442 -0.8585  1.3448  0.1126
   64CHL1   H4B 5849   5.250   6.347   2.404 -0.4386 -1.6252  1.4481
   64CHL1    C5 5850   5.206   6.417   2.614  0.1747 -0.1828  0.3201
   64CHL1    C6 5851   5.300   6.339   2.674 -0.0353 -0.1126  0.0651
   64CHL1    H6 5852   5.370   6.277   2.616  1.1341  0.2349  1.0659
   64CHL1    C7 5853   5.311   6.345   2.827  0.9596 -0.0527  0.4267
   64CHL1   H7A 5854   5.331   6.240   2.858 -0.7041 -0.7002 -0.6088
   64CHL1   H7B 5855   5.398   6.408   2.857  0.7028  0.8508 -0.6857
   64CHL1    C8 5856   5.190   6.406   2.904 -0.1111  0.5017 -0.4311
   64CHL1    H8 5857   5.108   6.333   2.891  0.9306 -0.9927  0.9433
   64CHL1   C14 5858   5.231   6.421   3.046  0.3072 -0.6407  0.3245
   64CHL1   H14 5859   5.310   6.497   3.063  1.3037 -1.8259  1.1609
   64CHL1   C15 5860   5.288   6.299   3.113 -0.6580 -0.3373  0.2406
   64CHL1  H15A 5861   5.223   6.211   3.091  0.8449 -1.8724  1.6373
   64CHL1  H15B 5862   5.398   6.302   3.096 -0.6547  1.1345  0.4141
   64CHL1   C16 5863   5.269   6.331   3.265  0.0541 -0.4248  0.3166
   64CHL1  H16A 5864   5.226   6.238   3.307 -1.5754 -0.8796 -2.1189
   64CHL1  H16B 5865   5.369   6.363   3.302  0.8547  0.4177 -2.3638
   64CHL1   C17 5866   5.184   6.467   3.268 -0.6181 -0.2046  0.8075
   64CHL1   H17 5867   5.258   6.549   3.265 -1.1303  0.3299  2.1463
   64CHL1   C13 5868   5.115   6.473   3.133  0.3524  0.0149  0.0859
   64CHL1   C18 5869   4.988   6.374   3.127 -0.7472 -0.8767  0.0525
   64CHL1  H18A 5870   4.930   6.374   3.032  1.2949 -0.1001 -1.2744
   64CHL1  H18B 5871   5.020   6.269   3.141  2.3904  0.0328  0.5287
   64CHL1  H18C 5872   4.917   6.407   3.206  0.3946  2.4048 -0.1343
   64CHL1   C12 5873   5.075   6.615   3.083 -0.6779 -0.5455 -0.2357
   64CHL1  H12A 5874   4.985   6.647   3.140  0.9267  2.0002  1.0454
   64CHL1  H12B 5875   5.160   6.684   3.099 -0.3066 -1.3832  1.7528
   64CHL1   C11 5876   5.034   6.611   2.933 -0.4610 -0.4987  0.3127
   64CHL1  H11A 5877   4.942   6.549   2.931 -0.9759  0.2484  0.3676
   64CHL1  H11B 5878   5.015   6.713   2.893  1.6464 -0.0920  0.2588
   64CHL1    C9 5879   5.142   6.538   2.842  0.2517  0.2886 -0.1934
   64CHL1    H9 5880   5.235   6.598   2.849  0.2671  0.2080  0.3463
   64CHL1   C10 5881   5.111   6.524   2.695  0.2156  0.9357 -0.1643
   64CHL1   C19 5882   4.967   6.453   2.678 -0.6335 -0.0198 -0.2491
   64CHL1  H19A 5883   4.895   6.523   2.726 -0.4869 -1.1247  1.6510
   64CHL1  H19B 5884   4.938   6.457   2.570  1.1812  0.4378 -0.7566
   64CHL1  H19C 5885   4.974   6.348   2.711  1.9209 -0.6908 -2.5373
   64CHL1    C1 5886   5.118   6.665   2.630  0.8381  0.2018 -0.5786
   64CHL1   H1A 5887   5.037   6.727   2.673 -0.7650 -1.6249 -0.8222
   64CHL1   H1B 5888   5.219   6.708   2.649  1.0271 -0.4445 -0.0843
   64CHL1    C2 5889   5.105   6.657   2.476  0.0749 -0.0827  0.5442
   64CHL1   H2A 5890   5.130   6.756   2.433  0.5684  0.3148  1.7056
   64CHL1   H2B 5891   5.006   6.618   2.444  0.8719 -0.5444 -1.5370
   64CHL1   C20 5892   5.110   6.492   3.404 -0.0905  0.2461  0.0143
   64CHL1   H20 5893   5.047   6.402   3.422 -2.2227  1.0922 -2.6248
   64CHL1   C21 5894   5.019   6.613   3.400  0.6841 -0.0285  0.1348
   64CHL1  H21A 5895   4.985   6.647   3.501  2.0179 -0.2200  0.6709
   64CHL1  H21B 5896   4.935   6.579   3.335 -1.3003 -0.7370  2.8804
   64CHL1  H21C 5897   5.072   6.700   3.356  1.3462  1.3133  3.2765
   64CHL1   C22 5898   5.202   6.516   3.524  0.2019 -0.3864 -0.0884
   64CHL1  H22A 5899   5.288   6.446   3.516  2.2270  1.8713  0.7708
   64CHL1  H22B 5900   5.242   6.619   3.513 -1.0673  0.0040 -1.5342
   64CHL1   C23 5901   5.134   6.498   3.658 -0.4422  0.5047  0.1181
   64CHL1  H23A 5902   5.027   6.528   3.659 -0.4811  0.3617  0.4360
   64CHL1  H23B 5903   5.140   6.389   3.678  0.1784  0.6608  0.8280
   64CHL1   C24 5904   5.199   6.573   3.775  0.5873  0.6293 -0.7872
   64CHL1  H24A 5905   5.308   6.553   3.783  0.3683 -0.5430 -0.5641
   64CHL1  H24B 5906   5.198   6.682   3.750  1.9840  0.9042  0.2505
   64CHL1   C25 5907   5.126   6.557   3.912 -0.7707 -0.6684 -0.7611
   64CHL1   H25 5908   5.017   6.544   3.893 -0.7798  1.2756 -2.3919
   64CHL1   C26 5909   5.195   6.451   4.005  0.3311 -0.3204  0.1596
   64CHL1  H26A 5910   5.302   6.476   4.022 -0.0349 -0.2076  2.6973
   64CHL1  H26B 5911   5.138   6.443   4.100  0.0690 -0.3958 -0.0009
   64CHL1  H26C 5912   5.197   6.355   3.949 -1.9118 -0.4843  0.2832
   64CHL1   C27 5913   5.140   6.685   4.000  0.0585  0.3774  0.5085
   64CHL1  H27A 5914   5.234   6.692   4.058  1.1449 -2.2033 -0.7446
   64CHL1  H27B 5915   5.136   6.781   3.945  1.7836  0.4555  0.4581
   64CHL1  H27C 5916   5.058   6.686   4.075  1.0065 -0.9901  1.6201
   65CHL1    C3 5917   3.127   6.620   2.787 -0.1350  0.1331 -0.4008
   65CHL1    H3 5918   3.187   6.713   2.793  0.9847 -0.4944 -1.4742
   65CHL1    O3 5919   3.053   6.611   2.668 -0.2378  0.4887  0.2052
   65CHL1   H3' 5920   2.975   6.558   2.687  0.5985 -0.3841  1.3159
   65CHL1    C4 5921   3.226   6.508   2.790  0.5196 -0.6307  0.7554
   65CHL1   H4A 5922   3.170   6.412   2.781 -0.1311 -0.3226  1.3960
   65CHL1   H4B 5923   3.284   6.518   2.696  0.0392 -2.4603  0.2283
   65CHL1    C5 5924   3.314   6.521   2.908  0.7666  0.4740  0.6330
   65CHL1    C6 5925   3.446   6.527   2.905 -1.0588 -0.4259  0.6318
   65CHL1    H6 5926   3.500   6.529   2.809  0.2938  0.8389  1.3761
   65CHL1    C7 5927   3.536   6.534   3.020 -0.7766 -0.4810  0.6237
   65CHL1   H7A 5928   3.630   6.477   3.006  0.0117  0.2285  2.5872
   65CHL1   H7B 5929   3.568   6.641   3.028  0.6529 -0.6122 -2.2394
   65CHL1    C8 5930   3.473   6.491   3.150  0.5718 -0.2597  0.9635
   65CHL1    H8 5931   3.467   6.380   3.159  2.4240 -0.3880  1.1333
   65CHL1   C14 5932   3.548   6.541   3.274  0.0602 -0.6522 -0.1013
   65CHL1   H14 5933   3.549   6.652   3.280 -0.7711 -0.6665  0.5266
   65CHL1   C15 5934   3.701   6.509   3.289 -0.0405  0.0669  0.2662
   65CHL1  H15A 5935   3.728   6.409   3.248  1.3453  0.4570  0.1856
   65CHL1  H15B 5936   3.771   6.567   3.225  0.9221 -1.5425 -0.2046
   65CHL1   C16 5937   3.728   6.515   3.434 -0.6399  0.7279 -0.1082
   65CHL1  H16A 5938   3.756   6.417   3.479  0.2058  0.5931 -0.9081
   65CHL1  H16B 5939   3.799   6.593   3.469 -0.7224  1.0673 -0.6876
   65CHL1   C17 5940   3.595   6.550   3.508  0.7525 -0.6843  0.6271
   65CHL1   H17 5941   3.608   6.660   3.500  0.1068 -0.5076  1.7235
   65CHL1   C13 5942   3.482   6.500   3.407  0.4204  0.5194 -0.7194
   65CHL1   C18 5943   3.465   6.343   3.426 -0.1813  0.2219 -0.0939
   65CHL1  H18A 5944   3.362   6.312   3.455 -0.9446  1.1907 -1.5973
   65CHL1  H18B 5945   3.500   6.296   3.332 -0.8043  0.7683 -0.6120
   65CHL1  H18C 5946   3.525   6.302   3.509 -0.6630 -0.0453  0.1238
   65CHL1   C12 5947   3.347   6.572   3.409 -0.2581 -0.2536 -0.4476
   65CHL1  H12A 5948   3.305   6.544   3.509  0.2099 -1.9037 -0.6828
   65CHL1  H12B 5949   3.358   6.682   3.404  0.1960 -0.2567  0.3174
   65CHL1   C11 5950   3.255   6.534   3.292 -0.6459  0.2470  0.1823
   65CHL1  H11A 5951   3.227   6.427   3.301  0.3906 -0.5007 -3.6080
   65CHL1  H11B 5952   3.162   6.595   3.298 -0.1519  1.0028  0.3707
   65CHL1    C9 5953   3.333   6.553   3.159  0.1691  0.2933 -0.0618
   65CHL1    H9 5954   3.347   6.663   3.155 -0.6768  0.4323  0.5159
   65CHL1   C10 5955   3.236   6.516   3.040 -0.6199 -1.0316  0.5969
   65CHL1   C19 5956   3.181   6.375   3.061  0.0747  0.4561 -0.3624
   65CHL1  H19A 5957   3.124   6.338   2.973  0.3734 -2.8422  0.6917
   65CHL1  H19B 5958   3.255   6.292   3.067  0.5089  0.9583  2.3028
   65CHL1  H19C 5959   3.109   6.383   3.145  0.3333 -1.1088  0.0352
   65CHL1    C1 5960   3.124   6.624   3.033  0.0009  0.4146 -0.5709
   65CHL1   H1A 5961   3.054   6.615   3.119 -0.5924  2.1872 -0.8217
   65CHL1   H1B 5962   3.163   6.727   3.026  0.4895  0.3823  1.2838
   65CHL1    C2 5963   3.032   6.609   2.911 -0.8399 -0.3336  0.1579
   65CHL1   H2A 5964   2.953   6.687   2.902 -2.0020 -1.3199  1.5262
   65CHL1   H2B 5965   2.974   6.515   2.903 -3.4470  1.2068 -0.0509
   65CHL1   C20 5966   3.598   6.510   3.658 -0.3588  0.1684  0.6092
   65CHL1   H20 5967   3.653   6.414   3.675 -1.1566 -0.2033  1.1724
   65CHL1   C21 5968   3.449   6.496   3.715  0.0367  0.0600 -0.2959
   65CHL1  H21A 5969   3.396   6.410   3.668 -0.1078 -1.4856  2.4631
   65CHL1  H21B 5970   3.388   6.588   3.704  1.8678  1.2801 -0.4655
   65CHL1  H21C 5971   3.463   6.471   3.822  1.3461  0.8030 -0.2776
   65CHL1   C22 5972   3.666   6.614   3.743 -0.2493 -0.4109  0.2186
   65CHL1  H22A 5973   3.767   6.624   3.699  0.7475  2.3783  2.7848
   65CHL1  H22B 5974   3.618   6.712   3.720  0.9556 -0.2271 -1.6912
   65CHL1   C23 5975   3.683   6.571   3.886  0.4929  0.2333  0.1362
   65CHL1  H23A 5976   3.589   6.578   3.945  0.4626  0.5446  0.0544
   65CHL1  H23B 5977   3.723   6.468   3.890 -1.1940 -0.4052  2.2889
   65CHL1   C24 5978   3.776   6.667   3.966  0.7250 -0.2665  0.2273
   65CHL1  H24A 5979   3.872   6.663   3.911  0.7741 -0.7305  0.3426
   65CHL1  H24B 5980   3.740   6.772   3.958 -0.2896 -0.7165 -1.3835
   65CHL1   C25 5981   3.821   6.619   4.108 -0.1148 -0.9294  0.4763
   65CHL1   H25 5982   3.888   6.532   4.092  0.3561 -0.3363 -0.9988
   65CHL1   C26 5983   3.901   6.732   4.170 -0.0461 -0.0382  0.4459
   65CHL1  H26A 5984   3.855   6.831   4.185  1.8636  0.6203  2.4698
   65CHL1  H26B 5985   3.945   6.706   4.269  2.2284 -1.0525 -0.7397
   65CHL1  H26C 5986   3.987   6.754   4.102 -0.1085 -0.6211  0.1680
   65CHL1   C27 5987   3.707   6.582   4.202 -0.7949  0.3501  0.1571
   65CHL1  H27A 5988   3.631   6.662   4.186 -0.4649  0.2314 -2.3522
   65CHL1  H27B 5989   3.663   6.484   4.176  1.6125 -0.6218 -0.4435
   65CHL1  H27C 5990   3.733   6.573   4.310 -2.9190  1.9798  0.8857
   66CHL1    C3 5991   6.706   5.344   2.798  0.3679 -0.1469  0.2247
   66CHL1    H3 5992   6.721   5.234   2.811  1.2855 -0.2108 -1.1323
   66CHL1    O3 5993   6.664   5.368   2.664  0.1606  0.5144  0.6351
   66CHL1   H3' 5994   6.725   5.313   2.614 -0.4017 -0.8880  1.4321
   66CHL1    C4 5995   6.594   5.404   2.893  0.0687 -0.2811 -0.7104
   66CHL1   H4A 5996   6.590   5.511   2.864 -0.0932 -0.5598 -1.7310
   66CHL1   H4B 5997   6.497   5.357   2.869 -1.0750  1.0583  1.0313
   66CHL1    C5 5998   6.628   5.385   3.040  0.2672  0.0948 -0.4886
   66CHL1    C6 5999   6.542   5.326   3.130 -0.1961 -0.0267  0.5342
   66CHL1    H6 6000   6.448   5.274   3.101 -0.4955  0.9214 -0.2464
   66CHL1    C7 6001   6.567   5.315   3.278 -0.1688 -0.7153 -0.4421
   66CHL1   H7A 6002   6.475   5.347   3.333  1.6377  1.5386  1.4960
   66CHL1   H7B 6003   6.602   5.211   3.298 -1.1629 -0.6998  1.6924
   66CHL1    C8 6004   6.679   5.412   3.326 -0.4938 -0.2601 -0.2725
   66CHL1    H8 6005   6.632   5.512   3.334  0.0194  0.0299 -0.8464
   66CHL1   C14 6006   6.725   5.363   3.463 -0.1701 -0.1999  0.3852
   66CHL1   H14 6007   6.770   5.267   3.431  3.7932  2.1263 -1.9537
   66CHL1   C15 6008   6.629   5.337   3.578 -0.0585  0.5385  0.6831
   66CHL1  H15A 6009   6.574   5.432   3.595 -0.1366  0.5076  0.6062
   66CHL1  H15B 6010   6.553   5.256   3.567  0.7882 -0.1098 -0.6277
   66CHL1   C16 6011   6.710   5.320   3.704 -0.4107  0.5987  0.0296
   66CHL1  H16A 6012   6.679   5.393   3.782  1.1327 -0.0730  1.3165
   66CHL1  H16B 6013   6.707   5.217   3.743  2.0420  0.1617 -0.8037
   66CHL1   C17 6014   6.853   5.357   3.661 -0.0905  0.1267  0.0258
   66CHL1   H17 6015   6.916   5.267   3.641  2.2631  1.2407  1.8217
   66CHL1   C13 6016   6.840   5.436   3.528  0.1640  0.4676  0.5849
   66CHL1   C18 6017   6.804   5.583   3.551 -0.0806 -0.1138  0.4632
   66CHL1  H18A 6018   6.716   5.594   3.619 -0.3611  1.1509 -0.0666
   66CHL1  H18B 6019   6.891   5.631   3.599 -0.5209  0.1225  1.0443
   66CHL1  H18C 6020   6.777   5.639   3.458  0.0165 -2.5372 -1.1265
   66CHL1   C12 6021   6.962   5.423   3.423  0.3253 -0.1181  0.0227
   66CHL1  H12A 6022   7.044   5.493   3.449  1.2876 -0.7969 -1.0856
   66CHL1  H12B 6023   7.002   5.320   3.421  0.4057 -0.0792 -1.6067
   66CHL1   C11 6024   6.922   5.473   3.283  0.2704 -0.4209 -0.1037
   66CHL1  H11A 6025   6.909   5.583   3.290  0.5603 -0.2064 -2.2266
   66CHL1  H11B 6026   7.014   5.467   3.220  1.6913  0.9972  1.7209
   66CHL1    C9 6027   6.801   5.401   3.226  0.3356 -0.1989  0.8583
   66CHL1    H9 6028   6.829   5.294   3.212 -1.0421 -0.5306  0.4829
   66CHL1   C10 6029   6.763   5.441   3.078 -0.0705  0.0338 -0.4172
   66CHL1   C19 6030   6.738   5.596   3.082  0.2872  0.1831 -0.3433
   66CHL1  H19A 6031   6.657   5.640   3.145 -0.5391 -1.2349 -0.3823
   66CHL1  H19B 6032   6.828   5.656   3.108  1.0975 -1.1908  0.0955
   66CHL1  H19C 6033   6.716   5.630   2.979  1.6336  2.3854  0.0317
   66CHL1    C1 6034   6.876   5.400   2.973  0.8239 -0.0758 -0.4623
   66CHL1   H1A 6035   6.967   5.457   3.001  0.9983 -0.5581 -0.0211
   66CHL1   H1B 6036   6.900   5.294   2.998  0.4688 -0.4205 -1.5036
   66CHL1    C2 6037   6.841   5.410   2.830 -0.3201 -0.7056  0.0015
   66CHL1   H2A 6038   6.924   5.356   2.781  0.2062 -0.9424  1.1186
   66CHL1   H2B 6039   6.826   5.516   2.801 -0.1447 -1.0122 -1.2506
   66CHL1   C20 6040   6.942   5.406   3.774  0.5774 -1.2071 -0.4093
   66CHL1   H20 6041   6.888   5.491   3.821  0.6464 -2.1543  1.4613
   66CHL1   C21 6042   7.084   5.441   3.732  0.4584 -0.5445 -0.1562
   66CHL1  H21A 6043   7.151   5.479   3.813  2.9912 -0.1603 -2.3139
   66CHL1  H21B 6044   7.084   5.517   3.651 -0.3523 -1.3707 -0.9562
   66CHL1  H21C 6045   7.139   5.351   3.698 -2.1867 -2.4476  0.2707
   66CHL1   C22 6046   6.951   5.309   3.893  0.0859 -0.0398  0.1741
   66CHL1  H22A 6047   6.869   5.236   3.912  0.3789  0.2077  2.7351
   66CHL1  H22B 6048   7.038   5.245   3.866 -1.6330 -1.2509 -3.0819
   66CHL1   C23 6049   6.975   5.390   4.022 -0.3331 -0.8108 -0.3862
   66CHL1  H23A 6050   7.078   5.432   4.024 -0.7857  0.2897  0.5634
   66CHL1  H23B 6051   6.900   5.472   4.028 -1.1338 -1.2781 -2.8371
   66CHL1   C24 6052   6.963   5.304   4.146  0.0648 -0.1103 -0.2627
   66CHL1  H24A 6053   6.898   5.218   4.120 -0.1592 -0.5483  1.6115
   66CHL1  H24B 6054   7.060   5.257   4.173 -0.8845 -0.7982  2.2151
   66CHL1   C25 6055   6.917   5.372   4.280  0.2111  1.1575  0.0591
   66CHL1   H25 6056   6.819   5.423   4.269 -1.4607 -2.0263 -0.9198
   66CHL1   C26 6057   6.911   5.266   4.386 -0.3056  0.2284  0.3847
   66CHL1  H26A 6058   6.865   5.304   4.481  1.1289 -0.2685  1.3063
   66CHL1  H26B 6059   6.849   5.177   4.362  0.5806 -0.7011  1.4154
   66CHL1  H26C 6060   7.013   5.226   4.402 -0.4629 -0.7801 -1.0349
   66CHL1   C27 6061   7.011   5.483   4.321 -0.5301  0.4601 -0.4556
   66CHL1  H27A 6062   6.972   5.530   4.414 -3.9765 -0.0126 -1.5199
   66CHL1  H27B 6063   7.017   5.560   4.240 -1.5698  0.5376 -0.4622
   66CHL1  H27C 6064   7.115   5.447   4.334 -0.2454  1.5948  0.5724
   67CHL1    C3 6065   6.371   1.062   2.428 -0.9769  0.1205 -0.3206
   67CHL1    H3 6066   6.306   0.973   2.433 -0.8870  0.0501 -0.4041
   67CHL1    O3 6067   6.450   1.067   2.311 -0.3677  0.3175 -0.0539
   67CHL1   H3' 6068   6.536   1.029   2.325  0.1287 -0.1941 -3.4949
   67CHL1    C4 6069   6.294   1.195   2.444 -0.2431 -0.2255 -0.1075
   67CHL1   H4A 6070   6.362   1.283   2.439 -0.3809  0.2980  3.9195
   67CHL1   H4B 6071   6.225   1.205   2.357 -0.9624 -0.2793  0.4483
   67CHL1    C5 6072   6.218   1.197   2.578  0.4234  0.2932 -0.2131
   67CHL1    C6 6073   6.083   1.211   2.576  0.3431  0.5812  0.0404
   67CHL1    H6 6074   6.034   1.233   2.480 -1.2626  0.4818  0.8135
   67CHL1    C7 6075   6.012   1.226   2.704  0.3274  0.3619  0.1947
   67CHL1   H7A 6076   5.939   1.310   2.695  0.0073  0.1714  0.9405
   67CHL1   H7B 6077   5.949   1.135   2.714 -1.2171  1.1031 -2.0412
   67CHL1    C8 6078   6.099   1.233   2.828  0.4444  0.2674 -0.6045
   67CHL1    H8 6079   6.146   1.333   2.828  0.6947  0.1785  0.8626
   67CHL1   C14 6080   6.017   1.216   2.958  0.0564  0.9923 -0.8389
   67CHL1   H14 6081   5.977   1.112   2.953 -0.4730  1.2135 -1.3119
   67CHL1   C15 6082   5.900   1.312   2.966 -0.2408 -0.2161  0.4265
   67CHL1  H15A 6083   5.925   1.411   2.922  0.0259 -0.4493  0.0492
   67CHL1  H15B 6084   5.816   1.275   2.904  0.3120 -1.0392  0.1540
   67CHL1   C16 6085   5.860   1.322   3.114 -0.2253 -0.0336 -0.0978
   67CHL1  H16A 6086   5.853   1.428   3.147  2.1600  0.0986  0.1356
   67CHL1  H16B 6087   5.755   1.287   3.127  0.2915 -1.6369 -0.0795
   67CHL1   C17 6088   5.968   1.240   3.185 -0.2164 -0.3401 -0.9251
   67CHL1   H17 6089   5.939   1.132   3.186 -1.3206 -0.0718  0.8601
   67CHL1   C13 6090   6.093   1.237   3.088 -0.7671  0.2979  0.0020
   67CHL1   C18 6091   6.156   1.376   3.098 -0.2294 -0.0626 -0.0769
   67CHL1  H18A 6092   6.214   1.374   3.193 -2.1566 -2.0542  1.1439
   67CHL1  H18B 6093   6.221   1.388   3.008 -1.8932 -3.1516 -1.8632
   67CHL1  H18C 6094   6.086   1.462   3.092 -1.1061 -0.7171  0.5377
   67CHL1   C12 6095   6.199   1.123   3.093  0.1536  0.1260 -0.3170
   67CHL1  H12A 6096   6.262   1.132   3.185 -1.2204 -0.5376  0.7209
   67CHL1  H12B 6097   6.149   1.024   3.102  0.8325 -0.0469  2.4317
   67CHL1   C11 6098   6.286   1.130   2.965  0.5190  0.2843  0.2744
   67CHL1  H11A 6099   6.354   1.217   2.976  0.3755  0.5087 -0.5216
   67CHL1  H11B 6100   6.347   1.038   2.974  0.0503  0.0639  1.2874
   67CHL1    C9 6101   6.207   1.133   2.827 -0.5525  0.0572  0.5395
   67CHL1    H9 6102   6.150   1.039   2.815 -0.1547  0.0751 -1.9649
   67CHL1   C10 6103   6.301   1.164   2.705 -0.2860 -0.1514 -0.1364
   67CHL1   C19 6104   6.389   1.283   2.733 -0.3905  0.7635 -0.1415
   67CHL1  H19A 6105   6.449   1.306   2.642 -1.6832  1.5327 -0.8234
   67CHL1  H19B 6106   6.320   1.370   2.738 -2.0392 -0.4763 -0.5222
   67CHL1  H19C 6107   6.459   1.280   2.819 -1.2553  0.2424  0.5662
   67CHL1    C1 6108   6.380   1.032   2.674  0.4461  0.9366  0.5835
   67CHL1   H1A 6109   6.437   1.007   2.765  0.6438  4.0737  1.4254
   67CHL1   H1B 6110   6.307   0.948   2.670  2.5586 -0.9484 -1.3734
   67CHL1    C2 6111   6.471   1.042   2.547  0.4068  0.0536 -0.4686
   67CHL1   H2A 6112   6.530   0.948   2.545  1.2116  0.4114  2.4360
   67CHL1   H2B 6113   6.544   1.125   2.559 -1.3063  1.2650  2.6307
   67CHL1   C20 6114   5.991   1.288   3.335 -0.5894  0.1932 -0.5152
   67CHL1   H20 6115   6.030   1.392   3.334  3.0895 -1.0451  0.3065
   67CHL1   C21 6116   6.103   1.199   3.410  0.7050 -0.2234 -0.1766
   67CHL1  H21A 6117   6.193   1.219   3.348  0.6785 -0.8482 -0.4282
   67CHL1  H21B 6118   6.080   1.091   3.394  1.5529 -0.7772  1.9585
   67CHL1  H21C 6119   6.109   1.216   3.520  0.8845 -1.5234  0.0277
   67CHL1   C22 6120   5.859   1.279   3.421 -0.1000  0.0086  0.0414
   67CHL1  H22A 6121   5.769   1.323   3.373 -1.4827  0.6708  2.9999
   67CHL1  H22B 6122   5.842   1.169   3.428  0.4633 -0.0937 -0.1146
   67CHL1   C23 6123   5.869   1.355   3.552  0.2294 -0.0286  0.2058
   67CHL1  H23A 6124   5.945   1.309   3.619  0.2437 -1.7805 -0.9538
   67CHL1  H23B 6125   5.892   1.461   3.529  0.5187 -0.4132 -1.3995
   67CHL1   C24 6126   5.734   1.367   3.617  0.4684 -0.4488 -0.2276
   67CHL1  H24A 6127   5.658   1.393   3.540 -0.7531 -1.2863  0.6355
   67CHL1  H24B 6128   5.687   1.278   3.664  1.1392 -0.7345 -0.0841
   67CHL1   C25 6129   5.725   1.477   3.733 -0.1512 -0.4352 -0.5468
   67CHL1   H25 6130   5.754   1.575   3.692 -2.8100 -0.3264 -2.4022
   67CHL1   C26 6131   5.582   1.498   3.784 -0.2864  0.1630 -0.6538
   67CHL1  H26A 6132   5.539   1.405   3.825  3.2281 -0.3966  2.2601
   67CHL1  H26B 6133   5.569   1.575   3.864  2.2503 -0.1502  0.1739
   67CHL1  H26C 6134   5.516   1.528   3.700 -0.8276 -1.3222 -0.7847
   67CHL1   C27 6135   5.822   1.453   3.851 -1.1610 -0.2417  0.0153
   67CHL1  H27A 6136   5.810   1.519   3.940 -0.3929  0.7120 -0.5616
   67CHL1  H27B 6137   5.828   1.345   3.877  0.2703 -0.6102 -1.6537
   67CHL1  H27C 6138   5.925   1.483   3.820 -0.9066 -0.6560  0.4422
   68CHL1    C3 6139   4.787   4.281   2.713  0.7398  0.6387 -0.6380
   68CHL1    H3 6140   4.698   4.345   2.730 -1.0037 -2.3522  2.9300
   68CHL1    O3 6141   4.787   4.243   2.572 -0.2874  0.2366 -0.2121
   68CHL1   H3' 6142   4.823   4.320   2.528 -0.4266  0.1397 -0.4989
   68CHL1    C4 6143   4.909   4.365   2.750 -0.1184  0.2043 -0.0658
   68CHL1   H4A 6144   4.996   4.300   2.728  0.7026  1.9487 -2.4657
   68CHL1   H4B 6145   4.925   4.444   2.673  0.4734 -0.1260 -0.2831
   68CHL1    C5 6146   4.905   4.410   2.895  0.2317  1.0356 -0.2004
   68CHL1    C6 6147   4.919   4.538   2.924  0.9300 -0.0849 -0.0689
   68CHL1    H6 6148   4.923   4.612   2.843 -0.0245  1.6832  1.3992
   68CHL1    C7 6149   4.937   4.591   3.064  0.1969  0.0622  0.3973
   68CHL1   H7A 6150   5.037   4.638   3.075  0.5181 -0.0252 -1.6895
   68CHL1   H7B 6151   4.854   4.661   3.089 -0.1608 -0.3175  0.2879
   68CHL1    C8 6152   4.944   4.472   3.164  0.4923  0.7633  0.3290
   68CHL1    H8 6153   5.051   4.442   3.171  0.5782  1.3910  2.6773
   68CHL1   C14 6154   4.890   4.530   3.295  0.1311  0.0948 -0.3142
   68CHL1   H14 6155   4.788   4.572   3.279  0.8811  1.2225 -2.6547
   68CHL1   C15 6156   4.960   4.653   3.349  0.8036 -0.0751 -0.3361
   68CHL1  H15A 6157   5.067   4.639   3.323  0.0768 -1.4807 -2.8287
   68CHL1  H15B 6158   4.932   4.749   3.302 -1.4172 -0.0095  0.9791
   68CHL1   C16 6159   4.931   4.654   3.500 -0.5111  0.0085  0.7298
   68CHL1  H16A 6160   5.032   4.671   3.542  0.6410 -1.6062 -1.2014
   68CHL1  H16B 6161   4.859   4.734   3.527 -0.7596  0.0995 -0.1597
   68CHL1   C17 6162   4.866   4.522   3.535 -0.1047  1.0555  0.5923
   68CHL1   H17 6163   4.756   4.532   3.537 -0.3417 -0.6333 -1.1547
   68CHL1   C13 6164   4.898   4.433   3.412  0.3573 -0.7181  0.1118
   68CHL1   C18 6165   5.042   4.379   3.422  0.3081  0.0733 -0.1393
   68CHL1  H18A 6166   5.090   4.334   3.332 -0.4616  0.0557 -0.5440
   68CHL1  H18B 6167   5.110   4.462   3.450  0.1441  0.1232  0.1120
   68CHL1  H18C 6168   5.046   4.311   3.510 -0.9510  1.6509  1.1844
   68CHL1   C12 6169   4.809   4.315   3.376 -0.6200 -0.2581 -0.2836
   68CHL1  H12A 6170   4.804   4.234   3.452 -1.3490 -1.0042 -1.1000
   68CHL1  H12B 6171   4.706   4.356   3.362 -1.5445 -1.1588  3.0672
   68CHL1   C11 6172   4.839   4.250   3.240  0.1087 -0.5482  0.1562
   68CHL1  H11A 6173   4.933   4.192   3.241  0.6207  0.1865 -1.5926
   68CHL1  H11B 6174   4.760   4.174   3.224 -0.4175  0.1336 -0.6009
   68CHL1    C9 6175   4.846   4.355   3.124 -0.5250  0.1077 -0.6787
   68CHL1    H9 6176   4.745   4.402   3.128 -2.3426 -3.3668 -1.9092
   68CHL1   C10 6177   4.878   4.293   2.995  0.4613 -0.2647  0.5448
   68CHL1   C19 6178   5.009   4.214   2.993  0.6573 -0.4519  0.4365
   68CHL1  H19A 6179   5.011   4.167   2.892 -1.1725 -0.2354  0.2695
   68CHL1  H19B 6180   5.107   4.258   3.021  0.2091  0.1090  1.1734
   68CHL1  H19C 6181   4.997   4.126   3.060 -1.3222 -0.1676  0.5190
   68CHL1    C1 6182   4.759   4.200   2.950 -0.3116 -0.2851  0.7150
   68CHL1   H1A 6183   4.747   4.112   3.017 -1.5029 -0.3462  0.4359
   68CHL1   H1B 6184   4.666   4.260   2.963  0.1717  0.7062 -0.1745
   68CHL1    C2 6185   4.755   4.159   2.800  0.3307  0.2596 -0.1866
   68CHL1   H2A 6186   4.646   4.146   2.778  0.3173  2.2323 -1.5361
   68CHL1   H2B 6187   4.793   4.057   2.776  0.2680  0.5188 -1.4644
   68CHL1   C20 6188   4.899   4.469   3.677  0.0771  0.4160 -0.7161
   68CHL1   H20 6189   5.007   4.447   3.677  0.3280  1.5673 -0.9211
   68CHL1   C21 6190   4.822   4.337   3.708 -0.0365 -0.1567  0.1288
   68CHL1  H21A 6191   4.826   4.308   3.815 -0.6448  0.4828  0.3332
   68CHL1  H21B 6192   4.853   4.243   3.656 -2.1378 -0.3839 -0.8208
   68CHL1  H21C 6193   4.714   4.357   3.695 -0.0137  0.2043  0.5063
   68CHL1   C22 6194   4.876   4.573   3.791 -0.2450 -0.5508  0.5715
   68CHL1  H22A 6195   4.927   4.668   3.765 -1.0258  0.5698  2.7989
   68CHL1  H22B 6196   4.767   4.583   3.811 -0.0405 -0.9527  2.0469
   68CHL1   C23 6197   4.963   4.547   3.916  0.1692 -0.5702  0.1721
   68CHL1  H23A 6198   4.943   4.447   3.959  1.3119 -1.0615 -0.3918
   68CHL1  H23B 6199   5.071   4.539   3.891 -0.3257 -0.4603 -2.2928
   68CHL1   C24 6200   4.943   4.643   4.036 -0.0972  0.4993  0.2813
   68CHL1  H24A 6201   4.912   4.742   3.997 -0.5582  0.8123  1.4152
   68CHL1  H24B 6202   4.864   4.605   4.104  0.2330  0.7397  0.8062
   68CHL1   C25 6203   5.076   4.670   4.117 -0.5224 -0.9468 -0.2773
   68CHL1   H25 6204   5.145   4.709   4.039 -0.6383  0.0957  0.1275
   68CHL1   C26 6205   5.053   4.772   4.223 -0.0535 -1.0944 -0.5017
   68CHL1  H26A 6206   5.042   4.871   4.175 -0.3225 -1.3199 -0.9107
   68CHL1  H26B 6207   4.963   4.757   4.287 -0.2109  0.6604 -0.2705
   68CHL1  H26C 6208   5.137   4.785   4.294 -2.2255  1.4932  1.7988
   68CHL1   C27 6209   5.126   4.541   4.179  0.0577 -0.0037  0.4817
   68CHL1  H27A 6210   5.065   4.509   4.266 -0.5112  2.6808  1.1762
   68CHL1  H27B 6211   5.158   4.461   4.109  1.4923 -0.1307  1.2310
   68CHL1  H27C 6212   5.228   4.556   4.223  0.8743  0.1373 -1.3584
   69CHL1    C3 6213   2.018   6.841   2.782 -0.0394  0.0887 -0.1937
   69CHL1    H3 6214   1.939   6.767   2.756  0.3157 -0.7317  0.9601
   69CHL1    O3 6215   2.050   6.897   2.661 -0.3481  0.1094 -0.0473
   69CHL1   H3' 6216   1.970   6.921   2.614 -1.3702 -2.4532  0.2293
   69CHL1    C4 6217   1.964   6.960   2.870 -0.0970  0.2871  0.0784
   69CHL1   H4A 6218   2.050   7.030   2.872  0.2613 -0.1121  2.8181
   69CHL1   H4B 6219   1.872   6.995   2.818 -0.0417 -0.4200 -0.5143
   69CHL1    C5 6220   1.935   6.925   3.010 -0.8400 -0.4136 -0.0431
   69CHL1    C6 6221   1.812   6.947   3.060 -0.3975  0.3669 -0.1493
   69CHL1    H6 6222   1.736   6.988   2.991 -0.4686  0.5922  0.0607
   69CHL1    C7 6223   1.773   6.932   3.199  1.0542 -0.1669 -0.0370
   69CHL1   H7A 6224   1.717   7.019   3.239  1.9957  0.2880  0.3108
   69CHL1   H7B 6225   1.707   6.844   3.218 -0.9374  1.2501 -0.0428
   69CHL1    C8 6226   1.899   6.909   3.293  0.1864  0.3149  0.3433
   69CHL1    H8 6227   1.937   7.012   3.312 -3.1490  1.6640  0.3327
   69CHL1   C14 6228   1.855   6.859   3.426 -0.1537 -0.3543  0.0912
   69CHL1   H14 6229   1.806   6.760   3.415 -0.9935  0.1404 -0.7904
   69CHL1   C15 6230   1.752   6.943   3.499  0.2145 -0.2875  0.7199
   69CHL1  H15A 6231   1.783   7.049   3.484 -0.2912 -0.3589 -1.0596
   69CHL1  H15B 6232   1.650   6.944   3.455  0.5917  0.6565 -0.1848
   69CHL1   C16 6233   1.751   6.880   3.636 -0.9582  0.3875 -0.4466
   69CHL1  H16A 6234   1.767   6.962   3.710  1.9101 -0.3407 -0.1132
   69CHL1  H16B 6235   1.662   6.818   3.662  0.0853 -1.0504 -0.1663
   69CHL1   C17 6236   1.875   6.783   3.653 -0.5325 -0.1306  0.1930
   69CHL1   H17 6237   1.838   6.681   3.628 -0.4800 -0.3562  1.0226
   69CHL1   C13 6238   1.960   6.827   3.535  0.4276 -0.3241 -0.7558
   69CHL1   C18 6239   2.035   6.959   3.571  0.1550 -0.2820  0.3155
   69CHL1  H18A 6240   2.077   7.017   3.486  0.1897  0.5693  0.8932
   69CHL1  H18B 6241   1.976   7.033   3.630  1.6400 -0.0764  1.5973
   69CHL1  H18C 6242   2.130   6.942   3.625  0.8491 -0.6696 -0.9935
   69CHL1   C12 6243   2.065   6.732   3.475 -0.2137  0.0528  0.3646
   69CHL1  H12A 6244   2.157   6.715   3.535  0.6837 -2.5866 -1.5402
   69CHL1  H12B 6245   2.020   6.635   3.443 -1.3939  0.3020  1.2195
   69CHL1   C11 6246   2.116   6.780   3.338  0.3379  0.1379  0.8465
   69CHL1  H11A 6247   2.181   6.868   3.356  0.4632  0.0852  0.6502
   69CHL1  H11B 6248   2.184   6.697   3.307 -0.5608 -0.1336 -0.4874
   69CHL1    C9 6249   2.000   6.812   3.236  0.6841  0.3779  0.0810
   69CHL1    H9 6250   1.960   6.711   3.215  0.4518  0.8557 -1.9314
   69CHL1   C10 6251   2.049   6.868   3.091  1.1572  0.1236  0.0698
   69CHL1   C19 6252   2.144   6.980   3.117 -0.1902 -0.2923  0.1392
   69CHL1  H19A 6253   2.181   7.017   3.019 -0.7874 -2.0922 -0.8034
   69CHL1  H19B 6254   2.109   7.063   3.182 -1.6322 -0.5471 -0.2633
   69CHL1  H19C 6255   2.232   6.942   3.172 -0.1317  1.6266  1.4720
   69CHL1    C1 6256   2.109   6.756   3.003 -1.2467 -0.1643  0.1636
   69CHL1   H1A 6257   2.199   6.709   3.048 -2.0221  0.6141  2.7058
   69CHL1   H1B 6258   2.029   6.679   2.995 -0.0719 -1.5118  0.8234
   69CHL1    C2 6259   2.142   6.782   2.851  0.0056 -1.2530 -1.0423
   69CHL1   H2A 6260   2.183   6.696   2.793  0.3809 -1.0787 -1.0411
   69CHL1   H2B 6261   2.224   6.857   2.842 -0.6775 -0.3643 -0.1215
   69CHL1   C20 6262   1.941   6.783   3.795  0.6656 -0.5950  0.3207
   69CHL1   H20 6263   1.984   6.882   3.818  1.0189 -0.6219 -0.2123
   69CHL1   C21 6264   2.053   6.677   3.813  0.1251 -0.5173  0.2664
   69CHL1  H21A 6265   2.143   6.705   3.756  0.1161  1.5556  1.1781
   69CHL1  H21B 6266   2.017   6.578   3.778  0.5470 -1.2939  1.9097
   69CHL1  H21C 6267   2.085   6.669   3.919 -0.8188 -1.7993  0.4902
   69CHL1   C22 6268   1.821   6.758   3.892 -0.2017  0.3958  0.4764
   69CHL1  H22A 6269   1.855   6.775   3.996  0.1815  1.5547  0.1781
   69CHL1  H22B 6270   1.746   6.839   3.877  0.4565  2.0216  4.6683
   69CHL1   C23 6271   1.750   6.621   3.881  0.4611  0.0457 -0.0079
   69CHL1  H23A 6272   1.708   6.611   3.778  2.1386  2.0245 -0.9690
   69CHL1  H23B 6273   1.829   6.546   3.901  0.4016  0.2154  0.9087
   69CHL1   C24 6274   1.644   6.606   3.989 -0.6470 -0.7089  0.0856
   69CHL1  H24A 6275   1.686   6.627   4.090 -1.6695 -2.9922  1.0300
   69CHL1  H24B 6276   1.574   6.692   3.981  0.1258 -0.0080  0.6417
   69CHL1   C25 6277   1.568   6.468   3.995  0.0334 -0.4539 -0.1392
   69CHL1   H25 6278   1.483   6.483   3.924 -0.0312  3.6110  0.5374
   69CHL1   C26 6279   1.662   6.348   3.964  0.0125 -0.4473 -0.3281
   69CHL1  H26A 6280   1.702   6.342   3.860 -0.3203  0.5742 -0.5305
   69CHL1  H26B 6281   1.743   6.349   4.040 -0.6382 -0.6708  0.3810
   69CHL1  H26C 6282   1.607   6.256   3.995  0.6585 -2.7240 -5.0285
   69CHL1   C27 6283   1.494   6.460   4.127  0.0745 -0.5248  0.3775
   69CHL1  H27A 6284   1.563   6.455   4.214  0.4951 -0.3112  0.0575
   69CHL1  H27B 6285   1.421   6.543   4.124 -0.5725 -1.0825 -2.7889
   69CHL1  H27C 6286   1.432   6.367   4.137 -2.4826  1.0281 -0.0120
   70CHL1    C3 6287   6.484   4.964   2.596  0.3832 -0.1111  0.0660
   70CHL1    H3 6288   6.483   5.075   2.590 -2.8988 -0.0653 -0.4311
   70CHL1    O3 6289   6.444   4.911   2.468 -0.2368 -0.1590 -0.3698
   70CHL1   H3' 6290   6.495   4.957   2.401  0.1581 -1.1385 -0.7592
   70CHL1    C4 6291   6.625   4.906   2.618  0.1139 -0.3360 -0.0523
   70CHL1   H4A 6292   6.612   4.799   2.590  0.2238 -0.0316 -1.3510
   70CHL1   H4B 6293   6.686   4.953   2.537  0.0517  1.5049  0.9210
   70CHL1    C5 6294   6.679   4.920   2.756  0.2098 -0.3393 -0.6188
   70CHL1    C6 6295   6.798   4.978   2.780  0.2502 -1.1135 -0.4340
   70CHL1    H6 6296   6.852   5.025   2.697  0.2303  0.9327  0.6408
   70CHL1    C7 6297   6.848   5.001   2.919 -0.1747 -0.3714  0.1441
   70CHL1   H7A 6298   6.958   4.983   2.913 -0.1025 -0.3758  1.3994
   70CHL1   H7B 6299   6.848   5.107   2.952  1.1065  0.4172 -2.1032
   70CHL1    C8 6300   6.777   4.914   3.030 -0.7534  0.1286 -0.6170
   70CHL1    H8 6301   6.803   4.807   3.020 -1.8172 -0.3418  1.2211
   70CHL1   C14 6302   6.812   4.956   3.170 -0.2585 -0.1450  0.3459
   70CHL1   H14 6303   6.765   5.056   3.180 -0.8663 -0.2677 -0.9818
   70CHL1   C15 6304   6.958   4.962   3.214 -0.8625  0.0086  0.6688
   70CHL1  H15A 6305   7.012   4.866   3.197  0.2200  1.0967 -2.8000
   70CHL1  H15B 6306   7.029   5.034   3.170  2.1945 -3.4123 -0.4645
   70CHL1   C16 6307   6.942   4.990   3.359 -0.4378 -0.1521 -0.6283
   70CHL1  H16A 6308   7.018   4.920   3.401  0.0814 -0.4621 -2.0231
   70CHL1  H16B 6309   6.947   5.093   3.401 -2.9196  0.2279 -1.1320
   70CHL1   C17 6310   6.800   4.937   3.407  0.5803 -0.5809 -0.6807
   70CHL1   H17 6311   6.743   5.032   3.423 -0.1740 -1.1099 -0.1306
   70CHL1   C13 6312   6.735   4.878   3.286  0.4805  0.3412  0.2488
   70CHL1   C18 6313   6.767   4.722   3.270 -0.6423 -0.3537  0.0411
   70CHL1  H18A 6314   6.876   4.706   3.252  0.0029  1.1634  2.1868
   70CHL1  H18B 6315   6.734   4.664   3.358  1.5264 -0.3482  0.9227
   70CHL1  H18C 6316   6.705   4.681   3.188 -0.2507  0.5728 -0.7484
   70CHL1   C12 6317   6.584   4.901   3.265 -0.4714 -0.2189  0.0805
   70CHL1  H12A 6318   6.515   4.843   3.329 -2.9435  1.0827 -1.2768
   70CHL1  H12B 6319   6.544   5.002   3.291 -1.2407  0.1540 -2.3160
   70CHL1   C11 6320   6.540   4.867   3.130 -0.2418  0.5459  0.2104
   70CHL1  H11A 6321   6.543   4.756   3.121  1.3036  0.6023 -0.2925
   70CHL1  H11B 6322   6.435   4.903   3.124  0.0453  1.3104 -0.3358
   70CHL1    C9 6323   6.625   4.925   3.008  0.0643  0.3846 -0.6323
   70CHL1    H9 6324   6.609   5.034   2.996  0.9119  0.6672  0.5941
   70CHL1   C10 6325   6.588   4.875   2.870 -0.3061  0.2016 -0.5349
   70CHL1   C19 6326   6.581   4.716   2.862  0.4797  0.1795  0.7708
   70CHL1  H19A 6327   6.546   4.691   2.759 -0.1247 -0.0238  1.0189
   70CHL1  H19B 6328   6.686   4.685   2.877  1.0553  1.6464 -0.0777
   70CHL1  H19C 6329   6.515   4.662   2.934 -1.5670 -0.7665 -1.6369
   70CHL1    C1 6330   6.443   4.934   2.841 -0.1969 -0.2335 -0.2692
   70CHL1   H1A 6331   6.375   4.896   2.920 -0.1018 -0.6467 -0.3832
   70CHL1   H1B 6332   6.445   5.044   2.831 -1.3523 -0.2602 -0.9360
   70CHL1    C2 6333   6.386   4.909   2.703 -0.4340  0.2425  0.4617
   70CHL1   H2A 6334   6.289   4.953   2.670 -0.6104 -0.1480  0.4491
   70CHL1   H2B 6335   6.370   4.800   2.691 -2.7167  0.7648 -2.6125
   70CHL1   C20 6336   6.810   4.863   3.544  0.8246 -0.0288 -0.6450
   70CHL1   H20 6337   6.861   4.766   3.526  0.6891 -0.6194  1.8188
   70CHL1   C21 6338   6.662   4.841   3.589 -0.6085  1.2358 -0.6607
   70CHL1  H21A 6339   6.666   4.783   3.684 -2.7361 -0.6933 -1.6623
   70CHL1  H21B 6340   6.587   4.792   3.523 -0.3263  0.3175 -0.3126
   70CHL1  H21C 6341   6.624   4.940   3.623 -0.2883  0.1646  3.2996
   70CHL1   C22 6342   6.880   4.941   3.659  0.4684 -0.2544 -0.4548
   70CHL1  H22A 6343   6.963   5.004   3.621 -0.9586  1.9874 -0.0191
   70CHL1  H22B 6344   6.799   5.002   3.703 -1.2917 -1.7035 -1.5477
   70CHL1   C23 6345   6.935   4.850   3.770 -0.8530  0.4761 -0.0729
   70CHL1  H23A 6346   6.865   4.771   3.803  0.7783 -1.0701 -0.1941
   70CHL1  H23B 6347   7.019   4.791   3.726 -1.6984 -1.0412  0.2874
   70CHL1   C24 6348   6.975   4.928   3.896 -0.2947 -0.2852  0.7496
   70CHL1  H24A 6349   7.078   4.962   3.872  0.0296 -1.2818  0.6615
   70CHL1  H24B 6350   6.909   5.013   3.920  1.0000  0.7475  0.7472
   70CHL1   C25 6351   6.988   4.840   4.028 -0.2368  0.0644 -0.7820
   70CHL1   H25 6352   7.061   4.760   4.003 -1.0359 -0.5130 -1.3637
   70CHL1   C26 6353   7.025   4.927   4.148 -0.0651  0.5553  0.4848
   70CHL1  H26A 6354   7.060   4.865   4.233 -0.9648  0.3199  0.6951
   70CHL1  H26B 6355   7.102   5.002   4.120  0.8289 -0.9536 -1.3079
   70CHL1  H26C 6356   6.933   4.977   4.186 -0.7889 -1.0746  0.9703
   70CHL1   C27 6357   6.855   4.768   4.057  0.0923 -0.4087 -0.8004
   70CHL1  H27A 6358   6.763   4.831   4.058  0.0368 -0.3999  2.1577
   70CHL1  H27B 6359   6.845   4.672   4.003 -0.0498 -0.7126 -0.2367
   70CHL1  H27C 6360   6.869   4.727   4.159  0.6439 -0.1173 -0.7573
   71CHL1    C3 6361   2.042   3.923   2.776 -0.9688  0.0709 -0.0441
   71CHL1    H3 6362   2.064   3.814   2.779  4.5029  0.9040  1.7987
   71CHL1    O3 6363   1.997   3.950   2.644 -0.3058 -0.2644 -0.5882
   71CHL1   H3' 6364   1.925   3.888   2.630 -0.3562  0.2916 -3.2527
   71CHL1    C4 6365   1.933   3.953   2.873  0.2713 -0.1197 -0.2711
   71CHL1   H4A 6366   1.903   4.058   2.854 -0.3085 -0.4543 -1.2515
   71CHL1   H4B 6367   1.842   3.893   2.850 -0.1923  0.7598 -0.7937
   71CHL1    C5 6368   1.972   3.934   3.019  0.2653  0.4342 -0.6133
   71CHL1    C6 6369   1.906   3.859   3.108 -0.5438  0.8643 -0.0486
   71CHL1    H6 6370   1.811   3.815   3.073 -0.3842  0.6697 -0.2418
   71CHL1    C7 6371   1.941   3.836   3.256  0.4514  0.6900 -0.0018
   71CHL1   H7A 6372   1.850   3.862   3.314  1.2278 -0.0132  1.6026
   71CHL1   H7B 6373   1.975   3.733   3.281 -1.9217 -0.1728 -0.0495
   71CHL1    C8 6374   2.046   3.938   3.306  0.0603  0.0039  0.3495
   71CHL1    H8 6375   2.010   4.041   3.322  2.8314  1.0078  0.7548
   71CHL1   C14 6376   2.104   3.887   3.435  0.1168  0.2743  0.1464
   71CHL1   H14 6377   2.154   3.792   3.405 -0.6430  0.2321 -1.0539
   71CHL1   C15 6378   2.012   3.839   3.545 -0.0282  0.4407  0.2899
   71CHL1  H15A 6379   1.918   3.899   3.547  0.3115  1.0008 -0.2107
   71CHL1  H15B 6380   1.981   3.733   3.532 -0.7022  0.4725  1.4808
   71CHL1   C16 6381   2.074   3.872   3.678 -0.0801 -0.1433 -0.4304
   71CHL1  H16A 6382   2.028   3.962   3.723  2.0433  2.0752 -2.4053
   71CHL1  H16B 6383   2.068   3.777   3.735  1.1944  0.6787  1.1430
   71CHL1   C17 6384   2.219   3.908   3.633  0.2347 -0.3633 -0.2959
   71CHL1   H17 6385   2.266   3.809   3.615  0.1623 -0.6847  1.2148
   71CHL1   C13 6386   2.208   3.978   3.497 -0.3260 -0.1316 -0.2935
   71CHL1   C18 6387   2.178   4.126   3.515  0.0784  0.0967  0.0458
   71CHL1  H18A 6388   2.266   4.186   3.543 -0.6843  1.9433 -1.3309
   71CHL1  H18B 6389   2.139   4.194   3.437  1.6346  0.0934 -0.7785
   71CHL1  H18C 6390   2.094   4.126   3.588  0.7995 -1.8247  0.9651
   71CHL1   C12 6391   2.330   3.973   3.400 -0.8413  0.3578 -0.2719
   71CHL1  H12A 6392   2.403   4.047   3.438  0.2557 -0.4161 -0.8454
   71CHL1  H12B 6393   2.368   3.869   3.400 -1.0923  0.2088  1.8908
   71CHL1   C11 6394   2.287   4.015   3.258  0.9681  1.0464  0.1926
   71CHL1  H11A 6395   2.265   4.123   3.260  1.4614  1.2058 -1.5913
   71CHL1  H11B 6396   2.372   4.001   3.188  0.1988 -3.5372 -0.1881
   71CHL1    C9 6397   2.155   3.946   3.200 -0.4957 -0.4583  0.3408
   71CHL1    H9 6398   2.179   3.843   3.166 -0.3464  0.1540 -1.5593
   71CHL1   C10 6399   2.100   3.999   3.064 -0.3742  0.2177  0.7815
   71CHL1   C19 6400   2.070   4.149   3.074  0.0514  0.1577  0.1588
   71CHL1  H19A 6401   2.163   4.210   3.065  0.6286 -0.9897 -3.5712
   71CHL1  H19B 6402   2.013   4.185   2.985  0.4451  0.3227 -0.0332
   71CHL1  H19C 6403   2.012   4.171   3.166 -0.5622 -2.2955  0.4285
   71CHL1    C1 6404   2.212   3.975   2.957 -0.2209 -0.3421  0.5212
   71CHL1   H1A 6405   2.303   4.036   2.976  0.3128 -1.0967  0.4234
   71CHL1   H1B 6406   2.239   3.867   2.959  1.8380  0.1313  2.6114
   71CHL1    C2 6407   2.166   4.006   2.813  0.0413 -0.5284 -0.7515
   71CHL1   H2A 6408   2.244   3.993   2.735 -0.4874 -2.0993 -1.0473
   71CHL1   H2B 6409   2.144   4.115   2.813  1.5944 -0.1929  0.0918
   71CHL1   C20 6410   2.309   3.966   3.736 -0.5708 -0.1140  0.0901
   71CHL1   H20 6411   2.297   4.076   3.744  0.5293  0.0451 -0.3879
   71CHL1   C21 6412   2.458   3.959   3.699 -0.0695  0.6497  0.2107
   71CHL1  H21A 6413   2.525   3.968   3.787  0.1650  0.0123  0.0993
   71CHL1  H21B 6414   2.485   4.042   3.630  0.0070 -1.2328 -2.1480
   71CHL1  H21C 6415   2.477   3.861   3.652  0.0855  0.5472  0.4869
   71CHL1   C22 6416   2.279   3.925   3.885 -0.1488 -0.1815 -0.0215
   71CHL1  H22A 6417   2.177   3.955   3.915 -0.8734 -0.1169 -2.3932
   71CHL1  H22B 6418   2.271   3.815   3.872  2.9596 -0.5148  0.1816
   71CHL1   C23 6419   2.369   3.964   4.004 -0.6659  0.4269 -0.2558
   71CHL1  H23A 6420   2.329   3.896   4.082  1.8953 -2.3793 -1.2331
   71CHL1  H23B 6421   2.473   3.930   3.989 -0.9648 -1.2397  1.1308
   71CHL1   C24 6422   2.373   4.111   4.035 -0.0297 -0.6198 -0.1265
   71CHL1  H24A 6423   2.395   4.182   3.952  2.7022 -1.4506 -0.1937
   71CHL1  H24B 6424   2.265   4.123   4.059  0.0754  0.7355 -0.2442
   71CHL1   C25 6425   2.471   4.142   4.157  0.3202 -0.5478 -0.0538
   71CHL1   H25 6426   2.571   4.117   4.115  1.7965  0.8609  2.4379
   71CHL1   C26 6427   2.487   4.289   4.190 -0.2046 -0.3222 -0.1119
   71CHL1  H26A 6428   2.575   4.321   4.249 -0.4921  0.8000 -0.2672
   71CHL1  H26B 6429   2.497   4.352   4.099  1.5554  2.2963  1.7537
   71CHL1  H26C 6430   2.396   4.330   4.239  1.6644  2.6219  1.1643
   71CHL1   C27 6431   2.450   4.060   4.286  0.1446 -0.3189  0.0015
   71CHL1  H27A 6432   2.464   3.952   4.262 -0.4039 -0.5058  0.5165
   71CHL1  H27B 6433   2.519   4.099   4.364 -2.1543  0.8602  1.5575
   71CHL1  H27C 6434   2.347   4.060   4.328 -0.6165  1.2873 -1.7262
   72CHL1    C3 6435   1.886   3.062   2.907 -0.2276  0.5347 -1.2257
   72CHL1    H3 6436   1.961   3.144   2.903  0.9327 -0.4715 -0.6872
   72CHL1    O3 6437   1.860   3.024   2.776 -0.5679  0.1263  0.2065
   72CHL1   H3' 6438   1.765   3.024   2.760 -0.4684 -3.9597 -1.4950
   72CHL1    C4 6439   1.939   2.946   2.992  0.2014 -0.5207 -0.5743
   72CHL1   H4A 6440   1.880   2.853   2.978  0.0494 -0.9981  2.4293
   72CHL1   H4B 6441   2.046   2.929   2.965  0.3907 -1.2576  0.5481
   72CHL1    C5 6442   1.928   2.969   3.140 -0.4573 -0.1338 -0.7939
   72CHL1    C6 6443   2.031   2.942   3.221 -0.6138 -0.1950  0.1914
   72CHL1    H6 6444   2.121   2.902   3.172 -1.1793 -1.0351 -0.1911
   72CHL1    C7 6445   2.048   2.965   3.364  0.3792  0.1590 -0.0388
   72CHL1   H7A 6446   2.092   2.880   3.421  2.3958  0.9329 -0.3579
   72CHL1   H7B 6447   2.120   3.049   3.367 -1.5809  1.8924  0.0024
   72CHL1    C8 6448   1.913   3.004   3.428  0.9473  0.3866  0.2466
   72CHL1    H8 6449   1.849   2.915   3.447 -3.5123  3.3027  0.3439
   72CHL1   C14 6450   1.939   3.067   3.567 -0.0533 -0.4213 -0.3876
   72CHL1   H14 6451   1.984   3.164   3.540 -3.1847  1.5010  0.6956
   72CHL1   C15 6452   2.037   3.004   3.670  0.0366  0.6535 -0.9991
   72CHL1  H15A 6453   1.999   2.899   3.670  0.8802  0.3167  0.4673
   72CHL1  H15B 6454   2.140   3.001   3.629 -0.7784  0.3638 -3.1615
   72CHL1   C16 6455   2.003   3.061   3.803 -0.5603 -0.4753 -0.3828
   72CHL1  H16A 6456   1.998   2.976   3.874 -0.0146  0.1321  0.4034
   72CHL1  H16B 6457   2.086   3.130   3.830 -0.4294  0.5899 -3.1378
   72CHL1   C17 6458   1.872   3.148   3.785  0.0413 -0.1957  0.5237
   72CHL1   H17 6459   1.910   3.250   3.762  1.5497 -0.6390  0.9218
   72CHL1   C13 6460   1.808   3.095   3.649 -0.8624  0.6477 -0.0483
   72CHL1   C18 6461   1.738   2.958   3.674 -0.3292 -0.0230 -0.2827
   72CHL1  H18A 6462   1.710   2.909   3.578 -0.3674  0.7824 -0.6957
   72CHL1  H18B 6463   1.797   2.892   3.740 -0.0014  1.3056  0.7905
   72CHL1  H18C 6464   1.644   2.975   3.731  0.6983  0.3886  1.3246
   72CHL1   C12 6465   1.718   3.198   3.572  0.3687  0.3245  0.0265
   72CHL1  H12A 6466   1.625   3.214   3.631 -0.4328  1.1641 -1.3845
   72CHL1  H12B 6467   1.771   3.293   3.550  0.9445 -0.9948 -5.9483
   72CHL1   C11 6468   1.694   3.144   3.426 -0.0232  0.3554 -0.1563
   72CHL1  H11A 6469   1.624   3.059   3.438 -0.7260  1.0717  1.0344
   72CHL1  H11B 6470   1.629   3.210   3.364 -2.0707  0.5542  2.0478
   72CHL1    C9 6471   1.826   3.094   3.342 -0.1671  0.2024 -0.0209
   72CHL1    H9 6472   1.896   3.180   3.331 -1.9201  1.6316 -0.2983
   72CHL1   C10 6473   1.802   3.042   3.197 -0.1527 -0.1644 -0.1144
   72CHL1   C19 6474   1.693   2.932   3.203 -0.7763  0.3553 -0.5638
   72CHL1  H19A 6475   1.733   2.847   3.261  0.1639  0.6466 -0.7639
   72CHL1  H19B 6476   1.597   2.969   3.246 -0.1007 -0.6836  1.9717
   72CHL1  H19C 6477   1.676   2.895   3.100 -1.8929 -0.4549 -0.1047
   72CHL1    C1 6478   1.759   3.167   3.107 -0.1548  0.3132 -0.5215
   72CHL1   H1A 6479   1.673   3.220   3.152  1.4296  1.1535  1.6710
   72CHL1   H1B 6480   1.836   3.244   3.128  0.5123 -1.1591  3.3555
   72CHL1    C2 6481   1.758   3.130   2.957  0.3391 -0.0692 -0.3008
   72CHL1   H2A 6482   1.735   3.222   2.898 -2.9164 -0.4149  0.2395
   72CHL1   H2B 6483   1.669   3.068   2.933 -2.1212  3.1363 -0.1693
   72CHL1   C20 6484   1.774   3.161   3.900 -0.1240  0.4954 -0.2747
   72CHL1   H20 6485   1.668   3.149   3.867 -0.6291  0.2101  1.3560
   72CHL1   C21 6486   1.791   3.304   3.954  0.1033  0.4045  0.2000
   72CHL1  H21A 6487   1.769   3.379   3.875  2.3249 -1.0393 -1.9196
   72CHL1  H21B 6488   1.886   3.332   4.004 -0.8321 -0.1105  2.3835
   72CHL1  H21C 6489   1.718   3.323   4.036 -0.2168 -0.3099  0.0893
   72CHL1   C22 6490   1.795   3.067   4.018 -0.1499 -0.2104  0.1962
   72CHL1  H22A 6491   1.803   2.965   3.974  0.7708  0.0359 -0.2396
   72CHL1  H22B 6492   1.889   3.092   4.074 -0.2362  0.9238 -0.1426
   72CHL1   C23 6493   1.685   3.072   4.120  0.2406  0.4402  0.2546
   72CHL1  H23A 6494   1.683   3.164   4.182  1.1331 -0.9897  2.5306
   72CHL1  H23B 6495   1.593   3.077   4.058 -0.8982 -0.5801  1.8161
   72CHL1   C24 6496   1.680   2.938   4.196  1.1281  0.2917  0.3958
   72CHL1  H24A 6497   1.587   2.938   4.257  0.1700  1.6498 -1.0015
   72CHL1  H24B 6498   1.678   2.860   4.117  0.4778  0.6191  0.0728
   72CHL1   C25 6499   1.795   2.908   4.295 -0.1328  0.0225 -0.6551
   72CHL1   H25 6500   1.818   3.002   4.349 -1.6804 -0.3725  0.7677
   72CHL1   C26 6501   1.760   2.809   4.405 -0.2911  0.5518 -0.3993
   72CHL1  H26A 6502   1.842   2.770   4.468 -2.2815  0.6381  2.4174
   72CHL1  H26B 6503   1.675   2.849   4.465  0.2712  1.0754  0.0575
   72CHL1  H26C 6504   1.718   2.718   4.357  1.8191 -0.6596 -0.0417
   72CHL1   C27 6505   1.919   2.854   4.223 -0.6620 -0.4632  0.3117
   72CHL1  H27A 6506   1.963   2.917   4.143  1.5663 -1.7603  0.4528
   72CHL1  H27B 6507   1.996   2.832   4.299 -1.0036  0.8695  1.0717
   72CHL1  H27C 6508   1.894   2.759   4.171  1.6567 -1.5377  1.0239
   73CHL1    C3 6509   3.784   4.081   2.978  0.3750  0.9463  0.2038
   73CHL1    H3 6510   3.820   3.982   3.015 -2.5712 -1.3876 -2.6021
   73CHL1    O3 6511   3.828   4.090   2.843 -0.5196 -0.4188 -0.0755
   73CHL1   H3' 6512   3.799   4.176   2.812 -1.7038 -0.3237  1.1933
   73CHL1    C4 6513   3.632   4.096   2.980 -0.4340 -0.3836  0.5228
   73CHL1   H4A 6514   3.623   4.200   2.943 -0.6032 -0.5205  0.1744
   73CHL1   H4B 6515   3.585   4.022   2.911 -2.3921  2.4475 -1.4102
   73CHL1    C5 6516   3.577   4.096   3.122 -0.7391  0.0171  0.1357
   73CHL1    C6 6517   3.485   4.006   3.158  0.2517  0.2514  0.5263
   73CHL1    H6 6518   3.432   3.942   3.086 -1.9769  0.6477  1.7213
   73CHL1    C7 6519   3.433   4.004   3.299 -0.0450  0.9482  0.5289
   73CHL1   H7A 6520   3.323   4.018   3.293 -0.1225  0.0168 -0.4581
   73CHL1   H7B 6521   3.454   3.912   3.358 -1.8793  1.2931  1.8451
   73CHL1    C8 6522   3.466   4.128   3.394  0.3436 -0.3379 -0.6315
   73CHL1    H8 6523   3.399   4.215   3.374  2.8756  2.2373  1.1863
   73CHL1   C14 6524   3.451   4.078   3.537  0.3402  0.2634  0.7089
   73CHL1   H14 6525   3.520   3.994   3.561 -0.0615 -0.6115 -1.0847
   73CHL1   C15 6526   3.307   4.031   3.593 -0.1949 -0.2540  0.0551
   73CHL1  H15A 6527   3.224   4.083   3.540 -0.9239 -1.2722  0.1792
   73CHL1  H15B 6528   3.302   3.921   3.587 -1.2106 -0.1750 -0.8275
   73CHL1   C16 6529   3.314   4.067   3.740 -0.3449 -0.2497  0.0167
   73CHL1  H16A 6530   3.232   4.138   3.763 -0.0482  0.6988 -1.6365
   73CHL1  H16B 6531   3.317   3.975   3.802  1.4452 -1.3229 -1.5359
   73CHL1   C17 6532   3.455   4.135   3.769 -0.3177 -0.3072 -0.5611
   73CHL1   H17 6533   3.529   4.054   3.791 -0.6776 -0.6058 -0.4328
   73CHL1   C13 6534   3.493   4.198   3.634  0.2380  0.2440  0.0907
   73CHL1   C18 6535   3.401   4.324   3.619 -0.4581  0.1971 -0.4559
   73CHL1  H18A 6536   3.293   4.301   3.632  0.1662 -1.6782  2.4619
   73CHL1  H18B 6537   3.423   4.404   3.694 -0.0284 -1.5577  1.3757
   73CHL1  H18C 6538   3.413   4.374   3.521  0.8755 -1.0619 -0.9679
   73CHL1   C12 6539   3.643   4.218   3.622  0.0508 -0.5004 -0.1471
   73CHL1  H12A 6540   3.665   4.308   3.683 -1.7932  1.7032 -2.5521
   73CHL1  H12B 6541   3.695   4.126   3.657  2.0348  0.1964 -1.1065
   73CHL1   C11 6542   3.682   4.251   3.477  0.3289 -0.0615  0.6015
   73CHL1  H11A 6543   3.645   4.352   3.450  3.2256  0.5433 -1.6512
   73CHL1  H11B 6544   3.793   4.251   3.470  0.4158 -0.9086  1.7764
   73CHL1    C9 6545   3.619   4.161   3.371  0.1790  0.0760  0.0004
   73CHL1    H9 6546   3.661   4.058   3.377 -0.8227 -0.3791 -0.5213
   73CHL1   C10 6547   3.645   4.195   3.220 -0.2267 -0.9116 -0.3116
   73CHL1   C19 6548   3.590   4.335   3.192  0.3866 -0.6093  0.2450
   73CHL1  H19A 6549   3.624   4.380   3.096  1.2853 -0.2204  0.7358
   73CHL1  H19B 6550   3.479   4.336   3.199  0.3234 -0.3284 -0.6765
   73CHL1  H19C 6551   3.631   4.413   3.259 -1.0202  0.4096 -0.0463
   73CHL1    C1 6552   3.793   4.193   3.199 -0.5061 -0.0564 -0.4357
   73CHL1   H1A 6553   3.837   4.284   3.246 -0.5989  1.4396 -3.0445
   73CHL1   H1B 6554   3.828   4.096   3.240 -4.3578 -1.1560  0.6148
   73CHL1    C2 6555   3.849   4.194   3.057 -0.1709 -0.0010  0.2324
   73CHL1   H2A 6556   3.959   4.201   3.059 -0.2876  2.7916  1.9655
   73CHL1   H2B 6557   3.829   4.293   3.010 -0.0006 -0.2695 -0.4224
   73CHL1   C20 6558   3.444   4.223   3.898 -0.5145  0.1815  0.4069
   73CHL1   H20 6559   3.360   4.293   3.882 -0.9192 -0.6530 -1.2748
   73CHL1   C21 6560   3.570   4.302   3.928  0.7770 -0.7794  0.5262
   73CHL1  H21A 6561   3.577   4.384   3.853  1.3892 -0.6191  0.7471
   73CHL1  H21B 6562   3.656   4.241   3.893  1.3130  1.4121 -2.3863
   73CHL1  H21C 6563   3.595   4.331   4.033  0.7451 -1.2745  0.6705
   73CHL1   C22 6564   3.407   4.142   4.019  0.3028 -0.1963 -0.7375
   73CHL1  H22A 6565   3.305   4.099   4.001  0.5607 -0.4891 -1.5785
   73CHL1  H22B 6566   3.480   4.058   4.021 -2.4124 -2.7952 -1.8825
   73CHL1   C23 6567   3.379   4.222   4.150 -0.4988  0.3924 -0.4115
   73CHL1  H23A 6568   3.475   4.256   4.195  1.0369 -1.2901 -2.2416
   73CHL1  H23B 6569   3.317   4.312   4.128  0.0662  1.0919  0.7732
   73CHL1   C24 6570   3.304   4.152   4.267 -0.4886 -0.5115  0.6536
   73CHL1  H24A 6571   3.203   4.122   4.231 -0.9241 -0.6548  1.9190
   73CHL1  H24B 6572   3.365   4.068   4.306  0.6372  0.3040  0.7023
   73CHL1   C25 6573   3.274   4.253   4.378 -0.0315 -0.5302 -0.4132
   73CHL1   H25 6574   3.236   4.352   4.343  0.2398 -0.2664  0.0208
   73CHL1   C26 6575   3.157   4.197   4.464 -0.2104 -0.9802 -0.8240
   73CHL1  H26A 6576   3.209   4.128   4.533  1.8435  1.2686  0.0253
   73CHL1  H26B 6577   3.113   4.279   4.525  2.2296 -0.0778 -0.1736
   73CHL1  H26C 6578   3.077   4.156   4.399 -0.4899 -0.3455 -0.8920
   73CHL1   C27 6579   3.399   4.288   4.460  0.2011  0.2713  0.3549
   73CHL1  H27A 6580   3.471   4.333   4.389 -1.3982  0.3281 -1.3056
   73CHL1  H27B 6581   3.380   4.368   4.536  1.2939  0.9336 -0.0556
   73CHL1  H27C 6582   3.443   4.201   4.514  2.0790  0.2167 -1.1738
   74CHL1    C3 6583   3.147   4.149   2.734 -0.2735 -0.0880  0.2445
   74CHL1    H3 6584   3.064   4.083   2.769  0.3257  0.1464  2.2119
   74CHL1    O3 6585   3.198   4.119   2.612 -0.0252 -0.6487  0.1186
   74CHL1   H3' 6586   3.287   4.157   2.611  0.4449 -1.6106  1.6683
   74CHL1    C4 6587   3.101   4.293   2.723  0.4032 -0.2467 -0.7779
   74CHL1   H4A 6588   3.191   4.352   2.694  1.5545 -0.6409  1.6688
   74CHL1   H4B 6589   3.024   4.321   2.648  0.2419  1.9670  0.1565
   74CHL1    C5 6590   3.057   4.345   2.862  0.4475 -0.3285  0.3198
   74CHL1    C6 6591   2.935   4.404   2.885 -0.4369 -0.4881  0.2355
   74CHL1    H6 6592   2.855   4.417   2.811  0.2893 -0.2755 -0.5174
   74CHL1    C7 6593   2.878   4.460   3.015  0.2048 -0.2708 -0.5309
   74CHL1   H7A 6594   2.840   4.558   2.980 -0.1523 -0.5188 -0.8480
   74CHL1   H7B 6595   2.794   4.395   3.047  0.4227 -0.4158 -0.2423
   74CHL1    C8 6596   2.988   4.470   3.121  0.2215 -0.1621 -0.2526
   74CHL1    H8 6597   3.055   4.556   3.102 -0.8932  0.9358  0.5761
   74CHL1   C14 6598   2.915   4.473   3.263  0.0413 -0.4307 -0.0600
   74CHL1   H14 6599   2.856   4.380   3.274 -2.6225  1.0141 -1.2615
   74CHL1   C15 6600   2.806   4.578   3.273 -0.5606  0.6727 -0.6206
   74CHL1  H15A 6601   2.841   4.668   3.217  0.0402  1.3750  0.8367
   74CHL1  H15B 6602   2.710   4.546   3.228 -0.7961  0.8254 -0.2355
   74CHL1   C16 6603   2.797   4.609   3.424 -0.1967 -0.0569  0.4812
   74CHL1  H16A 6604   2.816   4.715   3.451 -0.4741 -0.0577  0.6777
   74CHL1  H16B 6605   2.696   4.584   3.462 -0.2389 -1.2627 -0.3633
   74CHL1   C17 6606   2.905   4.517   3.494 -0.2439  1.3601  0.1419
   74CHL1   H17 6607   2.861   4.417   3.513 -1.8719  2.3085  1.6222
   74CHL1   C13 6608   3.011   4.494   3.377 -0.1753  0.2833  0.4093
   74CHL1   C18 6609   3.090   4.632   3.362 -0.4981  0.2011  0.1718
   74CHL1  H18A 6610   3.156   4.632   3.272 -2.6177  0.5100 -1.4711
   74CHL1  H18B 6611   3.014   4.713   3.355 -1.1123 -0.3681  0.0850
   74CHL1  H18C 6612   3.153   4.645   3.452  0.6730 -1.4693 -0.3571
   74CHL1   C12 6613   3.113   4.376   3.371 -0.1719  0.1895  0.1738
   74CHL1  H12A 6614   3.194   4.384   3.447  0.1825 -0.6543 -0.1006
   74CHL1  H12B 6615   3.066   4.280   3.404 -0.7706  0.0479 -1.0689
   74CHL1   C11 6616   3.180   4.341   3.239 -0.4904 -0.1179  0.4422
   74CHL1  H11A 6617   3.261   4.413   3.218  0.7014 -1.8400 -1.2400
   74CHL1  H11B 6618   3.221   4.238   3.243 -0.6914 -0.2240 -0.1163
   74CHL1    C9 6619   3.081   4.351   3.113  0.1727  0.5966  0.0002
   74CHL1    H9 6620   3.018   4.265   3.146  0.9631 -1.4710 -3.3589
   74CHL1   C10 6621   3.154   4.323   2.979  0.3922 -0.1258 -0.1624
   74CHL1   C19 6622   3.268   4.421   2.957 -0.1411 -0.3703  0.2951
   74CHL1  H19A 6623   3.322   4.398   2.862  0.1505 -0.5716  0.5088
   74CHL1  H19B 6624   3.218   4.519   2.973 -2.4008 -1.1929 -1.1949
   74CHL1  H19C 6625   3.345   4.411   3.037 -0.6841  2.0008  1.2103
   74CHL1    C1 6626   3.207   4.182   2.973  0.1076  0.0681  1.1382
   74CHL1   H1A 6627   3.284   4.166   3.052 -1.1510 -1.9159  2.0386
   74CHL1   H1B 6628   3.131   4.109   3.010 -1.3783  0.7587 -0.4121
   74CHL1    C2 6629   3.259   4.139   2.834 -0.1262 -0.6077  0.0437
   74CHL1   H2A 6630   3.284   4.031   2.840 -2.1407 -1.0941  0.4403
   74CHL1   H2B 6631   3.346   4.204   2.812 -0.4584  1.0055  2.9797
   74CHL1   C20 6632   2.961   4.572   3.624  0.0705 -0.4493  0.5629
   74CHL1   H20 6633   3.004   4.672   3.604 -1.5374 -0.1248 -1.7765
   74CHL1   C21 6634   3.062   4.473   3.673 -0.7456  0.8311 -0.2688
   74CHL1  H21A 6635   3.048   4.378   3.618 -1.5932  1.2041 -0.7069
   74CHL1  H21B 6636   3.048   4.439   3.778  1.3562  0.2490 -0.1251
   74CHL1  H21C 6637   3.168   4.502   3.657 -0.8228  1.0447 -0.3915
   74CHL1   C22 6638   2.845   4.608   3.722  1.1117 -0.5755 -0.4590
   74CHL1  H22A 6639   2.767   4.671   3.675 -0.3319 -1.8216  0.1770
   74CHL1  H22B 6640   2.804   4.514   3.766 -0.6218  0.0502 -0.6676
   74CHL1   C23 6641   2.893   4.684   3.846  0.0445 -0.1277  0.1642
   74CHL1  H23A 6642   2.985   4.635   3.886 -0.4942 -0.3364  1.1651
   74CHL1  H23B 6643   2.923   4.788   3.818 -0.7321  0.2023  0.5525
   74CHL1   C24 6644   2.797   4.694   3.959  0.2225 -0.0955 -0.2902
   74CHL1  H24A 6645   2.703   4.741   3.923 -1.0585 -0.3320  2.4146
   74CHL1  H24B 6646   2.766   4.592   3.992  0.6108  0.3169  1.4906
   74CHL1   C25 6647   2.860   4.770   4.079 -0.8120  0.3990  0.3924
   74CHL1   H25 6648   2.920   4.851   4.033  0.8527  0.1685  2.0137
   74CHL1   C26 6649   2.761   4.826   4.180 -0.2888  0.4449  0.7751
   74CHL1  H26A 6650   2.687   4.887   4.124 -0.0740  3.2159  3.2068
   74CHL1  H26B 6651   2.705   4.743   4.229  0.4179  0.4330  1.5912
   74CHL1  H26C 6652   2.805   4.882   4.265 -1.5924  1.8878  0.5429
   74CHL1   C27 6653   2.956   4.689   4.164  1.0820 -0.2431  0.0231
   74CHL1  H27A 6654   3.019   4.753   4.230 -1.9321  1.9693  0.9691
   74CHL1  H27B 6655   2.893   4.629   4.233  0.5617  1.1900  0.8408
   74CHL1  H27C 6656   3.011   4.612   4.107  0.9258 -0.6435  0.4023
   75CHL1    C3 6657   3.698   3.646   2.496  0.4281 -0.3772  0.0155
   75CHL1    H3 6658   3.800   3.691   2.499  1.0110 -1.5793 -0.8097
   75CHL1    O3 6659   3.670   3.636   2.357 -0.5089  0.1803 -0.0951
   75CHL1   H3' 6660   3.614   3.712   2.340 -2.4160 -1.3722 -1.1105
   75CHL1    C4 6661   3.697   3.503   2.555 -0.1158 -0.1766  0.0443
   75CHL1   H4A 6662   3.601   3.456   2.524  0.5910 -0.5276 -1.6993
   75CHL1   H4B 6663   3.777   3.445   2.504 -0.0544 -0.4321  0.4277
   75CHL1    C5 6664   3.717   3.486   2.708  0.4684  0.1604  0.1044
   75CHL1    C6 6665   3.814   3.413   2.756 -0.7454 -0.5231  0.8228
   75CHL1    H6 6666   3.867   3.345   2.687 -0.7889 -0.9801  1.2396
   75CHL1    C7 6667   3.843   3.398   2.906  0.2812 -0.0436  0.8331
   75CHL1   H7A 6668   3.856   3.292   2.937 -1.9995 -0.3372  0.9438
   75CHL1   H7B 6669   3.935   3.454   2.936  2.8292 -2.6424 -1.4698
   75CHL1    C8 6670   3.727   3.456   2.989  0.3216 -0.3653 -0.4437
   75CHL1    H8 6671   3.645   3.383   2.973  0.2687 -0.1430 -1.2357
   75CHL1   C14 6672   3.759   3.467   3.142 -0.1571  1.0560  0.1937
   75CHL1   H14 6673   3.845   3.538   3.140 -0.5016  1.4925 -1.6717
   75CHL1   C15 6674   3.802   3.331   3.215 -0.4159  0.1440  0.2041
   75CHL1  H15A 6675   3.732   3.247   3.193  1.0911 -1.1515  0.2220
   75CHL1  H15B 6676   3.907   3.299   3.206 -0.8999 -2.0398  1.6334
   75CHL1   C16 6677   3.784   3.375   3.362 -0.4302 -0.0143 -0.5572
   75CHL1  H16A 6678   3.736   3.298   3.427 -2.0142  2.3681  1.2705
   75CHL1  H16B 6679   3.887   3.394   3.400 -0.2716 -1.6295 -0.1164
   75CHL1   C17 6680   3.707   3.517   3.373  0.1705  0.6316 -0.2071
   75CHL1   H17 6681   3.784   3.596   3.384  0.6486  0.1398  0.0606
   75CHL1   C13 6682   3.650   3.530   3.230 -0.4018  0.3049 -0.4349
   75CHL1   C18 6683   3.522   3.442   3.220 -0.4575  0.1193  0.8130
   75CHL1  H18A 6684   3.494   3.415   3.116  0.6276 -0.9906  0.7821
   75CHL1  H18B 6685   3.520   3.343   3.271  0.1947 -0.3685 -0.0665
   75CHL1  H18C 6686   3.435   3.499   3.258 -0.6120  1.2333 -1.0768
   75CHL1   C12 6687   3.623   3.669   3.178  1.2851 -0.1437 -0.5309
   75CHL1  H12A 6688   3.535   3.712   3.231  1.6936  2.4408 -1.7943
   75CHL1  H12B 6689   3.711   3.732   3.202  1.1260 -0.3391  0.6677
   75CHL1   C11 6690   3.573   3.672   3.035 -0.0039 -0.1603  0.2487
   75CHL1  H11A 6691   3.471   3.629   3.027  0.2353 -0.5543 -0.6848
   75CHL1  H11B 6692   3.570   3.775   2.993  2.3496 -0.4245 -0.7458
   75CHL1    C9 6693   3.675   3.591   2.937 -0.1660  1.1321 -0.6562
   75CHL1    H9 6694   3.762   3.658   2.951  1.0362 -0.3500 -0.8163
   75CHL1   C10 6695   3.633   3.585   2.784 -0.6667 -0.2239 -0.5409
   75CHL1   C19 6696   3.486   3.522   2.778  0.2208 -0.2524  0.4709
   75CHL1  H19A 6697   3.445   3.524   2.675  0.7170  0.9530  0.2704
   75CHL1  H19B 6698   3.480   3.418   2.817 -2.5878 -0.8108 -1.1606
   75CHL1  H19C 6699   3.423   3.599   2.828  1.5662  0.0965  1.6815
   75CHL1    C1 6700   3.627   3.729   2.719 -0.0383  0.8502 -0.1645
   75CHL1   H1A 6701   3.553   3.790   2.774  1.1717  0.9212  1.4680
   75CHL1   H1B 6702   3.728   3.770   2.745  0.5566 -0.9646  0.5073
   75CHL1    C2 6703   3.596   3.729   2.572 -0.1584  0.4397 -0.6567
   75CHL1   H2A 6704   3.591   3.834   2.538 -2.9506  0.2842 -1.0010
   75CHL1   H2B 6705   3.497   3.679   2.565  0.3127 -0.6549  0.1602
   75CHL1   C20 6706   3.610   3.528   3.495  0.4199 -0.3098 -0.0712
   75CHL1   H20 6707   3.513   3.479   3.468  1.5162 -2.0384 -1.0522
   75CHL1   C21 6708   3.576   3.673   3.515  0.2690 -0.1707  0.2186
   75CHL1  H21A 6709   3.671   3.730   3.502 -0.6994  1.1474 -1.6591
   75CHL1  H21B 6710   3.540   3.707   3.614 -1.1492  2.7508 -1.1652
   75CHL1  H21C 6711   3.504   3.708   3.438 -0.6029 -0.6255  0.8216
   75CHL1   C22 6712   3.652   3.457   3.626  0.0571  0.1531 -0.7042
   75CHL1  H22A 6713   3.560   3.463   3.687 -0.0547 -0.0290 -0.8550
   75CHL1  H22B 6714   3.675   3.351   3.603  0.7252 -0.0349  0.7527
   75CHL1   C23 6715   3.768   3.521   3.698 -1.2585  0.1401  0.1585
   75CHL1  H23A 6716   3.855   3.542   3.632 -0.3105 -1.5846  0.7806
   75CHL1  H23B 6717   3.733   3.620   3.732 -1.5156 -0.5948  2.1342
   75CHL1   C24 6718   3.827   3.433   3.812  0.0744 -0.1672  0.3626
   75CHL1  H24A 6719   3.848   3.334   3.765  2.1312  0.4592 -0.1741
   75CHL1  H24B 6720   3.923   3.472   3.851  0.8094 -2.7287  1.3775
   75CHL1   C25 6721   3.725   3.416   3.930 -0.1645  0.5076 -0.6752
   75CHL1   H25 6722   3.642   3.366   3.876 -0.3895  0.1345  0.0063
   75CHL1   C26 6723   3.790   3.304   4.023  0.1392  0.4773  0.5402
   75CHL1  H26A 6724   3.889   3.339   4.061 -0.1940  0.2458  1.6405
   75CHL1  H26B 6725   3.729   3.288   4.114  1.7402 -0.0564  1.5646
   75CHL1  H26C 6726   3.807   3.209   3.968 -0.7163 -0.2888  1.5672
   75CHL1   C27 6727   3.679   3.540   4.001 -0.1135 -0.5807 -0.5135
   75CHL1  H27A 6728   3.591   3.532   4.069 -0.6490 -2.1428 -1.3564
   75CHL1  H27B 6729   3.770   3.583   4.049 -0.0353 -0.9611 -0.3221
   75CHL1  H27C 6730   3.648   3.620   3.930 -1.4581  0.7501  1.4728
   76CHL1    C3 6731   1.248   2.765   2.931 -0.6146 -0.1233  0.4085
   76CHL1    H3 6732   1.308   2.675   2.959 -2.0885 -0.9186  1.1550
   76CHL1    O3 6733   1.235   2.762   2.791  0.2361  0.1961 -0.5777
   76CHL1   H3' 6734   1.148   2.796   2.768  0.1099  0.3171  0.0615
   76CHL1    C4 6735   1.115   2.745   2.996 -0.0760  0.0268 -0.2833
   76CHL1   H4A 6736   1.047   2.830   2.973  0.0575  0.0444 -0.6257
   76CHL1   H4B 6737   1.067   2.655   2.952  0.6371 -0.1168 -0.7901
   76CHL1    C5 6738   1.127   2.735   3.149  0.6580 -0.4325  0.3069
   76CHL1    C6 6739   1.093   2.625   3.223  0.3580  0.4847 -0.6538
   76CHL1    H6 6740   1.057   2.532   3.176 -1.9379  0.2115  1.4080
   76CHL1    C7 6741   1.103   2.614   3.377 -0.0321  0.1864  0.6669
   76CHL1   H7A 6742   1.006   2.574   3.411  0.1240 -0.0552  0.8364
   76CHL1   H7B 6743   1.193   2.550   3.392 -1.1174 -1.2210  1.4616
   76CHL1    C8 6744   1.145   2.744   3.444 -0.1984 -1.0094 -0.3540
   76CHL1    H8 6745   1.052   2.802   3.462 -0.3686 -1.5987  0.7416
   76CHL1   C14 6746   1.211   2.716   3.579  0.0613  0.0814 -0.0566
   76CHL1   H14 6747   1.307   2.661   3.565 -0.1792 -0.1081 -1.0623
   76CHL1   C15 6748   1.120   2.630   3.676 -0.6210 -0.8159  0.2623
   76CHL1  H15A 6749   1.017   2.672   3.669 -0.6528 -0.2095  3.1059
   76CHL1  H15B 6750   1.130   2.520   3.662 -0.2832 -0.7554  0.0229
   76CHL1   C16 6751   1.180   2.665   3.813  0.4437 -0.0185 -0.6699
   76CHL1  H16A 6752   1.093   2.682   3.880 -0.4178 -0.6963 -1.5968
   76CHL1  H16B 6753   1.231   2.572   3.847  0.9684 -0.0004 -1.3853
   76CHL1   C17 6754   1.282   2.780   3.798 -0.9667 -0.0891  0.3659
   76CHL1   H17 6755   1.381   2.733   3.783 -0.3339  1.2250  0.3313
   76CHL1   C13 6756   1.239   2.844   3.663 -0.1640 -0.7587 -0.2391
   76CHL1   C18 6757   1.113   2.935   3.682  0.5006 -0.1499  0.3833
   76CHL1  H18A 6758   1.128   3.027   3.743 -0.7770  1.5412 -1.7085
   76CHL1  H18B 6759   1.069   2.957   3.583  0.7353 -0.9840  0.0846
   76CHL1  H18C 6760   1.040   2.876   3.741 -2.0055 -0.7123 -3.0119
   76CHL1   C12 6761   1.347   2.910   3.579  0.0665 -0.5123 -0.1498
   76CHL1  H12A 6762   1.376   3.005   3.630  0.9572 -0.3901 -0.8625
   76CHL1  H12B 6763   1.440   2.850   3.586  0.5582  0.1125 -1.0693
   76CHL1   C11 6764   1.308   2.940   3.438  0.3930  0.0220  0.0972
   76CHL1  H11A 6765   1.243   3.030   3.438  0.6576  0.2164  0.0869
   76CHL1  H11B 6766   1.395   2.977   3.379 -1.4559  1.4717 -1.8352
   76CHL1    C9 6767   1.242   2.827   3.363  0.3292  0.1133 -0.2288
   76CHL1    H9 6768   1.319   2.749   3.343 -0.6140 -0.1236 -3.5260
   76CHL1   C10 6769   1.200   2.855   3.213 -0.2651  0.4131  0.9521
   76CHL1   C19 6770   1.092   2.973   3.203 -0.2382 -0.5546 -0.5734
   76CHL1  H19A 6771   1.004   2.950   3.268 -0.5786  0.6643 -0.5708
   76CHL1  H19B 6772   1.139   3.065   3.242  0.0127 -0.1052 -1.8791
   76CHL1  H19C 6773   1.058   2.998   3.100  0.9705  1.2372 -0.5806
   76CHL1    C1 6774   1.331   2.892   3.139  0.3919 -0.4814  0.3699
   76CHL1   H1A 6775   1.358   2.996   3.166  1.5656 -0.1461 -1.8499
   76CHL1   H1B 6776   1.415   2.821   3.156  0.0410 -0.9598  0.1449
   76CHL1    C2 6777   1.321   2.893   2.984  0.6374 -0.7337 -0.8508
   76CHL1   H2A 6778   1.424   2.903   2.942  0.9433  0.4802  0.1570
   76CHL1   H2B 6779   1.259   2.976   2.944  2.0900  1.4540  1.1925
   76CHL1   C20 6780   1.309   2.861   3.927 -0.1934  0.5001  0.6779
   76CHL1   H20 6781   1.367   2.953   3.902  1.1315 -0.1089  1.4143
   76CHL1   C21 6782   1.409   2.772   4.013 -0.0696 -0.5365 -0.4592
   76CHL1  H21A 6783   1.507   2.770   3.961  2.0011 -2.2959  3.1483
   76CHL1  H21B 6784   1.375   2.668   4.027 -1.3329  0.0701  1.3449
   76CHL1  H21C 6785   1.429   2.812   4.115 -0.3899  1.0366 -0.9909
   76CHL1   C22 6786   1.191   2.899   4.009  0.0052  0.4388 -0.0974
   76CHL1  H22A 6787   1.107   2.939   3.948 -0.0013  1.5658  0.6269
   76CHL1  H22B 6788   1.161   2.806   4.062  0.7686  0.1475 -0.1658
   76CHL1   C23 6789   1.238   3.002   4.119  0.5560  0.0887 -0.1586
   76CHL1  H23A 6790   1.336   2.977   4.164  0.1315 -1.1219  0.1265
   76CHL1  H23B 6791   1.249   3.098   4.064  1.7032  0.5765  0.8868
   76CHL1   C24 6792   1.141   3.018   4.242 -0.0455  0.0171 -0.2324
   76CHL1  H24A 6793   1.121   2.920   4.291  3.0892 -0.7817 -0.3061
   76CHL1  H24B 6794   1.195   3.083   4.314 -2.1238  1.5602  0.0081
   76CHL1   C25 6795   1.003   3.075   4.216 -0.9711 -0.1113  0.7501
   76CHL1   H25 6796   0.952   3.005   4.146 -1.1053  1.9340 -1.2838
   76CHL1   C26 6797   0.932   3.091   4.352  0.5590 -0.4379 -0.4279
   76CHL1  H26A 6798   0.990   3.155   4.423 -0.8958  1.1567 -0.6255
   76CHL1  H26B 6799   0.835   3.139   4.329 -1.0527 -3.0452  0.5526
   76CHL1  H26C 6800   0.905   2.995   4.400  0.4889 -0.6714 -0.9282
   76CHL1   C27 6801   0.997   3.207   4.138 -0.9142  1.1340 -0.5136
   76CHL1  H27A 6802   1.035   3.190   4.034 -0.1114  2.1551 -0.4124
   76CHL1  H27B 6803   0.892   3.241   4.127 -0.7378  2.1224  0.6573
   76CHL1  H27C 6804   1.062   3.280   4.191  2.9004 -0.3189 -2.7609
   77SOPE     N 6805   0.430   1.467   6.869  0.2300  0.0121 -0.1141
   77SOPE   HN1 6806   0.497   1.460   6.948  0.3499  0.8575 -0.1360
   77SOPE   HN2 6807   0.379   1.376   6.864 -1.3929  0.9404 -1.8063
   77SOPE   HN3 6808   0.469   1.504   6.780 -0.5700 -1.0439 -0.9326
   77SOPE   C12 6809   0.321   1.562   6.913 -0.1103  0.1402  0.4736
   77SOPE  H12A 6810   0.335   1.667   6.881 -1.3176  0.1959  0.0887
   77SOPE  H12B 6811   0.320   1.566   7.024 -0.1359  0.0233  0.4784
   77SOPE   C11 6812   0.181   1.511   6.861  0.5442 -0.3806 -0.0104
   77SOPE  H11A 6813   0.161   1.552   6.760 -0.4609  1.5490  0.9198
   77SOPE  H11B 6814   0.114   1.568   6.929 -0.7193 -0.3043 -1.2740
   77SOPE     P 6815   0.046   1.282   6.909 -0.3096  0.0898 -0.1167
   77SOPE   O13 6816  -0.043   1.340   7.015  0.1086  0.5906  0.0576
   77SOPE   O14 6817   0.094   1.140   6.937  0.1245  0.4716  0.5565
   77SOPE   O12 6818   0.178   1.369   6.881  0.9693 -0.0017  0.0312
   77SOPE   O11 6819  -0.026   1.281   6.774  0.2079 -0.2000  0.8604
   77SOPE    C1 6820   0.033   1.243   6.648 -0.3016 -0.0676 -0.9548
   77SOPE    HA 6821  -0.024   1.159   6.603  0.8884 -0.9746 -0.7961
   77SOPE    HB 6822   0.138   1.208   6.659 -0.1911  0.8977  2.0405
   77SOPE    C2 6823   0.046   1.361   6.547  0.0189  0.3051  0.5669
   77SOPE    HS 6824   0.067   1.455   6.602  1.1941  1.6066 -1.9408
   77SOPE   O21 6825  -0.083   1.363   6.475 -0.0662  0.3804  0.8935
   77SOPE   C21 6826  -0.124   1.485   6.435  0.3796  0.3267  0.3376
   77SOPE   O22 6827  -0.072   1.591   6.457 -0.5318 -0.6931 -0.2644
   77SOPE   C22 6828  -0.254   1.462   6.358  0.0604  0.1538  0.0244
   77SOPE   H2R 6829  -0.335   1.518   6.410 -0.3328  0.2643 -0.7028
   77SOPE   H2S 6830  -0.287   1.356   6.354  3.7616 -1.1313 -0.3382
   77SOPE    C3 6831   0.156   1.326   6.440 -0.5230  0.5538  0.5201
   77SOPE    HX 6832   0.136   1.222   6.406  1.3086  0.7288 -1.3165
   77SOPE    HY 6833   0.259   1.313   6.480  0.5110  1.7076 -1.6114
   77SOPE   O31 6834   0.149   1.405   6.322 -0.0750 -0.5219 -0.2432
   77SOPE   C31 6835   0.220   1.520   6.323 -0.5147  0.4567 -0.0332
   77SOPE   O32 6836   0.298   1.550   6.412  0.2197 -0.4152 -0.2040
   77SOPE   C32 6837   0.215   1.582   6.186  0.2966  0.0985  0.4358
   77SOPE   H2X 6838   0.252   1.687   6.191 -0.5939  0.4864 -0.7596
   77SOPE   H2Y 6839   0.111   1.602   6.152 -0.2002  0.1024  1.8779
   77SOPE   C23 6840  -0.239   1.525   6.222  0.0119 -0.5127  0.5259
   77SOPE   H3R 6841  -0.167   1.476   6.153  0.3524 -0.2778  0.7040
   77SOPE   H3S 6842  -0.190   1.625   6.227 -1.1773  0.2214 -1.5177
   77SOPE   C24 6843  -0.373   1.550   6.149 -0.0886 -0.7903  0.2697
   77SOPE   H4R 6844  -0.417   1.453   6.117 -2.4069  0.7900 -1.6092
   77SOPE   H4S 6845  -0.438   1.584   6.233  1.7232  0.2714  1.3096
   77SOPE   C25 6846  -0.362   1.652   6.034  0.9698  0.4434  0.9904
   77SOPE   H5R 6847  -0.459   1.662   5.980  1.1382 -1.7215  0.1954
   77SOPE   H5S 6848  -0.338   1.753   6.073  0.4467  1.3444 -0.8782
   77SOPE   C26 6849  -0.258   1.627   5.923  0.0279  0.4452 -0.7539
   77SOPE   H6R 6850  -0.245   1.706   5.846 -1.9039  1.4932 -0.0730
   77SOPE   H6S 6851  -0.161   1.604   5.973 -1.0164 -2.0159  0.2605
   77SOPE   C27 6852  -0.282   1.492   5.844  0.1348 -0.4247  0.1930
   77SOPE   H7R 6853  -0.279   1.408   5.917  1.5627 -0.1036  0.5412
   77SOPE   H7S 6854  -0.377   1.493   5.786 -0.7861  0.6009  1.6125
   77SOPE   C28 6855  -0.174   1.455   5.741 -0.5066  0.3779 -0.9990
   77SOPE   H8R 6856  -0.077   1.485   5.785 -1.2904  0.0055  1.1234
   77SOPE   H8S 6857  -0.173   1.343   5.739 -0.0184  0.3831 -1.1559
   77SOPE   C29 6858  -0.204   1.514   5.608 -0.7183 -0.1610  0.0927
   77SOPE   H91 6859  -0.183   1.622   5.610  1.5984 -0.5659  0.9059
   77SOPE  C210 6860  -0.243   1.461   5.495 -0.2445  0.0677  0.0846
   77SOPE  H101 6861  -0.265   1.537   5.419 -0.4417  1.0935  1.1482
   77SOPE  C211 6862  -0.263   1.317   5.450  0.2266 -0.3318 -0.0202
   77SOPE  H11R 6863  -0.372   1.294   5.439  0.1541 -0.8944  1.6204
   77SOPE  H11S 6864  -0.238   1.251   5.536  0.4696  0.1553  0.2838
   77SOPE  C212 6865  -0.172   1.293   5.322  0.0078 -0.2010 -0.3625
   77SOPE  H12R 6866  -0.161   1.184   5.307  0.7025 -0.1874  0.0384
   77SOPE  H12S 6867  -0.071   1.334   5.342 -0.4508  0.3514  0.9336
   77SOPE  C213 6868  -0.241   1.344   5.196 -0.3319 -0.0228 -0.2563
   77SOPE  H13R 6869  -0.265   1.452   5.204  3.0628  1.1997 -3.6559
   77SOPE  H13S 6870  -0.342   1.298   5.186 -0.9108  0.7943  1.3854
   77SOPE  C214 6871  -0.155   1.307   5.083 -0.5218 -0.3771 -0.3269
   77SOPE  H14R 6872  -0.125   1.201   5.088 -1.3745 -0.7166 -1.8854
   77SOPE  H14S 6873  -0.066   1.373   5.089  0.4028 -1.7018  1.2737
   77SOPE  C215 6874  -0.220   1.331   4.938 -0.0524  0.1222  0.0499
   77SOPE  H15R 6875  -0.252   1.436   4.920  0.6370  0.8897  2.8564
   77SOPE  H15S 6876  -0.306   1.262   4.935 -0.0464  0.1191 -0.0470
   77SOPE  C216 6877  -0.127   1.288   4.826  0.6050  0.0880  0.4202
   77SOPE  H16R 6878  -0.111   1.180   4.846 -3.0045 -0.2012  2.6460
   77SOPE  H16S 6879  -0.030   1.341   4.839 -0.2589  1.7787  0.2955
   77SOPE  C217 6880  -0.196   1.314   4.693  0.2530 -0.7374 -0.2889
   77SOPE  H17R 6881  -0.194   1.425   4.699  1.1077 -0.7900  4.1973
   77SOPE  H17S 6882  -0.296   1.268   4.679 -0.6057  0.1478  2.2956
   77SOPE  C218 6883  -0.102   1.266   4.582  0.6690  0.5101 -0.1547
   77SOPE  H18R 6884  -0.120   1.306   4.480  0.0922 -0.1921 -0.3368
   77SOPE  H18S 6885  -0.101   1.155   4.575 -0.1301  0.5336 -0.8866
   77SOPE  H18T 6886  -0.001   1.296   4.615  0.3839 -1.5390  2.9499
   77SOPE   C33 6887   0.284   1.501   6.080  0.2609  0.6112  0.3672
   77SOPE   H3X 6888   0.261   1.393   6.098 -2.1806  1.3851  2.5160
   77SOPE   H3Y 6889   0.393   1.523   6.085 -0.0048  1.8469  1.1493
   77SOPE   C34 6890   0.226   1.534   5.940 -0.0580 -0.3065  0.1965
   77SOPE   H4X 6891   0.249   1.641   5.918 -1.7874 -0.1291 -0.9463
   77SOPE   H4Y 6892   0.115   1.523   5.938 -0.1494  0.6636 -1.2784
   77SOPE   C35 6893   0.280   1.438   5.832 -0.0365  0.4128  0.4195
   77SOPE   H5X 6894   0.234   1.337   5.842  0.1944  0.3201  0.5445
   77SOPE   H5Y 6895   0.389   1.442   5.851 -0.2650  3.7006  1.7164
   77SOPE   C36 6896   0.250   1.487   5.694  0.4158 -0.6598 -0.9098
   77SOPE   H6X 6897   0.298   1.585   5.676 -2.4472  1.3717  1.4758
   77SOPE   H6Y 6898   0.143   1.516   5.688 -0.0774 -1.7756  1.2750
   77SOPE   C37 6899   0.282   1.384   5.582  0.0819  0.6272 -0.0253
   77SOPE   H7X 6900   0.235   1.292   5.623 -0.9112  2.0254  2.1782
   77SOPE   H7Y 6901   0.392   1.367   5.588 -0.1651 -0.5000  1.7725
   77SOPE   C38 6902   0.228   1.408   5.441  0.3403 -0.5074 -0.3941
   77SOPE   H8X 6903   0.128   1.455   5.431  1.2897  1.1649 -3.0497
   77SOPE   H8Y 6904   0.222   1.309   5.391  2.3222 -1.0034  0.2660
   77SOPE   C39 6905   0.311   1.510   5.359  0.2626  0.0873  0.4989
   77SOPE   H9X 6906   0.421   1.494   5.369  0.5268  0.4851 -1.4098
   77SOPE   H9Y 6907   0.296   1.609   5.406 -2.4494 -1.0405  2.2775
   77SOPE  C310 6908   0.274   1.518   5.209  0.4793  0.0718  0.1051
   77SOPE  H10X 6909   0.307   1.621   5.180 -0.2255  1.1082  2.7109
   77SOPE  H10Y 6910   0.165   1.519   5.190  0.0557  0.6546  2.2876
   77SOPE  C311 6911   0.333   1.411   5.134  0.4574 -0.1477 -0.3217
   77SOPE  H11X 6912   0.278   1.410   5.037 -2.2752  2.2924  1.0401
   77SOPE  H11Y 6913   0.312   1.312   5.181 -1.1223  1.1064  1.7759
   77SOPE  C312 6914   0.475   1.442   5.085 -0.1728 -0.2649 -0.2213
   77SOPE  H12X 6915   0.534   1.403   5.171 -0.7060  0.8432  0.6720
   77SOPE  H12Y 6916   0.494   1.550   5.071  1.3972 -0.3464  0.9848
   77SOPE  C313 6917   0.529   1.357   4.961 -0.2811 -0.0412  0.2768
   77SOPE  H13X 6918   0.498   1.251   4.972 -0.6197 -0.0298 -0.4748
   77SOPE  H13Y 6919   0.639   1.369   4.958 -0.4379  1.9009  0.5917
   77SOPE  C314 6920   0.467   1.414   4.827  0.6501  0.0151 -0.4936
   77SOPE  H14X 6921   0.492   1.521   4.817 -1.3445  0.6233  0.4726
   77SOPE  H14Y 6922   0.356   1.400   4.828  0.6274  0.1444 -1.1289
   77SOPE  C315 6923   0.511   1.333   4.708  0.2828  0.2222  0.1554
   77SOPE  H15X 6924   0.473   1.229   4.716  1.8107 -0.4471 -0.8196
   77SOPE  H15Y 6925   0.621   1.316   4.709  0.5041  1.4962  1.5822
   77SOPE  C316 6926   0.471   1.388   4.576 -0.3403 -0.9853 -0.0951
   77SOPE  H16X 6927   0.497   1.495   4.564  0.2982 -1.2499 -1.2393
   77SOPE  H16Y 6928   0.362   1.376   4.565 -0.2953 -0.5186 -1.2111
   77SOPE  C317 6929   0.529   1.313   4.453  0.4634  0.3161 -0.1764
   77SOPE  H17X 6930   0.640   1.318   4.454  0.7661 -2.7302 -3.1231
   77SOPE  H17Y 6931   0.493   1.382   4.374 -1.1521 -0.9515 -0.6048
   77SOPE  C318 6932   0.490   1.170   4.429  1.0619 -0.3148  0.0588
   77SOPE  H18X 6933   0.381   1.161   4.447  0.7970  0.6008 -0.9631
   77SOPE  H18Y 6934   0.535   1.109   4.510 -0.9049 -0.1408  1.3503
   77SOPE  H18Z 6935   0.523   1.132   4.330  1.7371  2.2348 -0.7892
   78SOPE     N 6936   5.455   1.620   6.713 -0.5748 -0.0906  0.2466
   78SOPE   HN1 6937   5.397   1.588   6.792  0.2014  0.6511  1.1415
   78SOPE   HN2 6938   5.531   1.555   6.682  0.1692  0.7021  0.3486
   78SOPE   HN3 6939   5.505   1.708   6.736 -1.2563  1.0951 -2.3631
   78SOPE   C12 6940   5.363   1.657   6.599  0.0087 -0.0658 -0.4353
   78SOPE  H12A 6941   5.297   1.734   6.642  0.9554 -0.0837  1.1295
   78SOPE  H12B 6942   5.304   1.574   6.556  0.9138 -0.4255 -1.0192
   78SOPE   C11 6943   5.443   1.718   6.485  0.2445 -0.3171  0.0112
   78SOPE  H11A 6944   5.385   1.728   6.391 -0.6278  0.5558  0.6303
   78SOPE  H11B 6945   5.529   1.649   6.469  1.1936  0.7327  0.4890
   78SOPE     P 6946   5.436   1.978   6.506 -0.3647  0.3935  0.0217
   78SOPE   O13 6947   5.536   2.083   6.525  0.3345 -0.2427  0.6676
   78SOPE   O14 6948   5.305   2.000   6.575 -0.5113 -0.1406  0.5325
   78SOPE   O12 6949   5.504   1.837   6.541  0.4483 -0.0257 -0.3379
   78SOPE   O11 6950   5.401   1.964   6.360 -0.1737 -0.6598  0.0055
   78SOPE    C1 6951   5.444   2.060   6.255  0.4257  1.0635  0.3636
   78SOPE    HA 6952   5.528   2.121   6.294  1.5044 -1.3889  2.1188
   78SOPE    HB 6953   5.359   2.121   6.217  1.5801  2.0743 -0.6845
   78SOPE    C2 6954   5.501   1.984   6.132 -0.1591  0.8160  0.4837
   78SOPE    HS 6955   5.531   2.065   6.062 -0.7138 -0.3374 -1.1620
   78SOPE   O21 6956   5.390   1.916   6.075 -0.2252 -0.2167  0.3263
   78SOPE   C21 6957   5.384   1.913   5.944  0.4608 -0.3719  0.2891
   78SOPE   O22 6958   5.458   1.975   5.868  0.8184  0.7507  0.2463
   78SOPE   C22 6959   5.264   1.830   5.897 -0.6955 -0.8637 -1.0591
   78SOPE   H2R 6960   5.196   1.886   5.830 -0.7871 -0.6530 -0.7916
   78SOPE   H2S 6961   5.208   1.797   5.987  0.0406 -1.3311 -0.7629
   78SOPE    C3 6962   5.605   1.881   6.179 -0.0618 -0.2521  0.1396
   78SOPE    HX 6963   5.553   1.820   6.256  0.5156  0.9177  1.5124
   78SOPE    HY 6964   5.692   1.926   6.231  0.0516 -0.8945  0.5193
   78SOPE   O31 6965   5.655   1.794   6.077  0.5132 -0.1659  0.5017
   78SOPE   C31 6966   5.758   1.836   6.011 -0.0635  0.0892 -0.1239
   78SOPE   O32 6967   5.815   1.943   6.032 -0.2540  0.4698 -0.0560
   78SOPE   C32 6968   5.806   1.728   5.905  0.2932  0.1884  0.4610
   78SOPE   H2X 6969   5.741   1.638   5.912 -0.5074  0.8276  1.5774
   78SOPE   H2Y 6970   5.914   1.707   5.921  0.1435 -0.6789  0.3758
   78SOPE   C23 6971   5.318   1.699   5.833  0.1743  0.3029  0.7011
   78SOPE   H3R 6972   5.231   1.630   5.833  0.6449 -0.4034  3.4380
   78SOPE   H3S 6973   5.390   1.642   5.895 -1.6810 -0.1890  2.5249
   78SOPE   C24 6974   5.371   1.716   5.688 -0.0996 -0.1182 -0.3627
   78SOPE   H4R 6975   5.295   1.764   5.623 -0.3740 -1.5537 -1.1411
   78SOPE   H4S 6976   5.462   1.780   5.681  1.1818 -1.3449  2.8303
   78SOPE   C25 6977   5.393   1.577   5.636 -0.1667 -0.6501  0.1407
   78SOPE   H5R 6978   5.484   1.528   5.676  0.5150  0.2608 -0.2763
   78SOPE   H5S 6979   5.307   1.514   5.668  1.8561 -3.4488  0.4924
   78SOPE   C26 6980   5.411   1.589   5.478  0.3798  0.3360 -0.4812
   78SOPE   H6R 6981   5.487   1.666   5.454 -0.3367  0.6629 -1.8437
   78SOPE   H6S 6982   5.454   1.495   5.437 -0.3172 -0.0761 -0.2887
   78SOPE   C27 6983   5.274   1.615   5.409 -0.7011  0.5718 -0.0686
   78SOPE   H7R 6984   5.206   1.539   5.454 -0.2528  1.5065  2.3328
   78SOPE   H7S 6985   5.235   1.719   5.407 -0.4805  0.6513 -0.2589
   78SOPE   C28 6986   5.279   1.590   5.257  0.0104  0.3544  0.5530
   78SOPE   H8R 6987   5.328   1.491   5.243 -0.0546  0.2962  0.7347
   78SOPE   H8S 6988   5.173   1.572   5.228 -0.2049 -0.0039  1.5172
   78SOPE   C29 6989   5.351   1.689   5.170 -0.3565  0.3589  0.4164
   78SOPE   H91 6990   5.449   1.711   5.216  0.0544 -0.9575  0.2041
   78SOPE  C210 6991   5.324   1.737   5.045  0.0586  0.0163  0.2403
   78SOPE  H101 6992   5.397   1.813   5.013 -0.0704  1.2386  2.6669
   78SOPE  C211 6993   5.200   1.697   4.967  0.0709 -0.0648 -0.2177
   78SOPE  H11R 6994   5.140   1.787   4.940 -0.4732 -0.0317  1.0599
   78SOPE  H11S 6995   5.130   1.631   5.023 -1.3278  1.7846  0.2924
   78SOPE  C212 6996   5.230   1.622   4.843  0.2457  0.1327  0.6090
   78SOPE  H12R 6997   5.136   1.581   4.801 -0.3885  0.9987  1.1508
   78SOPE  H12S 6998   5.294   1.541   4.883  0.9311  2.5036  5.0101
   78SOPE  C213 6999   5.304   1.706   4.740 -0.3067  0.0062 -0.1466
   78SOPE  H13R 7000   5.397   1.736   4.793 -0.4242  0.6414 -0.2905
   78SOPE  H13S 7001   5.250   1.795   4.703 -1.4941 -1.1920 -1.4361
   78SOPE  C214 7002   5.348   1.623   4.622 -0.8363 -0.1606  0.3700
   78SOPE  H14R 7003   5.254   1.575   4.587 -0.5900 -0.7781  0.5506
   78SOPE  H14S 7004   5.407   1.541   4.667 -0.3776 -0.4572 -0.7286
   78SOPE  C215 7005   5.434   1.703   4.516 -0.1608  0.7144 -0.1652
   78SOPE  H15R 7006   5.519   1.757   4.564 -0.3132  0.1782  0.7139
   78SOPE  H15S 7007   5.367   1.776   4.465  3.0479  2.9239 -1.5663
   78SOPE  C216 7008   5.499   1.606   4.411 -0.2354 -0.0209 -0.1190
   78SOPE  H16R 7009   5.416   1.543   4.373 -0.9823 -0.5490  2.2168
   78SOPE  H16S 7010   5.569   1.536   4.462  0.9144 -0.8006 -2.6194
   78SOPE  C217 7011   5.575   1.680   4.297 -0.3617 -0.3080 -0.2186
   78SOPE  H17R 7012   5.654   1.744   4.342 -1.7786  0.1203  1.8223
   78SOPE  H17S 7013   5.501   1.738   4.239  0.4553  1.0419  0.0621
   78SOPE  C218 7014   5.637   1.581   4.200  0.6347  0.1985 -0.4022
   78SOPE  H18R 7015   5.717   1.619   4.134 -1.1023  0.1789 -2.6458
   78SOPE  H18S 7016   5.556   1.540   4.135 -2.1426  4.2338  0.1000
   78SOPE  H18T 7017   5.682   1.499   4.259 -2.5003 -0.5438  1.2020
   78SOPE   C33 7018   5.782   1.781   5.760  0.4874  0.5166  0.2189
   78SOPE   H3X 7019   5.862   1.857   5.753  0.2988  0.7453  0.5232
   78SOPE   H3Y 7020   5.676   1.812   5.753 -0.8578 -3.2960  1.2592
   78SOPE   C34 7021   5.812   1.675   5.644  0.0595 -0.1506  0.4206
   78SOPE   H4X 7022   5.753   1.583   5.663 -1.1383  0.1817 -1.4946
   78SOPE   H4Y 7023   5.917   1.639   5.648 -0.1423 -0.6363  1.8213
   78SOPE   C35 7024   5.787   1.736   5.502 -0.6739  0.1626 -0.0101
   78SOPE   H5X 7025   5.859   1.818   5.483  0.0623 -0.5856 -0.5246
   78SOPE   H5Y 7026   5.686   1.782   5.511  0.0351  1.7259  0.3197
   78SOPE   C36 7027   5.809   1.646   5.386 -0.4792 -0.3326 -0.7285
   78SOPE   H6X 7028   5.743   1.556   5.386 -0.5797 -0.2649 -1.1327
   78SOPE   H6Y 7029   5.915   1.614   5.392  0.6424  3.1149 -0.4658
   78SOPE   C37 7030   5.800   1.719   5.251  0.1360 -0.0330 -0.0976
   78SOPE   H7X 7031   5.860   1.812   5.251 -0.9723  0.7279  1.3772
   78SOPE   H7Y 7032   5.698   1.763   5.251 -0.1330 -0.5825  2.0311
   78SOPE   C38 7033   5.821   1.640   5.115  0.3916  0.2141  0.4411
   78SOPE   H8X 7034   5.731   1.574   5.111 -1.0601  2.1118  0.1756
   78SOPE   H8Y 7035   5.904   1.567   5.122 -1.4777 -1.8743  2.6031
   78SOPE   C39 7036   5.836   1.720   4.985 -0.4755  0.1734  0.0530
   78SOPE   H9X 7037   5.944   1.738   4.966 -0.0051 -0.0029  2.3109
   78SOPE   H9Y 7038   5.782   1.817   4.981 -0.3970  0.2033 -0.3102
   78SOPE  C310 7039   5.765   1.653   4.865  0.6516  0.4592  0.2240
   78SOPE  H10X 7040   5.654   1.660   4.863  0.4757 -1.5831  0.5240
   78SOPE  H10Y 7041   5.793   1.546   4.864  1.8335  0.7480  0.4246
   78SOPE  C311 7042   5.799   1.701   4.727  0.6825 -0.3553 -0.0598
   78SOPE  H11X 7043   5.819   1.810   4.738  1.0936 -0.5780  1.8429
   78SOPE  H11Y 7044   5.725   1.682   4.647 -0.3390  3.5932 -0.2811
   78SOPE  C312 7045   5.927   1.645   4.683 -0.4791  0.3904  0.0124
   78SOPE  H12X 7046   5.934   1.544   4.727 -1.1680  1.3906  2.5879
   78SOPE  H12Y 7047   6.008   1.708   4.727  0.7032  0.4621 -2.0884
   78SOPE  C313 7048   5.954   1.638   4.530 -0.2302 -0.6228 -0.2101
   78SOPE  H13X 7049   5.872   1.583   4.480  0.4391  0.4110 -2.5632
   78SOPE  H13Y 7050   6.056   1.597   4.513  0.4585  0.7155  0.5024
   78SOPE  C314 7051   5.962   1.778   4.466 -0.4271  0.7296 -0.3125
   78SOPE  H14X 7052   6.048   1.836   4.506 -0.3263 -0.2790  1.0183
   78SOPE  H14Y 7053   5.865   1.831   4.479 -0.5408  0.3215  0.5493
   78SOPE  C315 7054   5.990   1.762   4.315  0.4210  0.3793  0.3951
   78SOPE  H15X 7055   5.914   1.712   4.251 -0.2801 -0.3194  1.7320
   78SOPE  H15Y 7056   6.078   1.694   4.310  0.0099 -0.1389  0.0834
   78SOPE  C316 7057   6.026   1.902   4.254  0.6585  0.1523  0.0552
   78SOPE  H16X 7058   6.121   1.937   4.299  0.5021  0.9042 -0.1720
   78SOPE  H16Y 7059   5.943   1.968   4.289 -0.7960 -0.5585 -1.8730
   78SOPE  C317 7060   6.034   1.894   4.103 -0.0329 -0.3946  0.0038
   78SOPE  H17X 7061   5.944   1.851   4.054 -0.2800  1.5929 -1.3838
   78SOPE  H17Y 7062   6.119   1.832   4.067  2.2550  2.5109  0.0716
   78SOPE  C318 7063   6.051   2.033   4.049 -0.3443 -0.5576  0.2903
   78SOPE  H18X 7064   5.987   2.106   4.104 -1.9631 -2.2382  0.7349
   78SOPE  H18Y 7065   6.022   2.028   3.941 -1.1895  1.4777  0.3745
   78SOPE  H18Z 7066   6.159   2.056   4.038 -0.3201 -1.1809 -1.0565
   79SOPE     N 7067   6.542   5.809   6.611 -0.7912  0.4673  0.3074
   79SOPE   HN1 7068   6.439   5.797   6.605 -0.6884 -0.6729  0.4874
   79SOPE   HN2 7069   6.590   5.723   6.576 -3.7684 -1.1753 -0.0496
   79SOPE   HN3 7070   6.554   5.824   6.714  0.2555  2.3641 -0.0475
   79SOPE   C12 7071   6.586   5.938   6.543 -0.0244 -0.6992  0.2279
   79SOPE  H12A 7072   6.565   5.934   6.434 -1.3692 -1.1750  0.4831
   79SOPE  H12B 7073   6.693   5.946   6.570  0.1122 -1.2987 -0.1360
   79SOPE   C11 7074   6.505   6.053   6.598  0.1150  0.0169 -0.2000
   79SOPE  H11A 7075   6.533   6.077   6.703 -1.5563 -1.9224  0.7605
   79SOPE  H11B 7076   6.395   6.041   6.609 -0.3639  2.6867 -1.2948
   79SOPE     P 7077   6.656   6.252   6.520 -0.0109  0.3955  0.0647
   79SOPE   O13 7078   6.756   6.204   6.616  0.5354 -0.5395  0.3433
   79SOPE   O14 7079   6.606   6.383   6.550  0.3310  0.0790  0.4735
   79SOPE   O12 7080   6.531   6.164   6.516 -0.3160  0.3290  0.2067
   79SOPE   O11 7081   6.711   6.237   6.370 -0.3455 -0.0650  0.8456
   79SOPE    C1 7082   6.831   6.298   6.334 -0.3206 -0.7613 -1.0931
   79SOPE    HA 7083   6.913   6.279   6.407 -0.4032  0.2676 -0.7180
   79SOPE    HB 7084   6.814   6.408   6.336 -0.2630 -0.5926  4.0323
   79SOPE    C2 7085   6.878   6.265   6.186 -0.4170 -0.0010  0.1515
   79SOPE    HS 7086   6.937   6.354   6.155 -0.3281  0.4475  1.5355
   79SOPE   O21 7087   6.766   6.246   6.102  0.0472  0.0162  0.1887
   79SOPE   C21 7088   6.704   6.364   6.067 -0.0950  0.1151 -0.4679
   79SOPE   O22 7089   6.740   6.472   6.106 -0.1223 -0.4281  0.2018
   79SOPE   C22 7090   6.599   6.330   5.969 -1.0470  0.3074  0.6956
   79SOPE   H2R 7091   6.554   6.427   5.941  0.5292  0.3399 -2.1554
   79SOPE   H2S 7092   6.530   6.257   6.016  0.0314  0.2335  2.2584
   79SOPE    C3 7093   6.978   6.153   6.185  0.3123  0.1957 -0.5104
   79SOPE    HX 7094   6.937   6.071   6.248  1.3590 -0.9627 -1.3055
   79SOPE    HY 7095   7.073   6.179   6.235  1.1767  0.2292 -2.1194
   79SOPE   O31 7096   7.021   6.123   6.054  0.5795  0.1803  0.1734
   79SOPE   C31 7097   6.948   6.018   6.009 -0.3229 -0.7097 -0.3708
   79SOPE   O32 7098   6.861   5.957   6.071 -0.5564 -0.0456  0.7916
   79SOPE   C32 7099   6.983   5.993   5.862  0.0083  0.3231 -0.5246
   79SOPE   H2X 7100   7.072   6.053   5.836 -0.1469  0.7346 -0.1126
   79SOPE   H2Y 7101   6.895   6.030   5.805  0.2221 -0.8465 -1.6632
   79SOPE   C23 7102   6.653   6.258   5.835  0.3129 -0.1462  0.1556
   79SOPE   H3R 7103   6.624   6.152   5.849  1.0344 -0.1328  2.0783
   79SOPE   H3S 7104   6.764   6.260   5.833  0.3487  0.1327  1.5882
   79SOPE   C24 7105   6.591   6.330   5.709 -0.6855  0.3072  0.2067
   79SOPE   H4R 7106   6.480   6.336   5.708 -0.6682  0.9577  1.1423
   79SOPE   H4S 7107   6.626   6.436   5.711  1.9620 -0.4617 -0.9166
   79SOPE   C25 7108   6.628   6.254   5.582  0.4151  0.5325  0.3377
   79SOPE   H5R 7109   6.736   6.259   5.559  0.3992  1.7697  0.4565
   79SOPE   H5S 7110   6.600   6.148   5.604 -0.3475  0.6180 -0.1613
   79SOPE   C26 7111   6.545   6.310   5.464  0.4301  0.3493  0.1643
   79SOPE   H6R 7112   6.450   6.253   5.454  0.3642  0.3171  0.9231
   79SOPE   H6S 7113   6.518   6.414   5.494  0.1514  0.2090  0.4123
   79SOPE   C27 7114   6.620   6.309   5.332 -0.5022  0.7333  0.3475
   79SOPE   H7R 7115   6.718   6.358   5.346  0.4462 -1.0577  0.1851
   79SOPE   H7S 7116   6.645   6.208   5.294  0.7029  1.5481 -1.1205
   79SOPE   C28 7117   6.563   6.390   5.212 -0.3110  0.5356  0.4150
   79SOPE   H8R 7118   6.585   6.494   5.244  1.7397  0.2192  0.1372
   79SOPE   H8S 7119   6.633   6.366   5.129 -1.0543  1.2477 -0.4426
   79SOPE   C29 7120   6.424   6.354   5.185  0.6102 -0.0507  0.2444
   79SOPE   H91 7121   6.373   6.332   5.279 -0.9316 -3.0882 -1.1603
   79SOPE  C210 7122   6.361   6.325   5.067  0.2329 -0.5751  0.5334
   79SOPE  H101 7123   6.252   6.312   5.065  0.1102  0.3113  1.1049
   79SOPE  C211 7124   6.427   6.331   4.932 -0.6249 -0.1309  0.4199
   79SOPE  H11R 7125   6.530   6.369   4.944 -0.5062 -0.6272  1.0829
   79SOPE  H11S 7126   6.365   6.398   4.869  0.3885 -2.2261 -3.0561
   79SOPE  C212 7127   6.424   6.192   4.875 -0.0130  0.3822  0.0453
   79SOPE  H12R 7128   6.321   6.158   4.851 -0.0362 -0.5850  1.3906
   79SOPE  H12S 7129   6.469   6.114   4.939 -0.7449 -0.2798 -0.2390
   79SOPE  C213 7130   6.491   6.181   4.741 -0.6098  0.6072 -0.4765
   79SOPE  H13R 7131   6.601   6.170   4.751 -0.8169 -0.3824  0.9957
   79SOPE  H13S 7132   6.484   6.272   4.677  0.8561  1.4207  0.4544
   79SOPE  C214 7133   6.438   6.051   4.673 -0.2159  0.1459  0.1926
   79SOPE  H14R 7134   6.329   6.039   4.692  0.0782 -0.2319  1.7909
   79SOPE  H14S 7135   6.502   5.967   4.709  1.1023  1.8561  2.1500
   79SOPE  C215 7136   6.452   6.067   4.517 -0.3021 -0.0080  0.6824
   79SOPE  H15R 7137   6.558   6.090   4.495  0.0115 -1.0247  1.0925
   79SOPE  H15S 7138   6.391   6.159   4.504  0.2097  0.3009  0.4470
   79SOPE  C216 7139   6.403   5.954   4.425  0.6049  0.1259  0.0440
   79SOPE  H16R 7140   6.440   5.857   4.463 -1.0544 -1.2480 -1.6924
   79SOPE  H16S 7141   6.452   5.973   4.327 -0.3178 -0.2638 -0.5050
   79SOPE  C217 7142   6.253   5.958   4.399  0.1435 -0.3518 -0.2121
   79SOPE  H17R 7143   6.231   6.051   4.342  1.6569  0.0334 -0.2173
   79SOPE  H17S 7144   6.202   5.957   4.498  1.2381  0.2275  0.3775
   79SOPE  C218 7145   6.216   5.843   4.309 -0.5555 -0.0199  0.6100
   79SOPE  H18R 7146   6.227   5.743   4.355 -3.7459 -1.0493 -0.6239
   79SOPE  H18S 7147   6.280   5.838   4.218  1.1565  0.5898  1.7273
   79SOPE  H18T 7148   6.115   5.841   4.263  0.9659  0.8555 -3.0807
   79SOPE   C33 7149   6.998   5.836   5.838  0.2108 -0.0241  0.2877
   79SOPE   H3X 7150   6.898   5.791   5.853  0.2312  0.0193  0.5609
   79SOPE   H3Y 7151   7.068   5.792   5.912  0.7676 -0.1261 -0.2826
   79SOPE   C34 7152   7.041   5.807   5.694  0.0007 -0.2699  0.3409
   79SOPE   H4X 7153   7.082   5.704   5.690  0.8278  0.0615  0.0065
   79SOPE   H4Y 7154   7.131   5.870   5.673 -0.4084  0.7061  1.4686
   79SOPE   C35 7155   6.926   5.826   5.594  0.3372 -0.3412 -0.0630
   79SOPE   H5X 7156   6.874   5.922   5.617 -1.7014 -1.0460 -1.4787
   79SOPE   H5Y 7157   6.850   5.747   5.608 -0.0857  0.3173  1.7103
   79SOPE   C36 7158   6.980   5.834   5.452 -0.0944 -0.7509 -0.3411
   79SOPE   H6X 7159   7.039   5.741   5.433 -0.4105 -0.9443 -0.3844
   79SOPE   H6Y 7160   7.058   5.909   5.428  1.3523 -2.3962 -1.0493
   79SOPE   C37 7161   6.871   5.827   5.342 -0.1110  0.2552 -0.3520
   79SOPE   H7X 7162   6.820   5.926   5.335  0.0653  0.2532 -2.8280
   79SOPE   H7Y 7163   6.808   5.736   5.351 -0.3714  0.5281  0.6596
   79SOPE   C38 7164   6.938   5.816   5.203  0.6380 -0.2180 -0.2671
   79SOPE   H8X 7165   6.993   5.721   5.185 -0.9863 -1.8104  2.4721
   79SOPE   H8Y 7166   7.005   5.903   5.184 -1.5733  1.6386 -0.0569
   79SOPE   C39 7167   6.826   5.825   5.097  0.0481 -0.4016  0.2577
   79SOPE   H9X 7168   6.741   5.890   5.126  0.0863 -0.0890 -0.3154
   79SOPE   H9Y 7169   6.783   5.722   5.101  0.1744 -0.4345  0.8111
   79SOPE  C310 7170   6.867   5.873   4.957  0.5962 -0.2941 -0.2632
   79SOPE  H10X 7171   6.950   5.814   4.914  0.3792 -1.3075  0.6412
   79SOPE  H10Y 7172   6.900   5.976   4.981 -1.2689  0.1103  0.7824
   79SOPE  C311 7173   6.754   5.887   4.859  0.3872 -0.6827  0.0263
   79SOPE  H11X 7174   6.701   5.974   4.902  2.8495  1.6484 -1.3007
   79SOPE  H11Y 7175   6.693   5.796   4.847  0.0597 -0.4178 -0.3504
   79SOPE  C312 7176   6.799   5.938   4.716 -0.1717  0.1286 -1.4412
   79SOPE  H12X 7177   6.875   6.018   4.731  1.8849 -1.9772 -0.0550
   79SOPE  H12Y 7178   6.716   5.983   4.657 -1.0658  0.9793  0.3552
   79SOPE  C313 7179   6.854   5.821   4.636  0.1103  0.3497  0.4420
   79SOPE  H13X 7180   6.762   5.761   4.621 -0.3567  1.6506 -2.4531
   79SOPE  H13Y 7181   6.941   5.770   4.684 -0.9199 -0.3369  1.6342
   79SOPE  C314 7182   6.906   5.863   4.495  0.3131  0.3516  0.0608
   79SOPE  H14X 7183   6.829   5.917   4.436 -0.9377 -0.3598  1.0113
   79SOPE  H14Y 7184   6.934   5.765   4.449 -0.6521 -0.1972  0.6126
   79SOPE  C315 7185   7.028   5.951   4.503 -1.1117 -1.0555  0.5662
   79SOPE  H15X 7186   7.100   5.885   4.555 -0.3403  0.3233  1.2794
   79SOPE  H15Y 7187   7.015   6.043   4.563  1.6254 -0.9267  1.0726
   79SOPE  C316 7188   7.082   5.997   4.363  0.4083 -0.3770  1.0087
   79SOPE  H16X 7189   7.085   5.919   4.284  0.2754  0.8779 -0.3007
   79SOPE  H16Y 7190   7.183   6.040   4.378  0.1697  1.1934 -1.2677
   79SOPE  C317 7191   7.007   6.123   4.310 -0.1404 -0.0910  0.1702
   79SOPE  H17X 7192   7.010   6.196   4.394  0.2740  1.3330 -1.0490
   79SOPE  H17Y 7193   6.901   6.103   4.284  0.1944 -0.8583 -0.6432
   79SOPE  C318 7194   7.072   6.170   4.181 -0.6602  0.2065 -0.3331
   79SOPE  H18X 7195   7.024   6.261   4.140 -0.2199  1.1282  1.1048
   79SOPE  H18Y 7196   7.080   6.089   4.106  0.1338  1.6713 -1.8882
   79SOPE  H18Z 7197   7.168   6.210   4.220  0.4584 -2.5879  0.0340
   80SOPE     N 7198   5.242   2.485   6.324 -0.1667 -0.2978  0.0121
   80SOPE   HN1 7199   5.141   2.504   6.339  0.4792  3.2580  0.8669
   80SOPE   HN2 7200   5.257   2.454   6.226 -3.1100 -1.8227 -0.0572
   80SOPE   HN3 7201   5.289   2.411   6.381  0.7975 -0.2540 -0.7084
   80SOPE   C12 7202   5.301   2.626   6.327  0.4434 -0.0784  0.4861
   80SOPE  H12A 7203   5.295   2.669   6.225 -0.6622  1.2826  1.0904
   80SOPE  H12B 7204   5.406   2.614   6.361  1.0808  2.0221 -0.5430
   80SOPE   C11 7205   5.222   2.720   6.421 -0.3891 -0.0495 -0.0539
   80SOPE  H11A 7206   5.277   2.815   6.402  1.2367 -1.0577 -0.5785
   80SOPE  H11B 7207   5.226   2.686   6.527 -0.8122  0.5544  0.1621
   80SOPE     P 7208   4.984   2.825   6.453 -0.0633  0.0452 -0.4114
   80SOPE   O13 7209   5.044   2.961   6.454 -0.0366 -0.0494 -0.3266
   80SOPE   O14 7210   4.939   2.774   6.584  0.2270  0.1445  0.1135
   80SOPE   O12 7211   5.084   2.725   6.374 -0.0598 -0.2348 -0.2988
   80SOPE   O11 7212   4.860   2.842   6.355 -0.2966  0.8266  0.1277
   80SOPE    C1 7213   4.823   2.736   6.266 -0.2850  0.2361  0.2302
   80SOPE    HA 7214   4.715   2.748   6.246 -0.4281  1.8819  1.7641
   80SOPE    HB 7215   4.820   2.634   6.310  0.2155 -1.4716 -3.3649
   80SOPE    C2 7216   4.917   2.736   6.141  0.0702 -0.2372 -0.0502
   80SOPE    HS 7217   5.024   2.709   6.150  0.8012  2.2786 -0.5600
   80SOPE   O21 7218   4.932   2.866   6.088 -0.1138 -0.7184 -1.0571
   80SOPE   C21 7219   4.824   2.940   6.041  0.4018  0.4776  0.7115
   80SOPE   O22 7220   4.717   2.898   6.021 -0.5536 -0.4364  0.3809
   80SOPE   C22 7221   4.869   3.079   5.997 -0.3744 -0.2397 -0.0663
   80SOPE   H2R 7222   4.979   3.096   5.993 -0.6673  2.4491  1.2111
   80SOPE   H2S 7223   4.830   3.151   6.072  1.1262  0.5449  0.0013
   80SOPE    C3 7224   4.874   2.624   6.039 -0.6934  0.3937 -0.3461
   80SOPE    HX 7225   4.776   2.659   6.001 -2.0521 -0.7965  1.8358
   80SOPE    HY 7226   4.858   2.534   6.102  0.0767  1.3853  1.3433
   80SOPE   O31 7227   4.952   2.599   5.921  0.0089  0.4674  1.1152
   80SOPE   C31 7228   5.075   2.544   5.930 -0.5253 -0.8032  0.2543
   80SOPE   O32 7229   5.124   2.509   6.034 -0.2293  0.4102 -0.0364
   80SOPE   C32 7230   5.125   2.523   5.788 -0.3724  0.0771 -0.4465
   80SOPE   H2X 7231   5.069   2.582   5.712 -1.8504  0.0232  0.5410
   80SOPE   H2Y 7232   5.106   2.415   5.776  1.7990 -0.7781  2.5961
   80SOPE   C23 7233   4.806   3.107   5.861 -0.6540  0.2637  0.2738
   80SOPE   H3R 7234   4.698   3.127   5.880 -0.1022  2.9489  1.1217
   80SOPE   H3S 7235   4.812   3.020   5.793 -2.1040 -1.5897  2.3818
   80SOPE   C24 7236   4.852   3.243   5.806 -0.3341 -0.2904 -0.0670
   80SOPE   H4R 7237   4.834   3.330   5.873 -0.3290 -1.9489  2.1727
   80SOPE   H4S 7238   4.961   3.225   5.805 -0.3412 -0.4637  1.2784
   80SOPE   C25 7239   4.802   3.285   5.658  0.6020  0.1498 -0.6469
   80SOPE   H5R 7240   4.813   3.205   5.582  1.9972  1.8209 -2.2849
   80SOPE   H5S 7241   4.692   3.298   5.664  0.2707 -0.8178 -3.4292
   80SOPE   C26 7242   4.875   3.410   5.601  0.4119  0.3633  0.0725
   80SOPE   H6R 7243   4.864   3.486   5.681 -1.3294  0.4806 -0.2189
   80SOPE   H6S 7244   4.981   3.381   5.590  0.8943  0.9160  2.7067
   80SOPE   C27 7245   4.811   3.458   5.472 -0.0470  0.2832 -0.1248
   80SOPE   H7R 7246   4.761   3.370   5.426  1.1907  0.9614 -2.9585
   80SOPE   H7S 7247   4.731   3.532   5.497 -0.3355  0.2066 -0.7908
   80SOPE   C28 7248   4.908   3.523   5.377 -0.4051  0.6951  0.9405
   80SOPE   H8R 7249   4.930   3.624   5.417 -0.6246  0.7199  1.0041
   80SOPE   H8S 7250   5.007   3.474   5.376 -0.1563  1.2017  0.2803
   80SOPE   C29 7251   4.863   3.534   5.240  0.6252 -0.6065 -0.0168
   80SOPE   H91 7252   4.753   3.541   5.234  0.4293 -0.6153  2.4961
   80SOPE  C210 7253   4.934   3.515   5.125 -0.0281  0.2493 -0.0409
   80SOPE  H101 7254   4.880   3.518   5.029  0.2887 -2.2194 -0.3606
   80SOPE  C211 7255   5.083   3.484   5.114 -0.4263  0.2465 -0.0995
   80SOPE  H11R 7256   5.099   3.392   5.053  1.6035  2.3159 -2.9749
   80SOPE  H11S 7257   5.131   3.461   5.211  2.1601 -0.6563 -1.4757
   80SOPE  C212 7258   5.153   3.611   5.058 -0.0210  0.5915  0.0689
   80SOPE  H12R 7259   5.261   3.585   5.067 -0.2364 -0.5231 -0.3975
   80SOPE  H12S 7260   5.129   3.696   5.126 -3.0042  0.3483 -0.5460
   80SOPE  C213 7261   5.109   3.640   4.914  0.1392 -0.1918 -0.0954
   80SOPE  H13R 7262   5.045   3.557   4.877  0.7588 -0.8426  0.2493
   80SOPE  H13S 7263   5.193   3.649   4.841 -1.7578  2.3245 -2.1579
   80SOPE  C214 7264   5.024   3.767   4.909 -0.1133 -0.0791 -0.1801
   80SOPE  H14R 7265   4.944   3.760   4.986 -1.0405 -3.5996 -1.2858
   80SOPE  H14S 7266   4.971   3.773   4.812 -1.1644  1.7130  0.4655
   80SOPE  C215 7267   5.108   3.901   4.912  0.3739 -0.1738 -0.4128
   80SOPE  H15R 7268   5.170   3.904   5.004  0.5598 -3.4781 -0.3081
   80SOPE  H15S 7269   5.023   3.973   4.919  0.4797  0.1309 -1.9904
   80SOPE  C216 7270   5.180   3.922   4.783 -0.3799 -0.2235  0.3610
   80SOPE  H16R 7271   5.111   3.903   4.698 -0.3444 -2.9511  0.8407
   80SOPE  H16S 7272   5.252   3.838   4.774 -0.0512  0.1052 -0.1235
   80SOPE  C217 7273   5.242   4.063   4.774  0.1644 -0.3030 -0.2050
   80SOPE  H17R 7274   5.319   4.081   4.852 -1.2701  0.5683  1.0511
   80SOPE  H17S 7275   5.165   4.140   4.795  0.0347 -0.5286  0.1546
   80SOPE  C218 7276   5.296   4.106   4.631  0.2838 -0.7583 -0.4527
   80SOPE  H18R 7277   5.388   4.051   4.601  2.0285  1.5908  0.2930
   80SOPE  H18S 7278   5.321   4.214   4.633 -0.5719 -0.5501  1.6908
   80SOPE  H18T 7279   5.219   4.084   4.554 -0.1791 -1.0251  0.0845
   80SOPE   C33 7280   5.268   2.560   5.766 -0.1936  0.5893  0.1841
   80SOPE   H3X 7281   5.294   2.551   5.659 -0.1727  0.8750  0.1645
   80SOPE   H3Y 7282   5.328   2.488   5.826 -2.7829 -1.5721  0.3322
   80SOPE   C34 7283   5.296   2.700   5.811  0.0788 -0.5785  0.1303
   80SOPE   H4X 7284   5.405   2.720   5.801  0.1096 -1.1982 -1.0530
   80SOPE   H4Y 7285   5.272   2.696   5.919  0.4043 -1.1419  0.1835
   80SOPE   C35 7286   5.222   2.820   5.746  0.1689  0.3140  0.7904
   80SOPE   H5X 7287   5.256   2.908   5.806  2.2098 -0.5423  0.9984
   80SOPE   H5Y 7288   5.116   2.792   5.761  0.0173 -0.6984 -1.6898
   80SOPE   C36 7289   5.265   2.856   5.599 -0.4662 -0.2963  0.5947
   80SOPE   H6X 7290   5.366   2.820   5.572 -0.2207  0.3254  0.6804
   80SOPE   H6Y 7291   5.239   2.963   5.588 -2.7806 -0.6268  1.9775
   80SOPE   C37 7292   5.175   2.771   5.502 -0.1376 -0.0081  0.5851
   80SOPE   H7X 7293   5.071   2.778   5.541 -0.3352  0.0405  0.0607
   80SOPE   H7Y 7294   5.206   2.665   5.503  0.5045  0.1333 -0.9990
   80SOPE   C38 7295   5.166   2.825   5.359 -0.1260  0.6587 -0.1177
   80SOPE   H8X 7296   5.145   2.934   5.362 -1.9778  0.3128  0.9539
   80SOPE   H8Y 7297   5.076   2.776   5.315  0.0888 -0.0345  0.2113
   80SOPE   C39 7298   5.292   2.778   5.283  0.2445  0.0794 -0.3491
   80SOPE   H9X 7299   5.328   2.676   5.308  2.0061  0.9033  0.7520
   80SOPE   H9Y 7300   5.385   2.834   5.305  0.8338  0.0135 -2.4915
   80SOPE  C310 7301   5.269   2.772   5.130 -0.0373  0.6474  0.3300
   80SOPE  H10X 7302   5.234   2.875   5.108  1.7079  1.6777  2.0078
   80SOPE  H10Y 7303   5.192   2.694   5.113  1.0110  0.2829 -3.8328
   80SOPE  C311 7304   5.404   2.748   5.057  0.1711  0.3103 -0.5234
   80SOPE  H11X 7305   5.441   2.649   5.093 -0.3109 -0.9266 -3.1961
   80SOPE  H11Y 7306   5.469   2.837   5.074 -0.9407  1.2184 -0.8704
   80SOPE  C312 7307   5.378   2.731   4.907 -0.3184  0.1026 -0.6011
   80SOPE  H12X 7308   5.339   2.829   4.872 -3.0760 -0.5344  0.4345
   80SOPE  H12Y 7309   5.309   2.646   4.891  1.0968 -1.6725  1.9587
   80SOPE  C313 7310   5.500   2.710   4.825 -0.0346 -0.8746  0.1004
   80SOPE  H13X 7311   5.557   2.622   4.860  2.7096  0.5657 -0.4289
   80SOPE  H13Y 7312   5.569   2.797   4.836 -0.3086 -0.3511 -1.8427
   80SOPE  C314 7313   5.460   2.694   4.674  0.0824  0.7737 -0.1707
   80SOPE  H14X 7314   5.390   2.772   4.637  1.2421  2.3043  0.7647
   80SOPE  H14Y 7315   5.407   2.597   4.673 -0.2863  0.8428  3.1586
   80SOPE  C315 7316   5.584   2.700   4.586 -0.1391 -0.2377  0.1445
   80SOPE  H15X 7317   5.642   2.607   4.605  1.8776  1.1396  1.1223
   80SOPE  H15Y 7318   5.648   2.786   4.615  0.4183  0.0607 -1.8185
   80SOPE  C316 7319   5.550   2.711   4.440  0.3605  0.1977 -0.3781
   80SOPE  H16X 7320   5.511   2.813   4.419  1.3558  0.7196  0.2224
   80SOPE  H16Y 7321   5.466   2.642   4.417 -0.4564  0.8779  0.4831
   80SOPE  C317 7322   5.669   2.690   4.352  0.1049 -0.0298 -0.9550
   80SOPE  H17X 7323   5.695   2.583   4.369  1.4830  0.4479  0.1095
   80SOPE  H17Y 7324   5.760   2.746   4.380  1.4401 -1.5333 -2.1060
   80SOPE  C318 7325   5.642   2.721   4.204  0.2787  0.0707 -0.6618
   80SOPE  H18X 7326   5.724   2.715   4.129 -0.1345  2.5616 -1.3933
   80SOPE  H18Y 7327   5.604   2.825   4.194 -0.1341  0.4471  3.2588
   80SOPE  H18Z 7328   5.553   2.664   4.169 -0.3890 -0.7937  2.2466
   81SOPE     N 7329   6.021   5.450   6.605 -0.6950 -0.2516 -0.9061
   81SOPE   HN1 7330   6.069   5.386   6.671 -1.2105 -0.9344 -1.1920
   81SOPE   HN2 7331   6.036   5.548   6.637 -1.6932 -0.0682 -0.9776
   81SOPE   HN3 7332   5.922   5.420   6.602  0.0525 -2.8832 -1.7075
   81SOPE   C12 7333   6.097   5.440   6.476 -0.3950  0.1532 -0.5939
   81SOPE  H12A 7334   6.067   5.523   6.409 -1.8343 -0.1344 -0.3519
   81SOPE  H12B 7335   6.068   5.346   6.426  1.3006 -0.0486 -1.2550
   81SOPE   C11 7336   6.251   5.451   6.504  0.3802 -0.2457 -0.2721
   81SOPE  H11A 7337   6.272   5.549   6.550  0.8325 -0.0468 -0.8747
   81SOPE  H11B 7338   6.300   5.452   6.404  2.8117  1.0590  0.8370
   81SOPE     P 7339   6.447   5.346   6.644 -0.1438  0.1421  0.3334
   81SOPE   O13 7340   6.455   5.229   6.736 -0.2828  0.1426 -0.3456
   81SOPE   O14 7341   6.470   5.479   6.699 -0.4505  0.2605 -0.0582
   81SOPE   O12 7342   6.300   5.343   6.591  0.8101 -0.3163  0.3289
   81SOPE   O11 7343   6.537   5.330   6.512 -0.2953 -0.0209 -0.2095
   81SOPE    C1 7344   6.513   5.209   6.438 -0.4215  0.3901  0.2558
   81SOPE    HA 7345   6.416   5.213   6.384 -0.6185  2.1735  0.6820
   81SOPE    HB 7346   6.512   5.118   6.502  3.3657  1.0700  1.5113
   81SOPE    C2 7347   6.624   5.175   6.340  0.4925 -0.2237  0.8773
   81SOPE    HS 7348   6.593   5.081   6.288 -1.1477  0.8390 -0.1715
   81SOPE   O21 7349   6.753   5.173   6.409 -0.5715 -0.0074  0.3213
   81SOPE   C21 7350   6.779   5.058   6.477  0.0970  0.0138  1.2824
   81SOPE   O22 7351   6.699   4.965   6.484  0.6259 -0.8811 -0.1235
   81SOPE   C22 7352   6.919   5.059   6.518  0.5531  0.2995 -0.3682
   81SOPE   H2R 7353   6.919   5.029   6.625 -1.5232 -3.0423 -1.1787
   81SOPE   H2S 7354   6.958   5.162   6.501 -0.7317  1.0573  1.0699
   81SOPE    C3 7355   6.623   5.291   6.228 -0.2655 -0.3571  0.4710
   81SOPE    HX 7356   6.643   5.386   6.283 -1.8077 -0.9100  2.0968
   81SOPE    HY 7357   6.519   5.280   6.190  0.1166 -1.7415 -0.2421
   81SOPE   O31 7358   6.720   5.258   6.126  0.4540 -0.0276  0.0493
   81SOPE   C31 7359   6.849   5.289   6.141 -0.1292 -0.3412 -0.2033
   81SOPE   O32 7360   6.900   5.348   6.233  0.1847 -0.5425 -0.1180
   81SOPE   C32 7361   6.913   5.278   6.001 -0.4041  0.4488  0.5772
   81SOPE   H2X 7362   6.865   5.355   5.937 -0.5875 -0.4701 -0.4293
   81SOPE   H2Y 7363   6.869   5.188   5.952 -0.1396  1.2732 -1.2432
   81SOPE   C23 7364   7.000   4.949   6.451  0.4583  0.5344  0.2671
   81SOPE   H3R 7365   6.957   4.846   6.455 -2.3470  1.6235  4.7548
   81SOPE   H3S 7366   7.097   4.949   6.506  0.5769  3.0855  0.1450
   81SOPE   C24 7367   7.021   4.979   6.302  0.0475 -0.4558  0.2290
   81SOPE   H4R 7368   6.937   4.984   6.229  0.1947  1.1824  0.1433
   81SOPE   H4S 7369   7.046   5.086   6.313  3.1583 -1.2544  2.5142
   81SOPE   C25 7370   7.123   4.897   6.234  0.2433  0.0819  1.0996
   81SOPE   H5R 7371   7.207   4.877   6.303  1.1298  1.1052  0.3390
   81SOPE   H5S 7372   7.083   4.793   6.222  0.3688 -0.1724  2.6957
   81SOPE   C26 7373   7.177   4.944   6.093  0.9343  0.1580  0.0773
   81SOPE   H6R 7374   7.091   4.983   6.034 -1.1486 -1.0268  2.1527
   81SOPE   H6S 7375   7.251   5.024   6.112  1.8337 -0.8110  0.7326
   81SOPE   C27 7376   7.231   4.830   6.016  0.0432 -0.4290 -0.0250
   81SOPE   H7R 7377   7.328   4.798   6.059  0.0204 -1.0864 -0.4432
   81SOPE   H7S 7378   7.169   4.739   6.030 -1.8087  0.9563  1.2640
   81SOPE   C28 7379   7.253   4.861   5.867 -0.4727 -0.0182  0.0553
   81SOPE   H8R 7380   7.250   4.769   5.805 -2.1842 -0.1456  0.2659
   81SOPE   H8S 7381   7.169   4.923   5.829 -1.5663 -1.0916  0.6616
   81SOPE   C29 7382   7.383   4.935   5.841 -0.3358  0.9078 -0.4427
   81SOPE   H91 7383   7.440   4.965   5.930 -1.1054 -2.3029  1.2844
   81SOPE  C210 7384   7.431   4.964   5.723 -0.5420  0.1352  0.1071
   81SOPE  H101 7385   7.532   5.007   5.717 -0.3369  0.0317  2.0533
   81SOPE  C211 7386   7.363   4.952   5.590  0.2224  0.0210  0.1781
   81SOPE  H11R 7387   7.360   5.052   5.541 -2.8776 -0.1875 -0.2611
   81SOPE  H11S 7388   7.259   4.916   5.580  0.4782 -0.4150 -1.0693
   81SOPE  C212 7389   7.461   4.876   5.498 -0.3238  0.7845  0.0182
   81SOPE  H12R 7390   7.490   4.779   5.545  1.1426  0.0041 -2.3383
   81SOPE  H12S 7391   7.557   4.932   5.496  0.4373 -0.4738  0.1117
   81SOPE  C213 7392   7.421   4.848   5.357 -0.0772 -0.5181 -0.1722
   81SOPE  H13R 7393   7.355   4.758   5.359  1.8499 -2.0240 -1.3627
   81SOPE  H13S 7394   7.512   4.818   5.301 -1.1121 -0.4464 -1.9710
   81SOPE  C214 7395   7.335   4.962   5.289 -0.3794 -0.4886 -0.0317
   81SOPE  H14R 7396   7.376   5.060   5.321 -0.9661 -0.5424  0.9116
   81SOPE  H14S 7397   7.232   4.962   5.331  0.1710  0.9156  1.4116
   81SOPE  C215 7398   7.336   4.945   5.138 -0.1562  0.0219 -0.1288
   81SOPE  H15R 7399   7.275   4.855   5.117 -1.1343  0.4767  0.6857
   81SOPE  H15S 7400   7.431   4.926   5.083  1.0526  0.6797  1.6395
   81SOPE  C216 7401   7.255   5.057   5.071 -0.4436  0.3900 -0.0821
   81SOPE  H16R 7402   7.303   5.152   5.103 -0.7864 -0.1997  2.4087
   81SOPE  H16S 7403   7.149   5.069   5.102 -0.1063 -0.4255  1.5241
   81SOPE  C217 7404   7.266   5.044   4.918 -0.1524  0.8087 -0.1458
   81SOPE  H17R 7405   7.222   4.947   4.888 -1.0936  0.8042  1.1676
   81SOPE  H17S 7406   7.375   5.028   4.905 -0.1966 -0.1654  0.5379
   81SOPE  C218 7407   7.197   5.154   4.833 -0.1221 -0.1787  0.2373
   81SOPE  H18R 7408   7.095   5.176   4.873  0.1585 -1.5980  1.8462
   81SOPE  H18S 7409   7.191   5.130   4.725 -2.3003  0.8194  0.0749
   81SOPE  H18T 7410   7.265   5.241   4.839  1.6823 -1.4715 -0.7028
   81SOPE   C33 7411   7.064   5.287   5.999  0.4103  0.0190 -0.0035
   81SOPE   H3X 7412   7.109   5.231   6.083  0.0369  0.1300  0.2715
   81SOPE   H3Y 7413   7.100   5.392   6.002 -1.2788  0.6111  1.8070
   81SOPE   C34 7414   7.110   5.237   5.861 -0.5490  0.1636  0.8415
   81SOPE   H4X 7415   7.090   5.130   5.839  0.0163  0.6255 -2.2575
   81SOPE   H4Y 7416   7.220   5.235   5.876 -0.4052 -0.5455 -0.1873
   81SOPE   C35 7417   7.080   5.327   5.739  0.6712  0.1021 -0.5384
   81SOPE   H5X 7418   7.053   5.428   5.777 -2.6883 -0.1578 -1.9288
   81SOPE   H5Y 7419   6.986   5.293   5.692  0.6151  1.5370 -1.5445
   81SOPE   C36 7420   7.192   5.329   5.633  0.0207 -0.6229  0.0377
   81SOPE   H6X 7421   7.228   5.224   5.622 -0.0808 -0.6387 -0.1339
   81SOPE   H6Y 7422   7.280   5.385   5.672  0.7128 -1.3718 -0.4186
   81SOPE   C37 7423   7.158   5.390   5.501  0.1327 -0.0672 -0.0850
   81SOPE   H7X 7424   7.130   5.496   5.521  2.5661  1.1574 -2.4908
   81SOPE   H7Y 7425   7.074   5.335   5.454  0.5882 -0.4836 -0.4259
   81SOPE   C38 7426   7.272   5.396   5.403 -0.9217  0.0535  0.3946
   81SOPE   H8X 7427   7.308   5.293   5.379  1.3787  0.9780 -0.4103
   81SOPE   H8Y 7428   7.355   5.446   5.457  1.0670 -2.0204 -0.5124
   81SOPE   C39 7429   7.253   5.475   5.274  0.3602 -0.1537  0.4577
   81SOPE   H9X 7430   7.207   5.571   5.306  0.5766  0.4245 -0.9140
   81SOPE   H9Y 7431   7.177   5.428   5.209  0.6799 -0.7942  0.5443
   81SOPE  C310 7432   7.388   5.505   5.213  0.0276 -0.5093 -0.2389
   81SOPE  H10X 7433   7.462   5.541   5.287  1.3554 -2.4461 -0.5502
   81SOPE  H10Y 7434   7.365   5.591   5.146 -0.8577 -1.0719 -0.6846
   81SOPE  C311 7435   7.458   5.382   5.157  0.0797 -0.7250  0.2126
   81SOPE  H11X 7436   7.414   5.350   5.060 -0.4795  3.5846 -1.2182
   81SOPE  H11Y 7437   7.448   5.300   5.231 -1.7223  0.4109  1.2952
   81SOPE  C312 7438   7.619   5.405   5.136  0.5563 -0.4320 -0.2868
   81SOPE  H12X 7439   7.657   5.316   5.081 -1.9273 -2.5716  1.2212
   81SOPE  H12Y 7440   7.651   5.404   5.242 -0.8485 -2.6993  0.1945
   81SOPE  C313 7441   7.643   5.532   5.061 -0.3474 -0.6577  0.2121
   81SOPE  H13X 7442   7.630   5.626   5.119 -0.4683 -0.1726 -0.5932
   81SOPE  H13Y 7443   7.579   5.544   4.971  2.6149  0.9846 -1.8650
   81SOPE  C314 7444   7.787   5.534   5.015 -0.1908 -0.3587  0.1786
   81SOPE  H14X 7445   7.801   5.629   4.958  1.4360  0.3318  1.6344
   81SOPE  H14Y 7446   7.795   5.436   4.964  0.9496 -1.4877  2.3776
   81SOPE  C315 7447   7.883   5.539   5.134  0.8878  0.0983  0.3264
   81SOPE  H15X 7448   7.880   5.434   5.172  0.1387  0.9411  2.7846
   81SOPE  H15Y 7449   7.845   5.607   5.213 -0.8579  0.3125 -0.6483
   81SOPE  C316 7450   8.027   5.571   5.091 -0.5327  0.0329 -0.5472
   81SOPE  H16X 7451   8.028   5.672   5.046 -1.3276  0.3377  0.0991
   81SOPE  H16Y 7452   8.059   5.506   5.006  0.1197 -1.6715  0.9332
   81SOPE  C317 7453   8.128   5.562   5.211 -0.1176  0.1731  0.1266
   81SOPE  H17X 7454   8.149   5.460   5.250  0.7838  1.0805  2.1863
   81SOPE  H17Y 7455   8.075   5.604   5.300 -0.5959 -3.2966  1.6262
   81SOPE  C318 7456   8.268   5.630   5.188  0.1763  0.2097  0.1680
   81SOPE  H18X 7457   8.254   5.738   5.167 -3.8440 -0.6774 -3.0840
   81SOPE  H18Y 7458   8.333   5.596   5.104 -0.7701  1.2424 -1.0251
   81SOPE  H18Z 7459   8.329   5.626   5.281  0.5398 -0.7392 -0.0971
   82SOPE     N 7460   2.318   6.651   7.008  0.1988 -0.7104  0.5656
   82SOPE   HN1 7461   2.335   6.733   7.070 -0.5992 -0.3845  0.3572
   82SOPE   HN2 7462   2.240   6.663   6.941  0.9494 -2.0266 -0.5884
   82SOPE   HN3 7463   2.305   6.567   7.068 -1.1092 -1.0776 -0.2010
   82SOPE   C12 7464   2.444   6.603   6.938  0.5830  0.0003 -0.4759
   82SOPE  H12A 7465   2.410   6.528   6.864 -0.8357 -1.1873  1.2886
   82SOPE  H12B 7466   2.509   6.567   7.020 -0.8251  1.2267  1.2773
   82SOPE   C11 7467   2.505   6.714   6.860 -0.3951  0.1608 -1.2120
   82SOPE  H11A 7468   2.591   6.667   6.807 -0.8194 -1.4114 -0.5809
   82SOPE  H11B 7469   2.544   6.775   6.944 -3.8715 -0.5583  1.1439
   82SOPE     P 7470   2.403   6.748   6.628  0.1999 -0.2860 -0.1876
   82SOPE   O13 7471   2.256   6.733   6.602  0.2711  0.0779 -0.5351
   82SOPE   O14 7472   2.486   6.629   6.600 -0.6892  0.3787  0.0597
   82SOPE   O12 7473   2.414   6.784   6.782 -0.1557  0.5881  0.1485
   82SOPE   O11 7474   2.460   6.869   6.542 -0.4442  0.0532 -0.6638
   82SOPE    C1 7475   2.552   6.962   6.607  0.4231 -0.5466 -0.2648
   82SOPE    HA 7476   2.603   6.923   6.698  2.2154  1.7823 -0.1956
   82SOPE    HB 7477   2.501   7.060   6.612  0.2650 -0.6732  0.6409
   82SOPE    C2 7478   2.665   6.988   6.507  0.1048 -0.4119 -0.0011
   82SOPE    HS 7479   2.742   7.042   6.566  0.1286 -0.0222 -0.3869
   82SOPE   O21 7480   2.611   7.066   6.394 -0.1761 -0.8233  0.7177
   82SOPE   C21 7481   2.702   7.139   6.333  0.3194  0.6223  0.0175
   82SOPE   O22 7482   2.811   7.173   6.380  0.6182  0.1307 -0.1457
   82SOPE   C22 7483   2.652   7.177   6.196 -0.2888  0.5635 -1.0210
   82SOPE   H2R 7484   2.564   7.244   6.208 -0.2291  0.6472 -1.0447
   82SOPE   H2S 7485   2.615   7.086   6.145 -0.5065 -0.0927  0.2560
   82SOPE    C3 7486   2.731   6.859   6.457 -0.0024  0.5309  0.4291
   82SOPE    HX 7487   2.652   6.788   6.425  0.3775  0.7422 -1.0466
   82SOPE    HY 7488   2.768   6.814   6.551 -0.2223 -0.3899  0.0800
   82SOPE   O31 7489   2.840   6.885   6.365 -0.4075 -0.1165 -0.0228
   82SOPE   C31 7490   2.814   6.849   6.240 -0.0809 -0.6927 -0.3901
   82SOPE   O32 7491   2.715   6.792   6.200  0.4944  0.8026  0.0024
   82SOPE   C32 7492   2.941   6.885   6.159  0.7251 -0.3651  0.0584
   82SOPE   H2X 7493   3.025   6.813   6.172  1.3680  0.1225 -1.2375
   82SOPE   H2Y 7494   2.983   6.984   6.184 -0.4845  1.1373 -3.2837
   82SOPE   C23 7495   2.772   7.231   6.106  0.1118  0.3394  0.4939
   82SOPE   H3R 7496   2.866   7.173   6.116  0.2378  0.5815  0.7498
   82SOPE   H3S 7497   2.803   7.334   6.133 -2.7946  1.3027  0.5052
   82SOPE   C24 7498   2.722   7.249   5.965  0.2168  0.0739 -0.3503
   82SOPE   H4R 7499   2.689   7.150   5.927 -2.7671 -0.2843  2.6950
   82SOPE   H4S 7500   2.635   7.318   5.970 -0.1423 -0.1793 -2.3333
   82SOPE   C25 7501   2.818   7.316   5.864  0.3582  0.4641  0.1809
   82SOPE   H5R 7502   2.861   7.406   5.912 -0.3816  0.3526  1.1000
   82SOPE   H5S 7503   2.904   7.249   5.843 -0.1839  0.1189 -1.0182
   82SOPE   C26 7504   2.770   7.365   5.733 -0.0952  0.0129  0.0626
   82SOPE   H6R 7505   2.689   7.439   5.750 -0.3166 -0.8298  3.3936
   82SOPE   H6S 7506   2.857   7.414   5.684  0.3018 -2.3532 -1.8009
   82SOPE   C27 7507   2.735   7.255   5.624 -0.2441  0.8093 -0.7050
   82SOPE   H7R 7508   2.795   7.162   5.626 -1.0751  0.1589 -2.8108
   82SOPE   H7S 7509   2.630   7.222   5.644 -0.3198  2.3113  1.6658
   82SOPE   C28 7510   2.744   7.310   5.480 -0.5013  0.8806 -0.2792
   82SOPE   H8R 7511   2.660   7.383   5.470 -0.3544  1.0309 -0.4329
   82SOPE   H8S 7512   2.842   7.361   5.469  0.1689 -0.6481 -1.8580
   82SOPE   C29 7513   2.742   7.207   5.379 -0.4174 -0.2931 -0.0005
   82SOPE   H91 7514   2.714   7.106   5.413 -2.8556 -0.2601 -1.6812
   82SOPE  C210 7515   2.761   7.226   5.247  0.3661  0.0939 -0.7568
   82SOPE  H101 7516   2.779   7.133   5.192  0.5875  0.2751 -0.9926
   82SOPE  C211 7517   2.785   7.358   5.170  0.1205  0.1736  0.0495
   82SOPE  H11R 7518   2.829   7.435   5.237 -0.8272  0.0708  0.8208
   82SOPE  H11S 7519   2.686   7.401   5.142  0.1776  0.6799  0.5965
   82SOPE  C212 7520   2.857   7.337   5.045 -0.4313  0.2732  0.1917
   82SOPE  H12R 7521   2.956   7.290   5.059 -0.6143  0.6381  3.3072
   82SOPE  H12S 7522   2.872   7.440   5.006  1.9677 -0.2190 -0.3139
   82SOPE  C213 7523   2.781   7.257   4.937 -0.3194 -0.0572 -1.0591
   82SOPE  H13R 7524   2.689   7.313   4.911 -0.6456 -0.4487 -0.7496
   82SOPE  H13S 7525   2.735   7.165   4.979 -2.0347  1.9020  1.6592
   82SOPE  C214 7526   2.868   7.233   4.812  0.1125 -0.2152  0.5808
   82SOPE  H14R 7527   2.953   7.163   4.827  3.5539  3.1154 -1.3865
   82SOPE  H14S 7528   2.906   7.333   4.780 -0.9343  0.1969  0.5843
   82SOPE  C215 7529   2.783   7.181   4.691  0.0633  0.0279  0.1113
   82SOPE  H15R 7530   2.704   7.249   4.654  0.3395  0.0550 -0.4362
   82SOPE  H15S 7531   2.729   7.093   4.732 -1.4320  0.8309 -0.0844
   82SOPE  C216 7532   2.856   7.131   4.571  0.6595  0.0791  0.7476
   82SOPE  H16R 7533   2.894   7.218   4.514  0.3546  1.2188  2.2357
   82SOPE  H16S 7534   2.783   7.067   4.517  0.9407 -0.7516  1.3336
   82SOPE  C217 7535   2.964   7.036   4.608 -0.3905 -0.4781 -0.2410
   82SOPE  H17R 7536   2.922   6.958   4.674 -0.2220  1.3612  2.1476
   82SOPE  H17S 7537   3.043   7.094   4.661 -1.4033 -0.1966  0.9872
   82SOPE  C218 7538   3.038   6.984   4.484  0.4407  0.7841  0.3028
   82SOPE  H18R 7539   3.072   7.058   4.408 -1.0136 -0.2884 -1.4630
   82SOPE  H18S 7540   2.967   6.920   4.429 -1.0718  1.3062  1.5505
   82SOPE  H18T 7541   3.136   6.935   4.504  0.5442  1.3551  1.3220
   82SOPE   C33 7542   2.911   6.887   6.011  1.0794  0.3231 -0.6973
   82SOPE   H3X 7543   2.831   6.956   5.977 -1.6554 -2.4987 -0.4731
   82SOPE   H3Y 7544   2.896   6.784   5.972 -2.4218  0.5064 -0.1922
   82SOPE   C34 7545   3.031   6.946   5.940  0.2186  0.6385  0.0672
   82SOPE   H4X 7546   3.115   6.875   5.960 -1.9489 -2.1420 -0.0601
   82SOPE   H4Y 7547   3.043   7.042   5.994 -1.3737  0.6502  0.4487
   82SOPE   C35 7548   3.013   6.970   5.792  0.3096  0.2610  0.1241
   82SOPE   H5X 7549   2.927   7.041   5.788  1.0012  1.2661  1.8744
   82SOPE   H5Y 7550   2.972   6.880   5.742  0.1526 -0.1871  1.0334
   82SOPE   C36 7551   3.131   7.036   5.720 -0.1588 -0.3548 -0.2720
   82SOPE   H6X 7552   3.226   6.982   5.740  0.1675  0.3812  0.1924
   82SOPE   H6Y 7553   3.133   7.139   5.760  0.1174 -0.1899 -0.7098
   82SOPE   C37 7554   3.107   7.043   5.568  0.0211  0.1215  0.0638
   82SOPE   H7X 7555   3.002   7.074   5.552  1.1150  2.9456 -2.6953
   82SOPE   H7Y 7556   3.110   6.939   5.529 -0.9008 -0.0456  0.4078
   82SOPE   C38 7557   3.208   7.136   5.497 -0.0832  0.5283  0.2102
   82SOPE   H8X 7558   3.303   7.085   5.523 -1.1199 -3.0232 -2.2536
   82SOPE   H8Y 7559   3.200   7.237   5.542  1.4634 -0.0153  1.8453
   82SOPE   C39 7560   3.179   7.141   5.348  0.3042 -0.1018 -0.2198
   82SOPE   H9X 7561   3.229   7.228   5.300  0.4789  0.5621  1.0981
   82SOPE   H9Y 7562   3.071   7.156   5.326  0.0073  0.6676  1.5871
   82SOPE  C310 7563   3.223   7.013   5.271  0.3774  0.5759  0.2324
   82SOPE  H10X 7564   3.164   6.933   5.320 -0.4432  2.5092  2.6115
   82SOPE  H10Y 7565   3.331   6.991   5.284  0.9680  1.4252 -2.5634
   82SOPE  C311 7566   3.194   7.035   5.123  0.0500 -0.0445  0.3121
   82SOPE  H11X 7567   3.260   7.115   5.083 -2.7795  3.8866  2.7546
   82SOPE  H11Y 7568   3.097   7.082   5.097 -0.5811 -0.9000  1.0772
   82SOPE  C312 7569   3.215   6.904   5.041 -0.2473 -0.3673  0.5008
   82SOPE  H12X 7570   3.136   6.836   5.079 -1.9183  1.9462  1.3803
   82SOPE  H12Y 7571   3.315   6.857   5.057  0.3397  0.5180 -0.4113
   82SOPE  C313 7572   3.214   6.937   4.892  0.8262 -0.3524  0.0585
   82SOPE  H13X 7573   3.310   6.982   4.861 -0.3834  1.6543 -0.9830
   82SOPE  H13Y 7574   3.140   7.018   4.880 -0.9654 -1.0409  4.4111
   82SOPE  C314 7575   3.168   6.815   4.807  0.2876 -0.3476  0.0266
   82SOPE  H14X 7576   3.146   6.842   4.702  0.7751 -0.4838 -0.1094
   82SOPE  H14Y 7577   3.069   6.787   4.850  0.6443 -3.6684 -1.0954
   82SOPE  C315 7578   3.267   6.698   4.815 -0.2655  0.0277 -0.3984
   82SOPE  H15X 7579   3.211   6.603   4.825 -1.3400  0.0716 -4.1717
   82SOPE  H15Y 7580   3.334   6.708   4.903 -1.0066 -0.1383  0.1889
   82SOPE  C316 7581   3.357   6.681   4.694 -0.4859 -0.7463  0.7516
   82SOPE  H16X 7582   3.402   6.781   4.676 -0.7022 -0.9916 -1.2882
   82SOPE  H16Y 7583   3.309   6.654   4.598  0.4038 -1.6997  0.5468
   82SOPE  C317 7584   3.459   6.567   4.714 -0.4834  0.2549 -0.5652
   82SOPE  H17X 7585   3.396   6.480   4.744  0.0845  0.2358  0.6278
   82SOPE  H17Y 7586   3.517   6.605   4.800 -1.5735 -0.4439  0.5170
   82SOPE  C318 7587   3.552   6.526   4.598 -0.2061 -0.0928 -0.5423
   82SOPE  H18X 7588   3.616   6.605   4.552  0.2716 -1.5425 -2.5485
   82SOPE  H18Y 7589   3.493   6.480   4.516 -0.1234 -0.3903 -0.4358
   82SOPE  H18Z 7590   3.616   6.446   4.640 -1.3702  0.2890  2.1095
   83SOPE     N 7591   3.786   1.492   2.560 -0.6585  0.0067  0.2128
   83SOPE   HN1 7592   3.816   1.496   2.660 -0.3838 -1.6773  0.2403
   83SOPE   HN2 7593   3.851   1.530   2.489  1.4326  2.0090  2.9730
   83SOPE   HN3 7594   3.708   1.560   2.570 -2.2110 -1.4328 -1.5091
   83SOPE   C12 7595   3.743   1.357   2.543 -0.0631  0.7876 -0.1697
   83SOPE  H12A 7596   3.685   1.323   2.632  0.7412  0.5816  0.2870
   83SOPE  H12B 7597   3.832   1.292   2.545 -1.9954 -2.2179 -2.9141
   83SOPE   C11 7598   3.663   1.340   2.409 -0.0514 -0.4778  0.3025
   83SOPE  H11A 7599   3.630   1.234   2.401 -0.0894 -0.5682  1.4535
   83SOPE  H11B 7600   3.735   1.350   2.326  1.8326  0.4339  1.9738
   83SOPE     P 7601   3.411   1.396   2.463  0.2106  0.0040  0.3295
   83SOPE   O13 7602   3.339   1.290   2.383  0.1947 -0.8595 -0.2663
   83SOPE   O14 7603   3.333   1.522   2.485  0.4528  0.3585 -0.3193
   83SOPE   O12 7604   3.555   1.436   2.401 -0.2021 -0.3844 -0.3573
   83SOPE   O11 7605   3.447   1.329   2.597  0.4626 -0.3224 -0.1372
   83SOPE    C1 7606   3.370   1.340   2.719 -0.2295  0.5211  1.0802
   83SOPE    HA 7607   3.296   1.257   2.717 -1.1959  1.3631 -0.9238
   83SOPE    HB 7608   3.308   1.433   2.725  1.5679  1.7034  2.1604
   83SOPE    C2 7609   3.455   1.339   2.844  0.1085  0.3238 -0.4067
   83SOPE    HS 7610   3.539   1.410   2.829  0.3967  0.1548  0.3832
   83SOPE   O21 7611   3.517   1.215   2.860 -0.0898 -0.2111 -0.3016
   83SOPE   C21 7612   3.637   1.207   2.926  0.0295 -0.0097  0.2427
   83SOPE   O22 7613   3.708   1.308   2.950  0.2381 -0.4059  1.2445
   83SOPE   C22 7614   3.654   1.069   2.986 -0.7560  0.1877  0.3059
   83SOPE   H2R 7615   3.726   1.024   2.915  0.2855  0.0890  1.3860
   83SOPE   H2S 7616   3.564   1.004   2.982 -0.2983 -0.4246 -0.2071
   83SOPE    C3 7617   3.381   1.393   2.971 -0.0015 -0.0465 -0.5237
   83SOPE    HX 7618   3.342   1.495   2.952 -2.2699  0.1298  3.9001
   83SOPE    HY 7619   3.457   1.401   3.051  0.7500  1.6587 -1.3593
   83SOPE   O31 7620   3.263   1.308   2.990 -0.0665 -0.3719 -0.2067
   83SOPE   C31 7621   3.280   1.199   3.070 -0.5871  0.2757 -0.5672
   83SOPE   O32 7622   3.382   1.175   3.133  0.0542  0.4066  0.7329
   83SOPE   C32 7623   3.154   1.124   3.080  0.1267  0.1882  0.1859
   83SOPE   H2X 7624   3.171   1.018   3.053  0.3210  0.6947 -1.8343
   83SOPE   H2Y 7625   3.083   1.162   3.003 -0.1456 -3.3709 -1.5301
   83SOPE   C23 7626   3.719   1.079   3.126 -0.1045  0.2575  0.6373
   83SOPE   H3R 7627   3.629   1.079   3.190 -1.1179  1.4864 -0.7124
   83SOPE   H3S 7628   3.772   1.175   3.140  0.0168  0.4848 -1.1471
   83SOPE   C24 7629   3.829   0.975   3.141  0.3654  0.3570 -0.4029
   83SOPE   H4R 7630   3.778   0.880   3.115  0.3966  0.6204 -1.4452
   83SOPE   H4S 7631   3.912   0.987   3.069  2.6211 -1.2985  1.7365
   83SOPE   C25 7632   3.901   0.980   3.274 -0.1987  0.2918  0.0115
   83SOPE   H5R 7633   3.985   0.907   3.270 -0.3232  0.1889 -1.0584
   83SOPE   H5S 7634   3.946   1.079   3.300  0.4456  0.1648 -0.5916
   83SOPE   C26 7635   3.809   0.941   3.391 -0.3921 -0.0069 -0.4774
   83SOPE   H6R 7636   3.715   0.999   3.400  0.2840  1.1885 -0.9677
   83SOPE   H6S 7637   3.772   0.837   3.374  1.7343 -0.9412  0.2198
   83SOPE   C27 7638   3.876   0.956   3.528 -0.5693  0.1251 -0.0628
   83SOPE   H7R 7639   3.973   0.904   3.539 -0.9242 -0.8059 -1.1665
   83SOPE   H7S 7640   3.895   1.065   3.534 -0.4144  0.1472 -0.8064
   83SOPE   C28 7641   3.782   0.902   3.630 -0.5653 -0.0240  0.2514
   83SOPE   H8R 7642   3.682   0.948   3.633 -0.1245  1.0262 -0.7311
   83SOPE   H8S 7643   3.762   0.804   3.581  2.0887 -0.1769 -0.7070
   83SOPE   C29 7644   3.841   0.910   3.766  0.1355 -0.0695 -0.9023
   83SOPE   H91 7645   3.918   0.989   3.769  0.8639 -0.6178 -3.0348
   83SOPE  C210 7646   3.818   0.828   3.869 -0.0876 -0.7486 -0.2911
   83SOPE  H101 7647   3.850   0.849   3.972 -0.0316 -0.4589 -0.3655
   83SOPE  C211 7648   3.710   0.716   3.876  0.1737  0.0253  0.2811
   83SOPE  H11R 7649   3.741   0.652   3.961  1.2029 -0.1210 -0.1873
   83SOPE  H11S 7650   3.721   0.648   3.789  1.9369  0.4949  0.0914
   83SOPE  C212 7651   3.568   0.772   3.881 -0.3747  0.0942 -1.0245
   83SOPE  H12R 7652   3.545   0.826   3.786 -0.6118 -0.3725 -1.2393
   83SOPE  H12S 7653   3.570   0.855   3.954  2.1810 -0.8408  0.0651
   83SOPE  C213 7654   3.452   0.671   3.902 -0.3322  1.0977 -0.0084
   83SOPE  H13R 7655   3.443   0.605   3.813 -0.0588  1.4643 -0.3130
   83SOPE  H13S 7656   3.357   0.727   3.895 -0.4397  1.0790  1.1815
   83SOPE  C214 7657   3.461   0.585   4.032  0.6348  0.0481  0.3458
   83SOPE  H14R 7658   3.543   0.510   4.033 -0.5187 -1.2676  0.9222
   83SOPE  H14S 7659   3.363   0.533   4.041  0.2399  0.7490  0.1963
   83SOPE  C215 7660   3.461   0.673   4.150  0.5998 -0.1805 -0.0187
   83SOPE  H15R 7661   3.561   0.721   4.146  0.2458  0.4847 -1.3252
   83SOPE  H15S 7662   3.452   0.619   4.247 -0.2121  1.9719  1.1670
   83SOPE  C216 7663   3.348   0.785   4.146 -0.5548  0.2411  1.2840
   83SOPE  H16R 7664   3.248   0.739   4.130 -1.0020  1.3040  0.9247
   83SOPE  H16S 7665   3.379   0.861   4.071  0.4906  0.7622  2.2198
   83SOPE  C217 7666   3.356   0.862   4.280  0.3489  0.8200 -0.1267
   83SOPE  H17R 7667   3.441   0.933   4.274  0.1082  1.3159  1.6188
   83SOPE  H17S 7668   3.383   0.794   4.364 -1.6870  0.1633  0.0337
   83SOPE  C218 7669   3.225   0.931   4.316  0.9083 -0.4407  0.7813
   83SOPE  H18R 7670   3.155   0.856   4.359 -2.1863  1.4659 -0.6119
   83SOPE  H18S 7671   3.189   0.993   4.232 -1.3205  0.6780  2.4650
   83SOPE  H18T 7672   3.240   1.005   4.398 -2.3025  2.5581 -1.0681
   83SOPE   C33 7673   3.093   1.111   3.225  0.1037 -0.0228  0.2387
   83SOPE   H3X 7674   3.077   1.215   3.261 -2.0790 -0.4045  0.4620
   83SOPE   H3Y 7675   3.173   1.060   3.283  0.9547  1.6359  0.5897
   83SOPE   C34 7676   2.970   1.019   3.224  0.0963 -0.5233 -0.0856
   83SOPE   H4X 7677   3.023   0.922   3.224 -1.1242 -1.2462  1.5520
   83SOPE   H4Y 7678   2.902   1.028   3.137 -2.7399 -3.0884  1.6481
   83SOPE   C35 7679   2.894   1.025   3.355  0.6413  0.6927 -0.1039
   83SOPE   H5X 7680   2.965   1.015   3.440 -0.3855  1.4829  0.9037
   83SOPE   H5Y 7681   2.826   0.938   3.343  0.0351  1.1344  0.0396
   83SOPE   C36 7682   2.806   1.158   3.380  0.0736 -0.2641 -0.1411
   83SOPE   H6X 7683   2.760   1.180   3.281 -1.8366 -1.6046  0.3879
   83SOPE   H6Y 7684   2.882   1.238   3.389  0.4519 -0.7325  0.8890
   83SOPE   C37 7685   2.698   1.145   3.483  0.1767  0.2662 -1.1485
   83SOPE   H7X 7686   2.617   1.072   3.462 -0.6679  0.1185  2.0502
   83SOPE   H7Y 7687   2.643   1.241   3.483  1.2780  1.1278  3.3949
   83SOPE   C38 7688   2.735   1.110   3.626 -0.3970  0.2944 -0.0505
   83SOPE   H8X 7689   2.792   1.197   3.666 -0.4763 -0.0473  0.8325
   83SOPE   H8Y 7690   2.807   1.026   3.627  0.8937  1.3507 -0.7965
   83SOPE   C39 7691   2.610   1.079   3.716  0.2847 -0.4555 -0.2761
   83SOPE   H9X 7692   2.524   1.041   3.657 -0.1699 -2.6140  1.6580
   83SOPE   H9Y 7693   2.586   1.181   3.753  0.2677  0.2194 -2.0283
   83SOPE  C310 7694   2.649   0.982   3.836 -0.2706 -0.4775  0.3890
   83SOPE  H10X 7695   2.565   1.003   3.905  0.7655  0.7359  1.3417
   83SOPE  H10Y 7696   2.748   1.015   3.874 -0.2011  2.1766 -1.7503
   83SOPE  C311 7697   2.667   0.831   3.796 -0.0322 -0.2828  1.0085
   83SOPE  H11X 7698   2.757   0.819   3.731 -0.0466 -1.3385  1.1781
   83SOPE  H11Y 7699   2.582   0.813   3.727  0.3117  0.7884  0.2691
   83SOPE  C312 7700   2.663   0.738   3.907 -0.7769  0.0205 -0.1005
   83SOPE  H12X 7701   2.677   0.634   3.870  2.9739  0.7995 -1.2409
   83SOPE  H12Y 7702   2.578   0.762   3.975  1.0156 -0.5671  2.4901
   83SOPE  C313 7703   2.787   0.756   3.999  0.2886 -0.2830  0.3871
   83SOPE  H13X 7704   2.773   0.864   4.020  1.3200 -0.2768  1.1517
   83SOPE  H13Y 7705   2.882   0.738   3.945 -0.3965  2.1057 -1.8281
   83SOPE  C314 7706   2.776   0.679   4.128 -0.4113  0.3089 -0.4360
   83SOPE  H14X 7707   2.680   0.707   4.175  0.7155 -0.8786  2.8043
   83SOPE  H14Y 7708   2.855   0.715   4.198  1.0916 -1.0347 -1.3524
   83SOPE  C315 7709   2.779   0.524   4.122  0.0388 -0.1940 -0.5675
   83SOPE  H15X 7710   2.734   0.480   4.031  2.2471 -1.9410 -0.9007
   83SOPE  H15Y 7711   2.735   0.503   4.222 -0.4619  2.2052 -0.2218
   83SOPE  C316 7712   2.922   0.472   4.113  0.3807 -0.4374 -0.1539
   83SOPE  H16X 7713   2.987   0.542   4.169 -2.1822  2.2040 -0.2307
   83SOPE  H16Y 7714   2.959   0.475   4.008 -0.7813  0.6414 -0.5439
   83SOPE  C317 7715   2.949   0.332   4.161  0.0001 -0.0081  0.1227
   83SOPE  H17X 7716   2.916   0.328   4.267  0.0927  0.6222  0.1833
   83SOPE  H17Y 7717   3.059   0.323   4.171 -0.2579 -1.5793  2.3055
   83SOPE  C318 7718   2.886   0.222   4.077 -0.2822 -0.2945  0.3965
   83SOPE  H18X 7719   2.940   0.193   3.984 -0.8915 -2.5841  0.6858
   83SOPE  H18Y 7720   2.789   0.258   4.038 -0.1155  0.8840  1.0352
   83SOPE  H18Z 7721   2.849   0.129   4.125 -1.9817  0.4283  0.5669
   84SOPE     N 7722   1.850   4.171   2.421  0.2231 -0.3292 -0.1749
   84SOPE   HN1 7723   1.842   4.119   2.332 -1.0544 -0.7949  0.1904
   84SOPE   HN2 7724   1.857   4.272   2.399 -1.2670  0.1244  1.2658
   84SOPE   HN3 7725   1.934   4.144   2.477  0.9545  2.8616  0.4602
   84SOPE   C12 7726   1.730   4.154   2.513 -0.1511 -0.6070 -0.0156
   84SOPE  H12A 7727   1.744   4.223   2.599  1.7136 -0.2645 -0.5464
   84SOPE  H12B 7728   1.725   4.046   2.538 -4.3721 -0.6855 -0.5936
   84SOPE   C11 7729   1.596   4.194   2.441  0.7934  0.5348  0.0674
   84SOPE  H11A 7730   1.522   4.173   2.522  2.3511  0.4436  1.5220
   84SOPE  H11B 7731   1.573   4.124   2.357  0.7749  0.2601  0.2999
   84SOPE     P 7732   1.470   4.390   2.331  0.4828  0.3480 -0.4961
   84SOPE   O13 7733   1.451   4.309   2.206  0.3998 -0.0247 -0.5487
   84SOPE   O14 7734   1.482   4.534   2.306 -0.1288  0.2893 -0.3892
   84SOPE   O12 7735   1.607   4.331   2.395  0.0548  0.8002  0.6976
   84SOPE   O11 7736   1.351   4.354   2.430 -0.0428  0.1400  0.0163
   84SOPE    C1 7737   1.318   4.439   2.544 -0.5451  0.2346  0.2404
   84SOPE    HA 7738   1.221   4.404   2.586 -0.6816  0.3619  0.0376
   84SOPE    HB 7739   1.316   4.548   2.523 -1.3409  0.2924  0.5647
   84SOPE    C2 7740   1.402   4.410   2.672 -0.5434  0.1355  0.5039
   84SOPE    HS 7741   1.377   4.486   2.748  0.5358  0.8558  0.1601
   84SOPE   O21 7742   1.542   4.424   2.659  0.5205 -0.2017 -0.6150
   84SOPE   C21 7743   1.585   4.551   2.652  0.7389  0.4259 -0.3249
   84SOPE   O22 7744   1.517   4.652   2.657 -0.3221 -0.2804 -0.9861
   84SOPE   C22 7745   1.729   4.557   2.629  0.5402 -0.5660  0.8332
   84SOPE   H2R 7746   1.753   4.662   2.604 -3.1863 -0.2440 -2.5352
   84SOPE   H2S 7747   1.756   4.519   2.528  2.2853  1.4990  0.4637
   84SOPE    C3 7748   1.370   4.279   2.743  0.1382  0.3226 -0.1723
   84SOPE    HX 7749   1.419   4.185   2.711  1.0100  1.0641 -1.0580
   84SOPE    HY 7750   1.259   4.267   2.745  0.0312  0.3507  4.2011
   84SOPE   O31 7751   1.399   4.298   2.884 -0.7245 -0.1411 -0.4204
   84SOPE   C31 7752   1.521   4.246   2.926  0.2671  0.0977 -0.2375
   84SOPE   O32 7753   1.606   4.194   2.857  0.2943 -0.2921  1.2610
   84SOPE   C32 7754   1.539   4.249   3.077  0.1112  0.3102 -0.1796
   84SOPE   H2X 7755   1.434   4.240   3.114  0.8306 -0.1895  1.8421
   84SOPE   H2Y 7756   1.573   4.349   3.109 -0.1559  0.1982  0.4653
   84SOPE   C23 7757   1.815   4.483   2.732  0.6956  0.0194  0.2225
   84SOPE   H3R 7758   1.916   4.475   2.686  0.6634 -1.7615  0.3897
   84SOPE   H3S 7759   1.772   4.381   2.738  0.9889 -0.1378 -0.2878
   84SOPE   C24 7760   1.822   4.553   2.864 -0.0991  0.1802  0.2459
   84SOPE   H4R 7761   1.863   4.654   2.845  1.6430 -0.7801 -1.4349
   84SOPE   H4S 7762   1.722   4.577   2.907  0.8361  1.0849  2.0413
   84SOPE   C25 7763   1.896   4.476   2.974  0.0474 -0.1407 -0.8294
   84SOPE   H5R 7764   1.836   4.396   3.021  2.9704 -1.9976 -0.0038
   84SOPE   H5S 7765   1.980   4.425   2.922  2.2630  0.1121  2.2778
   84SOPE   C26 7766   1.952   4.576   3.080 -0.2232  0.1400  0.1275
   84SOPE   H6R 7767   2.027   4.645   3.034 -0.6803  0.0140 -0.8402
   84SOPE   H6S 7768   1.873   4.644   3.118 -0.2640 -0.7423  1.6891
   84SOPE   C27 7769   2.015   4.497   3.189  0.5778  0.2471  0.2722
   84SOPE   H7R 7770   1.936   4.440   3.243 -0.9099  1.3152 -0.6887
   84SOPE   H7S 7771   2.084   4.421   3.147 -2.1644 -2.0176 -0.4687
   84SOPE   C28 7772   2.080   4.590   3.295  1.1099 -0.5755  0.5697
   84SOPE   H8R 7773   2.108   4.532   3.385 -1.7670 -3.2698 -0.0773
   84SOPE   H8S 7774   2.180   4.614   3.253 -0.0818  1.4107 -1.3747
   84SOPE   C29 7775   2.011   4.712   3.351  0.1120 -0.0876  0.2227
   84SOPE   H91 7776   2.012   4.795   3.279 -1.0289 -0.9657 -0.8456
   84SOPE  C210 7777   1.961   4.738   3.470  0.2861 -0.6091  0.5783
   84SOPE  H101 7778   1.902   4.826   3.498  1.3363 -0.0262  1.0390
   84SOPE  C211 7779   1.955   4.641   3.584 -0.0121 -0.5621  0.3303
   84SOPE  H11R 7780   1.968   4.689   3.683 -1.6513 -0.2550  0.4245
   84SOPE  H11S 7781   2.031   4.560   3.576 -1.0030 -1.6621  1.6296
   84SOPE  C212 7782   1.810   4.586   3.579  1.3854  0.0064 -0.4773
   84SOPE  H12R 7783   1.800   4.519   3.667 -3.3475  0.5966 -0.2536
   84SOPE  H12S 7784   1.799   4.522   3.489 -0.4069 -0.0252 -0.2741
   84SOPE  C213 7785   1.703   4.700   3.598 -0.7394 -0.2212 -0.3003
   84SOPE  H13R 7786   1.681   4.736   3.495 -0.0974 -0.9981 -0.7121
   84SOPE  H13S 7787   1.739   4.774   3.673 -1.0107  0.1836 -0.5600
   84SOPE  C214 7788   1.562   4.645   3.640  0.0578  0.2580 -0.1907
   84SOPE  H14R 7789   1.540   4.564   3.566  1.5428 -2.1590  1.8382
   84SOPE  H14S 7790   1.484   4.723   3.640 -1.4434 -1.1525  1.3655
   84SOPE  C215 7791   1.559   4.581   3.784  0.1122 -0.0097 -0.1762
   84SOPE  H15R 7792   1.557   4.659   3.864  0.5585 -1.3858  1.2202
   84SOPE  H15S 7793   1.634   4.500   3.797 -1.4391 -1.4626  0.0913
   84SOPE  C216 7794   1.426   4.507   3.814  0.0652 -0.0661 -0.3668
   84SOPE  H16R 7795   1.421   4.412   3.756 -3.0163 -0.2368  0.0347
   84SOPE  H16S 7796   1.353   4.570   3.760 -0.4767 -1.4707 -1.3421
   84SOPE  C217 7797   1.388   4.479   3.960  0.7823  0.1135  0.0430
   84SOPE  H17R 7798   1.457   4.406   4.008 -0.5920 -0.8275  0.6631
   84SOPE  H17S 7799   1.293   4.421   3.954  0.6644  0.4545 -1.7829
   84SOPE  C218 7800   1.377   4.596   4.056  0.0884  0.4490 -0.3517
   84SOPE  H18R 7801   1.357   4.574   4.163 -2.9365  0.2241 -0.8789
   84SOPE  H18S 7802   1.297   4.662   4.015 -1.2075 -0.4176  0.7297
   84SOPE  H18T 7803   1.470   4.654   4.035  1.1915 -1.6827 -1.6797
   84SOPE   C33 7804   1.626   4.136   3.143  0.0951  0.2802 -0.1192
   84SOPE   H3X 7805   1.721   4.144   3.087 -1.1031  1.8262 -2.0808
   84SOPE   H3Y 7806   1.588   4.038   3.106  1.2199 -0.3589  0.3603
   84SOPE   C34 7807   1.646   4.126   3.293  0.6579  0.1031 -0.1663
   84SOPE   H4X 7808   1.697   4.035   3.330 -2.3043 -0.7893  2.1371
   84SOPE   H4Y 7809   1.548   4.128   3.346  2.2517  3.9229  3.1271
   84SOPE   C35 7810   1.733   4.239   3.354  0.4081 -0.1382  0.4063
   84SOPE   H5X 7811   1.677   4.334   3.340 -0.6129 -0.7580  0.1728
   84SOPE   H5Y 7812   1.828   4.245   3.297  0.2521  1.0236  0.2314
   84SOPE   C36 7813   1.765   4.216   3.506  0.2083  0.6778 -0.5042
   84SOPE   H6X 7814   1.859   4.269   3.531  0.9033 -1.2808  1.3436
   84SOPE   H6Y 7815   1.789   4.108   3.507 -1.4471  0.2785  0.0022
   84SOPE   C37 7816   1.649   4.251   3.594 -0.1621  0.1959 -0.0773
   84SOPE   H7X 7817   1.557   4.208   3.548 -1.8199  0.3506  2.8611
   84SOPE   H7Y 7818   1.645   4.362   3.592 -2.1567  0.2313  1.8543
   84SOPE   C38 7819   1.662   4.208   3.744 -0.1153 -0.1934 -0.5779
   84SOPE   H8X 7820   1.639   4.100   3.757  0.8238 -0.0962  3.2735
   84SOPE   H8Y 7821   1.584   4.253   3.809  0.4151 -0.2823  0.1399
   84SOPE   C39 7822   1.799   4.240   3.802 -0.0294 -0.4993  0.2087
   84SOPE   H9X 7823   1.816   4.349   3.816 -1.4535 -0.5350  2.9364
   84SOPE   H9Y 7824   1.877   4.201   3.732 -0.8998 -1.2331 -0.3681
   84SOPE  C310 7825   1.817   4.190   3.942 -0.2459 -0.6066 -0.0597
   84SOPE  H10X 7826   1.831   4.080   3.946 -0.8452 -0.6686  1.3585
   84SOPE  H10Y 7827   1.725   4.211   4.002 -1.5705  0.0087 -2.1908
   84SOPE  C311 7828   1.945   4.243   4.009  0.0958  0.4710  0.5724
   84SOPE  H11X 7829   1.934   4.349   4.039 -0.2791  0.8318 -0.7516
   84SOPE  H11Y 7830   2.033   4.239   3.941 -1.2674  0.4935 -1.2779
   84SOPE  C312 7831   1.965   4.174   4.139  0.7439 -0.3477 -0.0011
   84SOPE  H12X 7832   2.063   4.189   4.188 -0.0089  0.3339  1.3398
   84SOPE  H12Y 7833   1.942   4.065   4.135  1.1078 -0.4476  0.5086
   84SOPE  C313 7834   1.865   4.214   4.250  0.4459  0.3209 -0.3884
   84SOPE  H13X 7835   1.762   4.213   4.208 -0.5412  2.7344  1.7208
   84SOPE  H13Y 7836   1.884   4.322   4.267  0.2877  0.4879 -1.2509
   84SOPE  C314 7837   1.871   4.127   4.371 -0.1694 -0.2608 -0.1420
   84SOPE  H14X 7838   1.969   4.136   4.421 -2.1849  0.6261  4.1112
   84SOPE  H14Y 7839   1.867   4.021   4.339 -0.6188 -0.5027  0.6916
   84SOPE  C315 7840   1.765   4.150   4.472  0.5357 -0.1383 -0.6781
   84SOPE  H15X 7841   1.670   4.163   4.416  0.2140  1.8038  0.2383
   84SOPE  H15Y 7842   1.778   4.250   4.519 -0.0433 -0.3695 -0.0125
   84SOPE  C316 7843   1.742   4.025   4.561 -0.2206 -0.0644  0.3732
   84SOPE  H16X 7844   1.840   4.014   4.613  0.7788  1.8259 -0.9385
   84SOPE  H16Y 7845   1.714   3.938   4.499 -0.1073 -0.6708  1.1518
   84SOPE  C317 7846   1.634   4.054   4.671 -0.2890  0.7622 -0.0356
   84SOPE  H17X 7847   1.664   4.145   4.727  0.9287  0.2981  0.0925
   84SOPE  H17Y 7848   1.632   3.970   4.744  1.1967  0.7933  0.0782
   84SOPE  C318 7849   1.489   4.078   4.617 -0.4819 -0.1271  0.7047
   84SOPE  H18X 7850   1.447   4.015   4.536  3.8293 -0.1198 -1.8371
   84SOPE  H18Y 7851   1.479   4.174   4.562 -0.7181 -1.9935 -2.7607
   84SOPE  H18Z 7852   1.420   4.070   4.704 -0.1599 -0.9923  0.8938
   85SOPE     N 7853   2.094   1.073   1.631 -0.1501 -0.9137 -0.1105
   85SOPE   HN1 7854   2.187   1.049   1.590  0.8042 -1.9658  2.4115
   85SOPE   HN2 7855   2.118   1.091   1.731  1.5398 -0.1903 -0.6008
   85SOPE   HN3 7856   2.020   1.001   1.640 -1.7455  0.9279  3.7305
   85SOPE   C12 7857   2.036   1.199   1.567  0.2027  0.0397 -0.2857
   85SOPE  H12A 7858   1.935   1.205   1.613 -0.0345 -1.3690 -0.5777
   85SOPE  H12B 7859   2.022   1.168   1.462 -0.0694 -1.9237  0.2722
   85SOPE   C11 7860   2.124   1.319   1.581 -0.2809 -0.6422  0.7747
   85SOPE  H11A 7861   2.079   1.408   1.532 -0.2294 -0.9241  0.2050
   85SOPE  H11B 7862   2.225   1.312   1.533 -0.0558  1.3584  0.8440
   85SOPE     P 7863   2.258   1.449   1.768  0.3363 -0.1986 -0.2287
   85SOPE   O13 7864   2.271   1.559   1.672 -0.5277 -0.2491 -0.0095
   85SOPE   O14 7865   2.381   1.378   1.804 -0.8559 -0.2214 -0.0322
   85SOPE   O12 7866   2.145   1.353   1.711  0.7017 -0.7844 -0.2254
   85SOPE   O11 7867   2.190   1.518   1.892 -0.1331 -0.4939 -0.3041
   85SOPE    C1 7868   2.269   1.573   2.002  0.1020 -1.0037 -0.2184
   85SOPE    HA 7869   2.210   1.654   2.051  1.5440 -0.5884  0.9077
   85SOPE    HB 7870   2.366   1.614   1.967 -0.4272 -0.7994 -1.4889
   85SOPE    C2 7871   2.297   1.471   2.114  0.3942 -0.0114 -0.2276
   85SOPE    HS 7872   2.355   1.391   2.062 -0.6777 -0.5879 -0.5778
   85SOPE   O21 7873   2.171   1.422   2.163  0.3252  1.0209 -0.3585
   85SOPE   C21 7874   2.158   1.290   2.193  0.5383 -0.5646 -0.1093
   85SOPE   O22 7875   2.244   1.205   2.181  1.0952  0.0523 -0.5661
   85SOPE   C22 7876   2.015   1.262   2.242  0.0379  0.3851 -0.1606
   85SOPE   H2R 7877   2.012   1.152   2.257  0.3033  0.4300  0.2421
   85SOPE   H2S 7878   1.940   1.297   2.168  0.4368 -2.2336 -1.9603
   85SOPE    C3 7879   2.367   1.539   2.226  0.0970  0.4827  0.1153
   85SOPE    HX 7880   2.292   1.606   2.273 -2.5572 -1.0661 -1.6215
   85SOPE    HY 7881   2.455   1.598   2.195  1.7172 -0.4289  2.6358
   85SOPE   O31 7882   2.412   1.453   2.334  0.6613 -0.2432 -0.2956
   85SOPE   C31 7883   2.507   1.368   2.299 -0.1144  0.0071  0.4356
   85SOPE   O32 7884   2.571   1.374   2.191  0.1006 -0.0807 -0.1049
   85SOPE   C32 7885   2.525   1.269   2.410  0.2999 -0.0368  0.2051
   85SOPE   H2X 7886   2.570   1.173   2.376  0.0941 -0.1967  0.3823
   85SOPE   H2Y 7887   2.428   1.248   2.458  0.2362 -2.3510 -0.7960
   85SOPE   C23 7888   1.994   1.334   2.371 -0.6473 -0.1761 -0.2294
   85SOPE   H3R 7889   2.022   1.441   2.365 -0.4855 -0.2046  0.0125
   85SOPE   H3S 7890   2.061   1.290   2.448  0.0217  1.3853  0.1003
   85SOPE   C24 7891   1.842   1.319   2.409 -0.0570 -0.6174 -0.1190
   85SOPE   H4R 7892   1.776   1.371   2.335 -0.4987 -1.8055 -0.5827
   85SOPE   H4S 7893   1.819   1.211   2.417  0.7050 -0.7202  0.8328
   85SOPE   C25 7894   1.810   1.375   2.544 -0.5621  0.6107 -0.4122
   85SOPE   H5R 7895   1.864   1.324   2.627 -2.6813 -1.1442 -0.0110
   85SOPE   H5S 7896   1.860   1.473   2.554  0.6194 -0.0602  0.5820
   85SOPE   C26 7897   1.663   1.385   2.574  0.2817 -0.1360  0.8562
   85SOPE   H6R 7898   1.625   1.448   2.491 -1.0525 -0.1720  1.4120
   85SOPE   H6S 7899   1.608   1.289   2.562  2.1282 -1.1206 -0.2419
   85SOPE   C27 7900   1.633   1.449   2.713 -0.6378 -0.2731  0.8222
   85SOPE   H7R 7901   1.662   1.377   2.792  4.1778 -0.7684 -1.0898
   85SOPE   H7S 7902   1.699   1.537   2.724  0.3340 -0.6249 -1.5344
   85SOPE   C28 7903   1.488   1.486   2.735  0.3857 -0.6268 -0.4890
   85SOPE   H8R 7904   1.419   1.399   2.733  0.3619 -0.5933 -1.3074
   85SOPE   H8S 7905   1.485   1.527   2.839 -0.0519  0.5804 -0.9605
   85SOPE   C29 7906   1.436   1.598   2.648  0.7821 -0.1402 -0.0463
   85SOPE   H91 7907   1.451   1.595   2.539  0.6115 -0.4556 -0.0621
   85SOPE  C210 7908   1.386   1.721   2.683  0.2367  0.0504 -0.2794
   85SOPE  H101 7909   1.363   1.793   2.604  0.6666  2.5265  1.7051
   85SOPE  C211 7910   1.346   1.772   2.819  0.0206 -0.4385 -0.0154
   85SOPE  H11R 7911   1.321   1.696   2.896 -2.1708  0.4532  0.2408
   85SOPE  H11S 7912   1.245   1.818   2.816  0.4614  0.6937  1.4052
   85SOPE  C212 7913   1.439   1.884   2.873 -0.2593 -0.1524 -0.1380
   85SOPE  H12R 7914   1.487   1.932   2.785 -0.8875  2.0169  0.6209
   85SOPE  H12S 7915   1.519   1.845   2.940 -0.1157  0.0932 -0.1645
   85SOPE  C213 7916   1.359   1.995   2.951  0.3164  0.6471  0.1637
   85SOPE  H13R 7917   1.259   2.016   2.908  0.9166  1.5238 -0.8280
   85SOPE  H13S 7918   1.416   2.090   2.949  1.1639  0.1722  0.6503
   85SOPE  C214 7919   1.332   1.957   3.094  0.4041  0.2011 -0.8579
   85SOPE  H14R 7920   1.291   2.047   3.143 -0.5754  0.4876 -2.1310
   85SOPE  H14S 7921   1.430   1.936   3.141  0.4533 -0.9257 -1.4063
   85SOPE  C215 7922   1.219   1.851   3.112  0.7236 -1.0109  0.0686
   85SOPE  H15R 7923   1.266   1.750   3.105 -0.8393 -1.7123 -0.8870
   85SOPE  H15S 7924   1.152   1.863   3.025  2.5363  1.8049 -1.0932
   85SOPE  C216 7925   1.144   1.869   3.247 -1.0713 -0.0190 -0.1045
   85SOPE  H16R 7926   1.058   1.801   3.261 -0.0239 -1.3436  0.0598
   85SOPE  H16S 7927   1.113   1.975   3.236  0.3351  0.3152 -1.0890
   85SOPE  C217 7928   1.237   1.850   3.371  0.3376  0.0672 -1.0717
   85SOPE  H17R 7929   1.325   1.916   3.355  1.4276 -1.0632 -0.0381
   85SOPE  H17S 7930   1.269   1.743   3.371 -1.6487 -0.5784  0.2645
   85SOPE  C218 7931   1.162   1.880   3.499 -0.5821 -0.2193 -0.3134
   85SOPE  H18R 7932   1.218   1.911   3.590  0.3116  0.7264 -1.1654
   85SOPE  H18S 7933   1.096   1.795   3.524 -0.7596  0.0399  0.1164
   85SOPE  H18T 7934   1.090   1.965   3.498 -0.7833 -0.2957  1.9461
   85SOPE   C33 7935   2.617   1.329   2.521 -0.3009  0.1459  0.0534
   85SOPE   H3X 7936   2.551   1.411   2.557  0.3001  1.4703 -1.7062
   85SOPE   H3Y 7937   2.703   1.380   2.472  0.2704 -1.3061 -0.5269
   85SOPE   C34 7938   2.674   1.238   2.640 -0.1652  0.0565 -0.1517
   85SOPE   H4X 7939   2.735   1.304   2.704 -0.8662 -0.1609  0.7494
   85SOPE   H4Y 7940   2.738   1.154   2.603 -0.3816  0.3305 -1.1912
   85SOPE   C35 7941   2.560   1.181   2.720  0.7041 -0.3992 -0.2808
   85SOPE   H5X 7942   2.605   1.112   2.794  1.8988  0.4165 -0.2235
   85SOPE   H5Y 7943   2.490   1.127   2.652  1.0695  0.1579 -1.1174
   85SOPE   C36 7944   2.469   1.278   2.796 -0.3833  0.3985  0.3754
   85SOPE   H6X 7945   2.384   1.225   2.846 -0.1529  2.3187  3.0011
   85SOPE   H6Y 7946   2.435   1.355   2.724 -0.3716  0.5882  0.5727
   85SOPE   C37 7947   2.536   1.353   2.913 -0.2435 -0.0948 -0.2303
   85SOPE   H7X 7948   2.469   1.421   2.969 -0.3114 -1.7723  1.8797
   85SOPE   H7Y 7949   2.615   1.420   2.874  0.7497 -0.5694  0.8887
   85SOPE   C38 7950   2.607   1.266   3.029 -0.0906 -1.2600 -0.0274
   85SOPE   H8X 7951   2.654   1.324   3.111  2.5077 -0.4496 -1.9637
   85SOPE   H8Y 7952   2.690   1.212   2.977  1.4031 -1.0314  1.9917
   85SOPE   C39 7953   2.517   1.159   3.096 -0.5034  0.0943 -0.7123
   85SOPE   H9X 7954   2.558   1.113   3.188  1.5014  3.1466  0.0555
   85SOPE   H9Y 7955   2.509   1.076   3.023 -1.2982 -0.4254 -0.0419
   85SOPE  C310 7956   2.378   1.193   3.145 -0.0556 -0.0849 -0.6205
   85SOPE  H10X 7957   2.324   1.098   3.161  1.1937 -0.8172 -0.6736
   85SOPE  H10Y 7958   2.322   1.254   3.070 -0.0068  1.2850  0.4242
   85SOPE  C311 7959   2.379   1.276   3.276 -0.2115  0.6277  0.4035
   85SOPE  H11X 7960   2.397   1.382   3.248 -1.7330  0.5673 -0.9427
   85SOPE  H11Y 7961   2.459   1.242   3.345 -1.4486 -0.6155  1.2683
   85SOPE  C312 7962   2.236   1.270   3.339  0.3518  0.4351  0.1460
   85SOPE  H12X 7963   2.156   1.262   3.262  2.1834 -0.5572 -1.7496
   85SOPE  H12Y 7964   2.218   1.376   3.368  1.7346  0.6697  0.1895
   85SOPE  C313 7965   2.208   1.170   3.454  0.3953  0.7260  0.3804
   85SOPE  H13X 7966   2.270   1.195   3.543 -0.8937 -2.1437  2.2436
   85SOPE  H13Y 7967   2.239   1.067   3.424 -1.8816  0.3251 -0.8094
   85SOPE  C314 7968   2.062   1.165   3.494 -0.0332  0.1216 -0.5765
   85SOPE  H14X 7969   2.013   1.105   3.414 -0.3663 -0.9963  0.4336
   85SOPE  H14Y 7970   2.009   1.263   3.497 -0.0250  0.2422 -2.9521
   85SOPE  C315 7971   2.031   1.094   3.627  0.1518 -0.6731 -0.3455
   85SOPE  H15X 7972   1.923   1.107   3.649 -0.1061 -2.6596 -0.2499
   85SOPE  H15Y 7973   2.089   1.140   3.710  0.9688 -1.3304 -0.5281
   85SOPE  C316 7974   2.053   0.939   3.642  0.3654  0.1372 -0.3753
   85SOPE  H16X 7975   2.155   0.927   3.601  0.2516  0.2900 -0.7098
   85SOPE  H16Y 7976   1.991   0.890   3.564  0.6336 -0.7992 -0.0090
   85SOPE  C317 7977   2.035   0.890   3.781 -0.0605  0.3772  0.9056
   85SOPE  H17X 7978   1.927   0.896   3.805 -0.5116  3.0550 -1.2039
   85SOPE  H17Y 7979   2.084   0.953   3.858  1.1721 -0.2551  0.6653
   85SOPE  C318 7980   2.080   0.741   3.792 -0.4637 -0.0200 -0.0531
   85SOPE  H18X 7981   2.060   0.677   3.704 -0.0104  1.6552 -1.4273
   85SOPE  H18Y 7982   2.028   0.699   3.881 -0.0489  0.8635  0.6236
   85SOPE  H18Z 7983   2.186   0.736   3.824 -0.7052 -1.9943  0.5940
   86SOPE     N 7984   0.553   6.534   1.827 -0.3533  0.0817  0.0629
   86SOPE   HN1 7985   0.591   6.443   1.794 -2.0048 -0.0094 -1.7664
   86SOPE   HN2 7986   0.456   6.541   1.790 -0.2447 -0.0582 -0.2516
   86SOPE   HN3 7987   0.604   6.611   1.778 -1.8985  0.8425 -0.4212
   86SOPE   C12 7988   0.564   6.560   1.981  0.2932  0.4543  0.0797
   86SOPE  H12A 7989   0.672   6.565   2.010 -0.3410 -1.5961  3.3357
   86SOPE  H12B 7990   0.523   6.471   2.034 -2.6279  1.7575  0.1613
   86SOPE   C11 7991   0.495   6.689   2.025 -0.1664  0.2174  1.1964
   86SOPE  H11A 7992   0.554   6.772   1.979  0.9798 -0.2341  1.7924
   86SOPE  H11B 7993   0.511   6.707   2.134 -2.7781 -1.2795  1.9127
   86SOPE     P 7994   0.245   6.657   2.102  0.2687  0.1161  0.2143
   86SOPE   O13 7995   0.277   6.524   2.144 -0.8545  0.1104 -0.5742
   86SOPE   O14 7996   0.111   6.675   2.044  0.2966  0.2349  0.2057
   86SOPE   O12 7997   0.357   6.701   1.994 -0.4164 -0.0535  0.6930
   86SOPE   O11 7998   0.275   6.760   2.218  0.6463  0.5301  0.3023
   86SOPE    C1 7999   0.173   6.795   2.317 -0.4572  0.3603  0.0628
   86SOPE    HA 8000   0.204   6.756   2.416  0.0752 -0.0741 -0.2723
   86SOPE    HB 8001   0.075   6.749   2.290  0.0962 -0.8924  0.1501
   86SOPE    C2 8002   0.141   6.945   2.336  0.6426 -0.9898  0.0055
   86SOPE    HS 8003   0.132   6.997   2.238  1.1635  2.2843  1.5271
   86SOPE   O21 8004   0.248   7.004   2.406 -0.2130  0.2571 -0.1976
   86SOPE   C21 8005   0.253   7.138   2.398 -0.1190  0.2194 -0.6529
   86SOPE   O22 8006   0.182   7.204   2.326 -0.4401 -0.4457 -0.1417
   86SOPE   C22 8007   0.365   7.179   2.495  0.0337 -0.4463 -0.4437
   86SOPE   H2R 8008   0.353   7.114   2.583  1.3000  0.8395  0.7400
   86SOPE   H2S 8009   0.348   7.283   2.530 -0.9577 -0.6327 -0.3564
   86SOPE    C3 8010   0.001   6.966   2.400 -0.0923  0.4495  0.2752
   86SOPE    HX 8011  -0.076   6.941   2.324 -0.9106 -0.3924  1.3305
   86SOPE    HY 8012  -0.020   7.071   2.429 -1.5506 -0.0946  1.3386
   86SOPE   O31 8013  -0.020   6.877   2.511 -0.0159  0.6000 -0.5749
   86SOPE   C31 8014   0.031   6.903   2.629 -0.7485 -0.1512 -0.5872
   86SOPE   O32 8015   0.083   7.004   2.666 -0.3549 -0.5179  0.6383
   86SOPE   C32 8016   0.021   6.775   2.716  0.1192  0.0116  0.2701
   86SOPE   H2X 8017   0.121   6.729   2.728  1.1002  1.5380 -1.4779
   86SOPE   H2Y 8018  -0.037   6.703   2.655  1.6701 -1.0246 -0.0277
   86SOPE   C23 8019   0.509   7.175   2.430  0.0747 -0.0378  0.9389
   86SOPE   H3R 8020   0.497   7.216   2.327  1.1869 -0.7967  0.4766
   86SOPE   H3S 8021   0.559   7.077   2.413  0.7583  0.1937  1.5746
   86SOPE   C24 8022   0.607   7.263   2.503 -0.4409  0.0534 -0.1306
   86SOPE   H4R 8023   0.694   7.287   2.438  1.0393 -1.7419  1.0856
   86SOPE   H4S 8024   0.561   7.362   2.522  2.5043  1.4901  0.1855
   86SOPE   C25 8025   0.652   7.205   2.632  0.2410 -0.2727 -0.2451
   86SOPE   H5R 8026   0.574   7.195   2.711 -0.2844  0.4109 -0.6669
   86SOPE   H5S 8027   0.683   7.100   2.610  2.5409  0.4135 -0.5993
   86SOPE   C26 8028   0.773   7.273   2.700  0.3035 -0.3243  0.2209
   86SOPE   H6R 8029   0.862   7.268   2.635  0.0060 -2.2047 -0.0984
   86SOPE   H6S 8030   0.749   7.380   2.720  1.4339  0.0570 -0.3425
   86SOPE   C27 8031   0.820   7.212   2.834  0.6199 -0.0190 -0.6992
   86SOPE   H7R 8032   0.814   7.101   2.830 -0.1599 -0.1023  1.4740
   86SOPE   H7S 8033   0.928   7.234   2.851  1.0549 -1.7875 -0.9248
   86SOPE   C28 8034   0.738   7.255   2.958  0.1094  0.3750  0.2134
   86SOPE   H8R 8035   0.629   7.239   2.945  0.2079  0.2083 -0.4899
   86SOPE   H8S 8036   0.763   7.190   3.044  1.0609  1.6721  0.9399
   86SOPE   C29 8037   0.735   7.397   2.999  0.3464 -0.4981  0.8693
   86SOPE   H91 8038   0.725   7.455   2.906 -0.4936 -3.1346 -0.8186
   86SOPE  C210 8039   0.743   7.442   3.127  0.0756 -0.3972 -0.3261
   86SOPE  H101 8040   0.756   7.548   3.151 -0.4539 -0.3940 -0.0290
   86SOPE  C211 8041   0.722   7.354   3.249  0.4383  0.2800  0.2964
   86SOPE  H11R 8042   0.792   7.269   3.258  1.8335  1.4381  0.6756
   86SOPE  H11S 8043   0.616   7.319   3.244  0.2590  0.8737 -0.1736
   86SOPE  C212 8044   0.743   7.429   3.383  0.1080 -0.2905  0.5308
   86SOPE  H12R 8045   0.641   7.464   3.408 -0.4860 -2.0336  0.6536
   86SOPE  H12S 8046   0.810   7.517   3.379 -0.2893  0.0180  0.6311
   86SOPE  C213 8047   0.797   7.338   3.496  0.0262 -0.4095 -0.6645
   86SOPE  H13R 8048   0.839   7.411   3.569 -0.1048 -0.0125 -0.9826
   86SOPE  H13S 8049   0.881   7.274   3.462 -1.0395 -1.5388 -1.2469
   86SOPE  C214 8050   0.687   7.257   3.563 -0.2296 -0.2897  0.3626
   86SOPE  H14R 8051   0.652   7.182   3.489 -1.3667  1.0052 -0.4566
   86SOPE  H14S 8052   0.595   7.317   3.579 -0.3068  0.4011 -2.2654
   86SOPE  C215 8053   0.735   7.192   3.697  1.3313 -0.3904  1.0196
   86SOPE  H15R 8054   0.778   7.268   3.766  0.9101  0.7207  0.0968
   86SOPE  H15S 8055   0.814   7.117   3.673  1.8196  0.4132  0.0600
   86SOPE  C216 8056   0.623   7.134   3.786 -1.1226 -0.1643  0.2950
   86SOPE  H16R 8057   0.685   7.083   3.862  1.7851 -1.2060 -2.5712
   86SOPE  H16S 8058   0.566   7.050   3.739 -1.6972  0.4510 -0.1361
   86SOPE  C217 8059   0.517   7.230   3.846  0.0614 -0.2216  0.8761
   86SOPE  H17R 8060   0.433   7.168   3.884 -0.8087  0.7363  0.5356
   86SOPE  H17S 8061   0.484   7.292   3.761 -0.5072 -1.5940  0.0592
   86SOPE  C218 8062   0.574   7.316   3.962  0.2176 -0.2249  1.0104
   86SOPE  H18R 8063   0.505   7.394   4.000 -0.1564 -0.4044  0.7022
   86SOPE  H18S 8064   0.661   7.380   3.935 -1.2951  2.1995  1.6082
   86SOPE  H18T 8065   0.596   7.243   4.043  1.4581 -0.1739  0.7440
   86SOPE   C33 8066  -0.048   6.812   2.843  0.2702 -0.1400  0.9597
   86SOPE   H3X 8067  -0.156   6.826   2.821  0.5984  1.9995  0.4956
   86SOPE   H3Y 8068  -0.002   6.906   2.880 -1.8748  1.9798 -1.3686
   86SOPE   C34 8069  -0.038   6.703   2.954  0.0604 -0.3403 -0.2820
   86SOPE   H4X 8070   0.070   6.700   2.980  0.0457  0.0452 -0.1628
   86SOPE   H4Y 8071  -0.065   6.604   2.911  1.8590 -0.9598 -0.0710
   86SOPE   C35 8072  -0.124   6.740   3.075 -0.3472 -0.1029 -0.3713
   86SOPE   H5X 8073  -0.230   6.726   3.046 -0.9952 -0.4269  1.9571
   86SOPE   H5Y 8074  -0.109   6.843   3.113 -0.8681 -0.1180 -0.1103
   86SOPE   C36 8075  -0.093   6.647   3.187 -0.5439  0.4953 -0.4873
   86SOPE   H6X 8076   0.012   6.656   3.224 -1.3382 -0.5573  2.3508
   86SOPE   H6Y 8077  -0.097   6.543   3.148 -1.6557  0.5933 -0.6522
   86SOPE   C37 8078  -0.186   6.638   3.307  0.9575  0.0120  0.2843
   86SOPE   H7X 8079  -0.185   6.543   3.364 -0.8776 -0.4349 -0.3548
   86SOPE   H7Y 8080  -0.289   6.638   3.266 -0.0369  1.2709  2.6455
   86SOPE   C38 8081  -0.168   6.762   3.393 -0.2401  0.0143 -0.4166
   86SOPE   H8X 8082  -0.212   6.851   3.343 -1.1439  0.6999  1.4878
   86SOPE   H8Y 8083  -0.059   6.778   3.407 -0.4897  0.1488  1.7920
   86SOPE   C39 8084  -0.234   6.752   3.536  0.1233 -0.2143 -0.4142
   86SOPE   H9X 8085  -0.174   6.680   3.596  0.2889  1.5357  1.6319
   86SOPE   H9Y 8086  -0.336   6.717   3.510 -0.0139  0.2407 -0.4929
   86SOPE  C310 8087  -0.237   6.888   3.610 -0.5966 -1.3927 -0.0792
   86SOPE  H10X 8088  -0.300   6.951   3.544  1.4774  0.4006 -0.4238
   86SOPE  H10Y 8089  -0.138   6.937   3.610 -1.2649 -0.0044  0.5010
   86SOPE  C311 8090  -0.276   6.852   3.752  0.7647 -0.0360  0.0690
   86SOPE  H11X 8091  -0.193   6.803   3.807 -0.4799 -0.5147  1.5734
   86SOPE  H11Y 8092  -0.361   6.780   3.750 -0.1976  1.0630  0.3141
   86SOPE  C312 8093  -0.331   6.969   3.835 -1.4654 -0.1409  0.1317
   86SOPE  H12X 8094  -0.420   7.010   3.782 -0.8608 -0.7261 -1.3957
   86SOPE  H12Y 8095  -0.257   7.053   3.828  0.7908 -1.9628  0.8592
   86SOPE  C313 8096  -0.355   6.945   3.978  0.0489  0.4188  0.3297
   86SOPE  H13X 8097  -0.377   7.040   4.031 -2.5762 -0.1811  0.4563
   86SOPE  H13Y 8098  -0.270   6.886   4.021 -1.5614 -2.3604 -0.0715
   86SOPE  C314 8099  -0.485   6.855   3.993  0.0809  0.3706  0.0106
   86SOPE  H14X 8100  -0.447   6.757   3.957  1.3309 -0.1141  2.3964
   86SOPE  H14Y 8101  -0.570   6.893   3.932 -0.2395 -1.2441 -0.5912
   86SOPE  C315 8102  -0.527   6.836   4.140  0.7344 -0.1524 -0.5228
   86SOPE  H15X 8103  -0.558   6.929   4.191 -1.3805 -0.9807 -0.2245
   86SOPE  H15Y 8104  -0.429   6.804   4.183  1.1672  0.4711 -1.0288
   86SOPE  C316 8105  -0.632   6.720   4.160 -0.0405  0.0534  0.2381
   86SOPE  H16X 8106  -0.621   6.698   4.268  0.8177 -0.3973  0.0701
   86SOPE  H16Y 8107  -0.603   6.636   4.094  0.4769  1.3296 -1.2478
   86SOPE  C317 8108  -0.777   6.758   4.127  0.5757 -0.3827  0.7555
   86SOPE  H17X 8109  -0.792   6.779   4.019  0.9813  0.8945  0.9328
   86SOPE  H17Y 8110  -0.797   6.855   4.177 -0.1948  0.3450 -0.8778
   86SOPE  C318 8111  -0.879   6.653   4.160 -0.1522  0.0151  0.1688
   86SOPE  H18X 8112  -0.878   6.569   4.088  2.0058 -0.6638  0.8999
   86SOPE  H18Y 8113  -0.983   6.689   4.151  0.1879  0.5653 -2.3417
   86SOPE  H18Z 8114  -0.866   6.611   4.262  1.4496  1.4012  0.5889
   87SOPE     N 8115   0.401   3.605   2.044 -0.6236  0.0975 -0.0079
   87SOPE   HN1 8116   0.367   3.627   2.140 -1.0273 -0.7178  0.0421
   87SOPE   HN2 8117   0.317   3.600   1.983 -0.5692  0.6793 -0.1336
   87SOPE   HN3 8118   0.444   3.510   2.046  0.6861  0.6723 -0.1285
   87SOPE   C12 8119   0.499   3.705   1.990  0.1710 -0.3170 -0.3580
   87SOPE  H12A 8120   0.460   3.809   1.989  3.1254  0.9104 -0.1779
   87SOPE  H12B 8121   0.511   3.681   1.882  1.7826  1.5320 -0.6499
   87SOPE   C11 8122   0.626   3.698   2.076 -0.9346 -0.5037  0.1796
   87SOPE  H11A 8123   0.590   3.708   2.180  2.7021 -2.9545  1.8901
   87SOPE  H11B 8124   0.688   3.785   2.049  0.0966 -0.7583  1.6518
   87SOPE     P 8125   0.805   3.532   2.168  0.1001  0.4271  0.3543
   87SOPE   O13 8126   0.915   3.624   2.134  0.2804  1.1857  0.1568
   87SOPE   O14 8127   0.839   3.388   2.158  0.4767 -0.0726  0.6934
   87SOPE   O12 8128   0.689   3.570   2.065  0.0360 -0.4421 -0.0660
   87SOPE   O11 8129   0.749   3.568   2.320 -0.4491  0.1410 -0.0247
   87SOPE    C1 8130   0.696   3.466   2.403 -0.4316 -0.1625  0.0127
   87SOPE    HA 8131   0.772   3.385   2.416 -1.8034 -1.6304 -0.7933
   87SOPE    HB 8132   0.607   3.423   2.354 -1.2361  1.2817  0.1722
   87SOPE    C2 8133   0.665   3.508   2.545  0.6207 -0.2171 -0.5185
   87SOPE    HS 8134   0.581   3.581   2.542 -1.9574 -2.8094  1.9187
   87SOPE   O21 8135   0.778   3.567   2.600 -0.2176 -0.2514 -0.4603
   87SOPE   C21 8136   0.773   3.661   2.692  0.0158  0.4043 -0.8617
   87SOPE   O22 8137   0.670   3.703   2.748 -0.3279  0.3790  0.2555
   87SOPE   C22 8138   0.915   3.704   2.732  0.3417  0.9482 -0.1170
   87SOPE   H2R 8139   0.907   3.810   2.764 -1.9712  0.4590  1.1134
   87SOPE   H2S 8140   0.981   3.693   2.643  1.0637  0.5259  0.4552
   87SOPE    C3 8141   0.609   3.390   2.635 -0.2458 -0.1838 -0.0841
   87SOPE    HX 8142   0.669   3.299   2.613 -0.9101 -0.1613 -2.2730
   87SOPE    HY 8143   0.511   3.359   2.594 -0.3518 -0.4485  0.3742
   87SOPE   O31 8144   0.603   3.425   2.778 -0.4494  0.1080 -0.5938
   87SOPE   C31 8145   0.495   3.491   2.819 -0.1090  0.2045 -0.1736
   87SOPE   O32 8146   0.408   3.539   2.748  0.0998  0.1832 -0.4751
   87SOPE   C32 8147   0.492   3.500   2.975 -0.4344 -0.4597  0.5896
   87SOPE   H2X 8148   0.587   3.546   3.009 -0.2803 -1.3452  1.4014
   87SOPE   H2Y 8149   0.497   3.393   3.004  0.4532  0.1546  2.9495
   87SOPE   C23 8150   0.966   3.630   2.855  0.6258 -0.8705 -0.0128
   87SOPE   H3R 8151   1.076   3.639   2.859  0.5406  1.2396 -1.0801
   87SOPE   H3S 8152   0.946   3.521   2.847 -1.2695 -0.6092  0.6872
   87SOPE   C24 8153   0.905   3.674   2.989 -0.0768  0.2739  0.0502
   87SOPE   H4R 8154   0.916   3.784   2.983  0.4986  0.2272  0.2060
   87SOPE   H4S 8155   0.799   3.640   2.985  0.2722 -0.7964 -1.2070
   87SOPE   C25 8156   0.974   3.609   3.105 -0.4328 -0.4136 -0.0775
   87SOPE   H5R 8157   0.943   3.504   3.123 -3.8995  0.2876 -1.2113
   87SOPE   H5S 8158   1.083   3.607   3.086  0.3079 -0.9471  3.6248
   87SOPE   C26 8159   0.954   3.678   3.240  0.0293  0.2879 -0.3332
   87SOPE   H6R 8160   0.984   3.785   3.239 -1.6271  0.7706 -0.2201
   87SOPE   H6S 8161   0.846   3.674   3.262 -0.6017 -0.1047 -3.0832
   87SOPE   C27 8162   1.016   3.600   3.356  0.5107 -0.7393  0.2173
   87SOPE   H7R 8163   1.007   3.491   3.339  1.6708 -0.9543  0.8933
   87SOPE   H7S 8164   1.126   3.618   3.351  0.1248  1.6913 -1.7344
   87SOPE   C28 8165   0.970   3.643   3.498 -0.3554 -0.3024 -0.0075
   87SOPE   H8R 8166   0.949   3.752   3.496 -0.3119 -0.2224  2.2266
   87SOPE   H8S 8167   0.875   3.591   3.520 -0.2357 -0.1638  0.8384
   87SOPE   C29 8168   1.074   3.628   3.608 -0.4196  0.3865 -0.0694
   87SOPE   H91 8169   1.173   3.606   3.566 -0.2398  0.4881  0.3005
   87SOPE  C210 8170   1.056   3.641   3.740  0.1561  0.0563  0.6444
   87SOPE  H101 8171   1.148   3.630   3.800  0.4294 -1.8624 -0.0607
   87SOPE  C211 8172   0.924   3.665   3.804  0.0820  0.5265  0.4265
   87SOPE  H11R 8173   0.843   3.652   3.729 -1.5436  2.4125  1.7308
   87SOPE  H11S 8174   0.919   3.771   3.838 -0.5310 -0.2275  2.9157
   87SOPE  C212 8175   0.911   3.592   3.939  0.5721 -0.2898 -0.3945
   87SOPE  H12R 8176   0.917   3.482   3.928 -1.7152 -0.3586 -1.4983
   87SOPE  H12S 8177   0.805   3.606   3.967  0.8775  2.1903 -0.2328
   87SOPE  C213 8178   1.014   3.628   4.046 -0.2792 -0.4551  0.5953
   87SOPE  H13R 8179   1.063   3.719   4.006  0.2958 -1.6253 -1.5027
   87SOPE  H13S 8180   1.087   3.544   4.047 -2.2972 -2.3214  0.7106
   87SOPE  C214 8181   0.955   3.654   4.190  0.4969  0.4069 -0.5679
   87SOPE  H14R 8182   0.867   3.721   4.191  1.5312  1.7956  0.4808
   87SOPE  H14S 8183   1.023   3.718   4.249 -0.9392  1.2684  0.1932
   87SOPE  C215 8184   0.918   3.520   4.260  0.0499  0.0002  0.2004
   87SOPE  H15R 8185   1.017   3.471   4.269  0.7078  1.0462 -0.9205
   87SOPE  H15S 8186   0.854   3.456   4.195  0.5978 -1.1234  0.7369
   87SOPE  C216 8187   0.849   3.548   4.393 -0.0786  0.5317  0.1903
   87SOPE  H16R 8188   0.787   3.640   4.381  0.1623  0.7032  0.2458
   87SOPE  H16S 8189   0.932   3.564   4.465  1.9256 -0.7611 -1.6919
   87SOPE  C217 8190   0.748   3.433   4.432 -0.3098 -0.5399  0.3042
   87SOPE  H17R 8191   0.805   3.347   4.474 -0.1399 -1.1519 -1.1292
   87SOPE  H17S 8192   0.696   3.388   4.344 -0.0423 -0.6743  0.2152
   87SOPE  C218 8193   0.645   3.459   4.537 -0.0781  0.3300  0.3963
   87SOPE  H18R 8194   0.584   3.370   4.563 -1.0793  1.1266  0.8757
   87SOPE  H18S 8195   0.566   3.532   4.511  0.6612  0.4040 -1.7940
   87SOPE  H18T 8196   0.695   3.493   4.631 -1.0784  1.6814  0.4696
   87SOPE   C33 8197   0.369   3.569   3.032 -0.1251 -0.0279 -0.8077
   87SOPE   H3X 8198   0.275   3.520   2.999  0.9717 -2.1192 -0.9849
   87SOPE   H3Y 8199   0.361   3.673   2.993 -1.8871  0.1818  0.0285
   87SOPE   C34 8200   0.357   3.561   3.183 -0.2345  0.6313  0.2102
   87SOPE   H4X 8201   0.344   3.454   3.210 -0.1798  0.2774 -1.1124
   87SOPE   H4Y 8202   0.268   3.622   3.211 -1.0743 -0.3933 -0.1724
   87SOPE   C35 8203   0.481   3.601   3.264  0.4581 -0.7158 -0.2500
   87SOPE   H5X 8204   0.522   3.698   3.228 -1.1350 -0.1934 -0.7462
   87SOPE   H5Y 8205   0.552   3.517   3.250  0.2674 -1.2918  1.9959
   87SOPE   C36 8206   0.445   3.609   3.413 -0.1014 -0.3215  0.8197
   87SOPE   H6X 8207   0.403   3.513   3.450 -1.3805  0.0653  0.3950
   87SOPE   H6Y 8208   0.362   3.682   3.420  0.7542  0.8676 -0.9246
   87SOPE   C37 8209   0.565   3.646   3.496 -0.0475 -0.2924 -0.3482
   87SOPE   H7X 8210   0.596   3.742   3.449 -2.3596 -0.9885 -3.5725
   87SOPE   H7Y 8211   0.640   3.565   3.511 -0.3198 -0.3274  0.9259
   87SOPE   C38 8212   0.525   3.686   3.636 -0.3053 -0.1587 -0.8515
   87SOPE   H8X 8213   0.535   3.602   3.708 -0.6196 -0.1430 -0.7883
   87SOPE   H8Y 8214   0.418   3.716   3.641 -0.0640  0.5267  2.6892
   87SOPE   C39 8215   0.604   3.810   3.685 -0.1934 -0.4045  0.4768
   87SOPE   H9X 8216   0.570   3.895   3.621 -0.8666  0.2276  1.6403
   87SOPE   H9Y 8217   0.708   3.798   3.646 -0.4235 -2.3307  0.3867
   87SOPE  C310 8218   0.607   3.844   3.836  0.0183 -0.2247 -0.3381
   87SOPE  H10X 8219   0.678   3.781   3.893 -0.1020  1.1732  1.4403
   87SOPE  H10Y 8220   0.505   3.817   3.871  0.7881 -0.8124  1.5445
   87SOPE  C311 8221   0.623   3.989   3.889  0.1148  0.1863  0.5322
   87SOPE  H11X 8222   0.548   4.054   3.839  0.5591  0.9309  0.8084
   87SOPE  H11Y 8223   0.711   4.047   3.853  0.6890 -1.0691 -0.1530
   87SOPE  C312 8224   0.607   4.019   4.037 -0.5127  0.1919 -0.0209
   87SOPE  H12X 8225   0.499   4.003   4.059 -0.9658 -0.7024 -2.4840
   87SOPE  H12Y 8226   0.616   4.129   4.035 -1.8153  0.3194 -1.9115
   87SOPE  C313 8227   0.703   3.951   4.128 -0.0690  0.2041  0.9724
   87SOPE  H13X 8228   0.805   3.980   4.093 -1.7096  2.1224 -2.7588
   87SOPE  H13Y 8229   0.701   3.840   4.131  1.4174  0.1551  3.7113
   87SOPE  C314 8230   0.683   3.988   4.281 -0.7334 -0.2010  0.3511
   87SOPE  H14X 8231   0.712   3.897   4.337 -0.6413  0.3822  1.2711
   87SOPE  H14Y 8232   0.573   3.993   4.296 -0.8684 -0.3830 -0.5522
   87SOPE  C315 8233   0.763   4.111   4.319  0.2525 -0.1470  0.6129
   87SOPE  H15X 8234   0.737   4.198   4.255  0.6587  0.3395  1.0998
   87SOPE  H15Y 8235   0.869   4.090   4.294 -0.1313  1.2687 -2.8421
   87SOPE  C316 8236   0.748   4.146   4.472 -0.7470 -0.3276 -0.8416
   87SOPE  H16X 8237   0.767   4.056   4.533 -1.1196 -1.4061 -2.2722
   87SOPE  H16Y 8238   0.639   4.163   4.486 -0.2385  4.1644 -0.6847
   87SOPE  C317 8239   0.828   4.279   4.513 -0.2390  0.0222  0.6822
   87SOPE  H17X 8240   0.799   4.370   4.456 -0.3376 -0.4053  0.0317
   87SOPE  H17Y 8241   0.936   4.263   4.493 -0.3200  1.4938 -1.2283
   87SOPE  C318 8242   0.822   4.319   4.652 -0.0319  0.5611  0.5674
   87SOPE  H18X 8243   0.834   4.428   4.669  0.0009  0.2509  2.9277
   87SOPE  H18Y 8244   0.889   4.253   4.711  1.5196  0.8546 -0.7914
   87SOPE  H18Z 8245   0.719   4.305   4.693 -0.0541 -0.5046  0.1861
   88SOPE     N 8246   2.591   4.912   1.697  0.2261 -0.2592  0.4993
   88SOPE   HN1 8247   2.515   4.863   1.647 -0.1348 -0.3635  1.1443
   88SOPE   HN2 8248   2.551   4.957   1.782 -0.5023 -1.9310  1.0714
   88SOPE   HN3 8249   2.634   4.982   1.633  2.6991  1.0137  3.2884
   88SOPE   C12 8250   2.700   4.818   1.739  0.3034 -0.6648  0.1204
   88SOPE  H12A 8251   2.729   4.755   1.653 -1.0358 -1.2344  0.0677
   88SOPE  H12B 8252   2.649   4.760   1.819 -1.0583 -1.3780 -1.2149
   88SOPE   C11 8253   2.819   4.902   1.794  0.3530  0.5958 -0.0585
   88SOPE  H11A 8254   2.874   4.947   1.709 -0.9972  0.1328 -1.2177
   88SOPE  H11B 8255   2.903   4.844   1.838 -0.0405  0.5809  0.6881
   88SOPE     P 8256   2.872   5.112   1.929 -0.0741  0.1640 -0.4353
   88SOPE   O13 8257   2.804   5.209   2.011 -0.2335 -0.4564 -0.1349
   88SOPE   O14 8258   2.953   5.151   1.812 -0.1831 -0.1160  0.2314
   88SOPE   O12 8259   2.770   4.997   1.888  0.4623 -0.1531  0.0323
   88SOPE   O11 8260   2.960   5.020   2.022 -0.6517  0.2088  0.0781
   88SOPE    C1 8261   2.911   4.937   2.131  0.4905  0.0842 -0.0910
   88SOPE    HA 8262   2.857   4.848   2.093 -3.1011  1.3605  1.6194
   88SOPE    HB 8263   2.836   4.990   2.193 -0.5200  0.3740 -1.5193
   88SOPE    C2 8264   3.027   4.888   2.226  0.1047 -0.3001  1.2432
   88SOPE    HS 8265   2.976   4.814   2.292 -1.7620 -0.0653  0.1545
   88SOPE   O21 8266   3.076   4.998   2.307  0.2036  0.0170  0.4365
   88SOPE   C21 8267   3.001   5.032   2.407  0.0538 -0.3002  0.5971
   88SOPE   O22 8268   2.887   4.991   2.426  0.3633 -0.5129 -0.3802
   88SOPE   C22 8269   3.077   5.138   2.481  0.4353 -0.7564  0.3020
   88SOPE   H2R 8270   3.127   5.202   2.406 -0.1438 -1.8153 -1.0361
   88SOPE   H2S 8271   3.159   5.095   2.542  0.6825  0.0863  0.5780
   88SOPE    C3 8272   3.143   4.815   2.157  0.1645  0.3896 -0.0598
   88SOPE    HX 8273   3.207   4.879   2.093  1.1650  0.2792  0.7929
   88SOPE    HY 8274   3.094   4.737   2.095 -0.1249 -0.2255  0.9158
   88SOPE   O31 8275   3.219   4.749   2.260  0.1647 -0.0693  0.3592
   88SOPE   C31 8276   3.290   4.640   2.231 -0.5490 -0.4509 -0.1444
   88SOPE   O32 8277   3.305   4.599   2.120 -0.3555  0.4199  0.1077
   88SOPE   C32 8278   3.351   4.591   2.364 -0.5125  0.1907  0.1030
   88SOPE   H2X 8279   3.395   4.674   2.423  1.0845  0.8168 -1.8566
   88SOPE   H2Y 8280   3.437   4.527   2.339 -0.6209 -0.0172  0.2594
   88SOPE   C23 8281   2.991   5.228   2.573  0.1236 -0.0248 -0.3583
   88SOPE   H3R 8282   2.916   5.173   2.634 -2.4207  1.9058 -1.5319
   88SOPE   H3S 8283   2.935   5.301   2.510  1.8631  1.4234 -0.3143
   88SOPE   C24 8284   3.085   5.306   2.666 -0.9952 -0.2463 -1.0207
   88SOPE   H4R 8285   3.155   5.369   2.606 -0.1942  0.3377  0.4799
   88SOPE   H4S 8286   3.021   5.381   2.718 -0.6880  0.9209 -2.2446
   88SOPE   C25 8287   3.170   5.222   2.766  0.8863  0.3571  0.0968
   88SOPE   H5R 8288   3.112   5.135   2.801  2.7722 -0.3493  1.6248
   88SOPE   H5S 8289   3.254   5.183   2.705 -1.4062 -3.7738 -0.7216
   88SOPE   C26 8290   3.238   5.303   2.874 -0.5079 -0.5038 -0.0800
   88SOPE   H6R 8291   3.156   5.356   2.926 -1.1093 -1.5891  0.1216
   88SOPE   H6S 8292   3.284   5.240   2.953  0.1067  1.4144  1.1405
   88SOPE   C27 8293   3.325   5.425   2.825 -0.0833  0.0432 -0.2756
   88SOPE   H7R 8294   3.396   5.377   2.754 -0.7767  1.1191 -1.7560
   88SOPE   H7S 8295   3.273   5.505   2.769  0.0021 -0.0572 -0.5002
   88SOPE   C28 8296   3.407   5.483   2.948  0.1545 -0.0363 -0.1489
   88SOPE   H8R 8297   3.475   5.399   2.970  0.6032 -0.0018 -1.3254
   88SOPE   H8S 8298   3.467   5.558   2.892  1.7907 -1.2195 -0.0447
   88SOPE   C29 8299   3.313   5.524   3.056 -0.1467 -0.5717  0.4986
   88SOPE   H91 8300   3.218   5.568   3.022 -0.0094 -0.9218 -0.3738
   88SOPE  C210 8301   3.334   5.510   3.191 -0.2871 -0.0713 -0.3127
   88SOPE  H101 8302   3.248   5.532   3.256 -1.4131  3.0339 -2.5746
   88SOPE  C211 8303   3.458   5.446   3.248 -0.2044  0.0019 -0.4981
   88SOPE  H11R 8304   3.515   5.524   3.303  1.0003 -1.0422 -0.2065
   88SOPE  H11S 8305   3.529   5.400   3.177  1.6097 -0.3129  1.4211
   88SOPE  C212 8306   3.431   5.338   3.351  0.2539 -0.1515  0.2101
   88SOPE  H12R 8307   3.520   5.273   3.364  0.3786  0.2411  1.5224
   88SOPE  H12S 8308   3.361   5.268   3.302  1.4690 -0.1566 -1.5899
   88SOPE  C213 8309   3.387   5.396   3.488  0.1879 -0.0535  0.3169
   88SOPE  H13R 8310   3.297   5.460   3.473  0.0320 -0.0154  1.3342
   88SOPE  H13S 8311   3.473   5.460   3.519  0.4882 -0.5170  0.4391
   88SOPE  C214 8312   3.339   5.304   3.598 -0.7846 -0.2210 -0.6637
   88SOPE  H14R 8313   3.300   5.359   3.686 -2.2810 -0.1416 -1.3439
   88SOPE  H14S 8314   3.420   5.242   3.642 -2.0899 -2.4258 -1.1784
   88SOPE  C215 8315   3.231   5.209   3.544 -0.5768 -0.4705 -0.4711
   88SOPE  H15R 8316   3.275   5.164   3.452 -0.0468 -3.2191  1.0314
   88SOPE  H15S 8317   3.137   5.267   3.527 -0.7967 -0.0795  1.8266
   88SOPE  C216 8318   3.218   5.084   3.630  0.1815  0.1759 -0.0646
   88SOPE  H16R 8319   3.309   5.019   3.633 -0.6756 -1.0548  2.6659
   88SOPE  H16S 8320   3.156   5.016   3.567 -0.1019 -0.0446  0.4452
   88SOPE  C217 8321   3.162   5.108   3.772 -0.4132  0.0087  0.0870
   88SOPE  H17R 8322   3.059   5.144   3.753 -1.1326 -0.9027  1.9939
   88SOPE  H17S 8323   3.220   5.188   3.823  0.5098 -0.6791  0.1540
   88SOPE  C218 8324   3.139   4.977   3.858  0.5722  0.3213  0.2393
   88SOPE  H18R 8325   3.081   4.905   3.797 -2.0841  1.6724  0.9917
   88SOPE  H18S 8326   3.078   4.994   3.950 -0.6684 -0.6472 -0.3660
   88SOPE  H18T 8327   3.233   4.919   3.866  1.1108  0.8177 -1.8746
   88SOPE   C33 8328   3.248   4.507   2.437  0.0558 -0.3811  0.3698
   88SOPE   H3X 8329   3.298   4.451   2.518  3.7509  1.3378 -0.5211
   88SOPE   H3Y 8330   3.202   4.436   2.365  1.9168 -1.9542  0.6538
   88SOPE   C34 8331   3.139   4.592   2.514  0.0098  0.0931  0.6816
   88SOPE   H4X 8332   3.080   4.527   2.583  0.4014 -0.8796  0.1210
   88SOPE   H4Y 8333   3.062   4.633   2.445  0.8685 -1.8766 -1.5758
   88SOPE   C35 8334   3.198   4.682   2.617 -0.4091 -0.1359  0.2533
   88SOPE   H5X 8335   3.246   4.769   2.567  2.0862 -2.7360 -2.2495
   88SOPE   H5Y 8336   3.288   4.633   2.661  0.3171  0.4307 -0.5616
   88SOPE   C36 8337   3.095   4.715   2.725  0.3010 -1.2027  0.1401
   88SOPE   H6X 8338   3.061   4.628   2.787  2.0529 -0.6926  1.9312
   88SOPE   H6Y 8339   3.011   4.767   2.674  1.0109  0.8618  0.9863
   88SOPE   C37 8340   3.169   4.813   2.823  0.3457  0.0705  0.7734
   88SOPE   H7X 8341   3.187   4.902   2.758  0.0504 -1.2765 -1.2367
   88SOPE   H7Y 8342   3.262   4.773   2.867 -0.9378 -1.3551  2.3441
   88SOPE   C38 8343   3.087   4.858   2.940  0.1762  0.2231 -0.2292
   88SOPE   H8X 8344   3.052   4.767   2.994 -0.7170 -1.0676 -2.7824
   88SOPE   H8Y 8345   2.989   4.902   2.911 -1.2030 -1.9549  0.8302
   88SOPE   C39 8346   3.168   4.949   3.027 -0.5526 -0.8821 -0.7316
   88SOPE   H9X 8347   3.201   5.039   2.972 -0.0738 -1.2693 -1.0961
   88SOPE   H9Y 8348   3.257   4.889   3.056 -0.3562 -0.1351  0.2385
   88SOPE  C310 8349   3.090   4.972   3.159  0.1528  0.3635  0.6903
   88SOPE  H10X 8350   3.156   5.023   3.232  1.0613  0.8515 -0.4417
   88SOPE  H10Y 8351   3.053   4.872   3.191 -1.5126  0.4881 -0.6905
   88SOPE  C311 8352   2.981   5.073   3.131  0.0415 -0.3628  0.0238
   88SOPE  H11X 8353   2.907   5.012   3.075  1.6982  0.5232 -3.3817
   88SOPE  H11Y 8354   3.003   5.145   3.050 -0.5694 -1.1361 -0.8426
   88SOPE  C312 8355   2.927   5.141   3.261 -0.0182  0.0940  1.3839
   88SOPE  H12X 8356   2.828   5.185   3.236 -0.9959 -2.0862  1.2745
   88SOPE  H12Y 8357   3.002   5.217   3.294  0.7286  1.4041 -2.7381
   88SOPE  C313 8358   2.914   5.040   3.372 -0.2533  0.7926 -0.6255
   88SOPE  H13X 8359   3.015   5.016   3.411 -1.3289  1.0644  2.6342
   88SOPE  H13Y 8360   2.864   4.946   3.341  0.4790 -0.6340  2.1713
   88SOPE  C314 8361   2.825   5.097   3.494  0.2524 -0.1014  0.0495
   88SOPE  H14X 8362   2.718   5.110   3.467  0.7681 -0.7985 -2.6309
   88SOPE  H14Y 8363   2.865   5.189   3.543  0.8581 -1.2312  1.7387
   88SOPE  C315 8364   2.815   4.992   3.607  0.1881  0.2372 -0.2443
   88SOPE  H15X 8365   2.914   4.962   3.647 -0.4069  0.4313  1.4608
   88SOPE  H15Y 8366   2.763   4.906   3.560  0.7115  0.3092 -0.9827
   88SOPE  C316 8367   2.729   5.032   3.734 -0.3069 -0.0784  0.6511
   88SOPE  H16X 8368   2.734   4.944   3.802 -1.7038 -1.9780 -1.5755
   88SOPE  H16Y 8369   2.625   5.038   3.695 -0.8902  0.7562  2.2430
   88SOPE  C317 8370   2.771   5.148   3.824  0.0855  0.4530 -0.3806
   88SOPE  H17X 8371   2.794   5.237   3.762  2.0554  1.5750  1.8213
   88SOPE  H17Y 8372   2.866   5.117   3.872  0.8725  1.2476 -1.3903
   88SOPE  C318 8373   2.664   5.176   3.927 -0.6604 -0.1514 -0.6640
   88SOPE  H18X 8374   2.686   5.270   3.982 -2.5049  0.7323 -1.3495
   88SOPE  H18Y 8375   2.678   5.112   4.016  2.7819 -0.9214 -1.6040
   88SOPE  H18Z 8376   2.559   5.194   3.897 -0.9439  1.3489  1.0805
   89SAPC     N 8377   1.252   1.908   6.777  0.2747 -0.6034 -0.0938
   89SAPC   C12 8378   1.177   1.906   6.643  0.4147 -0.2753 -0.0645
   89SAPC  H12A 8379   1.200   2.001   6.599  0.1036  0.6868  1.7421
   89SAPC  H12B 8380   1.070   1.906   6.662  0.2560  1.5661 -0.8407
   89SAPC   C13 8381   1.231   1.773   6.847 -0.0888  0.4603 -0.5896
   89SAPC  H13A 8382   1.139   1.759   6.903  0.4614 -0.9713 -0.0105
   89SAPC  H13B 8383   1.247   1.698   6.772 -1.5916  0.6047 -1.1015
   89SAPC  H13C 8384   1.318   1.761   6.910 -1.2658 -2.1953  0.6814
   89SAPC   C14 8385   1.402   1.940   6.750 -0.3623  0.8241  0.5883
   89SAPC  H14A 8386   1.442   1.871   6.677  0.2194 -0.2666  1.8946
   89SAPC  H14B 8387   1.415   2.038   6.707  0.9351  1.0653  1.4755
   89SAPC  H14C 8388   1.462   1.928   6.839 -1.6203  0.1208  1.3686
   89SAPC   C15 8389   1.199   2.004   6.874  0.4917  0.5094 -0.7904
   89SAPC  H15A 8390   1.108   1.957   6.906  0.0163  0.9605 -1.4517
   89SAPC  H15B 8391   1.258   2.024   6.962  0.1372  0.8522 -0.6283
   89SAPC  H15C 8392   1.167   2.099   6.834 -0.9142 -0.6752 -2.6437
   89SAPC   C11 8393   1.219   1.787   6.556 -0.0639 -0.5027  0.5183
   89SAPC  H11A 8394   1.326   1.762   6.571 -0.5316 -2.4349  0.9103
   89SAPC  H11B 8395   1.210   1.822   6.451  0.9466 -0.8578  0.3054
   89SAPC     P 8396   0.994   1.639   6.533 -0.0262  0.2025 -0.3035
   89SAPC   O13 8397   0.979   1.504   6.473 -0.1159  0.2890 -0.4154
   89SAPC   O14 8398   0.910   1.653   6.659  0.9246  0.6023  0.1821
   89SAPC   O12 8399   1.144   1.669   6.576 -0.5368  0.2193  0.2376
   89SAPC   O11 8400   0.958   1.754   6.436 -0.1708 -0.2828  0.0398
   89SAPC    C1 8401   0.997   1.747   6.300 -0.3424 -0.6201 -0.3590
   89SAPC    HA 8402   1.024   1.848   6.265 -2.2621 -0.7607 -2.4283
   89SAPC    HB 8403   1.077   1.671   6.290 -1.1302 -1.3760 -1.0734
   89SAPC    C2 8404   0.881   1.717   6.202 -0.9499  0.0376 -0.0319
   89SAPC    HS 8405   0.847   1.612   6.210  0.0312 -0.4829 -2.1245
   89SAPC   O21 8406   0.913   1.754   6.063 -0.6235 -0.3078  0.6077
   89SAPC   C21 8407   0.986   1.656   6.008 -0.7498  0.3962  0.5633
   89SAPC   O22 8408   1.016   1.556   6.069 -0.3350 -0.0488 -0.1237
   89SAPC   C22 8409   1.008   1.677   5.856  0.1141 -0.1811  0.1200
   89SAPC   H2R 8410   1.006   1.784   5.827  2.6514 -0.1958 -0.3102
   89SAPC   H2S 8411   1.112   1.645   5.839 -0.1777 -0.8588 -0.4330
   89SAPC    C3 8412   0.753   1.793   6.249  0.6253 -0.0209  0.1770
   89SAPC    HX 8413   0.779   1.897   6.277  0.7007  0.4260 -1.4330
   89SAPC    HY 8414   0.714   1.737   6.337 -0.8718 -0.9804 -1.0452
   89SAPC   O31 8415   0.652   1.778   6.142  0.0452 -0.1721  0.3272
   89SAPC   C31 8416   0.560   1.866   6.149  0.2136  0.1137  0.4660
   89SAPC   O32 8417   0.538   1.932   6.250 -0.0525 -0.2456 -0.4974
   89SAPC   C32 8418   0.468   1.858   6.029  0.3906  0.4114  0.1672
   89SAPC   H2X 8419   0.366   1.890   6.060  0.0980 -1.3612  1.1911
   89SAPC   H2Y 8420   0.454   1.750   6.007 -2.6592  0.9913 -1.2742
   89SAPC   C23 8421   0.911   1.592   5.772 -0.1377 -0.5857  0.4477
   89SAPC   H3R 8422   0.912   1.487   5.808 -0.5625  0.0608  2.4172
   89SAPC   H3S 8423   0.952   1.602   5.669 -1.0378  0.7012  0.2015
   89SAPC   C24 8424   0.782   1.664   5.766 -0.2045 -0.0964 -0.2954
   89SAPC   H4R 8425   0.803   1.756   5.707  0.0741 -0.1968 -0.3499
   89SAPC   H4S 8426   0.750   1.701   5.866 -0.6878 -0.8065 -0.1780
   89SAPC   C25 8427   0.663   1.595   5.696 -0.3042  0.6953  0.2987
   89SAPC   H5R 8428   0.607   1.528   5.762  0.3706 -0.5983 -0.4041
   89SAPC   C26 8429   0.636   1.599   5.565 -0.8025  0.1477 -0.1349
   89SAPC   H6R 8430   0.555   1.539   5.522 -1.0691 -1.1840  2.0358
   89SAPC   C27 8431   0.711   1.679   5.464  0.2557 -0.4171 -0.7234
   89SAPC   H7R 8432   0.813   1.711   5.494 -0.7161  1.3830  0.8918
   89SAPC   H7S 8433   0.653   1.773   5.466  1.2840  0.2230  0.1036
   89SAPC   C28 8434   0.707   1.631   5.323 -0.3078  0.3363 -0.4345
   89SAPC   H8R 8435   0.614   1.653   5.269  0.9581  1.3771 -2.3400
   89SAPC   C29 8436   0.812   1.577   5.261  0.3718 -0.2321 -0.6233
   89SAPC   H9R 8437   0.784   1.533   5.164 -0.1428 -2.9348  0.6631
   89SAPC  C210 8438   0.953   1.562   5.309 -0.2712 -0.0282 -0.0147
   89SAPC  H10R 8439   0.939   1.590   5.415 -1.6150  0.6781 -0.3453
   89SAPC  H10S 8440   1.014   1.643   5.263 -0.6823 -0.5244 -1.4873
   89SAPC  C211 8441   1.009   1.428   5.302  0.3381 -0.4768  0.0729
   89SAPC  H11R 8442   0.971   1.359   5.379 -2.8035  2.1589  1.1129
   89SAPC  C212 8443   1.084   1.373   5.210 -0.0861  0.0388  0.0505
   89SAPC  H12R 8444   1.101   1.265   5.213 -1.6396 -0.2289  0.2776
   89SAPC  C213 8445   1.145   1.429   5.094  0.4125  0.0790  0.2379
   89SAPC  H13R 8446   1.081   1.516   5.069 -0.3289  0.7060  3.7510
   89SAPC  H13S 8447   1.130   1.363   5.006  1.2539 -1.9985  1.5625
   89SAPC  C214 8448   1.286   1.469   5.122 -0.0713  0.6394  0.5139
   89SAPC  H14R 8449   1.323   1.448   5.223 -3.3184 -2.8635  1.2145
   89SAPC  C215 8450   1.353   1.533   5.027 -0.5149  0.5740 -1.2687
   89SAPC  H15R 8451   1.451   1.578   5.047  0.2122 -0.5147 -2.2394
   89SAPC  C216 8452   1.314   1.555   4.886 -0.0538 -0.1484 -0.0616
   89SAPC  H16R 8453   1.345   1.660   4.872 -0.2030 -0.0722  0.1762
   89SAPC  H16S 8454   1.206   1.550   4.864 -0.3082  0.2720  1.0492
   89SAPC  C217 8455   1.400   1.462   4.792  0.2959  0.6107  0.2292
   89SAPC  H17R 8456   1.377   1.359   4.827  1.3385  0.5617  0.7938
   89SAPC  H17S 8457   1.506   1.492   4.804 -0.1930  2.2555  0.6158
   89SAPC  C218 8458   1.369   1.492   4.642 -0.4284  0.0591 -0.3965
   89SAPC  H18R 8459   1.431   1.440   4.565 -0.5533 -0.6999  0.0056
   89SAPC  H18S 8460   1.382   1.602   4.630  0.1308  0.1358  0.7281
   89SAPC  C219 8461   1.220   1.459   4.608  0.2796  0.6423 -0.4736
   89SAPC  H19R 8462   1.192   1.507   4.512  0.0893 -0.2049 -0.8517
   89SAPC  H19S 8463   1.150   1.494   4.687  0.1789  0.2612 -0.3886
   89SAPC  C220 8464   1.209   1.306   4.596  0.2250  0.4934 -0.1549
   89SAPC  H20R 8465   1.231   1.251   4.690  1.3840 -1.4712 -1.5013
   89SAPC  H20S 8466   1.280   1.272   4.517 -2.2561 -0.4167 -2.1071
   89SAPC  H20T 8467   1.113   1.266   4.558  0.5951 -0.5877 -0.0043
   89SAPC   C33 8468   0.532   1.930   5.908  0.1097 -0.0322 -0.3323
   89SAPC   H3X 8469   0.631   1.882   5.888  0.2320  0.1002 -0.0391
   89SAPC   H3Y 8470   0.556   2.038   5.918  2.5395 -0.3158 -2.1655
   89SAPC   C34 8471   0.435   1.911   5.785 -0.6203  0.0852  1.1670
   89SAPC   H4X 8472   0.333   1.945   5.812 -1.1971 -2.0139  1.8568
   89SAPC   H4Y 8473   0.433   1.800   5.775  2.0009  0.1078 -0.4856
   89SAPC   C35 8474   0.489   1.989   5.656  0.0627  0.0023  0.2119
   89SAPC   H5X 8475   0.598   1.972   5.648  0.3891  1.7848  0.4559
   89SAPC   H5Y 8476   0.482   2.100   5.668  0.6909 -0.1510  2.5733
   89SAPC   C36 8477   0.419   1.951   5.530  0.1182  0.2467  0.4264
   89SAPC   H6X 8478   0.313   1.983   5.538 -0.0967  0.0095 -1.2035
   89SAPC   H6Y 8479   0.411   1.840   5.523  1.7267  0.0768  0.7638
   89SAPC   C37 8480   0.477   2.009   5.396  1.4243  0.4422  0.3717
   89SAPC   H7X 8481   0.586   1.988   5.392  1.3952  0.3525  0.0058
   89SAPC   H7Y 8482   0.458   2.118   5.391 -1.5037 -0.0215 -0.7075
   89SAPC   C38 8483   0.420   1.961   5.265  0.3849 -0.0855 -0.3506
   89SAPC   H8X 8484   0.313   1.988   5.252  0.0062 -1.1719  0.3934
   89SAPC   H8Y 8485   0.418   1.850   5.268 -0.0034 -0.0669  0.1779
   89SAPC   C39 8486   0.495   2.011   5.140  0.1190 -0.0559 -0.1212
   89SAPC   H9X 8487   0.601   1.980   5.150  0.1330 -0.8487 -2.2133
   89SAPC   H9Y 8488   0.487   2.121   5.138 -2.6165 -0.1591  0.7518
   89SAPC  C310 8489   0.431   1.970   5.009 -0.3105 -0.5727 -0.0004
   89SAPC  H10X 8490   0.323   1.993   5.009 -0.3662 -0.6543  1.6405
   89SAPC  H10Y 8491   0.444   1.860   4.995  0.4165 -0.3146 -1.4865
   89SAPC  C311 8492   0.493   2.038   4.887  0.0591  0.4869  0.3490
   89SAPC  H11X 8493   0.604   2.029   4.887 -0.0125 -0.5796  0.3564
   89SAPC  H11Y 8494   0.488   2.148   4.898  0.5139  0.8374 -2.2948
   89SAPC  C312 8495   0.452   1.983   4.748  0.4193 -0.6191  0.7067
   89SAPC  H12X 8496   0.529   2.011   4.673 -1.5563  1.1580 -0.8147
   89SAPC  H12Y 8497   0.369   2.052   4.719  2.0233  0.8697 -0.5097
   89SAPC  C313 8498   0.414   1.836   4.737  0.3440  0.1844 -0.3528
   89SAPC  H13X 8499   0.347   1.791   4.814  1.1042 -0.3138  0.0332
   89SAPC  H13Y 8500   0.508   1.780   4.756  1.3103  2.1375  0.9609
   89SAPC  C314 8501   0.353   1.796   4.601  0.5257  0.2362  0.5677
   89SAPC  H14X 8502   0.243   1.810   4.591  0.4042 -0.7442  0.3931
   89SAPC  H14Y 8503   0.376   1.688   4.589  1.2034  0.6660 -2.9107
   89SAPC  C315 8504   0.419   1.857   4.483  0.0356  0.5394 -0.2866
   89SAPC  H15X 8505   0.530   1.850   4.484  0.2090  2.3111  1.9145
   89SAPC  H15Y 8506   0.382   1.962   4.475  1.5836  1.3069  1.7375
   89SAPC  C316 8507   0.381   1.773   4.353 -0.7829  0.4996  0.6839
   89SAPC  H16X 8508   0.271   1.762   4.362 -0.8369  1.4038  1.2585
   89SAPC  H16Y 8509   0.430   1.674   4.361  0.5461  1.0519 -0.1907
   89SAPC  C317 8510   0.416   1.843   4.222 -0.3235 -0.2611 -0.4359
   89SAPC  H17X 8511   0.525   1.865   4.231 -0.4397 -0.1498  0.8580
   89SAPC  H17Y 8512   0.369   1.943   4.216  0.3331  0.0084 -1.2615
   89SAPC  C318 8513   0.393   1.748   4.105 -0.7397  0.0801  0.4074
   89SAPC  H18X 8514   0.442   1.785   4.012 -3.4798  0.3555 -1.0050
   89SAPC  H18Y 8515   0.287   1.743   4.073 -0.6581  1.8201 -0.2595
   89SAPC  H18Z 8516   0.435   1.647   4.124 -0.5512 -0.0706 -0.7278
   90SAPC     N 8517   4.602   5.269   7.185  0.6145 -0.3595  0.0513
   90SAPC   C12 8518   4.593   5.344   7.052 -0.3609 -0.1734 -0.0892
   90SAPC  H12A 8519   4.489   5.345   7.024 -0.8874  0.3554  1.7892
   90SAPC  H12B 8520   4.652   5.288   6.980 -1.6313 -1.9192  0.1657
   90SAPC   C13 8521   4.562   5.358   7.297  0.5656  0.3531 -0.6156
   90SAPC  H13A 8522   4.585   5.328   7.399  0.4008  0.4609 -0.5468
   90SAPC  H13B 8523   4.612   5.450   7.275  2.1179 -0.3682 -0.2395
   90SAPC  H13C 8524   4.456   5.376   7.304  0.1912 -0.9855 -2.2422
   90SAPC   C14 8525   4.520   5.143   7.180 -0.0122  0.5157 -0.0453
   90SAPC  H14A 8526   4.413   5.159   7.169 -0.2128 -0.2641  0.6528
   90SAPC  H14B 8527   4.553   5.077   7.101 -2.0642 -0.0450 -0.5080
   90SAPC  H14C 8528   4.536   5.085   7.270  0.5048 -0.7822 -0.9427
   90SAPC   C15 8529   4.745   5.240   7.200  0.3744  0.0743 -0.0480
   90SAPC  H15A 8530   4.768   5.207   7.301  0.0037 -0.8015 -0.2325
   90SAPC  H15B 8531   4.792   5.180   7.124  1.8673 -0.2860  1.1020
   90SAPC  H15C 8532   4.793   5.336   7.191  0.7537 -0.1782 -0.7708
   90SAPC   C11 8533   4.651   5.487   7.035  0.0417  0.2029 -0.3500
   90SAPC  H11A 8534   4.586   5.557   7.092 -1.0764 -1.6804  0.7767
   90SAPC  H11B 8535   4.630   5.518   6.930 -2.2118  0.5772  0.1633
   90SAPC     P 8536   4.900   5.453   6.955  0.4154  0.3402 -0.5784
   90SAPC   O13 8537   4.977   5.567   6.918  0.0302  0.3956 -0.5144
   90SAPC   O14 8538   4.970   5.335   7.017 -0.8290  0.4134 -0.2699
   90SAPC   O12 8539   4.787   5.500   7.057 -0.5075  0.3912 -0.8683
   90SAPC   O11 8540   4.815   5.394   6.840 -0.4062 -1.0837 -0.1421
   90SAPC    C1 8541   4.868   5.305   6.751 -0.0240  0.2205 -0.1910
   90SAPC    HA 8542   4.948   5.242   6.795  0.1072 -0.8123 -1.7938
   90SAPC    HB 8543   4.789   5.241   6.705 -1.4393  1.6650  0.1392
   90SAPC    C2 8544   4.923   5.373   6.622  0.3949  0.0125 -0.2472
   90SAPC    HS 8545   4.994   5.456   6.643 -0.8803  1.3773 -1.1214
   90SAPC   O21 8546   4.810   5.427   6.544  0.0539 -0.0669  0.0152
   90SAPC   C21 8547   4.827   5.551   6.493 -0.3274 -0.4518 -1.0763
   90SAPC   O22 8548   4.929   5.622   6.508  1.6612  0.1397  0.1648
   90SAPC   C22 8549   4.697   5.595   6.426 -0.7886  0.3941  0.2846
   90SAPC   H2R 8550   4.619   5.533   6.477  1.1234 -1.2531  1.3884
   90SAPC   H2S 8551   4.683   5.701   6.454 -1.0539  0.4731 -0.1487
   90SAPC    C3 8552   4.996   5.265   6.538  0.1781  0.3212 -0.6837
   90SAPC    HX 8553   4.911   5.195   6.519  0.8566 -0.9810  0.8328
   90SAPC    HY 8554   5.080   5.210   6.584 -1.1477 -2.2626 -1.1805
   90SAPC   O31 8555   5.043   5.323   6.414  0.0219 -0.5954  0.0695
   90SAPC   C31 8556   5.160   5.390   6.422 -0.1630 -0.0777 -0.1310
   90SAPC   O32 8557   5.224   5.400   6.528 -0.2185  0.2827  0.0377
   90SAPC   C32 8558   5.195   5.447   6.281  0.7350  0.4001  0.3730
   90SAPC   H2X 8559   5.213   5.556   6.292  2.6703  0.2200 -0.4421
   90SAPC   H2Y 8560   5.113   5.426   6.209  1.1943 -0.3101  0.0351
   90SAPC   C23 8561   4.699   5.575   6.270  0.1330 -0.5918  0.3151
   90SAPC   H3R 8562   4.700   5.468   6.240 -1.2776 -0.3011 -0.8979
   90SAPC   H3S 8563   4.789   5.634   6.243 -1.1635  1.8609  0.9688
   90SAPC   C24 8564   4.579   5.638   6.198 -0.0743 -1.0375  0.7406
   90SAPC   H4R 8565   4.581   5.749   6.208  0.5100 -0.8370 -1.2307
   90SAPC   H4S 8566   4.488   5.616   6.257  0.6761  0.3050  2.5072
   90SAPC   C25 8567   4.580   5.596   6.055 -0.2078  0.6436 -0.5889
   90SAPC   H5R 8568   4.607   5.490   6.044 -1.8267 -0.2632  2.8660
   90SAPC   C26 8569   4.560   5.663   5.936  0.1813 -0.3648 -0.2792
   90SAPC   H6R 8570   4.543   5.608   5.842 -0.2186  1.8114 -1.5481
   90SAPC   C27 8571   4.547   5.813   5.922  0.1959 -0.5818  0.4582
   90SAPC   H7R 8572   4.584   5.851   5.825 -0.3925  1.4133  0.9663
   90SAPC   H7S 8573   4.603   5.859   6.006  2.4001 -0.6642 -0.8847
   90SAPC   C28 8574   4.396   5.846   5.930  0.1969  0.5773 -0.4411
   90SAPC   H8R 8575   4.350   5.831   6.028  3.0496 -0.1173  0.9003
   90SAPC   C29 8576   4.313   5.889   5.829 -0.1930 -0.3841 -0.0608
   90SAPC   H9R 8577   4.207   5.908   5.848  0.0231  2.8531 -1.4270
   90SAPC  C210 8578   4.361   5.916   5.690 -0.8626  0.1913  0.2717
   90SAPC  H10R 8579   4.297   5.857   5.622 -0.1497  0.1880 -0.4007
   90SAPC  H10S 8580   4.462   5.876   5.666 -2.0522 -4.2330  1.6537
   90SAPC  C211 8581   4.343   6.062   5.661  0.2507 -0.0068 -0.2496
   90SAPC  H11R 8582   4.303   6.121   5.745  1.3866  0.7047 -0.1893
   90SAPC  C212 8583   4.392   6.134   5.560 -0.0549  0.3462 -0.1210
   90SAPC  H12R 8584   4.376   6.242   5.553 -0.1398  0.3215 -0.3289
   90SAPC  C213 8585   4.470   6.073   5.448  0.1466 -0.1330  0.4749
   90SAPC  H13R 8586   4.403   6.014   5.383  0.7867 -0.7412  0.3580
   90SAPC  H13S 8587   4.554   6.013   5.490  0.6592  0.4564  0.3217
   90SAPC  C214 8588   4.543   6.169   5.359 -0.0310  0.3403 -0.1576
   90SAPC  H14R 8589   4.634   6.203   5.411 -0.5830  1.3950  0.1621
   90SAPC  C215 8590   4.513   6.220   5.237 -0.5795  0.7449 -0.2106
   90SAPC  H15R 8591   4.581   6.294   5.193  2.1435 -1.7563 -0.5174
   90SAPC  C216 8592   4.383   6.203   5.160  0.2209 -0.1677  0.2833
   90SAPC  H16R 8593   4.346   6.303   5.128  0.3886 -0.2520 -0.1707
   90SAPC  H16S 8594   4.307   6.154   5.225  0.0363 -0.6753 -0.3191
   90SAPC  C217 8595   4.395   6.107   5.039 -0.6629 -0.1563 -0.3925
   90SAPC  H17R 8596   4.424   6.006   5.076  0.3337  0.2547 -0.0124
   90SAPC  H17S 8597   4.480   6.147   4.981 -0.4300  1.2504  0.8583
   90SAPC  C218 8598   4.281   6.092   4.945  0.2247 -0.3616 -0.4571
   90SAPC  H18R 8599   4.250   6.195   4.918 -2.2993 -0.8725  0.2066
   90SAPC  H18S 8600   4.189   6.043   4.983  0.5888 -1.9024 -1.4925
   90SAPC  C219 8601   4.323   6.018   4.819 -0.0520  1.1282  0.1221
   90SAPC  H19R 8602   4.382   5.930   4.851 -0.7748  0.7700  0.4840
   90SAPC  H19S 8603   4.393   6.087   4.767 -0.4433 -0.3568 -2.5877
   90SAPC  C220 8604   4.211   5.988   4.721 -0.4629  0.6387  0.6094
   90SAPC  H20R 8605   4.152   5.908   4.771  2.7679  0.1436  4.1297
   90SAPC  H20S 8606   4.244   5.930   4.633 -1.7747 -3.2609  2.4601
   90SAPC  H20T 8607   4.150   6.073   4.682  3.2842  2.6436 -1.4120
   90SAPC   C33 8608   5.324   5.386   6.218 -0.2554  0.0938  0.4856
   90SAPC   H3X 8609   5.315   5.275   6.215 -0.3781  0.0715  1.2736
   90SAPC   H3Y 8610   5.411   5.415   6.282  0.0655  0.1449  0.0287
   90SAPC   C34 8611   5.339   5.452   6.081  0.2875  0.7588  0.2494
   90SAPC   H4X 8612   5.445   5.427   6.058  0.2119 -0.2179  0.8879
   90SAPC   H4Y 8613   5.314   5.559   6.071 -0.0708  0.5213 -2.0061
   90SAPC   C35 8614   5.251   5.390   5.961 -0.8390  0.2445 -0.5112
   90SAPC   H5X 8615   5.147   5.425   5.978  0.2431  2.7905  1.6313
   90SAPC   H5Y 8616   5.248   5.279   5.973 -2.7568  0.1994 -1.1400
   90SAPC   C36 8617   5.300   5.431   5.825  0.0283 -0.3172 -0.1510
   90SAPC   H6X 8618   5.409   5.413   5.814  0.1817  1.1924 -1.3472
   90SAPC   H6Y 8619   5.285   5.539   5.808  0.0658 -0.3828 -0.6325
   90SAPC   C37 8620   5.215   5.350   5.718 -0.5210 -0.1718 -0.3339
   90SAPC   H7X 8621   5.105   5.358   5.735 -0.2355 -0.6084  2.1188
   90SAPC   H7Y 8622   5.252   5.246   5.726 -2.1378 -0.7883 -0.4165
   90SAPC   C38 8623   5.249   5.393   5.570 -0.6308 -0.0649 -0.5350
   90SAPC   H8X 8624   5.201   5.312   5.512  0.2462 -1.9653  1.2804
   90SAPC   H8Y 8625   5.358   5.399   5.552 -0.3669  0.7001  1.1135
   90SAPC   C39 8626   5.176   5.515   5.527  0.5552 -0.0673  0.0866
   90SAPC   H9X 8627   5.213   5.597   5.593  3.2051 -0.4126 -0.8491
   90SAPC   H9Y 8628   5.066   5.509   5.545  0.0801  1.2968 -1.9449
   90SAPC  C310 8629   5.200   5.564   5.377 -0.1540  0.0412 -0.0516
   90SAPC  H10X 8630   5.306   5.583   5.352 -0.4054  4.3695  1.2675
   90SAPC  H10Y 8631   5.153   5.665   5.377  4.7845  2.6443  1.2533
   90SAPC  C311 8632   5.154   5.453   5.276 -0.2065  0.7054  0.2231
   90SAPC  H11X 8633   5.055   5.420   5.315 -0.3495  1.1390  0.2275
   90SAPC  H11Y 8634   5.230   5.372   5.282 -0.9663 -0.0534 -0.1661
   90SAPC  C312 8635   5.131   5.495   5.126 -0.1126  0.0928  0.0268
   90SAPC  H12X 8636   5.117   5.411   5.055  0.4015 -0.0069  0.0386
   90SAPC  H12Y 8637   5.221   5.542   5.081  0.5681  0.4006  1.6404
   90SAPC  C313 8638   5.011   5.589   5.113  0.3805 -0.2482 -0.3449
   90SAPC  H13X 8639   5.027   5.686   5.163 -1.7735 -0.0541  0.0525
   90SAPC  H13Y 8640   4.926   5.560   5.178 -0.6065  3.2580  0.0956
   90SAPC  C314 8641   4.954   5.595   4.971 -0.4589 -0.0711 -0.5113
   90SAPC  H14X 8642   5.026   5.631   4.895  1.8283 -0.6585  1.2653
   90SAPC  H14Y 8643   4.877   5.675   4.970  2.0347  2.5415 -3.0192
   90SAPC  C315 8644   4.890   5.465   4.910  0.8164 -0.3934 -1.0791
   90SAPC  H15X 8645   4.826   5.412   4.984  0.5129  2.3422  0.7590
   90SAPC  H15Y 8646   4.971   5.392   4.886  2.2521  0.3230  1.2252
   90SAPC  C316 8647   4.803   5.509   4.789 -0.5824 -0.1416 -0.1434
   90SAPC  H16X 8648   4.869   5.558   4.713 -1.7883  1.8669  0.0184
   90SAPC  H16Y 8649   4.724   5.582   4.816 -0.4819  0.5782 -1.6477
   90SAPC  C317 8650   4.738   5.381   4.735 -0.0878 -0.5611  0.4492
   90SAPC  H17X 8651   4.638   5.408   4.695  0.1925 -0.3790 -0.1452
   90SAPC  H17Y 8652   4.728   5.312   4.822  0.1873  1.0621  1.8176
   90SAPC  C318 8653   4.805   5.322   4.609 -0.2520  1.1300  0.4901
   90SAPC  H18X 8654   4.833   5.404   4.540  1.8459  0.5780  0.6064
   90SAPC  H18Y 8655   4.735   5.246   4.567  3.0778 -2.7503  1.2325
   90SAPC  H18Z 8656   4.902   5.277   4.640 -0.1904  0.7211 -0.2668
   91SAPC     N 8657   3.639   4.648   6.482  0.3276 -0.5381 -0.2915
   91SAPC   C12 8658   3.644   4.773   6.395  0.0766  0.8902  0.2502
   91SAPC  H12A 8659   3.539   4.795   6.381  0.2463  1.7904  0.3252
   91SAPC  H12B 8660   3.690   4.756   6.298  0.7400 -1.4251  0.9302
   91SAPC   C13 8661   3.561   4.676   6.613 -0.1412 -0.4191  0.3185
   91SAPC  H13A 8662   3.551   4.589   6.677 -3.7385 -0.7881 -0.5314
   91SAPC  H13B 8663   3.606   4.755   6.672 -0.4695  0.3940 -0.4920
   91SAPC  H13C 8664   3.460   4.706   6.591  0.6362  0.3049 -2.8248
   91SAPC   C14 8665   3.566   4.536   6.417 -0.1858  0.4348 -0.6186
   91SAPC  H14A 8666   3.607   4.522   6.318  0.9325 -1.6353  0.0601
   91SAPC  H14B 8667   3.583   4.444   6.471 -0.6526  0.5185 -0.3212
   91SAPC  H14C 8668   3.459   4.547   6.426 -0.9344 -2.7563 -3.3893
   91SAPC   C15 8669   3.774   4.594   6.513  0.0959  0.4150 -0.2912
   91SAPC  H15A 8670   3.824   4.566   6.421 -0.0490 -0.8948  0.0006
   91SAPC  H15B 8671   3.834   4.667   6.565 -0.2671 -0.3088  1.2032
   91SAPC  H15C 8672   3.774   4.504   6.573  0.2832 -0.3858 -1.4489
   91SAPC   C11 8673   3.705   4.899   6.455  0.1472 -0.0912  0.2772
   91SAPC  H11A 8674   3.724   4.969   6.371 -1.5856  1.0516  0.7685
   91SAPC  H11B 8675   3.804   4.872   6.498  0.2721 -0.2648 -0.1106
   91SAPC     P 8676   3.475   5.001   6.531  0.0526  0.0536  0.0675
   91SAPC   O13 8677   3.393   4.894   6.469  0.1832  0.0769 -0.2647
   91SAPC   O14 8678   3.423   5.056   6.655 -0.6500 -0.1532 -0.7560
   91SAPC   O12 8679   3.623   4.952   6.557 -0.0567 -0.2325 -0.1749
   91SAPC   O11 8680   3.492   5.119   6.428  0.0032 -0.0431 -0.3378
   91SAPC    C1 8681   3.387   5.153   6.333  0.0303  0.0920 -0.3961
   91SAPC    HA 8682   3.284   5.141   6.372 -0.2352  0.2639 -1.0217
   91SAPC    HB 8683   3.398   5.259   6.302 -0.5436 -0.3808 -2.3696
   91SAPC    C2 8684   3.386   5.070   6.201  0.5107  0.0798  0.5142
   91SAPC    HS 8685   3.388   4.964   6.233  1.8478 -0.2277 -0.5001
   91SAPC   O21 8686   3.507   5.109   6.127 -0.0338 -0.0350  0.3054
   91SAPC   C21 8687   3.594   5.012   6.104 -0.5892  0.2226 -0.5411
   91SAPC   O22 8688   3.581   4.894   6.124  0.1086  0.2375 -0.2656
   91SAPC   C22 8689   3.719   5.071   6.040 -0.5175  0.3459  0.4791
   91SAPC   H2R 8690   3.693   5.135   5.953 -1.1902 -1.1830 -0.4683
   91SAPC   H2S 8691   3.765   5.137   6.117  1.4569 -0.8388  0.3768
   91SAPC    C3 8692   3.261   5.096   6.104  0.3509 -0.3283  0.2447
   91SAPC    HX 8693   3.252   5.206   6.106 -0.3698 -0.3790  0.0359
   91SAPC    HY 8694   3.171   5.049   6.150  0.5197 -1.5010 -0.5544
   91SAPC   O31 8695   3.281   5.037   5.965  0.0130 -0.2048 -0.5873
   91SAPC   C31 8696   3.176   5.069   5.889 -0.1573 -0.0042 -0.3088
   91SAPC   O32 8697   3.076   5.123   5.923  0.5535 -0.3787  0.3182
   91SAPC   C32 8698   3.207   5.029   5.738 -0.2690 -0.4191  0.1294
   91SAPC   H2X 8699   3.121   4.964   5.707 -0.5936  0.3589 -0.6414
   91SAPC   H2Y 8700   3.304   4.976   5.741  0.6906  1.3312  2.8645
   91SAPC   C23 8701   3.819   4.953   6.013  0.1105 -0.1642  0.3342
   91SAPC   H3R 8702   3.767   4.884   5.943 -2.2660 -2.4760  4.0653
   91SAPC   H3S 8703   3.831   4.888   6.102 -2.7726 -2.3351 -0.7108
   91SAPC   C24 8704   3.955   4.988   5.949 -0.4670 -0.4313 -0.0995
   91SAPC   H4R 8705   4.001   5.061   6.019 -0.5882 -0.6079  0.1671
   91SAPC   H4S 8706   3.944   5.055   5.862  0.9777 -0.0287  0.0057
   91SAPC   C25 8707   4.045   4.866   5.916 -0.1707 -0.5163  0.2765
   91SAPC   H5R 8708   4.119   4.840   5.993  0.3263 -2.2185 -0.7307
   91SAPC   C26 8709   4.044   4.796   5.802 -0.1384 -0.8026  0.3075
   91SAPC   H6R 8710   4.128   4.727   5.785  2.1068  1.1860  2.5518
   91SAPC   C27 8711   3.953   4.809   5.683  0.1063 -0.1674  0.2386
   91SAPC   H7R 8712   3.999   4.818   5.582  0.8769 -1.0752  0.4921
   91SAPC   H7S 8713   3.892   4.901   5.695  1.5097  0.7462  0.6334
   91SAPC   C28 8714   3.862   4.693   5.681  0.7505 -0.4259  0.3424
   91SAPC   H8R 8715   3.787   4.676   5.761  0.1303 -0.2650 -0.1957
   91SAPC   C29 8716   3.855   4.605   5.584  0.3428  0.1771 -0.1489
   91SAPC   H9R 8717   3.776   4.529   5.587  1.1766 -0.6973  0.2320
   91SAPC  C210 8718   3.942   4.606   5.465  0.5033 -0.1990 -1.0215
   91SAPC  H10R 8719   3.968   4.503   5.433 -0.1848 -0.4511 -0.7839
   91SAPC  H10S 8720   4.046   4.631   5.492  0.4436 -0.2719 -0.7240
   91SAPC  C211 8721   3.896   4.697   5.358 -0.0598  0.8243 -0.0865
   91SAPC  H11R 8722   3.820   4.770   5.391 -0.0878  0.4099  0.8013
   91SAPC  C212 8723   3.947   4.698   5.230  0.3576 -0.4300 -0.7898
   91SAPC  H12R 8724   3.909   4.771   5.158  2.0104  2.4671  1.0693
   91SAPC  C213 8725   4.063   4.613   5.185  0.7291  0.2610 -0.0109
   91SAPC  H13R 8726   4.059   4.503   5.202  0.6737  0.5051  1.7613
   91SAPC  H13S 8727   4.158   4.645   5.233  2.0551 -0.1564 -2.2178
   91SAPC  C214 8728   4.089   4.618   5.036  0.6055  0.5128 -0.1828
   91SAPC  H14R 8729   4.165   4.685   4.994 -0.5289  2.8275  1.2696
   91SAPC  C215 8730   4.014   4.536   4.953 -0.1873  0.3967  0.0728
   91SAPC  H15R 8731   4.042   4.537   4.847  0.5247 -0.2582  0.2460
   91SAPC  C216 8732   3.899   4.447   4.994 -0.7130  0.5412 -0.5696
   91SAPC  H16R 8733   3.844   4.482   5.084  0.7361  2.2844 -0.3078
   91SAPC  H16S 8734   3.921   4.339   5.004 -1.8547  0.3374 -0.0483
   91SAPC  C217 8735   3.809   4.444   4.871 -0.0498 -0.6900 -0.3129
   91SAPC  H17R 8736   3.862   4.400   4.785  1.1536  0.2709 -0.0796
   91SAPC  H17S 8737   3.771   4.542   4.837  1.6565  1.2456  2.8442
   91SAPC  C218 8738   3.668   4.383   4.903 -0.0007  0.4535  0.6863
   91SAPC  H18R 8739   3.615   4.453   4.970 -0.3373  1.1312 -0.2789
   91SAPC  H18S 8740   3.680   4.306   4.983  2.1526  1.1458  1.1111
   91SAPC  C219 8741   3.601   4.324   4.781 -0.0239 -0.3514 -0.5946
   91SAPC  H19R 8742   3.676   4.251   4.744 -0.7347 -1.5617  0.2672
   91SAPC  H19S 8743   3.596   4.398   4.698  0.0619 -0.3195 -0.5717
   91SAPC  C220 8744   3.470   4.257   4.813  0.8086 -0.2485  0.6078
   91SAPC  H20R 8745   3.386   4.321   4.847  2.6375  1.5537  2.0027
   91SAPC  H20S 8746   3.489   4.195   4.904 -0.1025 -0.0226  0.9628
   91SAPC  H20T 8747   3.440   4.202   4.722  1.2628  1.2535 -0.4888
   91SAPC   C33 8748   3.204   5.144   5.637  0.0224  0.1373  0.0237
   91SAPC   H3X 8749   3.293   5.210   5.634  0.3474 -0.2733  0.5772
   91SAPC   H3Y 8750   3.127   5.220   5.664 -0.6959 -0.1260 -1.2203
   91SAPC   C34 8751   3.193   5.099   5.495  0.5345 -0.4259  0.3500
   91SAPC   H4X 8752   3.095   5.047   5.482 -0.3334  0.8509  1.4719
   91SAPC   H4Y 8753   3.275   5.030   5.467 -1.1791 -2.1878 -0.5904
   91SAPC   C35 8754   3.177   5.222   5.403 -0.5347  0.0882 -0.5948
   91SAPC   H5X 8755   3.250   5.298   5.437 -0.6818  1.1966 -2.6275
   91SAPC   H5Y 8756   3.079   5.271   5.419 -0.1227  0.2896  1.6857
   91SAPC   C36 8757   3.196   5.196   5.255  0.2311  0.3081  0.1076
   91SAPC   H6X 8758   3.307   5.200   5.248  0.3902  0.7835  2.0667
   91SAPC   H6Y 8759   3.162   5.286   5.200  0.1225 -0.3200 -0.8753
   91SAPC   C37 8760   3.125   5.065   5.209 -0.2905  0.0391 -0.4023
   91SAPC   H7X 8761   3.022   5.092   5.238 -0.1967 -0.6742  0.6536
   91SAPC   H7Y 8762   3.167   4.980   5.267 -0.1295  1.2269  1.2839
   91SAPC   C38 8763   3.139   5.032   5.060 -0.2192  0.4756  0.0800
   91SAPC   H8X 8764   3.242   5.023   5.019  0.1606 -0.6470  1.2019
   91SAPC   H8Y 8765   3.096   5.118   5.006 -1.3884 -1.6271 -2.5790
   91SAPC   C39 8766   3.071   4.905   5.015 -0.0592  0.2474 -0.1743
   91SAPC   H9X 8767   2.971   4.913   5.063  0.5724  0.7944  1.0870
   91SAPC   H9Y 8768   3.122   4.816   5.056 -0.7097 -0.7983 -1.5760
   91SAPC  C310 8769   3.084   4.883   4.861  0.5338  0.6262  0.1993
   91SAPC  H10X 8770   3.191   4.872   4.833  0.0596 -0.4268 -1.3315
   91SAPC  H10Y 8771   3.056   4.974   4.803 -0.0980  0.1875 -0.1940
   91SAPC  C311 8772   3.021   4.761   4.809  0.3838  0.2636  0.0676
   91SAPC  H11X 8773   2.913   4.748   4.834  0.2921  0.6461 -0.1212
   91SAPC  H11Y 8774   3.065   4.667   4.848 -0.4671  0.2875  1.1663
   91SAPC  C312 8775   3.022   4.755   4.649  0.6109 -1.1186 -0.0544
   91SAPC  H12X 8776   3.130   4.769   4.630  0.7744 -1.2117  0.7707
   91SAPC  H12Y 8777   2.971   4.842   4.602  3.0450  0.5602  0.2342
   91SAPC  C313 8778   2.968   4.619   4.599 -0.0487 -0.2520  1.1748
   91SAPC  H13X 8779   3.021   4.536   4.650  2.5485 -0.0739 -0.9660
   91SAPC  H13Y 8780   3.004   4.600   4.495  1.9714 -1.6035  2.0785
   91SAPC  C314 8781   2.813   4.614   4.602  0.4618  0.6629 -0.5135
   91SAPC  H14X 8782   2.771   4.698   4.544 -1.1882 -1.3835 -2.4658
   91SAPC  H14Y 8783   2.786   4.630   4.709 -1.1116  1.7412 -1.0336
   91SAPC  C315 8784   2.734   4.479   4.562 -0.6363 -0.1434  0.0782
   91SAPC  H15X 8785   2.738   4.490   4.452  2.6762 -0.0290  0.0881
   91SAPC  H15Y 8786   2.637   4.487   4.616 -1.3509 -0.3787 -1.1411
   91SAPC  C316 8787   2.799   4.345   4.593 -0.2963  0.1658  1.2188
   91SAPC  H16X 8788   2.833   4.339   4.698 -0.8644  1.0325  1.4664
   91SAPC  H16Y 8789   2.890   4.344   4.528 -2.2667  2.6600 -1.9188
   91SAPC  C317 8790   2.713   4.223   4.559  0.0499 -0.5982  0.3712
   91SAPC  H17X 8791   2.777   4.133   4.572  1.0026 -0.1001 -0.7409
   91SAPC  H17Y 8792   2.701   4.240   4.450  1.5814 -0.1868  0.2527
   91SAPC  C318 8793   2.583   4.200   4.640 -0.5476 -0.2183  0.4633
   91SAPC  H18X 8794   2.524   4.293   4.656 -0.8022 -0.0262 -1.3118
   91SAPC  H18Y 8795   2.600   4.145   4.734  1.8508  0.0970  0.2674
   91SAPC  H18Z 8796   2.512   4.150   4.570 -0.9424  1.8450 -0.6963
   92SAPC     N 8797   1.470   4.078   6.519  0.0909  1.0036 -0.6002
   92SAPC   C12 8798   1.405   4.134   6.641  0.1035  0.7552  0.0558
   92SAPC  H12A 8799   1.483   4.158   6.713  0.6365 -2.6731  0.7652
   92SAPC  H12B 8800   1.340   4.059   6.684  0.9139  0.2912  0.4974
   92SAPC   C13 8801   1.369   4.028   6.423  0.6185  0.3730 -0.2276
   92SAPC  H13A 8802   1.416   3.990   6.334  1.3981  0.8496 -0.0303
   92SAPC  H13B 8803   1.312   3.952   6.473 -0.8756  2.8384  2.1040
   92SAPC  H13C 8804   1.293   4.104   6.417 -0.8565 -0.9591  0.7947
   92SAPC   C14 8805   1.547   4.190   6.446 -0.0158 -0.3412 -0.5189
   92SAPC  H14A 8806   1.602   4.165   6.356  1.7267  0.6808  0.2112
   92SAPC  H14B 8807   1.478   4.272   6.439  0.3150  0.1750  1.5270
   92SAPC  H14C 8808   1.629   4.231   6.504 -1.0947  1.6918 -0.3484
   92SAPC   C15 8809   1.561   3.970   6.558  0.3655 -0.1053 -0.0566
   92SAPC  H15A 8810   1.585   3.898   6.481  0.3480  1.6788 -1.7885
   92SAPC  H15B 8811   1.650   4.010   6.605  1.3362 -0.9788 -1.0687
   92SAPC  H15C 8812   1.511   3.924   6.642 -0.2063 -0.2999 -0.5006
   92SAPC   C11 8813   1.320   4.261   6.627  0.4603 -0.0020 -0.2477
   92SAPC  H11A 8814   1.395   4.341   6.609 -0.2354  1.0926  1.4745
   92SAPC  H11B 8815   1.282   4.276   6.730 -0.0767  1.3950 -0.6248
   92SAPC     P 8816   1.125   4.383   6.496  0.4935 -0.0316 -0.4600
   92SAPC   O13 8817   1.010   4.328   6.424  0.5494 -0.1040  0.0870
   92SAPC   O14 8818   1.112   4.460   6.620 -0.4394 -0.4955 -0.4462
   92SAPC   O12 8819   1.221   4.256   6.520  0.6146 -0.3521 -0.0959
   92SAPC   O11 8820   1.198   4.468   6.391 -0.0985  0.1090 -0.2158
   92SAPC    C1 8821   1.262   4.416   6.276  0.4052  0.1639  0.0602
   92SAPC    HA 8822   1.331   4.495   6.240  0.8683 -0.3962 -0.2819
   92SAPC    HB 8823   1.314   4.319   6.289 -3.5959 -2.0323  1.2560
   92SAPC    C2 8824   1.150   4.393   6.155  0.5437 -0.1430 -0.2023
   92SAPC    HS 8825   1.085   4.304   6.169  0.9083 -0.0434  2.9963
   92SAPC   O21 8826   1.216   4.390   6.029  0.1639 -0.1196 -0.3834
   92SAPC   C21 8827   1.282   4.277   6.012  0.0905  0.1965  0.6827
   92SAPC   O22 8828   1.268   4.178   6.090  0.2525 -0.1292 -0.0310
   92SAPC   C22 8829   1.364   4.284   5.891  0.0131 -0.1652 -0.6482
   92SAPC   H2R 8830   1.455   4.343   5.918 -1.3173  2.2859 -1.2272
   92SAPC   H2S 8831   1.403   4.180   5.882  0.1906 -0.1211 -0.4125
   92SAPC    C3 8832   1.061   4.525   6.144 -0.1678 -0.4068 -0.1156
   92SAPC    HX 8833   1.140   4.603   6.142 -1.5271  1.0415 -0.5560
   92SAPC    HY 8834   1.010   4.537   6.242  1.6725  0.5819  0.7771
   92SAPC   O31 8835   0.966   4.525   6.029 -0.0969 -0.3650 -0.4075
   92SAPC   C31 8836   0.911   4.644   6.009  0.2399 -0.8251 -1.0793
   92SAPC   O32 8837   0.906   4.734   6.093  0.0004  0.5237 -0.6915
   92SAPC   C32 8838   0.857   4.662   5.869  0.4369 -0.1018  0.1327
   92SAPC   H2X 8839   0.838   4.771   5.864 -0.5439 -0.3096 -1.6951
   92SAPC   H2Y 8840   0.754   4.620   5.863  0.4173 -0.6704  3.0015
   92SAPC   C23 8841   1.288   4.344   5.761 -0.0496 -0.3430  0.0411
   92SAPC   H3R 8842   1.240   4.441   5.785 -0.2670  0.0345 -1.7624
   92SAPC   H3S 8843   1.203   4.275   5.741 -0.7610  0.6825 -0.5445
   92SAPC   C24 8844   1.371   4.360   5.637  0.1595  0.6154  0.3233
   92SAPC   H4R 8845   1.302   4.347   5.551  1.3005  0.7923 -0.6445
   92SAPC   H4S 8846   1.439   4.272   5.630 -0.2866  0.1798  1.3222
   92SAPC   C25 8847   1.462   4.480   5.623  0.6204 -0.6584  0.3419
   92SAPC   H5R 8848   1.527   4.492   5.711  0.7601 -0.2875  0.1915
   92SAPC   C26 8849   1.476   4.555   5.516  0.1410 -0.8690  0.7120
   92SAPC   H6R 8850   1.524   4.654   5.515  2.9052 -2.0975 -1.4482
   92SAPC   C27 8851   1.398   4.531   5.384  0.5201  0.2911  0.3001
   92SAPC   H7R 8852   1.307   4.468   5.395 -0.5187  1.4582 -1.2456
   92SAPC   H7S 8853   1.458   4.459   5.324 -1.4186 -0.6785 -0.5514
   92SAPC   C28 8854   1.367   4.650   5.294  0.0616 -0.5733  0.3018
   92SAPC   H8R 8855   1.261   4.681   5.292  0.4087  0.6145 -0.2388
   92SAPC   C29 8856   1.465   4.725   5.225  0.7519 -0.0370 -0.3683
   92SAPC   H9R 8857   1.426   4.816   5.176 -0.8100  0.7806  2.2063
   92SAPC  C210 8858   1.611   4.696   5.229 -0.1987  0.4955  0.1843
   92SAPC  H10R 8859   1.630   4.628   5.143  1.1543 -1.2582  1.7778
   92SAPC  H10S 8860   1.643   4.635   5.316  0.3519  1.2869  0.5431
   92SAPC  C211 8861   1.699   4.821   5.212 -0.6118  0.3766 -0.2498
   92SAPC  H11R 8862   1.657   4.903   5.273 -2.0459 -1.0251  0.7478
   92SAPC  C212 8863   1.815   4.836   5.147  0.4341  0.0625  0.4729
   92SAPC  H12R 8864   1.872   4.929   5.161  0.9928 -0.3924  1.2820
   92SAPC  C213 8865   1.878   4.736   5.048 -0.9556  0.3190 -0.1203
   92SAPC  H13R 8866   1.805   4.657   5.021 -0.3447 -0.7687  1.2975
   92SAPC  H13S 8867   1.959   4.687   5.106  0.2692  1.9394 -0.3586
   92SAPC  C214 8868   1.955   4.785   4.926  1.5201  0.0292  0.0365
   92SAPC  H14R 8869   1.965   4.892   4.908 -0.3753  0.1657 -0.4203
   92SAPC  C215 8870   1.991   4.709   4.822 -0.1577 -0.0228 -0.1927
   92SAPC  H15R 8871   2.038   4.757   4.735 -1.0040 -0.5361 -0.9610
   92SAPC  C216 8872   1.978   4.557   4.802  0.3907 -0.1153 -0.0364
   92SAPC  H16R 8873   1.967   4.544   4.692  0.0578  4.2910 -0.6940
   92SAPC  H16S 8874   1.881   4.519   4.841  0.0492 -1.3582 -1.9863
   92SAPC  C217 8875   2.089   4.475   4.864 -0.3785 -1.0763 -0.4103
   92SAPC  H17R 8876   2.117   4.524   4.960 -3.0749 -0.8690  0.3611
   92SAPC  H17S 8877   2.178   4.473   4.798 -0.2583  1.6875 -0.4302
   92SAPC  C218 8878   2.054   4.331   4.893  0.2321  0.5677  0.1832
   92SAPC  H18R 8879   1.957   4.327   4.948  1.3130  2.3521  2.4106
   92SAPC  H18S 8880   2.127   4.288   4.966 -1.9289 -0.6106  1.7856
   92SAPC  C219 8881   2.034   4.243   4.767  0.3272 -0.5664  0.0911
   92SAPC  H19R 8882   1.962   4.296   4.700 -0.3831 -1.5639  0.0466
   92SAPC  H19S 8883   1.987   4.147   4.795 -1.4904 -0.6058 -2.6648
   92SAPC  C220 8884   2.158   4.218   4.687 -0.6650 -0.1055 -0.0424
   92SAPC  H20R 8885   2.139   4.151   4.600  1.6726 -0.2206 -0.5522
   92SAPC  H20S 8886   2.230   4.161   4.750 -0.8029 -0.3098 -0.0670
   92SAPC  H20T 8887   2.211   4.303   4.639 -0.0452 -1.5428 -2.0756
   92SAPC   C33 8888   0.959   4.620   5.756  0.4747  0.3642 -0.0797
   92SAPC   H3X 8889   1.007   4.525   5.787  2.3946  1.0857 -0.6989
   92SAPC   H3Y 8890   1.048   4.685   5.747  0.5813  0.2526  0.1713
   92SAPC   C34 8891   0.903   4.602   5.613 -0.2161  0.1779  0.3460
   92SAPC   H4X 8892   0.855   4.695   5.577  1.0014  0.2928 -1.0728
   92SAPC   H4Y 8893   0.828   4.520   5.609  1.3791 -1.2848 -1.7409
   92SAPC   C35 8894   1.019   4.574   5.515 -0.3405 -0.2021 -0.3905
   92SAPC   H5X 8895   1.052   4.469   5.534  0.4378  0.6347  3.8873
   92SAPC   H5Y 8896   1.100   4.645   5.541 -1.0045  0.3980  0.0874
   92SAPC   C36 8897   0.981   4.586   5.369 -0.0349  0.0751 -0.6464
   92SAPC   H6X 8898   0.888   4.528   5.350 -2.0503  3.0007 -0.2579
   92SAPC   H6Y 8899   1.056   4.522   5.316 -0.9406 -0.4076 -1.3826
   92SAPC   C37 8900   0.968   4.724   5.318 -0.4365 -0.2052  0.8136
   92SAPC   H7X 8901   1.056   4.779   5.359 -0.0763  1.4810 -1.9395
   92SAPC   H7Y 8902   0.874   4.768   5.358 -0.8266  0.7855 -1.0686
   92SAPC   C38 8903   0.958   4.741   5.167  0.2792 -0.2219  0.1230
   92SAPC   H8X 8904   0.874   4.675   5.133  0.5741 -1.2737  1.3567
   92SAPC   H8Y 8905   1.051   4.700   5.123  0.6762  0.3742  0.3960
   92SAPC   C39 8906   0.919   4.884   5.132  0.2272 -0.0790  0.3604
   92SAPC   H9X 8907   1.000   4.959   5.137  1.1441 -1.0358  0.4160
   92SAPC   H9Y 8908   0.834   4.905   5.201 -0.6888  0.4011 -0.8836
   92SAPC  C310 8909   0.858   4.894   4.986  0.1181  0.4156  0.4786
   92SAPC  H10X 8910   0.763   4.836   4.979 -0.1475  0.9325 -0.3245
   92SAPC  H10Y 8911   0.937   4.849   4.924  0.0666 -0.8308  1.2901
   92SAPC  C311 8912   0.819   5.042   4.939 -0.3618  0.8188  0.0019
   92SAPC  H11X 8913   0.912   5.093   4.972  0.4295  1.0973 -2.4502
   92SAPC  H11Y 8914   0.743   5.087   5.007 -1.2588  1.3275 -1.3028
   92SAPC  C312 8915   0.814   5.044   4.790  0.5095  0.0976 -0.2351
   92SAPC  H12X 8916   0.724   4.991   4.752 -0.3918  0.5218  1.2455
   92SAPC  H12Y 8917   0.900   4.988   4.745  0.8042 -0.8051  1.3941
   92SAPC  C313 8918   0.824   5.187   4.738 -0.0937  0.1779 -0.5265
   92SAPC  H13X 8919   0.831   5.181   4.627  0.4644  0.7022 -0.5298
   92SAPC  H13Y 8920   0.913   5.238   4.781  0.3091 -0.3548 -0.7250
   92SAPC  C314 8921   0.698   5.264   4.771 -0.0820 -0.6085 -0.4839
   92SAPC  H14X 8922   0.657   5.271   4.874 -2.2000 -1.6751 -1.1877
   92SAPC  H14Y 8923   0.611   5.221   4.716 -0.4267 -0.5824  0.0331
   92SAPC  C315 8924   0.710   5.413   4.719 -0.1087 -0.2284 -0.0446
   92SAPC  H15X 8925   0.745   5.418   4.614 -0.1958  0.5533 -0.0353
   92SAPC  H15Y 8926   0.784   5.470   4.779 -0.3874  0.2632 -0.1659
   92SAPC  C316 8927   0.580   5.501   4.733 -0.3464  0.2046  0.0815
   92SAPC  H16X 8928   0.551   5.509   4.840  1.7843  1.6602  0.6002
   92SAPC  H16Y 8929   0.494   5.449   4.684 -0.4416  0.8035 -0.4134
   92SAPC  C317 8930   0.594   5.644   4.677  0.5107  0.5000  0.4678
   92SAPC  H17X 8931   0.667   5.653   4.594  0.1273  2.5771  0.2961
   92SAPC  H17Y 8932   0.635   5.713   4.754  0.6421  0.6887  0.2281
   92SAPC  C318 8933   0.459   5.692   4.631 -0.2264 -0.1721  0.2596
   92SAPC  H18X 8934   0.466   5.790   4.579 -0.2939 -1.0421 -1.4586
   92SAPC  H18Y 8935   0.397   5.702   4.722  0.7186  0.1886  0.8798
   92SAPC  H18Z 8936   0.412   5.626   4.555  0.1572 -1.1013  0.8059
   93SAPC     N 8937   2.840   3.660   6.759 -0.3005  0.4203 -0.4841
   93SAPC   C12 8938   2.991   3.657   6.752  0.3567 -0.9842  0.5567
   93SAPC  H12A 8939   3.016   3.559   6.715  2.0248  0.2699 -1.9536
   93SAPC  H12B 8940   3.045   3.659   6.846 -0.6531  1.2308  1.1558
   93SAPC   C13 8941   2.784   3.566   6.865 -0.9123 -0.0003  0.5716
   93SAPC  H13A 8942   2.811   3.463   6.850  1.0400  0.5483  0.0581
   93SAPC  H13B 8943   2.840   3.601   6.951 -0.1498 -0.6235  0.3392
   93SAPC  H13C 8944   2.677   3.569   6.883 -0.9372 -0.4209  0.5034
   93SAPC   C14 8945   2.790   3.794   6.779 -0.4944 -0.0219 -0.2040
   93SAPC  H14A 8946   2.796   3.853   6.688 -1.7132  0.1844 -0.1635
   93SAPC  H14B 8947   2.687   3.780   6.806 -0.5107  0.0107 -0.2479
   93SAPC  H14C 8948   2.852   3.834   6.858  0.8335 -1.4987 -0.4512
   93SAPC   C15 8949   2.793   3.606   6.634 -0.0727  0.1688  0.0899
   93SAPC  H15A 8950   2.685   3.607   6.638 -0.1035  3.4129  0.7182
   93SAPC  H15B 8951   2.815   3.669   6.550 -0.8303  0.0902 -0.1783
   93SAPC  H15C 8952   2.823   3.503   6.623  0.9389  0.3308  1.1033
   93SAPC   C11 8953   3.057   3.758   6.654  0.6409  0.0080 -0.7339
   93SAPC  H11A 8954   3.071   3.856   6.705  0.6698  1.3500 -3.1657
   93SAPC  H11B 8955   2.997   3.772   6.561  0.9867 -0.9459 -1.1047
   93SAPC     P 8956   3.314   3.755   6.684 -0.0734  0.6238  0.0964
   93SAPC   O13 8957   3.311   3.896   6.713  0.0025 -0.3592  0.2517
   93SAPC   O14 8958   3.354   3.667   6.798 -0.7345  0.0408  0.4774
   93SAPC   O12 8959   3.179   3.698   6.617 -0.3697 -0.1619 -0.5248
   93SAPC   O11 8960   3.420   3.727   6.563  0.5265  0.3558 -0.4060
   93SAPC    C1 8961   3.382   3.691   6.428 -0.0613  0.3131  0.0290
   93SAPC    HA 8962   3.451   3.613   6.390  2.7513  1.6588  2.0271
   93SAPC    HB 8963   3.281   3.647   6.413  0.3558 -0.7411  0.2152
   93SAPC    C2 8964   3.392   3.814   6.338 -0.0991 -0.2427  0.1446
   93SAPC    HS 8965   3.494   3.851   6.362  1.2186 -2.5977 -1.4291
   93SAPC   O21 8966   3.287   3.907   6.366 -0.6287 -0.0975  0.0058
   93SAPC   C21 8967   3.297   4.029   6.315 -1.1380 -0.6539 -0.0184
   93SAPC   O22 8968   3.376   4.076   6.239  0.1555  0.0103  0.6423
   93SAPC   C22 8969   3.168   4.098   6.352  0.7921 -0.0860  1.0083
   93SAPC   H2R 8970   3.146   4.097   6.461  0.7187  1.2300  1.0218
   93SAPC   H2S 8971   3.186   4.202   6.316  1.1208 -0.2969  0.5516
   93SAPC    C3 8972   3.398   3.772   6.182 -0.3436 -0.2027 -0.0226
   93SAPC    HX 8973   3.380   3.861   6.118 -1.3564  0.2223  0.8287
   93SAPC    HY 8974   3.311   3.702   6.178  0.0429 -0.7919  1.4066
   93SAPC   O31 8975   3.523   3.695   6.160  0.0665  0.3943 -0.1599
   93SAPC   C31 8976   3.636   3.764   6.133  0.5551  0.2202  0.3137
   93SAPC   O32 8977   3.639   3.887   6.137  0.2207  0.1790  0.4596
   93SAPC   C32 8978   3.752   3.673   6.086 -0.3705  0.0744 -0.1528
   93SAPC   H2X 8979   3.733   3.573   6.132 -1.8134 -0.0654 -0.9944
   93SAPC   H2Y 8980   3.845   3.726   6.118  0.8072 -0.7994 -1.9752
   93SAPC   C23 8981   3.043   4.020   6.292 -0.7121 -0.2435  0.3412
   93SAPC   H3R 8982   2.949   4.049   6.343 -1.4691 -0.6497 -0.8017
   93SAPC   H3S 8983   3.050   3.914   6.322  0.3511 -0.8148 -1.7426
   93SAPC   C24 8984   3.010   4.038   6.145  0.7218 -0.5327  0.3567
   93SAPC   H4R 8985   2.912   3.986   6.137  0.9327 -1.0508  0.9961
   93SAPC   H4S 8986   3.087   3.990   6.081  0.4402  0.9634 -1.1864
   93SAPC   C25 8987   2.993   4.180   6.106 -0.5352  0.3073 -0.9436
   93SAPC   H5R 8988   2.928   4.219   6.186 -0.9598 -4.8243  1.5799
   93SAPC   C26 8989   3.050   4.262   6.012  0.7075 -0.0035 -0.1258
   93SAPC   H6R 8990   3.004   4.362   6.001 -1.7669 -1.1758 -1.3004
   93SAPC   C27 8991   3.153   4.230   5.908  0.0163  0.2360 -0.1175
   93SAPC   H7R 8992   3.148   4.304   5.825 -0.6964 -0.3556 -0.6284
   93SAPC   H7S 8993   3.139   4.132   5.856 -0.4062  1.0616 -1.6406
   93SAPC   C28 8994   3.289   4.227   5.970 -0.5544  0.2164 -0.0549
   93SAPC   H8R 8995   3.309   4.264   6.072 -0.9345  1.6732 -0.4794
   93SAPC   C29 8996   3.398   4.200   5.902 -0.4748  0.3671 -0.4147
   93SAPC   H9R 8997   3.500   4.202   5.943 -0.1107 -1.6191 -1.0872
   93SAPC  C210 8998   3.391   4.147   5.761 -0.1069 -0.2148  0.2194
   93SAPC  H10R 8999   3.355   4.230   5.696  0.0196  2.2896  3.1046
   93SAPC  H10S 9000   3.330   4.056   5.742  1.1436 -0.7808 -1.3024
   93SAPC  C211 9001   3.524   4.110   5.699 -0.0311  0.4013 -0.4696
   93SAPC  H11R 9002   3.586   4.051   5.767 -1.7315 -0.3003  0.5446
   93SAPC  C212 9003   3.579   4.131   5.573 -0.0450  0.8301  0.1133
   93SAPC  H12R 9004   3.681   4.095   5.556 -1.2418 -2.0742 -1.6378
   93SAPC  C213 9005   3.525   4.216   5.460 -0.0204 -0.2297  0.7691
   93SAPC  H13R 9006   3.434   4.277   5.479 -1.1445 -1.0318 -1.6558
   93SAPC  H13S 9007   3.494   4.146   5.379  0.0255  0.9140 -0.2620
   93SAPC  C214 9008   3.634   4.317   5.413 -0.4505  0.1249  0.0811
   93SAPC  H14R 9009   3.611   4.421   5.440 -0.3001 -0.0254  0.8182
   93SAPC  C215 9010   3.737   4.284   5.333  0.6379  0.6306 -0.1144
   93SAPC  H15R 9011   3.800   4.373   5.320  0.2957  1.0493  0.9370
   93SAPC  C216 9012   3.793   4.145   5.299 -0.3626 -0.6466  0.4968
   93SAPC  H16R 9013   3.795   4.123   5.190  0.4117  1.8028 -0.0526
   93SAPC  H16S 9014   3.730   4.070   5.351 -0.9920  0.5147  1.4426
   93SAPC  C217 9015   3.943   4.115   5.345 -0.6590 -0.2942  0.0185
   93SAPC  H17R 9016   4.019   4.184   5.303  1.6901 -1.6546  1.7581
   93SAPC  H17S 9017   3.964   4.012   5.308 -0.5003  0.0013 -0.7343
   93SAPC  C218 9018   3.973   4.112   5.491 -0.4102 -0.7429 -0.9285
   93SAPC  H18R 9019   3.913   4.037   5.546 -0.7003 -0.0854 -0.3263
   93SAPC  H18S 9020   3.960   4.217   5.527  0.3813 -1.5907  2.1401
   93SAPC  C219 9021   4.127   4.076   5.514 -0.3666  0.3071  0.5680
   93SAPC  H19R 9022   4.133   4.048   5.621 -0.2766 -0.6830  0.3072
   93SAPC  H19S 9023   4.188   4.169   5.512  0.7071 -0.3855 -1.3372
   93SAPC  C220 9024   4.192   3.964   5.429 -0.1899  0.5108 -0.0745
   93SAPC  H20R 9025   4.286   3.923   5.473 -0.1872  0.9958  0.3818
   93SAPC  H20S 9026   4.210   4.011   5.329 -1.3981 -0.8995 -0.9983
   93SAPC  H20T 9027   4.121   3.881   5.409 -0.1280  0.8375 -1.8447
   93SAPC   C33 9028   3.743   3.670   5.937  0.2219 -0.1735 -0.0135
   93SAPC   H3X 9029   3.641   3.662   5.894  0.8171 -0.4361 -1.4350
   93SAPC   H3Y 9030   3.794   3.576   5.905 -1.1112 -0.8303 -0.2745
   93SAPC   C34 9031   3.805   3.789   5.862 -0.2440 -0.9510 -0.4163
   93SAPC   H4X 9032   3.909   3.791   5.900 -0.8585 -0.2707  1.3623
   93SAPC   H4Y 9033   3.758   3.886   5.890 -0.7605 -1.7520  1.6616
   93SAPC   C35 9034   3.814   3.774   5.712  0.5480  0.5428  0.7188
   93SAPC   H5X 9035   3.880   3.685   5.704  0.2344  0.3433  0.2750
   93SAPC   H5Y 9036   3.855   3.868   5.669  2.6729 -0.0822  1.3011
   93SAPC   C36 9037   3.687   3.735   5.633 -0.3305 -0.0778 -0.2048
   93SAPC   H6X 9038   3.656   3.833   5.591 -0.3778  0.5655  1.2673
   93SAPC   H6Y 9039   3.607   3.701   5.703  1.8762 -3.0785  1.0783
   93SAPC   C37 9040   3.715   3.640   5.522 -0.3711 -0.0636 -0.0393
   93SAPC   H7X 9041   3.628   3.575   5.495  0.5418 -2.3386  2.0391
   93SAPC   H7Y 9042   3.789   3.562   5.550 -0.7554 -0.3764  0.1192
   93SAPC   C38 9043   3.782   3.705   5.402 -0.7695  0.9245  0.0376
   93SAPC   H8X 9044   3.883   3.747   5.424  0.7724 -2.5647  0.3327
   93SAPC   H8Y 9045   3.717   3.784   5.359  0.2814  1.6365 -0.2798
   93SAPC   C39 9046   3.804   3.602   5.295 -0.6123  0.5955  0.7962
   93SAPC   H9X 9047   3.717   3.563   5.239  0.9689 -1.7748 -0.1807
   93SAPC   H9Y 9048   3.858   3.513   5.336  1.1806  1.8955  1.3808
   93SAPC  C310 9049   3.906   3.640   5.188  0.3789 -0.1616 -0.0366
   93SAPC  H10X 9050   4.003   3.673   5.230 -0.5669  2.6969  0.1186
   93SAPC  H10Y 9051   3.859   3.723   5.131 -1.0591 -0.3294  0.8469
   93SAPC  C311 9052   3.907   3.549   5.062 -0.4281 -0.0324  0.1537
   93SAPC  H11X 9053   3.801   3.540   5.030 -0.5528  0.5032  0.4020
   93SAPC  H11Y 9054   3.948   3.451   5.092 -1.5864  0.1255  2.4417
   93SAPC  C312 9055   3.992   3.615   4.939 -0.2012  0.4991  0.1331
   93SAPC  H12X 9056   4.099   3.627   4.969  0.1203 -2.0823  0.2124
   93SAPC  H12Y 9057   3.945   3.712   4.913  0.6320  0.3143 -2.2874
   93SAPC  C313 9058   3.982   3.534   4.815  0.3434  0.9612  0.2824
   93SAPC  H13X 9059   3.876   3.503   4.806  1.2809 -1.8858 -3.8479
   93SAPC  H13Y 9060   4.034   3.437   4.830 -0.3439  0.1386 -2.1084
   93SAPC  C314 9061   4.029   3.600   4.690  0.3348  0.2029  0.5267
   93SAPC  H14X 9062   4.137   3.623   4.697  0.5801 -0.4243 -0.9004
   93SAPC  H14Y 9063   3.971   3.694   4.678 -1.9219 -1.0199  1.1791
   93SAPC  C315 9064   4.010   3.515   4.559  0.0603  0.0980  0.0551
   93SAPC  H15X 9065   3.903   3.525   4.528  0.3724  0.5397 -0.9057
   93SAPC  H15Y 9066   4.029   3.408   4.580  3.7891  0.7964  0.8451
   93SAPC  C316 9067   4.110   3.562   4.445 -0.2709  0.6408 -0.2964
   93SAPC  H16X 9068   4.214   3.538   4.475  0.5279  0.5571 -2.9528
   93SAPC  H16Y 9069   4.100   3.672   4.431  2.6255  0.6839 -3.1903
   93SAPC  C317 9070   4.080   3.510   4.306  0.0580 -0.1496  0.0878
   93SAPC  H17X 9071   3.979   3.533   4.267 -0.1509  0.1968  0.8072
   93SAPC  H17Y 9072   4.095   3.401   4.297  1.1298 -0.0295  0.2486
   93SAPC  C318 9073   4.181   3.583   4.214 -0.8335 -0.3238  0.5235
   93SAPC  H18X 9074   4.160   3.554   4.109 -1.4312  0.8694  0.3046
   93SAPC  H18Y 9075   4.287   3.566   4.243 -0.7049  0.0164  0.2489
   93SAPC  H18Z 9076   4.156   3.691   4.208  0.4944 -0.0137  0.2725
   94SAPC     N 9077   2.429   3.014   6.942 -0.6410 -0.2722  0.4414
   94SAPC   C12 9078   2.516   2.998   6.813  1.0404 -0.7744  0.1579
   94SAPC  H12A 9079   2.464   2.930   6.747  0.4261  1.3911 -1.7448
   94SAPC  H12B 9080   2.601   2.936   6.836  2.6424  2.1646  3.1873
   94SAPC   C13 9081   2.329   3.120   6.923 -0.3563  0.3589 -0.0692
   94SAPC  H13A 9082   2.286   3.144   7.019  1.8700 -0.5639  1.2362
   94SAPC  H13B 9083   2.358   3.215   6.880  2.3494  0.9353  2.6363
   94SAPC  H13C 9084   2.250   3.089   6.856  0.5097 -1.5970 -0.2355
   94SAPC   C14 9085   2.367   2.887   6.976 -0.1377 -0.1783 -0.5080
   94SAPC  H14A 9086   2.297   2.906   7.056 -2.6363  0.1882 -2.6473
   94SAPC  H14B 9087   2.305   2.857   6.893 -0.2191  0.1799 -0.5797
   94SAPC  H14C 9088   2.427   2.803   7.008 -2.0902 -2.2167 -1.9248
   94SAPC   C15 9089   2.515   3.060   7.052  0.5458  0.3312 -0.7389
   94SAPC  H15A 9090   2.594   2.990   7.077 -0.6794 -0.6794  0.5075
   94SAPC  H15B 9091   2.563   3.152   7.025 -0.0838  0.8900 -0.0009
   94SAPC  H15C 9092   2.467   3.087   7.145  0.4097 -0.6027 -0.5202
   94SAPC   C11 9093   2.565   3.123   6.736 -0.4277  0.0446  0.1373
   94SAPC  H11A 9094   2.475   3.185   6.715 -0.7354 -0.9384 -1.6112
   94SAPC  H11B 9095   2.598   3.088   6.635 -0.5778  0.3926 -0.0356
   94SAPC     P 9096   2.811   3.167   6.798  0.3576  0.6532  0.1832
   94SAPC   O13 9097   2.889   3.288   6.768  0.0423 -0.1295  0.2470
   94SAPC   O14 9098   2.861   3.103   6.923  0.0223 -0.1841 -0.1306
   94SAPC   O12 9099   2.659   3.198   6.809 -0.5169 -0.0217 -0.5657
   94SAPC   O11 9100   2.817   3.070   6.674 -0.3627  0.1740 -0.4585
   94SAPC    C1 9101   2.929   3.080   6.575 -0.0774  0.4343 -0.1658
   94SAPC    HA 9102   3.019   3.136   6.610 -0.2039  0.3472  0.3017
   94SAPC    HB 9103   2.964   2.978   6.546 -2.2954 -0.6505  0.7730
   94SAPC    C2 9104   2.878   3.162   6.448 -0.1199  0.4809 -0.3394
   94SAPC    HS 9105   2.890   3.266   6.486 -3.2243 -0.1557  2.9285
   94SAPC   O21 9106   2.739   3.120   6.428  0.4079 -0.6366  0.1471
   94SAPC   C21 9107   2.668   3.220   6.388  0.0244 -0.5536 -0.2888
   94SAPC   O22 9108   2.696   3.335   6.394  0.2699 -0.3849  0.0922
   94SAPC   C22 9109   2.520   3.174   6.354 -0.1310  0.3969  0.1671
   94SAPC   H2R 9110   2.516   3.073   6.400  1.6599  0.4016  0.3963
   94SAPC   H2S 9111   2.441   3.232   6.407 -0.9137  0.0763 -0.6252
   94SAPC    C3 9112   2.977   3.142   6.337 -0.6024  0.4399  1.0326
   94SAPC    HX 9113   2.990   3.038   6.302 -1.0600  1.2418 -1.7301
   94SAPC    HY 9114   3.076   3.171   6.378  0.2345 -1.0923  0.1493
   94SAPC   O31 9115   2.934   3.233   6.228  0.5281  0.1573  0.5231
   94SAPC   C31 9116   2.942   3.179   6.107  0.2551 -0.1664 -0.5658
   94SAPC   O32 9117   2.975   3.063   6.079 -0.0301  0.3747 -0.7919
   94SAPC   C32 9118   2.904   3.288   6.010  0.2075 -0.2630  0.5675
   94SAPC   H2X 9119   2.988   3.360   6.005 -0.5715  0.6348  0.1729
   94SAPC   H2Y 9120   2.813   3.344   6.041  0.1501  0.5445 -0.9598
   94SAPC   C23 9121   2.496   3.169   6.201  0.7710 -0.5758 -0.4530
   94SAPC   H3R 9122   2.537   3.259   6.151 -0.7144 -0.3701 -1.3475
   94SAPC   H3S 9123   2.388   3.149   6.184  1.1043 -3.3149  0.1755
   94SAPC   C24 9124   2.570   3.054   6.142 -0.1507  0.1215 -0.7299
   94SAPC   H4R 9125   2.540   2.957   6.187  0.2625 -0.3030 -1.3612
   94SAPC   H4S 9126   2.679   3.064   6.165  0.0298  3.9918 -2.4896
   94SAPC   C25 9127   2.560   3.031   6.000  0.8176  1.0439  0.2666
   94SAPC   H5R 9128   2.630   3.097   5.946  1.9283  1.3698  2.0451
   94SAPC   C26 9129   2.488   2.938   5.929 -0.7168 -0.3284 -0.5378
   94SAPC   H6R 9130   2.495   2.926   5.820  0.0246 -2.1418 -0.3363
   94SAPC   C27 9131   2.405   2.831   5.985 -0.7731 -0.4039  0.6551
   94SAPC   H7R 9132   2.378   2.847   6.091  1.5374 -1.3434  1.4472
   94SAPC   H7S 9133   2.460   2.734   5.985  1.4639  0.7951  1.0124
   94SAPC   C28 9134   2.281   2.819   5.896 -0.5528 -0.3313  0.0466
   94SAPC   H8R 9135   2.195   2.871   5.940 -0.2648  0.1814  0.0108
   94SAPC   C29 9136   2.269   2.738   5.785  0.3181 -0.3747 -0.0401
   94SAPC   H9R 9137   2.177   2.744   5.725  1.7347 -1.8086 -2.4969
   94SAPC  C210 9138   2.385   2.657   5.720 -0.5574  0.0839  0.1873
   94SAPC  H10R 9139   2.352   2.551   5.714  1.8421 -0.9345  2.6220
   94SAPC  H10S 9140   2.478   2.651   5.782  0.8551 -1.2693 -1.9444
   94SAPC  C211 9141   2.416   2.725   5.588  0.3642  0.6207 -0.0878
   94SAPC  H11R 9142   2.509   2.782   5.597  1.0574 -0.6678  1.3501
   94SAPC  C212 9143   2.333   2.725   5.479  0.7541  0.7780 -0.7422
   94SAPC  H12R 9144   2.368   2.775   5.388  0.1071  2.6091 -0.0297
   94SAPC  C213 9145   2.203   2.661   5.465  0.2219  0.5870 -0.0976
   94SAPC  H13R 9146   2.132   2.738   5.501 -0.8818 -1.1493  1.6608
   94SAPC  H13S 9147   2.186   2.573   5.531  0.4337  1.1655  0.7378
   94SAPC  C214 9148   2.157   2.641   5.316 -0.6537 -0.2163  0.1446
   94SAPC  H14R 9149   2.187   2.716   5.242 -2.1091 -2.2690 -2.6710
   94SAPC  C215 9150   2.076   2.547   5.270  0.6089 -0.0141 -0.2367
   94SAPC  H15R 9151   2.067   2.548   5.160 -2.9407  2.0504 -0.0784
   94SAPC  C216 9152   2.042   2.420   5.348 -0.2736 -0.7027  0.9495
   94SAPC  H16R 9153   2.105   2.410   5.439 -1.4429 -0.1876  1.8385
   94SAPC  H16S 9154   2.068   2.331   5.287 -0.8236  0.1009 -0.4924
   94SAPC  C217 9155   1.896   2.413   5.379  0.7586 -0.0967  0.4911
   94SAPC  H17R 9156   1.857   2.313   5.405 -0.1182  0.0628 -0.1443
   94SAPC  H17S 9157   1.834   2.432   5.289 -1.6504 -1.4908  1.7481
   94SAPC  C218 9158   1.838   2.513   5.487  1.0330 -0.6536  0.5539
   94SAPC  H18R 9159   1.729   2.529   5.471  1.6058  2.2326 -1.2022
   94SAPC  H18S 9160   1.901   2.604   5.481 -1.3747  1.1555  1.0024
   94SAPC  C219 9161   1.851   2.456   5.631  0.4302 -0.4217 -0.4031
   94SAPC  H19R 9162   1.953   2.421   5.655 -0.8214 -3.9097  0.4230
   94SAPC  H19S 9163   1.775   2.376   5.648 -0.3814  0.0048 -1.8769
   94SAPC  C220 9164   1.825   2.571   5.729 -0.7918 -0.1617  0.6434
   94SAPC  H20R 9165   1.917   2.634   5.728 -0.7366 -0.2247 -1.1559
   94SAPC  H20S 9166   1.806   2.528   5.830  0.3019 -0.6968  0.6431
   94SAPC  H20T 9167   1.740   2.629   5.690 -0.5882 -1.2988 -1.6169
   94SAPC   C33 9168   2.889   3.231   5.865 -0.5426 -0.7012  0.5590
   94SAPC   H3X 9169   2.818   3.145   5.863 -1.7464  0.2755  0.5908
   94SAPC   H3Y 9170   2.988   3.193   5.829 -0.2659 -1.2315  1.8210
   94SAPC   C34 9171   2.825   3.324   5.762 -1.0229 -0.1552  0.6830
   94SAPC   H4X 9172   2.887   3.415   5.746 -0.0264 -0.6700  1.4951
   94SAPC   H4Y 9173   2.725   3.361   5.795  0.6460  3.6253  1.9797
   94SAPC   C35 9174   2.816   3.260   5.624  0.7683  0.0172 -0.0656
   94SAPC   H5X 9175   2.908   3.200   5.607  1.7690  0.9328  1.8090
   94SAPC   H5Y 9176   2.831   3.334   5.542 -0.1293  1.9751  1.4584
   94SAPC   C36 9177   2.685   3.174   5.615 -0.5384  0.5662 -0.7218
   94SAPC   H6X 9178   2.594   3.235   5.630  1.0287  3.3577 -1.8219
   94SAPC   H6Y 9179   2.689   3.103   5.700  1.9885  1.4092 -0.0330
   94SAPC   C37 9180   2.670   3.087   5.487  0.5027 -0.1401 -1.0330
   94SAPC   H7X 9181   2.573   3.034   5.503  0.2454  0.8898  1.1881
   94SAPC   H7Y 9182   2.760   3.021   5.489 -0.5184 -1.6235 -1.8628
   94SAPC   C38 9183   2.654   3.166   5.358  0.0813  0.7781  0.6987
   94SAPC   H8X 9184   2.747   3.222   5.333 -0.4122  1.4001  0.2371
   94SAPC   H8Y 9185   2.570   3.239   5.362 -0.0628  1.0905 -3.3839
   94SAPC   C39 9186   2.620   3.072   5.239 -0.5814 -0.0579 -1.0235
   94SAPC   H9X 9187   2.519   3.027   5.245 -0.6458  0.2028  0.0226
   94SAPC   H9Y 9188   2.695   2.993   5.218  1.3974  1.2521  0.5940
   94SAPC  C310 9189   2.595   3.151   5.112 -0.3308 -0.6976  0.4113
   94SAPC  H10X 9190   2.690   3.195   5.073  0.0675 -1.7817  0.0841
   94SAPC  H10Y 9191   2.530   3.238   5.132  1.0555  0.8496 -1.3697
   94SAPC  C311 9192   2.535   3.065   5.004  0.3139 -0.4839  0.1124
   94SAPC  H11X 9193   2.447   3.017   5.054  0.0534  0.3217  0.4514
   94SAPC  H11Y 9194   2.613   2.997   4.965 -0.1054 -1.3590  0.7755
   94SAPC  C312 9195   2.478   3.151   4.885 -0.6106  0.5963  0.0178
   94SAPC  H12X 9196   2.415   3.224   4.939  0.2472  1.1665  0.2709
   94SAPC  H12Y 9197   2.414   3.090   4.818  0.3639 -1.6219  1.0047
   94SAPC  C313 9198   2.595   3.223   4.805  0.2365  0.5503 -0.1698
   94SAPC  H13X 9199   2.657   3.148   4.750 -1.6580 -1.3155  0.0951
   94SAPC  H13Y 9200   2.656   3.277   4.880  0.4938  0.7677 -0.5279
   94SAPC  C314 9201   2.551   3.332   4.705 -0.1019  0.1037 -0.2426
   94SAPC  H14X 9202   2.634   3.405   4.695 -1.4027  1.4524 -1.8516
   94SAPC  H14Y 9203   2.463   3.382   4.752 -2.5847 -2.3834 -1.9322
   94SAPC  C315 9204   2.509   3.283   4.560  0.1824  0.8863  0.0642
   94SAPC  H15X 9205   2.401   3.260   4.561  0.3019  0.3020  0.2974
   94SAPC  H15Y 9206   2.557   3.184   4.546 -1.3624 -0.1976  1.9480
   94SAPC  C316 9207   2.549   3.378   4.447 -0.5093  0.2310 -0.8865
   94SAPC  H16X 9208   2.585   3.314   4.364 -0.1386 -1.5225  0.5390
   94SAPC  H16Y 9209   2.630   3.447   4.482 -1.9950  1.4977  0.1861
   94SAPC  C317 9210   2.422   3.459   4.405  0.2210  0.0222 -0.3404
   94SAPC  H17X 9211   2.452   3.562   4.376 -0.3461  0.5256  0.8015
   94SAPC  H17Y 9212   2.345   3.485   4.481  0.3144  1.7605 -0.8075
   94SAPC  C318 9213   2.350   3.396   4.283 -0.1955  0.2302 -0.2651
   94SAPC  H18X 9214   2.354   3.286   4.297  1.8216  0.0048 -2.0156
   94SAPC  H18Y 9215   2.410   3.419   4.193 -2.4176 -2.7841 -2.7531
   94SAPC  H18Z 9216   2.246   3.427   4.260 -0.6132 -0.1427  1.0264
   95SAPC     N 9217   5.601   1.559   2.046 -0.4630  0.7865  0.2952
   95SAPC   C12 9218   5.633   1.704   2.045 -0.7689 -0.6689  0.6200
   95SAPC  H12A 9219   5.709   1.715   1.969 -1.4704 -2.6208 -0.4345
   95SAPC  H12B 9220   5.677   1.738   2.138 -0.3506 -1.4491  0.7148
   95SAPC   C13 9221   5.476   1.526   2.124  0.2881 -0.2014 -0.3358
   95SAPC  H13A 9222   5.392   1.563   2.069 -0.9230 -1.2742  0.7252
   95SAPC  H13B 9223   5.464   1.419   2.136 -0.3243 -0.3058 -1.6927
   95SAPC  H13C 9224   5.464   1.577   2.219 -0.3804 -0.5386 -0.2400
   95SAPC   C14 9225   5.586   1.504   1.907 -0.2405 -0.0486  0.6143
   95SAPC  H14A 9226   5.664   1.525   1.836  0.5976 -1.2475  1.1577
   95SAPC  H14B 9227   5.567   1.398   1.912 -1.8645  0.2518  1.7900
   95SAPC  H14C 9228   5.498   1.549   1.864 -0.3973 -0.8071  0.1134
   95SAPC   C15 9229   5.714   1.493   2.113 -0.3435  0.2073 -0.0349
   95SAPC  H15A 9230   5.809   1.496   2.062 -0.1845  0.0609  0.2460
   95SAPC  H15B 9231   5.724   1.526   2.216 -1.6928  0.2725  0.0867
   95SAPC  H15C 9232   5.708   1.385   2.118 -0.1898  0.1770 -0.5068
   95SAPC   C11 9233   5.510   1.792   2.010 -0.0498  0.1173  0.4412
   95SAPC  H11A 9234   5.435   1.780   2.091 -1.4220  2.1508 -0.4325
   95SAPC  H11B 9235   5.467   1.760   1.913  0.3456  1.8765 -0.3575
   95SAPC     P 9236   5.573   2.026   2.102  0.0610 -0.1285  0.7518
   95SAPC   O13 9237   5.670   1.953   2.192 -0.9840 -0.8602  0.1802
   95SAPC   O14 9238   5.615   2.156   2.040 -0.2113 -0.1847 -0.2915
   95SAPC   O12 9239   5.547   1.925   1.982 -1.3365 -0.3179  0.5233
   95SAPC   O11 9240   5.433   2.035   2.174  0.6255 -0.4827 -0.4729
   95SAPC    C1 9241   5.353   2.153   2.169  0.1303  0.2915 -0.0664
   95SAPC    HA 9242   5.389   2.227   2.095  0.1715 -0.2813 -0.6320
   95SAPC    HB 9243   5.254   2.116   2.135  0.6417 -0.2977 -0.9688
   95SAPC    C2 9244   5.319   2.210   2.310  0.0682  0.2245 -0.6385
   95SAPC    HS 9245   5.269   2.127   2.364  0.7687  0.4488  0.3762
   95SAPC   O21 9246   5.225   2.315   2.302  0.1445 -0.5125  0.3984
   95SAPC   C21 9247   5.099   2.274   2.282  0.2135 -0.7808  0.2117
   95SAPC   O22 9248   5.068   2.155   2.280  0.2344 -0.4016 -0.0445
   95SAPC   C22 9249   5.002   2.395   2.260 -0.4496  0.1469 -0.2778
   95SAPC   H2R 9250   4.993   2.462   2.349  1.2743  0.1038 -0.0369
   95SAPC   H2S 9251   5.066   2.461   2.198 -0.5678  0.2808 -0.2577
   95SAPC    C3 9252   5.443   2.263   2.391  1.0886 -0.7823 -0.2795
   95SAPC    HX 9253   5.414   2.335   2.470  1.5220  1.3100 -1.9213
   95SAPC    HY 9254   5.490   2.323   2.310  0.1020 -0.6610 -0.7888
   95SAPC   O31 9255   5.519   2.149   2.439  0.1041  0.7871  0.1787
   95SAPC   C31 9256   5.617   2.177   2.533  0.4575  0.0321  0.5177
   95SAPC   O32 9257   5.618   2.283   2.594  0.2868  0.3123  0.3539
   95SAPC   C32 9258   5.703   2.049   2.556 -1.0366 -0.6356  0.3421
   95SAPC   H2X 9259   5.799   2.098   2.586 -1.6663 -0.0464  1.4285
   95SAPC   H2Y 9260   5.707   1.995   2.459  1.0513  1.0577 -0.6114
   95SAPC   C23 9261   4.865   2.365   2.206  0.7407 -1.4385  0.8137
   95SAPC   H3R 9262   4.881   2.303   2.115  2.9380  1.0217 -0.6493
   95SAPC   H3S 9263   4.824   2.459   2.162  2.9487 -0.4799  0.6321
   95SAPC   C24 9264   4.755   2.304   2.297 -0.0929 -0.2336  0.1389
   95SAPC   H4R 9265   4.794   2.201   2.310 -1.3818 -0.9697 -1.4490
   95SAPC   H4S 9266   4.664   2.309   2.235  0.4288 -2.2257 -0.8659
   95SAPC   C25 9267   4.738   2.379   2.426  0.9576 -0.5238  0.9560
   95SAPC   H5R 9268   4.747   2.489   2.419  0.8260 -0.5092  1.0107
   95SAPC   C26 9269   4.720   2.325   2.541 -0.6941  0.6896 -0.3864
   95SAPC   H6R 9270   4.710   2.390   2.629  0.6633  1.4678 -0.7766
   95SAPC   C27 9271   4.707   2.176   2.574  0.5397 -0.0991  0.6264
   95SAPC   H7R 9272   4.791   2.119   2.619  1.8269 -0.1256 -1.6501
   95SAPC   H7S 9273   4.679   2.113   2.486  0.6720 -0.4969  0.8711
   95SAPC   C28 9274   4.585   2.154   2.657  0.7574 -0.3498 -0.2359
   95SAPC   H8R 9275   4.491   2.139   2.603  1.6446  0.7710 -2.1716
   95SAPC   C29 9276   4.578   2.162   2.791  0.4443  0.1701 -0.3691
   95SAPC   H9R 9277   4.481   2.137   2.838  0.6756  1.0339  0.6026
   95SAPC  C210 9278   4.686   2.191   2.897  0.0922  0.2094  0.0309
   95SAPC  H10R 9279   4.782   2.219   2.848  0.3017  0.0555  0.3458
   95SAPC  H10S 9280   4.710   2.098   2.954 -1.6184 -0.8497 -0.8639
   95SAPC  C211 9281   4.643   2.308   2.984  0.1519 -0.8012 -0.4847
   95SAPC  H11R 9282   4.574   2.378   2.936 -1.5012 -1.3110  1.0434
   95SAPC  C212 9283   4.655   2.315   3.120  0.3844 -0.2425 -0.3877
   95SAPC  H12R 9284   4.609   2.396   3.177  1.9258 -0.7107  1.6481
   95SAPC  C213 9285   4.740   2.231   3.201  0.4966  0.0873 -0.2644
   95SAPC  H13R 9286   4.831   2.289   3.224  0.2370  0.3902  0.0106
   95SAPC  H13S 9287   4.773   2.139   3.148  1.8425 -0.0045  0.6892
   95SAPC  C214 9288   4.665   2.187   3.323 -0.1942  0.2990 -0.5146
   95SAPC  H14R 9289   4.579   2.121   3.305 -0.9613  1.0616  0.2175
   95SAPC  C215 9290   4.694   2.223   3.449  0.3553  0.6415 -0.2474
   95SAPC  H15R 9291   4.626   2.191   3.529 -0.0603 -0.4943 -1.0405
   95SAPC  C216 9292   4.802   2.304   3.507  0.5086  0.9388 -0.1782
   95SAPC  H16R 9293   4.852   2.366   3.428 -2.9642 -0.5398 -3.8979
   95SAPC  H16S 9294   4.880   2.231   3.535 -0.4640 -0.2691 -0.5299
   95SAPC  C217 9295   4.758   2.390   3.625  0.1675  0.8968  0.0629
   95SAPC  H17R 9296   4.687   2.335   3.691  1.2980  1.3730  1.7390
   95SAPC  H17S 9297   4.701   2.477   3.587 -0.0858  0.4378 -0.6450
   95SAPC  C218 9298   4.879   2.438   3.702  0.0938  0.5723  0.0933
   95SAPC  H18R 9299   4.953   2.485   3.634 -0.9047 -0.5953 -1.8738
   95SAPC  H18S 9300   4.930   2.350   3.746  2.2191  1.3318 -0.7296
   95SAPC  C219 9301   4.840   2.528   3.816  0.9657  0.3701 -0.2271
   95SAPC  H19R 9302   4.771   2.484   3.891  0.5538 -0.0332 -0.8278
   95SAPC  H19S 9303   4.791   2.620   3.776 -0.0631 -0.5081 -1.0765
   95SAPC  C220 9304   4.949   2.601   3.901  0.1201  0.4228  0.0356
   95SAPC  H20R 9305   5.032   2.634   3.836  0.9749 -0.9397  0.3885
   95SAPC  H20S 9306   5.002   2.524   3.961 -0.4449 -2.0829 -2.4722
   95SAPC  H20T 9307   4.918   2.684   3.968 -1.9693 -0.7390  0.6198
   95SAPC   C33 9308   5.652   1.960   2.669  0.1987 -0.2304  0.8026
   95SAPC   H3X 9309   5.548   1.939   2.636 -1.5082  3.8149  2.8553
   95SAPC   H3Y 9310   5.657   2.013   2.767  2.1801 -0.0125  0.6209
   95SAPC   C34 9311   5.737   1.830   2.667 -0.0362 -0.5966 -0.8716
   95SAPC   H4X 9312   5.841   1.848   2.700 -0.5650  1.1562 -0.0091
   95SAPC   H4Y 9313   5.745   1.795   2.562 -3.0217  0.3763 -1.5262
   95SAPC   C35 9314   5.675   1.717   2.754 -0.2448 -0.2660  0.2518
   95SAPC   H5X 9315   5.750   1.636   2.751  0.7095  0.6277 -0.6134
   95SAPC   H5Y 9316   5.578   1.688   2.709  0.2525 -0.8501 -0.4688
   95SAPC   C36 9317   5.662   1.756   2.898  0.0530 -0.0908  0.3941
   95SAPC   H6X 9318   5.591   1.840   2.911 -1.4294 -1.4387  1.3856
   95SAPC   H6Y 9319   5.761   1.794   2.932 -1.3676  3.0406  1.4620
   95SAPC   C37 9320   5.608   1.648   2.987  0.4307 -0.6699 -0.2777
   95SAPC   H7X 9321   5.680   1.564   2.985  0.8405 -0.3089 -0.9739
   95SAPC   H7Y 9322   5.514   1.609   2.942  0.8833 -1.0985 -0.8643
   95SAPC   C38 9323   5.591   1.705   3.132  0.3472  0.1400  0.0901
   95SAPC   H8X 9324   5.517   1.787   3.139  1.0034  0.6639  1.3082
   95SAPC   H8Y 9325   5.688   1.750   3.162  0.6367  0.6793 -1.5540
   95SAPC   C39 9326   5.551   1.601   3.243 -0.1608 -0.2144 -0.0040
   95SAPC   H9X 9327   5.634   1.528   3.252 -0.3356 -0.4488 -0.2725
   95SAPC   H9Y 9328   5.464   1.539   3.215 -0.6234  0.3605  0.1489
   95SAPC  C310 9329   5.527   1.671   3.385  0.2431  0.1887 -0.2631
   95SAPC  H10X 9330   5.612   1.741   3.395  0.3174  0.4213 -2.1798
   95SAPC  H10Y 9331   5.530   1.592   3.463 -0.1607  0.2449 -0.1903
   95SAPC  C311 9332   5.383   1.711   3.392  0.0147  0.1077  0.5026
   95SAPC  H11X 9333   5.314   1.629   3.364  0.8037 -0.0606 -1.0235
   95SAPC  H11Y 9334   5.385   1.792   3.317  3.8404 -2.0752 -2.1081
   95SAPC  C312 9335   5.340   1.749   3.536  0.3245 -0.3686  0.3003
   95SAPC  H12X 9336   5.330   1.664   3.606 -0.9942  0.0190  0.6173
   95SAPC  H12Y 9337   5.236   1.790   3.532  1.0750  1.6814  0.2767
   95SAPC  C313 9338   5.426   1.838   3.624 -0.0058 -0.3756 -0.2988
   95SAPC  H13X 9339   5.430   1.941   3.583 -0.5040  0.8120  2.4220
   95SAPC  H13Y 9340   5.530   1.799   3.629  0.4442  0.6606 -1.0963
   95SAPC  C314 9341   5.367   1.839   3.767 -0.2862 -0.0888 -0.3226
   95SAPC  H14X 9342   5.365   1.738   3.814  0.5942 -0.2445 -0.5957
   95SAPC  H14Y 9343   5.258   1.855   3.755 -0.1270  1.1601 -0.2002
   95SAPC  C315 9344   5.425   1.938   3.868 -0.5887 -0.2135 -0.0506
   95SAPC  H15X 9345   5.399   2.042   3.838 -2.0291 -0.1874  1.1609
   95SAPC  H15Y 9346   5.536   1.932   3.861 -0.5957  0.2361 -0.6411
   95SAPC  C316 9347   5.377   1.906   4.006  0.1314  0.8769 -0.2918
   95SAPC  H16X 9348   5.448   1.950   4.079 -0.3827  1.1137  0.0687
   95SAPC  H16Y 9349   5.399   1.797   4.016  2.2901  1.1006 -1.9425
   95SAPC  C317 9350   5.228   1.943   4.040 -0.1914 -0.2663 -0.4839
   95SAPC  H17X 9351   5.157   1.912   3.960  2.7119 -0.5919 -3.1131
   95SAPC  H17Y 9352   5.234   2.054   4.031  0.1013 -0.2909 -0.5932
   95SAPC  C318 9353   5.194   1.899   4.179  0.3653  0.0470  0.5470
   95SAPC  H18X 9354   5.222   1.795   4.206  1.9505  0.0639 -0.9182
   95SAPC  H18Y 9355   5.087   1.918   4.203  0.4972  0.7048  0.6496
   95SAPC  H18Z 9356   5.252   1.959   4.253 -0.3833  0.1237  1.0884
   96SAPC     N 9357   6.026   6.506   1.491 -0.2099  0.8093  0.4519
   96SAPC   C12 9358   5.977   6.496   1.638 -0.2065 -0.7737 -0.0938
   96SAPC  H12A 9359   6.025   6.415   1.690  1.8148  0.9169  0.8299
   96SAPC  H12B 9360   5.872   6.471   1.631  0.0065 -1.4321 -1.1092
   96SAPC   C13 9361   6.029   6.367   1.438  0.1515  0.6396 -0.0504
   96SAPC  H13A 9362   5.926   6.335   1.433  0.6004 -1.0978  1.0791
   96SAPC  H13B 9363   6.074   6.350   1.341  1.6329 -1.9635  1.0041
   96SAPC  H13C 9364   6.077   6.293   1.500 -0.1791 -0.8443 -1.4977
   96SAPC   C14 9365   5.937   6.587   1.401  0.1224  0.0516 -0.1270
   96SAPC  H14A 9366   5.976   6.594   1.300  0.7089  1.0055  0.1456
   96SAPC  H14B 9367   5.835   6.554   1.402  0.3988 -0.8380  1.1650
   96SAPC  H14C 9368   5.931   6.689   1.434 -0.9291  1.0912 -3.2077
   96SAPC   C15 9369   6.161   6.562   1.502 -0.0018  0.2612  0.0345
   96SAPC  H15A 9370   6.230   6.490   1.543 -2.3888 -2.4631 -0.4457
   96SAPC  H15B 9371   6.192   6.592   1.403 -0.3971 -0.3507 -0.2821
   96SAPC  H15C 9372   6.166   6.650   1.565  1.7362  0.4460 -0.3027
   96SAPC   C11 9373   5.970   6.620   1.731  0.0621 -0.8277 -0.0084
   96SAPC  H11A 9374   6.077   6.640   1.752  0.4805 -3.2608  0.4562
   96SAPC  H11B 9375   5.923   6.602   1.831  0.7674 -2.0113  0.1149
   96SAPC     P 9376   5.982   6.875   1.653  0.3596 -0.2042 -0.2647
   96SAPC   O13 9377   6.130   6.851   1.650 -0.4850 -0.4425  0.6315
   96SAPC   O14 9378   5.921   6.936   1.533 -0.1696  0.3813 -0.1164
   96SAPC   O12 9379   5.914   6.733   1.664  0.7896  0.0406  0.0360
   96SAPC   O11 9380   5.933   6.949   1.783  0.0123 -0.5674  0.2993
   96SAPC    C1 9381   5.912   6.886   1.908 -0.0056  0.8078 -0.0250
   96SAPC    HA 9382   5.844   6.950   1.966 -1.6379 -0.8796  0.0257
   96SAPC    HB 9383   5.874   6.782   1.903  2.3612 -0.1875  0.9255
   96SAPC    C2 9384   6.038   6.866   1.996 -0.3595 -0.0553 -0.0636
   96SAPC    HS 9385   6.100   6.780   1.962 -0.4111 -0.4235  0.7486
   96SAPC   O21 9386   6.008   6.846   2.133  0.2064 -0.1013 -0.1032
   96SAPC   C21 9387   5.966   6.721   2.159 -0.9737 -0.2810 -0.2178
   96SAPC   O22 9388   5.952   6.635   2.075  0.0941 -0.2408 -0.8994
   96SAPC   C22 9389   5.926   6.697   2.305  0.4847 -0.4813  0.5736
   96SAPC   H2R 9390   5.901   6.801   2.337  1.3881  0.2021 -0.8176
   96SAPC   H2S 9391   5.834   6.636   2.294 -2.0510  3.1784 -0.3891
   96SAPC    C3 9392   6.138   6.977   1.992  0.2573  0.1806 -0.2399
   96SAPC    HX 9393   6.088   7.069   2.028 -0.6651  0.2628 -1.6617
   96SAPC    HY 9394   6.171   6.989   1.887  2.3010  0.8507  0.4338
   96SAPC   O31 9395   6.257   6.942   2.072 -0.3297 -0.0155 -0.0348
   96SAPC   C31 9396   6.311   7.031   2.150 -0.3665  0.0749  0.8237
   96SAPC   O32 9397   6.265   7.143   2.181 -0.4633  0.7390 -0.2637
   96SAPC   C32 9398   6.457   6.983   2.191  0.0801 -0.1273  0.1221
   96SAPC   H2X 9399   6.536   7.038   2.136  0.3935 -1.4033 -0.7704
   96SAPC   H2Y 9400   6.459   6.880   2.149  1.0606  0.4187 -1.2353
   96SAPC   C23 9401   6.024   6.628   2.401  0.1971 -0.8410  0.4586
   96SAPC   H3R 9402   6.056   6.528   2.365  2.5831 -0.6228  1.7119
   96SAPC   H3S 9403   5.959   6.609   2.489 -1.6386 -2.8584 -1.2224
   96SAPC   C24 9404   6.146   6.719   2.436  0.6702  0.2339 -0.1456
   96SAPC   H4R 9405   6.104   6.811   2.480  1.2686  2.1546 -3.2963
   96SAPC   H4S 9406   6.186   6.758   2.341 -1.7438  2.0593 -0.4883
   96SAPC   C25 9407   6.241   6.627   2.507 -0.7178  0.7192 -0.2146
   96SAPC   H5R 9408   6.295   6.557   2.442 -0.3356  0.0331  0.8200
   96SAPC   C26 9409   6.278   6.635   2.638 -0.5491  0.0983  0.2682
   96SAPC   H6R 9410   6.333   6.552   2.684 -0.7335 -0.6674 -0.8455
   96SAPC   C27 9411   6.223   6.733   2.738  0.2943 -0.0415 -0.3549
   96SAPC   H7R 9412   6.217   6.833   2.690 -0.8722 -0.4106 -1.0423
   96SAPC   H7S 9413   6.300   6.745   2.816  0.0298  0.2072 -0.1301
   96SAPC   C28 9414   6.082   6.699   2.785  0.1549  0.1844  0.2638
   96SAPC   H8R 9415   6.001   6.685   2.712 -1.7380  0.4421  2.2210
   96SAPC   C29 9416   6.049   6.668   2.913  0.5208 -0.4144 -0.0012
   96SAPC   H9R 9417   5.944   6.658   2.942 -0.8044  5.0479 -1.7388
   96SAPC  C210 9418   6.141   6.677   3.031 -0.3392 -0.1316 -0.2501
   96SAPC  H10R 9419   6.239   6.729   3.018 -0.2968 -0.2522 -0.4196
   96SAPC  H10S 9420   6.175   6.574   3.057 -1.3727 -0.7609 -1.2945
   96SAPC  C211 9421   6.083   6.750   3.142 -0.0526 -0.1116  0.5878
   96SAPC  H11R 9422   6.085   6.858   3.123  0.9672  0.0056  1.2868
   96SAPC  C212 9423   6.026   6.695   3.249  0.0100  0.3243 -0.0592
   96SAPC  H12R 9424   5.986   6.753   3.333 -0.6181  0.1576 -0.2310
   96SAPC  C213 9425   6.019   6.548   3.282 -0.2274  0.8131 -0.5268
   96SAPC  H13R 9426   5.966   6.497   3.198  1.0971 -1.4002 -0.1023
   96SAPC  H13S 9427   5.960   6.537   3.375  0.4795 -0.3655 -0.1944
   96SAPC  C214 9428   6.154   6.481   3.294  0.0551 -0.5855  0.3207
   96SAPC  H14R 9429   6.232   6.546   3.336 -1.0867  1.9588 -1.2604
   96SAPC  C215 9430   6.192   6.352   3.275 -0.0928  0.0542 -0.0585
   96SAPC  H15R 9431   6.293   6.324   3.310 -0.6475 -1.4114  0.4629
   96SAPC  C216 9432   6.105   6.234   3.240  0.8066  0.0920 -0.8354
   96SAPC  H16R 9433   6.000   6.259   3.265  1.4123  1.1417  0.8096
   96SAPC  H16S 9434   6.131   6.152   3.310 -1.0412 -1.4177 -1.8254
   96SAPC  C217 9435   6.129   6.186   3.094  0.2173  0.3276 -1.3312
   96SAPC  H17R 9436   6.074   6.090   3.078  0.6810  0.0311 -1.1628
   96SAPC  H17S 9437   6.237   6.163   3.079  0.0227 -0.9038 -0.9523
   96SAPC  C218 9438   6.081   6.283   2.988  0.0790  0.3994  0.3840
   96SAPC  H18R 9439   6.119   6.384   3.016 -0.0573 -0.0112  2.1986
   96SAPC  H18S 9440   5.973   6.306   3.000 -0.0811 -0.2593  0.2206
   96SAPC  C219 9441   6.114   6.230   2.845  0.5410  0.4706 -0.0206
   96SAPC  H19R 9442   6.029   6.159   2.837  2.4178 -2.1512  1.6841
   96SAPC  H19S 9443   6.215   6.182   2.844  1.4082  2.2241 -0.2123
   96SAPC  C220 9444   6.105   6.337   2.739 -0.1612  0.5531 -0.0824
   96SAPC  H20R 9445   6.181   6.415   2.760  0.5937 -0.3974  0.8666
   96SAPC  H20S 9446   6.001   6.375   2.745 -0.7419 -0.3198 -3.1652
   96SAPC  H20T 9447   6.098   6.279   2.644 -2.3971 -0.7923  0.8149
   96SAPC   C33 9448   6.483   6.967   2.342 -0.7170  0.6232 -0.1048
   96SAPC   H3X 9449   6.586   6.929   2.358 -0.2584  2.3431  1.3375
   96SAPC   H3Y 9450   6.416   6.897   2.397  1.1664 -2.0110 -0.9279
   96SAPC   C34 9451   6.492   7.108   2.403  0.0447  0.7219 -0.5219
   96SAPC   H4X 9452   6.398   7.167   2.395  1.0274  2.3518 -0.4387
   96SAPC   H4Y 9453   6.561   7.168   2.340  0.1194 -0.4154 -1.5749
   96SAPC   C35 9454   6.540   7.108   2.544  0.6480  0.0099 -0.6397
   96SAPC   H5X 9455   6.601   7.201   2.550  1.9846 -0.6845 -2.7100
   96SAPC   H5Y 9456   6.605   7.021   2.565  1.3367  0.3142 -1.4719
   96SAPC   C36 9457   6.428   7.087   2.648  0.5207 -0.4397  0.3571
   96SAPC   H6X 9458   6.373   6.992   2.632 -1.4052  0.5608  0.8097
   96SAPC   H6Y 9459   6.355   7.171   2.638 -0.8639 -1.6410  0.0126
   96SAPC   C37 9460   6.477   7.080   2.793  1.0053 -0.0651  0.2185
   96SAPC   H7X 9461   6.544   7.167   2.813  1.2594 -0.1279 -0.3459
   96SAPC   H7Y 9462   6.526   6.981   2.804 -0.7276 -0.7797  2.0535
   96SAPC   C38 9463   6.352   7.075   2.893  0.0221  0.3032 -0.2119
   96SAPC   H8X 9464   6.278   6.996   2.870 -1.4094  1.1166  1.4116
   96SAPC   H8Y 9465   6.283   7.160   2.875  0.0088  0.0080 -1.6847
   96SAPC   C39 9466   6.395   7.054   3.042  0.6507  0.4500  0.1931
   96SAPC   H9X 9467   6.506   7.059   3.043  0.8347  0.7934 -3.9416
   96SAPC   H9Y 9468   6.361   6.950   3.059 -0.6437  0.7897 -0.1347
   96SAPC  C310 9469   6.325   7.154   3.131 -0.5842  0.5115  0.0355
   96SAPC  H10X 9470   6.215   7.147   3.114 -0.9279 -3.0915  2.5126
   96SAPC  H10Y 9471   6.353   7.257   3.101 -2.3599  0.9875 -0.1537
   96SAPC  C311 9472   6.349   7.127   3.280  0.1653  0.1131  0.3004
   96SAPC  H11X 9473   6.457   7.109   3.293 -0.1379 -0.3828  2.6481
   96SAPC  H11Y 9474   6.297   7.036   3.318  0.0655 -0.4138 -1.0259
   96SAPC  C312 9475   6.336   7.255   3.365 -0.0094 -0.3645  0.2114
   96SAPC  H12X 9476   6.238   7.306   3.347  0.3677 -0.1025 -1.2428
   96SAPC  H12Y 9477   6.419   7.324   3.337 -1.9538  2.4254  0.8657
   96SAPC  C313 9478   6.355   7.229   3.524  0.5023 -0.7176  0.4757
   96SAPC  H13X 9479   6.454   7.180   3.533  1.3970  1.2347  2.1893
   96SAPC  H13Y 9480   6.275   7.164   3.563 -0.0523  0.5712  1.5575
   96SAPC  C314 9481   6.367   7.368   3.602  0.4977  0.0011 -0.6908
   96SAPC  H14X 9482   6.315   7.450   3.547  0.2496  1.0125  0.9914
   96SAPC  H14Y 9483   6.475   7.389   3.610  1.2184 -2.8103 -1.7192
   96SAPC  C315 9484   6.296   7.372   3.740 -0.2977  0.1424 -0.2895
   96SAPC  H15X 9485   6.327   7.283   3.798 -0.7040  0.6448  0.7078
   96SAPC  H15Y 9486   6.188   7.365   3.714 -0.4898  0.5391  0.3949
   96SAPC  C316 9487   6.331   7.489   3.831 -0.1958 -0.4218  0.1993
   96SAPC  H16X 9488   6.283   7.586   3.807  0.5775  0.2399  1.2285
   96SAPC  H16Y 9489   6.437   7.517   3.811 -0.2914  0.0865  0.3783
   96SAPC  C317 9490   6.298   7.464   3.985 -0.1841  0.6318  0.0267
   96SAPC  H17X 9491   6.192   7.433   3.996 -0.1793 -0.1414 -1.8025
   96SAPC  H17Y 9492   6.307   7.560   4.040  2.6784  2.3401 -3.0932
   96SAPC  C318 9493   6.392   7.351   4.051 -0.3752 -0.0700 -0.2486
   96SAPC  H18X 9494   6.495   7.358   4.010 -0.9677 -0.3606 -1.8298
   96SAPC  H18Y 9495   6.360   7.254   4.010  2.2318 -1.8730  1.6406
   96SAPC  H18Z 9496   6.379   7.356   4.162 -3.4101  0.6438 -0.5525
   97SAPC     N 9497   4.880   3.368   1.777 -1.1304  0.2521 -0.0952
   97SAPC   C12 9498   4.854   3.393   1.926  0.1505 -0.4129  0.2463
   97SAPC  H12A 9499   4.826   3.302   1.976  0.9485 -1.0960 -0.5323
   97SAPC  H12B 9500   4.781   3.472   1.923  2.2274  1.5966 -1.3646
   97SAPC   C13 9501   5.004   3.282   1.761  0.0298  0.2190 -0.4143
   97SAPC  H13A 9502   5.093   3.323   1.807 -0.7781  1.1227  0.3973
   97SAPC  H13B 9503   4.996   3.186   1.809  3.9672 -0.5750 -0.9972
   97SAPC  H13C 9504   5.019   3.265   1.655 -0.2013  0.7390 -0.5375
   97SAPC   C14 9505   4.763   3.307   1.711  0.1021  0.3756 -0.4087
   97SAPC  H14A 9506   4.776   3.328   1.606 -0.8157  1.5827 -0.3027
   97SAPC  H14B 9507   4.755   3.203   1.738  0.2997  0.7993  1.4072
   97SAPC  H14C 9508   4.678   3.358   1.753  0.9367  0.1051  1.7131
   97SAPC   C15 9509   4.891   3.503   1.703  0.2784 -0.4956 -0.0545
   97SAPC  H15A 9510   4.793   3.548   1.696 -0.0909 -1.4622 -1.5792
   97SAPC  H15B 9511   4.968   3.553   1.760  0.6577 -1.2930  0.1549
   97SAPC  H15C 9512   4.924   3.491   1.601  0.3882  0.7688 -0.1899
   97SAPC   C11 9513   4.958   3.464   2.022 -0.7196  0.2783 -0.1454
   97SAPC  H11A 9514   5.039   3.389   2.037 -1.9318 -1.6528 -2.5327
   97SAPC  H11B 9515   4.918   3.471   2.125 -0.4145 -0.9022  0.0722
   97SAPC     P 9516   4.985   3.728   2.006 -0.4769 -0.2886 -0.6401
   97SAPC   O13 9517   5.105   3.814   1.989  0.3157 -0.2585  0.2158
   97SAPC   O14 9518   4.858   3.764   1.949  0.3901 -0.4305  0.2679
   97SAPC   O12 9519   5.021   3.578   1.961 -0.2091  0.4470  0.3452
   97SAPC   O11 9520   4.958   3.703   2.164  0.2130 -0.4253  0.2811
   97SAPC    C1 9521   5.065   3.679   2.251  0.5701 -0.2886  0.2661
   97SAPC    HA 9522   5.127   3.590   2.223  1.1631  0.1447  0.1882
   97SAPC    HB 9523   5.128   3.770   2.245 -1.0136  0.7694 -0.9431
   97SAPC    C2 9524   5.018   3.659   2.397 -0.4560  0.1301 -0.0347
   97SAPC    HS 9525   5.106   3.623   2.454  0.0560  1.2194 -0.1286
   97SAPC   O21 9526   4.915   3.552   2.404  0.1938 -0.3004 -0.0378
   97SAPC   C21 9527   4.917   3.487   2.522  0.6819  0.3137  0.6640
   97SAPC   O22 9528   5.010   3.471   2.598  0.3150 -0.2547  0.9648
   97SAPC   C22 9529   4.776   3.433   2.550  0.3406  0.4879  0.9625
   97SAPC   H2R 9530   4.739   3.479   2.644 -1.5304 -1.3332  1.2048
   97SAPC   H2S 9531   4.711   3.468   2.466 -0.3339  0.5045  1.4817
   97SAPC    C3 9532   4.964   3.789   2.459  0.1203  0.0968 -0.6704
   97SAPC    HX 9533   4.877   3.829   2.403 -0.2420  0.2873  0.0176
   97SAPC    HY 9534   5.048   3.861   2.452 -0.8535  1.6726  2.1860
   97SAPC   O31 9535   4.925   3.770   2.600 -0.7862 -0.0280  0.3071
   97SAPC   C31 9536   5.016   3.801   2.691  0.5782  0.7838  0.2669
   97SAPC   O32 9537   5.108   3.879   2.677 -0.1809  0.4360  0.0467
   97SAPC   C32 9538   4.971   3.730   2.820 -0.0134 -0.2948 -0.3312
   97SAPC   H2X 9539   5.008   3.625   2.824 -0.0929 -0.4079 -1.9927
   97SAPC   H2Y 9540   4.863   3.709   2.807  0.0346 -0.6228 -0.2202
   97SAPC   C23 9541   4.766   3.276   2.552  0.4590  0.3951 -0.0752
   97SAPC   H3R 9542   4.828   3.236   2.469  0.7275 -2.5221  1.3890
   97SAPC   H3S 9543   4.667   3.243   2.514 -0.8879  1.4071  2.3436
   97SAPC   C24 9544   4.783   3.205   2.692 -0.1829  0.3788 -0.3680
   97SAPC   H4R 9545   4.888   3.223   2.726 -0.7651  2.3944  0.5249
   97SAPC   H4S 9546   4.766   3.097   2.679 -4.9967  1.0600 -1.5308
   97SAPC   C25 9547   4.684   3.265   2.797 -0.4226  0.4433 -0.0856
   97SAPC   H5R 9548   4.583   3.287   2.760 -1.5779 -0.2483  2.4892
   97SAPC   C26 9549   4.703   3.293   2.931 -0.6188  0.6525  0.1715
   97SAPC   H6R 9550   4.613   3.323   2.987 -1.0604 -0.9696  0.3851
   97SAPC   C27 9551   4.817   3.265   3.022 -0.8141  1.1955 -0.4073
   97SAPC   H7R 9552   4.869   3.362   3.034  1.9556  0.0478 -2.2188
   97SAPC   H7S 9553   4.891   3.201   2.971 -0.2551  1.4784  0.0454
   97SAPC   C28 9554   4.783   3.206   3.158  0.6565 -0.2172 -0.7790
   97SAPC   H8R 9555   4.764   3.098   3.158  0.7579 -0.2504  1.0844
   97SAPC   C29 9556   4.794   3.253   3.282 -0.3264 -0.2192  0.1306
   97SAPC   H9R 9557   4.788   3.181   3.365 -3.9592  0.3913  0.5435
   97SAPC  C210 9558   4.831   3.394   3.321  0.0653  0.0506  0.3168
   97SAPC  H10R 9559   4.735   3.444   3.346 -0.8263 -0.2518 -2.2777
   97SAPC  H10S 9560   4.881   3.457   3.244  0.9869 -0.4288  0.5115
   97SAPC  C211 9561   4.921   3.391   3.447 -0.3251  0.2033  0.9440
   97SAPC  H11R 9562   5.027   3.377   3.421 -0.5562  2.0866 -1.3288
   97SAPC  C212 9563   4.893   3.399   3.576  0.6274  0.2166  0.6209
   97SAPC  H12R 9564   4.981   3.393   3.643  1.0147  0.9254  0.1887
   97SAPC  C213 9565   4.764   3.412   3.647 -0.8008  0.0785  0.2433
   97SAPC  H13R 9566   4.728   3.312   3.681 -1.9444 -0.5612 -2.6004
   97SAPC  H13S 9567   4.686   3.444   3.575  0.6194  1.9015 -0.5724
   97SAPC  C214 9568   4.760   3.529   3.748 -0.1782  0.8889 -0.4712
   97SAPC  H14R 9569   4.855   3.583   3.764 -0.2640  0.1230  3.9556
   97SAPC  C215 9570   4.652   3.562   3.827 -0.0730 -0.2694  0.0323
   97SAPC  H15R 9571   4.654   3.656   3.886  0.9194  0.3537 -0.9490
   97SAPC  C216 9572   4.515   3.502   3.815  0.1802 -0.4256  0.2204
   97SAPC  H16R 9573   4.469   3.490   3.916  1.3808 -0.1944  0.8056
   97SAPC  H16S 9574   4.515   3.408   3.756 -1.3505  0.6227 -1.5850
   97SAPC  C217 9575   4.439   3.611   3.733  0.0079 -0.5626 -0.1886
   97SAPC  H17R 9576   4.491   3.604   3.635  1.5293 -2.2099  0.6784
   97SAPC  H17S 9577   4.447   3.708   3.787 -1.2529 -0.3960 -0.2743
   97SAPC  C218 9578   4.287   3.582   3.701  0.4498 -0.0616 -0.3628
   97SAPC  H18R 9579   4.239   3.677   3.668  1.0746 -0.4362 -2.5635
   97SAPC  H18S 9580   4.240   3.553   3.797 -0.6278 -2.0427 -1.4217
   97SAPC  C219 9581   4.275   3.464   3.602  0.3028  0.1066  0.2534
   97SAPC  H19R 9582   4.319   3.375   3.653 -0.6484 -0.2837  0.4105
   97SAPC  H19S 9583   4.337   3.487   3.513  0.8926 -3.6154 -0.4963
   97SAPC  C220 9584   4.129   3.428   3.555  0.3318 -0.0373 -0.2978
   97SAPC  H20R 9585   4.085   3.507   3.492 -0.5909 -0.2220  0.0973
   97SAPC  H20S 9586   4.056   3.412   3.638  0.3784 -0.8971 -0.4155
   97SAPC  H20T 9587   4.132   3.331   3.502 -1.8870  0.3685 -1.2698
   97SAPC   C33 9588   5.000   3.812   2.950 -0.2267  0.2047 -0.2435
   97SAPC   H3X 9589   4.899   3.848   2.979  0.4298  1.6106  0.3584
   97SAPC   H3Y 9590   5.064   3.899   2.925 -0.7942  0.1915 -1.8878
   97SAPC   C34 9591   5.062   3.721   3.067 -0.1842 -0.0005  0.2828
   97SAPC   H4X 9592   5.168   3.702   3.039  0.2594 -0.0859  1.9295
   97SAPC   H4Y 9593   5.017   3.620   3.066 -0.8957  0.3115  0.2452
   97SAPC   C35 9594   5.056   3.793   3.202  0.2726 -0.4909  0.0791
   97SAPC   H5X 9595   4.948   3.820   3.203  0.8515  2.0617 -0.2322
   97SAPC   H5Y 9596   5.110   3.889   3.187 -1.4389  0.8936  2.1312
   97SAPC   C36 9597   5.090   3.703   3.324 -0.5278 -0.1922 -0.0543
   97SAPC   H6X 9598   5.051   3.602   3.297  1.2258 -0.3490 -2.3405
   97SAPC   H6Y 9599   5.041   3.740   3.416  2.5968 -1.2033  2.2227
   97SAPC   C37 9600   5.237   3.673   3.357 -0.0903 -0.0517  0.3558
   97SAPC   H7X 9601   5.295   3.765   3.383  1.0406 -0.4529 -0.6675
   97SAPC   H7Y 9602   5.283   3.629   3.266 -0.7484 -0.2031  0.0927
   97SAPC   C38 9603   5.266   3.575   3.477  0.0444 -0.3509  0.5009
   97SAPC   H8X 9604   5.376   3.562   3.489 -0.0706 -0.0681  2.0738
   97SAPC   H8Y 9605   5.221   3.475   3.461 -0.9302  0.1427  0.1188
   97SAPC   C39 9606   5.204   3.636   3.607  0.5996  0.8544  0.1679
   97SAPC   H9X 9607   5.094   3.641   3.589  0.6381  1.6895  0.0944
   97SAPC   H9Y 9608   5.221   3.745   3.621 -1.1299  0.7956  3.5910
   97SAPC  C310 9609   5.218   3.552   3.729  0.0047  0.3626 -0.3614
   97SAPC  H10X 9610   5.324   3.521   3.742 -0.3599 -0.5446  0.6703
   97SAPC  H10Y 9611   5.161   3.457   3.727 -0.7822  0.8349 -0.8793
   97SAPC  C311 9612   5.202   3.630   3.855  0.4057 -0.5025 -0.1136
   97SAPC  H11X 9613   5.097   3.658   3.881  0.4175 -0.7827  0.2419
   97SAPC  H11Y 9614   5.252   3.729   3.845 -0.7478  0.3556  1.9589
   97SAPC  C312 9615   5.261   3.567   3.985 -0.3324 -0.9087  0.4079
   97SAPC  H12X 9616   5.367   3.546   3.961 -0.8167 -3.7690  0.3269
   97SAPC  H12Y 9617   5.214   3.466   3.989  1.7937 -2.0688 -1.4621
   97SAPC  C313 9618   5.239   3.662   4.109  0.4039 -0.0962 -0.4617
   97SAPC  H13X 9619   5.135   3.701   4.119  0.4335  0.3141 -1.5626
   97SAPC  H13Y 9620   5.309   3.746   4.091  1.4772 -0.8328  0.1746
   97SAPC  C314 9621   5.281   3.595   4.240  0.4071 -0.4704  0.0283
   97SAPC  H14X 9622   5.385   3.564   4.215 -0.2407 -1.7989 -1.0848
   97SAPC  H14Y 9623   5.240   3.495   4.265 -2.1631  0.8827  1.6291
   97SAPC  C315 9624   5.262   3.692   4.367 -0.6642 -0.1077 -0.8350
   97SAPC  H15X 9625   5.153   3.717   4.369 -0.7256 -0.2315 -1.9566
   97SAPC  H15Y 9626   5.319   3.787   4.362 -0.7083  0.2919  2.9915
   97SAPC  C316 9627   5.290   3.622   4.500  0.9749 -0.2062  0.4261
   97SAPC  H16X 9628   5.223   3.533   4.508  1.6034 -1.0314 -2.3055
   97SAPC  H16Y 9629   5.270   3.691   4.585 -0.0052  0.2593 -0.1622
   97SAPC  C317 9630   5.439   3.597   4.504 -0.9516  0.0132 -0.2619
   97SAPC  H17X 9631   5.492   3.695   4.495 -0.6695 -0.0400  0.7198
   97SAPC  H17Y 9632   5.459   3.537   4.413  1.1726  0.3151 -0.0569
   97SAPC  C318 9633   5.487   3.523   4.632 -0.3124 -0.0379 -0.0744
   97SAPC  H18X 9634   5.596   3.500   4.635 -0.4620 -0.6455  1.6466
   97SAPC  H18Y 9635   5.432   3.427   4.639 -1.2597  0.5863  1.6943
   97SAPC  H18Z 9636   5.460   3.585   4.720 -0.8800  1.0834 -1.0195
   98SAPC     N 9637   1.276   5.442   2.023  0.7457  0.1797  0.5923
   98SAPC   C12 9638   1.290   5.571   2.107  0.3057 -0.7698  0.4348
   98SAPC  H12A 9639   1.379   5.630   2.086 -1.0776  1.7817  1.2380
   98SAPC  H12B 9640   1.303   5.543   2.211  3.0378 -0.7666  0.1740
   98SAPC   C13 9641   1.163   5.358   2.083 -0.7654 -0.2589 -0.1761
   98SAPC  H13A 9642   1.073   5.417   2.078  1.0434  2.6828 -0.1629
   98SAPC  H13B 9643   1.142   5.267   2.029 -1.8937 -0.1967  0.1453
   98SAPC  H13C 9644   1.178   5.335   2.187 -1.6180  3.2221  0.8287
   98SAPC   C14 9645   1.224   5.473   1.884  0.0227 -0.1559  0.1522
   98SAPC  H14A 9646   1.134   5.532   1.894  0.8881  1.2802 -0.1003
   98SAPC  H14B 9647   1.295   5.529   1.824 -1.2483  1.5186  0.1306
   98SAPC  H14C 9648   1.190   5.384   1.834  0.0505  0.0362 -0.2133
   98SAPC   C15 9649   1.401   5.360   2.025  0.3083 -0.0976 -0.0231
   98SAPC  H15A 9650   1.484   5.407   1.974  0.2255 -0.8267 -0.8576
   98SAPC  H15B 9651   1.427   5.332   2.126 -2.4814 -0.3134  0.7361
   98SAPC  H15C 9652   1.365   5.276   1.967 -1.9470 -0.0880  1.2206
   98SAPC   C11 9653   1.171   5.668   2.099  0.8844 -0.0329 -0.1646
   98SAPC  H11A 9654   1.172   5.703   1.993  1.1771  1.2952  0.2580
   98SAPC  H11B 9655   1.168   5.761   2.160 -0.8999  0.6191 -1.1524
   98SAPC     P 9656   0.902   5.686   2.110 -0.4956  0.0536 -0.2794
   98SAPC   O13 9657   0.934   5.827   2.071  0.4094 -0.0203 -0.0638
   98SAPC   O14 9658   0.813   5.606   2.022 -0.1494 -0.3032 -0.1333
   98SAPC   O12 9659   1.036   5.612   2.126 -0.7910  0.5172  0.2888
   98SAPC   O11 9660   0.839   5.685   2.256 -0.3109  0.3659  0.4662
   98SAPC    C1 9661   0.915   5.653   2.378  0.3377 -0.2607 -0.1195
   98SAPC    HA 9662   0.862   5.587   2.449 -1.8068 -2.9821 -3.8838
   98SAPC    HB 9663   1.010   5.601   2.353 -0.8416 -2.0432 -1.0812
   98SAPC    C2 9664   0.966   5.780   2.461  0.6411  0.0141 -0.3181
   98SAPC    HS 9665   1.003   5.752   2.563  0.3158  1.8430  0.3414
   98SAPC   O21 9666   0.851   5.864   2.482  0.0380 -0.7384 -0.2629
   98SAPC   C21 9667   0.758   5.818   2.562 -0.0666 -1.0066  0.0587
   98SAPC   O22 9668   0.757   5.719   2.629 -0.2376  0.0670  0.8097
   98SAPC   C22 9669   0.636   5.904   2.557  0.3566  1.1858  0.4903
   98SAPC   H2R 9670   0.583   5.873   2.464  1.3553  2.3541 -0.4977
   98SAPC   H2S 9671   0.577   5.865   2.643 -1.0409 -1.1669 -1.4038
   98SAPC    C3 9672   1.082   5.862   2.392 -0.2766 -0.4808 -0.5479
   98SAPC    HX 9673   1.045   5.906   2.297  0.9190  2.5093  0.2682
   98SAPC    HY 9674   1.165   5.792   2.368 -0.5756 -1.4577  1.0901
   98SAPC   O31 9675   1.130   5.959   2.482  0.0060  0.1050  0.4222
   98SAPC   C31 9676   1.098   6.088   2.449 -0.1945  0.3047 -0.6791
   98SAPC   O32 9677   1.006   6.115   2.376 -0.0861  0.5934  0.5786
   98SAPC   C32 9678   1.193   6.180   2.524 -0.1205  0.6206 -0.2484
   98SAPC   H2X 9679   1.292   6.156   2.480  0.3827 -0.6386  1.4300
   98SAPC   H2Y 9680   1.207   6.140   2.627  1.6651  0.0929 -0.6620
   98SAPC   C23 9681   0.656   6.057   2.572  0.2727  0.1953  0.4872
   98SAPC   H3R 9682   0.558   6.108   2.588  0.8929  2.0567 -1.1689
   98SAPC   H3S 9683   0.695   6.104   2.479 -1.1986  0.5782  0.0325
   98SAPC   C24 9684   0.753   6.107   2.673 -0.2143 -0.3463 -0.2831
   98SAPC   H4R 9685   0.753   6.218   2.672  0.3887 -0.2968  1.6305
   98SAPC   H4S 9686   0.855   6.068   2.652  0.3237  1.3910 -0.9976
   98SAPC   C25 9687   0.700   6.071   2.805  0.4702  0.1431 -0.1676
   98SAPC   H5R 9688   0.604   6.114   2.835  0.6360 -1.3543  2.8679
   98SAPC   C26 9689   0.768   6.004   2.899 -0.5148  0.7347 -0.2610
   98SAPC   H6R 9690   0.728   5.988   3.000  1.7433  0.7164  0.6828
   98SAPC   C27 9691   0.910   5.947   2.886  0.5721  0.1167 -0.4655
   98SAPC   H7R 9692   0.917   5.914   2.780 -1.4810  1.5173 -1.1024
   98SAPC   H7S 9693   0.922   5.857   2.950  0.5808  1.1600  1.0489
   98SAPC   C28 9694   1.011   6.047   2.921 -0.4607 -0.0366 -0.4625
   98SAPC   H8R 9695   1.005   6.146   2.872 -0.7125  0.1829  0.0074
   98SAPC   C29 9696   1.111   6.031   3.007 -0.0430  0.7033  0.2659
   98SAPC   H9R 9697   1.185   6.112   3.005 -1.4795  2.0455 -0.8797
   98SAPC  C210 9698   1.134   5.914   3.097  0.0789 -0.3661  0.4386
   98SAPC  H10R 9699   1.121   5.820   3.039 -0.6327  0.5379 -0.9431
   98SAPC  H10S 9700   1.049   5.912   3.168  0.4926  0.3408  0.9704
   98SAPC  C211 9701   1.273   5.907   3.163  0.4895 -0.0301 -0.1900
   98SAPC  H11R 9702   1.351   5.926   3.088 -0.2632  3.3504 -0.2786
   98SAPC  C212 9703   1.299   5.881   3.295  0.3448  0.4820 -0.2564
   98SAPC  H12R 9704   1.401   5.851   3.324 -0.0949  1.8068  3.1797
   98SAPC  C213 9705   1.195   5.855   3.394 -0.1949  0.7774 -1.4297
   98SAPC  H13R 9706   1.131   5.767   3.369 -0.4304 -0.6847  3.3712
   98SAPC  H13S 9707   1.124   5.939   3.409  2.0864  2.4213  0.9591
   98SAPC  C214 9708   1.258   5.828   3.529  0.9271 -0.2733  0.5179
   98SAPC  H14R 9709   1.274   5.913   3.597  1.0469 -0.8159  1.1810
   98SAPC  C215 9710   1.301   5.713   3.579 -0.5113  0.7245 -1.0389
   98SAPC  H15R 9711   1.335   5.708   3.684  2.4755  1.2072 -1.9207
   98SAPC  C216 9712   1.309   5.581   3.497 -0.3781  0.2164 -0.2448
   98SAPC  H16R 9713   1.415   5.548   3.492  0.0439  1.2086  1.4845
   98SAPC  H16S 9714   1.287   5.598   3.389 -0.6454 -2.6909 -0.7286
   98SAPC  C217 9715   1.214   5.475   3.557  0.8070  0.3625  0.1309
   98SAPC  H17R 9716   1.118   5.525   3.581  0.0019 -1.1047  0.0885
   98SAPC  H17S 9717   1.253   5.430   3.652  1.3858  0.2567 -0.1523
   98SAPC  C218 9718   1.204   5.348   3.468 -0.1969  0.0965  0.0134
   98SAPC  H18R 9719   1.305   5.306   3.450  0.0237  0.2111  0.9229
   98SAPC  H18S 9720   1.167   5.383   3.370  1.5013  0.6811 -0.4616
   98SAPC  C219 9721   1.112   5.241   3.534  0.2128  1.0065  0.0206
   98SAPC  H19R 9722   1.151   5.232   3.638 -1.2490 -1.2289  0.4412
   98SAPC  H19S 9723   1.111   5.147   3.475 -1.6891  0.5532  0.7054
   98SAPC  C220 9724   0.964   5.285   3.561  0.4713 -1.0214  0.2785
   98SAPC  H20R 9725   0.918   5.292   3.460 -2.4845 -1.2468  1.5080
   98SAPC  H20S 9726   0.953   5.387   3.605  1.3959  0.4829 -2.7288
   98SAPC  H20T 9727   0.903   5.211   3.617 -2.0427  0.6171 -0.1226
   98SAPC   C33 9728   1.165   6.327   2.514 -0.2057  0.2393  0.8619
   98SAPC   H3X 9729   1.120   6.347   2.414 -0.5487 -1.8386  0.5529
   98SAPC   H3Y 9730   1.266   6.372   2.514  0.1592 -0.5153 -0.8712
   98SAPC   C34 9731   1.070   6.391   2.617  0.0885 -0.0989  0.0910
   98SAPC   H4X 9732   0.981   6.324   2.623  0.3852 -0.5512 -0.4550
   98SAPC   H4Y 9733   1.045   6.493   2.583  0.7862 -0.6961 -2.4749
   98SAPC   C35 9734   1.137   6.391   2.760 -0.8794 -0.2130 -0.1548
   98SAPC   H5X 9735   1.223   6.460   2.754  1.7709 -3.2602 -0.2691
   98SAPC   H5Y 9736   1.183   6.291   2.779  1.0316  1.0788  2.7583
   98SAPC   C36 9737   1.036   6.429   2.873  0.5477  0.1925  0.0153
   98SAPC   H6X 9738   0.949   6.359   2.875 -0.6548  1.6450 -0.1454
   98SAPC   H6Y 9739   0.982   6.523   2.848 -2.6536 -1.4998 -0.0725
   98SAPC   C37 9740   1.103   6.450   3.013  0.0929 -0.3129  0.2866
   98SAPC   H7X 9741   1.173   6.536   3.009 -0.9121  0.4810 -1.1673
   98SAPC   H7Y 9742   1.159   6.361   3.050  0.1777 -0.9861 -1.3630
   98SAPC   C38 9743   1.005   6.473   3.122 -0.6586 -0.2356  0.2076
   98SAPC   H8X 9744   0.932   6.553   3.095 -1.3097 -0.7833  0.3304
   98SAPC   H8Y 9745   1.057   6.495   3.218 -1.1128  0.2095  0.3554
   98SAPC   C39 9746   0.937   6.340   3.158  0.1930  0.5047 -0.3670
   98SAPC   H9X 9747   1.015   6.274   3.200 -2.1473 -2.9029 -0.9756
   98SAPC   H9Y 9748   0.891   6.298   3.066  1.0336  1.9022 -1.4658
   98SAPC  C310 9749   0.826   6.346   3.265  0.5722 -0.2650  0.4639
   98SAPC  H10X 9750   0.729   6.380   3.225  0.9405 -0.7344 -0.8858
   98SAPC  H10Y 9751   0.845   6.420   3.346 -1.0132 -0.4315  1.0137
   98SAPC  C311 9752   0.795   6.201   3.323  0.3384  0.3314  0.7346
   98SAPC  H11X 9753   0.888   6.149   3.355  0.6983  0.0789 -0.6401
   98SAPC  H11Y 9754   0.749   6.139   3.242 -1.9527  1.3987  1.1203
   98SAPC  C312 9755   0.699   6.209   3.439  0.0751  1.1322  0.6297
   98SAPC  H12X 9756   0.649   6.110   3.443  1.4425  0.2687 -1.7320
   98SAPC  H12Y 9757   0.629   6.293   3.419 -0.8551  0.4528  0.9736
   98SAPC  C313 9758   0.779   6.218   3.567 -0.4062  0.6314  0.4839
   98SAPC  H13X 9759   0.805   6.324   3.587  1.3911 -0.2748  3.7924
   98SAPC  H13Y 9760   0.864   6.146   3.563 -0.6250  0.3750  0.3827
   98SAPC  C314 9761   0.695   6.183   3.689 -0.0388 -0.7116  0.4182
   98SAPC  H14X 9762   0.670   6.075   3.687  0.5326 -0.9523  2.8866
   98SAPC  H14Y 9763   0.601   6.241   3.689  0.1300 -0.3942 -0.8785
   98SAPC  C315 9764   0.766   6.221   3.825  0.5819 -0.5496  0.4994
   98SAPC  H15X 9765   0.831   6.310   3.810 -0.0122 -0.5031 -2.1395
   98SAPC  H15Y 9766   0.828   6.132   3.850 -0.8476 -1.2506  1.6911
   98SAPC  C316 9767   0.673   6.273   3.937  0.0892 -0.1485  0.8998
   98SAPC  H16X 9768   0.629   6.368   3.900  0.3666 -0.9184 -1.6319
   98SAPC  H16Y 9769   0.742   6.304   4.018  0.6302  0.6779  0.1544
   98SAPC  C317 9770   0.560   6.171   3.975 -0.4809  0.2914  0.2544
   98SAPC  H17X 9771   0.466   6.186   3.916 -0.1271 -0.1364 -0.4348
   98SAPC  H17Y 9772   0.531   6.198   4.079  0.1088 -0.6781  0.6829
   98SAPC  C318 9773   0.592   6.027   3.971  0.0720 -0.5348 -0.4836
   98SAPC  H18X 9774   0.693   6.009   4.014  0.2690  0.7249 -0.3752
   98SAPC  H18Y 9775   0.577   5.990   3.867  0.3110  1.0858 -1.1281
   98SAPC  H18Z 9776   0.527   5.966   4.037  1.4980 -2.0129 -0.3699
   99SAPC     N 9777   5.997   0.944   1.654  0.7342 -0.3663 -0.5389
   99SAPC   C12 9778   6.029   0.900   1.801  0.1434  0.8667 -0.2086
   99SAPC  H12A 9779   6.123   0.948   1.826  0.3566  0.2112  0.3141
   99SAPC  H12B 9780   6.052   0.794   1.807  0.3436  0.9047 -0.3020
   99SAPC   C13 9781   6.092   0.872   1.569 -0.6510 -0.1854  0.4003
   99SAPC  H13A 9782   6.063   0.873   1.465  2.7531 -0.2020 -0.6848
   99SAPC  H13B 9783   6.192   0.915   1.567 -0.1388 -1.3412  0.3745
   99SAPC  H13C 9784   6.105   0.766   1.583 -0.2164 -0.1551  0.2452
   99SAPC   C14 9785   5.858   0.901   1.616  0.0002  0.4162  0.4745
   99SAPC  H14A 9786   5.805   0.958   1.541  0.7283 -0.2358 -0.5732
   99SAPC  H14B 9787   5.860   0.802   1.571  0.5526  1.5075 -2.1154
   99SAPC  H14C 9788   5.791   0.895   1.700 -1.6758  0.1296 -0.8187
   99SAPC   C15 9789   6.009   1.094   1.642 -0.6416  0.6384 -0.0285
   99SAPC  H15A 9790   6.104   1.121   1.686 -0.0270 -0.7172 -0.4866
   99SAPC  H15B 9791   5.992   1.128   1.541  0.3664  2.4320  0.3613
   99SAPC  H15C 9792   5.940   1.152   1.702 -0.4366  1.4215 -0.5343
   99SAPC   C11 9793   5.930   0.933   1.909 -0.6020 -0.7906 -0.2472
   99SAPC  H11A 9794   5.972   0.906   2.009 -0.8373  0.3667  0.1730
   99SAPC  H11B 9795   5.843   0.867   1.887 -0.6843 -0.8274  0.1724
   99SAPC     P 9796   5.962   1.177   2.005  0.2149  0.3145  0.0767
   99SAPC   O13 9797   6.074   1.121   2.083 -0.0815 -0.2821  0.4839
   99SAPC   O14 9798   6.000   1.301   1.933 -0.0528 -0.2785  0.1682
   99SAPC   O12 9799   5.898   1.071   1.906  0.0650  0.2112  0.5918
   99SAPC   O11 9800   5.843   1.219   2.098  0.0857 -0.0984  0.3569
   99SAPC    C1 9801   5.738   1.133   2.148 -0.4112  0.1587  0.0138
   99SAPC    HA 9802   5.642   1.189   2.142 -0.2314  0.3668 -1.0975
   99SAPC    HB 9803   5.727   1.045   2.081 -1.1665  1.7197 -2.0221
   99SAPC    C2 9804   5.760   1.080   2.292 -0.5888 -0.4031  0.3818
   99SAPC    HS 9805   5.689   0.996   2.309  3.4426 -5.0249 -2.8921
   99SAPC   O21 9806   5.739   1.190   2.387  0.1564  0.2851 -0.2648
   99SAPC   C21 9807   5.610   1.217   2.403 -0.7577  0.6576 -0.5587
   99SAPC   O22 9808   5.514   1.147   2.375 -0.1152  0.0574  0.0168
   99SAPC   C22 9809   5.608   1.357   2.473 -0.0681  0.0765 -0.7458
   99SAPC   H2R 9810   5.669   1.417   2.402  0.7770 -0.4367 -0.4533
   99SAPC   H2S 9811   5.500   1.386   2.471 -0.6779 -1.9016  0.5146
   99SAPC    C3 9812   5.902   1.016   2.312  0.1699  0.0210 -0.0878
   99SAPC    HX 9813   5.964   1.107   2.330 -0.5933  0.5156  0.0985
   99SAPC    HY 9814   5.919   0.961   2.217 -5.3417 -1.6580 -0.4852
   99SAPC   O31 9815   5.897   0.931   2.425  0.6257  0.0835 -0.1090
   99SAPC   C31 9816   5.992   0.848   2.427 -0.0242  0.2328 -0.0522
   99SAPC   O32 9817   6.084   0.837   2.344  0.1101 -0.5649 -0.1946
   99SAPC   C32 9818   5.967   0.744   2.534 -0.3294 -0.1830 -0.5356
   99SAPC   H2X 9819   6.060   0.683   2.542  1.6474  2.3903 -2.0922
   99SAPC   H2Y 9820   5.875   0.687   2.513 -0.5756 -0.6386  1.5735
   99SAPC   C23 9821   5.651   1.354   2.621  0.0272  0.0571  0.2184
   99SAPC   H3R 9822   5.689   1.456   2.643  0.5356 -0.3177  1.1370
   99SAPC   H3S 9823   5.736   1.283   2.632  0.7197  0.5481 -1.5691
   99SAPC   C24 9824   5.522   1.328   2.706 -0.1903  0.3425 -0.8737
   99SAPC   H4R 9825   5.435   1.388   2.670 -1.2413 -1.3381 -1.3200
   99SAPC   H4S 9826   5.542   1.355   2.811 -1.1123  0.5597 -0.7389
   99SAPC   C25 9827   5.462   1.190   2.704 -0.6471  0.1900  0.0204
   99SAPC   H5R 9828   5.388   1.174   2.625  1.0971  2.2059 -2.1809
   99SAPC   C26 9829   5.467   1.093   2.797 -0.3630  0.1451  0.1052
   99SAPC   H6R 9830   5.411   1.001   2.775 -3.3603  1.4586  1.6546
   99SAPC   C27 9831   5.537   1.093   2.930 -0.5791  0.2445 -0.2199
   99SAPC   H7R 9832   5.639   1.136   2.935 -0.5898  1.1387 -4.0733
   99SAPC   H7S 9833   5.549   0.987   2.962  1.0633 -0.2238 -2.1574
   99SAPC   C28 9834   5.458   1.162   3.039 -0.2552  0.9783  0.3639
   99SAPC   H8R 9835   5.407   1.255   3.008  0.6896  1.5814  0.5789
   99SAPC   C29 9836   5.438   1.118   3.162 -0.2134  0.6910  0.5162
   99SAPC   H9R 9837   5.398   1.193   3.232  0.6254  1.2773  0.3711
   99SAPC  C210 9838   5.492   0.994   3.233 -0.4355  0.0038 -0.3596
   99SAPC  H10R 9839   5.544   0.918   3.171 -0.7183 -2.0281  1.7592
   99SAPC  H10S 9840   5.405   0.937   3.270  0.0937 -1.1200 -0.8091
   99SAPC  C211 9841   5.583   1.032   3.352  0.3448 -0.4741 -0.0242
   99SAPC  H11R 9842   5.682   1.064   3.316  1.0908  2.0431  3.7179
   99SAPC  C212 9843   5.556   1.035   3.487 -0.5191  1.1216 -0.0210
   99SAPC  H12R 9844   5.638   1.058   3.556  0.2939 -2.1143  0.2646
   99SAPC  C213 9845   5.428   0.990   3.546 -0.7523 -0.0318  0.2661
   99SAPC  H13R 9846   5.458   0.899   3.602  2.6154  0.4486 -0.4996
   99SAPC  H13S 9847   5.354   0.957   3.471 -0.2400 -0.8774  0.1217
   99SAPC  C214 9848   5.360   1.089   3.638 -0.0882 -0.3695  0.7391
   99SAPC  H14R 9849   5.340   1.184   3.587 -0.1691 -1.2810 -0.9696
   99SAPC  C215 9850   5.347   1.076   3.773 -0.2594  0.8723 -0.0922
   99SAPC  H15R 9851   5.301   1.164   3.821  0.7321  0.9938  0.6575
   99SAPC  C216 9852   5.385   0.959   3.867 -0.0673  0.4757 -0.0504
   99SAPC  H16R 9853   5.456   0.996   3.944 -1.6775  0.5422  1.4532
   99SAPC  H16S 9854   5.439   0.879   3.812  2.0576  3.0103 -1.9209
   99SAPC  C217 9855   5.258   0.902   3.930  0.2366  0.7077  0.4049
   99SAPC  H17R 9856   5.188   0.866   3.852  0.8646  0.8938 -0.2524
   99SAPC  H17S 9857   5.203   0.984   3.980 -2.0551  0.3090 -1.3187
   99SAPC  C218 9858   5.284   0.783   4.034  0.0455  0.2836  0.6346
   99SAPC  H18R 9859   5.341   0.817   4.122  1.4315 -2.1121  0.7632
   99SAPC  H18S 9860   5.357   0.713   3.986  0.9312  2.7767 -1.9128
   99SAPC  C219 9861   5.165   0.696   4.064 -0.1292 -0.8300  0.5113
   99SAPC  H19R 9862   5.120   0.644   3.977 -0.1827 -0.8968  0.5789
   99SAPC  H19S 9863   5.083   0.761   4.100  1.2491  0.7979  0.8348
   99SAPC  C220 9864   5.194   0.594   4.171  0.3814  1.4057  0.4092
   99SAPC  H20R 9865   5.203   0.642   4.271  0.9577  2.0724  0.0513
   99SAPC  H20S 9866   5.290   0.540   4.158  0.6916  1.7207  1.2920
   99SAPC  H20T 9867   5.111   0.521   4.177  0.3213  1.3949 -0.4006
   99SAPC   C33 9868   5.953   0.828   2.667  0.7329 -0.2739  0.0041
   99SAPC   H3X 9869   5.856   0.881   2.656 -0.9661 -3.3793 -1.1780
   99SAPC   H3Y 9870   6.035   0.904   2.669  0.8043 -0.2638 -1.8371
   99SAPC   C34 9871   5.954   0.738   2.791  0.0096  0.3558  1.0094
   99SAPC   H4X 9872   6.048   0.680   2.796  0.3643  0.7531 -0.4187
   99SAPC   H4Y 9873   5.876   0.660   2.783  1.6283 -1.2648  0.4295
   99SAPC   C35 9874   5.938   0.824   2.918  0.0125  0.2299  0.1266
   99SAPC   H5X 9875   5.834   0.863   2.917 -1.2662 -2.7618  2.1021
   99SAPC   H5Y 9876   6.006   0.911   2.911 -0.2112  0.2927 -2.4115
   99SAPC   C36 9877   5.977   0.742   3.038 -0.1764  0.5524  0.2455
   99SAPC   H6X 9878   6.087   0.726   3.028 -0.2146  0.2892  0.2354
   99SAPC   H6Y 9879   5.921   0.646   3.029  1.3819 -0.5518  1.7180
   99SAPC   C37 9880   5.929   0.809   3.165 -0.4801 -0.0995 -0.0930
   99SAPC   H7X 9881   5.821   0.833   3.154 -1.3023 -2.2815  2.3408
   99SAPC   H7Y 9882   5.986   0.903   3.180 -1.6038  0.4848  0.6617
   99SAPC   C38 9883   5.940   0.709   3.283  0.1531 -0.1482 -0.4458
   99SAPC   H8X 9884   6.044   0.671   3.279 -0.0550 -1.0689  1.4367
   99SAPC   H8Y 9885   5.875   0.620   3.264  1.0482 -0.8526 -0.2959
   99SAPC   C39 9886   5.904   0.777   3.411 -0.3260 -0.1428  0.6035
   99SAPC   H9X 9887   5.801   0.817   3.425 -0.5808 -0.8853  0.9272
   99SAPC   H9Y 9888   5.970   0.866   3.422 -0.7180  0.2419 -0.0820
   99SAPC  C310 9889   5.938   0.680   3.522  0.3546 -0.3107 -0.4857
   99SAPC  H10X 9890   6.044   0.649   3.510  0.5432  0.5392 -1.1833
   99SAPC  H10Y 9891   5.879   0.587   3.517 -2.9469  1.6324 -0.5995
   99SAPC  C311 9892   5.927   0.757   3.651  0.6612 -0.0708 -0.1584
   99SAPC  H11X 9893   5.961   0.862   3.639  0.9162  0.0092  1.1484
   99SAPC  H11Y 9894   5.989   0.705   3.727 -0.3535  2.0909  2.2697
   99SAPC  C312 9895   5.780   0.769   3.699  0.2590 -0.1595 -0.3353
   99SAPC  H12X 9896   5.722   0.677   3.722 -0.4428  0.2987 -0.2762
   99SAPC  H12Y 9897   5.719   0.819   3.622 -0.6876  0.2883  0.6719
   99SAPC  C313 9898   5.766   0.860   3.831 -0.3601  0.0893  0.7679
   99SAPC  H13X 9899   5.656   0.866   3.846 -0.5542  0.7636 -0.7303
   99SAPC  H13Y 9900   5.801   0.960   3.797  1.4000 -0.6960  0.1453
   99SAPC  C314 9901   5.856   0.814   3.944 -0.4134 -0.1111 -0.4322
   99SAPC  H14X 9902   5.959   0.825   3.903 -0.9256  0.7278 -1.5298
   99SAPC  H14Y 9903   5.841   0.705   3.961 -0.1397 -0.5027 -2.4849
   99SAPC  C315 9904   5.831   0.890   4.083  0.2334 -0.0948  0.4928
   99SAPC  H15X 9905   5.726   0.923   4.097  0.0626 -1.0448  1.5455
   99SAPC  H15Y 9906   5.892   0.983   4.080 -1.9073  1.4468  2.2369
   99SAPC  C316 9907   5.878   0.800   4.200  0.7081 -0.0310  0.0579
   99SAPC  H16X 9908   5.827   0.704   4.179 -1.6238  1.5966 -2.3939
   99SAPC  H16Y 9909   5.852   0.860   4.290  1.3331  2.9434 -1.6126
   99SAPC  C317 9910   6.030   0.774   4.185  0.1371 -0.2266  0.0485
   99SAPC  H17X 9911   6.074   0.874   4.164 -1.9913  0.6609 -0.5478
   99SAPC  H17Y 9912   6.036   0.714   4.092 -1.5521 -0.3001 -0.0469
   99SAPC  C318 9913   6.095   0.686   4.290 -0.1169  0.4242  0.1074
   99SAPC  H18X 9914   6.088   0.729   4.393  2.8215  1.7375 -0.1437
   99SAPC  H18Y 9915   6.202   0.668   4.271 -0.6373 -0.2760 -2.4793
   99SAPC  H18Z 9916   6.045   0.588   4.271 -1.5273  0.8838  1.2209
  100SAPC     N 9917   3.828   1.989   1.994  0.0191 -0.0689 -0.0101
  100SAPC   C12 9918   3.963   1.982   2.058 -0.5588  0.3729  0.3743
  100SAPC  H12A 9919   4.033   2.044   2.004 -1.0104 -1.1893 -2.1782
  100SAPC  H12B 9920   4.006   1.886   2.035  2.7480  2.3972 -3.0261
  100SAPC   C13 9921   3.837   1.937   1.847  0.9861 -0.0644 -0.4658
  100SAPC  H13A 9922   3.909   1.995   1.791  0.6465 -0.4605 -1.3209
  100SAPC  H13B 9923   3.860   1.834   1.866  1.3808 -0.0879 -1.0537
  100SAPC  H13C 9924   3.741   1.934   1.798  0.6730 -2.6573  0.1732
  100SAPC   C14 9925   3.734   1.912   2.071  0.6870 -0.5080 -0.9741
  100SAPC  H14A 9926   3.751   1.805   2.067  0.7141 -0.5202 -0.5859
  100SAPC  H14B 9927   3.719   1.945   2.173 -1.5289 -1.2349 -0.9969
  100SAPC  H14C 9928   3.638   1.931   2.025  0.9057  0.7479 -0.9350
  100SAPC   C15 9929   3.776   2.132   1.993 -0.6832  0.4789  0.3686
  100SAPC  H15A 9930   3.832   2.182   1.916  0.9324  1.0960  1.8875
  100SAPC  H15B 9931   3.671   2.122   1.969 -0.4570 -1.0608 -0.1019
  100SAPC  H15C 9932   3.787   2.187   2.085  1.4393 -1.2454  1.2309
  100SAPC   C11 9933   3.976   2.012   2.208 -0.0829 -0.2762 -0.5793
  100SAPC  H11A 9934   4.085   2.005   2.231 -0.6072 -0.8163  2.1730
  100SAPC  H11B 9935   3.932   1.923   2.257  0.9628 -0.8111 -0.5768
  100SAPC     P 9936   4.019   2.269   2.212 -0.4294 -0.0669  0.1151
  100SAPC   O13 9937   4.021   2.288   2.065 -0.3697 -0.1318  0.2288
  100SAPC   O14 9938   3.953   2.388   2.275  0.2107  0.1256  0.4905
  100SAPC   O12 9939   3.932   2.140   2.249  0.1158 -0.0668  0.3076
  100SAPC   O11 9940   4.162   2.250   2.269 -0.2455  0.1496 -0.2856
  100SAPC    C1 9941   4.195   2.212   2.404  0.3029  0.4527  0.3828
  100SAPC    HA 9942   4.127   2.130   2.436 -0.8602  1.3658  0.3289
  100SAPC    HB 9943   4.296   2.165   2.401 -0.8893 -2.3118 -0.3180
  100SAPC    C2 9944   4.181   2.325   2.505  0.1168 -0.4216  0.0368
  100SAPC    HS 9945   4.074   2.357   2.507  0.9568  2.7398 -0.1432
  100SAPC   O21 9946   4.273   2.435   2.479 -0.1514 -0.8036  0.1314
  100SAPC   C21 9947   4.244   2.557   2.518 -0.7585 -0.1604 -0.9698
  100SAPC   O22 9948   4.141   2.584   2.573  0.3336  0.2275 -0.0123
  100SAPC   C22 9949   4.360   2.646   2.481 -0.0208 -0.0259  0.0598
  100SAPC   H2R 9950   4.442   2.590   2.431  1.4733  0.1528  2.2086
  100SAPC   H2S 9951   4.323   2.713   2.400  0.1219  0.9952  0.8141
  100SAPC    C3 9952   4.208   2.265   2.648 -0.1988 -0.0186  0.1426
  100SAPC    HX 9953   4.314   2.234   2.660 -0.3892 -0.3216  1.1433
  100SAPC    HY 9954   4.144   2.174   2.653  0.0488 -0.3009 -1.1952
  100SAPC   O31 9955   4.183   2.344   2.760 -0.5639  0.1893 -0.2898
  100SAPC   C31 9956   4.052   2.354   2.781  0.0638  0.2018 -0.4260
  100SAPC   O32 9957   3.966   2.286   2.730 -0.1452 -0.3389 -0.4607
  100SAPC   C32 9958   4.020   2.463   2.884 -0.2007  0.1317  0.2717
  100SAPC   H2X 9959   4.000   2.551   2.818  0.2392  1.3673  1.7222
  100SAPC   H2Y 9960   4.117   2.486   2.932  0.0345  0.6323 -0.4204
  100SAPC   C23 9961   4.411   2.740   2.588 -0.1432  0.2980 -0.8892
  100SAPC   H3R 9962   4.332   2.810   2.624 -1.2525 -0.5119 -1.6653
  100SAPC   H3S 9963   4.486   2.803   2.536 -0.6989  4.0293  2.2999
  100SAPC   C24 9964   4.492   2.676   2.697 -0.4450 -0.1704  0.0849
  100SAPC   H4R 9965   4.558   2.751   2.748 -0.8916 -1.3343  2.5060
  100SAPC   H4S 9966   4.565   2.610   2.645  0.0184 -0.0788  0.5989
  100SAPC   C25 9967   4.417   2.594   2.798  0.5480 -0.1861 -0.4896
  100SAPC   H5R 9968   4.387   2.493   2.767 -1.5931 -0.2631  1.5715
  100SAPC   C26 9969   4.394   2.625   2.930  0.5106 -0.5248 -0.3842
  100SAPC   H6R 9970   4.341   2.547   2.986 -0.6650  0.1173 -0.5793
  100SAPC   C27 9971   4.426   2.751   3.008 -0.1233 -0.0454 -0.1860
  100SAPC   H7R 9972   4.447   2.831   2.934 -0.6602  0.2152 -0.0593
  100SAPC   H7S 9973   4.517   2.735   3.069 -0.2083  1.0180  0.2400
  100SAPC   C28 9974   4.312   2.799   3.088  0.9263  0.3213 -0.8141
  100SAPC   H8R 9975   4.256   2.880   3.038  0.3672  0.4339 -0.0267
  100SAPC   C29 9976   4.267   2.759   3.206 -0.7252 -0.5004 -0.1057
  100SAPC   H9R 9977   4.203   2.829   3.261  2.3015  0.6581  2.2012
  100SAPC  C210 9978   4.324   2.648   3.287  0.4132 -0.0652 -0.0921
  100SAPC  H10R 9979   4.358   2.683   3.387  0.0655  0.1854 -0.0603
  100SAPC  H10S 9980   4.420   2.621   3.237  0.3940  1.1140 -0.8058
  100SAPC  C211 9981   4.219   2.539   3.323 -0.2550  0.1392  0.3825
  100SAPC  H11R 9982   4.137   2.534   3.250  0.8444  1.6588 -1.0130
  100SAPC  C212 9983   4.208   2.446   3.421 -0.4182 -0.2359 -0.4437
  100SAPC  H12R 9984   4.118   2.383   3.420  0.8863 -2.1935 -1.4474
  100SAPC  C213 9985   4.302   2.432   3.536 -0.1798  1.0395  0.2532
  100SAPC  H13R 9986   4.297   2.529   3.590 -0.1986  0.5025  1.2488
  100SAPC  H13S 9987   4.404   2.418   3.494 -0.2526 -0.9133  0.6183
  100SAPC  C214 9988   4.248   2.316   3.623  0.0855 -0.4623 -0.5855
  100SAPC  H14R 9989   4.298   2.219   3.609  3.3396  0.4686  2.6574
  100SAPC  C215 9990   4.144   2.340   3.707 -0.5565  0.4471 -0.0819
  100SAPC  H15R 9991   4.100   2.252   3.755  0.1573  1.3674  2.4283
  100SAPC  C216 9992   4.070   2.475   3.723 -0.2691  0.2476 -0.0270
  100SAPC  H16R 9993   3.999   2.496   3.640 -0.7483  0.4180  0.4264
  100SAPC  H16S 9994   4.136   2.564   3.736  2.7337 -1.7061 -0.6753
  100SAPC  C217 9995   3.982   2.459   3.854  1.1800 -0.3292 -0.4604
  100SAPC  H17R 9996   4.053   2.455   3.939  2.4544 -1.0365 -1.5209
  100SAPC  H17S 9997   3.926   2.364   3.853  2.7397 -1.3572  1.8592
  100SAPC  C218 9998   3.887   2.583   3.871 -0.4904 -0.1654  0.3333
  100SAPC  H18R 9999   3.819   2.589   3.783  0.8035  2.1986 -0.5880
  100SAPC  H18S10000   3.958   2.668   3.866 -1.5889  0.7650 -0.0949
  100SAPC  C21910001   3.816   2.599   4.003 -0.6704 -0.3945  0.4293
  100SAPC  H19R10002   3.876   2.634   4.090  0.8114  1.1412 -1.1419
  100SAPC  H19S10003   3.766   2.501   4.023 -0.5152 -0.4157  0.7245
  100SAPC  C22010004   3.693   2.698   3.993 -0.6442 -0.2780 -0.1561
  100SAPC  H20R10005   3.739   2.799   3.986  1.8316 -1.3002  0.2305
  100SAPC  H20S10006   3.630   2.693   4.084 -0.6100 -0.8307 -0.1560
  100SAPC  H20T10007   3.637   2.684   3.898 -2.3182  1.5950  0.4882
  100SAPC   C3310008   3.899   2.440   2.975  0.7012  0.0018  0.3512
  100SAPC   H3X10009   3.810   2.402   2.920  1.2473  1.3882 -1.6072
  100SAPC   H3Y10010   3.876   2.539   3.021  0.7844 -0.8179  2.2534
  100SAPC   C3410011   3.925   2.347   3.085 -0.5259  0.3988  0.2992
  100SAPC   H4X10012   4.027   2.366   3.126  0.1773  1.2085 -1.6827
  100SAPC   H4Y10013   3.918   2.250   3.030  0.1774  1.0716 -1.0348
  100SAPC   C3510014   3.826   2.332   3.206 -0.5085  1.0752  0.2937
  100SAPC   H5X10015   3.729   2.304   3.159  1.5698 -1.3131 -3.0430
  100SAPC   H5Y10016   3.821   2.429   3.259 -1.6294  1.0539  0.2640
  100SAPC   C3610017   3.870   2.209   3.299  0.4025  0.0033 -0.7957
  100SAPC   H6X10018   3.973   2.226   3.336 -0.1134 -0.3765  0.8885
  100SAPC   H6Y10019   3.870   2.122   3.230 -2.3338 -0.8260  0.1176
  100SAPC   C3710020   3.779   2.192   3.422 -0.4415  0.3679  0.1415
  100SAPC   H7X10021   3.674   2.176   3.390 -0.3053  0.7018 -0.5059
  100SAPC   H7Y10022   3.796   2.282   3.485  1.5523 -0.2754  0.5931
  100SAPC   C3810023   3.826   2.078   3.510  0.6220  0.0804 -0.5422
  100SAPC   H8X10024   3.919   2.104   3.564  1.5289 -2.9600 -0.4462
  100SAPC   H8Y10025   3.865   1.992   3.452  0.5514  0.5091 -1.2466
  100SAPC   C3910026   3.724   2.042   3.622 -0.1945  0.0030  0.2036
  100SAPC   H9X10027   3.766   1.959   3.683 -1.3416 -0.0522  0.9470
  100SAPC   H9Y10028   3.626   2.005   3.585 -0.1282 -0.3466  0.3748
  100SAPC  C31010029   3.692   2.165   3.716 -0.0228  0.6609 -0.0704
  100SAPC  H10X10030   3.627   2.243   3.671  1.7379  2.1857 -0.0999
  100SAPC  H10Y10031   3.774   2.237   3.737 -0.0909  1.0899 -1.1970
  100SAPC  C31110032   3.612   2.120   3.837 -0.9819  0.3250  0.3922
  100SAPC  H11X10033   3.681   2.082   3.915  0.8417  2.2508 -0.1631
  100SAPC  H11Y10034   3.549   2.033   3.807  0.7655 -0.2931 -1.7673
  100SAPC  C31210035   3.522   2.225   3.903 -0.5268 -0.2700  0.9133
  100SAPC  H12X10036   3.452   2.269   3.829  0.0964  1.2002  1.1779
  100SAPC  H12Y10037   3.587   2.311   3.929 -1.2677 -0.0486  2.1095
  100SAPC  C31310038   3.442   2.183   4.029 -0.1358  0.3316 -0.1263
  100SAPC  H13X10039   3.509   2.142   4.107  2.6594  0.8872 -2.1205
  100SAPC  H13Y10040   3.375   2.100   3.996 -0.7705  0.1570  1.4944
  100SAPC  C31410041   3.354   2.290   4.094  0.6095  0.4023  0.0954
  100SAPC  H14X10042   3.282   2.247   4.166 -1.2146 -2.1115 -2.9713
  100SAPC  H14Y10043   3.282   2.332   4.020  1.4645  1.4102 -0.2042
  100SAPC  C31510044   3.424   2.410   4.154 -0.6639 -0.1437 -0.5724
  100SAPC  H15X10045   3.476   2.477   4.082 -1.0960  0.4163 -0.3673
  100SAPC  H15Y10046   3.507   2.372   4.217  0.2513  2.7073  0.1047
  100SAPC  C31610047   3.323   2.490   4.241 -0.3337 -0.1745  0.1304
  100SAPC  H16X10048   3.278   2.415   4.310 -0.2447 -1.2189 -0.9104
  100SAPC  H16Y10049   3.246   2.517   4.166  2.3538  1.7522 -2.1174
  100SAPC  C31710050   3.365   2.617   4.311  0.2236 -0.6828 -0.9848
  100SAPC  H17X10051   3.413   2.674   4.228  0.1477 -1.7993 -1.8214
  100SAPC  H17Y10052   3.447   2.587   4.380 -1.4606 -0.3129  1.2809
  100SAPC  C31810053   3.261   2.689   4.394 -0.8837 -0.5304 -0.6080
  100SAPC  H18X10054   3.315   2.743   4.476  2.1585 -0.6647 -2.3525
  100SAPC  H18Y10055   3.188   2.617   4.438  0.8432 -1.4287  0.9601
  100SAPC  H18Z10056   3.205   2.762   4.333 -1.0259 -0.5662 -0.5190
  101OSM      N10057   6.559   0.945   6.964 -0.1206  0.5000 -0.1957
  101OSM    C1510058   6.533   0.972   7.106 -0.7175  0.0328 -0.3232
  101OSM   H15A10059   6.432   0.947   7.138 -0.3960  0.8847  1.4944
  101OSM   H15B10060   6.563   1.069   7.141 -2.0223 -0.5155  2.6237
  101OSM   H15C10061   6.592   0.911   7.172 -1.1439  1.0787  1.0701
  101OSM    C1410062   6.489   0.822   6.924 -0.0784 -0.0771 -0.0692
  101OSM   H14A10063   6.531   0.801   6.827 -1.3258 -0.4551 -0.5462
  101OSM   H14B10064   6.382   0.832   6.916 -0.3803 -1.2912  1.7862
  101OSM   H14C10065   6.516   0.735   6.982  3.0520  1.7998  1.5578
  101OSM    C1310066   6.513   1.057   6.885 -0.1992  0.5356  0.0179
  101OSM   H13A10067   6.407   1.068   6.904 -0.5099 -2.3836  0.4289
  101OSM   H13B10068   6.537   1.046   6.781  1.3861  2.8937  0.0469
  101OSM   H13C10069   6.566   1.148   6.910  0.5621  0.0499  0.2051
  101OSM    C1210070   6.708   0.929   6.938  0.0268 -0.3563  0.1620
  101OSM   H12A10071   6.746   0.844   6.994 -1.3440 -1.5298 -0.6032
  101OSM   H12B10072   6.765   1.013   6.974  1.5825 -0.5476 -1.6828
  101OSM    C1110073   6.741   0.915   6.782 -1.1373  0.1751 -0.0665
  101OSM   H11A10074   6.851   0.922   6.779 -1.2302  2.3625 -3.4187
  101OSM   H11B10075   6.713   1.001   6.718  0.1627  1.3739  0.9344
  101OSM      P10076   6.786   0.654   6.764 -0.3132 -0.0701 -0.2362
  101OSM    O1310077   6.852   0.676   6.892  0.0146 -0.9654  0.2493
  101OSM    O1410078   6.705   0.531   6.757  0.0318 -0.3441  0.4742
  101OSM    O1110079   6.896   0.654   6.645  0.5020 -0.2120 -0.6261
  101OSM    O1210080   6.703   0.785   6.733  0.0284  0.4286  0.5591
  101OSM    C1S10081   6.865   0.617   6.504  0.1353  0.4067  0.1173
  101OSM    H1S10082   6.786   0.539   6.503 -0.2568  0.7948  0.3607
  101OSM    H1T10083   6.952   0.566   6.458  0.9739  1.8841 -0.0020
  101OSM     NF10084   6.783   0.675   6.276  0.4995 -0.0077  0.7434
  101OSM    HNF10085   6.843   0.664   6.197 -0.0524  0.6700  0.2126
  101OSM    C2S10086   6.836   0.728   6.403  0.0434 -0.7880  0.8711
  101OSM    H2S10087   6.765   0.787   6.464  0.5591  0.7244  0.0692
  101OSM    C3S10088   6.964   0.812   6.379  0.4599 -0.4271 -0.0350
  101OSM    H3S10089   7.052   0.750   6.353  0.6021  0.0766 -0.7545
  101OSM     O310090   7.002   0.877   6.497  0.8233 -0.2304 -0.2620
  101OSM    HO310091   6.951   0.831   6.565  0.0245  1.0295  0.0390
  101OSM    C4S10092   6.947   0.903   6.271 -0.2161 -0.1898  0.8713
  101OSM    H4S10093   7.017   0.884   6.189 -1.3143 -2.1213  0.3295
  101OSM    C5S10094   6.867   1.012   6.261 -0.5419  0.1833 -0.2349
  101OSM    H5S10095   6.787   1.032   6.334 -0.7246 -1.5983  0.0918
  101OSM    C6S10096   6.860   1.100   6.141  0.4049 -0.0553  0.7163
  101OSM    H6S10097   6.954   1.159   6.130 -1.2007  2.3886 -0.9046
  101OSM    H6T10098   6.773   1.168   6.151  2.7162  3.1909  0.1676
  101OSM    C7S10099   6.827   1.018   6.009 -0.2378  0.2150  0.2756
  101OSM    H7S10100   6.724   0.976   6.009  0.2828 -1.1317  1.3556
  101OSM    H7T10101   6.903   0.937   6.008  3.4622  3.4023 -0.0555
  101OSM    C8S10102   6.838   1.110   5.888 -0.9779 -0.2570  0.6981
  101OSM    H8S10103   6.934   1.166   5.885 -1.6001  0.8156  0.3700
  101OSM    H8T10104   6.770   1.197   5.899 -0.5757  0.4449 -1.8208
  101OSM    C9S10105   6.812   1.041   5.754 -0.3532  0.0651 -0.0428
  101OSM    H9S10106   6.803   1.131   5.689 -1.1146 -0.1010 -0.1842
  101OSM    H9T10107   6.710   0.998   5.740  0.4918 -1.5643 -1.7252
  101OSM   C10S10108   6.923   0.936   5.722  0.1549  0.4654  0.3842
  101OSM   H10S10109   6.895   0.846   5.781  0.0126 -0.8413 -1.5585
  101OSM   H10T10110   7.027   0.967   5.746  1.7549 -2.1794 -2.3610
  101OSM   C11S10111   6.926   0.901   5.568 -0.1777 -0.1545 -0.6378
  101OSM   H11S10112   6.831   0.850   5.543  0.5227 -1.0943 -1.4491
  101OSM   H11T10113   6.998   0.818   5.545  0.8058  0.4163  0.2523
  101OSM   C12S10114   6.950   1.017   5.460 -0.3378 -0.3884 -0.2219
  101OSM   H12S10115   7.054   1.056   5.461 -0.3022 -0.4556 -0.8758
  101OSM   H12T10116   6.875   1.092   5.493 -1.3221 -1.4988  0.1363
  101OSM   C13S10117   6.914   0.966   5.321 -0.5200  0.8420  0.1510
  101OSM   H13S10118   6.805   0.957   5.305 -0.4029 -0.3572 -0.0140
  101OSM   H13T10119   6.963   0.867   5.314  0.0070  1.1423 -0.5123
  101OSM   C14S10120   6.971   1.048   5.201  0.0395  1.0772  0.4261
  101OSM   H14S10121   7.082   1.055   5.212 -0.0003  0.9300  0.9360
  101OSM   H14T10122   6.927   1.149   5.211 -1.0772  0.4636  2.0810
  101OSM   C15S10123   6.943   0.969   5.066 -0.0463  0.0282  0.6927
  101OSM   H15S10124   6.832   0.966   5.057 -0.1025  3.4925 -1.5394
  101OSM   H15T10125   7.000   0.874   5.066 -0.2674 -0.1039  0.4284
  101OSM   C16S10126   6.985   1.055   4.938 -0.5130  1.4883 -0.5085
  101OSM   H16S10127   7.092   1.082   4.948  0.1614 -0.8927 -0.7464
  101OSM   H16T10128   6.938   1.155   4.944  1.0661  2.2617 -0.4806
  101OSM   C17S10129   6.965   0.981   4.801 -0.8911  0.3034  0.2239
  101OSM   H17S10130   6.855   0.972   4.788 -0.6512 -1.3883 -0.9704
  101OSM   H17T10131   7.004   0.877   4.800 -3.0567 -0.5506 -0.6048
  101OSM   C18S10132   7.010   1.083   4.691 -0.0022 -0.4433  0.2810
  101OSM   H18S10133   7.121   1.081   4.695  0.1590 -2.4066 -2.1416
  101OSM   H18T10134   6.982   1.187   4.718  2.2676 -0.0461  1.2886
  101OSM   H18U10135   6.966   1.057   4.592  0.9938  1.4494 -0.7070
  101OSM    C1F10136   6.655   0.639   6.258  0.2957  0.0884 -0.3731
  101OSM     OF10137   6.571   0.646   6.343  0.1815  0.5517  0.1386
  101OSM    C2F10138   6.623   0.576   6.128  0.4307  0.0568  0.2484
  101OSM    H2F10139   6.532   0.513   6.132  0.4998 -0.3218 -2.2026
  101OSM    H2G10140   6.705   0.519   6.079  0.8014 -0.4241  1.3973
  101OSM    C3F10141   6.593   0.692   6.020 -0.5017 -0.4561  0.1406
  101OSM    H3F10142   6.680   0.761   6.010 -1.6842  1.5927  2.6202
  101OSM    H3G10143   6.505   0.751   6.054 -0.2597 -1.0080  1.8076
  101OSM    C4F10144   6.562   0.636   5.884 -0.0184 -0.5652 -0.3224
  101OSM    H4F10145   6.548   0.725   5.819  0.5817 -1.5800 -1.9129
  101OSM    H4G10146   6.474   0.568   5.879  0.0510 -0.6369 -0.5859
  101OSM    C5F10147   6.677   0.563   5.807  0.6907 -0.2423 -0.4903
  101OSM    H5F10148   6.693   0.460   5.845  2.3980  0.9163  2.2227
  101OSM    H5G10149   6.770   0.623   5.818  2.3682 -2.8610  0.5570
  101OSM    C6F10150   6.647   0.541   5.658 -0.2956 -0.0668  0.2418
  101OSM    H6F10151   6.746   0.543   5.607  0.7136  2.6212  2.1012
  101OSM    H6G10152   6.586   0.625   5.619 -1.7255  0.9476  4.2351
  101OSM    C7F10153   6.562   0.418   5.617 -0.1057 -0.5598 -0.8048
  101OSM    H7F10154   6.460   0.434   5.660  0.3036  2.3923 -0.7198
  101OSM    H7G10155   6.601   0.334   5.678 -0.6131  0.7334  1.4301
  101OSM    C8F10156   6.570   0.370   5.472 -0.3665  0.2231  0.0365
  101OSM    H8F10157   6.493   0.293   5.451  0.9831 -1.4600  0.8748
  101OSM    H8G10158   6.663   0.309   5.460 -1.1008 -0.6973 -1.1592
  101OSM    C9F10159   6.566   0.488   5.375  0.2257 -0.2544  0.1670
  101OSM    H9F10160   6.476   0.550   5.385 -0.8185 -1.6623 -0.1141
  101OSM   C10F10161   6.640   0.520   5.266  0.0827 -0.3228 -0.0425
  101OSM   H10F10162   6.626   0.614   5.211  1.5891 -0.3027 -0.4513
  101OSM   C11F10163   6.753   0.435   5.208  0.0558  0.0397  0.4560
  101OSM   H11F10164   6.768   0.338   5.259 -2.1986 -0.9155 -0.5313
  101OSM   H11G10165   6.848   0.492   5.211  0.4551 -0.6308  0.7933
  101OSM   C12F10166   6.727   0.386   5.063  0.1168 -0.5610 -0.4304
  101OSM   H12F10167   6.639   0.320   5.054  0.1588 -0.6206 -0.4038
  101OSM   H12G10168   6.819   0.328   5.040 -0.1814 -0.3941 -2.1360
  101OSM   C13F10169   6.722   0.499   4.961 -0.2223  0.8259 -0.1685
  101OSM   H13F10170   6.805   0.572   4.980  2.1834 -1.9811  0.9107
  101OSM   H13G10171   6.628   0.556   4.975 -0.4251 -0.2022  4.0513
  101OSM   C14F10172   6.715   0.444   4.823 -0.6235 -0.1071  0.3566
  101OSM   H14F10173   6.620   0.390   4.800 -0.6831  1.1337 -2.9296
  101OSM   H14G10174   6.800   0.382   4.789  0.2121 -0.1347  2.4035
  101OSM   C15F10175   6.698   0.556   4.716 -0.3948 -0.3961 -0.8215
  101OSM   H15F10176   6.783   0.628   4.720  1.4624 -2.5404  2.3682
  101OSM   H15G10177   6.603   0.613   4.727  0.4686  0.8449  0.6609
  101OSM   C16F10178   6.697   0.505   4.573  0.0081 -0.7935 -0.2421
  101OSM   H16F10179   6.618   0.427   4.576 -1.0053  0.2057 -0.6312
  101OSM   H16G10180   6.795   0.460   4.544  0.2832 -1.3691  1.4357
  101OSM   C17F10181   6.657   0.611   4.465  0.0248  0.1438  0.3803
  101OSM   H17F10182   6.739   0.686   4.464 -1.4723  1.8447  0.2830
  101OSM   H17G10183   6.565   0.657   4.505 -0.6342  1.2978 -2.2304
  101OSM   C18F10184   6.634   0.560   4.318  0.6143 -0.1672 -0.8318
  101OSM   H18F10185   6.592   0.457   4.322  1.2762 -0.4720  3.7419
  101OSM   H18G10186   6.733   0.559   4.267  0.4794 -0.8368 -1.0880
  101OSM   H18H10187   6.558   0.625   4.269 -0.0366 -2.7205 -3.5022
  102OSM      N10188   5.870   1.054   7.081 -0.6160 -0.3834 -0.4437
  102OSM    C1510189   5.784   0.950   7.008 -0.3694  0.6705 -0.2938
  102OSM   H15A10190   5.831   0.853   7.010 -4.5327 -1.5440 -0.1802
  102OSM   H15B10191   5.769   0.984   6.907 -2.7416 -3.1161 -1.4039
  102OSM   H15C10192   5.688   0.938   7.055  0.3156 -0.2983  0.9231
  102OSM    C1410193   5.805   1.191   7.056 -0.0699  0.0909 -0.5939
  102OSM   H14A10194   5.707   1.192   7.101  0.9490  3.8638  2.0622
  102OSM   H14B10195   5.787   1.203   6.950 -1.0366 -1.4908 -0.6406
  102OSM   H14C10196   5.864   1.270   7.101  2.8087 -3.4295  2.4265
  102OSM    C1310197   5.881   1.035   7.229  0.6669  0.0304  0.4608
  102OSM   H13A10198   5.788   1.029   7.284  1.0297  0.5202  1.1581
  102OSM   H13B10199   5.937   1.112   7.281  2.2632 -1.9166  1.7843
  102OSM   H13C10200   5.937   0.945   7.247  0.1294 -0.8809 -2.0357
  102OSM    C1210201   6.010   1.060   7.013 -0.8552 -0.7707 -0.8447
  102OSM   H12A10202   6.067   1.144   7.049  0.7520 -1.7906 -0.9272
  102OSM   H12B10203   5.992   1.087   6.910  0.5518 -1.0026 -1.1747
  102OSM    C1110204   6.107   0.935   7.019 -0.1428  0.2293 -0.3679
  102OSM   H11A10205   6.104   0.917   7.129 -2.6597 -1.1493 -0.5668
  102OSM   H11B10206   6.208   0.967   6.986 -0.7025 -0.1574 -2.6509
  102OSM      P10207   6.062   0.806   6.799  0.3146 -0.5460  0.4473
  102OSM    O1310208   5.972   0.699   6.760  0.3654 -0.0407  0.1703
  102OSM    O1410209   6.039   0.935   6.729  0.3417 -0.5549 -0.4197
  102OSM    O1110210   6.213   0.767   6.780 -0.0429 -0.1272 -0.0207
  102OSM    O1210211   6.056   0.825   6.953  0.0186 -0.1236 -0.1717
  102OSM    C1S10212   6.250   0.681   6.664 -0.0395  0.5095  0.1256
  102OSM    H1S10213   6.194   0.585   6.668 -0.2972  0.6548  0.0203
  102OSM    H1T10214   6.354   0.643   6.676 -0.7491 -1.0361  1.9688
  102OSM     NF10215   6.284   0.658   6.419  0.4458 -1.2221  0.0893
  102OSM    HNF10216   6.375   0.652   6.378 -0.5227 -0.5323 -2.2962
  102OSM    C2S10217   6.248   0.754   6.525  0.5181  0.2177 -0.0225
  102OSM    H2S10218   6.142   0.785   6.512 -0.1838 -0.2412  3.5318
  102OSM    C3S10219   6.347   0.873   6.533  0.7345 -0.0627 -0.0327
  102OSM    H3S10220   6.440   0.819   6.562 -0.6857 -1.7621  1.6008
  102OSM     O310221   6.320   0.973   6.632 -0.0344  0.4764 -0.1836
  102OSM    HO310222   6.243   0.932   6.671  0.6880 -0.3250  0.4232
  102OSM    C4S10223   6.351   0.944   6.398 -0.7238 -1.0166  0.7202
  102OSM    H4S10224   6.258   0.964   6.342  1.4775  1.2686 -2.4729
  102OSM    C5S10225   6.462   1.002   6.347 -0.3997  0.3150 -0.5629
  102OSM    H5S10226   6.556   1.012   6.402  0.5757  1.4099 -2.3310
  102OSM    C6S10227   6.465   1.080   6.211 -0.0591 -0.6606 -0.7513
  102OSM    H6S10228   6.536   1.034   6.139 -0.1630 -1.6831 -0.2195
  102OSM    H6T10229   6.494   1.187   6.222  2.0701 -1.2033 -0.6581
  102OSM    C7S10230   6.331   1.088   6.128  0.2677  0.1689  0.2073
  102OSM    H7S10231   6.272   1.161   6.188 -2.3740 -2.6510  1.3774
  102OSM    H7T10232   6.269   0.997   6.142 -0.0750  0.3344 -0.2180
  102OSM    C8S10233   6.334   1.116   5.981  0.5186  0.4157 -0.2789
  102OSM    H8S10234   6.385   1.213   5.960  0.5148  0.9838  2.0832
  102OSM    H8T10235   6.226   1.123   5.957  0.7643  0.7296 -1.3350
  102OSM    C9S10236   6.416   1.022   5.894  0.1100 -0.0694  1.1298
  102OSM    H9S10237   6.375   0.920   5.910 -2.4777  0.7516  0.2707
  102OSM    H9T10238   6.520   1.021   5.931 -0.1435 -3.0015  1.9735
  102OSM   C10S10239   6.395   1.068   5.746  0.3496  0.3443  1.1191
  102OSM   H10S10240   6.461   1.156   5.736  1.2869 -0.4407  0.0588
  102OSM   H10T10241   6.292   1.109   5.737  0.8563  1.9465  2.2745
  102OSM   C11S10242   6.439   0.957   5.650 -0.1134 -0.2308 -0.1917
  102OSM   H11S10243   6.396   0.861   5.686 -2.9617  0.6161 -1.1081
  102OSM   H11T10244   6.549   0.953   5.637 -0.0569  1.6337 -0.4683
  102OSM   C12S10245   6.393   0.998   5.508  0.0069 -0.0739  0.3104
  102OSM   H12S10246   6.419   1.103   5.485 -0.6308  0.3095  1.2637
  102OSM   H12T10247   6.282   0.993   5.503 -0.0253  1.2422 -0.7452
  102OSM   C13S10248   6.455   0.898   5.404 -0.2622  0.1205  0.2092
  102OSM   H13S10249   6.413   0.796   5.412 -2.2590  0.9910  1.8068
  102OSM   H13T10250   6.564   0.896   5.424 -0.2273 -2.4192  0.0670
  102OSM   C14S10251   6.449   0.963   5.264  1.5491  0.0509  0.5966
  102OSM   H14S10252   6.483   1.069   5.259  1.0461  0.2485  1.2264
  102OSM   H14T10253   6.344   0.979   5.233  0.0417 -2.3599  3.9299
  102OSM   C15S10254   6.517   0.881   5.157  0.8393 -0.0247 -0.0732
  102OSM   H15S10255   6.471   0.782   5.179 -2.8713  1.7566  0.9190
  102OSM   H15T10256   6.626   0.880   5.177  1.3950  4.0881 -1.8903
  102OSM   C16S10257   6.490   0.942   5.011  0.1664  0.2587  0.6413
  102OSM   H16S10258   6.541   1.040   5.018  2.2637 -0.8308  1.3756
  102OSM   H16T10259   6.383   0.966   4.993  0.3291  0.5650  0.0533
  102OSM   C17S10260   6.543   0.852   4.906 -0.2121  0.0810  0.5831
  102OSM   H17S10261   6.477   0.763   4.897  1.1691 -0.8027 -1.5646
  102OSM   H17T10262   6.648   0.820   4.920 -0.7413 -1.1767  1.8361
  102OSM   C18S10263   6.536   0.929   4.775  0.3891 -0.4920  0.1413
  102OSM   H18S10264   6.436   0.971   4.756  0.5566 -0.2971 -0.3353
  102OSM   H18T10265   6.550   0.862   4.687 -0.3688  0.9142 -1.0873
  102OSM   H18U10266   6.603   1.017   4.773 -0.0339 -0.1726 -0.6552
  102OSM    C1F10267   6.199   0.567   6.381  0.8800  0.1013 -0.0430
  102OSM     OF10268   6.093   0.556   6.440 -0.4778 -0.0025  0.2758
  102OSM    C2F10269   6.233   0.492   6.260  0.1094 -0.1717  0.4546
  102OSM    H2F10270   6.343   0.486   6.246  0.1524  1.1838 -0.0612
  102OSM    H2G10271   6.199   0.550   6.171  1.1889 -1.4503 -0.8389
  102OSM    C3F10272   6.174   0.347   6.250 -0.2496  0.1614 -1.0104
  102OSM    H3F10273   6.065   0.332   6.259 -0.2199  0.5863  0.2213
  102OSM    H3G10274   6.214   0.297   6.341 -1.1809 -0.5800 -0.9978
  102OSM    C4F10275   6.228   0.273   6.129 -0.6248  0.5787 -0.9276
  102OSM    H4F10276   6.222   0.162   6.135  0.4666  0.5388 -0.3906
  102OSM    H4G10277   6.337   0.295   6.132 -0.6068  0.4045  0.5036
  102OSM    C5F10278   6.174   0.323   5.994 -0.3182  0.0518  0.0022
  102OSM    H5F10279   6.191   0.432   5.983 -0.6542 -0.1482 -3.9135
  102OSM    H5G10280   6.065   0.302   6.000 -0.6840  1.6023 -0.8185
  102OSM    C6F10281   6.234   0.262   5.863 -0.0302 -0.1113  0.5406
  102OSM    H6F10282   6.256   0.154   5.874 -0.7469 -0.4566 -1.0313
  102OSM    H6G10283   6.328   0.315   5.836  1.6807 -0.9956  4.2312
  102OSM    C7F10284   6.130   0.275   5.747 -0.6672 -0.0108 -0.1560
  102OSM    H7F10285   6.104   0.383   5.743  3.6788  1.2017 -0.4936
  102OSM    H7G10286   6.039   0.219   5.777 -0.3785 -0.2938  0.2072
  102OSM    C8F10287   6.187   0.233   5.613 -0.0628 -0.2706 -0.3878
  102OSM    H8F10288   6.244   0.139   5.631 -0.8680 -0.4944  1.1094
  102OSM    H8G10289   6.271   0.303   5.590  0.6934 -0.6040  1.2108
  102OSM    C9F10290   6.092   0.203   5.495 -0.5946 -0.5330  0.1452
  102OSM    H9F10291   5.996   0.153   5.512 -1.4859  0.1834 -2.4609
  102OSM   C10F10292   6.114   0.250   5.368  0.2545 -0.1704 -0.3841
  102OSM   H10F10293   6.047   0.213   5.289 -2.5798  2.5927  0.5178
  102OSM   C11F10294   6.225   0.342   5.317  0.7611  0.1964  0.2346
  102OSM   H11F10295   6.326   0.308   5.350  1.5782  1.4832 -0.8307
  102OSM   H11G10296   6.207   0.443   5.361  0.6445 -0.5099  1.9121
  102OSM   C12F10297   6.233   0.337   5.169 -0.6572 -0.2395  0.6925
  102OSM   H12F10298   6.131   0.354   5.128 -0.2392 -0.9356 -0.7197
  102OSM   H12G10299   6.258   0.235   5.132 -2.0124 -0.6901  0.9614
  102OSM   C13F10300   6.329   0.443   5.105 -0.0303  0.1320  0.3866
  102OSM   H13F10301   6.433   0.405   5.104 -0.2164 -0.5107 -2.1846
  102OSM   H13G10302   6.316   0.536   5.164  1.0342  1.0900 -0.8364
  102OSM   C14F10303   6.298   0.486   4.958 -0.0935 -0.4165 -0.2050
  102OSM   H14F10304   6.372   0.565   4.933  0.8537 -1.5243 -0.9842
  102OSM   H14G10305   6.197   0.530   4.943  0.5568  1.5077  0.6516
  102OSM   C15F10306   6.309   0.379   4.857  0.4778  0.3208  0.2356
  102OSM   H15F10307   6.235   0.297   4.872  0.4287 -0.8173 -4.4287
  102OSM   H15G10308   6.407   0.327   4.861 -0.6794 -2.6008 -3.2239
  102OSM   C16F10309   6.286   0.423   4.711  0.1428  0.3788  0.2351
  102OSM   H16F10310   6.349   0.503   4.669  2.1808 -1.3908 -0.2606
  102OSM   H16G10311   6.178   0.449   4.710  0.6717  2.7821 -0.3228
  102OSM   C17F10312   6.287   0.304   4.612  0.1256 -0.5873  0.4402
  102OSM   H17F10313   6.202   0.235   4.633  0.7618 -2.4310 -2.4915
  102OSM   H17G10314   6.379   0.248   4.639 -0.3893 -0.3995  2.7991
  102OSM   C18F10315   6.285   0.345   4.458 -0.9586  0.3509 -0.3812
  102OSM   H18F10316   6.272   0.255   4.395  0.7969  0.4852 -0.9876
  102OSM   H18G10317   6.374   0.401   4.420 -0.4051  0.7806  1.4494
  102OSM   H18H10318   6.198   0.412   4.442  0.0531  1.2525 -2.5788
  103OSM      N10319   6.453   2.767   6.682  0.6427  0.1209  0.5584
  103OSM    C1510320   6.577   2.813   6.748 -0.0609 -0.0742 -0.1455
  103OSM   H15A10321   6.590   2.917   6.722  2.3486  0.3358  2.2948
  103OSM   H15B10322   6.662   2.750   6.725  1.4961  0.5250  3.3105
  103OSM   H15C10323   6.553   2.816   6.853 -1.3881 -1.0537 -0.3900
  103OSM    C1410324   6.364   2.736   6.801  0.1064  0.0969  0.5699
  103OSM   H14A10325   6.374   2.815   6.873  0.3953  0.1223  0.5034
  103OSM   H14B10326   6.396   2.643   6.846 -0.8580 -0.2158  0.6201
  103OSM   H14C10327   6.259   2.731   6.776  0.2616  0.5807 -0.2416
  103OSM    C1310328   6.376   2.869   6.605  0.3409 -0.0529  0.3790
  103OSM   H13A10329   6.278   2.827   6.583  0.7891 -0.6196 -0.6086
  103OSM   H13B10330   6.428   2.894   6.514 -0.0339 -0.0158  0.1707
  103OSM   H13C10331   6.373   2.958   6.666  2.0755 -0.7735  1.6283
  103OSM    C1210332   6.477   2.642   6.605  0.7263  0.1672 -0.3119
  103OSM   H12A10333   6.517   2.665   6.508 -3.4609 -0.4657 -2.4194
  103OSM   H12B10334   6.379   2.601   6.584  0.0067  1.3641  0.5473
  103OSM    C1110335   6.558   2.530   6.672 -0.5830  0.3450  0.1487
  103OSM   H11A10336   6.554   2.446   6.600  2.2259 -1.6817  2.1386
  103OSM   H11B10337   6.507   2.502   6.767 -2.5445  2.7063 -0.0896
  103OSM      P10338   6.785   2.485   6.778  0.1216  0.2189 -0.0957
  103OSM    O1310339   6.808   2.565   6.902  0.3327  0.0376 -0.0379
  103OSM    O1410340   6.721   2.351   6.794 -0.1898  0.9023 -0.1285
  103OSM    O1110341   6.928   2.464   6.709  0.0550 -0.2959 -0.0556
  103OSM    O1210342   6.693   2.573   6.678 -0.0105  0.1162  0.7767
  103OSM    C1S10343   6.939   2.416   6.580 -0.9061  0.9120 -0.0362
  103OSM    H1S10344   6.861   2.342   6.555 -1.2163  0.8642  1.0160
  103OSM    H1T10345   7.038   2.367   6.572 -1.2972 -0.0036  0.5855
  103OSM     NF10346   6.942   2.460   6.344  0.3197  0.3171  0.6675
  103OSM    HNF10347   7.029   2.454   6.295 -0.4394 -0.7072 -0.6172
  103OSM    C2S10348   6.946   2.527   6.472 -0.5230  0.0808 -0.7015
  103OSM    H2S10349   6.856   2.588   6.493  0.4262  0.4791  2.7008
  103OSM    C3S10350   7.070   2.611   6.493  0.1099 -0.0917 -0.5155
  103OSM    H3S10351   7.162   2.550   6.486  1.8039  2.1069  1.3565
  103OSM     O310352   7.076   2.674   6.622  0.0937  0.6758 -0.1831
  103OSM    HO310353   7.004   2.627   6.665  0.4262  0.7113  0.4191
  103OSM    C4S10354   7.070   2.721   6.393  0.4081 -0.1040  0.4094
  103OSM    H4S10355   6.973   2.769   6.371  0.5847 -0.6100 -1.7550
  103OSM    C5S10356   7.175   2.749   6.315 -1.1403 -0.7119  0.0645
  103OSM    H5S10357   7.265   2.686   6.309 -0.3772  0.3206  0.1921
  103OSM    C6S10358   7.172   2.858   6.209 -0.5123 -0.2886 -0.0075
  103OSM    H6S10359   7.245   2.941   6.220 -0.6379 -0.2405  0.4743
  103OSM    H6T10360   7.068   2.898   6.211 -0.7936 -1.0006  0.2850
  103OSM    C7S10361   7.188   2.781   6.084  0.7805  0.9162  0.8929
  103OSM    H7S10362   7.104   2.709   6.086 -0.1587  2.0055  2.1993
  103OSM    H7T10363   7.283   2.723   6.074  0.0149 -0.3243  0.6935
  103OSM    C8S10364   7.189   2.864   5.951 -0.5086 -0.4767 -0.4493
  103OSM    H8S10365   7.262   2.943   5.979  1.0051 -2.7226  2.4856
  103OSM    H8T10366   7.090   2.912   5.932  0.0028  1.5737  1.5735
  103OSM    C9S10367   7.226   2.789   5.825 -0.6025  0.0432  0.2798
  103OSM    H9S10368   7.145   2.722   5.791  0.3925 -0.4485 -1.2198
  103OSM    H9T10369   7.312   2.720   5.839 -1.8543 -2.0834 -1.8509
  103OSM   C10S10370   7.245   2.876   5.705 -0.8303  0.1903 -0.6440
  103OSM   H10S10371   7.338   2.936   5.718  0.4692 -1.7521 -0.5025
  103OSM   H10T10372   7.156   2.940   5.690 -1.0761 -0.4325 -1.9950
  103OSM   C11S10373   7.280   2.788   5.581  0.6623  0.0901  0.2843
  103OSM   H11S10374   7.181   2.754   5.545  1.3359 -1.1773 -0.4280
  103OSM   H11T10375   7.339   2.702   5.618  1.7014  0.5494 -0.2647
  103OSM   C12S10376   7.350   2.864   5.474 -0.6870  0.1112 -0.0054
  103OSM   H12S10377   7.456   2.886   5.500 -1.0280  3.3630 -0.8220
  103OSM   H12T10378   7.294   2.960   5.464  0.0282  0.4627 -0.8096
  103OSM   C13S10379   7.341   2.778   5.342 -0.0032  0.0548  0.1405
  103OSM   H13S10380   7.237   2.745   5.321  0.0670 -0.1660  0.1276
  103OSM   H13T10381   7.408   2.691   5.359  0.4081  0.1637 -0.8590
  103OSM   C14S10382   7.374   2.860   5.220 -0.0411  0.3325  0.1710
  103OSM   H14S10383   7.479   2.895   5.227  0.8121 -1.5165 -1.9749
  103OSM   H14T10384   7.303   2.944   5.237 -1.6203 -1.1492  1.3366
  103OSM   C15S10385   7.351   2.790   5.089  0.3933 -0.4702 -0.1984
  103OSM   H15S10386   7.241   2.785   5.071  0.3516  1.5476 -0.8034
  103OSM   H15T10387   7.395   2.688   5.095  0.2424 -0.4415  3.3806
  103OSM   C16S10388   7.403   2.875   4.975 -0.1383  0.7795  0.0800
  103OSM   H16S10389   7.499   2.927   4.996  0.4604  0.9533 -2.7157
  103OSM   H16T10390   7.331   2.960   4.966 -0.0418  0.9295  0.6810
  103OSM   C17S10391   7.419   2.789   4.854  0.5109  0.2332  0.7391
  103OSM   H17S10392   7.322   2.735   4.860  0.4744  0.4507  3.3064
  103OSM   H17T10393   7.496   2.708   4.860 -0.6279 -1.0635 -1.0588
  103OSM   C18S10394   7.440   2.874   4.736  0.3113 -0.4306  0.6020
  103OSM   H18S10395   7.364   2.955   4.742  1.1832  0.3170  2.1148
  103OSM   H18T10396   7.419   2.824   4.639  1.3136  0.0542  0.1255
  103OSM   H18U10397   7.542   2.917   4.744  1.0906 -2.4192  2.5421
  103OSM    C1F10398   6.825   2.416   6.285 -0.8832 -0.5588 -0.7750
  103OSM     OF10399   6.725   2.410   6.356  0.3461  0.5785 -0.3157
  103OSM    C2F10400   6.833   2.383   6.140 -0.0634 -0.2014  0.3105
  103OSM    H2F10401   6.909   2.303   6.126  1.3079  1.2742 -1.2716
  103OSM    H2G10402   6.875   2.477   6.097  0.3151 -0.5575 -0.1079
  103OSM    C3F10403   6.696   2.349   6.071 -0.0600 -0.0163 -0.5502
  103OSM    H3F10404   6.631   2.437   6.089 -0.8922 -0.8315  0.5556
  103OSM    H3G10405   6.662   2.253   6.115 -0.5696  0.9239  1.1674
  103OSM    C4F10406   6.707   2.325   5.916 -0.6423  0.2208 -0.1089
  103OSM    H4F10407   6.757   2.412   5.869  1.3220 -1.6274 -1.6226
  103OSM    H4G10408   6.605   2.319   5.874  0.1187  0.6045 -2.1248
  103OSM    C5F10409   6.787   2.201   5.880  0.2877 -0.0822 -0.2451
  103OSM    H5F10410   6.736   2.111   5.920  0.5362 -1.1149 -2.1291
  103OSM    H5G10411   6.887   2.208   5.927 -0.1510  1.9925  0.4940
  103OSM    C6F10412   6.803   2.184   5.727  0.6101 -0.4981  0.0074
  103OSM    H6F10413   6.843   2.280   5.688 -1.0369  0.6670  1.0705
  103OSM    H6G10414   6.704   2.173   5.678 -0.1384  2.9363  0.5151
  103OSM    C7F10415   6.900   2.069   5.675 -0.3339  0.0710  1.0659
  103OSM    H7F10416   6.982   2.072   5.749  0.8186  1.0058 -0.1984
  103OSM    H7G10417   6.930   2.101   5.573  0.6017 -0.2384  1.2365
  103OSM    C8F10418   6.827   1.928   5.681 -0.3882  0.8136  0.4346
  103OSM    H8F10419   6.732   1.946   5.627  0.3458  0.4345 -1.0409
  103OSM    H8G10420   6.804   1.914   5.789 -1.2538  0.8149  0.2529
  103OSM    C9F10421   6.913   1.822   5.615  0.2340 -0.1221  1.1348
  103OSM    H9F10422   7.004   1.795   5.670  0.7287  2.6393  1.8335
  103OSM   C10F10423   6.902   1.777   5.490 -0.1099 -0.2441 -0.3303
  103OSM   H10F10424   6.968   1.695   5.460  0.6320 -0.1077  0.8498
  103OSM   C11F10425   6.789   1.811   5.395 -0.3810  0.5128  0.6506
  103OSM   H11F10426   6.768   1.919   5.384  0.6142  0.7511  1.0275
  103OSM   H11G10427   6.698   1.767   5.443 -0.2867 -1.6578 -0.9811
  103OSM   C12F10428   6.791   1.758   5.244 -0.9449  0.1850 -0.4231
  103OSM   H12F10429   6.699   1.781   5.185 -2.3503 -1.4062  1.0441
  103OSM   H12G10430   6.812   1.649   5.235  0.0829  0.4209 -1.1426
  103OSM   C13F10431   6.915   1.819   5.179  0.9108 -0.1239 -0.0606
  103OSM   H13F10432   7.004   1.795   5.241  1.3368 -2.5484 -1.4912
  103OSM   H13G10433   6.886   1.926   5.175  1.5089  0.0495  0.2119
  103OSM   C14F10434   6.958   1.783   5.036 -0.3436 -0.2910 -0.2059
  103OSM   H14F10435   7.034   1.704   5.021 -0.5015 -0.3001 -0.9881
  103OSM   H14G10436   7.008   1.877   5.005  0.3293 -1.3660 -2.5111
  103OSM   C15F10437   6.849   1.747   4.931 -0.3206  0.5842  0.8767
  103OSM   H15F10438   6.764   1.819   4.932 -2.0067 -1.2334 -0.9494
  103OSM   H15G10439   6.807   1.644   4.940 -0.5586  0.3225 -2.0331
  103OSM   C16F10440   6.906   1.735   4.788  0.5698 -0.0396  0.6257
  103OSM   H16F10441   6.981   1.654   4.781  0.2871 -0.1918 -3.5941
  103OSM   H16G10442   6.950   1.829   4.746 -0.8427  0.0880 -0.6962
  103OSM   C17F10443   6.796   1.691   4.690  0.2033 -0.4355 -0.6542
  103OSM   H17F10444   6.729   1.779   4.684  1.1312  0.2597 -1.0161
  103OSM   H17G10445   6.761   1.597   4.738  0.7665 -1.1846 -1.6895
  103OSM   C18F10446   6.833   1.668   4.544  0.4390  0.7357  0.2524
  103OSM   H18F10447   6.892   1.577   4.521 -0.3691  0.4731 -0.8516
  103OSM   H18G10448   6.895   1.745   4.495  0.3672  0.3295 -0.4991
  103OSM   H18H10449   6.741   1.659   4.483  1.8489 -2.1521 -1.6883
  104OSM      N10450   1.789   1.261   6.687  0.1229  0.5829 -0.1862
  104OSM    C1510451   1.808   1.182   6.814 -0.8253  0.2771  0.2467
  104OSM   H15A10452   1.742   1.097   6.819  0.1005 -0.3707  1.7793
  104OSM   H15B10453   1.795   1.239   6.905 -1.4005  1.3585 -0.4838
  104OSM   H15C10454   1.907   1.139   6.816 -0.7700  0.4314  1.3893
  104OSM    C1410455   1.817   1.171   6.571  0.2619  0.1580 -0.1774
  104OSM   H14A10456   1.833   1.234   6.485  0.8546  0.5706  0.2249
  104OSM   H14B10457   1.747   1.091   6.553  0.6334  0.0551 -1.2224
  104OSM   H14C10458   1.916   1.128   6.579  0.4487  0.8680  2.1713
  104OSM    C1310459   1.657   1.310   6.678 -0.2678  0.1768  0.0370
  104OSM   H13A10460   1.586   1.230   6.664  0.1274 -0.1026 -0.3719
  104OSM   H13B10461   1.638   1.379   6.597 -1.1544  1.5128  1.3284
  104OSM   H13C10462   1.636   1.370   6.766  0.7590  2.4734 -1.2150
  104OSM    C1210463   1.894   1.374   6.696  0.3575  0.0021  0.0283
  104OSM   H12A10464   1.882   1.433   6.786  1.4982  0.1939  0.0617
  104OSM   H12B10465   1.871   1.430   6.607 -0.9590  0.0932  0.4022
  104OSM    C1110466   2.048   1.337   6.700  0.1369  0.2941 -0.1745
  104OSM   H11A10467   2.057   1.270   6.788  0.8439  0.6636  0.0398
  104OSM   H11B10468   2.099   1.434   6.716 -2.0407  1.0025  4.2306
  104OSM      P10469   2.125   1.364   6.454  0.3508  0.3034  0.1140
  104OSM    O1310470   2.039   1.320   6.341  0.2403 -0.2938 -0.5347
  104OSM    O1410471   2.107   1.512   6.489 -0.1578 -0.1336  0.3560
  104OSM    O1110472   2.277   1.322   6.423 -0.0217  0.1327 -0.3423
  104OSM    O1210473   2.093   1.274   6.577  0.4088  0.7303 -0.8116
  104OSM    C1S10474   2.321   1.207   6.357 -0.2165 -0.1461 -0.3274
  104OSM    H1S10475   2.277   1.113   6.396  0.5913 -1.3139 -2.0799
  104OSM    H1T10476   2.430   1.193   6.375 -0.4971 -2.7856 -0.3043
  104OSM     NF10477   2.365   1.085   6.146 -0.9601  0.1813 -0.1393
  104OSM    HNF10478   2.460   1.096   6.120 -0.5685  0.1737  1.2418
  104OSM    C2S10479   2.313   1.212   6.200 -0.3363  0.1482 -0.4265
  104OSM    H2S10480   2.204   1.222   6.184 -1.4862 -0.6616  4.9485
  104OSM    C3S10481   2.392   1.339   6.145  0.4846  0.1378  0.6104
  104OSM    H3S10482   2.500   1.333   6.168  0.7845  1.0028 -0.4515
  104OSM     O310483   2.350   1.462   6.201 -0.2510  0.3532 -0.5843
  104OSM    HO310484   2.301   1.435   6.279 -0.8762  2.2463 -0.2651
  104OSM    C4S10485   2.380   1.342   5.995  0.3523  0.4706  0.1471
  104OSM    H4S10486   2.276   1.340   5.960  0.1650 -0.0588  0.7055
  104OSM    C5S10487   2.479   1.377   5.904  0.0877 -1.2309  0.2066
  104OSM    H5S10488   2.581   1.397   5.939  0.2614  1.3845 -1.5594
  104OSM    C6S10489   2.435   1.409   5.763 -0.1829 -0.8409  0.5868
  104OSM    H6S10490   2.505   1.491   5.735 -1.0879 -0.2879 -0.1228
  104OSM    H6T10491   2.332   1.443   5.739 -0.3394 -0.5615  1.6216
  104OSM    C7S10492   2.468   1.290   5.663 -0.0046 -0.5072  0.0359
  104OSM    H7S10493   2.382   1.221   5.653 -0.2658 -0.5800  2.2986
  104OSM    H7T10494   2.552   1.223   5.689 -0.0163 -1.3316 -1.8826
  104OSM    C8S10495   2.497   1.347   5.526  0.2999 -0.4728  0.1291
  104OSM    H8S10496   2.525   1.262   5.459 -0.6426  1.0884 -2.3739
  104OSM    H8T10497   2.581   1.420   5.530  0.9050 -1.1936  0.9368
  104OSM    C9S10498   2.373   1.412   5.456 -0.5285  0.6834 -0.0497
  104OSM    H9S10499   2.347   1.518   5.475 -1.9269  0.5534 -1.0983
  104OSM    H9T10500   2.288   1.350   5.490 -0.7449  0.7620 -0.4520
  104OSM   C10S10501   2.383   1.405   5.302  0.2854  0.4091 -0.2018
  104OSM   H10S10502   2.291   1.461   5.273 -1.5712 -1.7343  1.1229
  104OSM   H10T10503   2.379   1.301   5.263 -2.8194  0.5308 -0.5181
  104OSM   C11S10504   2.515   1.462   5.244 -0.1450 -0.0792 -0.0891
  104OSM   H11S10505   2.597   1.394   5.277 -0.2348 -1.2547 -2.1435
  104OSM   H11T10506   2.535   1.555   5.302 -1.0261 -0.7713  1.3997
  104OSM   C12S10507   2.535   1.479   5.095  0.2723  0.2627 -0.1401
  104OSM   H12S10508   2.637   1.518   5.077  0.5670  0.1705  1.2458
  104OSM   H12T10509   2.461   1.553   5.058 -0.4103  0.3059  1.2677
  104OSM   C13S10510   2.523   1.342   5.017  0.2608  0.0863  0.2858
  104OSM   H13S10511   2.429   1.285   5.031  0.1709 -0.7169 -2.9228
  104OSM   H13T10512   2.612   1.283   5.048  0.2804 -1.7022 -2.8016
  104OSM   C14S10513   2.525   1.355   4.862  0.0503 -1.1414 -0.3588
  104OSM   H14S10514   2.614   1.415   4.835 -0.4706 -1.2201 -2.4233
  104OSM   H14T10515   2.442   1.421   4.829  3.6265  3.6005 -0.9073
  104OSM   C15S10516   2.537   1.219   4.796  0.1093 -0.0501 -0.3403
  104OSM   H15S10517   2.470   1.148   4.850  0.4999 -2.2819 -2.5839
  104OSM   H15T10518   2.640   1.181   4.814  0.7278  1.0233 -1.4931
  104OSM   C16S10519   2.485   1.198   4.653  0.4451 -0.5882  0.6112
  104OSM   H16S10520   2.378   1.216   4.629  1.1524  1.4788 -1.3637
  104OSM   H16T10521   2.507   1.095   4.616  2.5270 -0.1000  0.3759
  104OSM   C17S10522   2.564   1.299   4.556 -0.1317 -0.0306  0.5905
  104OSM   H17S10523   2.670   1.288   4.590  0.1601  0.7181 -0.0542
  104OSM   H17T10524   2.523   1.402   4.567  0.4608  0.0965  1.8186
  104OSM   C18S10525   2.567   1.238   4.419  0.6200  0.2263  0.6586
  104OSM   H18S10526   2.463   1.242   4.382  0.4084  0.7533  1.2855
  104OSM   H18T10527   2.591   1.130   4.417 -0.1141  0.0663 -0.5679
  104OSM   H18U10528   2.624   1.279   4.332  0.2749 -0.8303 -0.0853
  104OSM    C1F10529   2.293   0.978   6.144  0.6236 -0.0739 -0.1300
  104OSM     OF10530   2.177   0.986   6.180  0.4910  0.7801  0.5536
  104OSM    C2F10531   2.354   0.844   6.108  0.1682  0.1898  0.1462
  104OSM    H2F10532   2.335   0.770   6.188  0.6082  1.4847  1.4923
  104OSM    H2G10533   2.465   0.844   6.104  0.2494 -1.6908 -4.6718
  104OSM    C3F10534   2.326   0.791   5.960  0.5380  0.3008  0.2415
  104OSM    H3F10535   2.356   0.867   5.885 -1.5023  0.7702 -0.1677
  104OSM    H3G10536   2.216   0.778   5.953  0.8480 -3.0741  0.0756
  104OSM    C4F10537   2.398   0.653   5.930  0.0288  0.5745  0.8169
  104OSM    H4F10538   2.395   0.587   6.019 -0.3040 -1.5984 -0.7280
  104OSM    H4G10539   2.502   0.675   5.899 -0.4314 -0.3393 -1.5877
  104OSM    C5F10540   2.331   0.571   5.815 -0.2849 -0.4756 -0.4380
  104OSM    H5F10541   2.223   0.567   5.843 -0.4952  2.6889 -0.4051
  104OSM    H5G10542   2.364   0.465   5.822 -1.4820 -0.8785 -0.4822
  104OSM    C6F10543   2.361   0.628   5.679 -1.1750  0.0049 -0.0528
  104OSM    H6F10544   2.469   0.614   5.657 -1.1047  2.2469 -1.4664
  104OSM    H6G10545   2.316   0.730   5.680  1.1722  1.1072  1.1516
  104OSM    C7F10546   2.281   0.547   5.572 -0.1888 -0.1442  0.4337
  104OSM    H7F10547   2.190   0.517   5.629 -0.3861 -0.4103 -0.0137
  104OSM    H7G10548   2.334   0.451   5.554 -0.9164 -0.7405  1.3244
  104OSM    C8F10549   2.242   0.603   5.434  0.1546  0.0100 -0.0474
  104OSM    H8F10550   2.230   0.713   5.438  0.2952  0.0696 -0.9452
  104OSM    H8G10551   2.143   0.565   5.403 -0.3874  1.1821  0.2019
  104OSM    C9F10552   2.343   0.584   5.323 -0.9629 -0.1031 -0.0659
  104OSM    H9F10553   2.447   0.587   5.357 -0.5385  1.3102 -1.3702
  104OSM   C10F10554   2.318   0.565   5.191 -0.1913  0.1185 -0.0830
  104OSM   H10F10555   2.409   0.551   5.132 -0.2002  1.4568 -0.4633
  104OSM   C11F10556   2.178   0.565   5.126  0.0451  0.2198  0.3514
  104OSM   H11F10557   2.118   0.644   5.175 -0.7338 -0.5842  0.7345
  104OSM   H11G10558   2.123   0.469   5.143 -1.9726  0.1701 -4.7459
  104OSM   C12F10559   2.188   0.588   4.979 -0.0737 -0.2046  0.0239
  104OSM   H12F10560   2.239   0.683   4.953 -0.7084  0.4376  1.0192
  104OSM   H12G10561   2.087   0.596   4.932  0.7306 -1.0461 -1.9506
  104OSM   C13F10562   2.260   0.480   4.901  0.1135 -0.2744 -0.4934
  104OSM   H13F10563   2.206   0.386   4.925  0.6255 -0.5115 -0.2341
  104OSM   H13G10564   2.361   0.465   4.946 -0.0965  1.9484  0.8646
  104OSM   C14F10565   2.280   0.513   4.757 -0.4309 -0.5952 -0.2477
  104OSM   H14F10566   2.336   0.608   4.742 -0.5399 -0.4033  0.5453
  104OSM   H14G10567   2.182   0.522   4.704 -1.8051 -0.5184  2.1592
  104OSM   C15F10568   2.366   0.406   4.687  0.6369  0.4057 -0.2846
  104OSM   H15F10569   2.315   0.310   4.706  0.1923  1.1570  3.0275
  104OSM   H15G10570   2.464   0.413   4.740 -0.9952 -2.5682  3.5488
  104OSM   C16F10571   2.392   0.438   4.531  0.1200  0.2339  0.2348
  104OSM   H16F10572   2.301   0.434   4.467  1.9643  1.6136 -2.6963
  104OSM   H16G10573   2.458   0.362   4.483 -0.9491  0.7837 -2.2730
  104OSM   C17F10574   2.460   0.574   4.509  0.3613 -0.4096 -0.0413
  104OSM   H17F10575   2.553   0.592   4.567 -1.0282 -1.0426  2.5103
  104OSM   H17G10576   2.397   0.651   4.557  1.7538  0.3555  0.6322
  104OSM   C18F10577   2.477   0.595   4.360 -0.2126  0.3866 -0.2461
  104OSM   H18F10578   2.548   0.523   4.313  2.3043  1.8565  1.0317
  104OSM   H18G10579   2.532   0.692   4.354 -0.5346  0.6349  0.6264
  104OSM   H18H10580   2.389   0.604   4.294  0.8674 -1.2502 -2.0020
  105OSM      N10581   3.225   2.152   7.162 -0.0449  0.3815 -0.0956
  105OSM    C1510582   3.373   2.176   7.171  0.0833 -0.2891  0.1312
  105OSM   H15A10583   3.415   2.110   7.245 -0.1421  0.0079  0.5218
  105OSM   H15B10584   3.402   2.276   7.199  1.0904 -0.1356 -1.3568
  105OSM   H15C10585   3.419   2.151   7.076 -1.3567  0.4992 -0.8151
  105OSM    C1410586   3.207   2.003   7.203  0.7958 -0.1771 -0.2351
  105OSM   H14A10587   3.248   1.933   7.132  3.1482  1.1463 -0.2912
  105OSM   H14B10588   3.101   1.986   7.203  1.0179 -1.7139  0.2783
  105OSM   H14C10589   3.240   1.979   7.303 -3.2915 -2.8154  0.7449
  105OSM    C1310590   3.156   2.246   7.261 -0.4587  0.2265 -0.4522
  105OSM   H13A10591   3.050   2.239   7.245 -0.2814  1.7798 -2.7280
  105OSM   H13B10592   3.181   2.350   7.246  0.4133 -0.0597 -1.0597
  105OSM   H13C10593   3.181   2.227   7.365  1.2463 -0.6625 -0.9835
  105OSM    C1210594   3.179   2.180   7.025  0.3973 -0.4946  0.2975
  105OSM   H12A10595   3.226   2.121   6.947  0.6958  1.5794 -1.1521
  105OSM   H12B10596   3.218   2.274   6.989  0.6366  0.6383  3.2605
  105OSM    C1110597   3.026   2.179   6.991 -0.6134 -0.1878  0.1937
  105OSM   H11A10598   2.971   2.244   7.063 -0.4232  0.4698 -0.2446
  105OSM   H11B10599   2.990   2.076   7.010 -0.9030  0.3287  2.8865
  105OSM      P10600   3.012   2.358   6.796  0.0916  0.1609 -0.2526
  105OSM    O1310601   2.875   2.409   6.833  0.0132 -0.4250  0.1463
  105OSM    O1410602   3.133   2.434   6.843  0.1771 -0.0171 -0.2265
  105OSM    O1110603   3.019   2.328   6.647  0.3338  0.4476 -0.2371
  105OSM    O1210604   3.011   2.204   6.853  0.3542  0.3305  0.1267
  105OSM    C1S10605   3.124   2.231   6.608  0.0964 -0.0554  0.1948
  105OSM    H1S10606   3.091   2.128   6.630 -0.2584  0.2968  1.3428
  105OSM    H1T10607   3.221   2.249   6.659  0.9041 -2.4102 -0.3753
  105OSM     NF10608   3.257   2.141   6.417  0.5227 -0.1133 -0.3435
  105OSM    HNF10609   3.348   2.173   6.394  1.0383  1.1522  2.8971
  105OSM    C2S10610   3.156   2.238   6.454  0.6299  0.2052 -0.3753
  105OSM    H2S10611   3.059   2.204   6.410  0.1886  2.6439 -1.4696
  105OSM    C3S10612   3.193   2.382   6.404 -0.4469  0.1070  0.6867
  105OSM    H3S10613   3.297   2.395   6.442  0.8497 -0.1524 -2.4928
  105OSM     O310614   3.119   2.490   6.459  0.0264 -0.1728 -0.1059
  105OSM    HO310615   3.088   2.451   6.541  1.6164 -1.1666  0.0595
  105OSM    C4S10616   3.197   2.394   6.259 -0.2305 -0.1872  0.6641
  105OSM    H4S10617   3.099   2.392   6.209  0.4435 -3.1602 -0.7604
  105OSM    C5S10618   3.304   2.407   6.180  0.8801 -0.6161 -0.2012
  105OSM    H5S10619   3.406   2.411   6.220  1.2965 -1.2903 -1.1775
  105OSM    C6S10620   3.299   2.410   6.028  0.6985  0.6127 -0.2823
  105OSM    H6S10621   3.380   2.346   5.988 -1.5770 -1.3176 -2.1283
  105OSM    H6T10622   3.316   2.517   6.003 -2.3580  1.4909  0.9127
  105OSM    C7S10623   3.168   2.368   5.954 -0.0805 -0.2440 -0.2942
  105OSM    H7S10624   3.084   2.433   5.986 -0.0814  0.6324 -1.9832
  105OSM    H7T10625   3.160   2.263   5.990  1.5834 -1.2301 -2.5408
  105OSM    C8S10626   3.190   2.353   5.796 -0.3873  0.0869  0.3317
  105OSM    H8S10627   3.288   2.307   5.771 -1.0002 -0.7888 -0.5367
  105OSM    H8T10628   3.190   2.457   5.759 -0.9221  0.5418  1.5776
  105OSM    C9S10629   3.076   2.272   5.732  0.2620 -0.2519 -0.2693
  105OSM    H9S10630   2.983   2.332   5.733  0.7044  0.4426 -0.6635
  105OSM    H9T10631   3.066   2.184   5.800  1.3585 -1.3284 -1.4575
  105OSM   C10S10632   3.110   2.234   5.588 -0.5282 -0.8669 -0.4470
  105OSM   H10S10633   3.026   2.170   5.553 -1.3013  0.1542 -0.4953
  105OSM   H10T10634   3.203   2.173   5.583  1.6931  2.0631  1.5289
  105OSM   C11S10635   3.122   2.353   5.495 -0.6428 -0.4893 -0.1769
  105OSM   H11S10636   3.225   2.394   5.484 -0.9798  0.2213 -0.7649
  105OSM   H11T10637   3.068   2.439   5.541  1.7189  1.1258 -0.2596
  105OSM   C12S10638   3.064   2.317   5.350 -0.3712 -0.0910 -0.4452
  105OSM   H12S10639   3.071   2.419   5.307  0.8315  0.6881  1.4680
  105OSM   H12T10640   2.957   2.286   5.357  0.0893 -1.8201 -0.5272
  105OSM   C13S10641   3.158   2.226   5.277  0.2851 -0.3386 -0.7546
  105OSM   H13S10642   3.146   2.120   5.309  1.1669  0.0101  0.8316
  105OSM   H13T10643   3.263   2.252   5.304  0.3959 -0.4794 -1.0439
  105OSM   C14S10644   3.146   2.229   5.124  0.5848  0.2110  0.4999
  105OSM   H14S10645   3.038   2.246   5.104  0.6366  0.3169  0.3067
  105OSM   H14T10646   3.186   2.134   5.082  1.4331  1.5468 -1.8996
  105OSM   C15S10647   3.233   2.327   5.044 -0.4964  0.4209 -0.2895
  105OSM   H15S10648   3.336   2.289   5.059  0.4602  1.8693 -2.6367
  105OSM   H15T10649   3.223   2.429   5.088 -2.2682  0.0340  0.2910
  105OSM   C16S10650   3.188   2.332   4.897 -0.4313 -0.5587  0.5862
  105OSM   H16S10651   3.115   2.414   4.877  0.5030 -0.1133 -1.2393
  105OSM   H16T10652   3.149   2.235   4.861 -1.6118 -0.1065  0.5887
  105OSM   C17S10653   3.306   2.365   4.803 -0.6794 -0.3935  0.0304
  105OSM   H17S10654   3.394   2.298   4.815  1.5732  2.6477  1.9858
  105OSM   H17T10655   3.333   2.469   4.829  0.8006 -0.5436 -0.7718
  105OSM   C18S10656   3.256   2.366   4.658  0.1813  0.5931  0.0071
  105OSM   H18S10657   3.170   2.437   4.655  0.0530  0.4136 -0.8979
  105OSM   H18T10658   3.219   2.266   4.627  0.7120  0.4954 -0.3189
  105OSM   H18U10659   3.339   2.391   4.589  1.0364  0.0509  0.8192
  105OSM    C1F10660   3.235   2.014   6.421  0.3338  1.6260  0.4368
  105OSM     OF10661   3.131   1.964   6.474 -0.3637 -0.0718 -0.3700
  105OSM    C2F10662   3.341   1.915   6.363 -0.4888 -0.2362 -0.3695
  105OSM    H2F10663   3.362   1.861   6.459 -3.0183  0.7607  0.8476
  105OSM    H2G10664   3.429   1.972   6.325 -0.8120  0.5680  0.0627
  105OSM    C3F10665   3.286   1.820   6.254  1.0098 -0.2882 -0.1330
  105OSM    H3F10666   3.211   1.752   6.300  2.1179 -1.1080  0.5089
  105OSM    H3G10667   3.369   1.756   6.220  1.4025  0.0575  0.1558
  105OSM    C4F10668   3.225   1.893   6.134  0.2960 -0.8856  0.2604
  105OSM    H4F10669   3.302   1.955   6.085  0.6695 -1.5737 -0.0442
  105OSM    H4G10670   3.153   1.970   6.167  1.4982  0.4976 -0.2620
  105OSM    C5F10671   3.165   1.798   6.030 -0.5177  0.4015  0.4043
  105OSM    H5F10672   3.091   1.729   6.075 -1.0556  1.6075  1.4278
  105OSM    H5G10673   3.240   1.731   5.983  0.3563 -0.5694  3.0162
  105OSM    C6F10674   3.092   1.881   5.920  0.6295 -0.3123 -0.1619
  105OSM    H6F10675   3.161   1.962   5.891 -1.2173  1.8131  1.0678
  105OSM    H6G10676   3.005   1.934   5.965  2.4441 -0.2724  3.6898
  105OSM    C7F10677   3.066   1.792   5.794 -0.2082  0.7470  0.0093
  105OSM    H7F10678   2.986   1.723   5.827 -0.4429  0.7405 -0.5731
  105OSM    H7G10679   3.157   1.728   5.788 -1.2747 -0.9917  1.3296
  105OSM    C8F10680   3.034   1.860   5.659  0.0734  0.9933 -0.1923
  105OSM    H8F10681   3.043   1.779   5.584  0.9201  1.2751 -0.4044
  105OSM    H8G10682   3.117   1.929   5.636 -0.0720  0.5863 -2.0761
  105OSM    C9F10683   2.900   1.935   5.661 -0.1192  0.0434 -0.5627
  105OSM    H9F10684   2.892   2.012   5.739 -2.1665  0.0602 -0.7283
  105OSM   C10F10685   2.798   1.929   5.569 -0.1987 -0.3423  0.0434
  105OSM   H10F10686   2.720   2.007   5.569  1.1321  1.0567  1.3832
  105OSM   C11F10687   2.796   1.843   5.441  0.5684 -0.6756  0.4563
  105OSM   H11F10688   2.691   1.821   5.413  0.8021 -1.7308  0.3552
  105OSM   H11G10689   2.849   1.746   5.450  1.7518 -0.0795  0.0902
  105OSM   C12F10690   2.852   1.922   5.319 -0.3448  0.4644 -0.6243
  105OSM   H12F10691   2.960   1.949   5.318 -0.0682 -0.5966 -0.3899
  105OSM   H12G10692   2.802   2.021   5.315  0.1647  0.8280  1.1188
  105OSM   C13F10693   2.832   1.829   5.190 -0.0104  1.0439  0.3663
  105OSM   H13F10694   2.725   1.815   5.165 -0.1127 -0.6087  1.5510
  105OSM   H13G10695   2.871   1.731   5.225  2.4411  0.8155 -2.5819
  105OSM   C14F10696   2.921   1.882   5.070  0.1112 -0.3460  0.3087
  105OSM   H14F10697   2.995   1.804   5.040 -0.3070 -1.3137  1.6931
  105OSM   H14G10698   2.971   1.976   5.100  0.5104 -0.2786 -0.5523
  105OSM   C15F10699   2.829   1.901   4.946 -0.6088 -0.3733  0.0370
  105OSM   H15F10700   2.879   1.967   4.873 -3.0859  0.1460 -1.3229
  105OSM   H15G10701   2.738   1.953   4.984  0.5005  0.9904  0.8979
  105OSM   C16F10702   2.776   1.772   4.874 -0.5195  0.3839  0.1224
  105OSM   H16F10703   2.700   1.724   4.938  0.2347  1.1252  1.6472
  105OSM   H16G10704   2.866   1.707   4.865  0.2945  1.1942  1.8009
  105OSM   C17F10705   2.731   1.808   4.732 -0.4868 -0.2152 -1.4226
  105OSM   H17F10706   2.827   1.839   4.686  1.6195 -0.8584  2.1292
  105OSM   H17G10707   2.652   1.885   4.747  0.4323  0.3657  0.9026
  105OSM   C18F10708   2.672   1.678   4.661 -0.2273 -0.3155 -0.0420
  105OSM   H18F10709   2.745   1.595   4.646 -0.9036 -0.7127 -1.2431
  105OSM   H18G10710   2.633   1.711   4.562  1.8294  2.1712 -0.1230
  105OSM   H18H10711   2.585   1.633   4.715 -1.0704 -0.2673 -1.3188
  106OSM      N10712   0.229   0.368   6.768 -0.5675  0.4459  0.4592
  106OSM    C1510713   0.334   0.265   6.786 -0.0604  0.4360 -0.2490
  106OSM   H15A10714   0.323   0.199   6.871  0.2868  0.0218 -0.5160
  106OSM   H15B10715   0.432   0.310   6.790  0.1812 -0.0961 -0.0932
  106OSM   H15C10716   0.327   0.192   6.706 -0.2072 -0.0934  0.2417
  106OSM    C1410717   0.229   0.435   6.901 -0.2806  0.0052 -0.0125
  106OSM   H14A10718   0.163   0.520   6.904 -0.3447 -0.0480  0.0820
  106OSM   H14B10719   0.332   0.465   6.915 -0.2340  0.7922 -1.8170
  106OSM   H14C10720   0.213   0.363   6.980  0.1156 -0.2333 -0.1422
  106OSM    C1310721   0.267   0.461   6.668  0.1482  0.4636 -0.1275
  106OSM   H13A10722   0.373   0.484   6.671  0.6242 -1.2201 -2.0001
  106OSM   H13B10723   0.216   0.556   6.668  3.0555  2.1440 -0.9745
  106OSM   H13C10724   0.256   0.416   6.570  1.8015  0.1902 -0.2221
  106OSM    C1210725   0.088   0.311   6.741  0.2935  0.0672 -0.5762
  106OSM   H12A10726   0.018   0.393   6.735 -0.5168 -0.4769  1.0189
  106OSM   H12B10727   0.052   0.258   6.828 -0.0114  1.1957  0.0111
  106OSM    C1110728   0.057   0.213   6.624  0.1167 -0.4045  0.2081
  106OSM   H11A10729   0.081   0.264   6.528  2.3043  0.5322  1.1764
  106OSM   H11B10730  -0.053   0.201   6.624 -0.2673  2.4362 -0.0998
  106OSM      P10731   0.211   0.027   6.519 -0.2143  0.4151 -0.0447
  106OSM    O1310732   0.313   0.134   6.492  0.2931  0.0966 -0.2417
  106OSM    O1410733   0.262  -0.108   6.554 -0.0973  0.1271 -0.6410
  106OSM    O1110734   0.109   0.021   6.399  0.1973 -0.2125 -0.1948
  106OSM    O1210735   0.125   0.086   6.641  0.1180  0.1325 -0.0934
  106OSM    C1S10736   0.005  -0.080   6.400 -0.1452 -0.0321 -0.4990
  106OSM    H1S10737  -0.056  -0.064   6.492  1.1721  1.2471  0.2061
  106OSM    H1T10738   0.046  -0.183   6.401 -3.3419 -1.4637  0.9382
  106OSM     NF10739  -0.183  -0.168   6.274  0.0797  0.6200 -1.2292
  106OSM    HNF10740  -0.156  -0.247   6.219 -0.0195 -0.9565  0.8632
  106OSM    C2S10741  -0.087  -0.058   6.271  0.3021  0.7629 -0.3981
  106OSM    H2S10742  -0.142   0.038   6.279  0.1278  0.6361 -0.0516
  106OSM    C3S10743   0.001  -0.036   6.136 -0.0697  0.2097 -1.1793
  106OSM    H3S10744   0.069  -0.123   6.125  1.9294  1.5723 -0.1977
  106OSM     O310745   0.074   0.083   6.130  0.7669 -0.5455  0.2306
  106OSM    HO310746   0.062   0.111   6.221  1.2112 -1.6779  0.6590
  106OSM    C4S10747  -0.095  -0.048   6.015  0.0221  0.1339 -0.0297
  106OSM    H4S10748  -0.121  -0.152   5.988 -2.9991  0.8690 -0.2494
  106OSM    C5S10749  -0.172   0.045   5.955  0.1759 -0.4170  0.2774
  106OSM    H5S10750  -0.164   0.147   5.994 -2.2671  0.0262 -0.2158
  106OSM    C6S10751  -0.280   0.012   5.859 -0.0699  0.0686  0.0904
  106OSM    H6S10752  -0.319   0.109   5.821  0.4493  0.7858  1.3399
  106OSM    H6T10753  -0.365  -0.037   5.912 -1.9631  1.7339 -1.2620
  106OSM    C7S10754  -0.234  -0.077   5.742 -0.3540 -0.2660 -0.3723
  106OSM    H7S10755  -0.327  -0.085   5.681 -1.5838  2.5096  0.9568
  106OSM    H7T10756  -0.193  -0.180   5.747  0.4486  0.1003  0.9469
  106OSM    C8S10757  -0.142   0.007   5.649 -0.6345  0.6134  0.2355
  106OSM    H8S10758  -0.044   0.020   5.699 -1.2132  0.9041  1.3104
  106OSM    H8T10759  -0.187   0.105   5.622  0.3303  1.2358  0.8641
  106OSM    C9S10760  -0.105  -0.055   5.511 -0.0236  0.2178  0.6439
  106OSM    H9S10761  -0.133  -0.162   5.510  1.2803 -0.1475 -0.3783
  106OSM    H9T10762   0.005  -0.043   5.497 -0.1693  1.8395  0.6591
  106OSM   C10S10763  -0.175   0.010   5.388  0.4811 -0.8802 -0.5941
  106OSM   H10S10764  -0.144   0.116   5.377  0.2594 -0.7138  0.2759
  106OSM   H10T10765  -0.284   0.016   5.407  0.5156  1.6658 -0.8258
  106OSM   C11S10766  -0.157  -0.060   5.247  0.0483 -0.2163 -0.4800
  106OSM   H11S10767  -0.210  -0.157   5.243 -0.1599 -0.0575 -1.7758
  106OSM   H11T10768  -0.049  -0.079   5.227  0.4436  0.0973  1.1701
  106OSM   C12S10769  -0.218   0.014   5.132  0.3879  0.3406 -0.0218
  106OSM   H12S10770  -0.207   0.124   5.147 -3.9812  0.8084  1.0010
  106OSM   H12T10771  -0.328   0.003   5.123  0.5784 -0.1479 -2.3856
  106OSM   C13S10772  -0.166  -0.036   4.993 -0.0490  0.1353 -0.5178
  106OSM   H13S10773  -0.205  -0.140   4.997  1.1527 -0.2848  2.7016
  106OSM   H13T10774  -0.056  -0.038   5.007 -0.2542 -0.9683  1.1632
  106OSM   C14S10775  -0.208   0.046   4.870 -0.0757  0.4263  0.6133
  106OSM   H14S10776  -0.167   0.149   4.883 -0.7225  0.5805  1.5335
  106OSM   H14T10777  -0.319   0.054   4.862 -0.2154 -2.0111 -1.0861
  106OSM   C15S10778  -0.146  -0.007   4.745  0.2870 -0.7412  0.5066
  106OSM   H15S10779  -0.168  -0.115   4.732 -1.6071 -0.2596 -0.6000
  106OSM   H15T10780  -0.039   0.002   4.774  1.1381 -3.3646 -1.4204
  106OSM   C16S10781  -0.158   0.069   4.616  0.1571 -0.1637  0.0163
  106OSM   H16S10782  -0.076   0.055   4.541 -0.4208  1.3320 -0.9523
  106OSM   H16T10783  -0.145   0.178   4.632  0.8917 -0.1139 -0.8003
  106OSM   C17S10784  -0.291   0.033   4.542 -0.0683  0.2873  0.5648
  106OSM   H17S10785  -0.370   0.065   4.613  0.3860  0.0344  1.2012
  106OSM   H17T10786  -0.306  -0.077   4.531 -1.9282  0.4798  0.9204
  106OSM   C18S10787  -0.323   0.106   4.404  0.0691  0.3603  0.0677
  106OSM   H18S10788  -0.267   0.068   4.316 -0.0275 -0.9292  0.5435
  106OSM   H18T10789  -0.305   0.214   4.422 -2.9828  1.2942 -1.6250
  106OSM   H18U10790  -0.434   0.108   4.394 -0.3633  0.7331  3.5197
  106OSM    C1F10791  -0.291  -0.176   6.350 -0.0968 -0.1682  0.0904
  106OSM     OF10792  -0.317  -0.090   6.431 -0.0086 -0.9062 -0.2913
  106OSM    C2F10793  -0.372  -0.298   6.327 -1.2480  0.9611 -0.3241
  106OSM    H2F10794  -0.395  -0.353   6.421 -3.4729  0.8260 -0.9068
  106OSM    H2G10795  -0.325  -0.374   6.261 -1.1704  1.0120 -0.3275
  106OSM    C3F10796  -0.509  -0.262   6.271 -0.5539 -0.2718 -0.1617
  106OSM    H3F10797  -0.556  -0.186   6.338  0.5557  1.7041 -1.5162
  106OSM    H3G10798  -0.574  -0.352   6.273 -0.1076 -0.5856  0.1772
  106OSM    C4F10799  -0.505  -0.203   6.130  1.2584 -0.1346 -0.1387
  106OSM    H4F10800  -0.434  -0.247   6.056 -0.0629 -0.2738 -1.3592
  106OSM    H4G10801  -0.471  -0.098   6.136  1.1422 -0.1152  0.2032
  106OSM    C5F10802  -0.650  -0.200   6.079 -0.2213 -0.2973  0.0311
  106OSM    H5F10803  -0.703  -0.138   6.154  1.8667 -0.7900  2.0065
  106OSM    H5G10804  -0.690  -0.303   6.080 -1.7237  0.2683  1.1138
  106OSM    C6F10805  -0.661  -0.154   5.932 -0.0570 -0.3165 -0.7653
  106OSM    H6F10806  -0.608  -0.056   5.926  0.2164 -0.2462  1.6524
  106OSM    H6G10807  -0.769  -0.142   5.909 -0.1892  0.2883  0.1331
  106OSM    C7F10808  -0.605  -0.253   5.835 -0.2976  0.5493  0.2249
  106OSM    H7F10809  -0.657  -0.352   5.838  1.5040 -0.4677 -0.6102
  106OSM    H7G10810  -0.497  -0.266   5.855 -0.0201  2.4339  0.1184
  106OSM    C8F10811  -0.630  -0.202   5.693  0.4106  0.1121 -0.6624
  106OSM    H8F10812  -0.561  -0.119   5.665 -0.1223  0.6653 -0.3539
  106OSM    H8G10813  -0.732  -0.159   5.691  0.3754  0.0012 -1.6108
  106OSM    C9F10814  -0.608  -0.295   5.580  0.2062  0.3817  0.0737
  106OSM    H9F10815  -0.555  -0.384   5.616 -0.0475  1.3050  3.0025
  106OSM   C10F10816  -0.631  -0.279   5.448 -0.3149 -0.3955  0.0003
  106OSM   H10F10817  -0.602  -0.356   5.375 -0.6919  1.0947 -1.8231
  106OSM   C11F10818  -0.685  -0.149   5.385 -0.2295  0.8842 -0.1825
  106OSM   H11F10819  -0.669  -0.057   5.446 -4.3655  1.5425  0.1872
  106OSM   H11G10820  -0.794  -0.170   5.382  0.4585 -3.8982  0.5449
  106OSM   C12F10821  -0.619  -0.096   5.249 -0.3485 -0.1547  0.2848
  106OSM   H12F10822  -0.508  -0.090   5.249 -0.3511  1.9780 -2.6753
  106OSM   H12G10823  -0.657   0.006   5.226 -0.6462 -0.6862 -1.8375
  106OSM   C13F10824  -0.663  -0.177   5.126  0.1320 -0.3153 -0.0268
  106OSM   H13F10825  -0.773  -0.189   5.133  0.2826 -0.7033  2.4761
  106OSM   H13G10826  -0.632  -0.284   5.130 -2.7725 -1.2289  0.3843
  106OSM   C14F10827  -0.630  -0.121   4.990  0.1656  0.4073  0.2126
  106OSM   H14F10828  -0.530  -0.142   4.946  1.3766  4.7535  0.4204
  106OSM   H14G10829  -0.629  -0.010   4.987  4.2655  0.5624  0.5000
  106OSM   C15F10830  -0.733  -0.164   4.882 -0.2745  0.5800 -0.1266
  106OSM   H15F10831  -0.827  -0.111   4.904 -0.2662  0.3110  0.5751
  106OSM   H15G10832  -0.755  -0.272   4.895 -0.4282  0.3485 -2.0166
  106OSM   C16F10833  -0.678  -0.140   4.741  0.3265 -0.2176  0.0135
  106OSM   H16F10834  -0.643  -0.034   4.736  0.6348 -0.2718  0.9052
  106OSM   H16G10835  -0.767  -0.147   4.675 -0.1599 -1.3364  0.7624
  106OSM   C17F10836  -0.566  -0.236   4.698 -0.1148 -0.8143 -0.0657
  106OSM   H17F10837  -0.594  -0.332   4.746 -1.1816  0.0446  1.1019
  106OSM   H17G10838  -0.474  -0.196   4.746  0.2852 -2.2993  0.4426
  106OSM   C18F10839  -0.535  -0.253   4.549  0.2077  0.4855  0.2641
  106OSM   H18F10840  -0.449  -0.322   4.539 -0.3969 -0.2301 -0.0547
  106OSM   H18G10841  -0.496  -0.155   4.514 -0.7802  1.1812  1.0352
  106OSM   H18H10842  -0.621  -0.298   4.495  1.2871 -2.2041  0.6498
  107OSM      N10843   0.414   3.054   6.837  0.3116 -0.7582 -0.1571
  107OSM    C1510844   0.323   2.962   6.912 -0.4171 -0.4932 -0.5446
  107OSM   H15A10845   0.367   2.865   6.930  0.0546  0.0898  1.7131
  107OSM   H15B10846   0.227   2.952   6.863  0.9038 -0.6869 -3.2956
  107OSM   H15C10847   0.312   2.999   7.013  0.5259  2.3752 -1.3981
  107OSM    C1410848   0.543   3.050   6.910 -0.3606 -0.0705  0.0316
  107OSM   H14A10849   0.597   2.957   6.901  0.5557  0.2626  1.6838
  107OSM   H14B10850   0.532   3.073   7.015 -1.5134 -0.5563  0.0422
  107OSM   H14C10851   0.603   3.125   6.861 -0.7172  0.8587  0.9860
  107OSM    C1310852   0.439   3.003   6.700 -0.3428 -0.2707  0.6117
  107OSM   H13A10853   0.475   2.901   6.709  1.7820  0.4452  0.7379
  107OSM   H13B10854   0.508   3.064   6.645  0.0261 -0.3752  0.9535
  107OSM   H13C10855   0.349   3.001   6.641 -0.0955 -3.1974  0.1901
  107OSM    C1210856   0.352   3.187   6.829  0.4446  0.0189  0.2876
  107OSM   H12A10857   0.298   3.226   6.915 -0.9101  1.3697 -1.1280
  107OSM   H12B10858   0.271   3.175   6.759  2.2037  1.3527 -2.0793
  107OSM    C1110859   0.434   3.309   6.775 -0.4917  0.1365 -0.2931
  107OSM   H11A10860   0.366   3.395   6.758 -0.1548  0.4066 -0.2948
  107OSM   H11B10861   0.481   3.285   6.677 -0.7358  1.5819 -0.7876
  107OSM      P10862   0.677   3.390   6.835  0.3971  0.2949 -0.2079
  107OSM    O1310863   0.728   3.451   6.958  0.2437 -0.5818  0.4823
  107OSM    O1410864   0.745   3.266   6.785  0.2282  0.3491 -0.1899
  107OSM    O1110865   0.666   3.497   6.724 -0.1493  0.0424 -0.3041
  107OSM    O1210866   0.528   3.356   6.863  0.3847 -0.2863 -0.0601
  107OSM    C1S10867   0.759   3.515   6.615 -0.4706  0.4413 -0.2406
  107OSM    H1S10868   0.815   3.423   6.587 -0.6776  0.4492 -0.6911
  107OSM    H1T10869   0.828   3.600   6.634  1.2057 -0.9069 -0.0808
  107OSM     NF10870   0.769   3.541   6.351 -0.4935  0.5707 -0.0690
  107OSM    HNF10871   0.789   3.625   6.302  1.4691 -0.9255 -2.0463
  107OSM    C2S10872   0.683   3.543   6.475  0.0215 -0.1920 -0.0812
  107OSM    H2S10873   0.606   3.464   6.456  0.0424  0.0233 -1.1416
  107OSM    C3S10874   0.591   3.671   6.495 -0.5377  0.2445  0.3851
  107OSM    H3S10875   0.648   3.767   6.498 -0.3661  0.2130 -1.1327
  107OSM     O310876   0.497   3.668   6.600 -0.1351  0.1504  0.6521
  107OSM    HO310877   0.526   3.601   6.662 -0.2632  0.0379  0.5878
  107OSM    C4S10878   0.513   3.690   6.370  0.0474  0.4895 -0.1438
  107OSM    H4S10879   0.432   3.617   6.354  0.2499  0.5778 -1.7310
  107OSM    C5S10880   0.533   3.789   6.278  0.8282  0.9431 -0.3395
  107OSM    H5S10881   0.613   3.865   6.281  1.2221  0.6784 -2.3164
  107OSM    C6S10882   0.430   3.807   6.175  0.1173 -0.3610  0.4756
  107OSM    H6S10883   0.363   3.892   6.201 -1.4845 -1.3781 -0.1840
  107OSM    H6T10884   0.373   3.712   6.170  0.6150 -0.6114 -0.7291
  107OSM    C7S10885   0.495   3.833   6.039  0.4515  0.2606 -0.3303
  107OSM    H7S10886   0.574   3.756   6.022  0.3001  0.2800 -1.1594
  107OSM    H7T10887   0.547   3.931   6.034  0.0614  0.4272 -1.2461
  107OSM    C8S10888   0.397   3.836   5.922 -0.3604 -0.0222  0.5048
  107OSM    H8S10889   0.313   3.902   5.954  0.6486  1.1513  0.7976
  107OSM    H8T10890   0.352   3.735   5.913 -0.2758 -0.2189  2.0446
  107OSM    C9S10891   0.447   3.892   5.788  0.2931  0.1248 -0.6959
  107OSM    H9S10892   0.552   3.872   5.760  1.1901  0.1190  2.3278
  107OSM    H9T10893   0.431   4.002   5.785 -1.8936 -0.0386  1.4697
  107OSM   C10S10894   0.349   3.848   5.674 -0.0394 -0.6124 -0.8687
  107OSM   H10S10895   0.246   3.862   5.714  0.5112  0.9145  0.1024
  107OSM   H10T10896   0.360   3.741   5.644 -0.3648 -1.4244  1.5979
  107OSM   C11S10897   0.346   3.933   5.551 -0.7943  0.5600  0.3516
  107OSM   H11S10898   0.393   4.031   5.574  0.6022  0.2687 -1.0943
  107OSM   H11T10899   0.248   3.939   5.498 -1.8529  0.5164  2.2324
  107OSM   C12S10900   0.446   3.873   5.446 -0.4123  0.0623  0.6307
  107OSM   H12S10901   0.412   3.773   5.412 -1.1792 -0.6157  3.1723
  107OSM   H12T10902   0.539   3.863   5.506 -0.5451  2.3128  1.3169
  107OSM   C13S10903   0.484   3.964   5.323  0.6047  0.2859 -0.4533
  107OSM   H13S10904   0.516   4.063   5.364 -2.3047  0.3915  1.8966
  107OSM   H13T10905   0.386   3.981   5.273  0.5602 -1.5980 -1.0657
  107OSM   C14S10906   0.583   3.915   5.222 -0.3905 -0.1903 -0.3608
  107OSM   H14S10907   0.568   3.808   5.195  1.3845 -0.9308  1.3351
  107OSM   H14T10908   0.686   3.906   5.262 -0.1113  0.2922 -0.9602
  107OSM   C15S10909   0.579   3.988   5.092 -0.5346 -0.1918  0.2874
  107OSM   H15S10910   0.602   4.094   5.115  0.5397 -0.6951  1.6031
  107OSM   H15T10911   0.474   3.974   5.058 -0.2507 -3.0036  0.2905
  107OSM   C16S10912   0.682   3.936   4.996 -0.4556 -0.0995 -0.1233
  107OSM   H16S10913   0.640   3.837   4.968 -1.0264  0.3138 -0.7383
  107OSM   H16T10914   0.784   3.933   5.039 -0.2289  0.6031 -0.6011
  107OSM   C17S10915   0.696   4.010   4.859  0.8007  0.4909  0.6389
  107OSM   H17S10916   0.787   3.970   4.809  1.6540  2.6927  0.3268
  107OSM   H17T10917   0.722   4.117   4.874  0.6824  0.3835  1.6650
  107OSM   C18S10918   0.572   3.999   4.771 -0.5759  0.2204  0.0788
  107OSM   H18S10919   0.550   3.892   4.753  0.0275 -0.3180  2.3098
  107OSM   H18T10920   0.587   4.051   4.673 -1.7538  1.2514  0.4197
  107OSM   H18U10921   0.492   4.049   4.829  0.4243  2.4882 -0.3685
  107OSM    C1F10922   0.831   3.430   6.305 -0.2176  0.2601  0.1679
  107OSM     OF10923   0.818   3.330   6.366 -0.2595  0.0136  0.2974
  107OSM    C2F10924   0.896   3.433   6.167  0.0765  0.2680 -0.3119
  107OSM    H2F10925   0.885   3.337   6.113  0.7731 -1.1699  1.9498
  107OSM    H2G10926   1.004   3.449   6.184  0.4969 -2.6270  0.1545
  107OSM    C3F10927   0.837   3.546   6.080 -0.1566  0.2253 -0.3577
  107OSM    H3F10928   0.866   3.642   6.128  0.1741 -0.7011  1.3898
  107OSM    H3G10929   0.726   3.538   6.084 -0.1579  0.3335 -0.1479
  107OSM    C4F10930   0.885   3.545   5.938 -0.1061 -0.0222  0.1827
  107OSM    H4F10931   0.875   3.439   5.904  1.7727 -0.0406 -0.4488
  107OSM    H4G10932   0.993   3.569   5.935 -0.4503  1.5575 -0.6230
  107OSM    C5F10933   0.822   3.653   5.846 -0.0401  0.0254  0.6901
  107OSM    H5F10934   0.868   3.751   5.871  1.4923 -0.2644 -0.8177
  107OSM    H5G10935   0.715   3.658   5.875  0.0233  1.4960  0.7460
  107OSM    C6F10936   0.859   3.624   5.700  0.5829 -0.2121 -0.0495
  107OSM    H6F10937   0.856   3.515   5.679 -1.1169 -0.7950  2.7073
  107OSM    H6G10938   0.965   3.654   5.682  1.0464 -1.9338 -0.4578
  107OSM    C7F10939   0.771   3.699   5.601 -0.1466  0.7834  0.7788
  107OSM    H7F10940   0.775   3.809   5.617  0.1876  0.8290  0.3802
  107OSM    H7G10941   0.668   3.669   5.629 -0.6450  1.8259  0.1202
  107OSM    C8F10942   0.791   3.643   5.454  0.0284  0.3868  0.6922
  107OSM    H8F10943   0.712   3.693   5.394  0.9143  0.3448 -0.5285
  107OSM    H8G10944   0.770   3.534   5.441 -1.5171  0.8050 -0.7408
  107OSM    C9F10945   0.921   3.698   5.405 -0.1991 -0.7808  0.1706
  107OSM    H9F10946   0.949   3.793   5.452 -1.1551 -0.4720  0.1525
  107OSM   C10F10947   1.007   3.639   5.322  0.0720  0.5920 -0.1121
  107OSM   H10F10948   1.102   3.690   5.297  0.4417 -0.6025 -1.2866
  107OSM   C11F10949   0.982   3.499   5.276 -0.4186  0.9628 -0.2290
  107OSM   H11F10950   0.895   3.493   5.208  0.1962  1.6227 -1.0941
  107OSM   H11G10951   0.976   3.423   5.358 -1.5642  0.6179 -0.6131
  107OSM   C12F10952   1.099   3.449   5.188 -0.5721  0.9902  0.7845
  107OSM   H12F10953   1.086   3.339   5.186 -0.6772  0.9628  2.0390
  107OSM   H12G10954   1.196   3.471   5.237  0.4997  0.5759 -1.0707
  107OSM   C13F10955   1.093   3.502   5.047  0.2665  0.1331 -0.6561
  107OSM   H13F10956   1.106   3.612   5.049  1.2673  0.0253 -0.3215
  107OSM   H13G10957   0.990   3.472   5.020  0.2785 -1.2028  0.6492
  107OSM   C14F10958   1.192   3.446   4.943 -0.2124  0.8094  0.1787
  107OSM   H14F10959   1.172   3.337   4.952 -0.9616  0.8796 -0.5056
  107OSM   H14G10960   1.294   3.470   4.977 -1.5407  3.5162  2.7377
  107OSM   C15F10961   1.161   3.485   4.798 -0.4594 -0.0411 -0.7381
  107OSM   H15F10962   1.181   3.593   4.784  1.1488 -0.4520 -1.8780
  107OSM   H15G10963   1.051   3.472   4.790 -0.2474 -2.5522 -0.3743
  107OSM   C16F10964   1.243   3.420   4.690  0.2722  0.6506  0.3009
  107OSM   H16F10965   1.234   3.310   4.706 -0.0638  0.1441 -2.6414
  107OSM   H16G10966   1.350   3.448   4.689  0.8620 -1.4009 -0.7229
  107OSM   C17F10967   1.186   3.429   4.547 -0.3379 -0.3559 -0.9025
  107OSM   H17F10968   1.192   3.539   4.534  1.2137 -0.0751  1.4464
  107OSM   H17G10969   1.077   3.408   4.542 -0.9679  1.9832  0.7598
  107OSM   C18F10970   1.257   3.346   4.441 -1.0217 -0.5199  0.2921
  107OSM   H18F10971   1.365   3.372   4.443 -0.6017 -2.0523 -0.7767
  107OSM   H18G10972   1.216   3.368   4.341 -0.1810 -1.8296 -0.3684
  107OSM   H18H10973   1.263   3.237   4.461  0.9182 -0.4191  0.4649
  108OSM      N10974   0.927   4.842   6.521 -0.6867  0.5226 -0.1739
  108OSM    C1510975   1.054   4.839   6.599  0.0297 -0.0426  0.2429
  108OSM   H15A10976   1.062   4.928   6.659 -3.6514  0.2642  0.4695
  108OSM   H15B10977   1.140   4.843   6.534  1.4109  2.0368  2.0423
  108OSM   H15C10978   1.070   4.753   6.664 -0.6628 -0.8375 -0.6157
  108OSM    C1410979   0.932   4.717   6.440 -0.3102 -0.2849 -0.4402
  108OSM   H14A10980   0.835   4.707   6.393 -0.8680  2.5492 -0.0612
  108OSM   H14B10981   0.957   4.626   6.491 -1.9608 -0.6954 -0.2846
  108OSM   H14C10982   1.010   4.723   6.366 -0.7217  0.7180 -0.8040
  108OSM    C1310983   0.814   4.826   6.617  0.1805 -0.5568 -0.5331
  108OSM   H13A10984   0.716   4.840   6.573  1.0322  1.9481 -1.8223
  108OSM   H13B10985   0.830   4.904   6.691 -0.7071  1.1466 -2.0590
  108OSM   H13C10986   0.808   4.733   6.670 -1.2438  0.1886  0.6905
  108OSM    C1210987   0.919   4.965   6.425  0.0586 -0.9629 -0.9706
  108OSM   H12A10988   0.945   5.046   6.491  1.4136 -1.2830 -1.0886
  108OSM   H12B10989   0.819   4.984   6.391 -0.6151  0.4776  1.5172
  108OSM    C1110990   1.021   4.962   6.317  0.4382 -0.2533 -0.2605
  108OSM   H11A10991   0.994   5.050   6.254 -0.6111 -0.1844  0.2758
  108OSM   H11B10992   1.018   4.881   6.242  0.7605 -0.2369 -0.2923
  108OSM      P10993   1.276   4.957   6.285 -0.3311  0.1233 -0.0213
  108OSM    O1310994   1.377   5.044   6.356 -0.5057  0.1503  0.2931
  108OSM    O1410995   1.304   4.813   6.276  0.0777  0.0968 -0.0410
  108OSM    O1110996   1.240   5.024   6.150  0.1761  0.4126  0.2908
  108OSM    O1210997   1.147   4.981   6.371  0.0843  0.2466  0.2125
  108OSM    C1S10998   1.344   5.055   6.061 -0.7581  0.8509  0.1760
  108OSM    H1S10999   1.431   4.986   6.068  2.0309  4.0688  0.1882
  108OSM    H1T11000   1.389   5.153   6.090 -0.8519  1.0707 -0.3887
  108OSM     NF11001   1.426   5.087   5.835 -0.4836 -0.3954  0.2241
  108OSM    HNF11002   1.468   5.175   5.812 -0.0706 -0.9277 -1.2277
  108OSM    C2S11003   1.302   5.073   5.912 -0.8375  0.6126 -0.1810
  108OSM    H2S11004   1.253   4.981   5.874 -0.9466  2.1211 -4.1728
  108OSM    C3S11005   1.188   5.186   5.906  0.4762 -0.1806 -0.7819
  108OSM    H3S11006   1.234   5.286   5.925 -0.0724 -0.1730  0.6301
  108OSM     O311007   1.089   5.168   6.008 -0.5265 -0.5741  0.3317
  108OSM    HO311008   1.129   5.111   6.074  2.5463  3.3223  2.2479
  108OSM    C4S11009   1.134   5.174   5.767 -0.0731  0.1811  0.2242
  108OSM    H4S11010   1.167   5.256   5.702  0.2170 -0.3089 -0.2521
  108OSM    C5S11011   1.022   5.113   5.722 -0.0335  0.7208  0.4580
  108OSM    H5S11012   0.958   5.070   5.800  0.5229 -0.5160  0.2607
  108OSM    C6S11013   0.964   5.134   5.579  0.0569  0.0876 -0.2647
  108OSM    H6S11014   0.886   5.213   5.590 -1.0699 -1.1108  0.7116
  108OSM    H6T11015   0.925   5.037   5.539  1.8823  0.1296 -2.3113
  108OSM    C7S11016   1.055   5.182   5.470  0.1117 -0.4488  1.0491
  108OSM    H7S11017   1.102   5.280   5.496 -0.3031 -0.1529  0.6907
  108OSM    H7T11018   0.991   5.184   5.380 -0.2747 -3.7040  1.1286
  108OSM    C8S11019   1.166   5.075   5.450  0.0249 -0.1220  0.5047
  108OSM    H8S11020   1.122   4.976   5.427 -1.3612  0.2959  1.2174
  108OSM    H8T11021   1.216   5.061   5.548 -2.2524 -3.1406  1.3968
  108OSM    C9S11022   1.283   5.110   5.353 -0.4230 -0.5898 -0.4211
  108OSM    H9S11023   1.375   5.046   5.352 -1.0260 -1.5968  1.7288
  108OSM    H9T11024   1.308   5.214   5.384 -1.3944 -0.4403 -0.1140
  108OSM   C10S11025   1.234   5.123   5.208 -0.8669  0.5112  0.3186
  108OSM   H10S11026   1.147   5.192   5.209  1.3639  3.5831  2.4728
  108OSM   H10T11027   1.191   5.026   5.178 -0.4870  0.7932 -1.2127
  108OSM   C11S11028   1.339   5.161   5.104  0.3744  0.5950  0.1111
  108OSM   H11S11029   1.424   5.091   5.086  1.3939  1.5982  0.8664
  108OSM   H11T11030   1.388   5.254   5.140 -1.0028  0.8861  1.2972
  108OSM   C12S11031   1.266   5.202   4.966  0.1645 -0.2347  0.2653
  108OSM   H12S11032   1.193   5.282   4.990 -0.1240 -0.9079  1.7416
  108OSM   H12T11033   1.217   5.112   4.923  0.6042 -1.1229  1.5545
  108OSM   C13S11034   1.361   5.261   4.861  0.0296 -0.5640  0.0464
  108OSM   H13S11035   1.431   5.180   4.833 -0.7366 -1.8531  1.7269
  108OSM   H13T11036   1.420   5.340   4.912 -0.7859  0.4676 -0.5700
  108OSM   C14S11037   1.310   5.329   4.734  0.1025  0.1864  0.3756
  108OSM   H14S11038   1.403   5.362   4.683  0.1395  0.5738  0.6876
  108OSM   H14T11039   1.253   5.422   4.756  1.3113  1.1617 -0.4731
  108OSM   C15S11040   1.225   5.232   4.654  0.6094  0.5712 -0.7139
  108OSM   H15S11041   1.142   5.197   4.719 -0.6465  0.9001 -2.0758
  108OSM   H15T11042   1.285   5.141   4.631  2.2711  0.9791  1.6998
  108OSM   C16S11043   1.189   5.294   4.516 -0.0862  0.1266 -0.1374
  108OSM   H16S11044   1.169   5.215   4.441  1.0682 -0.8978  0.5965
  108OSM   H16T11045   1.274   5.354   4.479  0.7479  0.8984  2.7525
  108OSM   C17S11046   1.062   5.379   4.524  0.8743  0.2987  0.5516
  108OSM   H17S11047   1.078   5.440   4.615 -0.6743  0.8538  0.4681
  108OSM   H17T11048   0.977   5.312   4.548  1.1678 -0.5461 -0.7031
  108OSM   C18S11049   1.041   5.477   4.409  0.2059  1.1733  0.3019
  108OSM   H18S11050   1.030   5.422   4.314 -1.3337 -1.0485  1.6776
  108OSM   H18T11051   1.138   5.532   4.399  0.9105  0.0429  0.6884
  108OSM   H18U11052   0.951   5.542   4.419 -1.6351 -1.1752 -0.2014
  108OSM    C1F11053   1.504   4.980   5.814  0.6220  0.1527  0.7905
  108OSM     OF11054   1.461   4.873   5.856 -0.1761 -0.7455 -0.7746
  108OSM    C2F11055   1.635   5.008   5.747  0.8060 -0.2745  0.7396
  108OSM    H2F11056   1.713   5.045   5.817 -0.2176 -0.0764  1.8044
  108OSM    H2G11057   1.613   5.093   5.678 -0.8838 -1.5487 -0.3774
  108OSM    C3F11058   1.666   4.881   5.656 -0.1190 -0.3469 -0.1671
  108OSM    H3F11059   1.583   4.859   5.586  0.1613 -0.0739 -0.5896
  108OSM    H3G11060   1.682   4.790   5.719  1.2532  0.2613  0.3980
  108OSM    C4F11061   1.782   4.897   5.568 -1.0910  0.5087  0.5789
  108OSM    H4F11062   1.761   4.980   5.498 -0.1549  0.1976 -0.0984
  108OSM    H4G11063   1.794   4.801   5.514  0.4847  1.5674 -1.0776
  108OSM    C5F11064   1.927   4.918   5.628 -0.6133  0.6572  0.2357
  108OSM    H5F11065   1.949   4.831   5.694 -3.6196  0.1947  0.7570
  108OSM    H5G11066   1.934   5.013   5.685  1.0682  0.4792  0.3786
  108OSM    C6F11067   2.043   4.919   5.517 -0.5323  0.2545  0.0449
  108OSM    H6F11068   2.013   5.000   5.447 -0.7292  0.4715  0.3754
  108OSM    H6G11069   2.025   4.826   5.460 -1.0920  0.2923  0.1507
  108OSM    C7F11070   2.182   4.922   5.573 -0.3762  0.9575  0.4604
  108OSM    H7F11071   2.202   4.831   5.633  1.7261  0.0127 -1.5005
  108OSM    H7G11072   2.209   5.005   5.642  0.5376 -0.6000  2.0637
  108OSM    C8F11073   2.278   4.929   5.449 -0.4095 -0.1533  0.4879
  108OSM    H8F11074   2.375   4.959   5.494  0.4612 -1.0836 -0.7017
  108OSM    H8G11075   2.255   5.010   5.376  0.7454 -3.0061 -3.3497
  108OSM    C9F11076   2.282   4.794   5.382  0.2331  0.0000  0.5980
  108OSM    H9F11077   2.251   4.706   5.441  1.0343 -0.1608  0.7921
  108OSM   C10F11078   2.290   4.773   5.244 -0.6054  0.7712  0.1484
  108OSM   H10F11079   2.280   4.670   5.206 -2.4200  1.2624 -0.7788
  108OSM   C11F11080   2.312   4.879   5.141 -0.3402 -0.3245  0.7011
  108OSM   H11F11081   2.268   4.976   5.171  0.9680  0.5223 -0.0270
  108OSM   H11G11082   2.277   4.853   5.039 -0.1287  1.1001  0.2535
  108OSM   C12F11083   2.464   4.895   5.142 -0.4645 -0.1549  0.2659
  108OSM   H12F11084   2.504   4.794   5.123 -0.0057  0.2739 -1.2262
  108OSM   H12G11085   2.512   4.925   5.238  1.9232  2.1706 -1.5160
  108OSM   C13F11086   2.510   5.014   5.043 -0.4820  0.7458 -0.0144
  108OSM   H13F11087   2.479   5.114   5.079 -0.5551  0.9214 -0.5641
  108OSM   H13G11088   2.466   4.993   4.943 -0.6987 -1.9675  0.5720
  108OSM   C14F11089   2.667   5.017   5.024 -0.1164 -0.4102 -0.0840
  108OSM   H14F11090   2.708   4.914   5.038  0.3730 -0.3614 -1.0640
  108OSM   H14G11091   2.716   5.081   5.101  3.4279 -1.8153 -0.9560
  108OSM   C15F11092   2.697   5.061   4.882 -0.3729  0.1499  0.4038
  108OSM   H15F11093   2.803   5.092   4.867 -0.8852  1.9599  0.2621
  108OSM   H15G11094   2.631   5.147   4.858 -0.8817 -1.0404 -3.0023
  108OSM   C16F11095   2.670   4.957   4.771  0.7235 -0.3835 -0.4295
  108OSM   H16F11096   2.577   4.908   4.808 -0.0495  1.6149  0.3985
  108OSM   H16G11097   2.749   4.879   4.765  0.5498 -0.6839  0.9468
  108OSM   C17F11098   2.614   5.015   4.638  0.1428  0.4427  0.3320
  108OSM   H17F11099   2.567   5.115   4.651 -0.2612  1.0349 -3.9841
  108OSM   H17G11100   2.524   4.965   4.595 -0.3594  2.0410 -0.5661
  108OSM   C18F11101   2.717   5.018   4.522  0.5257 -0.2204 -0.1200
  108OSM   H18F11102   2.734   4.910   4.504 -1.4647 -0.2644 -2.1655
  108OSM   H18G11103   2.809   5.075   4.545  0.5946  0.7985 -2.5680
  108OSM   H18H11104   2.672   5.056   4.427 -0.3793 -1.0791 -0.0559
  109OSM      N11105   5.122   0.885   6.588  0.3549  0.4490 -0.4044
  109OSM    C1511106   5.196   0.771   6.516  0.4066  0.6055 -0.2314
  109OSM   H15A11107   5.124   0.699   6.479  1.1403 -1.1389  1.5630
  109OSM   H15B11108   5.265   0.714   6.576  0.5781  0.2561 -0.7538
  109OSM   H15C11109   5.251   0.818   6.436  0.3884 -1.8777 -1.8435
  109OSM    C1411110   5.058   0.837   6.713  0.1069 -0.4157  0.2906
  109OSM   H14A11111   5.140   0.822   6.782  0.6777  0.1638 -0.2471
  109OSM   H14B11112   4.999   0.747   6.703  1.5055 -1.2273 -0.9806
  109OSM   H14C11113   4.996   0.910   6.763 -0.6499 -0.2487 -0.8560
  109OSM    C1311114   5.216   0.993   6.626 -0.2873  0.3554  0.2523
  109OSM   H13A11115   5.287   1.011   6.547  0.6023 -0.1687  0.9052
  109OSM   H13B11116   5.279   0.973   6.711 -0.7168  2.1269  1.0138
  109OSM   H13C11117   5.158   1.078   6.656 -1.4581 -0.0141 -0.8783
  109OSM    C1211118   5.026   0.945   6.488  0.6257  1.1941 -0.6107
  109OSM   H12A11119   4.960   0.865   6.461  2.1654 -0.6149  0.6981
  109OSM   H12B11120   5.074   0.971   6.395 -1.6956 -0.0625 -2.2477
  109OSM    C1111121   4.938   1.061   6.536  0.3204 -0.3694 -0.3176
  109OSM   H11A11122   4.883   1.099   6.447  0.0179 -0.0451  0.0059
  109OSM   H11B11123   5.005   1.141   6.573 -0.0581 -0.2538  0.1325
  109OSM      P11124   4.712   0.957   6.596  0.1768  0.1604  0.3502
  109OSM    O1311125   4.646   0.901   6.719 -1.1120 -0.1510  0.3494
  109OSM    O1411126   4.643   1.049   6.506 -0.3149 -0.7809 -0.0073
  109OSM    O1111127   4.762   0.836   6.507  0.2420  0.0429  0.7526
  109OSM    O1211128   4.847   1.027   6.638 -0.1007  0.4333 -0.6487
  109OSM    C1S11129   4.686   0.781   6.400  0.4559  0.9190  0.0203
  109OSM    H1S11130   4.635   0.859   6.340 -0.8955  0.6223  0.7351
  109OSM    H1T11131   4.600   0.723   6.439 -0.9791  1.1477 -2.6269
  109OSM     NF11132   4.698   0.653   6.180  0.4041 -0.5018 -0.5973
  109OSM    HNF11133   4.657   0.563   6.173  0.2194 -0.4491 -0.2308
  109OSM    C2S11134   4.774   0.687   6.303 -0.1255 -0.4678 -0.1499
  109OSM    H2S11135   4.868   0.739   6.275 -0.9636  1.1922 -0.0310
  109OSM    C3S11136   4.811   0.569   6.392  0.2318  0.4117  0.3840
  109OSM    H3S11137   4.715   0.542   6.440 -0.1188  2.1074  0.6869
  109OSM     O311138   4.884   0.606   6.508 -0.1553  0.3081  0.0490
  109OSM    HO311139   4.847   0.691   6.530 -4.2446 -0.7764 -1.7349
  109OSM    C4S11140   4.873   0.463   6.299 -0.5989 -0.1374  0.1005
  109OSM    H4S11141   4.804   0.381   6.273  0.2370 -0.6959 -0.4090
  109OSM    C5S11142   5.002   0.446   6.268  0.7106 -0.4185 -0.1233
  109OSM    H5S11143   5.081   0.517   6.299  0.5246 -1.5298  3.3434
  109OSM    C6S11144   5.036   0.340   6.163 -0.4399 -0.2280 -0.5845
  109OSM    H6S11145   4.962   0.258   6.168 -0.2113 -0.3617  1.0663
  109OSM    H6T11146   5.141   0.309   6.185 -0.4833 -0.7964 -1.1572
  109OSM    C7S11147   5.055   0.397   6.024 -0.5094 -0.1033  0.3526
  109OSM    H7S11148   5.108   0.327   5.956  0.0270  0.4377  0.2122
  109OSM    H7T11149   5.124   0.483   6.028 -0.6603  0.1263 -1.2566
  109OSM    C8S11150   4.931   0.460   5.950 -0.2196 -0.0105 -0.3992
  109OSM    H8S11151   4.881   0.519   6.029 -0.4586 -0.6306 -0.0806
  109OSM    H8T11152   4.865   0.375   5.920 -1.6107  0.6778  0.6413
  109OSM    C9S11153   4.975   0.550   5.831  0.5856  0.6368 -0.2413
  109OSM    H9S11154   5.067   0.604   5.863  1.7608 -2.4429  2.0671
  109OSM    H9T11155   4.899   0.627   5.805 -1.1574 -0.8198  0.3227
  109OSM   C10S11156   5.014   0.464   5.703 -0.3392  0.4413  0.6633
  109OSM   H10S11157   4.931   0.396   5.675 -0.1428  0.3296  0.3598
  109OSM   H10T11158   5.111   0.416   5.726  0.0801  1.2555  0.6281
  109OSM   C11S11159   5.030   0.555   5.582  0.1484  0.1058 -0.4648
  109OSM   H11S11160   5.105   0.631   5.612 -0.4296  0.5733 -0.2070
  109OSM   H11T11161   4.933   0.600   5.554  0.0443  1.3773  1.7449
  109OSM   C12S11162   5.071   0.473   5.455 -0.2973  0.1258 -0.5099
  109OSM   H12S11163   5.006   0.383   5.448  0.9555 -0.7489 -1.2677
  109OSM   H12T11164   5.176   0.450   5.483 -0.0298  0.0644 -1.5403
  109OSM   C13S11165   5.059   0.553   5.327  0.2098 -0.6834  0.3457
  109OSM   H13S11166   5.115   0.649   5.334 -0.4089 -0.3919  1.6422
  109OSM   H13T11167   4.953   0.578   5.306  0.4905 -0.2757 -0.6566
  109OSM   C14S11168   5.116   0.475   5.203  0.3417 -0.0535 -0.1950
  109OSM   H14S11169   5.079   0.371   5.197  1.4195 -0.3688 -1.9506
  109OSM   H14T11170   5.225   0.462   5.223  0.5909  0.1108 -1.3659
  109OSM   C15S11171   5.095   0.540   5.072 -0.1162 -0.5345  0.6966
  109OSM   H15S11172   5.114   0.650   5.070 -1.0554 -0.3775 -1.0136
  109OSM   H15T11173   4.986   0.536   5.053  0.0353 -0.6974 -0.1492
  109OSM   C16S11174   5.183   0.475   4.964  0.5085 -0.2535  0.0664
  109OSM   H16S11175   5.148   0.369   4.964  2.0902 -0.8373  2.0484
  109OSM   H16T11176   5.289   0.471   4.997  1.4097  0.5754 -2.5063
  109OSM   C17S11177   5.166   0.537   4.823 -0.0420 -0.4433 -0.4650
  109OSM   H17S11178   5.261   0.513   4.771  0.9729  0.5073  0.8780
  109OSM   H17T11179   5.168   0.647   4.835  1.0665 -0.5840  0.7559
  109OSM   C18S11180   5.039   0.502   4.740 -1.1897 -0.3046 -0.3587
  109OSM   H18S11181   4.947   0.523   4.799 -0.7744 -2.5014  1.1686
  109OSM   H18T11182   5.040   0.398   4.704  3.4859 -1.0087  1.0467
  109OSM   H18U11183   5.050   0.583   4.664  0.7146  0.4098  0.5835
  109OSM    C1F11184   4.679   0.737   6.081  0.4128  0.2521 -0.1485
  109OSM     OF11185   4.720   0.853   6.097  0.1658 -0.0431  0.3496
  109OSM    C2F11186   4.592   0.699   5.958 -0.2072 -0.1406 -0.0627
  109OSM    H2F11187   4.486   0.712   5.985  0.6877  0.1664  3.8673
  109OSM    H2G11188   4.613   0.591   5.946  2.5076  0.3609 -0.7619
  109OSM    C3F11189   4.628   0.788   5.832 -0.0811  0.6848 -0.3496
  109OSM    H3F11190   4.739   0.784   5.817 -0.0793 -3.3135 -0.4736
  109OSM    H3G11191   4.580   0.886   5.849 -1.2727  0.1080 -0.2983
  109OSM    C4F11192   4.569   0.699   5.708  0.1323 -0.1934 -0.6142
  109OSM    H4F11193   4.458   0.702   5.713  0.1819  0.9425  0.4590
  109OSM    H4G11194   4.598   0.592   5.710 -2.5911 -0.9950  0.2335
  109OSM    C5F11195   4.614   0.774   5.582 -0.0400  0.3074 -0.2613
  109OSM    H5F11196   4.725   0.776   5.576 -0.0790  0.3277 -0.9757
  109OSM    H5G11197   4.563   0.872   5.590 -2.9164 -1.0546 -0.6908
  109OSM    C6F11198   4.557   0.718   5.455 -0.0273  0.1558 -0.3547
  109OSM    H6F11199   4.447   0.706   5.458  0.1353 -1.7183 -0.8259
  109OSM    H6G11200   4.585   0.611   5.449  0.7897  0.3364  0.0885
  109OSM    C7F11201   4.604   0.791   5.332  0.6126  0.1367  0.4444
  109OSM    H7F11202   4.715   0.797   5.333  0.6193  0.2387 -0.2667
  109OSM    H7G11203   4.563   0.894   5.334  0.3489  0.0430  0.0720
  109OSM    C8F11204   4.569   0.711   5.205 -0.5610 -1.0749  0.0883
  109OSM    H8F11205   4.593   0.779   5.120 -0.6369  1.1840  1.7769
  109OSM    H8G11206   4.458   0.704   5.208 -0.6778  0.8388  2.1858
  109OSM    C9F11207   4.622   0.570   5.183  0.1728 -0.3106  0.3219
  109OSM    H9F11208   4.661   0.523   5.274  2.3834  0.1410 -0.3429
  109OSM   C10F11209   4.639   0.497   5.068  0.0282  0.1941 -0.8236
  109OSM   H10F11210   4.699   0.405   5.073  1.9591  1.4395  0.3809
  109OSM   C11F11211   4.613   0.551   4.926  0.3513  0.3474 -0.8411
  109OSM   H11F11212   4.706   0.550   4.864  1.2647 -0.8533  0.4928
  109OSM   H11G11213   4.572   0.655   4.921 -0.2940  0.1770  0.5622
  109OSM   C12F11214   4.530   0.444   4.847  0.4190 -0.4265  1.1538
  109OSM   H12F11215   4.435   0.427   4.902  0.4715  1.7651  2.0426
  109OSM   H12G11216   4.585   0.348   4.853 -0.0850 -0.6560  2.6888
  109OSM   C13F11217   4.508   0.483   4.700  0.1395  0.2397 -0.9147
  109OSM   H13F11218   4.477   0.406   4.626 -0.9820  1.2180 -1.5022
  109OSM   H13G11219   4.602   0.531   4.664  0.5020  0.8882  0.8075
  109OSM   C14F11220   4.402   0.589   4.679 -0.8172 -0.3487 -0.9418
  109OSM   H14F11221   4.438   0.683   4.727 -0.4526 -1.0812  0.2655
  109OSM   H14G11222   4.314   0.562   4.741  0.7845  0.5962  1.9576
  109OSM   C15F11223   4.363   0.625   4.533  0.1073 -0.2105 -0.2233
  109OSM   H15F11224   4.266   0.680   4.533  1.0061  1.4826 -1.7754
  109OSM   H15G11225   4.358   0.527   4.481  1.6453 -0.0436 -0.7292
  109OSM   C16F11226   4.465   0.714   4.451  1.1826  0.9984 -0.1707
  109OSM   H16F11227   4.567   0.673   4.465 -0.1342 -1.7530  2.5207
  109OSM   H16G11228   4.464   0.814   4.499  0.0561  0.2152  1.5294
  109OSM   C17F11229   4.433   0.709   4.299 -0.7056 -1.1203 -0.3195
  109OSM   H17F11230   4.324   0.694   4.289 -0.9678 -0.1736  0.8888
  109OSM   H17G11231   4.489   0.624   4.254  1.2054  0.0863 -0.3342
  109OSM   C18F11232   4.499   0.826   4.233 -0.5816  0.0346  0.3397
  109OSM   H18F11233   4.609   0.835   4.239 -0.3503 -1.3916 -1.0147
  109OSM   H18G11234   4.464   0.919   4.283 -1.0419 -0.4119  0.8593
  109OSM   H18H11235   4.472   0.840   4.126  2.1896 -0.0016 -0.4378
  110OSM      N11236   5.901   5.889   6.898  0.6201 -0.2175  0.4568
  110OSM    C1511237   5.790   5.806   6.951  0.5273  0.0283 -0.5020
  110OSM   H15A11238   5.802   5.792   7.058  1.1345 -1.2852 -0.7184
  110OSM   H15B11239   5.785   5.713   6.896  0.9554 -0.9655  1.0540
  110OSM   H15C11240   5.694   5.852   6.935  0.5264  0.8334  1.4619
  110OSM    C1411241   5.876   6.021   6.961  0.0242 -0.0303  0.1920
  110OSM   H14A11242   5.903   6.023   7.065  1.9496  3.8676 -0.1883
  110OSM   H14B11243   5.772   6.049   6.953  0.7965  2.6657 -2.8318
  110OSM   H14C11244   5.939   6.093   6.911  1.4413 -0.1329  1.7763
  110OSM    C1311245   6.038   5.833   6.931  0.2103  0.2067  0.1473
  110OSM   H13A11246   6.121   5.891   6.893  2.9036 -2.9173  0.8470
  110OSM   H13B11247   6.040   5.734   6.888 -1.6531  0.3052 -0.2881
  110OSM   H13C11248   6.046   5.817   7.038  1.3350 -2.3771 -0.2535
  110OSM    C1211249   5.885   5.897   6.749 -0.2992 -0.9759 -0.0892
  110OSM   H12A11250   5.950   5.976   6.716 -1.2794  1.0606  2.4924
  110OSM   H12B11251   5.789   5.941   6.724 -0.8079  0.1205  3.2730
  110OSM    C1111252   5.912   5.771   6.664  0.0264  0.3225 -0.3042
  110OSM   H11A11253   5.859   5.789   6.568 -1.9875 -0.8685  0.4988
  110OSM   H11B11254   5.851   5.691   6.711 -1.9829  2.4872  1.0064
  110OSM      P11255   6.161   5.826   6.579  0.0478  0.2816 -0.0400
  110OSM    O1311256   6.131   5.967   6.590  0.3456  0.4487 -0.0320
  110OSM    O1411257   6.287   5.785   6.642  1.1201 -0.0974  0.1793
  110OSM    O1111258   6.162   5.785   6.430 -0.1582  0.4398 -0.5837
  110OSM    O1211259   6.048   5.729   6.641  0.2257  0.1914  0.0483
  110OSM    C1S11260   6.268   5.799   6.343  0.5808  0.7886  0.3750
  110OSM    H1S11261   6.361   5.755   6.385 -0.5804 -0.0632  2.1765
  110OSM    H1T11262   6.275   5.910   6.334 -0.6879  0.8249 -0.4894
  110OSM     NF11263   6.354   5.755   6.120  0.9807 -0.5223 -0.5691
  110OSM    HNF11264   6.374   5.851   6.101 -0.8618  0.1795  0.7752
  110OSM    C2S11265   6.231   5.740   6.202 -0.0343 -0.4978  0.1272
  110OSM    H2S11266   6.198   5.634   6.211 -0.1321 -0.6361 -1.5220
  110OSM    C3S11267   6.101   5.811   6.143  0.4474  0.1947 -0.2558
  110OSM    H3S11268   6.120   5.920   6.134  0.8846  0.6645  4.1894
  110OSM     O311269   5.987   5.809   6.233 -0.0122  0.2673  0.5272
  110OSM    HO311270   6.028   5.778   6.314 -1.4337 -2.5751  0.2884
  110OSM    C4S11271   6.059   5.757   6.009  0.2213 -0.0543  0.4713
  110OSM    H4S11272   6.066   5.647   6.015 -0.9422 -0.1015  1.3309
  110OSM    C5S11273   6.039   5.827   5.895  0.9581 -0.1971 -0.4799
  110OSM    H5S11274   6.055   5.936   5.891 -2.0015  0.4557  2.0123
  110OSM    C6S11275   5.994   5.767   5.765 -0.1320 -0.1320  0.6419
  110OSM    H6S11276   5.935   5.844   5.710  0.4521 -1.2110 -1.6451
  110OSM    H6T11277   5.931   5.677   5.782  0.7917 -0.7904  0.6675
  110OSM    C7S11278   6.119   5.732   5.682 -0.0656 -0.1857 -0.6690
  110OSM    H7S11279   6.188   5.664   5.737 -0.3393 -0.1591 -0.2838
  110OSM    H7T11280   6.183   5.822   5.671  0.0012  0.0530  1.2201
  110OSM    C8S11281   6.088   5.662   5.555  0.1521 -0.1381  0.7548
  110OSM    H8S11282   6.069   5.741   5.479 -0.7890 -2.2528 -1.3181
  110OSM    H8T11283   5.995   5.602   5.559 -0.2557  0.4625  0.5221
  110OSM    C9S11284   6.199   5.576   5.495 -0.3905  0.2137  0.0062
  110OSM    H9S11285   6.192   5.479   5.548  0.0138 -0.9576 -1.9745
  110OSM    H9T11286   6.303   5.615   5.500  0.2181 -1.2482 -0.5759
  110OSM   C10S11287   6.177   5.551   5.344  0.0528 -0.5828 -0.1508
  110OSM   H10S11288   6.271   5.516   5.296  0.2316 -0.6216  0.2232
  110OSM   H10T11289   6.148   5.654   5.315 -1.4087  0.1900  3.5010
  110OSM   C11S11290   6.056   5.454   5.316  0.1357  0.0277  0.1734
  110OSM   H11S11291   5.969   5.474   5.382  0.7466 -2.2678  1.7959
  110OSM   H11T11292   6.102   5.355   5.339  2.4387  1.1283  0.6295
  110OSM   C12S11293   6.016   5.459   5.167 -0.3182 -0.0566  0.0100
  110OSM   H12S11294   6.112   5.432   5.118 -0.3284  1.1896 -0.7322
  110OSM   H12T11295   5.996   5.566   5.146  0.7819 -0.2848 -2.7246
  110OSM   C13S11296   5.898   5.365   5.135  0.4291  0.4059  0.1710
  110OSM   H13S11297   5.811   5.400   5.195  0.4351  1.6753 -0.5291
  110OSM   H13T11298   5.924   5.260   5.161 -0.6364  0.8063  3.3673
  110OSM   C14S11299   5.863   5.366   4.984 -0.4201  0.4716 -0.5195
  110OSM   H14S11300   5.960   5.371   4.931  0.9365  0.0402  1.7722
  110OSM   H14T11301   5.800   5.451   4.950  1.1453  1.7712 -0.2765
  110OSM   C15S11302   5.797   5.237   4.943 -0.2043  0.0990  0.0369
  110OSM   H15S11303   5.707   5.231   5.007  0.7453  0.4395  1.4664
  110OSM   H15T11304   5.855   5.145   4.969 -0.2845 -0.0819 -0.4159
  110OSM   C16S11305   5.761   5.232   4.797  0.3888 -0.4392 -0.5986
  110OSM   H16S11306   5.842   5.184   4.738 -0.6195 -1.6661 -1.0308
  110OSM   H16T11307   5.745   5.329   4.745  0.6288  0.4380  0.9087
  110OSM   C17S11308   5.640   5.139   4.774  0.5830  0.5304  0.8367
  110OSM   H17S11309   5.550   5.182   4.823 -0.7695 -0.8183 -0.3711
  110OSM   H17T11310   5.661   5.040   4.822 -3.6146 -0.6158  0.6976
  110OSM   C18S11311   5.612   5.118   4.624 -0.1939  0.1126 -0.8151
  110OSM   H18S11312   5.546   5.033   4.597  0.4094 -0.9699  1.0199
  110OSM   H18T11313   5.709   5.102   4.574 -0.0389 -3.0561  0.3299
  110OSM   H18U11314   5.577   5.217   4.585  2.1800  1.4863  0.3008
  110OSM    C1F11315   6.451   5.675   6.145 -0.3636 -0.0901  0.0466
  110OSM     OF11316   6.442   5.573   6.214 -0.9830 -0.1383  0.2411
  110OSM    C2F11317   6.587   5.730   6.104 -1.0858  0.3597  0.3269
  110OSM    H2F11318   6.643   5.748   6.199 -2.7572 -1.6801  1.8111
  110OSM    H2G11319   6.572   5.830   6.059 -1.0684  0.8420  1.3718
  110OSM    C3F11320   6.672   5.642   6.007 -0.4603 -0.4903  0.5630
  110OSM    H3F11321   6.696   5.547   6.060 -0.6925  0.2097  1.9873
  110OSM    H3G11322   6.766   5.701   5.999 -2.4230  2.9249  0.8882
  110OSM    C4F11323   6.605   5.623   5.874 -0.8916  0.3185  0.3786
  110OSM    H4F11324   6.517   5.556   5.878 -0.7007 -0.2405 -2.5296
  110OSM    H4G11325   6.680   5.565   5.815 -2.9060 -0.5105 -1.4964
  110OSM    C5F11326   6.593   5.761   5.787 -0.0534 -0.6463  0.1360
  110OSM    H5F11327   6.688   5.818   5.784  0.1455 -1.0228 -0.8499
  110OSM    H5G11328   6.512   5.818   5.839  0.1766 -1.6672  1.6796
  110OSM    C6F11329   6.542   5.732   5.646  0.3982 -0.3374 -0.2272
  110OSM    H6F11330   6.453   5.667   5.661  0.4773 -0.0935  1.5470
  110OSM    H6G11331   6.626   5.682   5.593 -1.9444 -1.9586 -2.7277
  110OSM    C7F11332   6.508   5.861   5.572  0.1689  0.6994  0.6019
  110OSM    H7F11333   6.603   5.917   5.562  0.2434  1.2132  3.3786
  110OSM    H7G11334   6.437   5.911   5.641 -0.3377  0.6138  0.1451
  110OSM    C8F11335   6.436   5.861   5.427 -0.1358  1.1416 -0.3574
  110OSM    H8F11336   6.439   5.963   5.382  0.6052  0.9472 -0.7632
  110OSM    H8G11337   6.332   5.830   5.451  0.8658 -0.3390  2.5041
  110OSM    C9F11338   6.509   5.766   5.338 -0.8580  0.4700 -0.0732
  110OSM    H9F11339   6.568   5.690   5.392 -1.1155  0.4416  0.1711
  110OSM   C10F11340   6.498   5.765   5.203 -0.4867 -0.0185 -0.2462
  110OSM   H10F11341   6.551   5.695   5.138  0.7927  2.5054 -2.1005
  110OSM   C11F11342   6.411   5.854   5.115 -0.0033  0.6564  0.1409
  110OSM   H11F11343   6.465   5.911   5.037 -0.7119 -0.1709 -0.9734
  110OSM   H11G11344   6.352   5.921   5.182 -1.0962 -2.6333  2.7374
  110OSM   C12F11345   6.300   5.764   5.054 -0.3338 -0.3022  0.3722
  110OSM   H12F11346   6.223   5.742   5.131  2.0594  0.4617  3.1616
  110OSM   H12G11347   6.335   5.666   5.014 -0.7804 -0.0952 -0.5365
  110OSM   C13F11348   6.238   5.830   4.926  0.3034 -0.5619  1.0105
  110OSM   H13F11349   6.320   5.849   4.854  0.3450  0.2188  1.2555
  110OSM   H13G11350   6.199   5.932   4.945  2.1340  0.2394  0.6878
  110OSM   C14F11351   6.129   5.750   4.877  0.4494 -0.5915 -0.4480
  110OSM   H14F11352   6.056   5.755   4.961  1.1342  0.2449  0.1271
  110OSM   H14G11353   6.146   5.642   4.863  0.0737 -0.9710  1.7230
  110OSM   C15F11354   6.070   5.823   4.754 -0.3529  0.0804  0.6577
  110OSM   H15F11355   6.125   5.799   4.660 -4.6843 -0.8408 -1.9300
  110OSM   H15G11356   6.056   5.931   4.776  1.7729  0.0837  2.2525
  110OSM   C16F11357   5.931   5.777   4.716 -0.2290 -0.0189 -0.3812
  110OSM   H16F11358   5.865   5.814   4.798  2.2931  2.5874  0.6722
  110OSM   H16G11359   5.923   5.666   4.721 -4.0543  0.1725  1.2602
  110OSM   C17F11360   5.884   5.826   4.576 -0.5655 -0.0404  0.1659
  110OSM   H17F11361   5.956   5.813   4.493 -1.5456  3.4393 -1.4375
  110OSM   H17G11362   5.873   5.937   4.570 -0.1650 -0.0466 -0.9160
  110OSM   C18F11363   5.747   5.771   4.539  0.0728 -0.2775  0.2123
  110OSM   H18F11364   5.680   5.799   4.623  0.8604  1.1231  0.4122
  110OSM   H18G11365   5.748   5.660   4.539  0.2264 -0.3278  2.9424
  110OSM   H18H11366   5.716   5.813   4.440 -1.2150  1.1896  1.1858
  111OSM      N11367   3.718   3.527   6.738  0.1364 -0.6982  0.3700
  111OSM    C1511368   3.803   3.632   6.677  0.0649 -0.6917 -0.1176
  111OSM   H15A11369   3.840   3.599   6.580  0.2011 -1.8070  0.2914
  111OSM   H15B11370   3.897   3.653   6.726  0.3832 -0.4344 -0.8214
  111OSM   H15C11371   3.747   3.719   6.648  0.9274 -0.8631 -2.5383
  111OSM    C1411372   3.798   3.409   6.785 -0.2462  0.2787 -0.0625
  111OSM   H14A11373   3.848   3.356   6.705  0.2853 -1.3887  1.3247
  111OSM   H14B11374   3.727   3.337   6.822  0.5678 -0.6164 -0.2263
  111OSM   H14C11375   3.871   3.437   6.859  0.9863 -0.5823 -0.9261
  111OSM    C1311376   3.667   3.576   6.867  0.4968 -0.2011 -0.2470
  111OSM   H13A11377   3.618   3.492   6.915  1.2490  0.4193  1.7139
  111OSM   H13B11378   3.589   3.651   6.860 -0.5964 -1.0870  1.5761
  111OSM   H13C11379   3.743   3.607   6.938  1.7835  0.5289 -1.8874
  111OSM    C1211380   3.610   3.492   6.635  0.3175 -0.0026  0.4899
  111OSM   H12A11381   3.551   3.581   6.618 -0.7340 -0.7833 -0.1158
  111OSM   H12B11382   3.545   3.420   6.683  1.2401 -0.6709  0.7741
  111OSM    C1111383   3.647   3.438   6.497 -0.3566 -0.0238 -0.1464
  111OSM   H11A11384   3.698   3.521   6.442  0.3468  0.7924  1.6561
  111OSM   H11B11385   3.558   3.410   6.437 -0.6285  1.0403 -0.2566
  111OSM      P11386   3.682   3.175   6.534  0.0890 -0.4601  0.2467
  111OSM    O1311387   3.804   3.093   6.568 -0.3195  0.1706 -0.8172
  111OSM    O1411388   3.576   3.181   6.641  0.2854 -0.5224  0.1034
  111OSM    O1111389   3.613   3.127   6.390 -0.3288 -0.1569  0.4943
  111OSM    O1211390   3.737   3.329   6.507  0.3586  0.5619  0.0840
  111OSM    C1S11391   3.714   3.130   6.284  0.1755 -0.3889 -0.1863
  111OSM    H1S11392   3.791   3.052   6.302 -1.5599 -2.3182 -0.7870
  111OSM    H1T11393   3.755   3.233   6.275 -1.2318  0.0490 -2.4465
  111OSM     NF11394   3.749   3.073   6.047  0.5912  0.1300  0.1338
  111OSM    HNF11395   3.773   3.137   5.974  0.4184 -0.2559 -0.2679
  111OSM    C2S11396   3.645   3.113   6.150 -0.9461  0.1643  0.0638
  111OSM    H2S11397   3.571   3.031   6.162  0.1543 -0.8427  0.1995
  111OSM    C3S11398   3.565   3.247   6.110  0.9823 -0.1873  0.0921
  111OSM    H3S11399   3.637   3.320   6.067  0.7504  1.3703  2.1547
  111OSM     O311400   3.497   3.305   6.222 -0.5000  0.0311  0.3858
  111OSM    HO311401   3.507   3.236   6.288 -2.3124  1.1518  1.9186
  111OSM    C4S11402   3.473   3.225   5.988 -0.0659 -0.1202  0.1182
  111OSM    H4S11403   3.532   3.228   5.895 -0.0582  1.3205  0.1446
  111OSM    C5S11404   3.346   3.193   5.982  0.2301 -0.0342  0.3692
  111OSM    H5S11405   3.286   3.180   6.073 -0.1302 -1.6300 -0.0673
  111OSM    C6S11406   3.269   3.168   5.856 -0.1472 -0.3504 -0.2652
  111OSM    H6S11407   3.192   3.248   5.860 -2.2457 -2.2472 -0.3980
  111OSM    H6T11408   3.240   3.061   5.853  1.0403 -0.6633 -1.2615
  111OSM    C7S11409   3.344   3.193   5.718  0.0421  1.0134  0.1234
  111OSM    H7S11410   3.427   3.124   5.691 -1.5656 -0.5226 -1.1661
  111OSM    H7T11411   3.382   3.297   5.714 -1.2018  1.5608  1.5713
  111OSM    C8S11412   3.239   3.169   5.611 -0.0288 -0.3551 -0.4893
  111OSM    H8S11413   3.163   3.243   5.642  1.7264  0.4049  2.4068
  111OSM    H8T11414   3.191   3.070   5.626  1.1693 -0.6516  2.0039
  111OSM    C9S11415   3.289   3.211   5.474 -0.7502 -0.4037 -0.4557
  111OSM    H9S11416   3.351   3.129   5.432 -0.4382 -1.6516  2.1885
  111OSM    H9T11417   3.344   3.307   5.482 -0.8766 -0.4826  2.0124
  111OSM   C10S11418   3.174   3.231   5.380  0.0243  0.0251  0.5155
  111OSM   H10S11419   3.101   3.303   5.423 -0.4639  0.2626 -0.6563
  111OSM   H10T11420   3.121   3.135   5.365  0.3877  0.0126 -0.8500
  111OSM   C11S11421   3.221   3.280   5.244 -0.2387  1.0212 -0.3579
  111OSM   H11S11422   3.266   3.194   5.190  1.3033  1.6189 -0.0636
  111OSM   H11T11423   3.297   3.360   5.241  0.3160  0.4921 -0.6699
  111OSM   C12S11424   3.093   3.326   5.168  0.3158  0.8435 -0.2270
  111OSM   H12S11425   3.122   3.369   5.070  1.9462 -0.5918 -0.4262
  111OSM   H12T11426   3.052   3.406   5.233 -0.8828  0.1955 -0.1590
  111OSM   C13S11427   2.991   3.209   5.144  0.5316 -0.0541 -0.0856
  111OSM   H13S11428   2.896   3.249   5.103  0.4514 -0.9735 -0.8089
  111OSM   H13T11429   2.962   3.182   5.248  0.4669  0.3522  0.0049
  111OSM   C14S11430   3.030   3.096   5.052  0.0711 -0.5614  0.2237
  111OSM   H14S11431   2.946   3.023   5.055 -0.3504 -0.0584  1.1774
  111OSM   H14T11432   3.120   3.041   5.088  1.7826  0.9965 -1.4569
  111OSM   C15S11433   3.065   3.144   4.904  1.2563 -0.4329 -0.9815
  111OSM   H15S11434   3.104   3.051   4.859 -2.6912 -1.9655 -1.6361
  111OSM   H15T11435   3.143   3.224   4.899  1.4080 -0.5893 -1.1237
  111OSM   C16S11436   2.942   3.204   4.831 -0.1478  0.0369  0.5105
  111OSM   H16S11437   2.928   3.304   4.878 -0.7705 -0.1759  0.7940
  111OSM   H16T11438   2.851   3.143   4.850 -0.3955  0.5031  0.8365
  111OSM   C17S11439   2.969   3.228   4.677 -0.1499 -0.0044 -0.7271
  111OSM   H17S11440   2.873   3.230   4.621  0.3324  0.0283 -1.5633
  111OSM   H17T11441   3.018   3.132   4.649 -0.1682 -0.2549  0.0784
  111OSM   C18S11442   3.044   3.355   4.641  0.0264 -0.2994  0.3764
  111OSM   H18S11443   2.990   3.451   4.656  3.0764  1.1920  2.8457
  111OSM   H18T11444   3.052   3.353   4.530  0.7995  0.1792  0.4181
  111OSM   H18U11445   3.144   3.368   4.687 -0.5598 -2.3984  2.4701
  111OSM    C1F11446   3.806   2.948   6.049  0.6089 -0.7739  0.6267
  111OSM     OF11447   3.766   2.863   6.125  0.1730 -0.4592 -1.0489
  111OSM    C2F11448   3.922   2.932   5.953 -0.4910  0.1449  0.5563
  111OSM    H2F11449   4.020   2.944   6.003  0.0689 -0.5278 -0.3587
  111OSM    H2G11450   3.916   3.014   5.878  2.6743  0.2633  0.3166
  111OSM    C3F11451   3.933   2.790   5.892  0.2958 -0.3583 -0.3920
  111OSM    H3F11452   3.931   2.718   5.977 -2.1882  0.7086  0.5610
  111OSM    H3G11453   4.034   2.792   5.846  0.3942 -0.5857 -0.1888
  111OSM    C4F11454   3.820   2.750   5.800  0.0956 -0.7046  0.1384
  111OSM    H4F11455   3.793   2.843   5.746 -2.1563 -0.6808  1.1896
  111OSM    H4G11456   3.725   2.713   5.845  0.4472 -3.4692 -1.1314
  111OSM    C5F11457   3.861   2.646   5.701 -0.3424  0.3116  0.1855
  111OSM    H5F11458   3.846   2.552   5.757 -0.3403  1.6406  2.5902
  111OSM    H5G11459   3.967   2.660   5.669 -0.3348 -1.0888 -0.4514
  111OSM    C6F11460   3.764   2.630   5.580  0.2869 -0.2286 -0.3010
  111OSM    H6F11461   3.740   2.723   5.524 -0.4913 -1.2344 -1.7105
  111OSM    H6G11462   3.661   2.612   5.617 -0.4595 -0.0771 -2.1741
  111OSM    C7F11463   3.802   2.516   5.479 -0.6631 -0.2331 -0.1566
  111OSM    H7F11464   3.867   2.444   5.534  0.4278 -0.7774 -2.0883
  111OSM    H7G11465   3.869   2.573   5.411 -0.9976 -0.4469 -0.6653
  111OSM    C8F11466   3.684   2.452   5.409 -0.3360 -0.2614 -0.3464
  111OSM    H8F11467   3.599   2.439   5.480 -2.7529 -0.8442 -3.1530
  111OSM    H8G11468   3.707   2.346   5.387  0.2265 -0.0579 -0.7501
  111OSM    C9F11469   3.640   2.519   5.289 -0.0239 -0.1768  0.7473
  111OSM    H9F11470   3.632   2.628   5.301 -0.9824 -0.4044  2.3444
  111OSM   C10F11471   3.625   2.466   5.165 -0.1541  0.4046 -0.6896
  111OSM   H10F11472   3.577   2.521   5.083 -1.2624  0.1421 -0.2356
  111OSM   C11F11473   3.645   2.322   5.119 -0.3119 -0.0802 -0.5390
  111OSM   H11F11474   3.548   2.272   5.099  1.0472 -2.6993 -1.1498
  111OSM   H11G11475   3.693   2.260   5.198  0.6995 -0.2330 -1.2525
  111OSM   C12F11476   3.732   2.304   4.997 -0.2771 -1.0459  0.3759
  111OSM   H12F11477   3.738   2.198   4.963  2.6561 -0.9492  0.3101
  111OSM   H12G11478   3.833   2.320   5.041  0.5799  0.1327 -1.8580
  111OSM   C13F11479   3.708   2.390   4.872 -0.6949 -0.3255 -0.3971
  111OSM   H13F11480   3.683   2.497   4.892  1.1238 -0.0591  0.7522
  111OSM   H13G11481   3.611   2.353   4.833 -0.9351 -0.9783  0.7907
  111OSM   C14F11482   3.823   2.374   4.767  0.2428  0.4549  0.1378
  111OSM   H14F11483   3.838   2.267   4.743 -3.7907 -0.1205 -0.5126
  111OSM   H14G11484   3.906   2.429   4.816  2.2651 -0.4342 -2.1379
  111OSM   C15F11485   3.789   2.432   4.627 -0.2620 -0.5039 -0.2598
  111OSM   H15F11486   3.704   2.373   4.587 -1.9145  0.8212  1.1099
  111OSM   H15G11487   3.876   2.410   4.562 -1.1353  0.2067 -1.7167
  111OSM   C16F11488   3.743   2.576   4.632  0.6876  0.3977  1.3218
  111OSM   H16F11489   3.812   2.629   4.701  3.2187 -1.1407  0.1475
  111OSM   H16G11490   3.644   2.566   4.679 -1.6531  1.7352 -2.7838
  111OSM   C17F11491   3.735   2.638   4.486  0.5732  0.3721 -0.4132
  111OSM   H17F11492   3.664   2.585   4.420  0.5320  1.0101 -0.8861
  111OSM   H17G11493   3.825   2.628   4.421 -0.8346 -2.2221 -2.1258
  111OSM   C18F11494   3.693   2.783   4.497 -0.0873 -0.3910 -0.7002
  111OSM   H18F11495   3.582   2.790   4.501 -0.0226  0.1650  0.6525
  111OSM   H18G11496   3.722   2.821   4.396  1.0915 -0.3534 -0.3591
  111OSM   H18H11497   3.754   2.835   4.574  0.0863 -0.4949 -0.7687
  112OSM      N11498   1.246   0.202   6.445  0.2317  0.1088 -0.2195
  112OSM    C1511499   1.290   0.068   6.394  0.7618 -0.4011  0.1007
  112OSM   H15A11500   1.233  -0.012   6.440  2.3439 -1.4768  0.2905
  112OSM   H15B11501   1.393   0.042   6.413  0.4167 -2.6257 -0.7038
  112OSM   H15C11502   1.274   0.055   6.287 -1.6084 -0.8093  0.4516
  112OSM    C1411503   1.252   0.214   6.595 -0.9007  0.3586 -0.1415
  112OSM   H14A11504   1.348   0.248   6.630 -0.8410 -0.1678  0.2233
  112OSM   H14B11505   1.234   0.112   6.625 -0.5050  0.0034 -1.1085
  112OSM   H14C11506   1.173   0.279   6.633 -1.9397 -0.4831 -0.8150
  112OSM    C1311507   1.322   0.310   6.386  0.1905  0.0322 -0.3754
  112OSM   H13A11508   1.428   0.307   6.409  0.2225 -2.8312 -0.6029
  112OSM   H13B11509   1.286   0.407   6.417  1.2697  0.4290 -0.2944
  112OSM   H13C11510   1.317   0.309   6.279 -0.2179  2.1930 -0.4295
  112OSM    C1211511   1.100   0.225   6.403  0.2333  0.5557  0.3460
  112OSM   H12A11512   1.095   0.267   6.304  1.7038  1.1152  0.4946
  112OSM   H12B11513   1.070   0.306   6.467  0.6318  1.7600 -0.9491
  112OSM    C1111514   1.002   0.108   6.424 -0.8335  0.4235  0.1098
  112OSM   H11A11515   0.899   0.151   6.426 -0.7475  0.6431 -0.0470
  112OSM   H11B11516   1.025   0.077   6.528 -0.5279  0.3890  0.0324
  112OSM      P11517   0.934  -0.131   6.367  0.3134  0.1116  0.2395
  112OSM    O1311518   1.015  -0.252   6.326  0.0334 -0.0947 -0.1537
  112OSM    O1411519   0.897  -0.141   6.512  0.2599  0.5368 -0.1458
  112OSM    O1111520   0.798  -0.133   6.288 -0.3545  0.0580 -0.5407
  112OSM    O1211521   1.015   0.002   6.339  0.4034  0.1647  0.7036
  112OSM    C1S11522   0.765  -0.031   6.190 -0.2334 -0.7422 -0.9109
  112OSM    H1S11523   0.847   0.003   6.123 -0.7340  1.6656 -0.3925
  112OSM    H1T11524   0.727   0.055   6.249 -0.0373 -0.3715 -1.3233
  112OSM     NF11525   0.624   0.024   6.002  0.2766 -0.0285  0.5117
  112OSM    HNF11526   0.546   0.086   6.006 -0.7982 -1.2433 -0.6385
  112OSM    C2S11527   0.644  -0.078   6.105 -0.0335  0.4559 -1.2010
  112OSM    H2S11528   0.664  -0.177   6.058 -2.2019  0.0332 -1.3264
  112OSM    C3S11529   0.522  -0.097   6.200 -0.0067  0.1130 -0.0280
  112OSM    H3S11530   0.506   0.001   6.249  2.3441  0.6859 -0.3032
  112OSM     O311531   0.544  -0.199   6.302 -0.2593  0.5236 -0.1478
  112OSM    HO311532   0.640  -0.207   6.300 -0.1188  1.5786  1.1736
  112OSM    C4S11533   0.396  -0.131   6.122  0.1386 -0.1005 -0.2150
  112OSM    H4S11534   0.347  -0.040   6.085 -1.4878 -1.1002 -0.6579
  112OSM    C5S11535   0.359  -0.244   6.067  1.1265  0.1608  0.7612
  112OSM    H5S11536   0.420  -0.331   6.095  0.6638 -0.6546 -0.6588
  112OSM    C6S11537   0.235  -0.261   5.979 -0.0411  0.0044 -0.0422
  112OSM    H6S11538   0.182  -0.166   5.957  1.6358  1.3565  1.4975
  112OSM    H6T11539   0.163  -0.312   6.047 -1.9396 -0.5657 -2.3425
  112OSM    C7S11540   0.249  -0.349   5.849  0.0482 -0.4960  0.4786
  112OSM    H7S11541   0.243  -0.455   5.880 -1.2301  0.1365  2.5490
  112OSM    H7T11542   0.346  -0.330   5.798  0.6001 -3.9491  0.0490
  112OSM    C8S11543   0.129  -0.324   5.757  0.0095 -0.3088 -0.2927
  112OSM    H8S11544   0.125  -0.223   5.710 -0.2281 -0.2560 -0.1617
  112OSM    H8T11545   0.040  -0.324   5.822 -0.0693  0.3866 -0.3866
  112OSM    C9S11546   0.113  -0.440   5.663 -0.2738 -0.3923 -0.5606
  112OSM    H9S11547   0.030  -0.449   5.591  0.1043  1.1219 -1.2290
  112OSM    H9T11548   0.113  -0.529   5.730  0.3130  0.4660  0.6350
  112OSM   C10S11549   0.225  -0.459   5.558  0.2534 -0.4753 -0.5591
  112OSM   H10S11550   0.313  -0.515   5.595 -0.2087 -1.7248 -1.2676
  112OSM   H10T11551   0.252  -0.356   5.529 -1.9099  0.4897  0.5298
  112OSM   C11S11552   0.175  -0.526   5.437  0.3172 -0.2538  0.7776
  112OSM   H11S11553   0.098  -0.462   5.388  0.1295 -1.6104 -0.8083
  112OSM   H11T11554   0.119  -0.621   5.453 -1.1590  0.5577  0.6295
  112OSM   C12S11555   0.280  -0.574   5.330  0.4145  0.4232 -0.0413
  112OSM   H12S11556   0.299  -0.682   5.347  2.0669  0.5213 -1.0626
  112OSM   H12T11557   0.367  -0.510   5.359 -0.5558  0.7029  2.5356
  112OSM   C13S11558   0.235  -0.539   5.184  0.1453 -0.2977 -0.1254
  112OSM   H13S11559   0.304  -0.566   5.102 -0.7417  2.5781 -1.9872
  112OSM   H13T11560   0.226  -0.429   5.195 -0.8178 -0.5305  1.7484
  112OSM   C14S11561   0.105  -0.607   5.142  0.6556  0.3776 -0.0417
  112OSM   H14S11562   0.026  -0.572   5.212  0.6176 -2.3102  1.3981
  112OSM   H14T11563   0.118  -0.713   5.172 -0.0831  0.4100  0.4112
  112OSM   C15S11564   0.057  -0.586   4.990 -0.6939  0.4938  0.1389
  112OSM   H15S11565  -0.050  -0.613   4.980 -0.3115 -1.1107  0.0608
  112OSM   H15T11566   0.117  -0.642   4.916  0.1138  1.6930 -0.1558
  112OSM   C16S11567   0.078  -0.436   4.941  0.2136 -0.0932 -0.3075
  112OSM   H16S11568   0.184  -0.412   4.921 -0.0538  2.4936  0.9578
  112OSM   H16T11569   0.052  -0.360   5.018 -0.7979 -1.3273  0.6041
  112OSM   C17S11570   0.007  -0.403   4.812 -0.4108  0.0430  0.1574
  112OSM   H17S11571   0.022  -0.297   4.783 -1.5947  0.5128  1.1494
  112OSM   H17T11572  -0.103  -0.419   4.823 -0.0383 -1.9108  1.5747
  112OSM   C18S11573   0.051  -0.488   4.687 -0.0817  0.0217  0.4772
  112OSM   H18S11574   0.159  -0.509   4.679 -0.4320 -1.9465  0.3659
  112OSM   H18T11575   0.011  -0.454   4.589  0.7617 -0.8938 -0.1994
  112OSM   H18U11576   0.008  -0.590   4.692  0.7068 -0.4053 -0.8912
  112OSM    C1F11577   0.714   0.033   5.901 -0.0992  0.4086  1.1081
  112OSM     OF11578   0.811  -0.042   5.893 -0.3791  0.2613 -0.3859
  112OSM    C2F11579   0.688   0.128   5.792 -0.4241  0.0319  0.0074
  112OSM    H2F11580   0.697   0.234   5.821  0.8553  0.6604 -2.3709
  112OSM    H2G11581   0.588   0.107   5.749 -0.6989 -0.1647  0.7380
  112OSM    C3F11582   0.776   0.089   5.675  0.0729 -0.3826  0.1301
  112OSM    H3F11583   0.782  -0.021   5.661 -1.5937 -0.5033  0.1668
  112OSM    H3G11584   0.883   0.118   5.685 -0.0659  0.5059 -0.7545
  112OSM    C4F11585   0.733   0.138   5.539  0.1799  0.0354 -0.1231
  112OSM    H4F11586   0.740   0.248   5.549  2.9873 -0.1854  1.2567
  112OSM    H4G11587   0.625   0.119   5.520  0.4003 -2.6313  0.9220
  112OSM    C5F11588   0.821   0.086   5.422 -0.7533  0.1483  0.0223
  112OSM    H5F11589   0.803  -0.021   5.399 -4.1455  0.4137  0.8822
  112OSM    H5G11590   0.931   0.097   5.438 -0.8705  1.3256  0.1613
  112OSM    C6F11591   0.805   0.144   5.282 -0.0849 -1.1529 -0.1216
  112OSM    H6F11592   0.832   0.252   5.282  0.3968 -1.2711 -0.7470
  112OSM    H6G11593   0.695   0.135   5.267 -0.0325 -0.2320 -1.1872
  112OSM    C7F11594   0.885   0.061   5.181 -0.3444  0.0696 -0.3264
  112OSM    H7F11595   0.830  -0.033   5.161  1.4811 -0.9472 -0.7074
  112OSM    H7G11596   0.980   0.037   5.234 -1.2992 -0.2909  1.2986
  112OSM    C8F11597   0.902   0.136   5.051 -0.8165 -0.3222  0.4626
  112OSM    H8F11598   0.974   0.082   4.986  0.7846  0.9537  1.0941
  112OSM    H8G11599   0.953   0.235   5.060 -0.0902 -0.5552 -0.7501
  112OSM    C9F11600   0.780   0.148   4.958  0.5441  0.1384  0.3228
  112OSM    H9F11601   0.750   0.055   4.908 -1.0227  1.3667 -1.1624
  112OSM   C10F11602   0.699   0.250   4.935 -0.2964 -0.2154  0.1804
  112OSM   H10F11603   0.609   0.239   4.873 -0.0825  1.6974 -0.5543
  112OSM   C11F11604   0.726   0.393   4.975  0.1844  0.5456  0.4137
  112OSM   H11F11605   0.824   0.406   5.025  0.0188 -0.3935  1.0112
  112OSM   H11G11606   0.648   0.421   5.049 -1.7944 -0.2909 -1.2439
  112OSM   C12F11607   0.717   0.511   4.868  0.3886  0.5280  0.0666
  112OSM   H12F11608   0.715   0.599   4.936  0.5945 -1.0221  2.1809
  112OSM   H12G11609   0.625   0.514   4.804  0.9438 -0.7142 -0.8165
  112OSM   C13F11610   0.842   0.507   4.777  0.2589 -0.3218 -0.7275
  112OSM   H13F11611   0.838   0.411   4.720 -1.2482 -0.2655 -0.7586
  112OSM   H13G11612   0.933   0.501   4.840 -0.4249 -0.5028  0.2601
  112OSM   C14F11613   0.844   0.628   4.678  0.1098 -0.2169 -0.1210
  112OSM   H14F11614   0.947   0.662   4.656 -0.9708  1.0212 -3.9737
  112OSM   H14G11615   0.784   0.697   4.741 -1.5393 -2.9382  1.5032
  112OSM   C15F11616   0.773   0.611   4.549  0.3120  0.5891 -0.3046
  112OSM   H15F11617   0.665   0.595   4.572 -0.0676  0.2086 -2.1551
  112OSM   H15G11618   0.830   0.530   4.499  0.9948  0.0850  1.2589
  112OSM   C16F11619   0.793   0.726   4.449 -0.3576 -0.2355 -0.1323
  112OSM   H16F11620   0.747   0.816   4.496 -1.6189 -0.5644 -0.6736
  112OSM   H16G11621   0.732   0.705   4.358 -1.0078 -1.2163  0.5107
  112OSM   C17F11622   0.939   0.759   4.399  0.4786  0.7528  0.8356
  112OSM   H17F11623   0.980   0.663   4.362 -3.0685 -0.4368 -0.4694
  112OSM   H17G11624   0.988   0.786   4.495  0.3045 -1.0863  1.4757
  112OSM   C18F11625   0.945   0.869   4.290 -0.1052  0.1908  0.0398
  112OSM   H18F11626   0.887   0.836   4.200 -1.1110  0.5843  0.5344
  112OSM   H18G11627   1.053   0.883   4.266  0.0490  0.0505  0.6438
  112OSM   H18H11628   0.904   0.965   4.325 -0.7706  0.4190 -1.2798
  113OSM      N11629   2.580   5.313   6.453  0.0604 -0.0249 -0.0006
  113OSM    C1511630   2.699   5.229   6.419 -0.0629 -0.5714 -0.5981
  113OSM   H15A11631   2.781   5.290   6.385  0.4877 -0.1618  1.3028
  113OSM   H15B11632   2.662   5.180   6.331 -2.2134 -0.7116  0.3317
  113OSM   H15C11633   2.725   5.157   6.496  1.8495  0.3679 -0.2869
  113OSM    C1411634   2.473   5.222   6.477  0.6213 -0.4744  0.4347
  113OSM   H14A11635   2.486   5.150   6.556 -0.3203 -1.2064 -0.0590
  113OSM   H14B11636   2.439   5.176   6.385 -0.3742  2.0774 -0.5589
  113OSM   H14C11637   2.381   5.275   6.497 -0.5660 -2.0959 -0.4190
  113OSM    C1311638   2.608   5.387   6.574 -0.3425  0.3918 -0.5464
  113OSM   H13A11639   2.532   5.435   6.634  1.0887 -1.7354  3.3655
  113OSM   H13B11640   2.686   5.459   6.559 -1.1560  1.8353  1.5888
  113OSM   H13C11641   2.631   5.319   6.655  0.9751 -0.0755 -1.2849
  113OSM    C1211642   2.535   5.409   6.341 -0.5607 -0.6810 -0.4590
  113OSM   H12A11643   2.446   5.459   6.377 -0.3060 -0.3274 -0.3180
  113OSM   H12B11644   2.506   5.356   6.252 -1.0425  0.7252 -1.1584
  113OSM    C1111645   2.637   5.508   6.279 -0.6223 -0.0082 -0.3009
  113OSM   H11A11646   2.606   5.533   6.175  1.7120  2.5600 -0.4853
  113OSM   H11B11647   2.736   5.457   6.275  0.3804  1.2476  3.9444
  113OSM      P11648   2.551   5.734   6.401  0.0093  0.0275  0.1363
  113OSM    O1311649   2.474   5.692   6.515 -0.0825 -0.1802  0.3514
  113OSM    O1411650   2.623   5.865   6.413  0.2570 -0.5212 -0.2294
  113OSM    O1111651   2.453   5.735   6.270  0.3526 -0.4433 -0.0328
  113OSM    O1211652   2.656   5.625   6.360  0.3113 -0.0822 -0.4217
  113OSM    C1S11653   2.447   5.847   6.178  0.4375  0.2093  0.0834
  113OSM    H1S11654   2.526   5.922   6.202  2.6253 -1.8460 -0.2339
  113OSM    H1T11655   2.350   5.900   6.183  0.4969  0.5808 -1.8255
  113OSM     NF11656   2.463   5.913   5.943  0.3453 -0.4285  0.3343
  113OSM    HNF11657   2.386   5.925   5.881  0.4610 -1.4859 -0.0344
  113OSM    C2S11658   2.465   5.798   6.029 -0.1126 -0.5098  0.4040
  113OSM    H2S11659   2.563   5.746   6.032  0.2535 -0.0130 -1.4415
  113OSM    C3S11660   2.353   5.693   5.999  0.7330  0.0486  0.9244
  113OSM    H3S11661   2.258   5.750   6.005  0.7101  0.3248 -1.1255
  113OSM     O311662   2.328   5.590   6.093 -0.9092 -0.1765 -0.4125
  113OSM    HO311663   2.388   5.621   6.161  0.7745  0.4412 -2.0764
  113OSM    C4S11664   2.359   5.649   5.857 -0.1363  0.0374  0.5056
  113OSM    H4S11665   2.302   5.719   5.794  0.3330  0.7259  0.8361
  113OSM    C5S11666   2.425   5.536   5.805 -0.4609  0.8496 -0.3295
  113OSM    H5S11667   2.484   5.478   5.878 -3.2383 -1.8514 -0.0745
  113OSM    C6S11668   2.433   5.503   5.656 -0.2782  0.5456 -0.4776
  113OSM    H6S11669   2.540   5.494   5.626  0.1768 -1.5686  1.4981
  113OSM    H6T11670   2.396   5.582   5.588 -3.5186  0.4066  0.9567
  113OSM    C7S11671   2.351   5.382   5.636  0.3480  0.0363 -0.0034
  113OSM    H7S11672   2.245   5.414   5.638  0.0017 -0.8317 -2.1367
  113OSM    H7T11673   2.370   5.308   5.717  0.9963 -0.4654 -0.5968
  113OSM    C8S11674   2.359   5.315   5.491 -0.4991 -0.7040  0.0291
  113OSM    H8S11675   2.295   5.225   5.478 -0.7254 -1.4380  4.5541
  113OSM    H8T11676   2.462   5.276   5.494  0.1388  0.9329  1.1075
  113OSM    C9S11677   2.333   5.409   5.375 -0.6124 -0.8803 -0.4588
  113OSM    H9S11678   2.407   5.492   5.378  1.6251 -2.7543 -0.9671
  113OSM    H9T11679   2.231   5.453   5.383  0.0612  0.6008  0.8345
  113OSM   C10S11680   2.335   5.334   5.245  0.9072 -0.0782  0.8721
  113OSM   H10S11681   2.260   5.253   5.253  0.2497  0.4406  0.1334
  113OSM   H10T11682   2.434   5.283   5.238  1.3147  0.3260  3.0175
  113OSM   C11S11683   2.311   5.415   5.112  0.6553 -0.1319  0.9620
  113OSM   H11S11684   2.386   5.497   5.113  0.5624 -0.0491  1.3321
  113OSM   H11T11685   2.211   5.465   5.120  0.3398 -0.7287  0.7930
  113OSM   C12S11686   2.320   5.319   4.994  0.6338 -0.0915 -0.2288
  113OSM   H12S11687   2.275   5.222   5.025  0.4076 -0.3283 -1.2747
  113OSM   H12T11688   2.427   5.291   4.978  0.6515 -1.0974  1.3414
  113OSM   C13S11689   2.261   5.376   4.867 -0.1665  0.8277  0.3441
  113OSM   H13S11690   2.337   5.442   4.821 -2.2721  0.8570 -3.5025
  113OSM   H13T11691   2.164   5.429   4.883 -0.3935  1.4623 -2.5195
  113OSM   C14S11692   2.230   5.260   4.767 -0.3235  0.1046  0.2614
  113OSM   H14S11693   2.153   5.186   4.796 -0.3481 -0.3874 -0.9894
  113OSM   H14T11694   2.323   5.199   4.756  0.1892  0.4316  2.3302
  113OSM   C15S11695   2.194   5.320   4.627  0.0284 -0.2542  0.5124
  113OSM   H15S11696   2.249   5.415   4.610  0.0725  0.1712  2.6902
  113OSM   H15T11697   2.084   5.335   4.616 -0.0825  1.6498  3.2009
  113OSM   C16S11698   2.242   5.229   4.510 -0.5122 -0.3756 -0.9516
  113OSM   H16S11699   2.352   5.218   4.499 -0.2551 -0.7391  1.4994
  113OSM   H16T11700   2.222   5.281   4.413  0.2887  1.4166 -0.2173
  113OSM   C17S11701   2.191   5.081   4.516 -0.0723 -0.3119  0.0113
  113OSM   H17S11702   2.217   5.026   4.609 -2.4788 -1.7817 -0.1037
  113OSM   H17T11703   2.237   5.026   4.432  0.7861  2.2969 -1.3353
  113OSM   C18S11704   2.042   5.073   4.493  0.5343 -0.6393 -0.1502
  113OSM   H18S11705   2.013   4.979   4.441  0.9427 -0.0518 -1.4962
  113OSM   H18T11706   2.007   5.151   4.421 -0.8308  0.2105  1.3673
  113OSM   H18U11707   1.992   5.088   4.591  0.9674 -0.8300  0.1020
  113OSM    C1F11708   2.579   5.976   5.937  0.8966 -0.3495  0.5911
  113OSM     OF11709   2.678   5.949   6.006  0.6105 -0.2867  0.0279
  113OSM    C2F11710   2.579   6.104   5.852 -0.5457 -0.5591 -0.0952
  113OSM    H2F11711   2.517   6.182   5.899 -4.9158 -2.0106 -2.8421
  113OSM    H2G11712   2.535   6.076   5.754  1.5983 -1.7091 -0.8020
  113OSM    C3F11713   2.734   6.144   5.824  0.6616 -0.3352 -0.1851
  113OSM    H3F11714   2.792   6.057   5.787  1.5615 -0.1654  0.7636
  113OSM    H3G11715   2.782   6.164   5.923  2.1202 -2.5725 -0.3695
  113OSM    C4F11716   2.745   6.271   5.734  0.3195  0.8683 -0.5991
  113OSM    H4F11717   2.850   6.307   5.722  0.3768  0.2222 -2.3458
  113OSM    H4G11718   2.692   6.362   5.771 -0.7796 -0.1510  0.4088
  113OSM    C5F11719   2.699   6.242   5.589  0.5052 -0.0408 -0.1895
  113OSM    H5F11720   2.594   6.268   5.565  1.1783  0.6550 -2.6812
  113OSM    H5G11721   2.709   6.137   5.554 -0.6434 -0.2327  0.0236
  113OSM    C6F11722   2.781   6.325   5.487  0.1074 -0.3427 -0.6961
  113OSM    H6F11723   2.883   6.281   5.487  0.5874  0.7292 -1.6172
  113OSM    H6G11724   2.790   6.430   5.519 -2.8259  0.0160 -0.7554
  113OSM    C7F11725   2.715   6.326   5.349  0.0016  0.0543  0.0565
  113OSM    H7F11726   2.614   6.373   5.350 -1.1945 -2.3622  0.0036
  113OSM    H7G11727   2.688   6.222   5.322 -2.2233  0.3849  0.8175
  113OSM    C8F11728   2.805   6.385   5.240 -0.1409 -0.1178  0.7431
  113OSM    H8F11729   2.909   6.349   5.258  0.9543  2.0281 -0.8546
  113OSM    H8G11730   2.797   6.493   5.265 -2.5953 -0.2248  0.6512
  113OSM    C9F11731   2.765   6.366   5.088  0.0250 -0.4684 -0.6492
  113OSM    H9F11732   2.697   6.442   5.047  1.0529  0.5238 -0.5641
  113OSM   C10F11733   2.813   6.262   5.017 -0.3139 -0.2503  0.0069
  113OSM   H10F11734   2.773   6.250   4.915  0.1829  1.0528 -0.3692
  113OSM   C11F11735   2.901   6.150   5.065 -0.4238 -0.4855 -0.5044
  113OSM   H11F11736   2.901   6.160   5.175 -1.3308  1.6792 -0.6576
  113OSM   H11G11737   3.004   6.180   5.035 -0.2406  0.9897  1.4263
  113OSM   C12F11738   2.876   6.007   5.006  0.0142 -0.6960 -0.2431
  113OSM   H12F11739   2.768   5.979   5.007  0.4892 -2.6665  0.7183
  113OSM   H12G11740   2.932   5.930   5.062 -0.7581 -1.0547  0.0494
  113OSM   C13F11741   2.932   5.987   4.867 -0.2688 -0.4095  1.0537
  113OSM   H13F11742   3.036   5.951   4.883 -1.1454 -2.6033  2.3272
  113OSM   H13G11743   2.948   6.082   4.812  0.9065  0.0685  2.1512
  113OSM   C14F11744   2.844   5.889   4.785  0.5096 -0.1071  0.0601
  113OSM   H14F11745   2.779   5.828   4.851 -1.3892  2.7720  1.0586
  113OSM   H14G11746   2.905   5.807   4.742  0.3172  0.3060 -1.0547
  113OSM   C15F11747   2.747   5.964   4.693  0.1327  0.7424 -0.6497
  113OSM   H15F11748   2.679   6.032   4.748 -0.1041  0.9416 -1.1808
  113OSM   H15G11749   2.671   5.895   4.652 -1.4837  2.0575  0.0212
  113OSM   C16F11750   2.812   6.055   4.579  0.2359  0.2755  0.4285
  113OSM   H16F11751   2.899   5.992   4.552 -0.1228 -0.2325  0.4425
  113OSM   H16G11752   2.851   6.146   4.628  0.1482 -0.6041  2.1978
  113OSM   C17F11753   2.719   6.067   4.464  0.2211  0.5884  1.4501
  113OSM   H17F11754   2.749   6.162   4.413  0.9551 -0.1776  0.4208
  113OSM   H17G11755   2.612   6.085   4.489 -0.6198 -1.0406 -0.6826
  113OSM   C18F11756   2.710   5.941   4.371 -0.2767 -0.1471  0.1637
  113OSM   H18F11757   2.662   5.975   4.277 -0.8512 -0.7893  0.2185
  113OSM   H18G11758   2.651   5.865   4.426  0.1138 -1.2682 -0.9125
  113OSM   H18H11759   2.814   5.902   4.367 -0.6657 -1.8235  3.2418
  114OSM      N11760   1.323   6.253   6.704 -0.0867  0.4699 -0.7690
  114OSM    C1511761   1.406   6.346   6.624 -0.6954 -0.0279 -0.4899
  114OSM   H15A11762   1.409   6.306   6.523  1.3141 -1.0058 -0.0928
  114OSM   H15B11763   1.505   6.344   6.667 -1.9207  3.7601  3.1416
  114OSM   H15C11764   1.376   6.449   6.630  0.3187  0.2030  1.1892
  114OSM    C1411765   1.353   6.280   6.854 -0.0130  0.5659  0.8099
  114OSM   H14A11766   1.302   6.371   6.883 -1.4648 -0.1171  0.4650
  114OSM   H14B11767   1.459   6.299   6.868 -0.2711  2.0889  0.8290
  114OSM   H14C11768   1.318   6.196   6.912  0.4925 -0.5049 -0.4024
  114OSM    C1311769   1.172   6.283   6.687  0.2767  0.6438  0.0793
  114OSM   H13A11770   1.109   6.214   6.741  0.4025  0.4352 -0.0406
  114OSM   H13B11771   1.139   6.289   6.584  1.9979 -1.7282 -0.6804
  114OSM   H13C11772   1.146   6.376   6.736 -0.0972 -1.0797  3.4715
  114OSM    C1211773   1.357   6.109   6.680  0.5686  0.8016 -0.1488
  114OSM   H12A11774   1.303   6.040   6.743  4.6497 -3.2058 -0.4974
  114OSM   H12B11775   1.460   6.102   6.712  0.2305  1.8073  1.2974
  114OSM    C1111776   1.342   6.064   6.533  0.1498 -0.0817 -1.0062
  114OSM   H11A11777   1.240   6.077   6.490  0.8441 -2.3875 -3.6078
  114OSM   H11B11778   1.340   5.953   6.527 -0.2256 -0.3473  2.2165
  114OSM      P11779   1.583   6.045   6.436 -0.3469  0.1459 -0.2559
  114OSM    O1311780   1.681   6.122   6.357 -0.2666 -0.2828  0.2258
  114OSM    O1411781   1.624   6.015   6.573  0.8774  0.5788  0.3827
  114OSM    O1111782   1.555   5.907   6.356  0.2948 -0.0890  0.2970
  114OSM    O1211783   1.438   6.118   6.447 -0.5705  0.6680 -0.2483
  114OSM    C1S11784   1.440   5.887   6.271  0.5403  0.0891 -0.1033
  114OSM    H1S11785   1.370   5.973   6.277 -0.7911 -0.9701 -0.1457
  114OSM    H1T11786   1.394   5.795   6.311 -0.7228 -0.1807 -2.0682
  114OSM     NF11787   1.377   5.848   6.035  0.3829  0.3674 -0.1481
  114OSM    HNF11788   1.350   5.753   6.018 -2.9542  1.2231 -0.2995
  114OSM    C2S11789   1.486   5.862   6.124 -0.7556 -0.4384  0.9582
  114OSM    H2S11790   1.528   5.961   6.097 -1.4210 -0.7181 -1.3168
  114OSM    C3S11791   1.578   5.743   6.107 -1.3367 -0.1631 -0.0799
  114OSM    H3S11792   1.526   5.655   6.149  1.3678 -1.7084  0.3159
  114OSM     O311793   1.695   5.746   6.187 -0.0332  0.0025 -0.2292
  114OSM    HO311794   1.666   5.817   6.245 -0.5006  0.1843 -0.6861
  114OSM    C4S11795   1.624   5.707   5.958 -0.0848 -0.4895  0.9031
  114OSM    H4S11796   1.533   5.665   5.911 -0.6364  1.0899  0.4938
  114OSM    C5S11797   1.742   5.741   5.891  0.6402 -0.3582 -0.1313
  114OSM    H5S11798   1.828   5.778   5.949  0.9853 -0.7368 -0.3942
  114OSM    C6S11799   1.765   5.690   5.749  0.2099  0.9358 -0.0278
  114OSM    H6S11800   1.671   5.656   5.700  0.0851  0.1204  0.7409
  114OSM    H6T11801   1.848   5.618   5.736 -0.5794  0.1483 -0.9167
  114OSM    C7S11802   1.814   5.805   5.667 -0.1924 -0.5328  0.0735
  114OSM    H7S11803   1.900   5.847   5.723 -1.1144 -0.5339  1.5492
  114OSM    H7T11804   1.742   5.889   5.671 -0.7841 -1.0691  2.9561
  114OSM    C8S11805   1.846   5.768   5.526 -0.1786 -0.3476  0.4547
  114OSM    H8S11806   1.766   5.707   5.479  0.0498 -0.7419  0.5710
  114OSM    H8T11807   1.940   5.710   5.539 -0.5280 -0.7741  1.1783
  114OSM    C9S11808   1.861   5.891   5.437 -0.2826  0.1099  0.1589
  114OSM    H9S11809   1.948   5.950   5.470  0.8459 -1.9601  1.0582
  114OSM    H9T11810   1.768   5.950   5.452 -1.5797 -2.0485  1.1520
  114OSM   C10S11811   1.882   5.851   5.285  1.0997 -0.4139  0.1013
  114OSM   H10S11812   1.848   5.936   5.221  0.0033  0.3488  1.6284
  114OSM   H10T11813   1.816   5.767   5.256  1.5199 -1.7725  2.7377
  114OSM   C11S11814   2.025   5.821   5.253 -0.8245  0.2353 -0.2101
  114OSM   H11S11815   2.053   5.743   5.327  0.8241  2.2432  1.4053
  114OSM   H11T11816   2.095   5.905   5.274 -0.0824 -0.6994  1.2232
  114OSM   C12S11817   2.048   5.776   5.109 -0.1691  0.1225  0.1977
  114OSM   H12S11818   1.997   5.677   5.106  1.2666 -0.6294 -0.7383
  114OSM   H12T11819   2.155   5.745   5.101 -0.1788 -0.2401  1.2538
  114OSM   C13S11820   2.010   5.870   4.998  0.6470  0.3705 -0.0066
  114OSM   H13S11821   2.066   5.965   5.012  0.8259  0.4481 -1.2240
  114OSM   H13T11822   1.904   5.899   5.014  1.2104  2.0508  1.0023
  114OSM   C14S11823   2.003   5.818   4.856 -0.6007  0.1247  0.1508
  114OSM   H14S11824   1.936   5.730   4.855  1.1940 -1.3124  0.1981
  114OSM   H14T11825   2.100   5.773   4.825 -0.0822  2.1465 -1.3977
  114OSM   C15S11826   1.949   5.911   4.752 -0.6980  0.0071 -0.7172
  114OSM   H15S11827   2.031   5.986   4.750  0.5434 -1.2608 -0.1578
  114OSM   H15T11828   1.855   5.958   4.787 -0.3172 -1.4373  2.6917
  114OSM   C16S11829   1.925   5.857   4.614 -0.2740 -0.0310 -0.4014
  114OSM   H16S11830   1.832   5.795   4.616 -0.9272  0.9361  1.9871
  114OSM   H16T11831   2.016   5.809   4.571  0.6984  0.6022  0.8827
  114OSM   C17S11832   1.886   5.972   4.515  0.5716  0.5301  0.4019
  114OSM   H17S11833   1.967   6.047   4.511 -0.3680  1.5362 -1.8042
  114OSM   H17T11834   1.796   6.016   4.564 -0.6262  0.2908 -1.4578
  114OSM   C18S11835   1.860   5.937   4.369  0.4353  0.3189 -0.3295
  114OSM   H18S11836   1.964   5.925   4.331  1.2953  3.9420  0.5216
  114OSM   H18T11837   1.801   6.005   4.304 -0.2412 -0.6633 -0.7831
  114OSM   H18U11838   1.809   5.839   4.353 -0.5854  0.6797  0.5869
  114OSM    C1F11839   1.293   5.951   5.999  0.0254 -0.5906 -0.9293
  114OSM     OF11840   1.313   6.064   6.046 -0.4384  0.3049 -0.4490
  114OSM    C2F11841   1.173   5.924   5.916  0.1126  0.2687 -0.5453
  114OSM    H2F11842   1.130   5.825   5.940  0.0221  0.7390  1.4126
  114OSM    H2G11843   1.208   5.935   5.811  0.3908  1.7410 -0.3179
  114OSM    C3F11844   1.059   6.030   5.934 -0.2968  0.4424  0.1673
  114OSM    H3F11845   1.089   6.135   5.954  1.4004 -0.3022  1.8259
  114OSM    H3G11846   1.002   5.989   6.020  0.6584 -1.2988  0.0176
  114OSM    C4F11847   0.963   6.031   5.813 -0.0289  0.4463 -0.1133
  114OSM    H4F11848   0.863   6.072   5.841  0.2188  1.4779 -0.6768
  114OSM    H4G11849   0.946   5.927   5.779 -2.4253  0.8408 -0.2985
  114OSM    C5F11850   1.024   6.123   5.702  0.2713 -0.2225 -0.2280
  114OSM    H5F11851   1.134   6.109   5.698  0.6538  2.0310  0.9486
  114OSM    H5G11852   1.009   6.228   5.733 -1.5936 -0.0131 -1.6861
  114OSM    C6F11853   0.961   6.094   5.567  0.2298 -0.1468 -0.2847
  114OSM    H6F11854   0.924   6.189   5.524  2.9314  0.1324 -2.2065
  114OSM    H6G11855   0.862   6.046   5.581  0.3328 -0.0078  1.0791
  114OSM    C7F11856   1.058   6.027   5.470  0.5822 -0.3661  0.3949
  114OSM    H7F11857   1.112   5.954   5.534  1.4260  1.1145  1.4591
  114OSM    H7G11858   1.133   6.101   5.436 -0.9686  1.2043  0.2456
  114OSM    C8F11859   0.988   5.960   5.356  0.1700 -0.1756  1.0824
  114OSM    H8F11860   0.902   5.900   5.394 -0.3060 -1.9084 -2.2765
  114OSM    H8G11861   1.050   5.883   5.305 -1.1506 -1.1014  0.8060
  114OSM    C9F11862   0.926   6.062   5.258  0.4041  0.4468  0.2154
  114OSM    H9F11863   0.878   6.153   5.298  3.1535  1.5040  1.3481
  114OSM   C10F11864   0.927   6.050   5.124 -0.3933 -0.0745  0.8705
  114OSM   H10F11865   0.881   6.123   5.056 -0.3498 -0.0766  0.8393
  114OSM   C11F11866   1.000   5.937   5.048  0.2687 -0.7805 -0.2833
  114OSM   H11F11867   0.948   5.839   5.055 -3.3800  1.0425  0.6400
  114OSM   H11G11868   1.104   5.931   5.088  0.2206  0.6668  0.1175
  114OSM   C12F11869   1.000   5.973   4.898 -0.4636  0.1750  0.5208
  114OSM   H12F11870   1.075   5.902   4.859  0.5470  1.0980  0.7482
  114OSM   H12G11871   1.039   6.074   4.872 -0.6123 -0.0236 -0.5374
  114OSM   C13F11872   0.862   5.932   4.837 -0.0665 -0.3827 -0.2041
  114OSM   H13F11873   0.787   6.007   4.868 -0.9470 -1.6257  0.7448
  114OSM   H13G11874   0.825   5.839   4.884  0.4512  0.2898  1.6106
  114OSM   C14F11875   0.853   5.915   4.679 -0.6209  0.5962  0.4750
  114OSM   H14F11876   0.747   5.897   4.651 -0.6801  0.5020  0.7603
  114OSM   H14G11877   0.911   5.821   4.669 -0.8670  0.0197  3.4720
  114OSM   C15F11878   0.919   6.018   4.587  0.5369 -0.4180 -0.0227
  114OSM   H15F11879   1.029   6.018   4.606  0.3010 -0.5017  1.5071
  114OSM   H15G11880   0.889   6.123   4.610 -0.5181 -0.4388 -1.2286
  114OSM   C16F11881   0.892   6.000   4.431 -0.2616 -0.0196 -0.2109
  114OSM   H16F11882   0.781   5.997   4.426 -0.4521  1.1469  1.9464
  114OSM   H16G11883   0.929   5.899   4.406 -0.4133 -0.7151  2.1384
  114OSM   C17F11884   0.963   6.097   4.337 -0.4763 -0.0053 -0.4532
  114OSM   H17F11885   0.947   6.199   4.378 -3.4515  0.0286 -1.4554
  114OSM   H17G11886   0.910   6.088   4.240  0.4372  0.1476 -0.9776
  114OSM   C18F11887   1.110   6.068   4.330 -0.0607  0.6037 -0.3769
  114OSM   H18F11888   1.176   6.138   4.275  2.2982 -0.8043  0.5041
  114OSM   H18G11889   1.137   5.972   4.280 -0.5770  0.2716 -0.0274
  114OSM   H18H11890   1.148   6.062   4.435  0.2644  1.4303 -0.4356
  115OSM      N11891   2.495   1.615   6.539 -0.1567  0.7971 -0.1796
  115OSM    C1511892   2.493   1.685   6.404 -0.3411  0.4504  0.7868
  115OSM   H15A11893   2.470   1.790   6.417 -0.0988  0.7715 -1.1467
  115OSM   H15B11894   2.411   1.642   6.349 -1.9156  0.6082  2.8712
  115OSM   H15C11895   2.590   1.670   6.360  0.0419 -0.0418  1.7689
  115OSM    C1411896   2.600   1.672   6.624 -0.1327 -0.4054 -0.0780
  115OSM   H14A11897   2.699   1.653   6.584 -0.0922  2.1053 -1.3408
  115OSM   H14B11898   2.612   1.615   6.715  2.7988 -0.9420 -0.6965
  115OSM   H14C11899   2.589   1.777   6.644 -1.0341 -0.6587  0.8389
  115OSM    C1311900   2.358   1.629   6.608 -0.1100 -0.0587 -0.2343
  115OSM   H13A11901   2.282   1.578   6.551 -1.3368 -1.7055  2.6345
  115OSM   H13B11902   2.342   1.733   6.630  0.5655 -0.3482  1.8775
  115OSM   H13C11903   2.360   1.573   6.700 -0.2242  0.8088  0.3044
  115OSM    C1211904   2.520   1.464   6.526  0.0248  0.1500  0.0641
  115OSM   H12A11905   2.438   1.412   6.478 -0.0447 -0.8899  1.2411
  115OSM   H12B11906   2.539   1.421   6.623  0.8676 -0.8378 -0.5063
  115OSM    C1111907   2.647   1.425   6.447 -0.6418 -0.1452  0.7260
  115OSM   H11A11908   2.732   1.486   6.486  0.6015 -1.2226 -0.1811
  115OSM   H11B11909   2.624   1.452   6.342  2.4011 -2.0611 -0.6020
  115OSM      P11910   2.818   1.245   6.497  0.3500  0.0184 -0.1623
  115OSM    O1311911   2.848   1.315   6.623 -0.7133 -0.1330  0.0260
  115OSM    O1411912   2.820   1.095   6.499 -0.8692  0.0385 -0.7131
  115OSM    O1111913   2.893   1.302   6.372  0.4754 -0.5301  0.3799
  115OSM    O1211914   2.668   1.286   6.466 -0.8725  0.1829 -0.4015
  115OSM    C1S11915   2.887   1.235   6.242  0.1439 -0.1213 -0.1383
  115OSM    H1S11916   2.823   1.143   6.245  1.9448 -1.4564  3.3906
  115OSM    H1T11917   2.988   1.202   6.212 -0.3232 -2.3763  0.5537
  115OSM     NF11918   2.806   1.244   6.006  0.0704 -0.6041  0.5776
  115OSM    HNF11919   2.886   1.258   5.948  2.6227 -0.9370  3.7896
  115OSM    C2S11920   2.825   1.322   6.125 -0.1917  0.1781  0.1445
  115OSM    H2S11921   2.726   1.364   6.150  1.2782  3.1730  1.3986
  115OSM    C3S11922   2.912   1.446   6.111  0.6188  0.1344 -0.3609
  115OSM    H3S11923   3.002   1.403   6.062 -0.6236 -0.2650 -2.4202
  115OSM     O311924   2.958   1.505   6.234  0.4737 -0.3243  0.3815
  115OSM    HO311925   2.918   1.448   6.300 -0.5882 -0.7477 -0.5889
  115OSM    C4S11926   2.854   1.551   6.029 -0.1468  0.0980  0.0499
  115OSM    H4S11927   2.865   1.539   5.920 -1.6958  0.7779 -0.2141
  115OSM    C5S11928   2.780   1.663   6.067  0.0563  0.7088 -0.2867
  115OSM    H5S11929   2.756   1.675   6.174  0.3683 -0.8592 -0.0118
  115OSM    C6S11930   2.730   1.765   5.972  0.0203  0.3970 -0.2305
  115OSM    H6S11931   2.747   1.722   5.872 -0.4206 -2.3852  0.8010
  115OSM    H6T11932   2.789   1.858   5.961 -2.0370  1.5198 -2.6770
  115OSM    C7S11933   2.578   1.795   5.997  0.3131 -0.4398 -0.5213
  115OSM    H7S11934   2.569   1.839   6.098 -0.8396 -1.1437 -0.3076
  115OSM    H7T11935   2.523   1.698   5.990  0.7753 -0.6320 -1.9131
  115OSM    C8S11936   2.511   1.873   5.882  0.1065  0.4086 -0.1642
  115OSM    H8S11937   2.564   1.969   5.865  3.5895 -1.5413 -1.1563
  115OSM    H8T11938   2.430   1.930   5.933  0.6664  0.7644  0.3332
  115OSM    C9S11939   2.465   1.789   5.761 -0.0184 -0.1990  0.2494
  115OSM    H9S11940   2.381   1.721   5.787 -0.5774  0.8584  1.2700
  115OSM    H9T11941   2.555   1.733   5.727 -0.4227  0.2928 -1.7633
  115OSM   C10S11942   2.435   1.886   5.638  0.3604  0.2677 -0.1285
  115OSM   H10S11943   2.519   1.959   5.638 -0.2059  0.9527  1.0748
  115OSM   H10T11944   2.345   1.945   5.663  0.9117  0.5865  1.1978
  115OSM   C11S11945   2.420   1.811   5.498  0.5251  0.4654  0.1772
  115OSM   H11S11946   2.330   1.746   5.496  1.4644 -0.9313 -3.6517
  115OSM   H11T11947   2.495   1.732   5.479 -0.1963 -0.0190 -0.6981
  115OSM   C12S11948   2.423   1.916   5.381 -0.3511 -0.2374  0.0708
  115OSM   H12S11949   2.518   1.972   5.400 -0.9590  1.6809 -2.0550
  115OSM   H12T11950   2.351   1.999   5.400 -0.3512 -0.3204  0.4403
  115OSM   C13S11951   2.410   1.864   5.237 -0.8360 -0.2863 -0.4907
  115OSM   H13S11952   2.303   1.844   5.215 -0.5370  0.0171 -2.3635
  115OSM   H13T11953   2.450   1.763   5.214  2.0635  0.8517 -0.7644
  115OSM   C14S11954   2.457   1.965   5.130  0.8454 -0.6998 -0.3789
  115OSM   H14S11955   2.562   1.987   5.159  1.0272 -1.3690 -0.5079
  115OSM   H14T11956   2.397   2.058   5.139  0.2457 -1.0555 -0.6084
  115OSM   C15S11957   2.432   1.914   4.979  0.1184  0.3071 -0.3387
  115OSM   H15S11958   2.504   1.832   4.958  1.7132  1.7756 -0.8551
  115OSM   H15T11959   2.473   1.998   4.920  0.3760 -0.7751 -1.7430
  115OSM   C16S11960   2.283   1.886   4.935  0.0825 -0.3704  0.0126
  115OSM   H16S11961   2.214   1.971   4.956 -0.9213 -1.5649  1.8655
  115OSM   H16T11962   2.249   1.799   4.995 -0.5581 -1.7099 -2.1779
  115OSM   C17S11963   2.276   1.828   4.788  0.1397 -0.5437  0.6830
  115OSM   H17S11964   2.167   1.811   4.771 -0.1839 -0.1622  2.2426
  115OSM   H17T11965   2.331   1.732   4.787 -1.0963 -1.3836  3.3531
  115OSM   C18S11966   2.325   1.923   4.681  0.4505  0.0540  0.6796
  115OSM   H18S11967   2.316   2.029   4.711 -0.2511  0.2876 -0.3087
  115OSM   H18T11968   2.275   1.915   4.582  1.2006  1.2791  0.1746
  115OSM   H18U11969   2.432   1.896   4.668  1.0583  3.0643 -1.6354
  115OSM    C1F11970   2.725   1.138   5.995 -0.2843 -0.5321 -0.0154
  115OSM     OF11971   2.639   1.110   6.075  0.1445 -0.1471  0.9284
  115OSM    C2F11972   2.750   1.043   5.876 -0.8192  0.1530 -0.5192
  115OSM    H2F11973   2.833   0.974   5.904 -0.0278  0.6446 -1.5852
  115OSM    H2G11974   2.796   1.102   5.794  1.1598 -1.2525 -0.5134
  115OSM    C3F11975   2.624   0.965   5.836 -0.3936  0.7197  0.3768
  115OSM    H3F11976   2.531   1.022   5.812  0.0870  1.5139  0.3700
  115OSM    H3G11977   2.600   0.893   5.917  0.7227 -2.7644 -2.1315
  115OSM    C4F11978   2.658   0.870   5.718 -0.2701 -0.3998 -0.2766
  115OSM    H4F11979   2.574   0.798   5.713  3.6875 -5.8304  1.0433
  115OSM    H4G11980   2.740   0.802   5.751 -1.0201 -1.7098 -1.0247
  115OSM    C5F11981   2.694   0.941   5.586 -0.3302  0.4788 -0.1623
  115OSM    H5F11982   2.794   0.989   5.597 -0.0563  0.3331 -1.7701
  115OSM    H5G11983   2.623   1.023   5.563  0.8821  1.3822 -0.8265
  115OSM    C6F11984   2.708   0.852   5.459 -0.0184 -0.4157 -0.5342
  115OSM    H6F11985   2.605   0.821   5.432  0.0717 -0.9784 -0.2538
  115OSM    H6G11986   2.772   0.768   5.494  0.0585 -0.3250 -0.4536
  115OSM    C7F11987   2.780   0.928   5.342 -0.0169 -0.2946 -0.6708
  115OSM    H7F11988   2.793   0.854   5.260 -1.9656 -0.0686 -1.2319
  115OSM    H7G11989   2.882   0.954   5.377 -1.3793 -0.5712  4.2461
  115OSM    C8F11990   2.706   1.054   5.302  0.6355 -0.1036  0.5909
  115OSM    H8F11991   2.755   1.092   5.210 -2.3628  0.3081 -0.9670
  115OSM    H8G11992   2.714   1.142   5.370  1.6845  1.8385 -1.8455
  115OSM    C9F11993   2.562   1.026   5.263 -0.0674  0.4035  0.6274
  115OSM    H9F11994   2.485   1.031   5.341 -1.1909  0.0476 -0.4172
  115OSM   C10F11995   2.521   0.974   5.147 -0.9152 -0.3088  0.2113
  115OSM   H10F11996   2.416   0.952   5.125 -0.7533 -0.6448 -0.2578
  115OSM   C11F11997   2.596   0.926   5.023  0.3195 -0.3188 -1.0644
  115OSM   H11F11998   2.693   0.876   5.045  0.7832  0.2569 -1.7624
  115OSM   H11G11999   2.633   1.013   4.964  1.7847 -1.7438 -2.3417
  115OSM   C12F12000   2.523   0.818   4.944  0.6278  0.0076  0.0116
  115OSM   H12F12001   2.441   0.851   4.877 -0.4078 -3.9872 -0.9213
  115OSM   H12G12002   2.478   0.745   5.014  2.0273 -0.5480  0.3776
  115OSM   C13F12003   2.614   0.746   4.845 -0.4736 -0.2024 -0.5055
  115OSM   H13F12004   2.556   0.672   4.785 -1.2129  0.8152 -1.0663
  115OSM   H13G12005   2.684   0.698   4.917 -0.1409  1.8395  0.6046
  115OSM   C14F12006   2.701   0.831   4.750  0.0644 -0.0245 -0.2733
  115OSM   H14F12007   2.751   0.899   4.821 -1.4593 -0.8419  1.6786
  115OSM   H14G12008   2.631   0.890   4.686 -0.0590 -1.1314 -1.1913
  115OSM   C15F12009   2.795   0.748   4.661 -0.1897 -0.2146 -0.6676
  115OSM   H15F12010   2.745   0.666   4.604 -0.5806 -0.0488 -0.5631
  115OSM   H15G12011   2.878   0.703   4.720  0.1722 -0.1232 -1.1019
  115OSM   C16F12012   2.873   0.836   4.557 -0.5976  0.0457 -0.1145
  115OSM   H16F12013   2.916   0.765   4.483 -0.5266  0.3721 -0.3904
  115OSM   H16G12014   2.959   0.886   4.605  0.4472 -3.1264  1.6104
  115OSM   C17F12015   2.784   0.929   4.468  0.2388  0.1752  0.3461
  115OSM   H17F12016   2.734   0.998   4.541  0.2197  2.0321 -1.3223
  115OSM   H17G12017   2.706   0.869   4.415 -1.4928  2.6326 -0.1005
  115OSM   C18F12018   2.872   1.005   4.373  1.3637  0.0247 -0.7890
  115OSM   H18F12019   2.816   1.082   4.317 -0.3687 -2.0991 -2.1539
  115OSM   H18G12020   2.899   0.934   4.292  2.2842 -0.0829 -0.4012
  115OSM   H18H12021   2.962   1.052   4.419 -0.4667  2.4487  0.5202
  116OSM      N12022   4.308   1.169   6.712 -0.2876  0.2709 -0.3552
  116OSM    C1512023   4.232   1.160   6.837  0.3472  0.8896 -0.7009
  116OSM   H15A12024   4.152   1.089   6.844  1.3971 -0.2877 -0.2163
  116OSM   H15B12025   4.192   1.256   6.866  1.2301  0.7059  1.2974
  116OSM   H15C12026   4.290   1.135   6.925  0.9511 -0.3946 -1.4479
  116OSM    C1412027   4.241   1.249   6.606 -0.8805  0.0596 -0.6698
  116OSM   H14A12028   4.135   1.230   6.600 -0.7551 -0.4499 -1.3883
  116OSM   H14B12029   4.288   1.239   6.510 -0.0844  0.1771 -0.3016
  116OSM   H14C12030   4.253   1.354   6.630 -0.3712 -0.1206 -0.0917
  116OSM    C1312031   4.432   1.239   6.758 -0.2519  0.1761  0.1250
  116OSM   H13A12032   4.510   1.240   6.683 -0.7787  0.4591 -0.4251
  116OSM   H13B12033   4.478   1.174   6.832 -0.5575 -1.0430 -0.7329
  116OSM   H13C12034   4.413   1.333   6.808  0.6118 -0.4411  1.6897
  116OSM    C1212035   4.360   1.037   6.658  0.5041 -0.2215  0.3873
  116OSM   H12A12036   4.395   0.997   6.752 -1.1744  1.4868  1.8080
  116OSM   H12B12037   4.453   1.055   6.606  2.2716  0.2441  3.4437
  116OSM    C1112038   4.274   0.948   6.580  0.6275 -0.1364  0.6535
  116OSM   H11A12039   4.340   0.865   6.547  1.2285  0.6927 -0.2576
  116OSM   H11B12040   4.228   0.989   6.488  1.9276 -0.5472 -0.2073
  116OSM      P12041   4.147   0.744   6.699 -0.0932 -0.0406 -0.2960
  116OSM    O1312042   4.257   0.683   6.777  0.3281 -0.0503  0.1509
  116OSM    O1412043   4.018   0.744   6.772 -0.2084  0.2681 -0.6040
  116OSM    O1112044   4.127   0.671   6.558  0.1790 -0.3815  0.2512
  116OSM    O1212045   4.176   0.896   6.669  0.5148 -0.3910  0.4046
  116OSM    C1S12046   3.995   0.676   6.493  0.4201  0.8802  0.1547
  116OSM    H1S12047   3.921   0.739   6.548 -1.2841 -2.0788  1.4569
  116OSM    H1T12048   3.953   0.576   6.472 -0.5425  1.8164 -3.0022
  116OSM     NF12049   3.893   0.750   6.277  0.0080  0.2297  0.2781
  116OSM    HNF12050   3.889   0.688   6.199 -1.5798 -0.4904  0.8942
  116OSM    C2S12051   4.012   0.747   6.354 -1.1516  0.5255 -0.2264
  116OSM    H2S12052   4.035   0.855   6.371 -0.3639  0.2353  0.5947
  116OSM    C3S12053   4.139   0.690   6.269 -0.0106  0.6496  0.1873
  116OSM    H3S12054   4.113   0.589   6.232  0.6398 -0.0805  1.6370
  116OSM     O312055   4.264   0.678   6.337 -0.2814 -0.1788  0.4176
  116OSM    HO312056   4.259   0.692   6.432 -0.3866  0.1168  0.3701
  116OSM    C4S12057   4.165   0.771   6.141 -0.4620  0.0751  0.6234
  116OSM    H4S12058   4.089   0.736   6.068  0.3448  1.7964 -1.1422
  116OSM    C5S12059   4.249   0.866   6.101  0.2480 -0.1038  0.2356
  116OSM    H5S12060   4.312   0.903   6.183  2.1610 -1.0238 -0.7389
  116OSM    C6S12061   4.266   0.932   5.964 -0.1878 -0.8368 -0.0175
  116OSM    H6S12062   4.376   0.943   5.947  0.8724 -2.8547  4.1019
  116OSM    H6T12063   4.230   1.037   5.967  0.4408 -0.6200  1.6245
  116OSM    C7S12064   4.212   0.837   5.857  0.3067  0.2496  0.3733
  116OSM    H7S12065   4.104   0.814   5.873  0.4939 -2.2855 -1.4527
  116OSM    H7T12066   4.261   0.738   5.859 -2.8438 -1.4681 -0.3138
  116OSM    C8S12067   4.236   0.888   5.722  0.6794 -0.1030 -0.3718
  116OSM    H8S12068   4.344   0.883   5.698  0.8345  1.7435 -0.2175
  116OSM    H8T12069   4.217   0.997   5.723  1.8331  0.1055  0.8074
  116OSM    C9S12070   4.165   0.814   5.601 -0.6240 -0.5420 -0.2443
  116OSM    H9S12071   4.058   0.845   5.600 -0.2851  0.6392 -1.6737
  116OSM    H9T12072   4.192   0.706   5.610  0.5011 -0.1031  3.3823
  116OSM   C10S12073   4.222   0.883   5.472 -0.3169 -0.5917 -0.5164
  116OSM   H10S12074   4.331   0.864   5.472 -0.4612 -1.4225 -0.1646
  116OSM   H10T12075   4.207   0.993   5.471  0.9738 -0.3986 -1.6807
  116OSM   C11S12076   4.166   0.815   5.345  0.0686 -0.4421  0.9025
  116OSM   H11S12077   4.058   0.793   5.357 -0.8574  2.2303 -1.5312
  116OSM   H11T12078   4.212   0.715   5.326 -1.8445 -1.1481 -0.2981
  116OSM   C12S12079   4.203   0.892   5.214 -0.6911 -0.7683 -0.2275
  116OSM   H12S12080   4.313   0.899   5.199 -0.7362  2.3147  0.3195
  116OSM   H12T12081   4.162   0.995   5.218 -0.5986 -0.5686 -2.7535
  116OSM   C13S12082   4.145   0.826   5.086 -0.0172  0.7686  0.0894
  116OSM   H13S12083   4.035   0.814   5.089 -0.0406  0.3088 -1.5382
  116OSM   H13T12084   4.184   0.722   5.083 -1.3966  0.0408  3.2604
  116OSM   C14S12085   4.154   0.916   4.961  0.3962  0.7127  0.3581
  116OSM   H14S12086   4.250   0.972   4.958  1.6148 -1.2583 -3.1303
  116OSM   H14T12087   4.079   0.995   4.985  0.4630  1.1499 -0.8142
  116OSM   C15S12088   4.147   0.849   4.826  0.5557 -0.0518  0.1016
  116OSM   H15S12089   4.220   0.766   4.820  1.9287  1.1752 -0.8655
  116OSM   H15T12090   4.167   0.920   4.743 -0.9741  0.6585  0.3188
  116OSM   C16S12091   4.011   0.785   4.794  0.2165 -0.2500  0.2126
  116OSM   H16S12092   3.936   0.866   4.788  0.8372  0.2596 -1.4050
  116OSM   H16T12093   3.976   0.700   4.856  0.1695 -0.5056 -0.1601
  116OSM   C17S12094   3.999   0.725   4.656  0.5322 -0.1721  0.3534
  116OSM   H17S12095   3.901   0.673   4.657 -0.6754  1.9961  0.3604
  116OSM   H17T12096   4.085   0.657   4.637 -0.8635 -1.6441 -1.0162
  116OSM   C18S12097   3.990   0.826   4.542  0.3854 -0.4429  0.1655
  116OSM   H18S12098   4.077   0.895   4.536  0.1706 -0.2341 -0.8188
  116OSM   H18T12099   3.899   0.888   4.551  1.0739  0.4248  1.3038
  116OSM   H18U12100   3.993   0.763   4.450 -0.2911 -0.1541 -0.0604
  116OSM    C1F12101   3.783   0.804   6.323  0.3837 -0.6120  0.1091
  116OSM     OF12102   3.789   0.894   6.405 -0.2308  0.7672 -0.4084
  116OSM    C2F12103   3.653   0.762   6.263 -0.0570 -0.1520 -0.5123
  116OSM    H2F12104   3.588   0.724   6.345  0.5356  1.7398  0.9140
  116OSM    H2G12105   3.664   0.673   6.197  1.3576  0.6737 -1.4276
  116OSM    C3F12106   3.585   0.873   6.180 -0.3895  0.0840 -0.6403
  116OSM    H3F12107   3.620   0.971   6.218 -0.0843 -0.7784  1.4863
  116OSM    H3G12108   3.476   0.856   6.192 -0.0960 -1.8065 -0.2312
  116OSM    C4F12109   3.618   0.865   6.034 -0.2509  0.3743  0.9504
  116OSM    H4F12110   3.579   0.769   5.994  2.0269  0.1076 -0.8204
  116OSM    H4G12111   3.729   0.858   6.032 -0.2311  0.7314 -1.3648
  116OSM    C5F12112   3.587   0.985   5.939 -0.4322  0.4090  0.4260
  116OSM    H5F12113   3.605   1.082   5.989 -0.7843  1.1675 -0.8813
  116OSM    H5G12114   3.481   0.981   5.908  0.4110  0.3007 -2.8173
  116OSM    C6F12115   3.680   0.988   5.821 -0.1572 -0.0027  0.0764
  116OSM    H6F12116   3.659   0.894   5.764  3.3360  0.5192 -2.3488
  116OSM    H6G12117   3.786   0.974   5.850 -0.6896  0.2673  2.3611
  116OSM    C7F12118   3.674   1.113   5.745 -0.0122  0.0284 -0.2365
  116OSM    H7F12119   3.757   1.116   5.671 -0.4982 -1.1418 -0.8652
  116OSM    H7G12120   3.671   1.192   5.822 -3.1628 -2.0276  2.0096
  116OSM    C8F12121   3.550   1.135   5.657 -0.3880  0.9538 -0.0522
  116OSM    H8F12122   3.557   1.232   5.604 -2.2520  0.6787 -0.8845
  116OSM    H8G12123   3.465   1.153   5.728 -1.1414 -1.3293 -0.3192
  116OSM    C9F12124   3.522   1.020   5.564  0.1957  0.2619 -0.3193
  116OSM    H9F12125   3.443   0.950   5.594  0.6996  0.2478  1.0115
  116OSM   C10F12126   3.596   0.979   5.458 -0.6409 -0.6151 -0.1180
  116OSM   H10F12127   3.575   0.888   5.400  1.8703 -0.2471 -1.7702
  116OSM   C11F12128   3.708   1.055   5.388 -0.0506 -0.0285 -0.2632
  116OSM   H11F12129   3.789   0.983   5.366 -0.1745  0.0423 -0.9692
  116OSM   H11G12130   3.743   1.134   5.459  0.0487 -1.3649  1.2317
  116OSM   C12F12131   3.673   1.113   5.252 -0.5765  1.0203  0.9081
  116OSM   H12F12132   3.756   1.182   5.229 -0.3829 -0.2658 -2.9418
  116OSM   H12G12133   3.583   1.176   5.272 -0.0675  1.5097  1.7000
  116OSM   C13F12134   3.658   1.013   5.130 -0.4600 -0.8650  0.1556
  116OSM   H13F12135   3.584   0.932   5.144 -1.5488  0.4207  2.3771
  116OSM   H13G12136   3.750   0.954   5.108 -1.1404 -1.2435 -1.8568
  116OSM   C14F12137   3.624   1.083   4.996 -0.0396 -0.0270  0.1262
  116OSM   H14F12138   3.709   1.146   4.961 -0.1611  0.7334  1.1475
  116OSM   H14G12139   3.534   1.143   5.023 -0.6758 -0.7670 -0.3425
  116OSM   C15F12140   3.588   0.976   4.893 -0.0704 -0.4226  0.1506
  116OSM   H15F12141   3.493   0.938   4.935 -0.4791 -1.0827 -1.3098
  116OSM   H15G12142   3.654   0.887   4.884  1.0679  0.3364  0.6588
  116OSM   C16F12143   3.596   1.037   4.757  0.1044 -0.1263  0.1861
  116OSM   H16F12144   3.702   1.046   4.728  0.0493 -1.6388 -0.6045
  116OSM   H16G12145   3.546   1.136   4.754 -0.2945 -0.2895  1.0038
  116OSM   C17F12146   3.518   0.942   4.660  0.3563  0.2941  0.5650
  116OSM   H17F12147   3.552   0.984   4.564  1.5144 -0.4494  0.6277
  116OSM   H17G12148   3.407   0.951   4.658  0.0962 -2.3602 -1.1786
  116OSM   C18F12149   3.575   0.799   4.661  0.2882 -0.0730 -0.0681
  116OSM   H18F12150   3.541   0.741   4.573 -0.1065  0.2838 -0.1535
  116OSM   H18G12151   3.545   0.741   4.751 -0.1918 -0.0643 -0.2159
  116OSM   H18H12152   3.686   0.797   4.659  0.3324  0.3871  0.9564
  117OSM      N12153   2.177   4.301   6.805  0.0362 -0.6388  0.0158
  117OSM    C1512154   2.211   4.178   6.880  0.0766 -0.4313 -0.2805
  117OSM   H15A12155   2.276   4.198   6.964  2.5341 -1.5699 -1.7776
  117OSM   H15B12156   2.263   4.112   6.812  2.3504  1.3000 -0.3502
  117OSM   H15C12157   2.118   4.143   6.920  0.4825  0.3739  1.4543
  117OSM    C1412158   2.074   4.377   6.884  0.2752  0.2886 -0.1010
  117OSM   H14A12159   2.115   4.423   6.973  2.2548 -1.0205 -0.2757
  117OSM   H14B12160   1.988   4.317   6.905  0.1206  0.1596 -1.0679
  117OSM   H14C12161   2.036   4.465   6.834 -1.6112  0.9615  2.3438
  117OSM    C1312162   2.294   4.398   6.786  0.8229 -0.0875 -0.6838
  117OSM   H13A12163   2.382   4.357   6.740  1.4709  2.5617 -2.0044
  117OSM   H13B12164   2.334   4.439   6.877  0.6712 -0.8595 -0.2606
  117OSM   H13C12165   2.256   4.478   6.723  1.1139 -0.1670 -0.9642
  117OSM    C1212166   2.126   4.263   6.669  0.1226 -0.3656 -0.1653
  117OSM   H12A12167   2.055   4.335   6.632  0.7353  1.8634  2.6703
  117OSM   H12B12168   2.072   4.169   6.673  0.6770 -0.7767 -1.5164
  117OSM    C1112169   2.237   4.235   6.562  0.5004 -0.5112  0.4049
  117OSM   H11A12170   2.310   4.318   6.560  0.2164 -0.2166  1.3547
  117OSM   H11B12171   2.191   4.238   6.461  1.2572 -1.7067  0.0002
  117OSM      P12172   2.241   3.976   6.549 -0.1466  0.0589 -0.2275
  117OSM    O1312173   2.336   3.865   6.558 -0.4971 -0.3930 -0.0378
  117OSM    O1412174   2.114   3.958   6.625 -0.1983 -0.1425  0.5982
  117OSM    O1112175   2.197   3.992   6.397  0.1558 -0.3358 -0.4523
  117OSM    O1212176   2.312   4.115   6.582 -0.0155 -0.6670  0.0812
  117OSM    C1S12177   2.297   4.045   6.310  0.5301 -0.2611 -0.0257
  117OSM    H1S12178   2.372   3.966   6.290  1.5718  0.8952 -0.8915
  117OSM    H1T12179   2.345   4.139   6.347  1.1673 -0.1182 -1.1553
  117OSM     NF12180   2.353   4.122   6.083 -0.3356  0.5835  0.0987
  117OSM    HNF12181   2.367   4.221   6.085  1.0007  0.4310 -0.1566
  117OSM    C2S12182   2.241   4.078   6.168 -0.4990 -0.7958  0.1876
  117OSM    H2S12183   2.195   3.990   6.119 -3.1418  0.4468  0.2812
  117OSM    C3S12184   2.125   4.175   6.171  1.3877  0.2773  0.0081
  117OSM    H3S12185   2.147   4.271   6.222 -4.1137  1.8610  0.0139
  117OSM     O312186   2.023   4.134   6.263 -0.7592  0.2015  0.4091
  117OSM    HO312187   2.070   4.059   6.299 -1.3499 -0.2340  0.2892
  117OSM    C4S12188   2.071   4.211   6.036 -0.7845 -0.4905 -0.0264
  117OSM    H4S12189   2.025   4.127   5.983 -0.5407 -0.3926 -0.3986
  117OSM    C5S12190   2.100   4.329   5.975 -0.3065  0.6983 -0.6769
  117OSM    H5S12191   2.159   4.401   6.034  2.1702 -1.5552 -0.2602
  117OSM    C6S12192   2.064   4.365   5.833 -0.0267 -0.6573 -0.2430
  117OSM    H6S12193   2.041   4.278   5.767  1.4239 -1.0417 -0.2716
  117OSM    H6T12194   2.152   4.421   5.793  0.4396 -0.0949  1.5049
  117OSM    C7S12195   1.933   4.441   5.822  0.1661 -0.6410 -0.0970
  117OSM    H7S12196   1.945   4.537   5.876  0.9538 -0.8977  0.2077
  117OSM    H7T12197   1.856   4.385   5.878 -1.9266  1.0415 -1.1505
  117OSM    C8S12198   1.902   4.480   5.682  0.1172  0.0405  0.0685
  117OSM    H8S12199   2.003   4.491   5.637  0.0912 -0.6443 -0.1534
  117OSM    H8T12200   1.849   4.577   5.669  1.1062  0.2394 -3.4934
  117OSM    C9S12201   1.834   4.366   5.603  0.0670 -0.0169 -0.3887
  117OSM    H9S12202   1.729   4.352   5.636  0.1739  0.3908  0.1389
  117OSM    H9T12203   1.888   4.269   5.610  0.8444  0.2863 -1.7919
  117OSM   C10S12204   1.826   4.397   5.458  0.6489  0.2651  0.2479
  117OSM   H10S12205   1.929   4.404   5.416 -0.1924  1.5447 -1.7512
  117OSM   H10T12206   1.782   4.499   5.451  1.0942  0.4270 -0.2939
  117OSM   C11S12207   1.728   4.309   5.378 -0.2307 -0.1426 -0.5992
  117OSM   H11S12208   1.627   4.342   5.412  0.2116  0.0325  0.6017
  117OSM   H11T12209   1.745   4.203   5.409  0.1187  0.3131  0.8594
  117OSM   C12S12210   1.745   4.322   5.225 -0.2279  0.1345  0.7208
  117OSM   H12S12211   1.842   4.278   5.193 -1.8446 -0.6537 -3.8847
  117OSM   H12T12212   1.736   4.425   5.184  0.3709  0.1845  0.6952
  117OSM   C13S12213   1.650   4.225   5.145  0.1184  0.1982 -0.0514
  117OSM   H13S12214   1.550   4.237   5.191  1.0359  4.2236  1.3115
  117OSM   H13T12215   1.677   4.119   5.167  0.3077  0.5990  1.8330
  117OSM   C14S12216   1.659   4.244   4.993  0.2053 -0.7396  0.2722
  117OSM   H14S12217   1.598   4.169   4.939  0.0852 -0.5450  0.1365
  117OSM   H14T12218   1.762   4.232   4.953 -0.2101  1.6546 -1.7067
  117OSM   C15S12219   1.602   4.380   4.942 -0.1969 -0.4235 -0.9476
  117OSM   H15S12220   1.620   4.378   4.832  0.6239 -2.4837 -0.8302
  117OSM   H15T12221   1.670   4.458   4.983 -0.8935  0.7262 -1.8981
  117OSM   C16S12222   1.454   4.394   4.974  0.0736 -0.0754  0.0736
  117OSM   H16S12223   1.442   4.395   5.085 -0.9569 -1.6538  0.0057
  117OSM   H16T12224   1.410   4.298   4.940  2.3208 -0.1963 -2.8812
  117OSM   C17S12225   1.390   4.513   4.910  0.0016  0.2787 -0.6052
  117OSM   H17S12226   1.444   4.542   4.817  1.6495 -1.9369 -0.4147
  117OSM   H17T12227   1.406   4.600   4.977 -1.6977 -0.6089  1.0482
  117OSM   C18S12228   1.244   4.473   4.875 -0.5545 -0.7484 -0.2258
  117OSM   H18S12229   1.184   4.479   4.968 -0.2346 -2.9282  0.1691
  117OSM   H18T12230   1.223   4.371   4.838 -3.4358 -0.7133  1.0950
  117OSM   H18U12231   1.193   4.543   4.805 -1.1341 -0.4689  0.4673
  117OSM    C1F12232   2.450   4.034   6.052  0.4550 -0.1533 -0.7455
  117OSM     OF12233   2.430   3.919   6.082  0.1676 -0.1420  1.0513
  117OSM    C2F12234   2.579   4.076   5.990  0.5021 -0.3757  0.6747
  117OSM    H2F12235   2.646   4.124   6.065  3.0760 -1.3540 -0.8639
  117OSM    H2G12236   2.568   4.153   5.911  0.0057 -0.6958  0.4311
  117OSM    C3F12237   2.667   3.960   5.928 -0.5572  0.4077  0.7362
  117OSM    H3F12238   2.694   3.882   6.003 -1.0138 -0.7583 -0.2845
  117OSM    H3G12239   2.764   4.002   5.893  0.1407 -2.6501 -1.3931
  117OSM    C4F12240   2.600   3.882   5.807  0.0791 -0.1376 -0.6435
  117OSM    H4F12241   2.543   3.948   5.739 -0.8844  0.0919  0.3580
  117OSM    H4G12242   2.516   3.826   5.853  0.1213  0.7083  0.5187
  117OSM    C5F12243   2.694   3.794   5.721 -0.2998 -0.0255 -0.2345
  117OSM    H5F12244   2.740   3.719   5.789  2.7111  1.3826 -0.5579
  117OSM    H5G12245   2.779   3.852   5.679  0.4921 -1.0837 -0.1246
  117OSM    C6F12246   2.635   3.714   5.606 -0.0620 -0.3002  0.5352
  117OSM    H6F12247   2.598   3.787   5.530  2.3955 -1.0316 -1.5108
  117OSM    H6G12248   2.562   3.643   5.649  0.2409 -0.7207  0.3565
  117OSM    C7F12249   2.735   3.635   5.523 -0.5646  0.0084 -0.6069
  117OSM    H7F12250   2.807   3.584   5.591  0.4313  1.9056 -0.1761
  117OSM    H7G12251   2.800   3.699   5.460 -0.4814 -0.6225 -1.1809
  117OSM    C8F12252   2.669   3.526   5.441 -0.7111  0.1625  0.2108
  117OSM    H8F12253   2.599   3.461   5.497 -1.0008 -1.2459 -1.6863
  117OSM    H8G12254   2.754   3.465   5.404 -1.0767 -0.8489  1.0075
  117OSM    C9F12255   2.592   3.593   5.328 -0.6080 -0.7768 -0.1900
  117OSM    H9F12256   2.492   3.632   5.352 -0.1092  0.6704 -0.3650
  117OSM   C10F12257   2.628   3.595   5.197 -0.4358 -0.3583  0.7229
  117OSM   H10F12258   2.560   3.635   5.119  0.3467 -1.4405 -0.5577
  117OSM   C11F12259   2.753   3.532   5.132 -0.0862  0.5810 -0.5352
  117OSM   H11F12260   2.728   3.495   5.031  1.2052 -0.3137 -0.5590
  117OSM   H11G12261   2.801   3.454   5.196 -0.7991  0.7310  0.2008
  117OSM   C12F12262   2.857   3.642   5.109  0.4624  0.3902 -0.2143
  117OSM   H12F12263   2.959   3.607   5.082 -0.4400  0.1693 -3.9047
  117OSM   H12G12264   2.879   3.695   5.204  0.2947  2.1520 -1.1265
  117OSM   C13F12265   2.811   3.739   4.997 -0.1235 -0.8081  0.4304
  117OSM   H13F12266   2.715   3.784   5.029  0.7772  0.5668  1.3327
  117OSM   H13G12267   2.801   3.681   4.903 -2.2529  0.3819 -0.1481
  117OSM   C14F12268   2.898   3.866   4.976 -0.2740  0.5010  0.2875
  117OSM   H14F12269   2.987   3.840   4.915 -0.0344  2.4884 -0.2812
  117OSM   H14G12270   2.942   3.871   5.078  1.2776  1.1253 -0.3775
  117OSM   C15F12271   2.816   3.983   4.932 -0.1361 -0.1970 -0.0740
  117OSM   H15F12272   2.741   4.010   5.011  1.3824  1.1582  0.9710
  117OSM   H15G12273   2.752   3.951   4.847 -0.0647  1.7773 -0.9118
  117OSM   C16F12274   2.890   4.105   4.880 -0.2548  0.3906 -0.2446
  117OSM   H16F12275   2.819   4.190   4.876 -1.6462 -0.6437  1.3193
  117OSM   H16G12276   2.921   4.074   4.779  2.2788 -0.4901  0.7217
  117OSM   C17F12277   3.012   4.146   4.968 -0.1160 -0.4490 -0.0243
  117OSM   H17F12278   3.068   4.053   4.993 -0.4193 -0.9259 -1.0390
  117OSM   H17G12279   2.967   4.183   5.062 -1.2180  2.6884 -1.6374
  117OSM   C18F12280   3.103   4.246   4.899  0.1098  0.3203  0.1119
  117OSM   H18F12281   3.146   4.207   4.804  2.7837 -0.9819  1.7398
  117OSM   H18G12282   3.185   4.272   4.969 -0.8344  1.2448  0.9128
  117OSM   H18H12283   3.056   4.346   4.885  1.7700  1.3475  1.4278
  118OSM      N12284   4.202   2.562   6.557  0.5406  0.4654  0.0894
  118OSM    C1512285   4.250   2.708   6.561  0.2575 -0.2139  0.1752
  118OSM   H15A12286   4.202   2.759   6.479 -0.4555  0.4232  0.9613
  118OSM   H15B12287   4.358   2.709   6.559  0.3435  0.9071 -3.9353
  118OSM   H15C12288   4.221   2.746   6.658 -3.7572 -3.3527  0.4506
  118OSM    C1412289   4.259   2.490   6.682 -0.3953 -0.7409  0.1321
  118OSM   H14A12290   4.218   2.391   6.677  1.2484 -1.5552  1.5379
  118OSM   H14B12291   4.230   2.536   6.776  1.5236 -0.2199  0.5162
  118OSM   H14C12292   4.366   2.475   6.682 -0.6644 -2.9593 -0.6322
  118OSM    C1312293   4.051   2.561   6.576  0.2060  0.2463 -0.2698
  118OSM   H13A12294   3.997   2.613   6.498 -1.1733 -1.4709 -0.5423
  118OSM   H13B12295   4.029   2.618   6.665  2.2398 -1.3890  1.3721
  118OSM   H13C12296   4.004   2.466   6.598 -0.0750 -0.0094 -1.8389
  118OSM    C1212297   4.242   2.492   6.430  0.0314  0.4090  0.0376
  118OSM   H12A12298   4.345   2.510   6.403 -0.1150  1.1034 -0.0755
  118OSM   H12B12299   4.202   2.539   6.341 -0.1142 -2.2566 -1.4173
  118OSM    C1112300   4.218   2.338   6.412  0.6944  0.1323  0.5147
  118OSM   H11A12301   4.217   2.311   6.305 -0.7834 -0.1054  0.5773
  118OSM   H11B12302   4.115   2.329   6.452  0.9608 -2.6891  0.7709
  118OSM      P12303   4.450   2.244   6.464  0.1983  0.0835 -0.5290
  118OSM    O1312304   4.520   2.357   6.527  0.2288  0.0114 -0.5262
  118OSM    O1412305   4.487   2.106   6.486  0.4377 -0.1050  0.4016
  118OSM    O1112306   4.444   2.266   6.307  0.5219  0.5144  0.0041
  118OSM    O1212307   4.292   2.262   6.506  0.1653 -0.0366  0.0766
  118OSM    C1S12308   4.479   2.164   6.215 -0.2935  0.7089  0.0911
  118OSM    H1S12309   4.399   2.087   6.208 -1.4348  1.9426 -0.7635
  118OSM    H1T12310   4.576   2.112   6.233  2.0225  4.6461  0.2282
  118OSM     NF12311   4.548   2.085   5.992  0.6935 -0.0322 -0.0024
  118OSM    HNF12312   4.645   2.063   5.980  0.8363  0.0629  0.8802
  118OSM    C2S12313   4.513   2.211   6.070  0.5589 -0.6688 -0.5766
  118OSM    H2S12314   4.422   2.259   6.028  0.9136  1.4636  0.9373
  118OSM    C3S12315   4.628   2.313   6.072 -0.2462 -0.2929  0.1918
  118OSM    H3S12316   4.718   2.250   6.089  0.0891  0.3589  0.9279
  118OSM     O312317   4.623   2.411   6.173  0.1491  0.4404 -0.2013
  118OSM    HO312318   4.565   2.376   6.240  1.5483  1.9849  1.9296
  118OSM    C4S12319   4.653   2.379   5.937  1.2549  0.5020  0.3845
  118OSM    H4S12320   4.734   2.333   5.878  0.7753  1.3202 -0.9507
  118OSM    C5S12321   4.586   2.489   5.884 -0.6274  0.0329  0.3357
  118OSM    H5S12322   4.514   2.539   5.950 -1.2603 -0.0827 -0.2659
  118OSM    C6S12323   4.596   2.549   5.742 -0.1714 -0.2034 -0.0640
  118OSM    H6S12324   4.598   2.659   5.759 -0.1880 -0.0304 -1.0967
  118OSM    H6T12325   4.506   2.531   5.681  0.1224  0.8964 -0.8557
  118OSM    C7S12326   4.718   2.504   5.657  0.1236 -0.2435  1.1059
  118OSM    H7S12327   4.712   2.393   5.644 -1.2082  0.0274 -0.9829
  118OSM    H7T12328   4.823   2.520   5.691  0.9325  0.5741 -1.5563
  118OSM    C8S12329   4.711   2.560   5.513 -0.2269  0.4318 -0.4690
  118OSM    H8S12330   4.697   2.670   5.502  2.6839  0.7671 -1.7429
  118OSM    H8T12331   4.625   2.513   5.461  0.1469  0.7052 -1.3638
  118OSM    C9S12332   4.844   2.533   5.445 -0.3054 -0.2285  0.2025
  118OSM    H9S12333   4.867   2.424   5.450 -0.7922 -0.2727  2.2305
  118OSM    H9T12334   4.920   2.596   5.495  1.8195 -0.5883 -2.3827
  118OSM   C10S12335   4.841   2.584   5.302  0.6189 -0.5435 -0.4778
  118OSM   H10S12336   4.861   2.693   5.306  1.7879 -0.7645 -0.1423
  118OSM   H10T12337   4.736   2.574   5.266  0.6338 -2.2336 -0.1172
  118OSM   C11S12338   4.954   2.514   5.219  0.5763 -0.6515 -0.5409
  118OSM   H11S12339   4.942   2.404   5.230 -1.1097 -0.5100 -0.7684
  118OSM   H11T12340   5.051   2.552   5.257  1.7657 -2.1610 -1.9062
  118OSM   C12S12341   4.941   2.555   5.069 -0.3320  0.5070  0.3849
  118OSM   H12S12342   4.936   2.666   5.065 -2.5529  0.5422  2.1557
  118OSM   H12T12343   4.839   2.531   5.031  0.2247  1.0655 -1.6085
  118OSM   C13S12344   5.054   2.504   4.981  0.1126  0.1958  0.6404
  118OSM   H13S12345   5.039   2.395   4.966  1.6787  0.0452 -0.0229
  118OSM   H13T12346   5.158   2.511   5.019 -0.2437 -1.1852  1.9249
  118OSM   C14S12347   5.062   2.559   4.836  0.5789 -0.5103  0.6593
  118OSM   H14S12348   5.142   2.495   4.793  1.0522 -0.7323  1.8399
  118OSM   H14T12349   5.103   2.662   4.826  0.1432 -0.4977 -1.7508
  118OSM   C15S12350   4.929   2.536   4.763  0.4361  0.2056  0.8183
  118OSM   H15S12351   4.869   2.612   4.817  1.6885  0.8263  1.4064
  118OSM   H15T12352   4.888   2.434   4.774 -0.0654  0.1339 -1.3987
  118OSM   C16S12353   4.931   2.573   4.612  0.0349  0.9690  0.4782
  118OSM   H16S12354   5.011   2.512   4.564 -1.1151  1.9402 -3.0009
  118OSM   H16T12355   4.968   2.676   4.593  0.9869  0.4709 -0.5086
  118OSM   C17S12356   4.789   2.553   4.544  0.4526  0.3218 -0.2901
  118OSM   H17S12357   4.715   2.582   4.621 -1.3319 -0.4846 -1.6359
  118OSM   H17T12358   4.776   2.444   4.529  0.0030  0.4788 -1.1125
  118OSM   C18S12359   4.775   2.628   4.408  0.2005  0.3023 -0.5248
  118OSM   H18S12360   4.792   2.737   4.421  0.2520  0.1589  0.7619
  118OSM   H18T12361   4.685   2.600   4.350  0.1408  0.8941 -0.7160
  118OSM   H18U12362   4.866   2.597   4.352  0.5327  0.3598 -0.0281
  118OSM    C1F12363   4.463   1.990   5.956  0.0588 -0.3022  0.4212
  118OSM     OF12364   4.344   2.010   5.976 -0.3188 -0.4208 -0.4120
  118OSM    C2F12365   4.516   1.860   5.900  0.3419  0.2624  0.6067
  118OSM    H2F12366   4.515   1.773   5.969 -0.8949  0.5935  1.0463
  118OSM    H2G12367   4.615   1.878   5.854 -0.3669  3.7531  0.1454
  118OSM    C3F12368   4.423   1.823   5.789 -0.1650 -0.2985  0.6090
  118OSM    H3F12369   4.420   1.892   5.701 -1.5097 -2.4996 -1.1825
  118OSM    H3G12370   4.316   1.808   5.815 -0.1346  0.6601  1.3248
  118OSM    C4F12371   4.472   1.686   5.742 -0.3736 -0.8500  0.5806
  118OSM    H4F12372   4.467   1.616   5.829 -0.0800 -0.3967  0.9629
  118OSM    H4G12373   4.580   1.697   5.717 -0.8406 -0.2362 -1.3101
  118OSM    C5F12374   4.402   1.624   5.624 -0.0669 -0.5554 -0.2439
  118OSM    H5F12375   4.294   1.613   5.650 -0.2250  0.3147 -0.4990
  118OSM    H5G12376   4.443   1.522   5.611  2.3900  0.4017 -0.4968
  118OSM    C6F12377   4.407   1.717   5.498 -1.3975 -0.2694 -0.2087
  118OSM    H6F12378   4.514   1.725   5.467 -1.9099 -1.0044 -2.3775
  118OSM    H6G12379   4.353   1.812   5.516 -2.5683 -0.2252 -3.3504
  118OSM    C7F12380   4.345   1.657   5.373 -0.7040  0.2592 -0.2815
  118OSM    H7F12381   4.242   1.626   5.403 -1.0411  2.4018  0.9297
  118OSM    H7G12382   4.402   1.564   5.351 -1.1618 -0.1117  0.0585
  118OSM    C8F12383   4.338   1.751   5.250  0.3663 -0.6930 -0.2213
  118OSM    H8F12384   4.284   1.843   5.282  0.1262 -1.0268  0.3501
  118OSM    H8G12385   4.261   1.708   5.182 -0.6744  0.1615  0.3903
  118OSM    C9F12386   4.476   1.782   5.187 -0.7336  0.8357  0.0369
  118OSM    H9F12387   4.540   1.859   5.231 -1.1503  1.8960 -1.1565
  118OSM   C10F12388   4.515   1.728   5.070 -0.0541 -0.1472  0.7171
  118OSM   H10F12389   4.618   1.745   5.036 -0.7784  0.8669 -1.0689
  118OSM   C11F12390   4.434   1.636   4.982 -0.4373  0.5968 -0.4427
  118OSM   H11F12391   4.330   1.630   5.020 -0.0619 -3.0564  0.3621
  118OSM   H11G12392   4.481   1.536   4.993  1.8816  1.4993 -1.4731
  118OSM   C12F12393   4.426   1.677   4.833  0.1593  0.8146  0.2205
  118OSM   H12F12394   4.375   1.774   4.817 -0.5164  0.5285  0.5496
  118OSM   H12G12395   4.357   1.599   4.793  2.5779 -0.0804 -2.5439
  118OSM   C13F12396   4.553   1.666   4.755  0.0253  0.4618  0.5860
  118OSM   H13F12397   4.595   1.567   4.780 -0.0243  0.9184  2.6621
  118OSM   H13G12398   4.621   1.746   4.791  1.3482 -0.7442  0.8483
  118OSM   C14F12399   4.518   1.669   4.606 -0.0482  0.1397  0.1373
  118OSM   H14F12400   4.476   1.769   4.581  0.2797 -0.0557 -1.2819
  118OSM   H14G12401   4.440   1.593   4.586  0.2627 -0.8192  2.2990
  118OSM   C15F12402   4.644   1.642   4.516  0.8356  0.5669 -0.2172
  118OSM   H15F12403   4.606   1.667   4.415 -0.0982 -1.9323 -0.5318
  118OSM   H15G12404   4.693   1.542   4.520 -0.2702  0.0265 -0.0287
  118OSM   C16F12405   4.748   1.753   4.535  0.1873 -0.0293 -0.9261
  118OSM   H16F12406   4.794   1.741   4.635 -1.2269 -0.1123 -0.2545
  118OSM   H16G12407   4.698   1.852   4.542  0.2280 -0.0838  0.3105
  118OSM   C17F12408   4.861   1.745   4.428  0.1924 -0.3818  0.8524
  118OSM   H17F12409   4.893   1.850   4.409  1.4595 -0.7674  0.7772
  118OSM   H17G12410   4.803   1.709   4.340  0.0593  0.2208  0.6855
  118OSM   C18F12411   4.979   1.651   4.458 -0.0231 -0.5712 -0.3638
  118OSM   H18F12412   5.069   1.695   4.410 -2.1661  1.8964 -2.4193
  118OSM   H18G12413   4.967   1.551   4.413  1.0926 -1.0699  0.3930
  118OSM   H18H12414   5.005   1.650   4.566 -1.5674 -1.4565  0.0336
  119OSM      N12415   3.792   6.609   6.931  0.3811 -0.2555  0.6507
  119OSM    C1512416   3.756   6.497   7.021 -0.8069 -0.5305  0.0145
  119OSM   H15A12417   3.658   6.458   6.998 -1.0818  0.1140  0.0853
  119OSM   H15B12418   3.769   6.527   7.124 -2.2572 -0.1481  0.1002
  119OSM   H15C12419   3.821   6.412   7.003 -1.1404 -0.7549 -0.1308
  119OSM    C1412420   3.707   6.731   6.954  0.5413  0.2336 -0.4500
  119OSM   H14A12421   3.741   6.827   6.917 -1.2890  1.6291  1.2769
  119OSM   H14B12422   3.698   6.742   7.061 -3.2792 -0.5917 -0.5123
  119OSM   H14C12423   3.605   6.726   6.916 -0.1996  2.8646  0.9331
  119OSM    C1312424   3.932   6.651   6.971  0.4328  0.0261 -0.6575
  119OSM   H13A12425   3.962   6.727   6.900 -0.1889 -0.5428 -1.5494
  119OSM   H13B12426   4.009   6.576   6.967  0.4315 -0.1437  1.4218
  119OSM   H13C12427   3.935   6.678   7.076  1.1864 -0.7454 -0.4770
  119OSM    C1212428   3.794   6.574   6.785  0.4774 -0.1824  0.2327
  119OSM   H12A12429   3.856   6.489   6.766  0.5601 -0.0519 -0.0842
  119OSM   H12B12430   3.836   6.655   6.727 -0.0180 -0.5950 -0.7287
  119OSM    C1112431   3.644   6.539   6.738 -0.6681  0.6780 -0.0073
  119OSM   H11A12432   3.606   6.473   6.818  2.0341 -0.6095  0.3431
  119OSM   H11B12433   3.662   6.468   6.655 -0.6406 -0.3539  0.8702
  119OSM      P12434   3.603   6.739   6.593 -0.6157 -0.4324 -0.1026
  119OSM    O1312435   3.483   6.817   6.550 -0.1700  0.4949  0.8295
  119OSM    O1412436   3.717   6.824   6.636 -0.0490  0.2444 -0.6542
  119OSM    O1112437   3.638   6.646   6.474 -0.5581  0.3959 -0.3886
  119OSM    O1212438   3.556   6.646   6.708  0.3294 -0.1187  0.4244
  119OSM    C1S12439   3.533   6.572   6.410  0.9368  0.5834  0.1894
  119OSM    H1S12440   3.441   6.631   6.389  1.2764  1.3236  0.7351
  119OSM    H1T12441   3.500   6.488   6.474 -0.2794 -0.5270 -1.7926
  119OSM     NF12442   3.450   6.472   6.205 -0.3330 -0.1324  0.1597
  119OSM    HNF12443   3.445   6.373   6.196  1.7667 -0.3535  0.7639
  119OSM    C2S12444   3.564   6.516   6.269 -0.0175  0.0092 -0.5543
  119OSM    H2S12445   3.608   6.590   6.199 -0.2083  0.6240 -0.0338
  119OSM    C3S12446   3.669   6.401   6.286 -0.1799  0.0467 -0.2367
  119OSM    H3S12447   3.621   6.312   6.332  0.3968  0.3970  1.1120
  119OSM     O312448   3.779   6.429   6.377  0.6153  0.5204 -0.3841
  119OSM    HO312449   3.749   6.507   6.424  0.9457  0.8722 -0.7559
  119OSM    C4S12450   3.737   6.347   6.164  0.3938  0.3617  0.4183
  119OSM    H4S12451   3.693   6.250   6.134 -0.2708  0.4781  0.9967
  119OSM    C5S12452   3.839   6.394   6.088 -0.2405 -0.5216  0.5150
  119OSM    H5S12453   3.897   6.481   6.124 -0.5876  0.0709 -0.3444
  119OSM    C6S12454   3.890   6.317   5.966  0.4161 -0.7319  0.6213
  119OSM    H6S12455   3.811   6.261   5.913  0.7905  0.5274 -1.3894
  119OSM    H6T12456   3.957   6.236   6.002  0.9985 -0.0810  1.0461
  119OSM    C7S12457   3.960   6.410   5.857  0.4110  0.1681 -0.1336
  119OSM    H7S12458   4.044   6.471   5.894 -1.9448  2.1307  2.4608
  119OSM    H7T12459   3.883   6.480   5.819 -0.9695  0.4975  2.9425
  119OSM    C8S12460   4.013   6.323   5.748 -0.3916 -0.1671  0.9012
  119OSM    H8S12461   3.920   6.285   5.700  0.0050 -0.9256  0.7338
  119OSM    H8T12462   4.079   6.241   5.781  0.9513  0.6475  0.3259
  119OSM    C9S12463   4.070   6.409   5.639 -0.6565  0.0074  0.4155
  119OSM    H9S12464   4.115   6.345   5.560 -2.6199 -3.1035  1.5986
  119OSM    H9T12465   4.145   6.484   5.671  1.1551 -0.4262 -2.4853
  119OSM   C10S12466   3.955   6.494   5.574  0.9160 -0.2233 -0.0768
  119OSM   H10S12467   3.911   6.565   5.647 -0.9110  1.7992 -2.9306
  119OSM   H10T12468   3.870   6.431   5.540  1.9967 -1.7135 -0.1107
  119OSM   C11S12469   3.989   6.577   5.451  0.1736  0.2143  1.1324
  119OSM   H11S12470   4.080   6.632   5.485 -0.3164  2.4637 -0.9067
  119OSM   H11T12471   3.913   6.654   5.424  0.4377  0.4914  1.1674
  119OSM   C12S12472   4.006   6.497   5.320 -0.5299 -0.6182 -0.2349
  119OSM   H12S12473   3.909   6.444   5.306 -1.1696 -0.0161  1.5195
  119OSM   H12T12474   4.082   6.419   5.337  1.3576  1.0353 -0.6913
  119OSM   C13S12475   4.047   6.574   5.199 -0.4947  0.6435  0.0500
  119OSM   H13S12476   4.147   6.621   5.208 -0.1154  0.3284 -2.0302
  119OSM   H13T12477   3.985   6.666   5.185  0.3501  1.3344  0.6753
  119OSM   C14S12478   4.058   6.496   5.062 -0.8507  0.4156 -0.0209
  119OSM   H14S12479   3.965   6.438   5.042 -1.2726  1.7528 -2.3825
  119OSM   H14T12480   4.141   6.423   5.062 -1.0020  0.2451  0.1958
  119OSM   C15S12481   4.065   6.590   4.947  0.1220 -0.5360  0.4821
  119OSM   H15S12482   4.164   6.639   4.936 -0.6204  0.4370 -3.2445
  119OSM   H15T12483   3.992   6.674   4.950 -0.2706 -0.8429 -0.1287
  119OSM   C16S12484   4.036   6.524   4.806  0.0391  1.1000  0.3048
  119OSM   H16S12485   3.936   6.478   4.793  0.9092 -0.4200 -1.5052
  119OSM   H16T12486   4.096   6.432   4.792 -1.7636 -0.6996  3.4016
  119OSM   C17S12487   4.060   6.624   4.691  0.7671 -0.5022  0.2847
  119OSM   H17S12488   4.168   6.647   4.691  0.4882  0.8849 -0.4237
  119OSM   H17T12489   3.995   6.710   4.717  0.5637 -0.3974 -0.5405
  119OSM   C18S12490   4.036   6.571   4.548  0.9473  0.8512 -0.7002
  119OSM   H18S12491   4.060   6.654   4.478 -0.0506  0.5076 -1.4746
  119OSM   H18T12492   3.929   6.547   4.533  1.8003 -3.1337 -1.3280
  119OSM   H18U12493   4.094   6.480   4.523 -1.6605 -1.0653 -0.0870
  119OSM    C1F12494   3.372   6.547   6.131  0.6020  0.5857 -0.4203
  119OSM     OF12495   3.396   6.664   6.127 -0.3847 -0.1646 -0.3212
  119OSM    C2F12496   3.258   6.491   6.047 -0.6997  0.2007 -0.7554
  119OSM    H2F12497   3.166   6.499   6.109  0.6855 -2.0736  1.8151
  119OSM    H2G12498   3.268   6.381   6.034  3.4611  0.3198  0.1456
  119OSM    C3F12499   3.243   6.567   5.913  0.4385 -0.5189 -0.5674
  119OSM    H3F12500   3.324   6.543   5.841 -0.0663 -2.1381 -0.6386
  119OSM    H3G12501   3.241   6.676   5.937  1.1530 -0.4352 -0.8493
  119OSM    C4F12502   3.111   6.537   5.839 -0.1367  0.6592 -0.5359
  119OSM    H4F12503   3.030   6.567   5.908 -1.9092 -2.0284 -1.3016
  119OSM    H4G12504   3.111   6.426   5.831  2.2112  0.4710  0.9524
  119OSM    C5F12505   3.100   6.598   5.700  0.2431 -0.2955  0.7936
  119OSM    H5F12506   3.156   6.693   5.688 -0.2902  0.0544  1.0437
  119OSM    H5G12507   2.994   6.623   5.679  0.1711 -1.1441  0.0930
  119OSM    C6F12508   3.148   6.496   5.587 -0.6998 -0.1434 -0.0352
  119OSM    H6F12509   3.124   6.392   5.619 -2.9727  0.4257  0.2937
  119OSM    H6G12510   3.258   6.514   5.595 -0.9609  1.6238 -0.1973
  119OSM    C7F12511   3.109   6.536   5.447 -0.5670  1.0890  0.3471
  119OSM    H7F12512   3.104   6.647   5.439 -0.6666  1.0233 -0.5988
  119OSM    H7G12513   3.008   6.499   5.419 -1.7934  1.5199  3.8063
  119OSM    C8F12514   3.217   6.502   5.339  0.7106  0.4499 -0.4027
  119OSM    H8F12515   3.250   6.397   5.354  0.6257  0.3847 -0.6557
  119OSM    H8G12516   3.299   6.571   5.368  2.5118 -1.8261  0.2335
  119OSM    C9F12517   3.166   6.524   5.201  0.6183  0.0226  0.1402
  119OSM    H9F12518   3.113   6.619   5.183 -4.0982 -2.1301  1.1701
  119OSM   C10F12519   3.177   6.438   5.103  0.4589  0.7739 -0.0692
  119OSM   H10F12520   3.141   6.475   5.007  0.0595 -2.1001 -1.1173
  119OSM   C11F12521   3.242   6.300   5.115  0.7753 -0.1774  0.0755
  119OSM   H11F12522   3.172   6.232   5.167 -0.2840  1.8326  1.4127
  119OSM   H11G12523   3.337   6.306   5.173  1.4874  3.0996 -1.1852
  119OSM   C12F12524   3.275   6.248   4.974 -0.7309 -0.9777  0.1038
  119OSM   H12F12525   3.359   6.311   4.939 -0.5670 -0.0136  2.1042
  119OSM   H12G12526   3.188   6.267   4.907 -0.3537 -1.0436 -0.4077
  119OSM   C13F12527   3.313   6.101   4.963 -0.6293  0.2914 -0.6409
  119OSM   H13F12528   3.231   6.033   4.996 -0.7450  0.8058  0.1603
  119OSM   H13G12529   3.396   6.074   5.032 -0.2172  3.1214  0.1077
  119OSM   C14F12530   3.356   6.072   4.815 -0.0781 -0.3051 -0.2421
  119OSM   H14F12531   3.458   6.113   4.798  0.8619 -2.0629  0.8100
  119OSM   H14G12532   3.267   6.107   4.760 -1.5810 -2.7834  0.4539
  119OSM   C15F12533   3.388   5.920   4.786 -0.0256  0.2904 -0.0794
  119OSM   H15F12534   3.307   5.854   4.822  1.4998 -0.1071  2.9031
  119OSM   H15G12535   3.473   5.884   4.846 -0.2700 -1.9539 -0.9781
  119OSM   C16F12536   3.414   5.893   4.639  0.0239  0.1535  0.2213
  119OSM   H16F12537   3.446   5.788   4.621  0.3443  0.3632 -0.4716
  119OSM   H16G12538   3.494   5.957   4.597 -0.8114 -0.5503 -2.7325
  119OSM   C17F12539   3.285   5.912   4.555  0.0096  0.2772  0.1197
  119OSM   H17F12540   3.319   5.905   4.450 -1.9826  1.2662 -0.6546
  119OSM   H17G12541   3.247   6.015   4.575 -0.7772 -0.2062  1.2307
  119OSM   C18F12542   3.166   5.818   4.574 -0.5946 -0.1182 -0.1919
  119OSM   H18F12543   3.201   5.718   4.540  0.9611  0.4329 -0.2920
  119OSM   H18G12544   3.084   5.848   4.507  0.2191 -0.1023 -1.2045
  119OSM   H18H12545   3.139   5.816   4.682  0.6377  3.0602  0.3033
  120OSM      N12546   0.263   2.362   6.988 -0.2000 -0.3882  0.8475
  120OSM    C1512547   0.157   2.435   7.059 -0.1825 -1.1529  0.5395
  120OSM   H15A12548   0.082   2.469   6.989  1.5157 -0.2225 -0.9159
  120OSM   H15B12549   0.194   2.532   7.089 -0.3413 -0.8312 -0.2891
  120OSM   H15C12550   0.120   2.373   7.140  0.7467 -0.3330  1.6409
  120OSM    C1412551   0.372   2.329   7.077 -0.1253  0.1782 -0.5639
  120OSM   H14A12552   0.340   2.250   7.143  1.0947 -1.8786 -2.3332
  120OSM   H14B12553   0.409   2.414   7.133 -0.5594  0.1088 -0.1607
  120OSM   H14C12554   0.452   2.287   7.018  0.8746  0.0417  0.8454
  120OSM    C1312555   0.212   2.244   6.926 -0.2735 -0.2687 -0.5459
  120OSM   H13A12556   0.291   2.195   6.872  0.2966 -1.5413  1.3514
  120OSM   H13B12557   0.130   2.258   6.856 -1.2151 -1.0178  0.3643
  120OSM   H13C12558   0.179   2.170   6.997  1.4110  1.3568  2.0697
  120OSM    C1212559   0.322   2.452   6.872 -0.3084 -1.0627 -0.1729
  120OSM   H12A12560   0.388   2.515   6.930 -0.2180 -2.0845  0.8966
  120OSM   H12B12561   0.246   2.516   6.830  0.0517 -1.5273 -1.5515
  120OSM    C1112562   0.406   2.377   6.766  0.0330 -0.3258 -0.1136
  120OSM   H11A12563   0.432   2.450   6.686 -1.5026 -0.4882 -0.7896
  120OSM   H11B12564   0.343   2.309   6.705 -0.7443  1.7376 -1.6985
  120OSM      P12565   0.566   2.167   6.783  0.2687  0.1456  0.1698
  120OSM    O1312566   0.715   2.152   6.796  0.5873  0.4104  0.4631
  120OSM    O1412567   0.485   2.077   6.867  0.2597 -0.1263  0.0293
  120OSM    O1112568   0.541   2.158   6.632 -0.0636  0.3458 -0.3417
  120OSM    O1212569   0.532   2.319   6.814 -0.6799  0.0246 -0.1968
  120OSM    C1S12570   0.635   2.233   6.548 -0.4047 -0.5878  0.1838
  120OSM    H1S12571   0.736   2.188   6.554  0.6157  0.9847 -2.8773
  120OSM    H1T12572   0.644   2.338   6.584 -0.6366 -0.8937  1.1589
  120OSM     NF12573   0.698   2.320   6.321  0.2297  0.0064 -0.9966
  120OSM    HNF12574   0.689   2.420   6.315 -0.2308 -0.0106 -0.5947
  120OSM    C2S12575   0.595   2.247   6.393 -0.1033 -0.9169 -0.1929
  120OSM    H2S12576   0.585   2.141   6.361 -1.1772 -0.8339 -0.1617
  120OSM    C3S12577   0.454   2.309   6.379  0.1741  0.3209 -0.5502
  120OSM    H3S12578   0.461   2.411   6.423  3.0633 -0.5953  1.4508
  120OSM     O312579   0.359   2.223   6.448 -0.3995  0.2167  0.2758
  120OSM    HO312580   0.414   2.171   6.507  0.9154 -2.7966 -3.2512
  120OSM    C4S12581   0.420   2.329   6.235 -0.5984 -0.8812  0.8281
  120OSM    H4S12582   0.466   2.421   6.196  2.6906 -2.9841 -0.6627
  120OSM    C5S12583   0.357   2.249   6.149  1.0061 -0.2243 -0.6182
  120OSM    H5S12584   0.309   2.158   6.189 -2.0369  0.9046 -1.3747
  120OSM    C6S12585   0.320   2.272   6.008  0.2056 -0.1313  0.4796
  120OSM    H6S12586   0.225   2.216   6.001  0.2707 -0.1039 -0.7022
  120OSM    H6T12587   0.391   2.220   5.940  0.5537 -0.6615  1.2265
  120OSM    C7S12588   0.305   2.412   5.954  0.4429 -0.4629 -0.9587
  120OSM    H7S12589   0.406   2.457   5.947  0.6633 -1.0140 -1.3812
  120OSM    H7T12590   0.236   2.469   6.020  1.6727  2.1145 -1.7742
  120OSM    C8S12591   0.240   2.418   5.818  0.7840  1.2047 -0.2772
  120OSM    H8S12592   0.204   2.522   5.802  1.0276  1.5503  1.3072
  120OSM    H8T12593   0.148   2.354   5.815  0.9176  0.9945  0.1169
  120OSM    C9S12594   0.332   2.395   5.698  0.6406 -0.2254 -0.2539
  120OSM    H9S12595   0.390   2.301   5.711  1.5503  0.3895  0.3023
  120OSM    H9T12596   0.400   2.481   5.712  0.1228  0.4083 -1.4906
  120OSM   C10S12597   0.259   2.379   5.562  0.2991 -0.0690  0.5121
  120OSM   H10S12598   0.195   2.470   5.556  2.2883  1.3105 -1.0117
  120OSM   H10T12599   0.187   2.294   5.557 -0.4684  0.6413 -1.9352
  120OSM   C11S12600   0.351   2.390   5.442 -0.3155 -1.2338 -0.7050
  120OSM   H11S12601   0.442   2.329   5.458  1.3100  1.5069  1.3752
  120OSM   H11T12602   0.376   2.498   5.437 -3.6070 -0.2891  0.2985
  120OSM   C12S12603   0.277   2.343   5.306 -0.0343 -0.3261  0.1059
  120OSM   H12S12604   0.169   2.369   5.316  0.0178  0.2345 -0.6916
  120OSM   H12T12605   0.279   2.232   5.305 -0.0164 -0.3367  0.8319
  120OSM   C13S12606   0.338   2.396   5.177  0.2640  0.6229  0.4640
  120OSM   H13S12607   0.438   2.355   5.149  0.5891  1.1217  0.8815
  120OSM   H13T12608   0.343   2.507   5.181  0.3896  0.5872  1.5845
  120OSM   C14S12609   0.253   2.359   5.047  0.2601  0.7056 -1.2582
  120OSM   H14S12610   0.145   2.374   5.069  0.5258  1.0140 -0.1134
  120OSM   H14T12611   0.264   2.249   5.037  0.4048  0.5998 -0.0521
  120OSM   C15S12612   0.305   2.429   4.924 -0.3909 -0.4620  0.6152
  120OSM   H15S12613   0.414   2.441   4.943 -0.0627 -2.9050  0.5449
  120OSM   H15T12614   0.260   2.530   4.908  0.1019 -0.0807  1.5565
  120OSM   C16S12615   0.279   2.344   4.802  0.1679 -0.2580 -0.4667
  120OSM   H16S12616   0.177   2.362   4.759  0.2815 -1.2607 -1.2138
  120OSM   H16T12617   0.288   2.236   4.830 -2.3419 -0.3748  0.1411
  120OSM   C17S12618   0.378   2.357   4.682 -0.3972 -0.4573  0.1162
  120OSM   H17S12619   0.368   2.267   4.618 -1.9882  0.0467 -0.3978
  120OSM   H17T12620   0.483   2.355   4.718  0.1459  1.6662 -1.1852
  120OSM   C18S12621   0.361   2.472   4.581 -0.5353 -0.4048  0.0915
  120OSM   H18S12622   0.344   2.572   4.627  0.0010  0.0578 -0.6899
  120OSM   H18T12623   0.273   2.460   4.516  0.4427 -0.7009 -1.2098
  120OSM   H18U12624   0.452   2.474   4.518 -1.8516 -0.6504 -1.8917
  120OSM    C1F12625   0.813   2.278   6.268 -0.0457  0.5966 -0.1622
  120OSM     OF12626   0.844   2.161   6.277 -0.1637  0.5409 -0.2092
  120OSM    C2F12627   0.899   2.378   6.197 -0.1044  0.0470  0.1851
  120OSM    H2F12628   0.949   2.439   6.276 -0.8177  0.1383  0.5741
  120OSM    H2G12629   0.833   2.440   6.133 -0.4877  0.5875  1.0813
  120OSM    C3F12630   1.002   2.311   6.100 -0.7368 -0.8219  0.3558
  120OSM    H3F12631   1.070   2.249   6.161  2.3607  1.2733 -0.7198
  120OSM    H3G12632   1.073   2.391   6.069  0.1007 -2.4503 -2.2349
  120OSM    C4F12633   0.960   2.233   5.981  0.1917 -0.4375  0.1662
  120OSM    H4F12634   0.858   2.271   5.958  0.6322  1.3799  1.0417
  120OSM    H4G12635   0.939   2.129   6.015 -1.1684  0.0183  0.8067
  120OSM    C5F12636   1.049   2.242   5.858 -0.6013  0.8079 -0.1277
  120OSM    H5F12637   1.154   2.252   5.893  0.3460 -0.6513 -2.2758
  120OSM    H5G12638   1.020   2.322   5.787 -0.9186  1.4742  0.7375
  120OSM    C6F12639   1.045   2.107   5.778  0.3178  0.6484  0.5524
  120OSM    H6F12640   0.941   2.073   5.757  0.6319 -0.7851  1.2065
  120OSM    H6G12641   1.096   2.028   5.837  1.2168 -1.5151 -2.8229
  120OSM    C7F12642   1.130   2.117   5.646 -0.6957 -0.2682 -0.0436
  120OSM    H7F12643   1.233   2.146   5.674 -1.1897  1.9172 -0.3322
  120OSM    H7G12644   1.082   2.183   5.571 -0.7738 -1.2998 -0.9277
  120OSM    C8F12645   1.133   1.982   5.566  0.8211 -0.6880 -0.0363
  120OSM    H8F12646   1.144   1.904   5.644 -2.2133 -0.9660  0.2351
  120OSM    H8G12647   1.220   1.980   5.497  0.5627  1.2745 -0.4680
  120OSM    C9F12648   0.990   1.962   5.514 -0.7232 -0.3176  0.5911
  120OSM    H9F12649   0.920   1.932   5.594 -0.3700 -1.9239  0.3345
  120OSM   C10F12650   0.948   1.974   5.387  0.6626 -0.0491 -0.5385
  120OSM   H10F12651   0.847   1.931   5.375  0.7586 -0.5222  0.2917
  120OSM   C11F12652   1.029   1.996   5.258 -0.0241  0.0080 -0.3018
  120OSM   H11F12653   1.126   1.947   5.282 -1.3331 -2.3536  0.4429
  120OSM   H11G12654   1.042   2.105   5.238 -0.9101  0.4796  1.5053
  120OSM   C12F12655   0.959   1.930   5.137 -0.6237  0.2116 -0.3160
  120OSM   H12F12656   0.857   1.975   5.135 -0.0987  1.5174  1.2649
  120OSM   H12G12657   0.946   1.821   5.153 -1.6223 -0.1531 -2.9512
  120OSM   C13F12658   1.020   1.939   4.999  0.6019 -0.3320  0.1822
  120OSM   H13F12659   1.110   1.874   4.988  1.2948  0.9619 -2.9250
  120OSM   H13G12660   1.046   2.044   4.973 -0.6398 -0.1267 -0.3100
  120OSM   C14F12661   0.920   1.884   4.887 -0.4440  0.4772  0.0105
  120OSM   H14F12662   0.944   1.929   4.788  2.7432  1.1602  0.9645
  120OSM   H14G12663   0.821   1.927   4.913 -1.6796 -1.2370 -1.5675
  120OSM   C15F12664   0.908   1.731   4.886  0.1941 -0.4056 -0.2663
  120OSM   H15F12665   0.863   1.693   4.980 -0.2240  0.1187 -0.2516
  120OSM   H15G12666   1.008   1.682   4.885  0.3239 -0.3246  2.4243
  120OSM   C16F12667   0.834   1.682   4.758 -0.2358  0.5009 -0.7609
  120OSM   H16F12668   0.885   1.724   4.669  0.3226  0.7051 -0.3494
  120OSM   H16G12669   0.729   1.719   4.764 -0.6661 -0.3085 -2.5774
  120OSM   C17F12670   0.834   1.523   4.742  0.0568  0.0628  0.0514
  120OSM   H17F12671   0.763   1.470   4.809 -0.8535  1.8297  0.5409
  120OSM   H17G12672   0.933   1.486   4.775  0.9980  1.6926 -0.8406
  120OSM   C18F12673   0.812   1.476   4.598  0.0615 -0.7530  0.2258
  120OSM   H18F12674   0.889   1.523   4.532  0.4654  0.4030  1.4582
  120OSM   H18G12675   0.710   1.511   4.573  0.1084 -0.7778 -0.0060
  120OSM   H18H12676   0.822   1.368   4.575 -1.1500 -0.6705 -0.7510
  121OSM      N12677   3.528   5.406   6.744  0.4836  0.5142  0.2138
  121OSM    C1512678   3.506   5.533   6.818 -0.0690 -0.1799 -1.1633
  121OSM   H15A12679   3.494   5.619   6.753 -0.3644  1.9173  1.5067
  121OSM   H15B12680   3.583   5.551   6.892 -1.1551 -2.3402  0.5933
  121OSM   H15C12681   3.416   5.536   6.878  0.5088 -1.4981 -0.1854
  121OSM    C1412682   3.645   5.432   6.655  0.2489 -0.8625  0.6849
  121OSM   H14A12683   3.622   5.507   6.581  0.6277 -0.5172  0.9179
  121OSM   H14B12684   3.657   5.340   6.599 -1.6103 -2.7873  3.1806
  121OSM   H14C12685   3.743   5.459   6.692  0.9382 -1.0763 -0.8966
  121OSM    C1312686   3.571   5.305   6.849 -0.9092  0.2769 -0.6061
  121OSM   H13A12687   3.488   5.272   6.910 -2.3874  2.5073 -1.2766
  121OSM   H13B12688   3.654   5.344   6.906  1.1879 -2.4589 -1.5602
  121OSM   H13C12689   3.620   5.216   6.813 -0.4488  0.1324  0.3285
  121OSM    C1212690   3.405   5.366   6.662  0.3178  0.4767 -0.3847
  121OSM   H12A12691   3.324   5.358   6.733 -0.5748  0.6598 -1.3416
  121OSM   H12B12692   3.415   5.264   6.627  1.2594  0.2434  0.5346
  121OSM    C1112693   3.357   5.455   6.545  0.0099  0.3540 -0.3754
  121OSM   H11A12694   3.265   5.415   6.497 -0.2242 -0.5265  0.7425
  121OSM   H11B12695   3.433   5.459   6.465 -0.1351 -1.0451 -0.6151
  121OSM      P12696   3.336   5.718   6.504 -0.1366  0.3702  0.0492
  121OSM    O1312697   3.279   5.836   6.581  0.7506 -0.0682  0.0209
  121OSM    O1412698   3.476   5.729   6.458 -0.6043 -0.0425 -0.4952
  121OSM    O1112699   3.252   5.695   6.367 -1.2385  0.2191  0.0765
  121OSM    O1212700   3.322   5.583   6.589 -0.0346 -0.6456  0.3668
  121OSM    C1S12701   3.181   5.812   6.324  0.0833  0.6852 -0.5267
  121OSM    H1S12702   3.263   5.887   6.312  2.0125 -1.2440 -0.1774
  121OSM    H1T12703   3.102   5.840   6.397  1.1856 -1.5474  1.6911
  121OSM     NF12704   3.074   5.899   6.127  0.6935  0.4235 -0.3028
  121OSM    HNF12705   2.975   5.912   6.126  0.7112  0.6496 -1.6288
  121OSM    C2S12706   3.124   5.776   6.184  0.2895  0.5089 -1.0931
  121OSM    H2S12707   3.209   5.734   6.125  1.8586 -0.9305  1.9722
  121OSM    C3S12708   3.025   5.660   6.197  0.2137  0.2394 -0.0074
  121OSM    H3S12709   2.944   5.703   6.259  0.2300  0.1704  0.0632
  121OSM     O312710   3.068   5.543   6.268 -0.4541 -0.0248  0.2908
  121OSM    HO312711   3.156   5.562   6.302  1.7175 -2.9532 -2.9461
  121OSM    C4S12712   2.966   5.624   6.061  0.2110  0.1858  0.3594
  121OSM    H4S12713   3.040   5.584   5.990  0.5289  1.4001 -0.0012
  121OSM    C5S12714   2.841   5.629   6.017  0.9462 -0.4113  0.3700
  121OSM    H5S12715   2.767   5.664   6.091 -1.0633 -1.1537 -1.1953
  121OSM    C6S12716   2.785   5.580   5.887  0.5551  0.2777  0.4379
  121OSM    H6S12717   2.722   5.662   5.847 -1.4307 -0.5098  1.7744
  121OSM    H6T12718   2.724   5.489   5.899  0.8226 -0.0382 -0.5009
  121OSM    C7S12719   2.887   5.544   5.775 -0.0258  0.2275  0.1355
  121OSM    H7S12720   2.958   5.466   5.808  1.2673  1.4812  0.3904
  121OSM    H7T12721   2.952   5.631   5.754 -1.0640  1.1762  0.7592
  121OSM    C8S12722   2.812   5.492   5.650  0.8685  0.0194 -0.4342
  121OSM    H8S12723   2.754   5.576   5.607  1.6869  0.5266 -0.5762
  121OSM    H8T12724   2.746   5.409   5.683 -0.9161  1.3136 -0.6360
  121OSM    C9S12725   2.889   5.430   5.536 -0.4739 -0.3615  0.7153
  121OSM    H9S12726   2.920   5.324   5.550  1.6526 -0.0723 -1.1778
  121OSM    H9T12727   2.975   5.491   5.500 -1.1070 -0.5712 -1.2775
  121OSM   C10S12728   2.804   5.434   5.406 -0.3695  0.4978  0.0021
  121OSM   H10S12729   2.766   5.538   5.401  0.2838  0.8096  1.2055
  121OSM   H10T12730   2.711   5.374   5.412 -2.9898  3.8856 -2.4241
  121OSM   C11S12731   2.890   5.388   5.283 -0.0778 -0.1090 -0.2688
  121OSM   H11S12732   2.905   5.278   5.293  0.1664 -0.0648 -0.1348
  121OSM   H11T12733   2.993   5.428   5.287 -0.7113  1.4811  1.5614
  121OSM   C12S12734   2.825   5.413   5.148  0.6173 -0.3357 -0.4264
  121OSM   H12S12735   2.814   5.523   5.139 -2.3955 -0.3875  1.3753
  121OSM   H12T12736   2.724   5.367   5.138 -0.0741  1.2729 -1.0830
  121OSM   C13S12737   2.910   5.384   5.028 -0.6100  0.3875 -0.5436
  121OSM   H13S12738   2.936   5.277   5.037  0.1795  0.6248  0.1843
  121OSM   H13T12739   3.004   5.444   5.022  1.0604 -2.2116 -3.1597
  121OSM   C14S12740   2.815   5.408   4.917  0.4685 -0.2240  0.5141
  121OSM   H14S12741   2.790   5.516   4.921  1.3077  0.0579 -1.1173
  121OSM   H14T12742   2.720   5.350   4.919 -0.2017  0.7418 -0.9614
  121OSM   C15S12743   2.875   5.378   4.778 -0.3261  0.1556 -0.0092
  121OSM   H15S12744   2.906   5.272   4.764 -0.0440  0.3977 -1.3386
  121OSM   H15T12745   2.969   5.437   4.781  1.4115 -2.3721 -1.1210
  121OSM   C16S12746   2.793   5.438   4.668 -0.2532  0.3387 -0.1829
  121OSM   H16S12747   2.766   5.543   4.692  2.0744  0.5877  1.6147
  121OSM   H16T12748   2.699   5.378   4.677  1.1369 -1.9895 -0.2702
  121OSM   C17S12749   2.853   5.428   4.525 -0.1857 -0.1696 -0.6369
  121OSM   H17S12750   2.780   5.420   4.443 -0.2185  1.1920 -0.7654
  121OSM   H17T12751   2.909   5.333   4.518  0.0091 -0.2504  1.4146
  121OSM   C18S12752   2.942   5.549   4.500  0.4280 -0.1668  0.6111
  121OSM   H18S12753   3.016   5.579   4.578  2.1552  0.0918 -1.0539
  121OSM   H18T12754   2.875   5.636   4.481  0.8418 -0.0667 -0.4905
  121OSM   H18U12755   3.007   5.539   4.411 -0.4982  1.0514 -0.2355
  121OSM    C1F12756   3.148   5.999   6.084 -0.0947 -0.7511  0.0330
  121OSM     OF12757   3.269   5.997   6.110  0.6095 -0.5971 -0.1515
  121OSM    C2F12758   3.085   6.110   6.009  0.8574 -0.0857 -0.1605
  121OSM    H2F12759   3.126   6.207   6.043  1.6247  0.1527 -1.6807
  121OSM    H2G12760   2.974   6.114   6.007  0.7921 -0.8085  0.9623
  121OSM    C3F12761   3.135   6.107   5.859 -0.3817 -0.3333 -0.4601
  121OSM    H3F12762   3.245   6.117   5.853 -0.4081  1.4579  0.9676
  121OSM    H3G12763   3.087   6.199   5.818  0.5043  0.2565 -0.1953
  121OSM    C4F12764   3.085   5.984   5.777 -0.0443 -0.1782 -0.1489
  121OSM    H4F12765   2.989   5.948   5.819  0.3242 -1.6674 -0.5124
  121OSM    H4G12766   3.164   5.907   5.793 -0.3211 -0.8840 -1.9407
  121OSM    C5F12767   3.080   6.015   5.631 -0.3181  1.0349 -0.2494
  121OSM    H5F12768   3.172   6.073   5.607 -0.4948  2.4288  2.1238
  121OSM    H5G12769   2.998   6.087   5.611 -0.3832  1.1605  0.4345
  121OSM    C6F12770   3.077   5.891   5.539 -0.0410  0.8180  0.0474
  121OSM    H6F12771   3.143   5.810   5.577 -1.3306  1.0796  3.1444
  121OSM    H6G12772   3.117   5.926   5.441 -2.9167  0.3276 -1.3894
  121OSM    C7F12773   2.939   5.835   5.518 -1.1673 -0.2848  0.1057
  121OSM    H7F12774   2.895   5.796   5.612  0.1499 -1.3581  0.3100
  121OSM    H7G12775   2.955   5.749   5.450 -1.5593 -0.7131  0.5496
  121OSM    C8F12776   2.853   5.932   5.438 -0.2272  0.5323 -0.0639
  121OSM    H8F12777   2.879   5.911   5.332  1.0904  1.3967  0.0734
  121OSM    H8G12778   2.883   6.036   5.461 -0.3055  0.4338  0.4969
  121OSM    C9F12779   2.710   5.889   5.465 -0.6018 -1.0728  0.1974
  121OSM    H9F12780   2.693   5.865   5.571  2.6013 -0.3352  0.9825
  121OSM   C10F12781   2.615   5.861   5.378 -0.6102  0.2989  0.0365
  121OSM   H10F12782   2.516   5.839   5.421  0.2863  0.5309  2.3543
  121OSM   C11F12783   2.640   5.853   5.233  0.1911  0.2098  0.8311
  121OSM   H11F12784   2.727   5.789   5.210  0.4175 -0.0688  2.3536
  121OSM   H11G12785   2.682   5.947   5.193  1.1252 -0.8609 -0.7660
  121OSM   C12F12786   2.519   5.795   5.149 -0.3517  0.0670  0.0170
  121OSM   H12F12787   2.433   5.864   5.159  0.0616  0.7647 -1.1030
  121OSM   H12G12788   2.491   5.692   5.180 -0.4938 -0.4861 -1.8280
  121OSM   C13F12789   2.539   5.792   5.000  0.2520  0.6518 -0.1481
  121OSM   H13F12790   2.615   5.716   4.975 -0.1791  0.4467 -0.8698
  121OSM   H13G12791   2.578   5.888   4.958  3.3047 -0.1447  0.6435
  121OSM   C14F12792   2.410   5.752   4.926 -0.5685 -0.0909 -0.1248
  121OSM   H14F12793   2.336   5.835   4.934  0.4207  0.6383  2.4153
  121OSM   H14G12794   2.363   5.665   4.978 -1.5896 -1.0973 -2.5525
  121OSM   C15F12795   2.447   5.714   4.780  0.1664 -0.2024  0.3284
  121OSM   H15F12796   2.520   5.631   4.784  1.4596  0.7819 -1.4950
  121OSM   H15G12797   2.499   5.802   4.736 -2.1664  1.4644  0.7270
  121OSM   C16F12798   2.321   5.701   4.693  0.7620  0.2629  0.4130
  121OSM   H16F12799   2.279   5.804   4.693 -0.7690 -0.2941  2.3101
  121OSM   H16G12800   2.241   5.630   4.723  0.4278 -0.8890 -2.7643
  121OSM   C17F12801   2.353   5.659   4.550 -0.3806 -0.0994  0.3493
  121OSM   H17F12802   2.403   5.560   4.541  0.8387  0.6889 -3.3118
  121OSM   H17G12803   2.434   5.718   4.502  0.2868 -1.8974 -0.8319
  121OSM   C18F12804   2.229   5.667   4.463  0.1454  0.1156 -0.0306
  121OSM   H18F12805   2.152   5.611   4.520  0.1777  1.7497  1.7005
  121OSM   H18G12806   2.241   5.608   4.369  0.5307 -0.6204  0.4711
  121OSM   H18H12807   2.196   5.772   4.455 -2.4223 -0.5532  0.8704
  122OSM      N12808   3.630   2.933   7.065 -0.0139 -0.8556 -0.0081
  122OSM    C1512809   3.516   2.933   7.157 -0.0194  0.4791 -0.0042
  122OSM   H15A12810   3.551   2.981   7.247  1.0164  0.2966 -0.2879
  122OSM   H15B12811   3.475   2.834   7.171 -3.4407  1.4791 -1.8697
  122OSM   H15C12812   3.437   2.993   7.115  0.3017 -1.0946 -3.1512
  122OSM    C1412813   3.693   3.071   7.062  0.2375  0.4970 -0.3056
  122OSM   H14A12814   3.618   3.143   7.032  0.8642  0.2732 -2.5960
  122OSM   H14B12815   3.770   3.086   6.987  0.8533 -0.1218  0.1942
  122OSM   H14C12816   3.739   3.095   7.157 -1.6094  0.6601  0.5857
  122OSM    C1312817   3.733   2.833   7.119  0.0933  0.2003 -0.0060
  122OSM   H13A12818   3.829   2.847   7.069  0.1053 -0.3567 -0.1421
  122OSM   H13B12819   3.699   2.734   7.093  0.2305 -0.0375  0.6964
  122OSM   H13C12820   3.751   2.843   7.225 -1.2124 -1.8407  0.4549
  122OSM    C1212821   3.570   2.895   6.932  0.2582  0.3068  0.6564
  122OSM   H12A12822   3.502   2.972   6.900  0.9026 -0.0340 -1.7097
  122OSM   H12B12823   3.512   2.805   6.945  1.2390 -0.3248  0.8453
  122OSM    C1112824   3.668   2.874   6.818 -0.0400 -1.0465 -0.3998
  122OSM   H11A12825   3.751   2.948   6.829  0.6005 -1.9698  1.4013
  122OSM   H11B12826   3.617   2.884   6.720 -2.1411  0.7637  0.7840
  122OSM      P12827   3.668   2.606   6.802 -0.2497  0.0413 -0.2595
  122OSM    O1312828   3.770   2.500   6.786 -0.0387 -1.0662  0.3789
  122OSM    O1412829   3.567   2.576   6.902 -0.5390  0.1101  0.0916
  122OSM    O1112830   3.596   2.619   6.661 -0.0089  0.9660 -0.3374
  122OSM    O1212831   3.725   2.748   6.832 -0.2811 -0.5026  0.1763
  122OSM    C1S12832   3.681   2.662   6.550  0.2336 -0.5347 -0.1953
  122OSM    H1S12833   3.773   2.599   6.544  0.6380 -0.0753  0.9047
  122OSM    H1T12834   3.714   2.768   6.552  1.1389 -0.7991 -0.4324
  122OSM     NF12835   3.688   2.615   6.291 -0.3520 -0.2438  0.3743
  122OSM    HNF12836   3.704   2.696   6.234 -0.4418 -0.6262 -0.1999
  122OSM    C2S12837   3.604   2.643   6.413 -0.0651 -0.0322 -0.0969
  122OSM    H2S12838   3.536   2.557   6.432  2.4307 -2.3005 -0.8398
  122OSM    C3S12839   3.513   2.766   6.401 -0.3566 -0.2734  0.0694
  122OSM    H3S12840   3.570   2.862   6.393  1.8658 -1.3298  1.8887
  122OSM     O312841   3.436   2.786   6.518  0.1341 -0.1269 -0.0926
  122OSM    HO312842   3.475   2.719   6.575  0.9007  0.2367 -0.1779
  122OSM    C4S12843   3.416   2.752   6.291  0.0269 -0.5306 -0.3764
  122OSM    H4S12844   3.376   2.651   6.276 -2.2604 -0.0179  1.5338
  122OSM    C5S12845   3.369   2.847   6.210 -0.5671 -0.3539  0.7636
  122OSM    H5S12846   3.415   2.945   6.229  0.1785 -0.8077  1.3801
  122OSM    C6S12847   3.300   2.820   6.080 -1.0038 -0.3265 -0.0233
  122OSM    H6S12848   3.237   2.905   6.048  0.5477  0.9570  0.1725
  122OSM    H6T12849   3.239   2.728   6.090 -0.1592 -0.7802  1.3047
  122OSM    C7S12850   3.405   2.802   5.965 -0.0574 -0.2288  0.9160
  122OSM    H7S12851   3.481   2.732   6.006  0.9016  1.4012  2.0374
  122OSM    H7T12852   3.467   2.890   5.939 -1.7926  1.0313  0.8440
  122OSM    C8S12853   3.346   2.756   5.830 -0.2342  0.1254  0.2647
  122OSM    H8S12854   3.265   2.828   5.808 -2.4115 -1.5385  2.3011
  122OSM    H8T12855   3.284   2.666   5.850 -1.1262  0.3661 -1.2782
  122OSM    C9S12856   3.442   2.734   5.720 -0.0347 -0.1714 -0.1981
  122OSM    H9S12857   3.510   2.653   5.752 -3.3692 -2.0810  2.8146
  122OSM    H9T12858   3.495   2.829   5.697 -0.7864  0.0639 -1.0091
  122OSM   C10S12859   3.361   2.701   5.595  0.4896 -0.7812  0.1200
  122OSM   H10S12860   3.279   2.626   5.595  0.6682 -0.9832 -0.6833
  122OSM   H10T12861   3.427   2.665   5.513 -0.2923  1.1492 -1.4473
  122OSM   C11S12862   3.312   2.832   5.525 -0.2942 -0.4679  0.0387
  122OSM   H11S12863   3.388   2.910   5.506 -1.3864  0.1991 -1.8929
  122OSM   H11T12864   3.242   2.890   5.590  1.1844  0.7389  0.6123
  122OSM   C12S12865   3.231   2.798   5.396 -0.2712 -0.4812 -0.8278
  122OSM   H12S12866   3.156   2.878   5.376 -0.1364  0.4882  2.0389
  122OSM   H12T12867   3.169   2.711   5.427  2.8440 -2.2484  0.9228
  122OSM   C13S12868   3.302   2.750   5.272 -0.6054 -0.3578  0.9411
  122OSM   H13S12869   3.230   2.738   5.188  2.6828  2.2623 -2.5603
  122OSM   H13T12870   3.357   2.655   5.287  0.2092 -0.2794 -1.2316
  122OSM   C14S12871   3.391   2.867   5.228 -0.0279 -0.7345 -0.2335
  122OSM   H14S12872   3.496   2.836   5.250  0.1957  0.7417  0.9499
  122OSM   H14T12873   3.365   2.957   5.288  0.5266 -0.1468 -0.8487
  122OSM   C15S12874   3.375   2.901   5.076 -0.7151  0.5085 -0.0896
  122OSM   H15S12875   3.431   2.995   5.055  1.8358 -0.6992  0.8721
  122OSM   H15T12876   3.270   2.918   5.044 -1.2541 -0.1697  1.2473
  122OSM   C16S12877   3.441   2.790   4.987  0.4451  0.1149 -0.1904
  122OSM   H16S12878   3.413   2.686   5.015  1.5913 -0.0328  0.4356
  122OSM   H16T12879   3.548   2.813   5.000  1.0234 -2.0706 -0.6812
  122OSM   C17S12880   3.424   2.820   4.833  0.3407 -0.4021 -0.1481
  122OSM   H17S12881   3.510   2.779   4.777 -0.3816 -0.2700 -1.3943
  122OSM   H17T12882   3.431   2.929   4.814  0.2172 -0.4725 -0.6074
  122OSM   C18S12883   3.291   2.767   4.774 -0.2060  0.5193 -0.8021
  122OSM   H18S12884   3.303   2.661   4.743 -0.7720 -0.5866  2.3836
  122OSM   H18T12885   3.262   2.827   4.685 -1.0534  0.4605 -0.5789
  122OSM   H18U12886   3.213   2.758   4.853  1.5370  0.0258  0.9275
  122OSM    C1F12887   3.738   2.496   6.271 -0.8915  0.7018 -0.0002
  122OSM     OF12888   3.730   2.414   6.362  0.1700  0.4696 -0.4411
  122OSM    C2F12889   3.817   2.465   6.146 -0.0405 -0.2642 -0.8387
  122OSM    H2F12890   3.922   2.453   6.182 -0.4525  0.9521  0.9396
  122OSM    H2G12891   3.819   2.557   6.083 -1.4705  0.4462  0.0814
  122OSM    C3F12892   3.755   2.348   6.056  0.4479 -0.0684 -0.8762
  122OSM    H3F12893   3.790   2.366   5.953 -0.2621  2.0938 -0.8007
  122OSM    H3G12894   3.645   2.362   6.068  0.6484  2.1498 -1.2232
  122OSM    C4F12895   3.789   2.207   6.118  0.0098 -0.3029  0.7480
  122OSM    H4F12896   3.829   2.233   6.218  2.0816  1.4266 -0.4296
  122OSM    H4G12897   3.873   2.159   6.064  0.5524  1.6412 -0.2643
  122OSM    C5F12898   3.675   2.099   6.114  0.6155 -0.6026 -1.1705
  122OSM    H5F12899   3.577   2.148   6.132  0.6457 -0.9588  0.0708
  122OSM    H5G12900   3.694   2.028   6.197 -0.9567 -0.3780 -0.5781
  122OSM    C6F12901   3.675   2.021   5.980 -0.1994  0.1344 -0.2880
  122OSM    H6F12902   3.596   1.944   5.991  0.1124 -0.1948 -0.3104
  122OSM    H6G12903   3.774   1.971   5.969 -0.0975 -0.1058  1.4731
  122OSM    C7F12904   3.629   2.106   5.862  0.2807 -0.8322 -0.2776
  122OSM    H7F12905   3.708   2.184   5.845 -2.5369  2.1849 -0.5796
  122OSM    H7G12906   3.536   2.162   5.886  0.1819 -0.0929 -2.1973
  122OSM    C8F12907   3.590   2.025   5.738 -0.1743 -0.0753  0.0213
  122OSM    H8F12908   3.499   1.970   5.768 -1.5876  2.3653  0.4945
  122OSM    H8G12909   3.673   1.965   5.695  2.3267  2.9999  0.1754
  122OSM    C9F12910   3.538   2.129   5.636 -0.5274 -0.1743 -1.3197
  122OSM    H9F12911   3.458   2.196   5.670  0.5699  0.4315  0.1467
  122OSM   C10F12912   3.551   2.121   5.502  0.0676 -0.5138 -0.4304
  122OSM   H10F12913   3.501   2.200   5.443 -1.3776 -1.9594 -1.2358
  122OSM   C11F12914   3.631   2.020   5.426  0.2787 -0.0495 -0.1435
  122OSM   H11F12915   3.696   1.955   5.489 -1.2962  0.6779  2.3828
  122OSM   H11G12916   3.704   2.056   5.350  2.2046 -4.0812 -0.4920
  122OSM   C12F12917   3.524   1.916   5.374 -0.8341  0.5261  0.7504
  122OSM   H12F12918   3.491   1.846   5.455 -0.7163  0.3697  0.6629
  122OSM   H12G12919   3.584   1.844   5.315  2.5033  0.4841  3.8372
  122OSM   C13F12920   3.413   1.974   5.296 -0.7630 -0.6611  0.0805
  122OSM   H13F12921   3.454   2.056   5.232 -2.1022 -0.9022 -1.1581
  122OSM   H13G12922   3.330   2.015   5.357 -2.6055 -2.5902 -1.0018
  122OSM   C14F12923   3.348   1.875   5.199  0.7550  0.2660  0.0334
  122OSM   H14F12924   3.253   1.921   5.164  1.9694  0.5656 -3.1348
  122OSM   H14G12925   3.314   1.781   5.247  2.1145 -0.3111 -0.0967
  122OSM   C15F12926   3.416   1.839   5.064  0.3474  0.1473 -0.5792
  122OSM   H15F12927   3.347   1.761   5.024 -0.2279  0.3471 -0.0174
  122OSM   H15G12928   3.514   1.790   5.079  1.1346  0.9205 -2.8328
  122OSM   C16F12929   3.439   1.956   4.976 -0.1530  0.7088  0.6500
  122OSM   H16F12930   3.513   2.026   5.021  1.6524 -0.3952 -0.4676
  122OSM   H16G12931   3.347   2.015   4.960  1.2199  2.9628  0.6044
  122OSM   C17F12932   3.489   1.905   4.832 -0.9831 -0.0751  0.0818
  122OSM   H17F12933   3.438   1.809   4.810 -2.7509  0.8556 -0.0660
  122OSM   H17G12934   3.600   1.896   4.834 -0.9622  0.0714  2.0207
  122OSM   C18F12935   3.435   1.999   4.723 -0.5265  0.9401  0.6024
  122OSM   H18F12936   3.486   1.982   4.626 -1.0455 -0.6062  0.5663
  122OSM   H18G12937   3.452   2.101   4.764  0.8091 -0.6540  4.5997
  122OSM   H18H12938   3.325   1.995   4.731 -0.5192  2.0577  1.6213
  123OSM      N12939   4.818   1.255   1.672  0.0958 -0.4213  0.4070
  123OSM    C1512940   4.714   1.179   1.597 -0.2340 -0.2062 -1.0992
  123OSM   H15A12941   4.690   1.212   1.497  1.2793 -0.5154 -1.5934
  123OSM   H15B12942   4.625   1.193   1.656  1.2045  4.0918  0.4657
  123OSM   H15C12943   4.748   1.078   1.582  0.4956 -0.1140 -0.1352
  123OSM    C1412944   4.951   1.256   1.609  0.1716 -0.0262  0.4862
  123OSM   H14A12945   4.987   1.158   1.582  0.5980  0.7918 -2.1351
  123OSM   H14B12946   5.023   1.302   1.676 -0.1763  3.0879 -1.1271
  123OSM   H14C12947   4.936   1.311   1.517 -3.9051  1.3906  1.7876
  123OSM    C1312948   4.776   1.400   1.683 -0.1726  0.0139  0.7051
  123OSM   H13A12949   4.697   1.405   1.757 -0.1156  0.6582  0.7297
  123OSM   H13B12950   4.744   1.445   1.590 -0.6231  0.6116  1.1399
  123OSM   H13C12951   4.852   1.471   1.713 -0.0987  0.4287 -0.4139
  123OSM    C1212952   4.824   1.191   1.810 -0.7424  0.2571  1.1283
  123OSM   H12A12953   4.885   1.262   1.864  0.7771  1.1923 -1.5777
  123OSM   H12B12954   4.866   1.093   1.790 -1.9356  0.4565 -3.5964
  123OSM    C1112955   4.701   1.167   1.897  0.3593  0.0111  0.0530
  123OSM   H11A12956   4.730   1.105   1.985  2.4742  1.6805  0.6204
  123OSM   H11B12957   4.628   1.114   1.832  0.9729 -0.5109 -0.2190
  123OSM      P12958   4.697   1.366   2.064 -0.0412 -0.4826 -0.4996
  123OSM    O1312959   4.828   1.319   2.116  0.1207  0.2809 -0.8129
  123OSM    O1412960   4.676   1.509   2.038  0.3769 -0.0875  0.2910
  123OSM    O1112961   4.582   1.320   2.163 -0.5095 -0.0729 -0.1619
  123OSM    O1212962   4.649   1.293   1.933  0.0526  0.2639 -0.4868
  123OSM    C1S12963   4.542   1.206   2.227  0.0348  0.3208 -0.0715
  123OSM    H1S12964   4.575   1.120   2.165 -0.3856  0.3680 -0.3680
  123OSM    H1T12965   4.431   1.205   2.224 -0.0986 -0.4247  2.5130
  123OSM     NF12966   4.566   1.054   2.434 -0.6527  0.4201 -0.2159
  123OSM    HNF12967   4.497   1.053   2.506 -1.0015  3.3962 -0.3691
  123OSM    C2S12968   4.588   1.194   2.382  0.1957  0.7112  1.0389
  123OSM    H2S12969   4.698   1.205   2.381  0.3485 -0.6333  1.1190
  123OSM    C3S12970   4.523   1.312   2.463 -0.8555  0.4468 -0.4368
  123OSM    H3S12971   4.414   1.291   2.468 -0.9316  1.0432  1.3074
  123OSM     O312972   4.537   1.436   2.401  0.2138 -0.3913 -0.5206
  123OSM    HO312973   4.533   1.431   2.305  2.0062  3.5954 -0.9767
  123OSM    C4S12974   4.571   1.322   2.603 -0.3873  0.2051 -0.9478
  123OSM    H4S12975   4.492   1.293   2.674 -0.1077 -0.5135 -0.9188
  123OSM    C5S12976   4.689   1.363   2.652  0.8702 -0.0135  0.0300
  123OSM    H5S12977   4.769   1.373   2.577  0.4147 -2.7747 -0.9673
  123OSM    C6S12978   4.725   1.378   2.795 -0.1938  0.8061 -0.3759
  123OSM    H6S12979   4.773   1.477   2.811 -0.2306  0.9047 -0.8752
  123OSM    H6T12980   4.795   1.297   2.826 -1.6548 -0.0163  0.9331
  123OSM    C7S12981   4.613   1.346   2.898 -0.4139 -0.0698  0.7556
  123OSM    H7S12982   4.578   1.241   2.886 -0.2297 -0.2463  1.6661
  123OSM    H7T12983   4.530   1.419   2.888 -0.5340 -0.4479 -1.3814
  123OSM    C8S12984   4.684   1.366   3.036 -0.0939  0.2711  0.5396
  123OSM    H8S12985   4.752   1.454   3.037  0.6566 -0.1469 -2.9330
  123OSM    H8T12986   4.749   1.277   3.047  1.6625  1.4701  0.3052
  123OSM    C9S12987   4.580   1.386   3.143  0.1245  0.5525 -0.0295
  123OSM    H9S12988   4.490   1.323   3.125 -0.5958  1.6181 -0.2453
  123OSM    H9T12989   4.552   1.494   3.137 -1.2519  0.2287  0.1709
  123OSM   C10S12990   4.648   1.356   3.276  0.4014 -0.5104  1.1312
  123OSM   H10S12991   4.746   1.409   3.284 -0.0910  0.6482 -0.1940
  123OSM   H10T12992   4.659   1.245   3.272  0.1277 -0.5015 -0.5709
  123OSM   C11S12993   4.566   1.397   3.406 -0.8242 -0.0985  0.1203
  123OSM   H11S12994   4.464   1.352   3.400 -0.6996 -0.3782  0.0966
  123OSM   H11T12995   4.550   1.507   3.401 -0.8684 -0.0566  0.9599
  123OSM   C12S12996   4.634   1.354   3.535 -0.8810 -0.0410  0.2142
  123OSM   H12S12997   4.729   1.407   3.558 -0.3129 -1.1007  0.3605
  123OSM   H12T12998   4.663   1.247   3.535 -0.9806 -0.1477  2.8250
  123OSM   C13S12999   4.535   1.378   3.653  0.4978  0.3400  0.3893
  123OSM   H13S13000   4.581   1.344   3.749  2.6431  0.5809 -0.4851
  123OSM   H13T13001   4.442   1.321   3.635  0.9657 -0.3653  0.1536
  123OSM   C14S13002   4.506   1.523   3.667  1.4431 -0.7263 -0.7329
  123OSM   H14S13003   4.442   1.565   3.586 -0.0080 -0.2037  0.6464
  123OSM   H14T13004   4.595   1.588   3.655  0.2732  1.7566  2.4876
  123OSM   C15S13005   4.446   1.557   3.810 -0.5185  0.6282  0.6612
  123OSM   H15S13006   4.453   1.668   3.815  1.5750  0.6215 -0.8174
  123OSM   H15T13007   4.507   1.517   3.893  0.2468 -1.3081 -0.7673
  123OSM   C16S13008   4.294   1.517   3.825 -0.1333 -0.5124  0.2381
  123OSM   H16S13009   4.303   1.406   3.833  3.6657 -0.3402  0.0154
  123OSM   H16T13010   4.231   1.532   3.734  0.5210 -2.8873 -0.7054
  123OSM   C17S13011   4.227   1.583   3.945 -0.1329 -0.5345 -0.0652
  123OSM   H17S13012   4.213   1.692   3.931  0.7655  0.3597  4.4257
  123OSM   H17T13013   4.294   1.565   4.032 -0.8518  1.3967  0.9581
  123OSM   C18S13014   4.095   1.509   3.990 -0.1110  0.4416 -0.5076
  123OSM   H18S13015   4.066   1.555   4.087  0.3356 -4.6999  2.3839
  123OSM   H18T13016   4.107   1.401   4.013 -1.0738  0.1316 -1.3629
  123OSM   H18U13017   4.015   1.521   3.913  0.2984 -0.1892 -1.0460
  123OSM    C1F13018   4.619   0.946   2.376 -0.6138  0.2489  0.1053
  123OSM     OF13019   4.710   0.957   2.295  0.1360  0.9231  0.5335
  123OSM    C2F13020   4.552   0.821   2.412 -0.3769  0.2402 -0.0996
  123OSM    H2F13021   4.444   0.825   2.389  0.0875  1.1394 -2.3290
  123OSM    H2G13022   4.572   0.794   2.518 -0.4149 -1.1219 -0.4238
  123OSM    C3F13023   4.613   0.704   2.324 -0.1440  0.1665  0.3931
  123OSM    H3F13024   4.721   0.694   2.344  0.2923  0.2322 -1.6598
  123OSM    H3G13025   4.617   0.733   2.217  2.0967 -0.2044  0.3376
  123OSM    C4F13026   4.529   0.575   2.341  0.8625  0.7583 -0.6027
  123OSM    H4F13027   4.572   0.494   2.277 -0.9107 -0.7614  0.0687
  123OSM    H4G13028   4.419   0.586   2.329  0.6058 -0.9708 -0.0504
  123OSM    C5F13029   4.545   0.512   2.479 -0.3732 -0.0342 -0.6670
  123OSM    H5F13030   4.509   0.407   2.477 -1.6703  0.2919  1.6940
  123OSM    H5G13031   4.481   0.563   2.554 -0.8483 -0.5762 -0.6923
  123OSM    C6F13032   4.690   0.508   2.530  0.3087  0.0739 -0.9383
  123OSM    H6F13033   4.735   0.609   2.540  1.8360 -0.6813  0.1830
  123OSM    H6G13034   4.758   0.460   2.457  2.6253  1.5758  0.1047
  123OSM    C7F13035   4.707   0.424   2.661 -0.1921  0.4390  0.6841
  123OSM    H7F13036   4.817   0.435   2.669 -0.0136 -0.8115  0.1435
  123OSM    H7G13037   4.689   0.320   2.627 -1.9479  1.2009 -0.9367
  123OSM    C8F13038   4.623   0.461   2.780  0.0211  0.4247 -0.2053
  123OSM    H8F13039   4.514   0.457   2.757  0.0449 -0.2915 -0.2177
  123OSM    H8G13040   4.641   0.569   2.798 -0.0218  0.5991 -1.1328
  123OSM    C9F13041   4.652   0.384   2.903 -0.1338  0.5760 -0.3751
  123OSM    H9F13042   4.752   0.339   2.914 -0.3967  0.2088  0.5182
  123OSM   C10F13043   4.569   0.358   3.006  0.1310  0.5181 -0.4583
  123OSM   H10F13044   4.609   0.310   3.096 -0.3428 -1.2131 -1.1314
  123OSM   C11F13045   4.419   0.397   3.019  0.1836 -0.1858 -0.8119
  123OSM   H11F13046   4.357   0.308   2.994  1.5487 -0.9680 -1.4533
  123OSM   H11G13047   4.386   0.478   2.950  0.7239  0.9615  0.2550
  123OSM   C12F13048   4.389   0.444   3.166  0.0289  0.5238  0.2657
  123OSM   H12F13049   4.404   0.362   3.241 -1.0964  2.7270  3.0792
  123OSM   H12G13050   4.282   0.470   3.155  0.0010 -0.4280 -2.3344
  123OSM   C13F13051   4.461   0.570   3.212 -0.3939 -0.6133 -0.3181
  123OSM   H13F13052   4.380   0.623   3.267 -0.2016 -1.5591  0.9166
  123OSM   H13G13053   4.516   0.623   3.131 -2.2144  1.0633 -0.5298
  123OSM   C14F13054   4.563   0.546   3.321 -0.5888  0.7217 -0.5829
  123OSM   H14F13055   4.604   0.647   3.341 -0.5010  0.2070  2.1411
  123OSM   H14G13056   4.655   0.496   3.283 -0.0010  1.6239 -0.3724
  123OSM   C15F13057   4.520   0.480   3.455  0.6001 -0.6082 -0.1411
  123OSM   H15F13058   4.469   0.383   3.437  1.1594 -0.6171 -1.7880
  123OSM   H15G13059   4.435   0.536   3.501  1.9923  2.2566 -0.8680
  123OSM   C16F13060   4.632   0.476   3.557  0.2708  0.3762  0.1667
  123OSM   H16F13061   4.687   0.571   3.540  0.7720  0.1609  0.5416
  123OSM   H16G13062   4.703   0.394   3.534  0.2292 -0.4130  2.5839
  123OSM   C17F13063   4.593   0.473   3.701 -0.1622 -0.3793 -0.1549
  123OSM   H17F13064   4.568   0.370   3.736 -0.4616  0.8149  3.4882
  123OSM   H17G13065   4.500   0.532   3.713  0.6966  1.0823 -0.4541
  123OSM   C18F13066   4.700   0.528   3.796 -0.1681 -0.3204 -0.1757
  123OSM   H18F13067   4.719   0.636   3.776 -2.6629  0.0337 -1.0142
  123OSM   H18G13068   4.790   0.462   3.794  0.4229  0.4762 -0.5963
  123OSM   H18H13069   4.663   0.526   3.900  1.1362  1.5571  0.3807
  124OSM      N13070   4.516   2.256   1.850  0.5295 -0.0218  0.8523
  124OSM    C1513071   4.660   2.301   1.833 -0.0493  0.4199  0.6669
  124OSM   H15A13072   4.699   2.356   1.918 -0.7380 -1.1302  2.0360
  124OSM   H15B13073   4.665   2.375   1.754 -2.1631  2.6564  2.4605
  124OSM   H15C13074   4.728   2.226   1.796 -0.7102  0.6318 -1.0499
  124OSM    C1413075   4.427   2.376   1.847 -0.1126  0.7014  0.5872
  124OSM   H14A13076   4.449   2.434   1.758  0.8361 -1.1081 -0.4130
  124OSM   H14B13077   4.442   2.431   1.939 -0.4855 -1.2906  1.8931
  124OSM   H14C13078   4.323   2.352   1.831 -0.1245  0.5832  0.8409
  124OSM    C1313079   4.482   2.168   1.732 -0.2577 -0.5412  0.1791
  124OSM   H13A13080   4.541   2.079   1.744 -1.4518 -1.0261  3.3411
  124OSM   H13B13081   4.508   2.207   1.635 -1.9338 -0.3946 -0.2455
  124OSM   H13C13082   4.377   2.141   1.736 -0.0569 -1.3896 -0.0517
  124OSM    C1213083   4.505   2.191   1.984 -0.2040 -0.1650 -0.5449
  124OSM   H12A13084   4.547   2.266   2.049  2.2481 -1.2051 -0.7962
  124OSM   H12B13085   4.568   2.104   1.989  0.1757  0.0664 -1.1647
  124OSM    C1113086   4.362   2.141   2.033 -0.4056 -0.3593 -0.0354
  124OSM   H11A13087   4.293   2.228   2.030  0.2598  0.2177  0.8536
  124OSM   H11B13088   4.357   2.108   2.139 -1.4174  1.2917  0.4771
  124OSM      P13089   4.342   1.892   1.965  0.1490 -0.0136  0.2521
  124OSM    O1313090   4.207   1.824   1.955 -0.8930 -0.3453  0.0231
  124OSM    O1413091   4.456   1.855   1.869  0.3728 -0.2968  0.0120
  124OSM    O1113092   4.402   1.877   2.112 -0.1102 -0.3912  0.1189
  124OSM    O1213093   4.318   2.042   1.943  0.1297 -0.9497  0.4729
  124OSM    C1S13094   4.496   1.780   2.154  0.4755  0.7690 -0.1099
  124OSM    H1S13095   4.581   1.774   2.082  0.0447  0.9649 -0.6386
  124OSM    H1T13096   4.451   1.678   2.157  1.0373  0.4994  2.9451
  124OSM     NF13097   4.653   1.699   2.343 -0.1459  0.0008  0.5429
  124OSM    HNF13098   4.627   1.619   2.397 -3.4306  1.7666  1.8674
  124OSM    C2S13099   4.550   1.796   2.311  0.0237  0.6768 -0.8219
  124OSM    H2S13100   4.596   1.897   2.318  2.5331 -0.3335 -1.5620
  124OSM    C3S13101   4.421   1.795   2.402 -0.3419  0.5571 -0.4072
  124OSM    H3S13102   4.364   1.702   2.380 -2.6346  2.1235 -1.4257
  124OSM     O313103   4.329   1.895   2.370 -0.1139  0.1575 -0.2350
  124OSM    HO313104   4.360   1.924   2.283  0.7208 -0.2574 -0.0899
  124OSM    C4S13105   4.446   1.802   2.551  0.0517 -0.2878 -0.1766
  124OSM    H4S13106   4.458   1.909   2.576 -2.8137  0.8786 -3.1513
  124OSM    C5S13107   4.440   1.716   2.650 -0.1898  0.0112  0.1131
  124OSM    H5S13108   4.420   1.609   2.633 -0.2388  0.0831 -0.2956
  124OSM    C6S13109   4.461   1.754   2.798 -0.1191  0.2628  0.4331
  124OSM    H6S13110   4.384   1.699   2.858  1.0831 -0.2028  1.5933
  124OSM    H6T13111   4.436   1.859   2.822 -0.8629 -0.1901  1.7732
  124OSM    C7S13112   4.614   1.732   2.849  0.5519 -0.5269  0.2309
  124OSM    H7S13113   4.672   1.795   2.779 -0.5727  0.0521 -0.2079
  124OSM    H7T13114   4.639   1.626   2.825 -0.1605 -0.4001 -1.1966
  124OSM    C8S13115   4.630   1.770   2.996 -0.2289  0.6738  0.6820
  124OSM    H8S13116   4.556   1.714   3.057 -3.7966  1.2048 -2.7809
  124OSM    H8T13117   4.600   1.877   3.003 -0.8163  0.6620 -1.1920
  124OSM    C9S13118   4.775   1.763   3.036  0.0638  0.4139  0.2788
  124OSM    H9S13119   4.805   1.870   3.030 -2.2386  1.0807 -0.4856
  124OSM    H9T13120   4.840   1.695   2.976 -1.7211 -2.0575  0.9892
  124OSM   C10S13121   4.806   1.731   3.178 -0.5216  0.1463 -0.3141
  124OSM   H10S13122   4.912   1.699   3.186  0.0802  1.7807 -1.4360
  124OSM   H10T13123   4.743   1.641   3.197 -1.1747  0.4106 -1.1776
  124OSM   C11S13124   4.773   1.841   3.276  0.0833  0.0971  0.5731
  124OSM   H11S13125   4.671   1.881   3.257  0.9156  1.1201 -2.4552
  124OSM   H11T13126   4.851   1.920   3.263 -0.1193  0.3417  0.8580
  124OSM   C12S13127   4.779   1.780   3.416  0.0370  0.0633  0.3347
  124OSM   H12S13128   4.875   1.724   3.426  0.0632  0.2927  1.4775
  124OSM   H12T13129   4.694   1.713   3.443 -0.2672 -0.5012 -1.8294
  124OSM   C13S13130   4.776   1.879   3.530  0.4082  0.0073 -0.2814
  124OSM   H13S13131   4.671   1.913   3.544  0.6915  0.8582 -0.1931
  124OSM   H13T13132   4.830   1.974   3.511  1.4547 -0.0454  2.1793
  124OSM   C14S13133   4.828   1.834   3.666 -0.0740  0.2511 -1.1368
  124OSM   H14S13134   4.931   1.795   3.650 -0.4542 -1.5595  0.4110
  124OSM   H14T13135   4.763   1.746   3.688 -0.7350  1.2809  1.4206
  124OSM   C15S13136   4.823   1.952   3.766 -0.6698 -0.0255 -0.4420
  124OSM   H15S13137   4.744   2.027   3.745  0.1010  0.7973 -0.4496
  124OSM   H15T13138   4.918   2.009   3.776 -0.5615 -0.2300 -0.3134
  124OSM   C16S13139   4.783   1.893   3.909 -0.0256 -0.3892 -0.6434
  124OSM   H16S13140   4.829   1.953   3.990  0.6459  0.6743 -1.7715
  124OSM   H16T13141   4.825   1.790   3.921  0.3559 -0.5417 -2.7954
  124OSM   C17S13142   4.632   1.896   3.932  0.2767  0.5160  0.7859
  124OSM   H17S13143   4.578   1.819   3.872 -0.5663  2.4418 -1.0724
  124OSM   H17T13144   4.588   1.993   3.901  1.3781  0.5276 -0.8769
  124OSM   C18S13145   4.599   1.869   4.075 -0.1159  0.0382  0.3947
  124OSM   H18S13146   4.498   1.828   4.097 -0.0558 -1.1973 -1.4230
  124OSM   H18T13147   4.605   1.959   4.140  0.2585  0.6358 -0.4492
  124OSM   H18U13148   4.662   1.783   4.108 -0.5067 -0.2390  0.4330
  124OSM    C1F13149   4.783   1.703   2.302  0.8034 -0.4512 -0.2789
  124OSM     OF13150   4.824   1.804   2.240 -0.1243  0.6816  0.1036
  124OSM    C2F13151   4.870   1.586   2.327  0.2893  0.1824  0.7061
  124OSM    H2F13152   4.949   1.568   2.252  0.7865  0.3988  1.1684
  124OSM    H2G13153   4.806   1.495   2.327 -1.3037  1.1850  3.2943
  124OSM    C3F13154   4.968   1.593   2.446 -0.2127  0.0077  0.0301
  124OSM    H3F13155   4.904   1.595   2.538 -0.7072  0.3054 -0.3163
  124OSM    H3G13156   5.016   1.692   2.432 -0.5376 -0.1801 -3.0013
  124OSM    C4F13157   5.073   1.483   2.449 -0.1161  0.1667  0.3533
  124OSM    H4F13158   5.146   1.491   2.365 -0.0604 -0.5254  0.3325
  124OSM    H4G13159   5.031   1.380   2.446 -0.8279  0.2715  3.7301
  124OSM    C5F13160   5.163   1.494   2.577  0.2572  0.3979  0.2545
  124OSM    H5F13161   5.214   1.591   2.590 -1.2105  1.2233  0.0273
  124OSM    H5G13162   5.242   1.419   2.551 -1.2713 -1.6373  1.1722
  124OSM    C6F13163   5.084   1.464   2.702 -0.4171  0.2728 -0.3325
  124OSM    H6F13164   5.047   1.359   2.693 -0.2267 -0.1486  2.6185
  124OSM    H6G13165   4.991   1.523   2.691  0.2174  1.1017 -1.4355
  124OSM    C7F13166   5.152   1.491   2.836  0.5796 -0.0052  0.1538
  124OSM    H7F13167   5.176   1.599   2.824 -3.2426  1.1598  1.4487
  124OSM    H7G13168   5.245   1.432   2.848  0.1627 -0.9052 -0.8949
  124OSM    C8F13169   5.077   1.487   2.973  0.2220  0.4012  0.2800
  124OSM    H8F13170   4.989   1.554   2.957 -0.8043 -0.8385  0.5884
  124OSM    H8G13171   5.147   1.541   3.041  1.3000 -1.1371  0.4431
  124OSM    C9F13172   5.035   1.355   3.028 -0.0531 -0.2460 -0.1061
  124OSM    H9F13173   4.984   1.289   2.956  0.4630 -1.1528  0.3518
  124OSM   C10F13174   5.062   1.316   3.156  0.1889 -0.3236  0.3346
  124OSM   H10F13175   5.014   1.223   3.190 -0.4011 -0.6004 -1.1703
  124OSM   C11F13176   5.124   1.393   3.263  0.3661 -0.0082 -0.2822
  124OSM   H11F13177   5.115   1.501   3.240  0.5256 -0.3332 -1.9634
  124OSM   H11G13178   5.233   1.369   3.267  0.5378  0.7008 -0.6486
  124OSM   C12F13179   5.047   1.365   3.398  0.6067 -0.2797  0.2595
  124OSM   H12F13180   5.059   1.260   3.432  0.0137 -0.1872  0.7807
  124OSM   H12G13181   4.940   1.394   3.399 -0.2910 -3.2398 -0.8460
  124OSM   C13F13182   5.119   1.445   3.511  0.2268  0.2193  0.0628
  124OSM   H13F13183   5.122   1.551   3.479  2.1896 -0.2658 -1.5839
  124OSM   H13G13184   5.220   1.401   3.525  0.3847  0.7840  0.7648
  124OSM   C14F13185   5.041   1.424   3.640  0.0839 -0.0385  0.0312
  124OSM   H14F13186   5.055   1.317   3.667 -0.4693  0.1362  1.0536
  124OSM   H14G13187   4.936   1.456   3.624  0.8661  3.0066  0.3813
  124OSM   C15F13188   5.097   1.514   3.760 -0.4043 -0.7895  0.3544
  124OSM   H15F13189   5.103   1.618   3.721  2.6451 -0.4530  1.4465
  124OSM   H15G13190   5.205   1.497   3.781 -0.2212  1.9218  2.0447
  124OSM   C16F13191   5.026   1.497   3.898 -0.2393  0.3486  0.5783
  124OSM   H16F13192   5.010   1.387   3.898  0.6363  0.2142 -0.3121
  124OSM   H16G13193   4.924   1.543   3.898 -0.1210  0.6282 -0.6756
  124OSM   C17F13194   5.117   1.536   4.008 -0.0897  0.5429 -0.5909
  124OSM   H17F13195   5.058   1.545   4.102 -0.8127  0.4774 -1.0229
  124OSM   H17G13196   5.159   1.638   3.998 -0.7213  0.8619 -0.1090
  124OSM   C18F13197   5.238   1.434   4.033 -0.0433  0.1628  1.1462
  124OSM   H18F13198   5.304   1.466   4.117  2.1880 -0.8893 -0.1089
  124OSM   H18G13199   5.312   1.419   3.952  0.2189 -1.0881  1.5888
  124OSM   H18H13200   5.194   1.338   4.069 -1.6484  0.7509  0.8254
  125OSM      N13201   0.422   4.446   2.241  0.2352 -0.2835  0.0729
  125OSM    C1513202   0.475   4.426   2.101  0.0221  0.5926 -0.1299
  125OSM   H15A13203   0.396   4.457   2.035  1.0624 -0.4511 -1.9722
  125OSM   H15B13204   0.501   4.322   2.087 -1.7610 -0.0001  0.7098
  125OSM   H15C13205   0.557   4.496   2.092  1.8156 -1.2252  1.1373
  125OSM    C1413206   0.389   4.587   2.257 -0.4576 -0.7640 -0.6397
  125OSM   H14A13207   0.472   4.655   2.242 -0.9939  0.0176 -0.1583
  125OSM   H14B13208   0.347   4.620   2.350  1.6967  1.5582 -0.3753
  125OSM   H14C13209   0.317   4.614   2.181  0.1291  0.8885 -0.6607
  125OSM    C1313210   0.302   4.361   2.262 -0.1644  0.1309 -0.1544
  125OSM   H13A13211   0.213   4.395   2.211 -0.3725  0.9111  0.7161
  125OSM   H13B13212   0.278   4.356   2.367 -1.2256 -0.0758 -0.3924
  125OSM   H13C13213   0.315   4.258   2.234 -1.1815 -0.3921  1.1872
  125OSM    C1213214   0.526   4.411   2.350 -0.6159 -0.5187  0.4833
  125OSM   H12A13215   0.491   4.444   2.446  0.5142  0.4214  0.5970
  125OSM   H12B13216   0.619   4.466   2.340  1.1307 -3.1020  1.3562
  125OSM    C1113217   0.575   4.270   2.365  0.7005  0.5230  0.0173
  125OSM   H11A13218   0.485   4.208   2.389  0.5693  1.2653  1.5072
  125OSM   H11B13219   0.653   4.265   2.443  0.7606 -0.1829 -0.0817
  125OSM      P13220   0.642   4.062   2.226  0.0375 -0.0044  0.0219
  125OSM    O1313221   0.567   4.024   2.105  0.0286 -0.6174 -0.4355
  125OSM    O1413222   0.783   4.013   2.225  0.0493 -0.2937 -0.7236
  125OSM    O1113223   0.566   4.000   2.351 -0.3153 -0.0555  0.0661
  125OSM    O1213224   0.632   4.219   2.246  0.0142  0.2082 -0.5240
  125OSM    C1S13225   0.638   3.963   2.472 -0.0254  0.4083  0.3110
  125OSM    H1S13226   0.735   4.015   2.487 -1.5713  2.7826  2.9244
  125OSM    H1T13227   0.661   3.855   2.459 -0.3561  0.4349 -0.6160
  125OSM     NF13228   0.607   3.982   2.715  0.0291  0.5063  0.6382
  125OSM    HNF13229   0.611   3.887   2.745  0.0944 -0.2033 -1.4893
  125OSM    C2S13230   0.540   3.984   2.589  0.1160  0.3918 -0.3950
  125OSM    H2S13231   0.485   4.079   2.574 -1.8179 -0.5619  0.2624
  125OSM    C3S13232   0.425   3.880   2.584 -0.6176  0.2151  0.0544
  125OSM    H3S13233   0.467   3.787   2.626  0.3204  0.1727 -0.9201
  125OSM     O313234   0.383   3.848   2.456 -0.1038 -0.1438  0.4149
  125OSM    HO313235   0.426   3.910   2.397 -0.8045 -1.3995 -1.4971
  125OSM    C4S13236   0.311   3.930   2.669  0.0247 -0.9229 -0.2021
  125OSM    H4S13237   0.276   4.028   2.635  0.9203 -0.7395 -0.5872
  125OSM    C5S13238   0.249   3.853   2.761  0.2441 -0.3102  0.4140
  125OSM    H5S13239   0.297   3.758   2.788 -1.5470 -0.9559  1.5241
  125OSM    C6S13240   0.128   3.889   2.847  0.1530  0.1012 -0.0135
  125OSM    H6S13241   0.106   3.797   2.906  1.9008  0.7677  1.7807
  125OSM    H6T13242   0.043   3.914   2.782  0.4134  0.2000 -0.3181
  125OSM    C7S13243   0.151   4.001   2.944 -0.2727  0.3562  0.4515
  125OSM    H7S13244   0.054   4.048   2.969 -1.4491 -0.2249 -2.5367
  125OSM    H7T13245   0.202   4.094   2.909 -2.1726  1.7042  1.0885
  125OSM    C8S13246   0.232   3.942   3.062 -0.1724  0.2419 -0.5582
  125OSM    H8S13247   0.324   3.891   3.027 -2.2536 -4.0549 -0.4125
  125OSM    H8T13248   0.169   3.861   3.103  1.9553 -0.4528  1.5892
  125OSM    C9S13249   0.254   4.043   3.173 -0.1799 -0.5204  0.2589
  125OSM    H9S13250   0.160   4.098   3.194 -0.1649 -0.6032  0.5510
  125OSM    H9T13251   0.328   4.116   3.136 -0.9713 -0.8162 -2.0731
  125OSM   C10S13252   0.290   3.993   3.314  0.2309 -0.5319  0.3529
  125OSM   H10S13253   0.327   4.069   3.386 -1.1333 -0.8342  1.4137
  125OSM   H10T13254   0.376   3.923   3.296 -0.0137 -0.2405 -2.4863
  125OSM   C11S13255   0.160   3.940   3.382  0.1085 -0.1447 -0.1794
  125OSM   H11S13256   0.127   3.860   3.312 -1.9817  2.8956 -2.9511
  125OSM   H11T13257   0.083   4.020   3.371 -0.2043 -0.4855 -0.4980
  125OSM   C12S13258   0.191   3.924   3.532 -0.4124  0.9401 -0.6575
  125OSM   H12S13259   0.213   4.024   3.575  0.6190 -0.2958  1.9210
  125OSM   H12T13260   0.279   3.857   3.544 -2.1327 -0.9497  2.2672
  125OSM   C13S13261   0.075   3.867   3.611 -0.4836 -0.9202 -0.7030
  125OSM   H13S13262   0.022   3.802   3.538 -1.5484  0.3323 -1.0908
  125OSM   H13T13263   0.008   3.953   3.632  2.1884  0.9715  0.6885
  125OSM   C14S13264   0.106   3.783   3.733  0.9163 -0.0209 -0.0263
  125OSM   H14S13265   0.158   3.696   3.689  0.6801 -0.8608  1.2906
  125OSM   H14T13266   0.016   3.735   3.778 -0.5257  0.6955 -2.0129
  125OSM   C15S13267   0.181   3.850   3.853  0.1341 -0.9035 -0.3873
  125OSM   H15S13268   0.290   3.851   3.829  0.2718 -3.4782 -0.2353
  125OSM   H15T13269   0.181   3.765   3.925  0.1661 -1.3141 -0.8617
  125OSM   C16S13270   0.112   3.979   3.907  0.6896 -0.7339 -0.4586
  125OSM   H16S13271   0.006   3.946   3.921  0.7492 -0.6158  0.3094
  125OSM   H16T13272   0.120   4.063   3.834  0.6698  0.6095  1.0310
  125OSM   C17S13273   0.166   4.036   4.027 -0.4492 -0.5460 -0.1066
  125OSM   H17S13274   0.267   4.074   4.001 -0.2680 -0.7198  0.3214
  125OSM   H17T13275   0.179   3.955   4.102 -0.6557 -1.3795 -0.9560
  125OSM   C18S13276   0.075   4.151   4.090 -0.5406  0.5621 -0.3522
  125OSM   H18S13277   0.141   4.200   4.165 -0.6388  1.9937 -1.1612
  125OSM   H18T13278  -0.018   4.126   4.145  0.6350 -0.0206  1.4663
  125OSM   H18U13279   0.057   4.226   4.011  1.1076 -0.2825 -1.5946
  125OSM    C1F13280   0.669   4.092   2.755  0.7877 -0.2197  0.4032
  125OSM     OF13281   0.663   4.191   2.685  0.4378  0.5699 -0.0478
  125OSM    C2F13282   0.754   4.080   2.880  0.5219 -0.2843 -0.6571
  125OSM    H2F13283   0.863   4.096   2.865  0.4184  1.2359  0.0417
  125OSM    H2G13284   0.755   3.979   2.927  0.0480  0.6372  1.4235
  125OSM    C3F13285   0.678   4.179   2.974  0.0303 -0.4445 -0.3059
  125OSM    H3F13286   0.569   4.158   2.977 -0.2583  0.8760 -1.0532
  125OSM    H3G13287   0.692   4.284   2.940 -0.1942 -0.1452  0.5076
  125OSM    C4F13288   0.719   4.181   3.122 -0.1342 -0.5776  0.3330
  125OSM    H4F13289   0.695   4.279   3.169  1.5057 -0.3714  0.7792
  125OSM    H4G13290   0.830   4.179   3.124 -0.0193  0.7057 -1.7372
  125OSM    C5F13291   0.665   4.070   3.199 -0.1410  0.7453 -0.2581
  125OSM    H5F13292   0.705   3.977   3.154 -1.1738 -0.0494  0.4065
  125OSM    H5G13293   0.554   4.065   3.197 -0.1656  0.7105  0.9683
  125OSM    C6F13294   0.705   4.065   3.346  0.2199  0.0712  0.4575
  125OSM    H6F13295   0.814   4.045   3.341  0.6481  2.2989 -3.3957
  125OSM    H6G13296   0.649   3.992   3.407 -0.3049 -1.2696 -1.5209
  125OSM    C7F13297   0.689   4.206   3.411 -0.6223  0.5722  0.4723
  125OSM    H7F13298   0.587   4.247   3.393 -0.9478 -0.4060 -0.0313
  125OSM    H7G13299   0.767   4.269   3.363  0.4270 -0.1555  1.1916
  125OSM    C8F13300   0.716   4.207   3.564  0.3166  0.1019 -0.5043
  125OSM    H8F13301   0.818   4.166   3.575  0.0333 -1.0076 -1.7021
  125OSM    H8G13302   0.646   4.130   3.604  0.7668 -1.1686 -2.0354
  125OSM    C9F13303   0.694   4.346   3.622  0.1538  0.0026  0.5137
  125OSM    H9F13304   0.610   4.399   3.575  0.6753  0.3190 -0.0626
  125OSM   C10F13305   0.769   4.406   3.713 -0.0154 -0.0439 -0.2162
  125OSM   H10F13306   0.751   4.510   3.742  2.0529  0.1633  0.5005
  125OSM   C11F13307   0.882   4.345   3.784  0.4475  0.9483 -0.2450
  125OSM   H11F13308   0.974   4.356   3.723 -0.4189  1.6860 -1.4666
  125OSM   H11G13309   0.869   4.238   3.813  1.3735  1.1058  0.7811
  125OSM   C12F13310   0.899   4.416   3.912  0.4527 -0.2165 -0.7490
  125OSM   H12F13311   0.807   4.416   3.974  1.2291 -0.2581  0.4271
  125OSM   H12G13312   0.935   4.518   3.888 -0.8680  0.0114 -1.8331
  125OSM   C13F13313   0.995   4.347   4.014  0.0566  0.1031 -0.1857
  125OSM   H13F13314   1.095   4.326   3.970 -0.2912 -0.9830 -0.4902
  125OSM   H13G13315   0.947   4.250   4.038 -1.5397  0.8829 -0.0443
  125OSM   C14F13316   1.006   4.412   4.152  0.0822 -0.9769  0.4241
  125OSM   H14F13317   0.903   4.439   4.186 -1.7611 -0.0489 -4.8997
  125OSM   H14G13318   1.047   4.513   4.132 -0.9004 -0.2336  1.9663
  125OSM   C15F13319   1.095   4.348   4.259 -0.3638 -0.0062 -0.1630
  125OSM   H15F13320   1.176   4.291   4.208 -1.2889 -0.4846 -1.1347
  125OSM   H15G13321   1.036   4.264   4.302 -1.4352  1.4068  1.1959
  125OSM   C16F13322   1.151   4.440   4.366  0.0723 -0.2733  0.0161
  125OSM   H16F13323   1.064   4.469   4.429  0.3566 -0.5922  0.5635
  125OSM   H16G13324   1.181   4.532   4.310 -0.9380  0.6808  0.9830
  125OSM   C17F13325   1.266   4.391   4.450 -0.1348  0.0829 -0.0345
  125OSM   H17F13326   1.348   4.361   4.381  1.5261  1.4777  1.2298
  125OSM   H17G13327   1.237   4.311   4.521  2.0352 -0.1044  0.7089
  125OSM   C18F13328   1.322   4.501   4.543  0.2066 -0.0999  0.5820
  125OSM   H18F13329   1.252   4.531   4.624 -0.1098  2.1509 -0.4474
  125OSM   H18G13330   1.339   4.601   4.499  0.9729  0.3526  1.8518
  125OSM   H18H13331   1.417   4.466   4.588  0.3468 -1.7589 -0.9058
  126OSM      N13332   6.054   5.790   1.997  0.0500 -0.3473  0.0000
  126OSM    C1513333   6.152   5.855   2.097 -0.1575 -0.0554  0.0877
  126OSM   H15A13334   6.181   5.780   2.170  2.6226 -0.1092 -0.9379
  126OSM   H15B13335   6.099   5.932   2.151  0.9804  0.4987  0.4419
  126OSM   H15C13336   6.246   5.895   2.062  0.1009 -0.6139  0.1366
  126OSM    C1413337   6.128   5.677   1.947 -0.4505  0.5991 -0.0513
  126OSM   H14A13338   6.164   5.609   2.023 -1.6240  1.3938  1.2729
  126OSM   H14B13339   6.221   5.710   1.904 -0.9206  2.4932  0.2791
  126OSM   H14C13340   6.068   5.618   1.879  0.4227 -0.5404  0.1343
  126OSM    C1313341   5.936   5.748   2.073 -0.5643 -0.2840 -0.1014
  126OSM   H13A13342   5.972   5.672   2.140 -0.5810 -0.6057 -0.4562
  126OSM   H13B13343   5.848   5.715   2.020 -1.0189 -0.2915  0.6415
  126OSM   H13C13344   5.901   5.822   2.144 -1.2825 -0.6404 -0.0664
  126OSM    C1213345   6.025   5.888   1.888  0.0408 -0.1195  0.5095
  126OSM   H12A13346   6.109   5.897   1.821  0.3445 -0.4602  0.8380
  126OSM   H12B13347   6.008   5.982   1.939 -1.8244  0.3353 -0.8533
  126OSM    C1113348   5.908   5.851   1.792 -0.0304 -0.4392 -0.2071
  126OSM   H11A13349   5.921   5.749   1.749 -0.3482 -1.0002  0.9634
  126OSM   H11B13350   5.925   5.915   1.703  0.5611 -2.2871 -1.4822
  126OSM      P13351   5.710   6.019   1.847  0.1675 -0.0236  0.2220
  126OSM    O1313352   5.654   6.055   1.716  0.4330  0.4812 -0.3762
  126OSM    O1413353   5.611   6.030   1.953  0.0540  0.0900 -0.0489
  126OSM    O1113354   5.828   6.113   1.884  0.1192  0.2323  0.0837
  126OSM    O1213355   5.774   5.867   1.847  0.2728  0.8904  0.0812
  126OSM    C1S13356   5.806   6.257   1.909 -0.3124 -0.0304 -0.6078
  126OSM    H1S13357   5.720   6.292   1.848 -2.0316  2.0598  2.7036
  126OSM    H1T13358   5.899   6.314   1.884 -0.7353  1.6494  1.3468
  126OSM     NF13359   5.751   6.421   2.061  0.5747 -0.0892  0.0785
  126OSM    HNF13360   5.821   6.490   2.075 -0.8011  2.0217 -2.6182
  126OSM    C2S13361   5.787   6.287   2.058 -1.0038  0.0753  0.3516
  126OSM    H2S13362   5.705   6.225   2.100 -2.0540  3.1770  3.4094
  126OSM    C3S13363   5.911   6.249   2.143  0.2071 -0.2197  0.4497
  126OSM    H3S13364   5.996   6.305   2.098  0.1101 -0.3721  0.0744
  126OSM     O313365   5.940   6.112   2.124  0.0170  0.0069  0.8137
  126OSM    HO313366   5.873   6.088   2.059  2.1911  0.1244 -1.6341
  126OSM    C4S13367   5.888   6.289   2.288  0.2940 -0.1681  0.2040
  126OSM    H4S13368   5.905   6.397   2.297  0.2094  0.0571 -1.9934
  126OSM    C5S13369   5.846   6.215   2.393  0.9198 -0.2413  0.4357
  126OSM    H5S13370   5.808   6.115   2.369 -0.6838  0.6511 -0.9508
  126OSM    C6S13371   5.833   6.259   2.532 -0.5873  0.2940 -0.3302
  126OSM    H6S13372   5.923   6.323   2.547  0.0854 -0.6864 -0.0998
  126OSM    H6T13373   5.844   6.173   2.601  0.3108  2.5171  2.4822
  126OSM    C7S13374   5.704   6.331   2.563 -0.6373 -0.1575  0.2611
  126OSM    H7S13375   5.612   6.268   2.560  0.1575 -1.3151 -0.8569
  126OSM    H7T13376   5.692   6.422   2.501 -1.2635  1.2144  2.2793
  126OSM    C8S13377   5.717   6.391   2.703 -0.4210 -0.2148  0.3190
  126OSM    H8S13378   5.623   6.448   2.721  0.5986  1.8253 -0.5359
  126OSM    H8T13379   5.794   6.471   2.705 -0.4343 -0.1461 -1.0125
  126OSM    C9S13380   5.712   6.292   2.826 -0.7903  0.9107  0.1454
  126OSM    H9S13381   5.807   6.235   2.816 -1.3374  0.2823 -2.1281
  126OSM    H9T13382   5.631   6.223   2.793 -1.3578  2.0684 -0.9381
  126OSM   C10S13383   5.704   6.363   2.957  0.0855  0.1472 -0.8545
  126OSM   H10S13384   5.615   6.430   2.951 -2.3227 -2.9444 -2.4027
  126OSM   H10T13385   5.790   6.430   2.978 -0.7741  1.5280 -1.6059
  126OSM   C11S13386   5.681   6.266   3.076  0.4562  0.3677  0.1219
  126OSM   H11S13387   5.753   6.182   3.080 -2.6839 -2.5177  3.1964
  126OSM   H11T13388   5.586   6.211   3.057  0.0969  0.5535  1.2391
  126OSM   C12S13389   5.677   6.339   3.213 -0.0150  0.1124 -0.4765
  126OSM   H12S13390   5.614   6.430   3.208 -0.3766 -0.1424 -0.5452
  126OSM   H12T13391   5.781   6.374   3.232 -0.1693  0.5790 -0.4782
  126OSM   C13S13392   5.620   6.248   3.323  0.6405 -0.2504 -0.2144
  126OSM   H13S13393   5.688   6.160   3.323 -0.6478 -1.2676 -0.4452
  126OSM   H13T13394   5.519   6.208   3.304  0.2872 -0.8696  2.5972
  126OSM   C14S13395   5.632   6.326   3.454 -0.3100 -0.0434  0.1264
  126OSM   H14S13396   5.576   6.422   3.439  2.9469  1.7532 -1.7460
  126OSM   H14T13397   5.741   6.350   3.458 -0.8624  3.0193 -0.3722
  126OSM   C15S13398   5.582   6.258   3.575 -0.5035  0.6049 -0.1069
  126OSM   H15S13399   5.646   6.169   3.596  1.3751  1.7860 -0.5163
  126OSM   H15T13400   5.479   6.220   3.564  0.0726 -1.3804  0.9254
  126OSM   C16S13401   5.597   6.335   3.705  0.2689 -0.4564 -0.4435
  126OSM   H16S13402   5.523   6.292   3.776  1.0295 -2.5198 -0.8231
  126OSM   H16T13403   5.566   6.440   3.688  1.1745 -0.1320 -0.1631
  126OSM   C17S13404   5.736   6.344   3.760 -0.4255  0.1333  0.5836
  126OSM   H17S13405   5.793   6.415   3.696 -0.1728 -1.3218 -0.8828
  126OSM   H17T13406   5.788   6.245   3.756 -2.4841 -1.2248  3.6545
  126OSM   C18S13407   5.746   6.389   3.907  0.1037 -0.5795  0.6147
  126OSM   H18S13408   5.680   6.325   3.970  0.2036 -0.5723  0.7286
  126OSM   H18T13409   5.714   6.492   3.932  0.9688 -0.8678  3.2107
  126OSM   H18U13410   5.850   6.383   3.946  0.9357 -2.4659 -1.6561
  126OSM    C1F13411   5.626   6.454   2.041  0.4698  0.2988  0.3140
  126OSM     OF13412   5.538   6.368   2.039  0.2426  0.0638  0.8382
  126OSM    C2F13413   5.593   6.599   2.025  0.0180 -0.0760 -0.1042
  126OSM    H2F13414   5.522   6.607   1.940  0.4656 -0.1761 -0.4903
  126OSM    H2G13415   5.684   6.651   1.991  0.2972  0.3160  1.1778
  126OSM    C3F13416   5.537   6.659   2.159  0.2481  0.0554  0.6923
  126OSM    H3F13417   5.586   6.604   2.242  0.9880  2.4649  1.9558
  126OSM    H3G13418   5.428   6.639   2.160  0.5547 -1.8350  0.3977
  126OSM    C4F13419   5.537   6.810   2.175 -0.2360 -0.1358 -0.0436
  126OSM    H4F13420   5.457   6.852   2.111 -0.8028 -2.4375 -0.9522
  126OSM    H4G13421   5.633   6.863   2.156 -0.0975  0.0309  1.0574
  126OSM    C5F13422   5.497   6.844   2.316  0.0715 -0.5342 -0.6836
  126OSM    H5F13423   5.405   6.793   2.352  1.7288 -2.3625  1.2157
  126OSM    H5G13424   5.479   6.954   2.322  1.4767 -0.1440 -2.6471
  126OSM    C6F13425   5.608   6.814   2.418  0.5410  0.3365  0.2588
  126OSM    H6F13426   5.698   6.872   2.388  1.2553 -0.9735 -0.2129
  126OSM    H6G13427   5.644   6.709   2.425  0.9677  0.5941  4.6770
  126OSM    C7F13428   5.588   6.851   2.562 -0.9928  0.1093  0.4058
  126OSM    H7F13429   5.533   6.948   2.554  1.4379  1.8104  2.5137
  126OSM    H7G13430   5.683   6.878   2.613  1.5510  0.2829 -3.9768
  126OSM    C8F13431   5.518   6.750   2.647 -0.6749 -0.6275 -0.1286
  126OSM    H8F13432   5.586   6.668   2.678 -0.6295 -0.6952 -0.4071
  126OSM    H8G13433   5.446   6.699   2.580 -1.4588  1.4951 -0.9988
  126OSM    C9F13434   5.454   6.809   2.777  0.0967 -0.3905 -0.2856
  126OSM    H9F13435   5.352   6.846   2.763  0.3241  1.3915  2.1190
  126OSM   C10F13436   5.498   6.802   2.899 -0.0305 -0.3138  0.1342
  126OSM   H10F13437   5.432   6.832   2.981  0.4493 -0.5328  0.6091
  126OSM   C11F13438   5.626   6.742   2.945  0.8211  0.0803 -0.0432
  126OSM   H11F13439   5.696   6.825   2.966 -0.8833  1.1395  1.9660
  126OSM   H11G13440   5.664   6.672   2.868 -1.1509 -0.8588 -0.2371
  126OSM   C12F13441   5.621   6.674   3.085 -0.0330 -0.0131 -0.2543
  126OSM   H12F13442   5.721   6.631   3.104 -0.3199 -0.4438  0.2870
  126OSM   H12G13443   5.555   6.585   3.089 -0.3379 -0.0190 -3.0402
  126OSM   C13F13444   5.560   6.761   3.193  0.3244 -0.3764  0.1088
  126OSM   H13F13445   5.452   6.779   3.177  0.3112  0.3427  0.9059
  126OSM   H13G13446   5.604   6.863   3.202 -1.5342  0.4306  0.6131
  126OSM   C14F13447   5.579   6.690   3.339  0.5515 -0.0967 -0.3713
  126OSM   H14F13448   5.688   6.676   3.355  0.7210  0.2001 -1.1925
  126OSM   H14G13449   5.536   6.588   3.338 -0.8416  0.4661 -1.4112
  126OSM   C15F13450   5.530   6.777   3.452 -0.1661  0.2863 -0.0416
  126OSM   H15F13451   5.421   6.753   3.461  0.2899 -1.9913  0.1524
  126OSM   H15G13452   5.527   6.883   3.420 -1.4838 -0.1754 -1.5952
  126OSM   C16F13453   5.600   6.733   3.581 -0.4502  0.0436 -0.8408
  126OSM   H16F13454   5.710   6.729   3.569 -0.1717  0.2196  1.3362
  126OSM   H16G13455   5.561   6.637   3.619 -0.8593 -1.6855 -5.0462
  126OSM   C17F13456   5.578   6.833   3.698  0.3313 -0.3668 -0.1304
  126OSM   H17F13457   5.468   6.847   3.701  0.6453  2.4617  2.0074
  126OSM   H17G13458   5.612   6.936   3.678  1.7912 -0.5307  1.2767
  126OSM   C18F13459   5.602   6.782   3.838  0.0709 -0.4487 -0.1443
  126OSM   H18F13460   5.705   6.811   3.864  0.8305 -0.7978 -2.5023
  126OSM   H18G13461   5.590   6.671   3.843  1.0545 -0.5167  0.9910
  126OSM   H18H13462   5.547   6.833   3.919  0.1512 -1.5470  0.6304
  127OSM      N13463   4.587   6.469   1.594 -0.4697 -0.3348 -0.1552
  127OSM    C1513464   4.594   6.615   1.554 -0.2236  0.3334  0.3311
  127OSM   H15A13465   4.655   6.673   1.622  1.6893  0.1965 -1.2024
  127OSM   H15B13466   4.492   6.650   1.549 -1.1223 -1.6346  2.7961
  127OSM   H15C13467   4.634   6.623   1.454  3.2837 -0.6339  1.5088
  127OSM    C1413468   4.517   6.405   1.477 -0.3289 -0.0829 -0.1696
  127OSM   H14A13469   4.488   6.304   1.504 -2.9389  0.6643  0.0850
  127OSM   H14B13470   4.588   6.385   1.398  1.2895 -0.4820  1.3114
  127OSM   H14C13471   4.435   6.463   1.438 -0.8872  0.4124  1.6774
  127OSM    C1313472   4.724   6.406   1.599  0.7818  0.0311  0.5759
  127OSM   H13A13473   4.773   6.442   1.688  0.3130  1.5323  0.2649
  127OSM   H13B13474   4.781   6.427   1.510 -0.0197  0.3366  0.1144
  127OSM   H13C13475   4.720   6.298   1.604  1.0210  0.0639  1.5420
  127OSM    C1213476   4.501   6.447   1.717  0.3983 -0.2471 -0.0972
  127OSM   H12A13477   4.488   6.340   1.724  1.8320 -0.6259 -2.3026
  127OSM   H12B13478   4.401   6.481   1.692 -0.3183 -2.2863 -0.1946
  127OSM    C1113479   4.556   6.499   1.855  0.4684  0.2628 -0.6806
  127OSM   H11A13480   4.469   6.493   1.924  0.9335 -0.7161 -0.1667
  127OSM   H11B13481   4.573   6.608   1.843  0.7613  0.0664 -2.1404
  127OSM      P13482   4.664   6.304   1.980  0.2894 -0.2021 -0.0050
  127OSM    O1313483   4.561   6.216   1.920 -0.4252 -0.2090  0.3395
  127OSM    O1413484   4.794   6.241   1.993  0.1092 -0.2036 -0.1698
  127OSM    O1113485   4.613   6.346   2.119  1.1213  0.1023 -0.0028
  127OSM    O1213486   4.672   6.425   1.889  0.0705  0.3222 -0.3173
  127OSM    C1S13487   4.582   6.241   2.217  0.5803 -1.1124 -0.0701
  127OSM    H1S13488   4.645   6.150   2.206 -0.0460 -1.4671 -0.7756
  127OSM    H1T13489   4.478   6.207   2.201  0.5554 -1.3616  0.6100
  127OSM     NF13490   4.631   6.192   2.463  0.1161 -0.9912  0.5576
  127OSM    HNF13491   4.558   6.149   2.515 -1.5680  0.9130 -0.0968
  127OSM    C2S13492   4.591   6.296   2.368  0.4749 -0.0752  0.0260
  127OSM    H2S13493   4.671   6.373   2.360 -1.7672  2.3771 -0.1808
  127OSM    C3S13494   4.454   6.362   2.399  0.5554  0.1209 -0.3375
  127OSM    H3S13495   4.372   6.288   2.388 -1.7128  2.5914 -1.1332
  127OSM     O313496   4.415   6.453   2.296 -0.0010 -0.6255  0.0311
  127OSM    HO313497   4.476   6.430   2.226  0.5214 -0.3406  0.3741
  127OSM    C4S13498   4.462   6.429   2.529  0.0243 -0.5608 -0.0510
  127OSM    H4S13499   4.521   6.521   2.536 -1.5005  0.4720 -0.3600
  127OSM    C5S13500   4.415   6.373   2.644  1.1409  0.1464 -0.4442
  127OSM    H5S13501   4.375   6.270   2.646  0.0669  0.4772 -2.3685
  127OSM    C6S13502   4.414   6.452   2.772  0.3127  0.3687  1.1119
  127OSM    H6S13503   4.316   6.448   2.825 -0.2517  2.1538  0.2833
  127OSM    H6T13504   4.430   6.560   2.749 -0.8682  0.4249  0.4487
  127OSM    C7S13505   4.527   6.388   2.857  0.1350  0.3552 -0.2344
  127OSM    H7S13506   4.624   6.412   2.809  1.6761 -3.6994  0.4792
  127OSM    H7T13507   4.521   6.278   2.849 -0.3768  0.4029 -0.5586
  127OSM    C8S13508   4.519   6.440   3.000  1.2796 -0.5657 -0.6610
  127OSM    H8S13509   4.415   6.450   3.037  1.7265  0.8167  0.3328
  127OSM    H8T13510   4.554   6.545   3.001  1.6460 -0.5772  2.9762
  127OSM    C9S13511   4.602   6.357   3.101 -0.0787 -0.0224 -1.3695
  127OSM    H9S13512   4.704   6.343   3.058 -0.5422 -1.0383 -2.1996
  127OSM    H9T13513   4.554   6.258   3.120 -0.2717  0.3331  0.0972
  127OSM   C10S13514   4.611   6.433   3.236  0.6082 -0.3790  0.2475
  127OSM   H10S13515   4.506   6.461   3.263  0.8338  1.6290 -0.7696
  127OSM   H10T13516   4.670   6.527   3.228 -0.9558  0.5688 -0.9391
  127OSM   C11S13517   4.668   6.343   3.350  0.2900  0.0671  0.0339
  127OSM   H11S13518   4.770   6.301   3.337  0.1200 -0.1889 -0.4780
  127OSM   H11T13519   4.594   6.261   3.356  2.2836 -1.9179 -0.9485
  127OSM   C12S13520   4.662   6.416   3.481 -0.2833  0.2933  0.7904
  127OSM   H12S13521   4.575   6.483   3.496 -0.5536  0.8546 -2.4670
  127OSM   H12T13522   4.750   6.482   3.495 -0.2975  0.1048  1.8037
  127OSM   C13S13523   4.651   6.313   3.594  0.2039 -0.7356 -0.0776
  127OSM   H13S13524   4.737   6.244   3.577  0.8534 -0.4378  1.8335
  127OSM   H13T13525   4.556   6.255   3.600 -0.2202  0.1261  2.3609
  127OSM   C14S13526   4.693   6.371   3.733 -0.7678  0.1112 -0.2368
  127OSM   H14S13527   4.597   6.413   3.770 -1.1676 -0.1668 -0.9337
  127OSM   H14T13528   4.761   6.458   3.723 -0.1942 -0.2457  0.4949
  127OSM   C15S13529   4.755   6.266   3.829  0.0560  0.1194 -0.9905
  127OSM   H15S13530   4.835   6.214   3.772  0.0557  0.0929 -0.9670
  127OSM   H15T13531   4.674   6.197   3.861 -1.0016  1.4856 -0.6257
  127OSM   C16S13532   4.825   6.327   3.960  0.0893 -0.4154  0.7895
  127OSM   H16S13533   4.813   6.435   3.979  1.4015 -0.1904  0.4459
  127OSM   H16T13534   4.936   6.326   3.949  0.2832 -2.0130  2.3515
  127OSM   C17S13535   4.784   6.250   4.087 -0.4559  0.2185 -0.5753
  127OSM   H17S13536   4.777   6.140   4.069  0.1604  0.0199  0.3099
  127OSM   H17T13537   4.679   6.278   4.111 -0.1140  0.7050  0.3719
  127OSM   C18S13538   4.863   6.293   4.212 -0.4046 -0.6752  0.1197
  127OSM   H18S13539   4.972   6.271   4.207 -0.0468  1.1839 -3.4151
  127OSM   H18T13540   4.818   6.244   4.301  0.2070  2.5939  2.4257
  127OSM   H18U13541   4.853   6.403   4.218 -0.1078 -0.5782 -0.9709
  127OSM    C1F13542   4.754   6.134   2.467  0.7570 -0.3210  0.1714
  127OSM     OF13543   4.847   6.164   2.386  0.3069 -0.3382 -0.2198
  127OSM    C2F13544   4.768   6.030   2.576 -0.8805 -0.2001 -0.3525
  127OSM    H2F13545   4.873   5.996   2.562 -0.5620  0.8565 -0.6586
  127OSM    H2G13546   4.707   5.944   2.541  1.1690 -2.4152  1.1883
  127OSM    C3F13547   4.740   6.084   2.723  0.1323  0.0011 -0.2505
  127OSM    H3F13548   4.630   6.086   2.733  0.1332  0.3644 -0.3019
  127OSM    H3G13549   4.788   6.184   2.736 -0.7339  0.3420  0.4269
  127OSM    C4F13550   4.815   5.992   2.817 -0.2951  0.5287 -0.5694
  127OSM    H4F13551   4.924   5.993   2.796 -0.2675 -0.1998 -0.4881
  127OSM    H4G13552   4.777   5.888   2.811  0.9809 -0.0481  0.7072
  127OSM    C5F13553   4.805   6.043   2.963  0.0602 -0.2598  0.0415
  127OSM    H5F13554   4.698   6.062   2.984  0.4217 -0.2409  2.0175
  127OSM    H5G13555   4.859   6.139   2.977 -0.3191 -0.3003  2.0948
  127OSM    C6F13556   4.847   5.945   3.070 -0.4810  0.8573  0.6482
  127OSM    H6F13557   4.958   5.935   3.069 -0.5732 -0.9147 -1.8565
  127OSM    H6G13558   4.805   5.844   3.056 -0.6030  1.0369 -0.3826
  127OSM    C7F13559   4.801   6.009   3.202 -0.0007  1.1254 -0.4835
  127OSM    H7F13560   4.694   6.040   3.207 -0.6705 -1.1520  0.5259
  127OSM    H7G13561   4.856   6.105   3.211 -0.1421  1.3509 -1.8334
  127OSM    C8F13562   4.851   5.927   3.322 -0.3378 -0.2025  0.0477
  127OSM    H8F13563   4.875   5.999   3.403  2.2405 -1.6550  0.6980
  127OSM    H8G13564   4.947   5.880   3.292  0.2405  2.1809 -2.1186
  127OSM    C9F13565   4.751   5.830   3.384  0.3923  0.1155  0.1074
  127OSM    H9F13566   4.710   5.762   3.308 -0.7239 -0.3501  1.0921
  127OSM   C10F13567   4.710   5.806   3.511  0.2308  0.0571  0.2567
  127OSM   H10F13568   4.634   5.727   3.524  0.6970 -0.9817 -2.6194
  127OSM   C11F13569   4.737   5.878   3.640 -0.1895 -0.5141 -0.8877
  127OSM   H11F13570   4.641   5.912   3.683  0.2311  0.1005 -0.4174
  127OSM   H11G13571   4.801   5.966   3.619  1.1471 -0.1340  3.6569
  127OSM   C12F13572   4.808   5.799   3.746 -0.2426 -0.1653 -0.6378
  127OSM   H12F13573   4.882   5.738   3.690 -1.0851 -1.9042  0.0721
  127OSM   H12G13574   4.725   5.729   3.769 -0.7462  0.7201  0.3359
  127OSM   C13F13575   4.861   5.886   3.861  0.3552 -0.3077 -1.0185
  127OSM   H13F13576   4.773   5.942   3.899  0.5841 -0.7295  0.1559
  127OSM   H13G13577   4.939   5.959   3.830 -0.4456  0.1165 -2.1216
  127OSM   C14F13578   4.924   5.806   3.971  0.1020 -0.2324 -0.6504
  127OSM   H14F13579   5.003   5.735   3.938  1.1727  0.2480  0.7827
  127OSM   H14G13580   4.842   5.741   4.010 -0.5262  0.2029 -1.2263
  127OSM   C15F13581   4.980   5.895   4.085  0.5867  0.3203 -0.4746
  127OSM   H15F13582   4.903   5.966   4.122 -1.0570 -0.2882 -2.5070
  127OSM   H15G13583   5.056   5.963   4.041  2.0238  0.5786  2.2016
  127OSM   C16F13584   5.039   5.814   4.196 -0.0768  0.6148 -0.7601
  127OSM   H16F13585   5.136   5.770   4.167 -0.1948 -1.0321  1.1394
  127OSM   H16G13586   4.966   5.731   4.211  0.4950  0.3605  0.7746
  127OSM   C17F13587   5.074   5.885   4.331 -0.1629  0.3738  0.4879
  127OSM   H17F13588   5.117   5.823   4.413  0.6144  0.1647 -0.0656
  127OSM   H17G13589   4.976   5.927   4.364  0.0023  1.5518 -0.4810
  127OSM   C18F13590   5.158   6.011   4.306  0.2244  0.0132  0.7148
  127OSM   H18F13591   5.102   6.078   4.238  1.4074  1.0449  0.7108
  127OSM   H18G13592   5.257   5.977   4.268  0.0440 -0.5804  0.7716
  127OSM   H18H13593   5.182   6.060   4.403  2.4064  1.2476 -0.3538
  128OSM      N13594   6.118   5.181   2.370  0.4084 -0.4630  0.3551
  128OSM    C1513595   6.126   5.333   2.345 -1.1920  0.7095  0.3837
  128OSM   H15A13596   6.173   5.350   2.249 -1.7724 -3.8209 -0.9127
  128OSM   H15B13597   6.178   5.387   2.423 -1.8675  2.0224 -0.0388
  128OSM   H15C13598   6.023   5.365   2.342 -1.1894  0.7821  1.0876
  128OSM    C1413599   6.040   5.118   2.258  1.1490  0.2128 -0.4205
  128OSM   H14A13600   5.939   5.158   2.259  1.1716  0.2856 -0.8201
  128OSM   H14B13601   6.029   5.011   2.261 -0.8440  0.2206 -3.2763
  128OSM   H14C13602   6.083   5.144   2.163 -0.5957  0.7565 -1.1058
  128OSM    C1313603   6.261   5.133   2.359 -0.2274 -0.3103  0.3924
  128OSM   H13A13604   6.267   5.028   2.386 -0.1127 -0.5245 -0.4319
  128OSM   H13B13605   6.323   5.191   2.426 -0.6382  0.1030  0.4246
  128OSM   H13C13606   6.313   5.145   2.265  1.7055  1.0036  1.5655
  128OSM    C1213607   6.050   5.146   2.503 -0.5952  0.4359 -0.6401
  128OSM   H12A13608   5.968   5.216   2.512 -0.7516  0.4229 -1.8540
  128OSM   H12B13609   6.128   5.172   2.574  2.4641 -3.3724 -2.2328
  128OSM    C1113610   6.003   4.998   2.542  0.1559  0.1121  1.1578
  128OSM   H11A13611   5.969   5.003   2.648  0.6858 -0.3242  1.3525
  128OSM   H11B13612   6.089   4.927   2.537 -0.8814 -1.0890 -0.6233
  128OSM      P13613   5.763   5.019   2.456  0.2088  0.3680 -0.5113
  128OSM    O1313614   5.767   5.129   2.555 -0.0077  0.1837 -0.2552
  128OSM    O1413615   5.708   5.059   2.327  0.0319  0.5322  0.0708
  128OSM    O1113616   5.664   4.907   2.522 -0.0435  0.3542  0.0588
  128OSM    O1213617   5.904   4.946   2.454  0.3311 -0.3535 -1.1290
  128OSM    C1S13618   5.672   4.877   2.668 -0.6616  0.6082  0.1621
  128OSM    H1S13619   5.758   4.925   2.719  0.0679 -1.5801  1.0914
  128OSM    H1T13620   5.698   4.769   2.680 -0.1192  0.3322 -2.6738
  128OSM     NF13621   5.562   4.899   2.882  0.6006 -0.2085 -0.1621
  128OSM    HNF13622   5.526   4.814   2.921  3.3117 -1.4643 -0.1733
  128OSM    C2S13623   5.538   4.908   2.741  0.2351 -0.2719 -0.0824
  128OSM    H2S13624   5.511   5.014   2.722 -1.3833 -0.9076 -1.5364
  128OSM    C3S13625   5.417   4.823   2.687  0.3907  0.8027  0.5221
  128OSM    H3S13626   5.416   4.716   2.715 -1.0470  0.4646 -0.7093
  128OSM     O313627   5.402   4.831   2.547  0.1768 -0.0538 -0.4830
  128OSM    HO313628   5.485   4.872   2.520  1.3253 -1.7250  0.3058
  128OSM    C4S13629   5.289   4.882   2.741  0.3028  0.0466  0.3401
  128OSM    H4S13630   5.277   4.986   2.707 -1.2813  0.2501  1.4304
  128OSM    C5S13631   5.199   4.827   2.825 -0.1671 -0.5762 -0.3290
  128OSM    H5S13632   5.207   4.724   2.863 -0.7630 -1.0446 -1.4233
  128OSM    C6S13633   5.074   4.906   2.861 -0.0601  0.3258 -0.2297
  128OSM    H6S13634   4.991   4.833   2.850 -0.8393  1.3917 -1.9027
  128OSM    H6T13635   5.052   4.995   2.798  4.2811  0.8889 -1.2623
  128OSM    C7S13636   5.074   4.954   3.005  0.2870  0.6162 -0.6494
  128OSM    H7S13637   5.079   4.862   3.067  0.9844 -0.4536 -2.2160
  128OSM    H7T13638   4.979   5.011   3.011 -0.1333 -0.1223 -0.0798
  128OSM    C8S13639   5.192   5.046   3.048  0.1542 -0.3794 -0.1273
  128OSM    H8S13640   5.190   5.133   2.979 -0.6604 -0.4126 -0.1551
  128OSM    H8T13641   5.286   4.986   3.047  1.8380  2.0076  2.1297
  128OSM    C9S13642   5.193   5.103   3.189  0.6885 -0.3322  0.1686
  128OSM    H9S13643   5.094   5.152   3.193 -0.8532 -3.2097 -0.3100
  128OSM    H9T13644   5.276   5.175   3.206  0.8633 -0.5379  0.2068
  128OSM   C10S13645   5.190   5.003   3.300  0.4278  0.4151 -0.1515
  128OSM   H10S13646   5.266   4.923   3.288  0.5042  0.4997 -0.2295
  128OSM   H10T13647   5.087   4.963   3.311  0.2455  1.3269  1.8479
  128OSM   C11S13648   5.226   5.074   3.436  0.4875 -0.1505 -0.9962
  128OSM   H11S13649   5.169   5.169   3.440  0.3690 -0.2437 -0.4370
  128OSM   H11T13650   5.329   5.116   3.431 -0.2077  1.6856 -0.8028
  128OSM   C12S13651   5.192   4.993   3.566  0.4452 -0.0972 -0.1001
  128OSM   H12S13652   5.255   4.901   3.569 -0.1285 -0.6159 -2.2805
  128OSM   H12T13653   5.092   4.954   3.536  0.5025 -0.3930  0.0780
  128OSM   C13S13654   5.207   5.083   3.683  0.2268  0.3632  0.6503
  128OSM   H13S13655   5.128   5.158   3.709  1.0908  1.5894 -0.1426
  128OSM   H13T13656   5.304   5.135   3.668  0.9533 -1.0775  0.1585
  128OSM   C14S13657   5.232   4.999   3.812 -0.4317  0.4758 -0.4181
  128OSM   H14S13658   5.332   4.952   3.803 -0.7416 -0.4039  0.4886
  128OSM   H14T13659   5.155   4.919   3.813 -0.1588  0.2084  0.3945
  128OSM   C15S13660   5.232   5.085   3.937  0.2238  0.5182  0.3777
  128OSM   H15S13661   5.125   5.108   3.954 -0.1656 -1.4036  0.7083
  128OSM   H15T13662   5.290   5.176   3.908 -0.7264  1.3619  1.0378
  128OSM   C16S13663   5.293   5.014   4.054 -0.2933  0.4392 -0.1737
  128OSM   H16S13664   5.402   4.996   4.037 -0.5398  0.3533 -1.8412
  128OSM   H16T13665   5.241   4.917   4.067  0.6190 -0.0288  0.0351
  128OSM   C17S13666   5.264   5.089   4.186  0.3556  0.3771  0.1945
  128OSM   H17S13667   5.269   5.022   4.275 -1.2042 -0.8357 -0.5923
  128OSM   H17T13668   5.163   5.130   4.166  0.2723  0.2642  0.3893
  128OSM   C18S13669   5.366   5.195   4.220 -0.4031  0.2701  0.5348
  128OSM   H18S13670   5.468   5.161   4.195 -1.0005 -0.8176 -0.5201
  128OSM   H18T13671   5.359   5.231   4.325  1.2955 -1.5942  1.3420
  128OSM   H18U13672   5.348   5.282   4.152 -0.9415  1.4708  2.1335
  128OSM    C1F13673   5.635   4.975   2.958 -0.1723  0.2406 -0.3845
  128OSM     OF13674   5.688   5.072   2.903 -0.2181  0.3277  0.2987
  128OSM    C2F13675   5.659   4.926   3.100 -0.1907  0.4965 -0.1112
  128OSM    H2F13676   5.701   4.823   3.098 -1.4767 -0.1589  2.1657
  128OSM    H2G13677   5.558   4.913   3.146  0.6072  0.8283  1.8406
  128OSM    C3F13678   5.756   5.013   3.180  0.3852 -0.2311 -0.0556
  128OSM    H3F13679   5.735   5.120   3.159 -0.1000 -0.3700 -0.3058
  128OSM    H3G13680   5.864   4.998   3.158  0.3700 -0.6952  0.1713
  128OSM    C4F13681   5.744   4.996   3.338 -0.4686  0.4773  0.3800
  128OSM    H4F13682   5.829   5.048   3.387  0.7570 -1.1040  0.0076
  128OSM    H4G13683   5.749   4.889   3.366  2.1913  1.2635  3.5095
  128OSM    C5F13684   5.613   5.051   3.408 -0.4385 -0.5897  0.4334
  128OSM    H5F13685   5.523   4.986   3.399 -0.6655  0.0209 -2.8843
  128OSM    H5G13686   5.600   5.146   3.352  1.6674 -0.2392  0.4626
  128OSM    C6F13687   5.643   5.085   3.554  0.2530  0.6655  0.0108
  128OSM    H6F13688   5.551   5.135   3.591 -0.6094 -0.2434 -0.8413
  128OSM    H6G13689   5.731   5.152   3.560  2.3234 -1.9523  1.1937
  128OSM    C7F13690   5.688   4.959   3.639 -0.0921 -0.3671  0.1734
  128OSM    H7F13691   5.772   4.910   3.586 -0.7680 -4.8067  2.7254
  128OSM    H7G13692   5.609   4.881   3.635  0.0551 -0.5135  0.1336
  128OSM    C8F13693   5.720   4.975   3.784 -0.3001 -0.4515  0.7566
  128OSM    H8F13694   5.826   5.000   3.805  0.4371 -2.5831 -0.2406
  128OSM    H8G13695   5.697   4.872   3.818  0.6677 -1.4228 -1.3705
  128OSM    C9F13696   5.645   5.082   3.858  0.0416 -0.2853 -0.1013
  128OSM    H9F13697   5.546   5.105   3.815  0.3374 -0.1550 -0.7261
  128OSM   C10F13698   5.665   5.148   3.969  0.6154  0.3034 -0.6827
  128OSM   H10F13699   5.588   5.222   3.994 -1.0891 -1.7237  0.4190
  128OSM   C11F13700   5.783   5.140   4.059 -0.2929  0.5110  0.3523
  128OSM   H11F13701   5.839   5.235   4.072  0.5338 -0.1244  1.6828
  128OSM   H11G13702   5.858   5.071   4.015 -1.5427 -1.0627  0.5995
  128OSM   C12F13703   5.739   5.083   4.195 -0.3007 -0.0754 -0.5846
  128OSM   H12F13704   5.651   5.015   4.190 -0.7574  0.1375  2.6292
  128OSM   H12G13705   5.706   5.172   4.252 -0.6584 -0.7293  0.2615
  128OSM   C13F13706   5.847   5.007   4.273 -0.2090 -0.3149 -0.6886
  128OSM   H13F13707   5.862   4.908   4.226 -0.3960 -0.0862 -1.2291
  128OSM   H13G13708   5.815   4.998   4.380 -1.5419  0.7149 -0.9749
  128OSM   C14F13709   5.986   5.075   4.272  0.2115  0.0370  1.3277
  128OSM   H14F13710   6.040   5.049   4.179 -0.6790 -3.4675  1.6219
  128OSM   H14G13711   6.049   5.011   4.338 -0.4378  0.1060  2.0353
  128OSM   C15F13712   5.987   5.219   4.327 -0.5039  0.7080  0.1853
  128OSM   H15F13713   5.921   5.238   4.415 -0.3862  2.1575 -0.0254
  128OSM   H15G13714   5.940   5.275   4.244 -0.5714  1.0163  0.4306
  128OSM   C16F13715   6.128   5.272   4.348 -0.3633  0.8694  0.6016
  128OSM   H16F13716   6.163   5.312   4.251  0.9375 -0.6744  0.3916
  128OSM   H16G13717   6.178   5.178   4.378 -0.7071 -0.1331 -1.7738
  128OSM   C17F13718   6.132   5.379   4.454  0.2309  0.6063  0.4172
  128OSM   H17F13719   6.042   5.443   4.446  0.1285  0.4512  0.3261
  128OSM   H17G13720   6.222   5.445   4.448  2.0295 -1.7350  0.0435
  128OSM   C18F13721   6.122   5.326   4.596  0.1273 -0.0668 -0.2216
  128OSM   H18F13722   6.118   5.407   4.672 -0.7239 -0.7161  0.4509
  128OSM   H18G13723   6.213   5.269   4.623  1.1256  1.8556  0.6589
  128OSM   H18H13724   6.041   5.251   4.613  1.7903 -2.6514 -2.7665
  129OSM      N13725   5.791   3.896   2.291  0.4029 -0.1638  0.0305
  129OSM    C1513726   5.709   3.937   2.168 -0.1081  0.4969 -0.3172
  129OSM   H15A13727   5.775   3.977   2.092 -1.6431  0.2089 -1.8710
  129OSM   H15B13728   5.647   4.019   2.199 -0.5885 -0.2846  0.8537
  129OSM   H15C13729   5.646   3.855   2.134  0.8282  0.4726 -2.1592
  129OSM    C1413730   5.862   4.021   2.348  0.2346 -0.6776 -0.2822
  129OSM   H14A13731   5.923   4.066   2.271  0.3490 -2.0573 -1.0300
  129OSM   H14B13732   5.924   3.994   2.432  0.8741  0.2017 -0.4575
  129OSM   H14C13733   5.783   4.086   2.383 -1.2662 -2.0770 -0.9245
  129OSM    C1313734   5.704   3.847   2.403  0.6488 -0.6192  0.8109
  129OSM   H13A13735   5.761   3.811   2.487  1.4391 -4.0017 -0.9579
  129OSM   H13B13736   5.644   3.761   2.377  1.0004 -0.0263 -2.3806
  129OSM   H13C13737   5.631   3.922   2.428  1.9672  1.8555 -2.0621
  129OSM    C1213738   5.890   3.790   2.257 -0.1745 -0.1308  0.4287
  129OSM   H12A13739   5.960   3.820   2.181 -0.2434 -2.0276 -0.4583
  129OSM   H12B13740   5.836   3.712   2.205 -1.8125  0.8912  0.5225
  129OSM    C1113741   5.969   3.718   2.363 -0.0257 -0.0714 -0.1313
  129OSM   H11A13742   6.003   3.617   2.331  0.5500 -0.1850  0.8074
  129OSM   H11B13743   5.912   3.697   2.455  0.0776 -0.1795 -0.0923
  129OSM      P13744   6.214   3.816   2.332 -0.4446  0.0813  0.0193
  129OSM    O1313745   6.186   3.867   2.197 -0.0927  0.2970  0.5176
  129OSM    O1413746   6.307   3.895   2.419 -0.0545 -0.4225 -0.1867
  129OSM    O1113747   6.269   3.665   2.338  0.3016  0.0873  1.0168
  129OSM    O1213748   6.073   3.809   2.401  0.4602  0.2246  0.0122
  129OSM    C1S13749   6.377   3.632   2.427 -0.4480 -0.3392  0.3563
  129OSM    H1S13750   6.458   3.707   2.431  1.6942 -2.3242 -2.0001
  129OSM    H1T13751   6.424   3.538   2.391  1.3851  0.6985 -0.0850
  129OSM     NF13752   6.456   3.586   2.647  0.5061 -0.3308 -0.0802
  129OSM    HNF13753   6.498   3.500   2.672  0.5241 -0.2792  0.0697
  129OSM    C2S13754   6.340   3.600   2.573  0.6427 -0.1004  0.2745
  129OSM    H2S13755   6.279   3.686   2.609 -0.1673 -0.5236 -0.0480
  129OSM    C3S13756   6.249   3.469   2.574 -0.2375 -0.2689  0.2015
  129OSM    H3S13757   6.312   3.385   2.538  0.9506  0.3051  0.8800
  129OSM     O313758   6.141   3.466   2.482  0.1378  0.0212 -0.1963
  129OSM    HO313759   6.160   3.549   2.438  0.0729 -0.0411 -0.3418
  129OSM    C4S13760   6.204   3.441   2.717 -0.2350  0.7313  0.0635
  129OSM    H4S13761   6.274   3.368   2.759 -2.1340 -2.8985 -2.5000
  129OSM    C5S13762   6.096   3.494   2.783  0.8026 -0.1164 -0.6659
  129OSM    H5S13763   6.026   3.560   2.730  1.0436 -0.3805 -1.3271
  129OSM    C6S13764   6.061   3.456   2.926 -0.0114  0.1056 -0.0028
  129OSM    H6S13765   6.098   3.352   2.941  1.6170  0.3642 -1.7824
  129OSM    H6T13766   5.955   3.450   2.957 -0.0278 -1.7553 -0.3121
  129OSM    C7S13767   6.142   3.546   3.026  0.0928  0.1118  0.0824
  129OSM    H7S13768   6.117   3.653   3.014 -0.0843  0.0065 -0.5553
  129OSM    H7T13769   6.247   3.552   2.990 -0.0165  1.6207 -0.0294
  129OSM    C8S13770   6.120   3.497   3.170  0.5441 -0.4329 -0.2957
  129OSM    H8S13771   6.145   3.389   3.179  0.8736 -0.3195  0.1971
  129OSM    H8T13772   6.014   3.489   3.202  0.6944  2.4350  1.2594
  129OSM    C9S13773   6.200   3.566   3.280  0.8067 -0.2882 -0.9599
  129OSM    H9S13774   6.181   3.676   3.275  0.0956 -0.3793 -0.3471
  129OSM    H9T13775   6.304   3.551   3.245  0.8070 -1.2577 -0.5727
  129OSM   C10S13776   6.166   3.526   3.419  0.1064  0.4918  0.4701
  129OSM   H10S13777   6.163   3.415   3.426 -2.1295  0.5471  1.2030
  129OSM   H10T13778   6.062   3.559   3.439 -0.2508  0.2678 -0.8957
  129OSM   C11S13779   6.259   3.584   3.529 -0.2418 -0.1431  0.4865
  129OSM   H11S13780   6.259   3.694   3.511  3.0155  0.0053  0.7633
  129OSM   H11T13781   6.364   3.549   3.517 -0.1434  0.7384 -1.4687
  129OSM   C12S13782   6.211   3.587   3.676 -0.1043 -0.1381  0.3739
  129OSM   H12S13783   6.223   3.482   3.710 -2.3670 -1.0209 -1.2933
  129OSM   H12T13784   6.104   3.615   3.676 -0.0854  0.1487 -1.7379
  129OSM   C13S13785   6.278   3.688   3.767 -0.0116  0.0854  0.6064
  129OSM   H13S13786   6.240   3.660   3.868  0.1755 -2.8055 -0.0229
  129OSM   H13T13787   6.252   3.794   3.745 -1.6421 -0.4535 -0.2886
  129OSM   C14S13788   6.432   3.695   3.760 -0.2485  0.1287 -0.2990
  129OSM   H14S13789   6.462   3.732   3.659  1.8521 -2.8550 -0.8815
  129OSM   H14T13790   6.480   3.595   3.765 -0.1245  0.2538  1.6401
  129OSM   C15S13791   6.502   3.783   3.866 -0.5280  0.6677 -0.5671
  129OSM   H15S13792   6.458   3.884   3.873 -0.6322  0.5014  2.7102
  129OSM   H15T13793   6.610   3.778   3.843 -0.2680 -3.0300  0.7841
  129OSM   C16S13794   6.492   3.728   4.008  0.3497  1.1280  0.2514
  129OSM   H16S13795   6.509   3.619   3.998  1.1821  1.2896 -0.2004
  129OSM   H16T13796   6.384   3.742   4.031 -0.1157 -0.1911 -0.9756
  129OSM   C17S13797   6.587   3.781   4.112 -0.2904 -0.2660 -0.4769
  129OSM   H17S13798   6.690   3.741   4.096 -0.6221 -1.5908  0.5115
  129OSM   H17T13799   6.558   3.747   4.214 -1.7525  1.6205 -0.2172
  129OSM   C18S13800   6.590   3.937   4.107 -1.3461  0.2466 -0.5621
  129OSM   H18S13801   6.655   3.966   4.192  0.1207 -1.2604 -1.1025
  129OSM   H18T13802   6.488   3.971   4.135 -1.0923 -0.0603  0.8391
  129OSM   H18U13803   6.625   3.971   4.007  1.7540 -1.2102 -0.0942
  129OSM    C1F13804   6.530   3.696   2.686  0.4626 -0.3185 -0.3981
  129OSM     OF13805   6.504   3.809   2.647  0.2269 -0.3167  0.1815
  129OSM    C2F13806   6.643   3.666   2.786  0.3521 -0.3654  0.2524
  129OSM    H2F13807   6.737   3.703   2.738 -0.0754 -0.5136 -0.7170
  129OSM    H2G13808   6.651   3.555   2.786  0.4710 -0.3647 -0.3126
  129OSM    C3F13809   6.628   3.728   2.924 -0.4331 -0.3328 -0.8924
  129OSM    H3F13810   6.580   3.827   2.910 -1.2822 -0.9295 -2.3485
  129OSM    H3G13811   6.732   3.739   2.961 -1.1311  4.5321  0.3167
  129OSM    C4F13812   6.542   3.648   3.026  0.0799 -0.6795  0.3576
  129OSM    H4F13813   6.591   3.548   3.014  0.2640 -0.3121 -2.6888
  129OSM    H4G13814   6.436   3.638   2.996  0.1578  0.3003 -0.2887
  129OSM    C5F13815   6.558   3.682   3.171  0.3733 -0.0150  0.5768
  129OSM    H5F13816   6.514   3.597   3.228  1.7446 -0.4515  1.0100
  129OSM    H5G13817   6.505   3.778   3.186 -3.4316 -1.7127 -0.6671
  129OSM    C6F13818   6.698   3.700   3.229 -0.2485 -0.9688 -0.2545
  129OSM    H6F13819   6.688   3.735   3.334  1.0279  0.9584 -0.7303
  129OSM    H6G13820   6.771   3.764   3.176 -0.8183 -0.7890 -0.8425
  129OSM    C7F13821   6.775   3.557   3.226 -0.2027  0.2103 -0.0533
  129OSM    H7F13822   6.808   3.546   3.121 -1.9952  1.1049 -0.7570
  129OSM    H7G13823   6.692   3.483   3.234 -0.6070  0.7916  1.6356
  129OSM    C8F13824   6.866   3.548   3.343 -0.4947  0.0957 -0.0756
  129OSM    H8F13825   6.928   3.639   3.353 -2.8654  1.8982 -0.8446
  129OSM    H8G13826   6.930   3.457   3.330 -0.4929 -0.2394  1.9939
  129OSM    C9F13827   6.790   3.538   3.474 -0.1995 -0.0731 -0.2903
  129OSM    H9F13828   6.692   3.589   3.476 -1.0098 -1.6002  1.4375
  129OSM   C10F13829   6.819   3.454   3.575  0.4763 -0.1676  0.8810
  129OSM   H10F13830   6.746   3.439   3.656 -1.2610  0.6821 -0.4567
  129OSM   C11F13831   6.946   3.369   3.590  0.4217 -0.6704  0.1952
  129OSM   H11F13832   7.029   3.404   3.524 -1.1569  1.0666 -0.9764
  129OSM   H11G13833   6.928   3.268   3.548 -3.4555  0.2342 -0.7153
  129OSM   C12F13834   6.992   3.360   3.739 -0.0080 -1.1989  0.7461
  129OSM   H12F13835   7.049   3.451   3.767  0.9231 -1.7300  0.6280
  129OSM   H12G13836   7.073   3.283   3.735  0.3844 -0.8280  1.4054
  129OSM   C13F13837   6.892   3.319   3.844 -1.1182  0.2687  0.0148
  129OSM   H13F13838   6.854   3.215   3.831 -0.4336  0.0630 -0.3800
  129OSM   H13G13839   6.800   3.379   3.862 -1.5047 -1.0403  3.0438
  129OSM   C14F13840   6.957   3.324   3.982 -0.0466  0.0268  0.1091
  129OSM   H14F13841   6.997   3.427   3.997  0.2958 -0.0788 -0.0641
  129OSM   H14G13842   7.047   3.259   3.991 -1.2990 -1.5114  2.4633
  129OSM   C15F13843   6.877   3.287   4.110 -0.3317 -0.7038  0.0966
  129OSM   H15F13844   6.843   3.181   4.118 -1.1217 -0.4228  0.4889
  129OSM   H15G13845   6.787   3.352   4.117 -0.6861 -1.0840 -0.7551
  129OSM   C16F13846   6.965   3.310   4.237  0.0822 -0.4876 -0.5605
  129OSM   H16F13847   7.003   3.414   4.249 -2.5915  0.9024 -2.8158
  129OSM   H16G13848   7.048   3.239   4.217 -0.6916 -2.0497  1.4536
  129OSM   C17F13849   6.895   3.262   4.362 -0.1624 -0.0833 -0.4857
  129OSM   H17F13850   6.819   3.182   4.344 -1.9314  1.6306 -0.9333
  129OSM   H17G13851   6.836   3.350   4.395  0.3130 -0.2778  0.9220
  129OSM   C18F13852   6.987   3.218   4.475 -0.1581  0.0879  0.0415
  129OSM   H18F13853   7.063   3.142   4.445 -1.7759 -1.6835  0.2705
  129OSM   H18G13854   6.933   3.164   4.556 -0.5094 -0.3994 -0.5154
  129OSM   H18H13855   7.039   3.302   4.526  0.1207 -0.5851  0.9083
  130OSM      N13856   6.646   1.353   1.814 -0.0299 -0.4244  0.4277
  130OSM    C1513857   6.759   1.292   1.738 -0.6911 -0.4560 -0.7361
  130OSM   H15A13858   6.812   1.218   1.797  2.0950  0.1697 -2.2718
  130OSM   H15B13859   6.834   1.364   1.711  0.6658 -1.9274 -1.0420
  130OSM   H15C13860   6.729   1.255   1.642 -0.6927  1.3640 -1.4704
  130OSM    C1413861   6.694   1.451   1.910 -0.3596 -0.3664 -0.9525
  130OSM   H14A13862   6.774   1.511   1.868 -0.8423  0.8289 -0.1922
  130OSM   H14B13863   6.737   1.393   1.991 -1.9990  0.4832  0.5695
  130OSM   H14C13864   6.629   1.526   1.951  0.5734  0.5366 -1.0743
  130OSM    C1313865   6.555   1.419   1.714 -0.0481 -0.1934  0.9120
  130OSM   H13A13866   6.601   1.501   1.661 -2.3622  0.6910  0.1302
  130OSM   H13B13867   6.477   1.461   1.776 -0.7434 -0.5697  0.3115
  130OSM   H13C13868   6.519   1.336   1.654  1.5099 -0.1620 -0.1220
  130OSM    C1213869   6.566   1.244   1.889 -0.2583 -0.0444 -0.4487
  130OSM   H12A13870   6.530   1.170   1.819  0.0173 -0.2175 -0.4076
  130OSM   H12B13871   6.474   1.280   1.932 -0.2768 -0.3837 -0.1911
  130OSM    C1113872   6.642   1.163   1.991 -0.0822  0.0335  0.2862
  130OSM   H11A13873   6.582   1.101   2.061  0.0155 -0.3585  0.0216
  130OSM   H11B13874   6.694   1.233   2.060 -0.7901  1.0629 -0.2018
  130OSM      P13875   6.666   0.944   1.856  0.4388  0.2446  0.3823
  130OSM    O1313876   6.540   0.976   1.786  0.2106 -0.0507 -0.3205
  130OSM    O1413877   6.772   0.879   1.781  0.1619 -0.2304 -0.2127
  130OSM    O1113878   6.645   0.860   1.987  0.4686 -0.5838  0.0300
  130OSM    O1213879   6.726   1.073   1.920  0.3658  0.1527 -0.5526
  130OSM    C1S13880   6.728   0.846   2.102  0.4302 -0.3211 -0.9613
  130OSM    H1S13881   6.792   0.934   2.120  0.3200 -0.6072  0.9767
  130OSM    H1T13882   6.806   0.770   2.080  3.0049  1.6579  0.7983
  130OSM     NF13883   6.747   0.808   2.345 -0.5566  0.0572 -0.0879
  130OSM    HNF13884   6.807   0.730   2.361 -0.1986  0.5927  1.2914
  130OSM    C2S13885   6.659   0.796   2.232  0.9747  0.0511 -0.5005
  130OSM    H2S13886   6.576   0.868   2.248  0.3432 -0.6348 -0.6532
  130OSM    C3S13887   6.606   0.653   2.214  0.3030 -0.5683  0.6954
  130OSM    H3S13888   6.694   0.586   2.199  1.4919  1.2883 -1.1146
  130OSM     O313889   6.517   0.638   2.102  0.5433  0.9068  0.1398
  130OSM    HO313890   6.511   0.724   2.059  0.0891 -0.2806 -2.3321
  130OSM    C4S13891   6.534   0.613   2.341  0.0442  0.0158  0.3153
  130OSM    H4S13892   6.607   0.585   2.419  1.5245 -2.1924 -1.6988
  130OSM    C5S13893   6.402   0.634   2.368  0.3955 -0.1567  0.5116
  130OSM    H5S13894   6.349   0.697   2.295  0.6981 -0.8420 -0.3199
  130OSM    C6S13895   6.340   0.608   2.505  0.0288  0.0616  0.3218
  130OSM    H6S13896   6.322   0.499   2.513  1.3148 -0.0684  2.2357
  130OSM    H6T13897   6.261   0.682   2.530 -0.2017 -0.9543  2.8716
  130OSM    C7S13898   6.439   0.625   2.625 -0.6521  0.0777 -0.5277
  130OSM    H7S13899   6.490   0.722   2.610  0.9828 -0.3719  1.5725
  130OSM    H7T13900   6.517   0.547   2.613 -1.8614 -1.1780 -0.5698
  130OSM    C8S13901   6.361   0.615   2.759 -0.6966 -0.4362 -0.1294
  130OSM    H8S13902   6.320   0.514   2.782  0.0405 -0.4017  1.4229
  130OSM    H8T13903   6.277   0.685   2.742 -1.1990 -1.3152 -1.5031
  130OSM    C9S13904   6.444   0.678   2.871 -0.5818 -1.0415 -0.7369
  130OSM    H9S13905   6.490   0.777   2.851 -0.4191 -0.7037  1.1617
  130OSM    H9T13906   6.527   0.606   2.886 -0.2048 -0.7176 -1.2134
  130OSM   C10S13907   6.358   0.708   2.996 -0.4015 -0.6837 -0.2609
  130OSM   H10S13908   6.304   0.616   3.027 -0.0035 -0.5141  0.9661
  130OSM   H10T13909   6.294   0.799   2.999 -0.4876 -0.7671  2.4188
  130OSM   C11S13910   6.453   0.727   3.108  0.0777 -0.5801  0.6713
  130OSM   H11S13911   6.542   0.786   3.075  2.1140 -2.1866  2.9120
  130OSM   H11T13912   6.506   0.643   3.158  1.8294  1.2911  2.1561
  130OSM   C12S13913   6.386   0.797   3.216  0.0964 -0.1988 -0.1303
  130OSM   H12S13914   6.295   0.742   3.249 -0.2545 -0.5663 -1.6017
  130OSM   H12T13915   6.368   0.903   3.190 -0.1279  0.1534  1.3743
  130OSM   C13S13916   6.471   0.820   3.349  0.6098  0.1423  0.2607
  130OSM   H13S13917   6.574   0.858   3.337 -0.4822  3.1637 -0.3602
  130OSM   H13T13918   6.463   0.721   3.400 -2.7276  0.8690  1.4466
  130OSM   C14S13919   6.399   0.926   3.437  0.6286 -0.4672  0.7731
  130OSM   H14S13920   6.297   0.890   3.461  0.8995 -0.6238  1.7372
  130OSM   H14T13921   6.387   1.027   3.391 -3.1310  0.0362  2.4792
  130OSM   C15S13922   6.473   0.935   3.572 -0.3939 -0.0949 -0.5416
  130OSM   H15S13923   6.580   0.965   3.566 -0.0915 -0.9405  0.3893
  130OSM   H15T13924   6.477   0.836   3.622  3.9082  0.5531  0.8459
  130OSM   C16S13925   6.402   1.028   3.677  0.0331  0.7457  0.5529
  130OSM   H16S13926   6.302   0.983   3.692  0.6568 -0.7385  0.4660
  130OSM   H16T13927   6.389   1.130   3.635 -1.7470 -0.6406 -2.6326
  130OSM   C17S13928   6.486   1.019   3.809  0.8938  0.0632  0.4217
  130OSM   H17S13929   6.589   1.055   3.791  1.2359  0.6814  3.1271
  130OSM   H17T13930   6.488   0.915   3.847 -0.0278 -0.2658 -0.3801
  130OSM   C18S13931   6.423   1.107   3.918  0.0955  0.5357  0.0663
  130OSM   H18S13932   6.422   1.213   3.883  0.0975 -0.1233 -2.0571
  130OSM   H18T13933   6.478   1.099   4.013  0.3989 -0.8829 -0.2100
  130OSM   H18U13934   6.314   1.089   3.933 -0.3301  2.4207 -0.3880
  130OSM    C1F13935   6.772   0.931   2.390  0.5443  0.1800  0.5892
  130OSM     OF13936   6.704   1.023   2.355 -0.6740 -0.5088 -0.4082
  130OSM    C2F13937   6.900   0.946   2.475  0.5342 -0.3771 -0.4361
  130OSM    H2F13938   6.975   0.985   2.402 -1.3580  1.2150 -1.6558
  130OSM    H2G13939   6.932   0.845   2.506  0.1408 -0.1893  0.6237
  130OSM    C3F13940   6.887   1.026   2.604  0.2484  0.1612 -0.1262
  130OSM    H3F13941   6.847   1.126   2.577 -1.7548 -0.3465  0.7316
  130OSM    H3G13942   6.989   1.047   2.641 -0.1589 -0.2401  1.3154
  130OSM    C4F13943   6.813   0.958   2.726 -0.5466  0.5545  0.3581
  130OSM    H4F13944   6.874   0.871   2.756 -1.5778 -0.9322 -1.6355
  130OSM    H4G13945   6.714   0.914   2.701  0.0411 -1.3163  1.1387
  130OSM    C5F13946   6.804   1.060   2.838 -0.9809 -0.6880  0.2576
  130OSM    H5F13947   6.760   1.146   2.783  2.4188 -0.0985 -1.8222
  130OSM    H5G13948   6.903   1.095   2.873 -1.1710 -0.2720  0.3853
  130OSM    C6F13949   6.730   1.010   2.956  0.9179 -0.0521 -0.2726
  130OSM    H6F13950   6.775   0.915   2.993  2.1231  0.3883 -0.5798
  130OSM    H6G13951   6.627   0.987   2.922  0.7388  2.2219 -1.4138
  130OSM    C7F13952   6.719   1.109   3.078 -0.7041 -0.0865  0.8967
  130OSM    H7F13953   6.652   1.060   3.152  0.9720  0.4838  2.8533
  130OSM    H7G13954   6.686   1.208   3.041 -0.2757 -1.1029 -2.5966
  130OSM    C8F13955   6.848   1.144   3.159 -0.0038  0.0631 -0.4995
  130OSM    H8F13956   6.918   1.177   3.080 -1.1966 -1.2525 -2.1966
  130OSM    H8G13957   6.885   1.051   3.206 -2.3206 -0.2214  0.9146
  130OSM    C9F13958   6.827   1.255   3.264 -0.9453  1.2500 -0.4657
  130OSM    H9F13959   6.845   1.356   3.223  0.5693  1.5159  0.7839
  130OSM   C10F13960   6.829   1.237   3.396  0.1758 -0.2837 -0.3074
  130OSM   H10F13961   6.824   1.334   3.449 -0.5680  0.0358 -0.9371
  130OSM   C11F13962   6.816   1.107   3.471 -0.0022 -0.1876 -0.1488
  130OSM   H11F13963   6.847   1.027   3.399  0.3974 -0.1842  0.0138
  130OSM   H11G13964   6.710   1.085   3.493 -1.0351  1.9836 -2.4379
  130OSM   C12F13965   6.917   1.103   3.591  0.7468 -0.4083  0.5493
  130OSM   H12F13966   7.018   1.140   3.562  0.6098  0.5992  1.3035
  130OSM   H12G13967   6.928   1.000   3.630  1.2691 -0.9344 -0.9391
  130OSM   C13F13968   6.879   1.187   3.715 -0.1354  0.5067  0.1939
  130OSM   H13F13969   6.780   1.148   3.746 -1.1657 -0.0030 -3.2387
  130OSM   H13G13970   6.860   1.290   3.678 -1.0411  1.1220  2.2351
  130OSM   C14F13971   6.973   1.191   3.835 -0.3921  0.0041  0.0637
  130OSM   H14F13972   7.063   1.249   3.804 -0.7572  0.8315  0.4985
  130OSM   H14G13973   6.985   1.086   3.867  1.5172 -0.0031 -0.5490
  130OSM   C15F13974   6.925   1.267   3.957  0.5078  0.1403 -0.3921
  130OSM   H15F13975   6.842   1.207   4.001  0.3167 -0.3817 -1.4255
  130OSM   H15G13976   6.873   1.361   3.930 -1.7858 -1.1689 -0.8054
  130OSM   C16F13977   7.030   1.321   4.058  0.3764  0.6905  0.0340
  130OSM   H16F13978   7.105   1.387   4.009 -0.9140  1.0673 -1.5021
  130OSM   H16G13979   7.085   1.235   4.103 -1.9773 -0.5774  0.6372
  130OSM   C17F13980   6.967   1.398   4.174  0.1260 -0.7196  0.4015
  130OSM   H17F13981   6.884   1.346   4.226 -0.3707 -0.3188  0.0239
  130OSM   H17G13982   6.913   1.483   4.128  1.3038 -0.9657 -1.5739
  130OSM   C18F13983   7.068   1.451   4.273 -0.1280 -0.6583  0.6484
  130OSM   H18F13984   7.144   1.514   4.221 -2.1339  0.8374 -0.6436
  130OSM   H18G13985   7.113   1.360   4.317  0.9398  0.1110  1.1966
  130OSM   H18H13986   7.028   1.503   4.362  2.4405  1.2555  0.8073
  131OSM      N13987   4.722   5.661   2.076 -0.2057 -0.1482 -0.3149
  131OSM    C1513988   4.741   5.639   2.220 -0.2428  0.0112 -0.1417
  131OSM   H15A13989   4.661   5.679   2.279 -1.0576 -0.8328 -0.6496
  131OSM   H15B13990   4.833   5.689   2.247 -0.8916  0.8182  0.6334
  131OSM   H15C13991   4.760   5.533   2.232 -0.7604 -0.1350 -0.5788
  131OSM    C1413992   4.848   5.636   2.014 -0.1817  0.0155  0.3210
  131OSM   H14A13993   4.862   5.529   2.013 -1.4263 -0.1669  1.1002
  131OSM   H14B13994   4.938   5.680   2.056 -1.9804  0.9831  3.5496
  131OSM   H14C13995   4.841   5.669   1.911  0.0082  2.1940  0.9555
  131OSM    C1313996   4.611   5.572   2.030  0.4344 -0.1811 -0.4193
  131OSM   H13A13997   4.590   5.588   1.926  3.1052  0.5485 -0.9044
  131OSM   H13B13998   4.520   5.598   2.083  1.1916 -0.0564  0.8607
  131OSM   H13C13999   4.635   5.468   2.050 -0.8533 -0.5374 -0.6072
  131OSM    C1214000   4.684   5.806   2.062  0.4083  0.6044 -0.2164
  131OSM   H12A14001   4.654   5.819   1.959 -2.1246  1.0278  0.5101
  131OSM   H12B14002   4.773   5.867   2.070  1.5893 -1.0388 -0.3641
  131OSM    C1114003   4.577   5.867   2.151  0.4631  0.0158 -0.3778
  131OSM   H11A14004   4.561   5.975   2.132 -1.4235 -0.0862  0.3459
  131OSM   H11B14005   4.627   5.866   2.250 -0.6372 -0.7661  0.2016
  131OSM      P14006   4.334   5.833   2.052  0.2653 -0.3037  0.0966
  131OSM    O1314007   4.395   5.897   1.930  0.1895  0.2956 -0.0871
  131OSM    O1414008   4.254   5.713   2.034 -0.1858 -0.5900  0.0336
  131OSM    O1114009   4.263   5.950   2.139  0.0279  0.0643 -0.9029
  131OSM    O1214010   4.456   5.797   2.148  0.3274  0.1991  0.2090
  131OSM    C1S14011   4.237   5.919   2.279 -0.7450 -0.2419 -0.4866
  131OSM    H1S14012   4.327   5.909   2.343 -0.3506  1.2254 -0.7779
  131OSM    H1T14013   4.162   5.837   2.283 -1.1435  0.1110 -0.6062
  131OSM     NF14014   4.143   6.006   2.491 -0.1316 -0.3228 -0.4315
  131OSM    HNF14015   4.050   5.976   2.510  0.3761 -2.4223 -0.9271
  131OSM    C2S14016   4.166   6.041   2.351  0.0941  0.0173  0.1162
  131OSM    H2S14017   4.239   6.123   2.335  0.0133 -0.1645 -1.3455
  131OSM    C3S14018   4.036   6.079   2.272  0.2724 -0.1133  0.9355
  131OSM    H3S14019   3.959   6.000   2.287 -0.9345  0.8396 -0.0527
  131OSM     O314020   4.042   6.081   2.129 -0.8622 -0.4097 -0.1299
  131OSM    HO314021   4.135   6.059   2.119 -0.1142  2.4520 -0.4848
  131OSM    C4S14022   3.976   6.205   2.325 -0.1947  0.1350  0.4813
  131OSM    H4S14023   3.895   6.184   2.397 -0.6169 -1.0381 -0.3146
  131OSM    C5S14024   4.006   6.336   2.291 -0.0815 -0.3106 -0.4083
  131OSM    H5S14025   4.094   6.347   2.225 -1.1968  3.3982 -1.5484
  131OSM    C6S14026   3.948   6.457   2.353  0.1036  0.0968 -0.5085
  131OSM    H6S14027   3.890   6.510   2.275 -1.4562 -0.1691  0.4203
  131OSM    H6T14028   4.032   6.528   2.368 -0.1689  0.6737 -1.6295
  131OSM    C7S14029   3.887   6.442   2.492 -0.3843 -1.1830  0.0086
  131OSM    H7S14030   3.810   6.363   2.497 -0.5673 -1.0994 -1.2182
  131OSM    H7T14031   3.839   6.541   2.507 -2.2557 -1.7450 -1.7234
  131OSM    C8S14032   3.993   6.413   2.602 -0.2299  0.0826  0.1386
  131OSM    H8S14033   4.058   6.503   2.602 -1.8676  1.3328 -1.2506
  131OSM    H8T14034   4.060   6.327   2.579  0.1128 -0.4514  2.7642
  131OSM    C9S14035   3.927   6.409   2.743 -0.4589  0.2436  0.1864
  131OSM    H9S14036   3.872   6.314   2.756  0.4737 -0.4056 -0.4625
  131OSM    H9T14037   3.854   6.492   2.758 -0.0017  0.8309 -0.7556
  131OSM   C10S14038   4.039   6.423   2.859  0.2345 -0.1350  0.0900
  131OSM   H10S14039   4.106   6.507   2.833  0.4486  0.1120  1.3782
  131OSM   H10T14040   4.088   6.323   2.854  0.2736 -0.0444 -2.1332
  131OSM   C11S14041   3.994   6.445   2.997 -0.1046  0.7848  0.1882
  131OSM   H11S14042   3.899   6.393   3.024  0.3069 -0.1836 -0.1668
  131OSM   H11T14043   3.983   6.553   3.021  0.0631  0.8623 -0.0769
  131OSM   C12S14044   4.105   6.404   3.091  0.0307  0.5688 -0.5371
  131OSM   H12S14045   4.195   6.469   3.092 -0.8593  1.8465 -0.3876
  131OSM   H12T14046   4.133   6.300   3.064  1.2213  0.1948  1.8415
  131OSM   C13S14047   4.055   6.405   3.235 -0.0990 -0.6508 -0.0721
  131OSM   H13S14048   3.993   6.316   3.257 -1.1602 -0.4742 -2.1032
  131OSM   H13T14049   3.987   6.491   3.253  0.6948 -0.0438  0.0971
  131OSM   C14S14050   4.168   6.409   3.345 -0.5091  0.7588  0.2208
  131OSM   H14S14051   4.236   6.492   3.316 -3.3158  2.8482 -0.7922
  131OSM   H14T14052   4.236   6.321   3.342 -1.0882  0.3242 -0.5107
  131OSM   C15S14053   4.122   6.430   3.488 -0.7142 -0.0042  0.2883
  131OSM   H15S14054   4.077   6.334   3.522 -2.0066  0.0118 -1.2383
  131OSM   H15T14055   4.045   6.509   3.471  0.2040  1.1153  1.1853
  131OSM   C16S14056   4.233   6.473   3.582 -0.3697  0.0309 -0.5362
  131OSM   H16S14057   4.291   6.548   3.524  0.6247 -0.0424  0.3430
  131OSM   H16T14058   4.311   6.395   3.587 -0.2438  0.2318  0.9694
  131OSM   C17S14059   4.181   6.519   3.717  0.0334  0.1766 -0.1948
  131OSM   H17S14060   4.130   6.434   3.767  0.8228 -1.6906 -2.3680
  131OSM   H17T14061   4.106   6.600   3.702 -0.6869 -0.8237 -2.3490
  131OSM   C18S14062   4.293   6.573   3.810 -0.1339  0.7412  0.2795
  131OSM   H18S14063   4.327   6.674   3.780  0.5372 -0.2943 -2.7782
  131OSM   H18T14064   4.382   6.508   3.800  0.2662  0.8859  2.3978
  131OSM   H18U14065   4.259   6.587   3.915 -1.7164  2.0212 -0.3518
  131OSM    C1F14066   4.241   6.010   2.585 -0.0623 -0.3469 -0.1656
  131OSM     OF14067   4.358   6.035   2.556 -0.3170  0.1341  0.3443
  131OSM    C2F14068   4.201   5.979   2.726  0.4536 -0.2346 -0.7737
  131OSM    H2F14069   4.180   5.871   2.740  0.4912 -0.0113  1.2552
  131OSM    H2G14070   4.105   6.027   2.755 -0.5290 -1.7367 -1.3935
  131OSM    C3F14071   4.309   6.024   2.832 -0.5413 -0.3077  0.4163
  131OSM    H3F14072   4.319   6.134   2.820 -2.2206 -0.2196 -0.5934
  131OSM    H3G14073   4.406   5.979   2.801 -0.4309  1.6292 -2.3550
  131OSM    C4F14074   4.254   5.998   2.969  1.0563  0.1112 -0.4690
  131OSM    H4F14075   4.223   5.893   2.985  0.6076  0.4133  0.7368
  131OSM    H4G14076   4.164   6.061   2.989  1.6523  1.0095 -0.5283
  131OSM    C5F14077   4.343   6.018   3.087  0.2744 -0.4904 -0.6783
  131OSM    H5F14078   4.388   6.120   3.083 -1.6450  0.5095  1.5733
  131OSM    H5G14079   4.421   5.939   3.083 -0.5629 -1.3221 -0.9756
  131OSM    C6F14080   4.271   6.000   3.225  0.0931 -0.5995  0.2840
  131OSM    H6F14081   4.211   5.906   3.230  1.7406 -1.9558 -2.5147
  131OSM    H6G14082   4.188   6.073   3.230  0.7803  0.1028  3.1490
  131OSM    C7F14083   4.368   6.033   3.336  0.2491 -0.3758 -0.1350
  131OSM    H7F14084   4.400   6.139   3.337 -0.8898  0.0583 -2.4044
  131OSM    H7G14085   4.462   5.976   3.320 -0.1169 -1.1554  0.4397
  131OSM    C8F14086   4.313   5.972   3.469  0.0524  0.6780 -0.3797
  131OSM    H8F14087   4.400   5.946   3.534  0.8978  1.0893 -1.3209
  131OSM    H8G14088   4.260   5.877   3.447  1.1387 -0.0938  0.2051
  131OSM    C9F14089   4.224   6.065   3.545  0.0018  0.1240 -0.1328
  131OSM    H9F14090   4.146   6.103   3.477  1.8674  1.8459 -1.4276
  131OSM   C10F14091   4.248   6.121   3.667  0.7320  0.0403 -0.0374
  131OSM   H10F14092   4.191   6.203   3.712  1.9258  0.0489  1.5598
  131OSM   C11F14093   4.359   6.094   3.767  1.0940 -0.1841  0.3021
  131OSM   H11F14094   4.378   6.171   3.844  0.2849 -0.7958  1.1414
  131OSM   H11G14095   4.457   6.085   3.715  0.0488 -1.6325 -1.5448
  131OSM   C12F14096   4.349   5.976   3.859 -0.1657  0.9616  0.0443
  131OSM   H12F14097   4.330   5.886   3.796  0.2287  0.0538  1.1833
  131OSM   H12G14098   4.252   5.991   3.912 -0.5220 -0.3411 -0.1917
  131OSM   C13F14099   4.470   5.972   3.953 -0.6147 -0.1942  0.2511
  131OSM   H13F14100   4.456   6.066   4.010 -1.3647 -0.0364 -0.1823
  131OSM   H13G14101   4.568   5.976   3.901 -0.7738 -1.0683 -0.1219
  131OSM   C14F14102   4.473   5.857   4.059  0.3579  0.4504  0.5416
  131OSM   H14F14103   4.501   5.757   4.019  2.0061 -0.2016  3.0721
  131OSM   H14G14104   4.370   5.844   4.099  0.4395 -0.5019  0.4522
  131OSM   C15F14105   4.567   5.880   4.171 -0.3608  0.4382  0.0374
  131OSM   H15F14106   4.532   5.969   4.226  0.2996  1.3887 -1.0300
  131OSM   H15G14107   4.670   5.892   4.131 -0.4678  0.2168 -0.3126
  131OSM   C16F14108   4.570   5.747   4.261  0.0528 -0.2941  0.3042
  131OSM   H16F14109   4.593   5.658   4.198  1.7072 -0.2841  0.8444
  131OSM   H16G14110   4.475   5.741   4.317 -0.6117 -0.7492 -0.8287
  131OSM   C17F14111   4.673   5.778   4.368  0.1186 -0.4028  0.2071
  131OSM   H17F14112   4.631   5.869   4.415  2.2950  0.3784  0.7349
  131OSM   H17G14113   4.767   5.812   4.319 -0.9304  1.6890 -0.4743
  131OSM   C18F14114   4.705   5.668   4.473 -0.7631 -0.0576  0.1426
  131OSM   H18F14115   4.611   5.611   4.491 -1.1447  0.5187  0.0082
  131OSM   H18G14116   4.746   5.701   4.571 -2.1265  2.1130  0.0576
  131OSM   H18H14117   4.783   5.597   4.437  2.5275  3.2099  0.2960
  132OSM      N14118   3.764   5.374   2.219 -0.1354 -0.1969  0.3736
  132OSM    C1514119   3.866   5.328   2.121  0.9074  0.1792 -0.1603
  132OSM   H15A14120   3.908   5.238   2.163  1.4150 -0.4336 -1.8914
  132OSM   H15B14121   3.943   5.400   2.095  0.5277  0.0404 -1.7790
  132OSM   H15C14122   3.817   5.298   2.029  0.4353 -1.4127  0.5741
  132OSM    C1414123   3.694   5.495   2.177 -0.7073 -0.2399 -0.7696
  132OSM   H14A14124   3.765   5.575   2.164 -0.2800 -0.5040 -0.1248
  132OSM   H14B14125   3.621   5.522   2.252 -0.6778  0.2444 -0.9121
  132OSM   H14C14126   3.648   5.495   2.079  3.4466  1.3460 -2.9355
  132OSM    C1314127   3.664   5.269   2.237 -0.1942  0.3372  0.7457
  132OSM   H13A14128   3.612   5.258   2.143 -1.2274 -0.3900  1.3836
  132OSM   H13B14129   3.589   5.296   2.311  0.0318 -1.6012  1.7464
  132OSM   H13C14130   3.703   5.179   2.282 -1.9849 -0.6702  0.3708
  132OSM    C1214131   3.822   5.405   2.358 -0.5215 -0.3888 -0.6443
  132OSM   H12A14132   3.749   5.454   2.422  0.5035  0.7609 -0.3193
  132OSM   H12B14133   3.902   5.477   2.347  1.2188 -0.6835  5.9949
  132OSM    C1114134   3.873   5.286   2.434 -0.6277 -0.0320 -0.1474
  132OSM   H11A14135   3.792   5.213   2.456 -0.1850 -0.4094  0.2800
  132OSM   H11B14136   3.907   5.332   2.529 -0.3011 -0.2809 -0.1410
  132OSM      P14137   4.049   5.088   2.391 -0.2122 -0.1491  0.0062
  132OSM    O1314138   3.932   4.996   2.392 -0.0744  0.0682 -0.2471
  132OSM    O1414139   4.152   5.071   2.290 -0.6772 -0.7655 -0.2563
  132OSM    O1114140   4.109   5.108   2.539 -0.2144  0.0477  0.4627
  132OSM    O1214141   3.987   5.225   2.371 -0.0230  0.0811  0.3359
  132OSM    C1S14142   4.218   5.196   2.567  0.2489  0.4158  0.6488
  132OSM    H1S14143   4.195   5.301   2.540 -1.7674 -0.6307 -2.1624
  132OSM    H1T14144   4.312   5.166   2.515 -0.1589  2.5105 -1.4994
  132OSM     NF14145   4.316   5.310   2.771  0.3848 -0.5088  0.3226
  132OSM    HNF14146   4.411   5.281   2.782  0.8929  0.0545 -1.9929
  132OSM    C2S14147   4.225   5.206   2.723  0.3082 -0.1513 -0.4578
  132OSM    H2S14148   4.127   5.240   2.762  0.2558 -0.9939  0.1882
  132OSM    C3S14149   4.249   5.062   2.793 -0.1461  0.3436 -0.0660
  132OSM    H3S14150   4.358   5.049   2.784 -0.1736  0.6193 -0.8896
  132OSM     O314151   4.186   4.951   2.733 -0.2024  0.0341  0.6057
  132OSM    HO314152   4.147   4.994   2.657 -1.9042  0.2416  1.5528
  132OSM    C4S14153   4.219   5.061   2.939 -0.5624  0.0050  0.1381
  132OSM    H4S14154   4.311   5.090   2.991  0.0306 -0.8093 -0.4375
  132OSM    C5S14155   4.110   5.023   3.006  0.2197 -0.2280 -0.5854
  132OSM    H5S14156   4.031   4.979   2.944 -0.1053 -1.5291  0.6868
  132OSM    C6S14157   4.091   5.007   3.153  0.5477 -0.2554 -0.2167
  132OSM    H6S14158   4.087   4.899   3.180 -1.8141 -0.1448  0.1431
  132OSM    H6T14159   3.992   5.036   3.194  1.6404  0.5196  2.0314
  132OSM    C7S14160   4.199   5.071   3.240 -0.3566 -0.7558  0.3904
  132OSM    H7S14161   4.192   5.177   3.208 -0.5931 -0.2236  2.1034
  132OSM    H7T14162   4.303   5.040   3.215  0.1264 -0.3240  1.7438
  132OSM    C8S14163   4.157   5.072   3.379 -0.5938 -0.7940 -0.6797
  132OSM    H8S14164   4.133   4.968   3.410  1.4771 -0.5520  2.1241
  132OSM    H8T14165   4.079   5.146   3.408  1.6283  0.7793  1.7724
  132OSM    C9S14166   4.280   5.109   3.465 -0.3910  0.0873 -0.0565
  132OSM    H9S14167   4.321   5.204   3.425 -2.0825  0.1073 -1.8855
  132OSM    H9T14168   4.356   5.029   3.445  0.2232  1.0392 -1.7815
  132OSM   C10S14169   4.255   5.122   3.612  0.5204  0.2446 -0.2097
  132OSM   H10S14170   4.174   5.199   3.612  0.5818  0.4622 -4.0265
  132OSM   H10T14171   4.345   5.159   3.666  1.0429 -0.0771 -0.8577
  132OSM   C11S14172   4.208   4.993   3.688  0.7510 -0.2931  0.2677
  132OSM   H11S14173   4.297   4.928   3.704 -0.0955 -1.5884 -0.1235
  132OSM   H11T14174   4.143   4.936   3.618  0.3575 -0.6025  0.8744
  132OSM   C12S14175   4.131   5.035   3.817  0.4809 -0.5166  0.3991
  132OSM   H12S14176   4.056   5.112   3.789  2.4624  0.8849 -1.3504
  132OSM   H12T14177   4.198   5.094   3.883 -3.4778  2.4729  2.1691
  132OSM   C13S14178   4.062   4.915   3.899 -0.8253  0.3748  1.4443
  132OSM   H13S14179   4.123   4.826   3.875 -0.0787  0.8268  1.6282
  132OSM   H13T14180   3.960   4.906   3.856 -0.7068  0.1998  1.2053
  132OSM   C14S14181   4.054   4.952   4.048  0.0635 -0.0741 -0.0473
  132OSM   H14S14182   4.157   4.989   4.068 -0.5255  1.1475  0.8820
  132OSM   H14T14183   4.031   4.865   4.114 -0.7258 -0.6072 -1.0024
  132OSM   C15S14184   3.962   5.072   4.067 -0.0003 -0.1213  0.1591
  132OSM   H15S14185   3.866   5.047   4.016 -1.3868  0.0380  2.5075
  132OSM   H15T14186   3.990   5.171   4.025 -3.1842 -0.0572 -2.2441
  132OSM   C16S14187   3.923   5.087   4.215 -0.7170  0.2352  0.2429
  132OSM   H16S14188   4.017   5.106   4.272 -0.5712  0.7757 -0.1695
  132OSM   H16T14189   3.894   4.989   4.260  2.9738 -1.0660  0.1985
  132OSM   C17S14190   3.824   5.200   4.243 -0.2513  0.0228 -0.3592
  132OSM   H17S14191   3.724   5.164   4.211  0.0602 -0.4635 -0.8031
  132OSM   H17T14192   3.847   5.291   4.184 -0.2715  0.2291 -0.0483
  132OSM   C18S14193   3.825   5.222   4.399 -0.1823  0.1414  0.2331
  132OSM   H18S14194   3.812   5.125   4.453  0.0977  1.1805  2.2535
  132OSM   H18T14195   3.745   5.295   4.421 -0.5095  1.0485 -3.4203
  132OSM   H18U14196   3.924   5.263   4.429  0.6710 -1.0710 -0.7963
  132OSM    C1F14197   4.286   5.443   2.775 -0.4051  0.2799  0.0863
  132OSM     OF14198   4.173   5.486   2.762  0.3373 -0.3959  0.1777
  132OSM    C2F14199   4.404   5.541   2.790  0.2886  0.5795 -0.2796
  132OSM    H2F14200   4.401   5.612   2.704 -0.9740  0.9768  0.0632
  132OSM    H2G14201   4.499   5.484   2.783 -0.5962 -0.8561 -1.2913
  132OSM    C3F14202   4.404   5.615   2.925 -0.0618 -0.6642 -0.4843
  132OSM    H3F14203   4.304   5.665   2.923 -0.9092 -2.2929 -1.3809
  132OSM    H3G14204   4.485   5.690   2.931 -1.4206  0.8220  0.1168
  132OSM    C4F14205   4.421   5.526   3.052 -0.1923 -0.1292 -0.1728
  132OSM    H4F14206   4.498   5.449   3.030 -1.7242 -1.5945 -0.5597
  132OSM    H4G14207   4.323   5.476   3.064  0.5714 -2.0638 -1.5349
  132OSM    C5F14208   4.474   5.593   3.178 -0.0703 -0.5804  0.1089
  132OSM    H5F14209   4.402   5.677   3.190 -0.8992 -1.4155  1.2483
  132OSM    H5G14210   4.572   5.639   3.153 -0.4630 -0.4519 -1.2493
  132OSM    C6F14211   4.484   5.511   3.308 -0.3398  0.0977 -0.0348
  132OSM    H6F14212   4.555   5.550   3.384  0.1656  1.8593 -1.3422
  132OSM    H6G14213   4.529   5.413   3.282 -0.2233  0.0216  0.4425
  132OSM    C7F14214   4.344   5.490   3.382  0.1253  0.1607  0.0111
  132OSM    H7F14215   4.297   5.410   3.322  0.3124 -0.5869  0.8445
  132OSM    H7G14216   4.294   5.586   3.355 -1.8069 -1.3810 -2.2800
  132OSM    C8F14217   4.352   5.476   3.533 -1.0455 -0.1166  0.7392
  132OSM    H8F14218   4.403   5.381   3.557  0.9648  1.2600  2.2701
  132OSM    H8G14219   4.249   5.449   3.562 -1.0243 -2.6169 -1.1920
  132OSM    C9F14220   4.406   5.599   3.603  0.1803  0.1345 -0.1755
  132OSM    H9F14221   4.366   5.694   3.564 -1.0333 -0.8171 -1.3119
  132OSM   C10F14222   4.480   5.593   3.711  0.2300  0.0922  0.4633
  132OSM   H10F14223   4.522   5.687   3.751  1.7523  0.0516 -0.9237
  132OSM   C11F14224   4.522   5.468   3.786 -0.0597  0.2844  0.3902
  132OSM   H11F14225   4.631   5.449   3.796 -0.3205 -0.2599  2.5539
  132OSM   H11G14226   4.493   5.379   3.726  1.0770  0.6732 -0.7939
  132OSM   C12F14227   4.461   5.457   3.926  0.0665  0.4598  0.0945
  132OSM   H12F14228   4.489   5.548   3.982  2.4410 -0.1247 -0.0502
  132OSM   H12G14229   4.503   5.364   3.971 -1.7477 -0.0822  0.7693
  132OSM   C13F14230   4.310   5.445   3.945  0.1959  0.2247  0.4462
  132OSM   H13F14231   4.283   5.360   3.878  0.8661 -1.9476  2.7752
  132OSM   H13G14232   4.253   5.532   3.905  0.8763  0.6320  0.3569
  132OSM   C14F14233   4.273   5.394   4.089  0.1820  0.2625  0.6391
  132OSM   H14F14234   4.331   5.301   4.112  0.4234 -0.4546 -2.4749
  132OSM   H14G14235   4.167   5.362   4.094 -0.7940  3.4090  2.0737
  132OSM   C15F14236   4.294   5.503   4.191 -0.2212 -0.2831  0.6829
  132OSM   H15F14237   4.266   5.599   4.143 -0.6452 -1.5726 -1.8019
  132OSM   H15G14238   4.401   5.516   4.219 -0.8880  1.8423  2.5674
  132OSM   C16F14239   4.212   5.479   4.308  0.4897 -0.1035 -0.3447
  132OSM   H16F14240   4.107   5.467   4.275  0.0867 -0.5254  1.0426
  132OSM   H16G14241   4.217   5.566   4.376  1.1937 -0.7325  0.4386
  132OSM   C17F14242   4.249   5.352   4.383 -0.5224  0.3498 -0.1428
  132OSM   H17F14243   4.234   5.261   4.322  1.7283  1.0889 -1.9055
  132OSM   H17G14244   4.165   5.346   4.455 -1.3693 -2.2591 -1.2401
  132OSM   C18F14245   4.385   5.358   4.452 -0.5329 -0.5885 -0.1502
  132OSM   H18F14246   4.463   5.368   4.373  0.9277  0.4937  1.3483
  132OSM   H18G14247   4.415   5.271   4.514  1.5131 -0.1076 -0.3662
  132OSM   H18H14248   4.398   5.448   4.516  0.1221 -1.7492  1.4185
  133OSM      N14249   1.542   0.160   1.725  0.4593  0.7558  0.3517
  133OSM    C1514250   1.535   0.266   1.831 -0.3369  0.0367  0.2242
  133OSM   H15A14251   1.557   0.362   1.786 -1.7898  0.6961  0.8296
  133OSM   H15B14252   1.606   0.231   1.904 -0.0112  0.6772  0.2201
  133OSM   H15C14253   1.435   0.266   1.873 -0.7852 -0.2723 -0.8083
  133OSM    C1414254   1.465   0.199   1.598  1.0577 -0.0983  0.6877
  133OSM   H14A14255   1.468   0.122   1.522 -1.5980  0.5338 -0.1745
  133OSM   H14B14256   1.500   0.292   1.557  1.1285 -1.2001 -1.9905
  133OSM   H14C14257   1.365   0.210   1.639  0.5562 -0.8467 -0.2830
  133OSM    C1314258   1.679   0.140   1.688 -0.6437  0.2680  0.2263
  133OSM   H13A14259   1.709   0.231   1.639 -0.7907  0.6017  0.7506
  133OSM   H13B14260   1.684   0.058   1.618 -1.2703  0.3673  0.0595
  133OSM   H13C14261   1.743   0.113   1.770  1.7274 -2.5011 -2.2787
  133OSM    C1214262   1.474   0.032   1.784  0.6544  0.4028 -0.2906
  133OSM   H12A14263   1.437  -0.040   1.713 -0.6080  0.8544 -0.1292
  133OSM   H12B14264   1.377   0.059   1.824  1.0623  2.3845 -0.5517
  133OSM    C1114265   1.556  -0.047   1.894  0.7851  0.1386  0.3203
  133OSM   H11A14266   1.650  -0.077   1.843  0.5555 -0.4422  0.2267
  133OSM   H11B14267   1.509  -0.146   1.914  2.4327 -0.8099 -0.3265
  133OSM      P14268   1.662  -0.036   2.129  0.3558 -0.3201 -0.5175
  133OSM    O1314269   1.585  -0.161   2.162  0.5274 -0.7250 -0.4941
  133OSM    O1414270   1.807  -0.040   2.093  0.6778 -0.4097 -0.2868
  133OSM    O1114271   1.648   0.065   2.245  0.6345 -0.0003 -0.4289
  133OSM    O1214272   1.580   0.035   2.013 -0.0305 -0.0794 -0.6823
  133OSM    C1S14273   1.554   0.053   2.352 -0.2806 -0.3057  0.0928
  133OSM    H1S14274   1.583  -0.027   2.423  0.4174 -0.9084 -0.8501
  133OSM    H1T14275   1.453   0.031   2.311  1.0975 -1.6569 -2.8747
  133OSM     NF14276   1.471   0.140   2.563  0.2814  0.3377 -0.1674
  133OSM    HNF14277   1.375   0.169   2.562  0.3104  0.4373 -0.9896
  133OSM    C2S14278   1.541   0.179   2.442  0.0826  0.4882 -0.8042
  133OSM    H2S14279   1.644   0.203   2.477  0.6371 -3.4182  0.6958
  133OSM    C3S14280   1.488   0.294   2.360  0.0420  0.1410  0.4929
  133OSM    H3S14281   1.395   0.262   2.307 -1.2688  0.6818  2.3724
  133OSM     O314282   1.584   0.330   2.260  0.0037  0.3084 -0.1576
  133OSM    HO314283   1.622   0.245   2.235  0.2290  0.1210  0.7816
  133OSM    C4S14284   1.469   0.420   2.441 -0.5172 -0.2041 -0.6497
  133OSM    H4S14285   1.561   0.475   2.463 -0.4266 -0.2128 -0.9953
  133OSM    C5S14286   1.354   0.466   2.490  0.3707  0.1502  0.1552
  133OSM    H5S14287   1.270   0.398   2.471  2.7298 -1.8134 -4.7247
  133OSM    C6S14288   1.329   0.580   2.586 -0.7933  0.2582  0.0975
  133OSM    H6S14289   1.279   0.658   2.523 -1.9759 -0.0380  0.6555
  133OSM    H6T14290   1.426   0.625   2.619  0.8507 -2.7818 -0.2635
  133OSM    C7S14291   1.236   0.544   2.703  0.2498 -0.2518 -0.0997
  133OSM    H7S14292   1.136   0.516   2.665  0.2072 -2.4533  1.4247
  133OSM    H7T14293   1.225   0.640   2.758  2.0845 -0.6830  1.1401
  133OSM    C8S14294   1.277   0.435   2.807 -0.1335 -0.2920  0.1834
  133OSM    H8S14295   1.384   0.443   2.833 -0.3183 -1.0228  1.2156
  133OSM    H8T14296   1.247   0.341   2.756  0.2751 -1.1137  1.4293
  133OSM    C9S14297   1.206   0.442   2.939  0.0427 -0.4249 -0.3958
  133OSM    H9S14298   1.102   0.471   2.916 -0.3711 -1.7704 -0.2897
  133OSM    H9T14299   1.259   0.525   2.989  2.3283  0.5216 -4.0083
  133OSM   C10S14300   1.219   0.310   3.018 -0.3932 -0.5874  0.5832
  133OSM   H10S14301   1.329   0.294   3.013 -0.0469  1.6653 -0.0631
  133OSM   H10T14302   1.181   0.224   2.960  0.7448 -1.9248  1.7288
  133OSM   C11S14303   1.170   0.317   3.160 -0.3077 -0.5592  0.1947
  133OSM   H11S14304   1.060   0.302   3.155 -0.1183 -1.9485 -0.3461
  133OSM   H11T14305   1.175   0.423   3.190  0.5681 -0.6041  0.2153
  133OSM   C12S14306   1.240   0.212   3.244  0.3205 -0.6319  0.6496
  133OSM   H12S14307   1.351   0.210   3.236  0.4885  1.5872  1.7567
  133OSM   H12T14308   1.191   0.116   3.217 -2.0962 -0.5077  3.9337
  133OSM   C13S14309   1.201   0.214   3.390 -0.0293  0.0426 -0.1519
  133OSM   H13S14310   1.090   0.210   3.400  0.0410 -0.5889  0.4334
  133OSM   H13T14311   1.231   0.311   3.435 -0.9923  0.6815 -0.8205
  133OSM   C14S14312   1.242   0.097   3.485 -0.3326 -0.2992  0.2039
  133OSM   H14S14313   1.345   0.063   3.460 -0.6978 -0.3459 -1.4026
  133OSM   H14T14314   1.176   0.010   3.461 -1.1951  0.7447 -1.4500
  133OSM   C15S14315   1.244   0.134   3.633  0.3640 -0.0572  0.2740
  133OSM   H15S14316   1.231   0.035   3.682 -0.8651 -0.4395 -0.7419
  133OSM   H15T14317   1.150   0.188   3.657  0.8856  0.8833  0.2359
  133OSM   C16S14318   1.365   0.208   3.691 -0.0833  0.3399 -0.0359
  133OSM   H16S14319   1.376   0.313   3.659  0.2019  0.3205 -0.0027
  133OSM   H16T14320   1.458   0.156   3.661  0.6367  1.5550  0.0267
  133OSM   C17S14321   1.369   0.205   3.846  0.2238  0.6088 -0.3546
  133OSM   H17S14322   1.272   0.242   3.885 -0.6993 -1.8717 -0.1339
  133OSM   H17T14323   1.447   0.277   3.877 -0.6889  0.1794  3.3217
  133OSM   C18S14324   1.399   0.067   3.914 -0.0153 -0.0348  0.2955
  133OSM   H18S14325   1.341  -0.018   3.873  0.2802 -0.4534  0.7411
  133OSM   H18T14326   1.396   0.067   4.025  1.7010 -0.1854  0.3617
  133OSM   H18U14327   1.500   0.046   3.874 -0.6210  0.8158 -1.8777
  133OSM    C1F14328   1.521   0.053   2.659  0.3376  0.3595  0.3977
  133OSM     OF14329   1.636   0.021   2.658  0.1541  0.1482  0.0601
  133OSM    C2F14330   1.420  -0.002   2.759 -0.6026  0.2499  0.5460
  133OSM    H2F14331   1.390  -0.100   2.717  1.8574  0.3550 -1.7850
  133OSM    H2G14332   1.329   0.061   2.764  0.4314  1.7686  1.1923
  133OSM    C3F14333   1.485  -0.014   2.893  0.2252 -0.0329 -0.1884
  133OSM    H3F14334   1.479   0.085   2.942 -1.1954  0.4804 -1.3244
  133OSM    H3G14335   1.585  -0.063   2.889  0.1307 -0.4663  1.6711
  133OSM    C4F14336   1.399  -0.113   2.978 -0.0136 -0.7767 -0.6681
  133OSM    H4F14337   1.365  -0.203   2.923  0.2169 -0.9783 -0.4839
  133OSM    H4G14338   1.305  -0.060   3.004 -0.3329  0.5775 -4.0020
  133OSM    C5F14339   1.467  -0.138   3.109 -0.5002 -0.1327  0.1957
  133OSM    H5F14340   1.494  -0.038   3.149  1.7766  0.6464 -2.8780
  133OSM    H5G14341   1.567  -0.183   3.095  0.6345  2.0143  0.8502
  133OSM    C6F14342   1.378  -0.224   3.205 -0.2346 -0.2283 -0.1211
  133OSM    H6F14343   1.361  -0.314   3.141  0.1723 -0.1891 -0.2856
  133OSM    H6G14344   1.281  -0.169   3.209 -0.1988 -0.1796  0.0655
  133OSM    C7F14345   1.438  -0.231   3.345  0.4591  0.1350  0.0873
  133OSM    H7F14346   1.418  -0.132   3.392 -0.2609  0.2760 -0.4988
  133OSM    H7G14347   1.549  -0.234   3.345  0.4566 -1.4875  1.1719
  133OSM    C8F14348   1.368  -0.333   3.436 -0.4359 -0.2637 -0.6987
  133OSM    H8F14349   1.268  -0.297   3.468  0.0219  3.4217 -2.8779
  133OSM    H8G14350   1.441  -0.342   3.519 -1.2566 -2.3175 -0.1224
  133OSM    C9F14351   1.350  -0.467   3.376  0.2277 -0.0266  0.3870
  133OSM    H9F14352   1.437  -0.505   3.321 -0.8375  0.9891 -2.1293
  133OSM   C10F14353   1.233  -0.544   3.379 -0.4993 -0.4070 -0.1522
  133OSM   H10F14354   1.230  -0.643   3.331  1.4279 -0.4165 -0.3170
  133OSM   C11F14355   1.114  -0.502   3.457 -0.0215 -0.0534 -0.7103
  133OSM   H11F14356   1.027  -0.568   3.439 -0.3562  0.2687 -0.3149
  133OSM   H11G14357   1.074  -0.402   3.427 -1.4803 -1.4105 -3.6843
  133OSM   C12F14358   1.122  -0.509   3.616  0.6319 -0.6111  0.1382
  133OSM   H12F14359   1.019  -0.504   3.657  0.5632 -0.8630 -0.0031
  133OSM   H12G14360   1.184  -0.425   3.654  2.9557 -1.3638 -1.7521
  133OSM   C13F14361   1.185  -0.644   3.669 -0.1526 -0.4225 -0.2471
  133OSM   H13F14362   1.294  -0.642   3.647 -0.4013 -2.4501 -2.0166
  133OSM   H13G14363   1.146  -0.738   3.625 -1.7957 -1.5325  3.1914
  133OSM   C14F14364   1.172  -0.667   3.821  0.7236  0.1248  0.2388
  133OSM   H14F14365   1.069  -0.635   3.849  0.9387  0.6033  0.5053
  133OSM   H14G14366   1.234  -0.598   3.882 -1.9511  1.7903  1.2806
  133OSM   C15F14367   1.188  -0.812   3.866 -0.7820 -0.0457 -0.0648
  133OSM   H15F14368   1.114  -0.877   3.814  1.6092 -1.6120 -1.7283
  133OSM   H15G14369   1.172  -0.817   3.976  1.2042 -0.1420  0.2616
  133OSM   C16F14370   1.329  -0.863   3.833  0.0996 -0.2797  0.1383
  133OSM   H16F14371   1.363  -0.826   3.734  0.9561  0.5448  0.7216
  133OSM   H16G14372   1.332  -0.974   3.832  2.1017 -0.2801  1.0430
  133OSM   C17F14373   1.440  -0.843   3.941  0.0840 -0.1308  0.4029
  133OSM   H17F14374   1.399  -0.879   4.038  0.5741 -1.7320  0.0416
  133OSM   H17G14375   1.446  -0.733   3.955  0.0146  0.0535 -0.8719
  133OSM   C18F14376   1.576  -0.909   3.925  0.1761 -0.1856  0.1966
  133OSM   H18F14377   1.612  -0.877   3.825  0.4308  1.3861  0.7662
  133OSM   H18G14378   1.552  -1.017   3.921 -1.2223  0.0169  2.0090
  133OSM   H18H14379   1.646  -0.889   4.009  2.0296  0.5318 -1.4298
  134OSM      N14380   0.926   2.793   1.785  0.1333  0.0401  0.2261
  134OSM    C1514381   0.960   2.939   1.778  0.1374 -0.1266 -0.1068
  134OSM   H15A14382   1.031   2.963   1.856  1.1390 -0.7094 -0.8210
  134OSM   H15B14383   0.871   3.000   1.781 -1.3882 -2.0456 -2.3913
  134OSM   H15C14384   1.020   2.950   1.689  0.9042  1.1786  0.5487
  134OSM    C1414385   0.831   2.778   1.667  0.5622  0.6667 -0.5024
  134OSM   H14A14386   0.733   2.823   1.674  0.0296 -0.6170  0.6862
  134OSM   H14B14387   0.809   2.674   1.645  1.9953  0.4469 -0.9849
  134OSM   H14C14388   0.864   2.829   1.578  0.6577  1.4880 -0.0059
  134OSM    C1314389   1.042   2.698   1.764 -0.0691 -0.5076  0.2461
  134OSM   H13A14390   1.118   2.695   1.841  0.5779 -1.0477 -0.4033
  134OSM   H13B14391   1.089   2.706   1.667 -3.0756  0.4820 -1.2644
  134OSM   H13C14392   0.998   2.600   1.766 -3.9771  1.0852  1.6059
  134OSM    C1214393   0.874   2.759   1.926  0.2520 -0.0038  0.0793
  134OSM   H12A14394   0.801   2.835   1.948 -0.3327 -0.0982 -1.3937
  134OSM   H12B14395   0.960   2.760   1.992  0.2828 -1.2369  0.0855
  134OSM    C1114396   0.790   2.626   1.928 -1.0388 -0.0037  0.2556
  134OSM   H11A14397   0.707   2.614   1.856 -1.4575 -0.0462  0.7438
  134OSM   H11B14398   0.739   2.628   2.027  0.4369 -3.7129  1.2447
  134OSM      P14399   0.944   2.430   2.020 -0.2470 -0.2418 -0.1583
  134OSM    O1314400   0.947   2.291   1.964  0.0972 -0.3047 -0.8952
  134OSM    O1414401   1.080   2.489   2.051 -0.0697 -0.2852 -0.3650
  134OSM    O1114402   0.863   2.432   2.153 -0.1818 -0.2265  0.4499
  134OSM    O1214403   0.866   2.515   1.919 -0.1041  0.3684  0.6492
  134OSM    C1S14404   0.904   2.350   2.262 -0.0211 -0.0363  0.0714
  134OSM    H1S14405   1.006   2.371   2.300 -0.1948 -1.8988  1.7205
  134OSM    H1T14406   0.895   2.243   2.231 -0.7853  0.5006 -1.7175
  134OSM     NF14407   0.872   2.293   2.505  0.4174 -0.6749  0.0529
  134OSM    HNF14408   0.833   2.205   2.532  0.9699 -0.3901  1.9199
  134OSM    C2S14409   0.809   2.361   2.392 -0.0710 -0.0788  0.7212
  134OSM    H2S14410   0.812   2.469   2.417 -0.5297  0.3238 -0.8154
  134OSM    C3S14411   0.656   2.319   2.360 -0.7312  0.0238  0.1794
  134OSM    H3S14412   0.661   2.210   2.340 -0.7657  0.4573 -2.5362
  134OSM     O314413   0.615   2.393   2.245 -0.2879  0.0173  0.1764
  134OSM    HO314414   0.699   2.422   2.208  0.1146  0.6319  1.4817
  134OSM    C4S14415   0.565   2.354   2.472  0.2871  0.5060  0.8015
  134OSM    H4S14416   0.520   2.454   2.469 -0.7722  0.0409 -2.2740
  134OSM    C5S14417   0.518   2.272   2.565 -0.2470 -0.2746  0.1559
  134OSM    H5S14418   0.562   2.172   2.568 -0.0822 -0.1919  2.6606
  134OSM    C6S14419   0.421   2.302   2.682 -0.5158  0.0961  0.8851
  134OSM    H6S14420   0.341   2.226   2.683  0.0166 -0.4744  0.5053
  134OSM    H6T14421   0.368   2.395   2.652 -1.7987 -0.8351  0.1588
  134OSM    C7S14422   0.501   2.311   2.806 -0.4336  0.4277 -0.1752
  134OSM    H7S14423   0.579   2.390   2.805 -0.4876  0.4829 -2.1105
  134OSM    H7T14424   0.555   2.216   2.826 -1.3392  0.2106  1.4634
  134OSM    C8S14425   0.414   2.349   2.928 -0.2156  0.0091 -1.0318
  134OSM    H8S14426   0.326   2.282   2.940 -2.2960  2.9552  1.9558
  134OSM    H8T14427   0.377   2.453   2.919 -1.2916 -0.2992 -0.3470
  134OSM    C9S14428   0.488   2.337   3.062 -0.4428 -0.1044  0.2537
  134OSM    H9S14429   0.583   2.394   3.052  0.2641 -1.4179 -0.8437
  134OSM    H9T14430   0.520   2.236   3.093 -0.1705  0.2146  1.0441
  134OSM   C10S14431   0.392   2.377   3.172 -0.2196  0.9562 -0.4191
  134OSM   H10S14432   0.307   2.306   3.167 -0.3376  1.1369 -1.1217
  134OSM   H10T14433   0.335   2.469   3.148  1.7483  1.1610 -5.6313
  134OSM   C11S14434   0.467   2.381   3.309  0.1225  0.5138  0.2657
  134OSM   H11S14435   0.537   2.467   3.322 -0.1491  0.5930  1.2928
  134OSM   H11T14436   0.517   2.283   3.321  2.0290  0.9425 -2.9117
  134OSM   C12S14437   0.378   2.389   3.433  0.4123 -0.2294 -0.8124
  134OSM   H12S14438   0.333   2.289   3.450 -0.6375  0.5061  0.9846
  134OSM   H12T14439   0.291   2.458   3.430  0.9130  0.4502 -0.0432
  134OSM   C13S14440   0.451   2.415   3.559  0.3034 -0.6684 -0.6710
  134OSM   H13S14441   0.520   2.502   3.560 -0.1878 -0.2676 -0.9495
  134OSM   H13T14442   0.513   2.325   3.580 -1.6303 -1.3977  2.6654
  134OSM   C14S14443   0.360   2.415   3.687 -0.4405  0.4166  0.2382
  134OSM   H14S14444   0.274   2.346   3.674 -0.8578  0.5173  2.1574
  134OSM   H14T14445   0.321   2.519   3.699 -1.6069 -0.0963  1.0903
  134OSM   C15S14446   0.436   2.363   3.814 -0.3562  0.4380 -0.1833
  134OSM   H15S14447   0.539   2.404   3.823 -0.1507  1.0403 -3.7774
  134OSM   H15T14448   0.455   2.254   3.802  1.1648  0.5125  1.2431
  134OSM   C16S14449   0.354   2.379   3.941 -0.3513 -0.3138  0.2213
  134OSM   H16S14450   0.255   2.330   3.933 -0.2084 -0.7017  0.8067
  134OSM   H16T14451   0.340   2.487   3.965 -0.2965 -0.6173  1.6776
  134OSM   C17S14452   0.430   2.312   4.056 -0.5209  0.7866  1.0476
  134OSM   H17S14453   0.402   2.351   4.156  0.7385  1.8702  1.0001
  134OSM   H17T14454   0.538   2.327   4.038  0.0176  0.1246  3.3795
  134OSM   C18S14455   0.398   2.161   4.055 -0.7936  0.3913 -0.2196
  134OSM   H18S14456   0.288   2.142   4.054 -0.4863 -1.6048  0.6411
  134OSM   H18T14457   0.441   2.099   4.136 -3.1014  1.6181  2.1003
  134OSM   H18U14458   0.433   2.113   3.961 -0.2047  1.3061 -0.4845
  134OSM    C1F14459   0.975   2.339   2.570  1.1138 -0.0317 -0.2534
  134OSM     OF14460   1.026   2.444   2.537 -0.2076  0.6479  0.0774
  134OSM    C2F14461   1.011   2.257   2.694 -0.1569  0.5556  0.4982
  134OSM    H2F14462   1.118   2.264   2.724 -0.6100  1.5116  1.9820
  134OSM    H2G14463   0.989   2.150   2.672  3.5426  0.1894 -2.3215
  134OSM    C3F14464   0.940   2.307   2.819 -0.9447 -0.0607  0.3558
  134OSM    H3F14465   0.832   2.287   2.804 -0.5963 -2.4460  0.7115
  134OSM    H3G14466   0.943   2.418   2.822  1.8648 -0.0805  1.5422
  134OSM    C4F14467   0.977   2.247   2.950 -0.0774  0.0831  0.3574
  134OSM    H4F14468   1.078   2.281   2.981  0.3824 -0.9447  0.0195
  134OSM    H4G14469   0.971   2.137   2.960 -0.2210  0.1560  1.1431
  134OSM    C5F14470   0.884   2.288   3.064 -1.0355 -0.1235  0.2112
  134OSM    H5F14471   0.791   2.234   3.035 -0.4490 -1.2846  0.4232
  134OSM    H5G14472   0.879   2.399   3.064  1.8448  0.1847 -3.3778
  134OSM    C6F14473   0.933   2.255   3.202 -0.1142 -0.4746  0.4273
  134OSM    H6F14474   1.029   2.304   3.228 -0.3888  0.4601 -0.2662
  134OSM    H6G14475   0.958   2.147   3.209  1.8440 -0.2766 -1.9359
  134OSM    C7F14476   0.846   2.288   3.322  0.5842  0.7352 -0.1013
  134OSM    H7F14477   0.770   2.208   3.334 -0.5182  1.3268 -2.4892
  134OSM    H7G14478   0.787   2.377   3.290 -0.7720 -0.2323 -0.3831
  134OSM    C8F14479   0.931   2.304   3.451 -0.3358  0.2120 -0.4583
  134OSM    H8F14480   1.010   2.377   3.425 -2.5149  1.8689 -3.0066
  134OSM    H8G14481   0.985   2.211   3.479  2.6823  2.3818  1.5962
  134OSM    C9F14482   0.838   2.359   3.561 -0.3916 -0.5138 -0.4874
  134OSM    H9F14483   0.760   2.425   3.518 -1.1889 -2.7643 -2.7493
  134OSM   C10F14484   0.863   2.341   3.687  0.1850  0.0168 -0.2949
  134OSM   H10F14485   0.792   2.386   3.759 -0.9873 -1.8358 -0.2263
  134OSM   C11F14486   0.988   2.276   3.743  0.5446 -0.1912  0.2582
  134OSM   H11F14487   1.066   2.341   3.789 -0.5205  0.3993  1.2973
  134OSM   H11G14488   1.051   2.231   3.664  0.5575  3.7443 -2.2962
  134OSM   C12F14489   0.937   2.164   3.844 -0.6050  0.3711  0.3147
  134OSM   H12F14490   1.026   2.099   3.859 -0.7593  0.0634 -0.0920
  134OSM   H12G14491   0.863   2.098   3.795 -2.5806  1.8128  1.2350
  134OSM   C13F14492   0.880   2.208   3.974 -0.0317 -0.0591  0.5337
  134OSM   H13F14493   0.868   2.114   4.032 -0.6503  0.5419  1.4193
  134OSM   H13G14494   0.782   2.259   3.958 -0.2980 -0.7255 -0.0087
  134OSM   C14F14495   0.978   2.307   4.045 -1.2009  0.0905 -0.3587
  134OSM   H14F14496   0.927   2.345   4.136  1.0622  0.2407  0.9170
  134OSM   H14G14497   0.988   2.397   3.982  0.4995  0.5587  0.5116
  134OSM   C15F14498   1.125   2.255   4.075 -0.0828  0.2232  0.5705
  134OSM   H15F14499   1.174   2.218   3.983 -0.7469  1.7308 -0.4124
  134OSM   H15G14500   1.123   2.165   4.141  0.5995 -0.6978 -0.6392
  134OSM   C16F14501   1.225   2.367   4.118  0.5542 -0.1503  0.3207
  134OSM   H16F14502   1.256   2.437   4.038 -1.1199 -1.3693 -1.4987
  134OSM   H16G14503   1.322   2.312   4.122  1.0448  0.1546 -3.3974
  134OSM   C17F14504   1.194   2.446   4.251  0.4338 -0.1888  0.7043
  134OSM   H17F14505   1.158   2.372   4.326 -0.0505 -0.1578  0.5067
  134OSM   H17G14506   1.108   2.513   4.232 -2.0510 -3.1938  0.5894
  134OSM   C18F14507   1.312   2.523   4.315 -0.2537  0.4918  0.0738
  134OSM   H18F14508   1.399   2.455   4.328 -1.1463 -0.8444 -0.6331
  134OSM   H18G14509   1.278   2.552   4.417 -0.7466 -0.2103  0.1183
  134OSM   H18H14510   1.352   2.605   4.253  1.9132  0.0849  0.8639
  135OSM      N14511   3.487   6.634   2.030 -0.4727  0.3584  0.3397
  135OSM    C1514512   3.503   6.562   2.155  0.1964  0.5843 -0.0894
  135OSM   H15A14513   3.607   6.536   2.168 -0.2365 -1.2546 -0.0021
  135OSM   H15B14514   3.440   6.475   2.156  0.3478  0.4679  0.7827
  135OSM   H15C14515   3.476   6.628   2.236 -0.8511  0.0115  0.0383
  135OSM    C1414516   3.523   6.533   1.923 -1.0779  0.1205  0.1321
  135OSM   H14A14517   3.526   6.582   1.827 -0.2745  1.3345  0.7479
  135OSM   H14B14518   3.460   6.445   1.918  0.7556 -1.3962  1.8056
  135OSM   H14C14519   3.623   6.495   1.935 -0.6510  0.3174 -2.2595
  135OSM    C1314520   3.346   6.659   2.011 -0.4427 -0.1620 -0.2348
  135OSM   H13A14521   3.309   6.707   1.922 -0.5352  1.2688  0.5362
  135OSM   H13B14522   3.300   6.717   2.091 -1.5281 -0.8058 -0.3716
  135OSM   H13C14523   3.285   6.570   2.004 -2.6443  1.3846 -4.2659
  135OSM    C1214524   3.558   6.758   2.019 -0.5769  0.0735 -0.4696
  135OSM   H12A14525   3.521   6.807   1.929  1.3459  0.6376 -0.9984
  135OSM   H12B14526   3.664   6.748   2.003  0.1348  4.0612  0.6483
  135OSM    C1114527   3.546   6.860   2.133  0.6363  0.5453 -0.4878
  135OSM   H11A14528   3.438   6.872   2.159  0.6389 -0.5553  0.0889
  135OSM   H11B14529   3.580   6.960   2.099  2.6693  0.8638  2.1401
  135OSM      P14530   3.783   6.830   2.232 -0.1495 -0.1661  0.0282
  135OSM    O1314531   3.827   6.717   2.141  0.4844 -0.1658 -0.0296
  135OSM    O1414532   3.829   6.971   2.208 -0.1205  0.4750  0.0078
  135OSM    O1114533   3.829   6.787   2.378  0.1110  0.6488  0.4287
  135OSM    O1214534   3.622   6.815   2.247  0.5105 -0.4489 -0.0647
  135OSM    C1S14535   3.774   6.861   2.488  0.1871  0.4060 -0.4381
  135OSM    H1S14536   3.664   6.847   2.504  0.3283  2.3384  3.2873
  135OSM    H1T14537   3.785   6.971   2.482 -0.4345  0.6375  1.6847
  135OSM     NF14538   3.768   6.874   2.730  0.6510  0.1333  0.2139
  135OSM    HNF14539   3.803   6.962   2.761  1.6092  0.0648 -0.6302
  135OSM    C2S14540   3.843   6.822   2.618  0.6299 -0.2530  0.1378
  135OSM    H2S14541   3.841   6.712   2.633  0.7435 -0.2131  0.4383
  135OSM    C3S14542   4.001   6.854   2.613  0.3207  0.0776  0.7772
  135OSM    H3S14543   4.005   6.965   2.609 -0.5380  0.0799 -0.6596
  135OSM     O314544   4.066   6.795   2.503 -0.4437 -0.0083  0.2395
  135OSM    HO314545   3.990   6.759   2.456 -1.0374 -0.4179  1.4695
  135OSM    C4S14546   4.055   6.802   2.741 -0.2980 -0.0151 -0.6846
  135OSM    H4S14547   4.017   6.702   2.767  0.0374  0.2446  0.9564
  135OSM    C5S14548   4.110   6.885   2.838 -1.2432  0.0307  0.4724
  135OSM    H5S14549   4.112   6.995   2.835 -2.9356  0.1665  2.2551
  135OSM    C6S14550   4.159   6.852   2.977  0.0808  0.4949 -0.4449
  135OSM    H6S14551   4.231   6.927   3.014  0.4586 -0.4714  0.8547
  135OSM    H6T14552   4.215   6.756   2.974 -0.3861  0.2252 -0.6702
  135OSM    C7S14553   4.048   6.839   3.094 -0.9005 -0.6502  1.0465
  135OSM    H7S14554   3.974   6.774   3.044  0.4711 -0.6353 -1.1502
  135OSM    H7T14555   3.995   6.934   3.117 -2.8216 -1.8358  1.6816
  135OSM    C8S14556   4.100   6.771   3.215 -0.4478  0.6577  0.3781
  135OSM    H8S14557   4.140   6.676   3.174  0.0712  0.6899  0.7933
  135OSM    H8T14558   4.017   6.735   3.278 -0.4034  1.5413  0.9650
  135OSM    C9S14559   4.196   6.855   3.298 -0.4187  0.5251  0.6493
  135OSM    H9S14560   4.280   6.874   3.228 -0.9599 -1.1893 -0.5510
  135OSM    H9T14561   4.221   6.791   3.386  3.1407  0.8606  0.0045
  135OSM   C10S14562   4.137   6.988   3.345  0.0893 -0.5998 -0.1434
  135OSM   H10S14563   4.037   6.966   3.388 -0.9269  2.5542 -0.6302
  135OSM   H10T14564   4.112   7.054   3.259 -0.2429  1.1890  1.2560
  135OSM   C11S14565   4.226   7.054   3.456  0.4782  0.4711  0.2414
  135OSM   H11S14566   4.181   7.154   3.476  0.3531  0.1901  1.4378
  135OSM   H11T14567   4.330   7.073   3.422  0.3898  0.2725 -0.1539
  135OSM   C12S14568   4.226   6.981   3.594  0.4601  0.6019 -0.0446
  135OSM   H12S14569   4.287   7.040   3.665 -1.3274  0.7368  1.4478
  135OSM   H12T14570   4.272   6.882   3.574 -1.4324  0.0117 -1.9361
  135OSM   C13S14571   4.087   6.950   3.657  0.7427 -0.0556 -0.0640
  135OSM   H13S14572   4.027   6.891   3.586  1.5733 -2.4086  1.0832
  135OSM   H13T14573   4.038   7.049   3.673  0.9531  0.2567 -1.3049
  135OSM   C14S14574   4.102   6.875   3.787  0.0593 -0.2877 -0.2505
  135OSM   H14S14575   4.202   6.827   3.790 -0.3527 -1.1530 -0.0255
  135OSM   H14T14576   4.023   6.797   3.793 -1.9130  1.5410 -1.0602
  135OSM   C15S14577   4.087   6.954   3.916  0.1321  0.0331 -0.0310
  135OSM   H15S14578   4.148   7.045   3.900  0.0455  0.0014 -0.5632
  135OSM   H15T14579   4.134   6.904   4.003 -0.7314  0.5227  0.7364
  135OSM   C16S14580   3.946   7.009   3.947 -0.3373 -0.3727 -0.3663
  135OSM   H16S14581   3.862   6.940   3.969 -1.2895  0.8427 -0.0544
  135OSM   H16T14582   3.906   7.052   3.853  2.2569 -2.1733 -2.4571
  135OSM   C17S14583   3.943   7.126   4.040  0.2746  0.0490 -0.3352
  135OSM   H17S14584   4.046   7.155   4.067  0.6009 -1.3316 -0.0403
  135OSM   H17T14585   3.899   7.086   4.134 -0.4923  0.1337 -0.6520
  135OSM   C18S14586   3.852   7.238   3.987 -0.2462  0.0859 -0.1496
  135OSM   H18S14587   3.855   7.318   4.064 -1.2337 -1.5760  1.7139
  135OSM   H18T14588   3.748   7.197   3.981  0.1354 -0.8325 -0.9037
  135OSM   H18U14589   3.870   7.293   3.892  0.6983  1.2375  0.6693
  135OSM    C1F14590   3.650   6.834   2.771  0.2359 -0.2951  0.6467
  135OSM     OF14591   3.599   6.744   2.712 -0.2257  0.3942  0.7050
  135OSM    C2F14592   3.598   6.905   2.891 -0.9619  0.3880  0.3740
  135OSM    H2F14593   3.510   6.854   2.937 -1.6083  1.4077  0.3135
  135OSM    H2G14594   3.561   7.008   2.868  0.0159  0.1801 -2.5036
  135OSM    C3F14595   3.705   6.915   3.006  0.4063 -0.2043 -0.1140
  135OSM    H3F14596   3.799   6.966   2.976  0.0411 -0.1841 -1.2665
  135OSM    H3G14597   3.717   6.808   3.034  1.2086  0.6709  3.3429
  135OSM    C4F14598   3.644   6.977   3.130 -0.2906  0.3521  0.0124
  135OSM    H4F14599   3.541   6.944   3.152  0.4488 -0.6344  2.3790
  135OSM    H4G14600   3.630   7.086   3.117 -1.3147 -0.0412 -2.7052
  135OSM    C5F14601   3.732   6.950   3.254  0.3128 -0.4433  0.0146
  135OSM    H5F14602   3.827   7.004   3.238 -0.3536  0.5700 -0.6683
  135OSM    H5G14603   3.744   6.839   3.256 -0.6667 -0.5607  0.1114
  135OSM    C6F14604   3.664   7.011   3.370 -0.4756  0.5075  0.1877
  135OSM    H6F14605   3.565   6.966   3.389  0.1764 -1.8181 -1.4924
  135OSM    H6G14606   3.650   7.119   3.350 -2.4773  0.1700 -0.3909
  135OSM    C7F14607   3.767   6.992   3.483  0.2995 -0.0236  0.0396
  135OSM    H7F14608   3.854   7.060   3.478 -0.0087  0.5042  1.2474
  135OSM    H7G14609   3.807   6.888   3.478  0.0449 -0.1791  0.9771
  135OSM    C8F14610   3.694   7.035   3.618 -0.8450  0.3894 -0.2100
  135OSM    H8F14611   3.764   7.015   3.702 -1.5649  0.4078  0.4011
  135OSM    H8G14612   3.609   6.965   3.633  0.4254 -1.2689 -0.5015
  135OSM    C9F14613   3.657   7.181   3.609 -0.1139 -0.4356 -0.5008
  135OSM    H9F14614   3.738   7.255   3.600 -0.7275  0.3901  0.5553
  135OSM   C10F14615   3.534   7.238   3.640  0.2655 -0.0629 -0.8146
  135OSM   H10F14616   3.512   7.345   3.628 -0.7315 -0.0613  0.7660
  135OSM   C11F14617   3.417   7.150   3.675 -0.4471 -0.5214 -0.1245
  135OSM   H11F14618   3.399   7.064   3.608 -1.0475 -1.5644  1.3118
  135OSM   H11G14619   3.325   7.213   3.680  0.5039  0.9088 -0.0466
  135OSM   C12F14620   3.411   7.102   3.826 -0.2162 -0.2600 -0.1379
  135OSM   H12F14621   3.387   7.195   3.883  1.8017  1.5654 -2.0355
  135OSM   H12G14622   3.511   7.062   3.855  0.3045  1.6180  0.9045
  135OSM   C13F14623   3.302   6.990   3.845 -0.2424 -0.7045  0.1156
  135OSM   H13F14624   3.345   6.906   3.787  0.2581  1.1325 -2.3009
  135OSM   H13G14625   3.209   7.024   3.796  1.3118 -0.3883 -2.8130
  135OSM   C14F14626   3.279   6.954   3.991  0.5416 -0.0939 -0.3439
  135OSM   H14F14627   3.208   6.870   3.980  0.6523 -0.3359  0.6878
  135OSM   H14G14628   3.230   7.039   4.042  0.7306 -0.4437  0.4450
  135OSM   C15F14629   3.401   6.911   4.074  0.1233 -0.8051  0.4583
  135OSM   H15F14630   3.453   7.009   4.079 -2.1065  0.3957  1.5789
  135OSM   H15G14631   3.464   6.831   4.030  1.5104  0.4628  0.0609
  135OSM   C16F14632   3.365   6.846   4.207  1.0750 -0.6569 -0.1040
  135OSM   H16F14633   3.286   6.908   4.255  0.1841 -0.1809 -2.0544
  135OSM   H16G14634   3.450   6.848   4.277  1.3496 -0.4291 -0.4390
  135OSM   C17F14635   3.316   6.701   4.188  0.0122 -0.2935  0.0235
  135OSM   H17F14636   3.370   6.654   4.104 -0.4752 -2.3287  0.7777
  135OSM   H17G14637   3.213   6.707   4.145  1.9234  1.9243 -4.9330
  135OSM   C18F14638   3.313   6.610   4.313 -0.5406 -0.0948 -0.1302
  135OSM   H18F14639   3.418   6.594   4.344 -0.0187 -1.7409 -2.4597
  135OSM   H18G14640   3.287   6.505   4.287 -0.7327 -0.4386  1.3619
  135OSM   H18H14641   3.237   6.656   4.379  0.9684  2.3476  0.0498
  136OSM      N14642   2.657   3.226   2.051 -0.1171 -0.1863  0.9116
  136OSM    C1514643   2.652   3.375   2.058  0.0723  0.7526 -0.0751
  136OSM   H15A14644   2.623   3.403   2.158  0.2449  1.1878 -0.1433
  136OSM   H15B14645   2.580   3.415   1.989  0.1068 -0.2054 -0.6799
  136OSM   H15C14646   2.746   3.427   2.039  0.3976  0.0889 -0.3115
  136OSM    C1414647   2.518   3.165   2.060  0.0996 -0.4518  0.4085
  136OSM   H14A14648   2.528   3.058   2.071  0.8705 -0.3523  0.7921
  136OSM   H14B14649   2.451   3.172   1.976  0.4911 -1.1343  0.0249
  136OSM   H14C14650   2.465   3.208   2.143  0.4307  1.7330 -0.4318
  136OSM    C1314651   2.726   3.187   1.918 -0.4121  0.2257 -0.4612
  136OSM   H13A14652   2.657   3.200   1.836  1.1742  1.5806 -1.6455
  136OSM   H13B14653   2.768   3.088   1.911 -0.3325  0.2208  0.0376
  136OSM   H13C14654   2.817   3.244   1.904 -0.2717 -0.1825 -1.2557
  136OSM    C1214655   2.741   3.169   2.166 -0.3871 -0.1267  0.8158
  136OSM   H12A14656   2.769   3.067   2.144  1.5419  0.6092 -0.3564
  136OSM   H12B14657   2.677   3.156   2.252  0.1053  1.5084  1.4835
  136OSM    C1114658   2.880   3.237   2.206 -0.3123  0.2977 -0.4663
  136OSM   H11A14659   2.916   3.192   2.301  0.4921  2.1706  0.1611
  136OSM   H11B14660   2.854   3.344   2.220 -2.1959 -0.3767  1.9074
  136OSM      P14661   3.065   3.329   2.028  0.1053 -0.1434 -0.0262
  136OSM    O1314662   3.177   3.275   1.943  0.2105 -0.4198 -0.1502
  136OSM    O1414663   2.971   3.415   1.960 -0.1496 -0.0496  0.5686
  136OSM    O1114664   3.133   3.401   2.144 -0.8161 -0.4806 -0.0398
  136OSM    O1214665   2.974   3.214   2.099 -0.6340 -0.4578  0.6188
  136OSM    C1S14666   3.189   3.326   2.258  0.4367  0.1750  0.6390
  136OSM    H1S14667   3.285   3.282   2.224  1.2159  1.5785  0.9701
  136OSM    H1T14668   3.132   3.234   2.285 -1.4541  0.6172 -1.4812
  136OSM     NF14669   3.265   3.337   2.489  0.3139  0.2218 -0.3247
  136OSM    HNF14670   3.204   3.306   2.562 -0.4937  1.7529 -0.3111
  136OSM    C2S14671   3.214   3.419   2.385  0.6406 -0.3403 -0.5427
  136OSM    H2S14672   3.287   3.500   2.364  0.0393  0.9874  2.0508
  136OSM    C3S14673   3.080   3.500   2.417 -0.9803 -1.0877 -1.3870
  136OSM    H3S14674   3.000   3.425   2.432 -1.4657 -0.8090 -2.4902
  136OSM     O314675   3.036   3.588   2.316  0.2024  0.2090  0.4655
  136OSM    HO314676   3.065   3.542   2.236 -3.6685  1.9136 -2.1869
  136OSM    C4S14677   3.094   3.574   2.551  0.2057  0.1678  0.5719
  136OSM    H4S14678   3.060   3.522   2.642 -1.8438  1.9548  0.9060
  136OSM    C5S14679   3.128   3.703   2.568 -0.5769  0.1766 -0.0533
  136OSM    H5S14680   3.152   3.764   2.480 -2.6791  0.4993 -0.4510
  136OSM    C6S14681   3.154   3.775   2.698  0.2906 -0.7848 -0.2021
  136OSM    H6S14682   3.096   3.869   2.684  0.7638 -0.5693 -0.7789
  136OSM    H6T14683   3.262   3.798   2.707  0.0119  0.7830 -0.4511
  136OSM    C7S14684   3.105   3.695   2.823 -0.5583 -0.6727  0.2203
  136OSM    H7S14685   3.143   3.590   2.825 -1.5000 -1.0109  1.0316
  136OSM    H7T14686   2.995   3.680   2.821 -0.6384 -0.0839 -1.5075
  136OSM    C8S14687   3.140   3.763   2.954 -0.6484  0.0618  0.2942
  136OSM    H8S14688   3.115   3.870   2.964  1.8674  0.7407  0.1536
  136OSM    H8T14689   3.251   3.754   2.962 -0.6864  0.0617  0.9266
  136OSM    C9S14690   3.068   3.686   3.066  0.3706 -0.1094 -0.5500
  136OSM    H9S14691   3.082   3.576   3.060 -0.8576 -0.3442  0.5188
  136OSM    H9T14692   2.960   3.711   3.057  0.4494  0.1474 -0.7853
  136OSM   C10S14693   3.096   3.737   3.210 -0.6551  0.6407 -0.1039
  136OSM   H10S14694   3.007   3.799   3.236 -0.1812  1.9794 -1.5313
  136OSM   H10T14695   3.191   3.792   3.223  0.2053 -0.6458 -0.7008
  136OSM   C11S14696   3.101   3.613   3.314 -0.2902 -0.3918  0.9941
  136OSM   H11S14697   3.161   3.527   3.276 -0.3209  0.9535 -2.5576
  136OSM   H11T14698   2.996   3.580   3.332 -0.1237 -1.0106  0.8519
  136OSM   C12S14699   3.159   3.677   3.448  0.6927 -0.2217 -0.2654
  136OSM   H12S14700   3.098   3.753   3.502  2.1055  0.8892 -0.1833
  136OSM   H12T14701   3.252   3.732   3.423 -1.6298  2.6506 -3.5114
  136OSM   C13S14702   3.199   3.568   3.550  0.0805 -0.1927  0.1945
  136OSM   H13S14703   3.274   3.497   3.510 -0.7562 -0.8787 -0.1862
  136OSM   H13T14704   3.107   3.507   3.561 -1.1468  1.0757 -2.0573
  136OSM   C14S14705   3.229   3.619   3.685  0.2225  0.2256  0.9442
  136OSM   H14S14706   3.139   3.673   3.721 -1.1795 -0.5964 -1.1728
  136OSM   H14T14707   3.315   3.689   3.674  0.7193 -0.5861 -0.5834
  136OSM   C15S14708   3.259   3.501   3.771 -0.2077  0.3805  0.5198
  136OSM   H15S14709   3.335   3.438   3.721 -0.6681  1.3394 -1.4564
  136OSM   H15T14710   3.166   3.441   3.783 -0.5156  0.6582 -0.4133
  136OSM   C16S14711   3.301   3.540   3.911  0.2462  0.1100 -0.3651
  136OSM   H16S14712   3.236   3.622   3.948  1.6410  1.2186 -0.2508
  136OSM   H16T14713   3.408   3.572   3.910  0.2857 -0.0262 -0.7309
  136OSM   C17S14714   3.303   3.429   4.025  0.2898  0.1938  0.1648
  136OSM   H17S14715   3.406   3.387   4.029 -0.0167 -0.5917  0.0744
  136OSM   H17T14716   3.226   3.348   4.017 -0.3676  0.8384 -0.1241
  136OSM   C18S14717   3.274   3.504   4.154 -0.0856  0.5626 -1.0039
  136OSM   H18S14718   3.172   3.548   4.154 -0.7782 -0.9641  0.3994
  136OSM   H18T14719   3.352   3.580   4.172 -0.1829  0.2974  0.6283
  136OSM   H18U14720   3.274   3.425   4.232 -1.1385 -1.2159 -2.7013
  136OSM    C1F14721   3.388   3.280   2.483  0.0938  0.7776  0.1965
  136OSM     OF14722   3.467   3.320   2.396 -0.1672  0.2791 -0.3106
  136OSM    C2F14723   3.411   3.167   2.585 -0.3783  0.3434  0.0121
  136OSM    H2F14724   3.352   3.077   2.560  0.0149  0.0323  0.1974
  136OSM    H2G14725   3.385   3.201   2.687 -2.1337 -0.0235 -0.2912
  136OSM    C3F14726   3.563   3.125   2.577 -0.0205 -0.2304  0.4710
  136OSM    H3F14727   3.631   3.211   2.600  1.4912 -1.3813  0.4491
  136OSM    H3G14728   3.583   3.096   2.472 -0.0579  1.7559 -0.1381
  136OSM    C4F14729   3.606   3.021   2.679 -0.9005 -0.2052  0.0164
  136OSM    H4F14730   3.562   2.923   2.651 -1.5485  0.6497 -2.1626
  136OSM    H4G14731   3.555   3.049   2.773 -0.4716  1.6519 -0.2675
  136OSM    C5F14732   3.761   2.995   2.690 -0.1986  0.2248 -0.0014
  136OSM    H5F14733   3.818   3.090   2.686  0.8824 -0.4481 -1.8490
  136OSM    H5G14734   3.800   2.933   2.607 -0.0966 -0.9849  0.9070
  136OSM    C6F14735   3.793   2.920   2.821  0.5243  0.3101 -0.4722
  136OSM    H6F14736   3.844   2.825   2.793  1.0971  0.2574  0.7131
  136OSM    H6G14737   3.704   2.913   2.888  0.4515 -0.3788 -0.6247
  136OSM    C7F14738   3.891   2.994   2.913 -0.0195  0.2824 -0.4833
  136OSM    H7F14739   3.816   3.070   2.943 -0.1013  0.3449 -0.8379
  136OSM    H7G14740   3.978   3.037   2.859 -0.1054  1.4446  0.2753
  136OSM    C8F14741   3.955   2.924   3.034  0.5663 -0.1619 -0.3405
  136OSM    H8F14742   4.022   2.992   3.091 -0.0219  0.7327 -0.6964
  136OSM    H8G14743   4.023   2.844   2.998 -2.0073 -1.9952 -1.4196
  136OSM    C9F14744   3.862   2.866   3.138  0.1729 -0.5963 -0.2447
  136OSM    H9F14745   3.791   2.799   3.087 -1.1214 -0.5233  1.3834
  136OSM   C10F14746   3.845   2.895   3.267 -0.2263  1.3362  0.0922
  136OSM   H10F14747   3.769   2.849   3.332  0.7098  0.8456  0.8686
  136OSM   C11F14748   3.924   2.995   3.346 -0.1898  0.3532 -0.7018
  136OSM   H11F14749   3.870   3.091   3.330 -1.4895 -0.4042 -1.1054
  136OSM   H11G14750   4.029   2.991   3.310  0.1725 -1.2590  0.4611
  136OSM   C12F14751   3.951   2.958   3.492 -0.6664 -0.2946 -0.3053
  136OSM   H12F14752   4.026   2.876   3.491  1.4815  1.5663  0.5013
  136OSM   H12G14753   3.875   2.936   3.571  0.7325 -1.7118  0.6987
  136OSM   C13F14754   4.033   3.082   3.546  0.5282 -0.3966  0.5074
  136OSM   H13F14755   3.948   3.153   3.554 -0.0229 -1.1716  6.1286
  136OSM   H13G14756   4.102   3.121   3.468 -2.3323 -0.7133 -2.3978
  136OSM   C14F14757   4.091   3.054   3.690 -0.3792  0.0429 -0.4556
  136OSM   H14F14758   4.131   2.951   3.678  0.1582 -0.1087  2.0480
  136OSM   H14G14759   4.002   3.062   3.755 -1.2026  1.6772 -1.6990
  136OSM   C15F14760   4.199   3.149   3.744 -0.0166 -0.5949  0.0965
  136OSM   H15F14761   4.148   3.243   3.773  1.6204  0.6677 -0.9070
  136OSM   H15G14762   4.271   3.179   3.664 -0.4829  2.9384  0.8156
  136OSM   C16F14763   4.282   3.087   3.866  0.7424  0.5451  1.0432
  136OSM   H16F14764   4.337   2.996   3.832 -1.7832 -1.1205  1.1030
  136OSM   H16G14765   4.210   3.037   3.935 -0.4694  1.2665  0.3233
  136OSM   C17F14766   4.378   3.181   3.937 -0.2548  0.1898  0.0486
  136OSM   H17F14767   4.328   3.212   4.032 -1.3225  0.9189 -0.7208
  136OSM   H17G14768   4.402   3.275   3.883 -2.4134  0.3445 -0.7450
  136OSM   C18F14769   4.505   3.104   3.973  0.3394  0.1867 -0.4524
  136OSM   H18F14770   4.559   3.079   3.879 -0.4226  1.6703 -1.3074
  136OSM   H18G14771   4.487   3.013   4.035  0.2049  1.0378  0.7891
  136OSM   H18H14772   4.571   3.171   4.030  1.4557  0.3015 -1.8157
  137OSM      N14773   2.459   0.617   1.549  0.0137 -0.9315 -0.2479
  137OSM    C1514774   2.543   0.723   1.617 -0.8426  0.2074  0.6065
  137OSM   H15A14775   2.537   0.809   1.551 -2.3378 -1.1212 -1.0826
  137OSM   H15B14776   2.647   0.694   1.622 -0.7987  0.1353 -0.4172
  137OSM   H15C14777   2.516   0.764   1.713 -0.1520  2.3634 -0.0379
  137OSM    C1414778   2.329   0.685   1.516 -0.5870  0.1743  0.2851
  137OSM   H14A14779   2.299   0.750   1.597  0.0095  0.8473 -0.0266
  137OSM   H14B14780   2.251   0.618   1.484  1.0173 -0.4587 -2.6149
  137OSM   H14C14781   2.350   0.755   1.437  1.1767 -1.5739 -0.9082
  137OSM    C1314782   2.523   0.557   1.430 -0.5937 -0.1871  0.5403
  137OSM   H13A14783   2.538   0.629   1.352  2.7258  1.0011  2.0885
  137OSM   H13B14784   2.462   0.475   1.394  0.1509 -1.1471  1.3890
  137OSM   H13C14785   2.621   0.515   1.448  0.2186  1.7811  0.9062
  137OSM    C1214786   2.437   0.496   1.647 -0.7239 -0.5297  0.2870
  137OSM   H12A14787   2.364   0.421   1.621  0.1669 -0.7876 -1.5964
  137OSM   H12B14788   2.411   0.541   1.742  3.0110  1.3798  0.5964
  137OSM    C1114789   2.558   0.411   1.679 -0.1408  0.5582 -0.5189
  137OSM   H11A14790   2.588   0.368   1.580 -0.8556 -1.7814  0.2012
  137OSM   H11B14791   2.524   0.326   1.742  0.3454 -0.6691 -1.8509
  137OSM      P14792   2.651   0.522   1.892 -0.1157  0.1363 -0.0830
  137OSM    O1314793   2.712   0.405   1.966 -0.0034 -0.7558  0.1243
  137OSM    O1414794   2.700   0.661   1.913 -0.1173  0.0981 -0.2320
  137OSM    O1114795   2.500   0.527   1.923 -0.0984  0.5130  0.1361
  137OSM    O1214796   2.664   0.492   1.735 -0.5996  0.3539  0.0843
  137OSM    C1S14797   2.429   0.444   2.013 -0.0833 -0.8797 -0.6280
  137OSM    H1S14798   2.487   0.353   2.042  2.6881  0.7860 -0.5382
  137OSM    H1T14799   2.339   0.407   1.960 -1.2869  0.6653  0.2573
  137OSM     NF14800   2.346   0.438   2.249  0.3896 -0.7926  0.1995
  137OSM    HNF14801   2.248   0.423   2.261  0.0234  1.5425  0.5169
  137OSM    C2S14802   2.381   0.526   2.140  0.6240  0.0728 -0.6734
  137OSM    H2S14803   2.465   0.590   2.174  0.6650 -0.2246 -0.2023
  137OSM    C3S14804   2.260   0.614   2.093 -0.2081 -0.1816 -0.1431
  137OSM    H3S14805   2.190   0.539   2.049 -1.6701  1.5932 -0.9542
  137OSM     O314806   2.280   0.698   1.981  0.3028  0.1554 -0.0483
  137OSM    HO314807   2.364   0.667   1.945  0.0849 -0.1506 -0.2964
  137OSM    C4S14808   2.173   0.682   2.191  0.2193 -0.6403 -0.1243
  137OSM    H4S14809   2.069   0.645   2.196  0.1326 -0.7733 -2.1547
  137OSM    C5S14810   2.208   0.788   2.271 -0.3634  0.7438 -0.1919
  137OSM    H5S14811   2.314   0.819   2.274 -0.0139 -0.2109 -1.5404
  137OSM    C6S14812   2.128   0.833   2.391  0.2382 -0.0918 -0.7590
  137OSM    H6S14813   2.129   0.757   2.472  4.2278  2.8400  2.3516
  137OSM    H6T14814   2.029   0.869   2.355 -0.8951 -0.2405  1.9667
  137OSM    C7S14815   2.203   0.954   2.459 -0.1250 -0.0683  0.2357
  137OSM    H7S14816   2.226   1.033   2.384  1.9357  1.0425  1.9224
  137OSM    H7T14817   2.302   0.933   2.504 -0.4597 -1.3126  0.4137
  137OSM    C8S14818   2.121   1.000   2.576 -0.8632  0.4131 -1.1598
  137OSM    H8S14819   2.106   0.905   2.632  1.4880  0.2239 -0.7625
  137OSM    H8T14820   2.022   1.044   2.551 -1.4504  0.8134  1.5593
  137OSM    C9S14821   2.203   1.089   2.668 -0.2626 -0.5337  0.1178
  137OSM    H9S14822   2.252   1.173   2.614  1.4811 -2.1426 -0.9529
  137OSM    H9T14823   2.289   1.045   2.722  0.2611  1.1770  0.7481
  137OSM   C10S14824   2.104   1.148   2.776  0.8078 -0.7050  0.2142
  137OSM   H10S14825   2.016   1.185   2.719  0.9763 -0.2415  0.2556
  137OSM   H10T14826   2.151   1.227   2.838  1.7807 -1.2022  0.1278
  137OSM   C11S14827   2.068   1.043   2.883 -0.5063 -0.4901 -0.4451
  137OSM   H11S14828   2.168   1.012   2.920  0.8743  2.3423 -1.4576
  137OSM   H11T14829   2.004   0.958   2.851  1.5076 -2.4357  0.4956
  137OSM   C12S14830   1.992   1.106   3.004  0.8500  0.3606 -0.1479
  137OSM   H12S14831   1.903   1.167   2.976  0.8070  0.4585  0.1920
  137OSM   H12T14832   2.060   1.184   3.046  1.5219 -0.8225  1.0450
  137OSM   C13S14833   1.960   1.010   3.111  0.6670 -0.7082 -0.9038
  137OSM   H13S14834   1.873   0.954   3.070 -0.3898  1.0809 -1.1835
  137OSM   H13T14835   1.920   1.069   3.196 -0.5957 -1.2471 -1.0949
  137OSM   C14S14836   2.069   0.904   3.153 -0.1317 -1.0471 -0.8823
  137OSM   H14S14837   2.153   0.954   3.207 -2.1091  0.2185  1.2098
  137OSM   H14T14838   2.111   0.853   3.064  0.9936 -0.2363 -0.8486
  137OSM   C15S14839   2.017   0.794   3.249  0.2318 -0.5634 -0.3617
  137OSM   H15S14840   1.918   0.757   3.214 -0.8631  0.3395  1.5807
  137OSM   H15T14841   2.005   0.846   3.347 -2.1839 -0.2619 -0.7592
  137OSM   C16S14842   2.117   0.678   3.274  0.3993 -0.7281  0.2235
  137OSM   H16S14843   2.186   0.710   3.355  1.3757 -1.6838 -0.2195
  137OSM   H16T14844   2.184   0.657   3.189  1.2537  1.8421  0.1578
  137OSM   C17S14845   2.046   0.547   3.311 -0.0726 -0.3224  0.3549
  137OSM   H17S14846   1.959   0.559   3.379  0.5340 -0.1564  1.1136
  137OSM   H17T14847   2.122   0.485   3.364  0.8044 -0.6789 -1.2587
  137OSM   C18S14848   2.004   0.458   3.189 -0.1510  0.9668  0.4606
  137OSM   H18S14849   2.088   0.426   3.123 -0.9318 -0.1704 -0.0108
  137OSM   H18T14850   1.941   0.515   3.118 -0.5575  0.7998  0.6854
  137OSM   H18U14851   1.944   0.371   3.223 -0.8604 -0.2934 -3.5115
  137OSM    C1F14852   2.435   0.372   2.319  0.0730  0.0371 -0.1917
  137OSM     OF14853   2.550   0.363   2.284 -0.2979 -0.6006 -0.6656
  137OSM    C2F14854   2.390   0.286   2.441  0.0117 -0.1615 -0.6888
  137OSM    H2F14855   2.468   0.209   2.457 -0.6403 -0.2591  2.6472
  137OSM    H2G14856   2.293   0.245   2.406 -1.7259  0.6372  2.8050
  137OSM    C3F14857   2.363   0.371   2.557  0.4534 -0.4440  0.3959
  137OSM    H3F14858   2.292   0.451   2.524  1.9312 -0.0964 -2.1642
  137OSM    H3G14859   2.454   0.424   2.593 -0.1381  0.2906  0.8548
  137OSM    C4F14860   2.310   0.310   2.685  0.4997 -0.4622 -0.7864
  137OSM    H4F14861   2.362   0.227   2.735  0.1770 -0.0813  0.1992
  137OSM    H4G14862   2.216   0.254   2.662  0.0359  0.1514 -0.4205
  137OSM    C5F14863   2.276   0.405   2.800  0.1326 -0.7236  0.6904
  137OSM    H5F14864   2.368   0.465   2.815 -0.4243  0.2751  0.1617
  137OSM    H5G14865   2.242   0.349   2.889 -1.4376  1.9296  1.8637
  137OSM    C6F14866   2.165   0.513   2.765 -0.2660 -0.3538  0.3298
  137OSM    H6F14867   2.193   0.586   2.686  1.5707 -0.3607  0.9252
  137OSM    H6G14868   2.139   0.571   2.857  1.0085 -1.4430  1.4193
  137OSM    C7F14869   2.029   0.448   2.720 -0.0080  0.5093 -0.0825
  137OSM    H7F14870   2.009   0.381   2.807  2.7880  0.3381  0.5079
  137OSM    H7G14871   2.047   0.380   2.635  3.7072  0.2324  0.7812
  137OSM    C8F14872   1.910   0.538   2.684  0.1946  0.4589  0.0918
  137OSM    H8F14873   1.925   0.583   2.584  4.4501  1.5674  1.0267
  137OSM    H8G14874   1.896   0.630   2.745 -1.0927 -0.0703  0.6200
  137OSM    C9F14875   1.789   0.447   2.658  0.0913  0.1146  0.2811
  137OSM    H9F14876   1.806   0.377   2.576  4.0321 -0.1510  1.1084
  137OSM   C10F14877   1.690   0.432   2.739  0.2856  0.8387  0.0539
  137OSM   H10F14878   1.610   0.371   2.694 -0.9836  1.0053  1.9559
  137OSM   C11F14879   1.663   0.509   2.864  0.4832  0.3977 -0.1252
  137OSM   H11F14880   1.581   0.584   2.858  0.1821  0.1449  0.7379
  137OSM   H11G14881   1.747   0.580   2.883  1.0506  0.0239 -1.1161
  137OSM   C12F14882   1.641   0.422   2.993 -0.1833 -0.2704  0.1709
  137OSM   H12F14883   1.728   0.354   3.004  1.3571  1.7926  1.5149
  137OSM   H12G14884   1.553   0.360   2.965  0.2369 -0.3316 -1.0647
  137OSM   C13F14885   1.618   0.504   3.114 -0.6151 -0.0686 -1.0315
  137OSM   H13F14886   1.527   0.566   3.094 -0.3412  1.7533  2.5066
  137OSM   H13G14887   1.706   0.572   3.115 -0.2612 -0.4724  1.0672
  137OSM   C14F14888   1.612   0.438   3.257  0.1952 -0.6846  0.3756
  137OSM   H14F14889   1.700   0.371   3.269  0.4044 -1.3381 -3.3772
  137OSM   H14G14890   1.529   0.363   3.262  0.9827 -1.4956  3.9083
  137OSM   C15F14891   1.615   0.540   3.368  0.1704  0.2708 -0.7218
  137OSM   H15F14892   1.518   0.593   3.355  0.3669  0.6257 -0.7596
  137OSM   H15G14893   1.688   0.620   3.344  3.0583 -1.1550  2.4101
  137OSM   C16F14894   1.654   0.484   3.506  0.5789 -0.0852 -0.3075
  137OSM   H16F14895   1.742   0.418   3.492  0.0958 -1.1497  1.3661
  137OSM   H16G14896   1.565   0.424   3.537 -0.3044  0.4995 -1.6037
  137OSM   C17F14897   1.676   0.593   3.613 -0.7364  0.6626 -0.4632
  137OSM   H17F14898   1.582   0.651   3.622  0.4111  2.6753 -0.9624
  137OSM   H17G14899   1.761   0.658   3.582 -0.1071  2.5346  4.3187
  137OSM   C18F14900   1.714   0.538   3.754 -0.2567  0.5406 -0.0648
  137OSM   H18F14901   1.636   0.467   3.790 -0.1127  1.0503  1.2939
  137OSM   H18G14902   1.716   0.633   3.811 -0.5600  2.2262 -2.7056
  137OSM   H18H14903   1.808   0.480   3.743 -0.9376 -0.9389  1.4950
  138OSM      N14904   1.416   2.395   2.328 -0.2246  0.0537 -0.5353
  138OSM    C1514905   1.525   2.469   2.245  0.0027 -0.1781 -0.5625
  138OSM   H15A14906   1.616   2.413   2.238  0.8241  0.8285  1.2802
  138OSM   H15B14907   1.535   2.571   2.279 -0.0762  0.2009 -1.6307
  138OSM   H15C14908   1.484   2.473   2.145  2.4533 -1.8492 -1.7172
  138OSM    C1414909   1.377   2.268   2.259 -0.4179  0.1854  0.2625
  138OSM   H14A14910   1.304   2.214   2.318 -0.0943  1.2759  1.6906
  138OSM   H14B14911   1.459   2.206   2.224  1.7635  1.9733  1.8994
  138OSM   H14C14912   1.335   2.289   2.162  0.8542  0.2858 -0.2819
  138OSM    C1314913   1.475   2.375   2.464  0.5605  0.4511 -0.3106
  138OSM   H13A14914   1.536   2.463   2.480  1.9504 -0.3344 -1.1013
  138OSM   H13B14915   1.546   2.295   2.453  1.1219  0.9008 -0.0457
  138OSM   H13C14916   1.406   2.361   2.545  0.9256 -0.3192 -0.1289
  138OSM    C1214917   1.293   2.474   2.338 -0.3523  0.2685 -0.4883
  138OSM   H12A14918   1.210   2.412   2.370  1.8999 -1.9570  1.4225
  138OSM   H12B14919   1.266   2.514   2.242 -1.3232 -1.2400 -0.8769
  138OSM    C1114920   1.302   2.595   2.434  0.6502  0.7275 -0.2733
  138OSM   H11A14921   1.322   2.549   2.533  0.5279 -3.6296 -2.0383
  138OSM   H11B14922   1.209   2.656   2.431 -0.5721 -1.0098  0.6856
  138OSM      P14923   1.412   2.813   2.328 -0.0801 -0.2473  0.1284
  138OSM    O1314924   1.552   2.831   2.290 -0.5603 -0.1692  0.1759
  138OSM    O1414925   1.308   2.815   2.220 -0.2189 -0.3801  0.3041
  138OSM    O1114926   1.369   2.914   2.445 -0.4029 -0.3514 -0.1490
  138OSM    O1214927   1.414   2.679   2.404  0.2988  0.6640  0.0526
  138OSM    C1S14928   1.231   2.967   2.447 -0.3972  0.4289  0.2192
  138OSM    H1S14929   1.158   2.883   2.454 -1.0550  1.0173  0.5218
  138OSM    H1T14930   1.202   3.019   2.354 -3.7334 -0.3184  0.6981
  138OSM     NF14931   1.063   3.078   2.614 -0.0733  0.0599  0.1676
  138OSM    HNF14932   1.036   3.172   2.597 -0.5199 -0.1381 -0.2125
  138OSM    C2S14933   1.214   3.049   2.579 -0.3422  0.2223 -0.3977
  138OSM    H2S14934   1.249   2.976   2.655 -0.9016  1.2420  0.8639
  138OSM    C3S14935   1.310   3.174   2.593 -0.2374 -0.6670 -0.1385
  138OSM    H3S14936   1.269   3.250   2.523 -0.5195  0.5202  1.2822
  138OSM     O314937   1.449   3.149   2.564 -0.4502 -0.3967  0.1396
  138OSM    HO314938   1.450   3.061   2.527 -0.4244 -0.5417  0.4789
  138OSM    C4S14939   1.316   3.224   2.732  1.1292 -0.1713  0.1684
  138OSM    H4S14940   1.353   3.157   2.811  1.4384  1.0465  1.0736
  138OSM    C5S14941   1.271   3.343   2.767 -0.1983 -0.2245  0.1436
  138OSM    H5S14942   1.236   3.420   2.696  0.7831  1.7194  1.6666
  138OSM    C6S14943   1.256   3.394   2.907  0.8645 -0.0509  0.6113
  138OSM    H6S14944   1.149   3.418   2.920  0.5627 -1.2143  0.3893
  138OSM    H6T14945   1.312   3.490   2.912  1.1614  0.1280 -3.3114
  138OSM    C7S14946   1.291   3.303   3.023 -0.7590  0.1646 -0.3447
  138OSM    H7S14947   1.400   3.285   3.006 -0.5827  0.7694  0.1149
  138OSM    H7T14948   1.232   3.209   3.021 -1.0164  0.3079  0.4759
  138OSM    C8S14949   1.268   3.361   3.163  0.0661  0.2856  1.0498
  138OSM    H8S14950   1.162   3.343   3.192 -0.3615  0.2982 -0.4287
  138OSM    H8T14951   1.298   3.467   3.152  1.8924 -0.4005 -1.7519
  138OSM    C9S14952   1.348   3.297   3.278 -0.6233 -0.4557  0.6188
  138OSM    H9S14953   1.453   3.335   3.283 -0.6345 -0.3122 -0.1555
  138OSM    H9T14954   1.350   3.186   3.274  1.1118 -0.4358 -1.4659
  138OSM   C10S14955   1.273   3.329   3.402 -0.2414  0.1184  0.4690
  138OSM   H10S14956   1.181   3.269   3.413 -0.7754  0.4620 -1.6269
  138OSM   H10T14957   1.238   3.434   3.398 -0.1017  0.1639 -3.1052
  138OSM   C11S14958   1.364   3.318   3.526 -0.5703  1.5296 -0.5018
  138OSM   H11S14959   1.449   3.390   3.518  0.6428  0.1012 -1.0758
  138OSM   H11T14960   1.420   3.222   3.520 -1.3316  1.0344  0.2090
  138OSM   C12S14961   1.276   3.326   3.656 -0.5689  0.7520 -0.0428
  138OSM   H12S14962   1.201   3.244   3.665 -1.4463  1.6979  2.0604
  138OSM   H12T14963   1.215   3.418   3.666  0.2217  1.0308  3.8932
  138OSM   C13S14964   1.358   3.316   3.789 -0.3011 -0.0168 -1.0531
  138OSM   H13S14965   1.432   3.399   3.785  0.1932 -0.3184  0.9553
  138OSM   H13T14966   1.397   3.213   3.802 -0.2240  0.0254 -0.9418
  138OSM   C14S14967   1.277   3.353   3.918 -0.7022  0.5480 -0.4716
  138OSM   H14S14968   1.203   3.271   3.935 -0.3739  0.4202  0.3917
  138OSM   H14T14969   1.225   3.449   3.898 -1.6162  0.2864  0.5552
  138OSM   C15S14970   1.368   3.360   4.041 -0.4850 -0.3029 -0.0267
  138OSM   H15S14971   1.449   3.284   4.038  0.7402  0.8039  2.1867
  138OSM   H15T14972   1.312   3.341   4.135  0.3145 -1.0888  0.2979
  138OSM   C16S14973   1.435   3.497   4.054  0.7536 -0.7446 -0.8596
  138OSM   H16S14974   1.360   3.572   4.021 -0.8250 -0.6470  2.5522
  138OSM   H16T14975   1.524   3.501   3.987  1.1168 -0.8806 -0.3934
  138OSM   C17S14976   1.463   3.531   4.202 -0.6535 -0.2515  0.9072
  138OSM   H17S14977   1.373   3.511   4.265 -3.2772  2.9073 -1.5036
  138OSM   H17T14978   1.496   3.636   4.214  2.5029 -0.6915 -2.3667
  138OSM   C18S14979   1.592   3.448   4.245  0.1363 -0.8856  0.1630
  138OSM   H18S14980   1.618   3.452   4.353 -0.0995 -1.0984  0.2313
  138OSM   H18T14981   1.679   3.481   4.185 -1.6893  0.8258 -1.6534
  138OSM   H18U14982   1.569   3.345   4.209 -2.7888  0.7041 -2.9891
  138OSM    C1F14983   0.981   2.994   2.666  0.2833  0.1596  0.4573
  138OSM     OF14984   1.019   2.883   2.683 -0.0286  0.0999 -0.2951
  138OSM    C2F14985   0.842   3.036   2.679 -0.0904  0.4020  0.3070
  138OSM    H2F14986   0.778   2.955   2.636 -0.3613  1.3600 -1.1748
  138OSM    H2G14987   0.829   3.127   2.617 -1.4006 -0.6971 -1.1148
  138OSM    C3F14988   0.798   3.048   2.821  0.2798 -0.1313 -0.3180
  138OSM    H3F14989   0.849   2.982   2.895 -0.7826 -1.1379 -0.4547
  138OSM    H3G14990   0.688   3.031   2.813 -0.0739  2.1930 -1.1308
  138OSM    C4F14991   0.855   3.182   2.864  0.0605  0.2562  0.6638
  138OSM    H4F14992   0.836   3.251   2.779 -1.0449 -0.7297  0.0621
  138OSM    H4G14993   0.960   3.165   2.893 -0.3250 -1.2630  1.2700
  138OSM    C5F14994   0.773   3.235   2.985 -0.2483 -0.5457 -0.0660
  138OSM    H5F14995   0.676   3.273   2.947  1.6148  2.6282 -2.1028
  138OSM    H5G14996   0.831   3.324   3.018 -0.9521  0.4779 -1.4778
  138OSM    C6F14997   0.767   3.138   3.104  0.1019  0.7310 -0.2462
  138OSM    H6F14998   0.868   3.095   3.127 -0.6163 -0.7437  0.3092
  138OSM    H6G14999   0.709   3.052   3.064 -1.7913  1.1599  1.4156
  138OSM    C7F15000   0.699   3.191   3.232 -0.1714  0.4057 -0.2480
  138OSM    H7F15001   0.661   3.107   3.295  0.4353 -0.3084 -0.8070
  138OSM    H7G15002   0.614   3.249   3.191  0.4605 -0.0922 -2.3592
  138OSM    C8F15003   0.775   3.299   3.311 -0.4845 -0.2574 -0.3737
  138OSM    H8F15004   0.706   3.363   3.369  1.1507  0.4789  0.8433
  138OSM    H8G15005   0.824   3.368   3.238 -0.4660 -1.9960 -2.0907
  138OSM    C9F15006   0.878   3.251   3.414 -0.5648  0.2096  0.5211
  138OSM    H9F15007   0.970   3.210   3.369 -1.5397 -1.8539  0.3045
  138OSM   C10F15008   0.872   3.233   3.548 -0.6132  0.4182 -0.4555
  138OSM   H10F15009   0.959   3.196   3.604 -0.6406  0.4986 -0.3608
  138OSM   C11F15010   0.760   3.284   3.633  0.1738 -0.2494 -0.0533
  138OSM   H11F15011   0.684   3.347   3.582 -0.0636  0.2863  0.9365
  138OSM   H11G15012   0.798   3.349   3.715 -2.2614 -0.2039  1.1316
  138OSM   C12F15013   0.674   3.178   3.704  0.1793 -0.3170 -0.5304
  138OSM   H12F15014   0.735   3.101   3.756 -1.9149 -1.6168  0.1248
  138OSM   H12G15015   0.614   3.128   3.625  0.0389  1.1714 -1.3983
  138OSM   C13F15016   0.569   3.231   3.806 -0.6057  0.3758 -0.6612
  138OSM   H13F15017   0.530   3.149   3.870  2.5270  0.4289  1.5138
  138OSM   H13G15018   0.479   3.268   3.752  0.2141  0.6581 -1.8747
  138OSM   C14F15019   0.618   3.345   3.904 -0.2523  0.1286  0.3955
  138OSM   H14F15020   0.605   3.426   3.830 -0.3139 -2.7056 -2.9555
  138OSM   H14G15021   0.726   3.333   3.926  0.1244  2.4887  0.0396
  138OSM   C15F15022   0.510   3.377   4.017 -0.4962 -0.3228  0.1111
  138OSM   H15F15023   0.517   3.312   4.106 -0.6178  0.6509  0.8511
  138OSM   H15G15024   0.404   3.380   3.982 -1.3269  2.7674  2.4363
  138OSM   C16F15025   0.527   3.525   4.056 -0.1366 -0.2477 -0.1697
  138OSM   H16F15026   0.515   3.594   3.969  0.8333  0.8014  0.4947
  138OSM   H16G15027   0.624   3.530   4.111 -0.3505  1.3186  0.1323
  138OSM   C17F15028   0.417   3.574   4.146 -0.4123 -0.3154  0.0923
  138OSM   H17F15029   0.409   3.510   4.236 -3.2572 -0.9583 -0.4997
  138OSM   H17G15030   0.319   3.547   4.100 -0.2851 -0.8049  0.1104
  138OSM   C18F15031   0.432   3.718   4.192 -0.2145  0.0957  0.4273
  138OSM   H18F15032   0.339   3.766   4.229 -0.7973 -0.8922  0.2872
  138OSM   H18G15033   0.483   3.772   4.109  2.3910 -2.0574  0.4966
  138OSM   H18H15034   0.504   3.722   4.277  2.5168  0.4752 -1.7363
  139OSM      N15035   4.056   0.274   1.592  0.3706  0.3914 -0.6606
  139OSM    C1515036   4.007   0.129   1.580  0.1491 -0.3568 -0.7754
  139OSM   H15A15037   4.042   0.079   1.491  0.1025 -1.2036 -0.3318
  139OSM   H15B15038   3.899   0.131   1.584  0.0960 -0.7584 -1.7036
  139OSM   H15C15039   4.047   0.081   1.668  0.1532 -0.2195 -0.7013
  139OSM    C1415040   4.199   0.278   1.566  0.2868 -0.2078  0.1851
  139OSM   H14A15041   4.220   0.236   1.468 -0.1094 -1.3643  0.5853
  139OSM   H14B15042   4.264   0.232   1.639  0.0866 -2.4618 -0.9668
  139OSM   H14C15043   4.225   0.382   1.555 -1.1899 -0.0662 -3.2833
  139OSM    C1315044   3.992   0.356   1.484 -0.1976 -0.1452  0.2061
  139OSM   H13A15045   4.030   0.456   1.481  2.2759 -1.0427 -1.1588
  139OSM   H13B15046   3.884   0.345   1.486 -0.1300 -0.8759  0.2610
  139OSM   H13C15047   4.022   0.310   1.391 -1.3267  0.9953 -0.7511
  139OSM    C1215048   4.009   0.335   1.729  0.6630  0.5326  0.0339
  139OSM   H12A15049   4.042   0.270   1.809 -1.2374  2.3524  2.4710
  139OSM   H12B15050   3.902   0.318   1.723  0.8239 -2.6003  2.8840
  139OSM    C1115051   4.033   0.481   1.758  0.1369 -0.6114  0.0427
  139OSM   H11A15052   3.989   0.507   1.856 -3.3571 -0.1006 -1.5206
  139OSM   H11B15053   3.978   0.532   1.676 -1.0558 -2.7925 -0.5965
  139OSM      P15054   4.260   0.479   1.884 -0.4767  0.0463 -0.0224
  139OSM    O1315055   4.387   0.421   1.834  0.1153 -0.6643 -0.1835
  139OSM    O1415056   4.258   0.593   1.975  0.5580 -0.3838 -0.4141
  139OSM    O1115057   4.178   0.362   1.952  0.2732  0.2214  0.3981
  139OSM    O1215058   4.170   0.517   1.756  0.5755  0.1157  0.3769
  139OSM    C1S15059   4.245   0.267   2.038 -0.3663  0.3330 -0.6468
  139OSM    H1S15060   4.343   0.240   1.994  0.2376  2.2137 -0.5215
  139OSM    H1T15061   4.178   0.179   2.032 -1.0028  0.6847  0.7349
  139OSM     NF15062   4.326   0.187   2.256  0.0297  0.4602 -0.4144
  139OSM    HNF15063   4.265   0.118   2.293  0.4240 -0.2229 -0.9962
  139OSM    C2S15064   4.255   0.300   2.191  0.1877  0.1189  0.7335
  139OSM    H2S15065   4.325   0.386   2.189 -1.6489  1.7061 -1.6881
  139OSM    C3S15066   4.112   0.332   2.249  0.7902  0.0029  0.2485
  139OSM    H3S15067   4.055   0.238   2.233 -1.3463  1.1013  1.0353
  139OSM     O315068   4.039   0.431   2.168 -0.4671 -0.1218 -0.3886
  139OSM    HO315069   4.086   0.428   2.085 -3.0569 -1.3366 -1.9305
  139OSM    C4S15070   4.115   0.366   2.393 -0.2533  0.5924 -0.3830
  139OSM    H4S15071   4.138   0.278   2.455 -1.0471 -0.8625 -2.0303
  139OSM    C5S15072   4.107   0.490   2.444  1.2116 -0.4096 -0.4318
  139OSM    H5S15073   4.102   0.578   2.379  1.6138 -2.4505 -3.4373
  139OSM    C6S15074   4.119   0.545   2.588 -0.2468  0.1873 -0.2789
  139OSM    H6S15075   4.037   0.618   2.608  0.7482  1.7529 -1.6703
  139OSM    H6T15076   4.211   0.606   2.586 -0.3141  0.2861 -0.3844
  139OSM    C7S15077   4.121   0.441   2.701 -0.6197  0.0830  0.8751
  139OSM    H7S15078   4.212   0.377   2.693 -0.5763  0.1759  0.6076
  139OSM    H7T15079   4.035   0.371   2.693 -1.0844  0.5874  1.4133
  139OSM    C8S15080   4.110   0.500   2.837  0.7085  0.2970 -0.3573
  139OSM    H8S15081   4.054   0.596   2.831  0.4911  0.2761  1.0087
  139OSM    H8T15082   4.214   0.514   2.874 -0.1793 -0.3614  2.6075
  139OSM    C9S15083   4.028   0.429   2.947 -0.9364 -0.6766  0.2972
  139OSM    H9S15084   4.089   0.346   2.986  0.3611  0.0010 -0.2242
  139OSM    H9T15085   3.937   0.382   2.903 -1.2945 -1.0960  1.4297
  139OSM   C10S15086   3.970   0.526   3.048  0.1845 -0.2078  0.3764
  139OSM   H10S15087   3.925   0.609   2.990 -1.5374 -1.2859  0.1055
  139OSM   H10T15088   4.050   0.571   3.110  0.3442 -0.4210  0.3275
  139OSM   C11S15089   3.873   0.460   3.138  0.0629  0.3389  0.2887
  139OSM   H11S15090   3.893   0.355   3.168 -1.7812  0.0834  0.7477
  139OSM   H11T15091   3.776   0.458   3.083  1.1802 -0.0895 -1.7241
  139OSM   C12S15092   3.850   0.536   3.269 -0.1432 -0.2256 -0.5616
  139OSM   H12S15093   3.757   0.505   3.322  0.6817 -0.4627  0.7804
  139OSM   H12T15094   3.843   0.646   3.259  1.0286  0.3550  3.5129
  139OSM   C13S15095   3.960   0.510   3.377  0.4458 -0.2689 -0.3206
  139OSM   H13S15096   4.061   0.547   3.349 -0.0746  0.7772 -0.9150
  139OSM   H13T15097   3.961   0.399   3.385 -2.0903 -0.5437 -2.3423
  139OSM   C14S15098   3.919   0.595   3.493 -0.0313 -0.4074 -0.8591
  139OSM   H14S15099   3.811   0.586   3.520  0.4706  2.1954  2.7421
  139OSM   H14T15100   3.945   0.701   3.473  2.8685 -0.5919  1.2424
  139OSM   C15S15101   3.981   0.558   3.626 -1.2014  0.0453  0.1251
  139OSM   H15S15102   4.023   0.456   3.622 -2.4201 -0.5530  1.6029
  139OSM   H15T15103   3.909   0.548   3.710 -1.6951  0.2492 -0.2671
  139OSM   C16S15104   4.099   0.649   3.663 -0.0325 -0.8097  0.2714
  139OSM   H16S15105   4.058   0.721   3.738  0.2726 -2.0453  1.6633
  139OSM   H16T15106   4.119   0.712   3.574 -1.1454 -0.9624 -0.1004
  139OSM   C17S15107   4.221   0.582   3.721  0.4861 -0.3903  0.2655
  139OSM   H17S15108   4.311   0.647   3.727 -1.4025  2.4687 -0.7126
  139OSM   H17T15109   4.238   0.496   3.653  0.4167  0.3550 -0.7132
  139OSM   C18S15110   4.188   0.533   3.858 -0.5747  0.1854 -0.1397
  139OSM   H18S15111   4.092   0.476   3.858 -0.4757 -0.0400 -1.9801
  139OSM   H18T15112   4.176   0.626   3.917  1.6514  1.7349 -1.9791
  139OSM   H18U15113   4.279   0.480   3.893 -0.3135  1.1637  0.6993
  139OSM    C1F15114   4.460   0.164   2.240 -0.8332 -0.3691  0.1146
  139OSM     OF15115   4.536   0.257   2.220  0.4393  0.0357  0.2948
  139OSM    C2F15116   4.498   0.019   2.231 -0.4879  0.2209  0.4280
  139OSM    H2F15117   4.581  -0.001   2.160  0.3789  0.8389  1.2322
  139OSM    H2G15118   4.421  -0.041   2.178  1.0061 -1.8096  0.4556
  139OSM    C3F15119   4.530  -0.053   2.365 -0.0124  1.1443 -0.1717
  139OSM    H3F15120   4.551  -0.160   2.346  1.2688  1.1256  1.1938
  139OSM    H3G15121   4.432  -0.054   2.417 -0.7017 -1.9569 -1.2936
  139OSM    C4F15122   4.645   0.014   2.438 -0.3685 -0.6836  0.1896
  139OSM    H4F15123   4.600   0.098   2.494  2.6891  0.9579  0.3819
  139OSM    H4G15124   4.714   0.061   2.365 -0.4443 -0.8633  0.0034
  139OSM    C5F15125   4.734  -0.075   2.530 -1.0921  0.0599 -0.3148
  139OSM    H5F15126   4.831  -0.029   2.559 -1.3854 -0.1160  1.0137
  139OSM    H5G15127   4.748  -0.169   2.473 -1.6366  1.3796 -2.7747
  139OSM    C6F15128   4.664  -0.098   2.666 -0.6509 -1.2805 -0.6278
  139OSM    H6F15129   4.740  -0.155   2.724 -0.8557 -2.3600 -1.3987
  139OSM    H6G15130   4.582  -0.172   2.661 -1.3725 -0.6548  1.0874
  139OSM    C7F15131   4.613   0.028   2.747 -0.1991  0.4914 -0.4050
  139OSM    H7F15132   4.527   0.076   2.696 -1.5636 -0.1500  1.1880
  139OSM    H7G15133   4.689   0.109   2.753  0.9587 -0.5400 -0.6798
  139OSM    C8F15134   4.561  -0.009   2.881  0.4716  0.1169  0.8072
  139OSM    H8F15135   4.494  -0.098   2.883 -0.3002  0.6237 -0.8479
  139OSM    H8G15136   4.484   0.065   2.910 -2.1627 -2.1201  0.0237
  139OSM    C9F15137   4.681  -0.025   2.966  0.0353 -0.0319  0.0002
  139OSM    H9F15138   4.775  -0.048   2.914 -1.0374 -1.8766 -1.2325
  139OSM   C10F15139   4.678  -0.050   3.103 -0.3358  0.2542 -0.2506
  139OSM   H10F15140   4.766  -0.062   3.168 -2.5083  1.5165  3.2725
  139OSM   C11F15141   4.546  -0.041   3.176 -0.0336  0.3321 -0.3222
  139OSM   H11F15142   4.520  -0.149   3.191  2.2380 -0.2778 -0.4305
  139OSM   H11G15143   4.474   0.018   3.116 -0.4069  0.0596 -0.1503
  139OSM   C12F15144   4.547   0.016   3.322 -0.0344 -0.5457  0.4360
  139OSM   H12F15145   4.447  -0.003   3.367 -0.5119 -3.9376 -1.6988
  139OSM   H12G15146   4.582   0.120   3.306  0.8606 -0.9513 -0.3988
  139OSM   C13F15147   4.640  -0.060   3.419  0.1287  0.4628 -0.3152
  139OSM   H13F15148   4.746  -0.074   3.390  0.3629 -1.8248  1.3295
  139OSM   H13G15149   4.578  -0.152   3.429  1.3288 -0.5727 -1.9369
  139OSM   C14F15150   4.637   0.003   3.558  0.4073  0.3512 -0.8261
  139OSM   H14F15151   4.538  -0.009   3.606  0.1332 -1.9638 -1.8343
  139OSM   H14G15152   4.647   0.113   3.548  2.5200  0.1801 -1.0968
  139OSM   C15F15153   4.746  -0.041   3.661 -0.1465 -0.0229  0.1506
  139OSM   H15F15154   4.845  -0.003   3.628 -0.0723  2.8662  3.1182
  139OSM   H15G15155   4.742  -0.151   3.652  0.6074  0.0339 -0.9692
  139OSM   C16F15156   4.728   0.018   3.802 -0.2400  0.2593  0.6257
  139OSM   H16F15157   4.716   0.128   3.795  2.5147  0.5366 -1.3543
  139OSM   H16G15158   4.829   0.003   3.844  0.4487  0.5788 -0.8485
  139OSM   C17F15159   4.618  -0.059   3.879  0.1338  0.7694 -0.1814
  139OSM   H17F15160   4.548  -0.112   3.812 -0.9149  1.5924  0.2358
  139OSM   H17G15161   4.573   0.023   3.940 -0.5142 -0.6643  1.3309
  139OSM   C18F15162   4.677  -0.159   3.980 -0.3144  0.3170  0.2608
  139OSM   H18F15163   4.731  -0.232   3.915  0.8254  0.9049  0.5338
  139OSM   H18G15164   4.612  -0.223   4.044  1.4616 -1.2431  0.6253
  139OSM   H18H15165   4.751  -0.105   4.043  0.3903 -0.1630 -0.1398
  140OSM      N15166   0.288   5.407   2.264 -0.2259  0.3160 -0.1520
  140OSM    C1515167   0.373   5.307   2.332  0.5982  0.7097 -0.3729
  140OSM   H15A15168   0.478   5.325   2.313  1.2269 -1.4925  0.6403
  140OSM   H15B15169   0.351   5.204   2.308  0.2479  0.1234  2.1620
  140OSM   H15C15170   0.361   5.313   2.439  2.7900 -1.9977  0.1322
  140OSM    C1415171   0.304   5.525   2.351 -0.0524  0.0130 -0.3884
  140OSM   H14A15172   0.270   5.615   2.302  0.4551 -1.0697 -2.9094
  140OSM   H14B15173   0.405   5.554   2.376 -0.0576  0.3188 -0.7198
  140OSM   H14C15174   0.244   5.508   2.439 -0.2596  0.8420 -0.3693
  140OSM    C1315175   0.334   5.447   2.129  0.2049  0.3706 -0.0910
  140OSM   H13A15176   0.427   5.501   2.140  1.4662 -1.0938 -2.7425
  140OSM   H13B15177   0.270   5.518   2.079 -1.1541 -1.9674 -1.8767
  140OSM   H13C15178   0.348   5.360   2.067 -0.7364  0.2005 -0.0863
  140OSM    C1215179   0.142   5.356   2.255  0.2986  0.2888  0.2936
  140OSM   H12A15180   0.086   5.436   2.208 -1.0543 -1.2050 -0.7558
  140OSM   H12B15181   0.104   5.344   2.355 -1.3245  0.2821 -0.3019
  140OSM    C1115182   0.103   5.226   2.178  0.2130  0.2344  0.0949
  140OSM   H11A15183   0.101   5.255   2.071  0.8260  2.8143  0.7034
  140OSM   H11B15184  -0.001   5.218   2.214  0.5733 -2.1765  0.7559
  140OSM      P15185   0.110   4.980   2.262 -0.1621 -0.4064  0.0690
  140OSM    O1315186   0.006   5.029   2.360 -0.0716  0.3538 -0.2012
  140OSM    O1415187   0.057   4.908   2.147 -0.7909 -0.3112  0.1417
  140OSM    O1115188   0.215   4.892   2.341  0.3337  0.1061  0.1548
  140OSM    O1215189   0.185   5.116   2.214 -0.4985  0.5237  0.4207
  140OSM    C1S15190   0.298   4.955   2.441 -0.0417 -0.1880  0.9216
  140OSM    H1S15191   0.281   5.065   2.439 -0.8458 -0.2886 -1.6197
  140OSM    H1T15192   0.404   4.941   2.408 -0.2145 -0.9263  0.6673
  140OSM     NF15193   0.343   4.968   2.691  0.6268  0.4747  0.0261
  140OSM    HNF15194   0.422   4.918   2.727  0.5181 -0.7304 -1.3432
  140OSM    C2S15195   0.267   4.899   2.583 -0.3611  0.2176 -0.8482
  140OSM    H2S15196   0.162   4.910   2.617 -0.0272 -1.9595  1.1211
  140OSM    C3S15197   0.288   4.745   2.587  0.2720  0.5262  0.9759
  140OSM    H3S15198   0.393   4.720   2.560 -0.7092 -1.6516 -1.2349
  140OSM     O315199   0.190   4.683   2.498  0.6858  0.2272 -0.1368
  140OSM    HO315200   0.155   4.755   2.445  0.1760 -0.0148 -0.1401
  140OSM    C4S15201   0.285   4.688   2.729 -0.1556  0.6406  0.2150
  140OSM    H4S15202   0.385   4.660   2.766 -1.1083  0.5137  2.9257
  140OSM    C5S15203   0.179   4.676   2.804  0.2419  0.1042  0.1342
  140OSM    H5S15204   0.082   4.700   2.758 -0.0956  0.3673  0.9666
  140OSM    C6S15205   0.185   4.622   2.946 -0.0925  0.2718 -0.1322
  140OSM    H6S15206   0.092   4.643   3.003 -0.4369 -1.8580  0.1919
  140OSM    H6T15207   0.260   4.682   3.001 -0.9930  1.5618 -0.2554
  140OSM    C7S15208   0.221   4.469   2.947 -0.2973 -0.2158 -0.6529
  140OSM    H7S15209   0.275   4.441   2.854 -0.7905 -1.1775 -0.6612
  140OSM    H7T15210   0.132   4.404   2.942  0.9956 -1.9805 -1.8073
  140OSM    C8S15211   0.298   4.420   3.075  0.0204 -0.1651 -0.9582
  140OSM    H8S15212   0.391   4.480   3.067 -0.7271  1.2105  0.0588
  140OSM    H8T15213   0.317   4.311   3.071  1.1763 -0.1388  2.0717
  140OSM    C9S15214   0.224   4.467   3.205  0.9183 -0.4123  0.1155
  140OSM    H9S15215   0.121   4.430   3.215 -0.9734  4.2049  0.4230
  140OSM    H9T15216   0.208   4.577   3.193 -0.1189 -0.5319  0.4044
  140OSM   C10S15217   0.294   4.420   3.336 -0.1988 -0.0825 -0.0223
  140OSM   H10S15218   0.395   4.459   3.357 -0.5534 -0.3295  2.4806
  140OSM   H10T15219   0.307   4.310   3.329  1.2492 -0.0987  2.0748
  140OSM   C11S15220   0.205   4.439   3.463 -0.0505 -1.1551 -0.4503
  140OSM   H11S15221   0.106   4.392   3.442 -1.5225  1.5821  0.0154
  140OSM   H11T15222   0.183   4.545   3.486  0.6149 -1.3898  1.3737
  140OSM   C12S15223   0.271   4.379   3.588  0.2853  0.3583  0.4242
  140OSM   H12S15224   0.376   4.414   3.573  1.3261 -3.0781 -1.0949
  140OSM   H12T15225   0.266   4.269   3.586 -1.8289  0.4223  0.0773
  140OSM   C13S15226   0.227   4.449   3.720  0.1752 -0.4534 -0.0624
  140OSM   H13S15227   0.121   4.422   3.740  0.2926 -1.5178 -0.7908
  140OSM   H13T15228   0.249   4.557   3.705 -1.0433  0.3287  3.0947
  140OSM   C14S15229   0.315   4.403   3.839  0.2241 -0.0268  0.3731
  140OSM   H14S15230   0.415   4.443   3.814  0.0864  0.5372  0.6927
  140OSM   H14T15231   0.312   4.293   3.824  2.2513 -0.0622 -0.0872
  140OSM   C15S15232   0.264   4.450   3.970 -0.3983 -0.4714  0.1423
  140OSM   H15S15233   0.160   4.420   3.993 -0.0728 -0.9745  1.0407
  140OSM   H15T15234   0.284   4.559   3.979  0.3128 -0.6874  1.4463
  140OSM   C16S15235   0.360   4.389   4.069 -0.2392  0.7616 -0.3848
  140OSM   H16S15236   0.461   4.402   4.026 -0.1561 -0.6102 -0.6379
  140OSM   H16T15237   0.339   4.280   4.068 -2.0750  1.0767 -1.0302
  140OSM   C17S15238   0.343   4.454   4.207 -0.2994  0.2714  0.6655
  140OSM   H17S15239   0.241   4.455   4.250 -0.4433 -0.5716  0.3668
  140OSM   H17T15240   0.372   4.561   4.208  0.7719 -0.0056  0.6109
  140OSM   C18S15241   0.418   4.385   4.323  0.7247 -0.5473 -0.0614
  140OSM   H18S15242   0.389   4.278   4.323 -0.0952 -0.3335  0.1702
  140OSM   H18T15243   0.396   4.435   4.420  1.0383  0.3966 -0.4653
  140OSM   H18U15244   0.528   4.391   4.308  0.3336  0.5860 -3.1483
  140OSM    C1F15245   0.334   5.098   2.716  0.1040  0.0047 -0.5151
  140OSM     OF15246   0.264   5.170   2.647 -0.1487  0.1964 -0.0811
  140OSM    C2F15247   0.415   5.145   2.831  0.6375 -0.5422 -0.0935
  140OSM    H2F15248   0.451   5.246   2.799 -1.1304 -0.2935 -1.4455
  140OSM    H2G15249   0.502   5.079   2.852  1.7053  0.3663 -1.4631
  140OSM    C3F15250   0.337   5.168   2.968 -0.1748  0.1462  0.4806
  140OSM    H3F15251   0.303   5.070   3.008 -2.7973  0.5132 -0.6484
  140OSM    H3G15252   0.252   5.239   2.963  0.4110  0.9826  1.8533
  140OSM    C4F15253   0.460   5.216   3.055  0.1968  0.0669  0.6414
  140OSM    H4F15254   0.517   5.305   3.019  1.3082 -0.5720  0.7909
  140OSM    H4G15255   0.538   5.142   3.082  1.2059  1.6684  2.3213
  140OSM    C5F15256   0.399   5.262   3.191  0.0603  0.4871 -0.5908
  140OSM    H5F15257   0.330   5.188   3.237  1.3044  1.6739  3.5871
  140OSM    H5G15258   0.330   5.349   3.180 -1.2780 -0.3509  0.7427
  140OSM    C6F15259   0.515   5.309   3.282  0.5895 -0.1165  0.3462
  140OSM    H6F15260   0.550   5.392   3.217  0.4118 -1.5999 -1.7220
  140OSM    H6G15261   0.593   5.230   3.290  0.0516 -0.6775  0.1213
  140OSM    C7F15262   0.483   5.345   3.419 -0.3182 -0.0828 -0.0614
  140OSM    H7F15263   0.424   5.264   3.467 -0.9601 -0.0327 -0.7422
  140OSM    H7G15264   0.422   5.437   3.411 -3.7027 -2.0909  0.7585
  140OSM    C8F15265   0.605   5.367   3.512  0.7713  0.3076 -0.5737
  140OSM    H8F15266   0.677   5.425   3.450 -2.6772  1.9124 -3.4838
  140OSM    H8G15267   0.639   5.268   3.551 -0.2681  0.5442  1.0297
  140OSM    C9F15268   0.554   5.434   3.638  0.9650 -0.3512 -0.6356
  140OSM    H9F15269   0.489   5.520   3.615  2.7357  1.1021 -0.4321
  140OSM   C10F15270   0.586   5.418   3.769 -0.5276  0.4369 -0.3830
  140OSM   H10F15271   0.526   5.473   3.842  0.4443  1.2024 -0.1434
  140OSM   C11F15272   0.679   5.318   3.840 -0.1023 -0.4094 -0.2098
  140OSM   H11F15273   0.742   5.375   3.912  0.2319 -0.3842 -0.5177
  140OSM   H11G15274   0.747   5.273   3.765  1.7759 -0.9527  1.7438
  140OSM   C12F15275   0.604   5.211   3.913 -0.1075  0.3192  0.1286
  140OSM   H12F15276   0.676   5.131   3.941  0.5137  1.2690  1.3453
  140OSM   H12G15277   0.532   5.167   3.841 -1.4687  2.5229  0.0531
  140OSM   C13F15278   0.524   5.262   4.044  0.3174 -0.3541  0.5554
  140OSM   H13F15279   0.484   5.176   4.102  1.0558 -3.2633 -2.8682
  140OSM   H13G15280   0.436   5.321   4.010  1.3994  1.0088  0.0382
  140OSM   C14F15281   0.613   5.356   4.136  0.2460  0.0601 -0.2403
  140OSM   H14F15282   0.645   5.442   4.074 -2.7244  0.3575 -1.5260
  140OSM   H14G15283   0.695   5.296   4.183 -1.3528 -0.8495  1.5534
  140OSM   C15F15284   0.525   5.421   4.245 -0.0031 -0.1165 -0.2899
  140OSM   H15F15285   0.532   5.355   4.335  0.9740 -0.3507 -0.5344
  140OSM   H15G15286   0.422   5.443   4.210  0.9078  2.8681 -1.3924
  140OSM   C16F15287   0.580   5.553   4.295  0.2623  0.6980 -0.2852
  140OSM   H16F15288   0.690   5.563   4.305  0.1057  0.1202  3.4195
  140OSM   H16G15289   0.545   5.577   4.398  1.5604 -2.5497  1.0524
  140OSM   C17F15290   0.519   5.671   4.209  0.0870 -0.1986 -0.2692
  140OSM   H17F15291   0.411   5.660   4.185 -0.1634  2.9429 -0.9763
  140OSM   H17G15292   0.571   5.667   4.111  3.0751 -1.1372  1.2357
  140OSM   C18F15293   0.551   5.803   4.272 -0.2634 -0.2118 -0.0772
  140OSM   H18F15294   0.544   5.887   4.200 -0.4818 -0.8125 -0.7757
  140OSM   H18G15295   0.651   5.799   4.320 -0.5092 -0.7293  0.4108
  140OSM   H18H15296   0.484   5.819   4.359  2.8644 -0.8725  2.6157
  141OSM      N15297   1.963   3.173   2.117 -0.2229 -0.3985 -0.6467
  141OSM    C1515298   2.007   3.284   2.025  0.0514  0.0607 -0.0734
  141OSM   H15A15299   2.057   3.256   1.934 -1.3206  0.2591 -0.9189
  141OSM   H15B15300   2.061   3.362   2.077  2.7011 -1.0971 -0.9189
  141OSM   H15C15301   1.923   3.334   1.978  0.1122 -0.2294 -0.4944
  141OSM    C1415302   1.866   3.235   2.212 -0.0366  0.5656  0.9930
  141OSM   H14A15303   1.778   3.276   2.163  0.4617  1.5373  0.8912
  141OSM   H14B15304   1.913   3.315   2.266  1.6686  0.9168 -0.8912
  141OSM   H14C15305   1.821   3.156   2.271  0.7339  0.2821  1.2066
  141OSM    C1315306   1.890   3.075   2.042  0.3144 -0.4330  0.0425
  141OSM   H13A15307   1.867   2.993   2.109  1.5991  0.6330  1.8952
  141OSM   H13B15308   1.957   3.047   1.962 -0.0938  1.0911 -0.8590
  141OSM   H13C15309   1.793   3.113   2.014  0.1273  1.0990  2.4966
  141OSM    C1215310   2.086   3.112   2.191  0.4364 -0.3591 -0.2123
  141OSM   H12A15311   2.061   3.053   2.278  1.2052 -0.6807 -0.2030
  141OSM   H12B15312   2.151   3.190   2.227 -1.0249  0.2007  1.3607
  141OSM    C1115313   2.178   3.019   2.102 -0.2122  0.3889 -0.2927
  141OSM   H11A15314   2.280   3.008   2.146 -1.4304 -1.1666  2.3983
  141OSM   H11B15315   2.190   3.071   2.005 -0.1983  1.6100  0.3347
  141OSM      P15316   2.124   2.773   2.193 -0.0138 -0.4130  0.2368
  141OSM    O1315317   2.003   2.687   2.192  0.1803 -0.4887 -0.4205
  141OSM    O1415318   2.255   2.710   2.198 -0.3794 -0.2467 -0.0168
  141OSM    O1115319   2.129   2.860   2.328  0.0717 -0.4502 -0.3398
  141OSM    O1215320   2.117   2.892   2.083  0.0410  0.2249 -0.3292
  141OSM    C1S15321   2.059   2.831   2.443  0.3485 -0.4679 -0.2966
  141OSM    H1S15322   2.026   2.725   2.450 -1.3701  0.1529  3.3793
  141OSM    H1T15323   1.968   2.895   2.447 -0.5358 -1.7087  0.4029
  141OSM     NF15324   2.061   2.815   2.679 -0.5422  0.4008 -0.0604
  141OSM    HNF15325   2.004   2.882   2.727 -1.4379  0.7719 -1.5656
  141OSM    C2S15326   2.144   2.866   2.573  0.2720  0.1773  0.4742
  141OSM    H2S15327   2.245   2.822   2.558 -0.0972 -0.0951 -1.5023
  141OSM    C3S15328   2.181   3.019   2.587 -0.2736 -0.6079  0.3979
  141OSM    H3S15329   2.088   3.075   2.608 -0.2957  0.3265 -1.9184
  141OSM     O315330   2.238   3.078   2.472  0.1764  0.1306 -0.0549
  141OSM    HO315331   2.223   3.007   2.410 -0.4566 -0.1376  0.4030
  141OSM    C4S15332   2.259   3.044   2.715  0.1660 -0.1360 -0.3897
  141OSM    H4S15333   2.205   3.054   2.810 -1.6112  0.7587 -1.4233
  141OSM    C5S15334   2.396   3.062   2.714  0.8979 -0.7683 -0.2561
  141OSM    H5S15335   2.459   3.048   2.625 -0.3849 -1.3520 -1.0904
  141OSM    C6S15336   2.474   3.087   2.844  0.0923  0.0375 -0.0705
  141OSM    H6S15337   2.522   3.188   2.842  1.0340 -0.4044 -0.9989
  141OSM    H6T15338   2.556   3.014   2.860 -0.6466 -0.9508 -0.6858
  141OSM    C7S15339   2.397   3.059   2.971 -0.8326  0.0494 -0.2269
  141OSM    H7S15340   2.359   2.956   2.985  0.4386 -0.3975  0.1441
  141OSM    H7T15341   2.318   3.136   2.982 -0.0912  0.7388  0.4523
  141OSM    C8S15342   2.484   3.070   3.099  0.0576  0.2340 -0.2725
  141OSM    H8S15343   2.520   3.175   3.110  2.6722 -0.5639 -0.6695
  141OSM    H8T15344   2.566   2.996   3.095 -0.7960 -0.8348  0.9661
  141OSM    C9S15345   2.410   3.036   3.229 -0.8379  0.7031  0.1152
  141OSM    H9S15346   2.372   2.933   3.216  0.1049  0.5211 -1.4493
  141OSM    H9T15347   2.322   3.103   3.247 -1.7215 -0.8800  2.0268
  141OSM   C10S15348   2.501   3.052   3.347  0.1059 -0.6999 -1.0278
  141OSM   H10S15349   2.515   3.162   3.342 -0.6596 -0.6438 -2.3374
  141OSM   H10T15350   2.602   3.007   3.335  1.0817  1.4797 -1.4319
  141OSM   C11S15351   2.445   3.017   3.480  0.1187  1.2360  0.0286
  141OSM   H11S15352   2.442   2.906   3.471  0.4968  1.1926  0.3948
  141OSM   H11T15353   2.342   3.058   3.491  0.3132  2.0139 -0.9713
  141OSM   C12S15354   2.522   3.063   3.597  0.4456 -0.5909 -0.0652
  141OSM   H12S15355   2.541   3.173   3.586 -0.2343 -0.1531  2.4892
  141OSM   H12T15356   2.621   3.012   3.600  2.0297  2.2253  3.0552
  141OSM   C13S15357   2.448   3.044   3.732 -0.2734  0.5895  0.1537
  141OSM   H13S15358   2.433   2.934   3.739  0.6465  0.2130 -2.6314
  141OSM   H13T15359   2.355   3.104   3.735 -0.3044  0.5054  1.2434
  141OSM   C14S15360   2.539   3.089   3.849  0.4189  0.4729 -0.6367
  141OSM   H14S15361   2.532   3.200   3.852 -1.1444  0.3784  1.8590
  141OSM   H14T15362   2.644   3.062   3.824  0.7126 -0.3585  1.2581
  141OSM   C15S15363   2.487   3.025   3.980 -0.9224  0.1385 -0.2390
  141OSM   H15S15364   2.462   2.919   3.955 -3.0986  0.5957 -0.2054
  141OSM   H15T15365   2.382   3.056   3.996 -1.2716  1.1765 -3.7221
  141OSM   C16S15366   2.580   3.017   4.100  0.8142 -0.0421 -0.2068
  141OSM   H16S15367   2.573   3.114   4.154 -1.8621 -0.0302 -0.4116
  141OSM   H16T15368   2.679   2.999   4.052  0.8905  3.0327 -1.4601
  141OSM   C17S15369   2.545   2.917   4.211 -0.5819  0.6832  0.5996
  141OSM   H17S15370   2.635   2.900   4.274  0.0711  1.6129 -0.0447
  141OSM   H17T15371   2.538   2.822   4.154  2.9515 -0.1776  1.3217
  141OSM   C18S15372   2.424   2.944   4.288 -0.2239 -0.3423 -0.1193
  141OSM   H18S15373   2.344   2.972   4.217  0.3373 -0.5883 -0.8570
  141OSM   H18T15374   2.437   3.028   4.361 -0.0691 -0.1947 -0.3173
  141OSM   H18U15375   2.402   2.847   4.336  0.4878 -1.3868 -1.8203
  141OSM    C1F15376   2.061   2.687   2.715  0.9680  0.2606 -0.5660
  141OSM     OF15377   2.137   2.612   2.659  0.5331 -0.3102  1.0452
  141OSM    C2F15378   1.959   2.641   2.821  0.2338 -0.1690 -0.2897
  141OSM    H2F15379   1.858   2.675   2.790  0.8472 -0.0529 -2.3808
  141OSM    H2G15380   1.992   2.666   2.924  1.4840 -2.1816 -0.1417
  141OSM    C3F15381   1.956   2.488   2.826 -0.5371 -0.3171  0.1111
  141OSM    H3F15382   2.062   2.463   2.846 -0.3480  1.2545  1.2210
  141OSM    H3G15383   1.927   2.453   2.724 -2.9771  0.6572  0.3968
  141OSM    C4F15384   1.855   2.418   2.920  0.3875  0.1375  0.0153
  141OSM    H4F15385   1.874   2.460   3.021 -2.5878  2.9592 -0.4024
  141OSM    H4G15386   1.881   2.311   2.913  1.3191  0.2765  1.0806
  141OSM    C5F15387   1.708   2.439   2.881 -0.3692 -0.1432  0.8274
  141OSM    H5F15388   1.685   2.375   2.793 -2.1514 -0.3293  1.3819
  141OSM    H5G15389   1.690   2.544   2.848 -0.1551 -0.4053 -0.1530
  141OSM    C6F15390   1.617   2.407   2.990  0.9278  0.2445 -0.0999
  141OSM    H6F15391   1.609   2.477   3.076 -0.1268 -0.9407  0.8135
  141OSM    H6G15392   1.661   2.316   3.035  1.8390 -0.4690 -2.3259
  141OSM    C7F15393   1.473   2.390   2.941  0.4584  0.4884  0.4864
  141OSM    H7F15394   1.464   2.316   2.858  0.7520  1.0076 -0.0217
  141OSM    H7G15395   1.426   2.476   2.888 -0.1447 -0.2344 -0.1760
  141OSM    C8F15396   1.374   2.350   3.053 -0.4411 -0.0026 -0.0463
  141OSM    H8F15397   1.378   2.244   3.087  0.9820  0.7949  2.4812
  141OSM    H8G15398   1.275   2.347   3.001 -0.3777 -1.7071 -0.1522
  141OSM    C9F15399   1.381   2.436   3.168 -0.5162  0.8750  0.3784
  141OSM    H9F15400   1.333   2.532   3.142 -0.7166  0.2344 -1.8786
  141OSM   C10F15401   1.416   2.398   3.293 -0.0001  0.4797 -0.5477
  141OSM   H10F15402   1.390   2.479   3.363 -3.4964 -1.1320  0.2328
  141OSM   C11F15403   1.473   2.268   3.344  0.3952 -0.0247 -0.3012
  141OSM   H11F15404   1.565   2.276   3.406 -0.0222 -1.8553  0.6110
  141OSM   H11G15405   1.497   2.196   3.263 -0.8731  0.5122 -1.1879
  141OSM   C12F15406   1.364   2.197   3.442 -0.3716 -0.5057 -1.0830
  141OSM   H12F15407   1.393   2.093   3.467  0.7917  0.0563  0.0043
  141OSM   H12G15408   1.260   2.193   3.403 -1.2974 -1.7338  1.3302
  141OSM   C13F15409   1.373   2.270   3.580  0.6182  0.2640  0.7064
  141OSM   H13F15410   1.273   2.308   3.610  1.1829  0.0430  3.0191
  141OSM   H13G15411   1.436   2.359   3.558 -0.2783  0.3879 -1.7450
  141OSM   C14F15412   1.409   2.176   3.693  0.6448  0.3200 -0.0410
  141OSM   H14F15413   1.506   2.124   3.674  1.5839  1.3140  1.7224
  141OSM   H14G15414   1.341   2.089   3.706  2.9899 -1.4920  0.9054
  141OSM   C15F15415   1.415   2.242   3.830  0.4643 -0.1081  0.3942
  141OSM   H15F15416   1.428   2.156   3.900 -0.0328 -0.3308  0.2227
  141OSM   H15G15417   1.318   2.294   3.849  1.3751  1.8219 -0.0155
  141OSM   C16F15418   1.524   2.345   3.860 -0.4421 -0.3950  0.0484
  141OSM   H16F15419   1.482   2.419   3.931 -0.4520  1.3585 -1.7021
  141OSM   H16G15420   1.553   2.397   3.766  0.6400  0.2550  0.7321
  141OSM   C17F15421   1.649   2.282   3.926 -0.5988 -0.9020 -0.5042
  141OSM   H17F15422   1.732   2.326   3.865 -0.9837  1.0306  0.2994
  141OSM   H17G15423   1.660   2.173   3.906  1.0651 -0.6145 -1.3697
  141OSM   C18F15424   1.641   2.312   4.077  0.4500  0.0756  0.8562
  141OSM   H18F15425   1.728   2.257   4.120  0.4031 -1.0592 -0.4059
  141OSM   H18G15426   1.546   2.270   4.115  1.0235 -1.4654  0.6930
  141OSM   H18H15427   1.648   2.421   4.094 -1.3435  0.3091  0.2916
  142OSM      N15428   3.636   4.509   1.976 -0.7405  0.2849 -0.1406
  142OSM    C1515429   3.568   4.636   1.981 -0.8126 -0.8411  0.8040
  142OSM   H15A15430   3.463   4.621   2.000 -1.5183  2.7120  0.3262
  142OSM   H15B15431   3.583   4.689   1.888  2.0294 -1.9038  0.5458
  142OSM   H15C15432   3.616   4.705   2.048  0.8903  0.6200 -1.7696
  142OSM    C1415433   3.634   4.454   2.113 -0.4788  0.5777  0.0358
  142OSM   H14A15434   3.536   4.436   2.154 -0.2007  1.5178  1.1664
  142OSM   H14B15435   3.695   4.519   2.174  2.4297 -1.9035  0.0517
  142OSM   H14C15436   3.682   4.357   2.118  0.2456  0.9830  1.5176
  142OSM    C1315437   3.568   4.411   1.882  0.7113  0.5152  0.3365
  142OSM   H13A15438   3.559   4.463   1.787  0.5031 -0.7870 -0.3742
  142OSM   H13B15439   3.469   4.384   1.915  0.7411 -0.2358 -0.1585
  142OSM   H13C15440   3.627   4.321   1.875  0.5415  0.4196  0.1448
  142OSM    C1215441   3.781   4.522   1.942 -0.8589 -0.4001 -0.2159
  142OSM   H12A15442   3.791   4.538   1.835  2.3511  1.0687  0.1670
  142OSM   H12B15443   3.829   4.429   1.970 -1.8729 -0.8890 -0.0644
  142OSM    C1115444   3.857   4.637   2.023  0.3446 -0.4863  0.8173
  142OSM   H11A15445   3.799   4.730   2.008  0.6016 -0.6096 -1.1941
  142OSM   H11B15446   3.943   4.658   1.956 -1.4587  1.9912 -0.8629
  142OSM      P15447   3.986   4.509   2.204  0.1384 -0.2832 -0.2343
  142OSM    O1315448   3.911   4.403   2.273  0.5498 -0.5850  0.1484
  142OSM    O1415449   4.078   4.459   2.096 -0.6332  0.0703  0.1620
  142OSM    O1115450   4.066   4.595   2.310  0.1183 -0.0243 -0.7403
  142OSM    O1215451   3.888   4.622   2.161  0.4596 -0.1310  1.0796
  142OSM    C1S15452   4.024   4.659   2.429 -0.5871  0.3202 -0.5033
  142OSM    H1S15453   3.934   4.610   2.472 -1.2303  2.1152  0.2658
  142OSM    H1T15454   4.013   4.767   2.409  1.3402  0.1778 -2.6288
  142OSM     NF15455   4.082   4.685   2.669  0.5475 -0.6295  0.2764
  142OSM    HNF15456   4.107   4.777   2.700  0.0003  0.7487 -2.9150
  142OSM    C2S15457   4.138   4.648   2.538 -0.6286  0.1710 -0.3599
  142OSM    H2S15458   4.160   4.539   2.541 -0.6633  0.1750  2.7227
  142OSM    C3S15459   4.263   4.731   2.487  0.2622 -0.1289 -0.4286
  142OSM    H3S15460   4.230   4.837   2.490 -0.0811 -0.2553  0.5439
  142OSM     O315461   4.303   4.704   2.354 -0.3427  0.1170  0.8016
  142OSM    HO315462   4.223   4.664   2.319  0.6279 -0.8242 -0.4491
  142OSM    C4S15463   4.370   4.727   2.586  0.5487  0.1989  0.5795
  142OSM    H4S15464   4.364   4.795   2.672 -2.0708 -0.0399  0.6800
  142OSM    C5S15465   4.475   4.648   2.587 -0.1197 -0.1112 -0.1803
  142OSM    H5S15466   4.486   4.571   2.509  3.0573  0.7039 -0.6757
  142OSM    C6S15467   4.584   4.656   2.692 -0.1760 -0.0726 -0.5923
  142OSM    H6S15468   4.672   4.700   2.640  0.5361  0.5057  1.0349
  142OSM    H6T15469   4.613   4.557   2.733 -0.9183  0.7830  2.1818
  142OSM    C7S15470   4.569   4.741   2.827 -0.3171 -0.0933  0.5368
  142OSM    H7S15471   4.511   4.835   2.814  0.2515  0.9559  4.2580
  142OSM    H7T15472   4.674   4.770   2.851  0.4630 -1.2491 -1.2614
  142OSM    C8S15473   4.512   4.663   2.946  0.2396  0.1234 -0.0926
  142OSM    H8S15474   4.567   4.567   2.941  1.8400  0.9828  0.5373
  142OSM    H8T15475   4.405   4.648   2.918 -0.0218  0.1368  0.8681
  142OSM    C9S15476   4.536   4.719   3.091 -0.5488  0.7952  0.0690
  142OSM    H9S15477   4.474   4.811   3.102 -0.3992  0.8393  0.5389
  142OSM    H9T15478   4.641   4.755   3.090  0.4673 -1.8688  1.4694
  142OSM   C10S15479   4.508   4.631   3.210  0.1304 -0.0671  0.1695
  142OSM   H10S15480   4.561   4.533   3.208 -0.4050 -0.4154  1.5068
  142OSM   H10T15481   4.403   4.594   3.213  0.3004 -0.7086 -1.0105
  142OSM   C11S15482   4.520   4.702   3.344 -0.1889 -0.5769 -0.4806
  142OSM   H11S15483   4.452   4.789   3.353  0.1139 -0.1326 -2.1263
  142OSM   H11T15484   4.617   4.756   3.344  0.1746 -1.2190 -0.4369
  142OSM   C12S15485   4.502   4.610   3.464  0.3253 -0.6448  0.2094
  142OSM   H12S15486   4.574   4.525   3.457  1.0791 -0.0341  0.4463
  142OSM   H12T15487   4.400   4.567   3.454  0.2495 -0.2018 -1.2752
  142OSM   C13S15488   4.513   4.665   3.606 -0.2710 -0.1985  0.4946
  142OSM   H13S15489   4.468   4.766   3.615 -0.5237 -0.2416 -0.2159
  142OSM   H13T15490   4.621   4.683   3.625  0.7086 -3.5588 -1.1205
  142OSM   C14S15491   4.451   4.577   3.712 -0.1373  0.1497 -0.2723
  142OSM   H14S15492   4.502   4.478   3.707 -1.8859 -0.7601 -0.6570
  142OSM   H14T15493   4.345   4.555   3.688  0.5961 -0.9787 -2.8536
  142OSM   C15S15494   4.467   4.630   3.855  0.0580 -0.1733  0.3312
  142OSM   H15S15495   4.416   4.729   3.854  0.4523  0.2360 -4.5684
  142OSM   H15T15496   4.577   4.632   3.874  0.3461 -1.1317 -1.0921
  142OSM   C16S15497   4.403   4.542   3.955  0.3786 -0.0730  0.6946
  142OSM   H16S15498   4.393   4.444   3.904 -0.1680  0.0181  0.6207
  142OSM   H16T15499   4.302   4.582   3.979  0.0878 -1.2805  1.5675
  142OSM   C17S15500   4.484   4.528   4.082  0.0110  0.0839  0.4898
  142OSM   H17S15501   4.424   4.476   4.159  0.8062 -3.6410 -1.2016
  142OSM   H17T15502   4.515   4.629   4.118  2.3221 -0.5299  0.3863
  142OSM   C18S15503   4.608   4.437   4.069  0.1098 -0.0407  0.2496
  142OSM   H18S15504   4.585   4.329   4.061  0.4228 -0.1447  0.7214
  142OSM   H18T15505   4.673   4.441   4.159 -0.1042  1.0502  0.3709
  142OSM   H18U15506   4.677   4.467   3.987  1.9237 -2.1592  0.9162
  142OSM    C1F15507   3.998   4.613   2.737 -0.0669 -0.1895 -0.6011
  142OSM     OF15508   3.952   4.510   2.690  0.0851  0.0454 -0.1939
  142OSM    C2F15509   3.962   4.657   2.879 -0.5516 -0.1775  0.4183
  142OSM    H2F15510   3.851   4.652   2.880 -0.7423  2.3193 -0.2803
  142OSM    H2G15511   3.996   4.762   2.895  0.1637  0.0025 -1.8929
  142OSM    C3F15512   4.020   4.564   2.987 -0.1732  0.5331  0.1735
  142OSM    H3F15513   4.130   4.577   2.987 -0.3331  2.5812 -2.0425
  142OSM    H3G15514   3.997   4.459   2.961 -0.5766  0.3956  1.0576
  142OSM    C4F15515   3.955   4.591   3.129  0.9033 -0.8302 -0.2218
  142OSM    H4F15516   3.868   4.524   3.145  0.9122 -0.7283  0.2577
  142OSM    H4G15517   3.927   4.698   3.128  0.8800 -0.8188  1.0138
  142OSM    C5F15518   4.056   4.552   3.236  0.1972  0.0195 -0.4053
  142OSM    H5F15519   4.148   4.611   3.216 -1.5657  1.9151 -4.0944
  142OSM    H5G15520   4.092   4.448   3.228  0.7259  0.2024 -0.4283
  142OSM    C6F15521   4.009   4.582   3.381  0.1535  0.4803  0.4461
  142OSM    H6F15522   3.918   4.520   3.397 -0.1745  0.9682  0.4890
  142OSM    H6G15523   3.990   4.690   3.366 -2.0556 -0.2565 -3.9139
  142OSM    C7F15524   4.110   4.549   3.493 -0.1003 -0.2697 -0.5817
  142OSM    H7F15525   4.200   4.611   3.474  0.2080 -0.9095 -1.2685
  142OSM    H7G15526   4.148   4.444   3.492  1.5783  0.1604  2.8163
  142OSM    C8F15527   4.047   4.557   3.635 -0.5613 -0.3294 -0.0375
  142OSM    H8F15528   3.977   4.642   3.624  0.1072  0.4515  1.5222
  142OSM    H8G15529   4.126   4.579   3.710 -0.5136 -0.3180 -0.0903
  142OSM    C9F15530   3.959   4.437   3.661 -0.2340 -0.2754  0.4096
  142OSM    H9F15531   3.894   4.411   3.576  1.2972 -0.1118 -0.8473
  142OSM   C10F15532   3.989   4.344   3.751 -0.1953 -0.0275  0.8098
  142OSM   H10F15533   3.918   4.261   3.766  0.7329 -0.9085  0.3941
  142OSM   C11F15534   4.105   4.370   3.853  0.4118 -0.3342  0.8687
  142OSM   H11F15535   4.107   4.478   3.880 -0.5441  0.2254 -1.1282
  142OSM   H11G15536   4.204   4.357   3.805 -0.8259  0.6115 -2.2268
  142OSM   C12F15537   4.074   4.283   3.973  0.2004 -0.2867 -0.0435
  142OSM   H12F15538   4.172   4.288   4.025  1.7228 -2.0061 -2.5158
  142OSM   H12G15539   4.048   4.176   3.955 -2.3257  0.1151  0.8356
  142OSM   C13F15540   3.978   4.335   4.078  0.0407  0.2215  0.3806
  142OSM   H13F15541   3.988   4.258   4.157  0.8444  1.4247  1.4921
  142OSM   H13G15542   3.878   4.325   4.029 -0.6909 -1.7237  2.1017
  142OSM   C14F15543   4.010   4.471   4.127 -0.4620 -0.1802  0.3382
  142OSM   H14F15544   4.004   4.550   4.049 -0.5360 -0.3850  0.1335
  142OSM   H14G15545   4.112   4.482   4.170  0.3222 -2.3536 -0.7837
  142OSM   C15F15546   3.907   4.517   4.232  0.1729 -0.4861  0.6220
  142OSM   H15F15547   3.928   4.485   4.336 -0.2580  0.6777  1.0793
  142OSM   H15G15548   3.813   4.472   4.194 -0.2303  2.8895 -2.9205
  142OSM   C16F15549   3.880   4.669   4.237 -0.1950 -0.3063  0.3958
  142OSM   H16F15550   3.858   4.704   4.134 -0.6151  0.2144  0.6548
  142OSM   H16G15551   3.974   4.717   4.271  0.0226  0.5436 -1.3088
  142OSM   C17F15552   3.760   4.711   4.324  0.6578 -0.5528  0.0333
  142OSM   H17F15553   3.664   4.710   4.268 -0.4644  0.1052  1.8600
  142OSM   H17G15554   3.777   4.816   4.354  0.6058 -0.5977  0.2238
  142OSM   C18F15555   3.730   4.630   4.446  0.0858 -0.3293 -0.0748
  142OSM   H18F15556   3.645   4.676   4.501  0.7657  0.1066  0.6436
  142OSM   H18G15557   3.810   4.638   4.523 -1.7190 -1.1203  1.9741
  142OSM   H18H15558   3.702   4.529   4.409 -3.7785  0.0874  1.2165
  143OSM      N15559   2.262   3.485   1.478  0.6667  0.0880 -0.4203
  143OSM    C1515560   2.125   3.423   1.504 -0.2507  0.3142  0.1146
  143OSM   H15A15561   2.063   3.473   1.577 -0.4448 -4.0246  3.3501
  143OSM   H15B15562   2.142   3.330   1.556 -2.1481 -0.1506 -0.0356
  143OSM   H15C15563   2.067   3.402   1.415  1.4107  1.9657 -1.4506
  143OSM    C1415564   2.320   3.410   1.357  0.3021  0.1607 -0.0095
  143OSM   H14A15565   2.264   3.435   1.268  0.9169 -1.0976 -0.7807
  143OSM   H14B15566   2.301   3.304   1.359 -3.0862  0.4700 -3.3764
  143OSM   H14C15567   2.418   3.448   1.333  1.0332 -3.1294 -3.0156
  143OSM    C1315568   2.245   3.620   1.442 -0.0650 -0.6239  0.7234
  143OSM   H13A15569   2.210   3.689   1.516 -1.5201 -0.3188 -0.2085
  143OSM   H13B15570   2.186   3.626   1.352 -0.1008 -1.4205  0.6808
  143OSM   H13C15571   2.339   3.661   1.406 -0.8328 -1.0821 -2.0425
  143OSM    C1215572   2.347   3.459   1.599 -0.1764  0.3696 -0.8720
  143OSM   H12A15573   2.446   3.495   1.580  0.1434  1.0328  1.7222
  143OSM   H12B15574   2.367   3.353   1.606 -0.6996  0.2226 -1.4544
  143OSM    C1115575   2.303   3.513   1.739 -0.2870 -0.4147 -0.3911
  143OSM   H11A15576   2.381   3.484   1.812 -0.8612 -0.0673  0.3670
  143OSM   H11B15577   2.209   3.466   1.774 -0.8921  0.9949 -0.0777
  143OSM      P15578   2.328   3.755   1.827 -0.5332  0.0508  0.3336
  143OSM    O1315579   2.471   3.800   1.798  0.0308  0.5982  0.4837
  143OSM    O1415580   2.228   3.865   1.821 -0.4049 -0.3621 -0.0517
  143OSM    O1115581   2.320   3.685   1.959 -0.2921 -0.3505  0.2513
  143OSM    O1215582   2.288   3.649   1.726  0.0693  0.1381 -0.0484
  143OSM    C1S15583   2.412   3.691   2.064  0.2252 -0.2227 -0.0723
  143OSM    H1S15584   2.444   3.797   2.072 -1.2107  0.2443 -0.2048
  143OSM    H1T15585   2.502   3.633   2.034 -0.0702 -1.2081  0.8903
  143OSM     NF15586   2.456   3.679   2.302 -0.4428  0.2840  0.8838
  143OSM    HNF15587   2.511   3.601   2.330 -1.5483 -0.7439  0.2606
  143OSM    C2S15588   2.355   3.643   2.199 -0.2578 -0.6547 -0.0131
  143OSM    H2S15589   2.262   3.700   2.220 -1.8629 -3.2713  0.3673
  143OSM    C3S15590   2.321   3.494   2.203 -0.0372  0.4339 -0.1567
  143OSM    H3S15591   2.420   3.446   2.205  0.1729  0.8805  0.9009
  143OSM     O315592   2.268   3.432   2.085 -0.2816 -0.8114  0.2269
  143OSM    HO315593   2.266   3.510   2.028 -0.9448 -0.5927  0.5474
  143OSM    C4S15594   2.251   3.455   2.327  0.5276  0.2548  0.3260
  143OSM    H4S15595   2.315   3.423   2.411 -0.8390  0.9286  1.6715
  143OSM    C5S15596   2.124   3.478   2.362  0.3989  0.8672 -0.8793
  143OSM    H5S15597   2.059   3.529   2.289 -1.1601 -0.2909 -0.3418
  143OSM    C6S15598   2.082   3.454   2.499 -0.2845 -0.3623  0.0494
  143OSM    H6S15599   2.089   3.344   2.513 -0.5714 -0.2306  1.3476
  143OSM    H6T15600   1.977   3.490   2.501 -1.3708 -3.2636  0.3854
  143OSM    C7S15601   2.172   3.506   2.613  0.5500  0.2406  0.2225
  143OSM    H7S15602   2.163   3.616   2.629 -0.0659  0.0922  0.9162
  143OSM    H7T15603   2.279   3.476   2.600  0.7886  1.3099 -0.4785
  143OSM    C8S15604   2.130   3.450   2.751  0.6175 -0.0638  0.2992
  143OSM    H8S15605   2.155   3.341   2.751  1.6661  0.1576 -0.8076
  143OSM    H8T15606   2.023   3.470   2.772  0.6594  0.0365  0.4182
  143OSM    C9S15607   2.213   3.528   2.859  0.0114  0.1792  0.4478
  143OSM    H9S15608   2.238   3.632   2.828  0.6096 -0.6914 -2.2699
  143OSM    H9T15609   2.311   3.477   2.870  0.6696  0.9478 -1.4676
  143OSM   C10S15610   2.140   3.534   2.995 -0.0933  0.5448  0.1627
  143OSM   H10S15611   2.033   3.550   2.967 -0.1023  1.6913  0.7928
  143OSM   H10T15612   2.189   3.624   3.038  2.6135 -0.8035  0.0846
  143OSM   C11S15613   2.153   3.408   3.082 -0.0007 -0.3479 -0.1675
  143OSM   H11S15614   2.252   3.358   3.071  1.3478  2.2250 -0.3199
  143OSM   H11T15615   2.083   3.324   3.061  2.5636 -2.7434  0.1614
  143OSM   C12S15616   2.125   3.444   3.224 -0.5832  0.2871 -0.0145
  143OSM   H12S15617   2.088   3.357   3.283 -1.3030  0.1576 -0.6426
  143OSM   H12T15618   2.047   3.523   3.226 -0.8513  0.0984  3.1402
  143OSM   C13S15619   2.254   3.488   3.295  0.2248  0.2753  0.5060
  143OSM   H13S15620   2.296   3.576   3.241  2.3523  0.2237  1.9357
  143OSM   H13T15621   2.331   3.409   3.282  0.2335  0.4221 -0.3995
  143OSM   C14S15622   2.235   3.515   3.447 -0.1646 -0.1126  0.2989
  143OSM   H14S15623   2.138   3.566   3.464  1.0949  2.7621 -0.5087
  143OSM   H14T15624   2.307   3.588   3.488 -1.0599  1.5401 -0.9497
  143OSM   C15S15625   2.227   3.388   3.530 -0.0519  0.2414  0.0336
  143OSM   H15S15626   2.311   3.318   3.510 -1.2762 -1.4324  0.4850
  143OSM   H15T15627   2.146   3.323   3.491  0.7457 -1.1395  0.5513
  143OSM   C16S15628   2.216   3.406   3.684  0.1391  0.3293  0.0892
  143OSM   H16S15629   2.187   3.307   3.726  0.8149 -0.5435 -1.4091
  143OSM   H16T15630   2.142   3.488   3.690  2.2413  2.4953 -1.8185
  143OSM   C17S15631   2.339   3.440   3.752 -0.2382 -0.3398 -0.7285
  143OSM   H17S15632   2.371   3.542   3.721  1.9014 -1.1206 -1.2674
  143OSM   H17T15633   2.426   3.379   3.720  0.4460 -0.5678  1.4184
  143OSM   C18S15634   2.324   3.450   3.910 -0.1411  0.1235  0.8318
  143OSM   H18S15635   2.226   3.494   3.937 -0.0674  1.3966 -0.8116
  143OSM   H18T15636   2.404   3.516   3.949 -0.2713  1.8555 -1.5832
  143OSM   H18U15637   2.340   3.349   3.955  1.0333  0.5330  1.3708
  143OSM    C1F15638   2.459   3.789   2.368 -0.2910  0.1469 -1.0760
  143OSM     OF15639   2.379   3.883   2.342 -0.2603  0.2380  0.3634
  143OSM    C2F15640   2.557   3.784   2.481  0.4736 -0.0962  0.0201
  143OSM    H2F15641   2.657   3.818   2.445  0.7427  1.6374  2.2539
  143OSM    H2G15642   2.553   3.679   2.518 -1.4547 -0.2460 -0.5122
  143OSM    C3F15643   2.503   3.870   2.596 -0.0028  0.4130 -0.6950
  143OSM    H3F15644   2.401   3.837   2.625  0.9422 -2.4757 -0.2739
  143OSM    H3G15645   2.495   3.977   2.567 -2.1308  0.7132  0.7568
  143OSM    C4F15646   2.574   3.846   2.731 -0.0198  0.0646  0.1433
  143OSM    H4F15647   2.563   3.744   2.774  0.4169  0.1013  0.3497
  143OSM    H4G15648   2.528   3.910   2.809  1.0003 -1.2606  1.9263
  143OSM    C5F15649   2.721   3.883   2.711 -0.1216 -0.7076 -0.4256
  143OSM    H5F15650   2.720   3.985   2.668 -2.2714 -0.2231  0.6257
  143OSM    H5G15651   2.776   3.824   2.635 -0.9310 -1.9401 -0.0922
  143OSM    C6F15652   2.786   3.893   2.852  0.1800  0.8353  0.3451
  143OSM    H6F15653   2.895   3.874   2.838 -0.2557  0.0283 -2.9157
  143OSM    H6G15654   2.745   3.805   2.906  1.5716 -0.6854 -0.9736
  143OSM    C7F15655   2.750   4.017   2.930 -0.2206  0.1582  0.5387
  143OSM    H7F15656   2.640   4.033   2.932 -0.3150 -0.1611 -1.0426
  143OSM    H7G15657   2.792   4.104   2.876  1.4950 -1.0463 -0.1296
  143OSM    C8F15658   2.814   4.018   3.070  0.0536 -0.3376 -0.0241
  143OSM    H8F15659   2.922   4.038   3.054  0.0059 -1.1731 -1.5371
  143OSM    H8G15660   2.813   3.916   3.113  1.5864 -0.3854 -0.0606
  143OSM    C9F15661   2.748   4.123   3.155 -0.2770 -0.0744  0.5586
  143OSM    H9F15662   2.710   4.208   3.097  0.5257  0.5249  0.9009
  143OSM   C10F15663   2.724   4.114   3.283 -0.1514  0.5075 -0.4258
  143OSM   H10F15664   2.670   4.189   3.343 -2.9354  0.5583 -2.7660
  143OSM   C11F15665   2.755   3.995   3.372  0.3097  0.3899  0.1132
  143OSM   H11F15666   2.836   3.927   3.338  0.7750 -0.5598  2.8991
  143OSM   H11G15667   2.670   3.926   3.388  0.1130  0.3208 -1.0812
  143OSM   C12F15668   2.804   4.053   3.501  0.5952 -1.0210  0.5337
  143OSM   H12F15669   2.726   4.119   3.545 -1.3463 -2.6738 -0.2374
  143OSM   H12G15670   2.891   4.119   3.482 -1.2473  0.9474 -1.5503
  143OSM   C13F15671   2.849   3.942   3.605  0.2278 -0.3120  0.1067
  143OSM   H13F15672   2.916   3.868   3.556 -0.2270  0.7041 -2.1850
  143OSM   H13G15673   2.759   3.891   3.646  1.1195 -0.3793  2.0604
  143OSM   C14F15674   2.941   3.982   3.723  0.2054  0.0553 -0.1988
  143OSM   H14F15675   3.037   4.014   3.677  0.9784 -1.1903  0.4874
  143OSM   H14G15676   2.963   3.891   3.783 -2.3930 -0.6944 -0.2758
  143OSM   C15F15677   2.880   4.099   3.817 -0.0809 -0.2929  0.2309
  143OSM   H15F15678   2.770   4.088   3.810 -0.3272  2.1661 -0.8112
  143OSM   H15G15679   2.907   4.195   3.768 -0.0898 -1.2182 -1.6520
  143OSM   C16F15680   2.930   4.100   3.965 -0.0818 -0.2559  0.0998
  143OSM   H16F15681   3.040   4.119   3.965  0.4030 -2.7003 -0.9154
  143OSM   H16G15682   2.918   3.994   3.995 -2.8158 -0.1459 -0.3740
  143OSM   C17F15683   2.859   4.196   4.054  0.0105 -0.7181 -0.6371
  143OSM   H17F15684   2.814   4.124   4.127  0.9990 -1.9828 -1.2340
  143OSM   H17G15685   2.777   4.241   3.993  0.9273 -0.3335 -1.6096
  143OSM   C18F15686   2.947   4.310   4.108  0.1448 -0.0427 -1.3348
  143OSM   H18F15687   2.903   4.350   4.202 -0.1547 -1.6647 -0.7520
  143OSM   H18G15688   2.959   4.392   4.033 -1.5709  0.8906 -0.6482
  143OSM   H18H15689   3.045   4.263   4.130  0.9937  1.4361 -1.8382
  144OSM      N15690   1.938   4.859   2.038  0.9614  0.0669  0.9428
  144OSM    C1515691   1.855   4.764   1.964  0.0780 -0.1941 -0.1976
  144OSM   H15A15692   1.759   4.807   1.937  0.8308  1.3538 -0.5608
  144OSM   H15B15693   1.816   4.686   2.027 -1.4120  0.2724 -0.4956
  144OSM   H15C15694   1.905   4.726   1.876  1.8482  1.2286  0.1404
  144OSM    C1415695   1.957   4.984   1.945  0.9486 -0.2501  0.4866
  144OSM   H14A15696   1.982   5.071   2.004  0.9627  0.1881 -0.1536
  144OSM   H14B15697   1.859   4.999   1.902  0.4924 -4.0522 -0.1670
  144OSM   H14C15698   2.028   4.970   1.866 -0.9590  0.0552 -1.3733
  144OSM    C1315699   1.853   4.893   2.157 -0.1063 -0.4078 -0.0805
  144OSM   H13A15700   1.749   4.910   2.136 -0.2645 -0.5481  0.5511
  144OSM   H13B15701   1.876   4.989   2.203 -0.3550  0.1043 -0.9986
  144OSM   H13C15702   1.849   4.812   2.228 -0.1185  0.4342  0.9155
  144OSM    C1215703   2.069   4.805   2.079  0.4572  0.2275 -0.1913
  144OSM   H12A15704   2.043   4.717   2.136 -1.5967  2.6577  2.9855
  144OSM   H12B15705   2.122   4.857   2.157  1.1343 -0.7812  0.0496
  144OSM    C1115706   2.173   4.769   1.967  0.3482 -0.3111  0.2857
  144OSM   H11A15707   2.135   4.705   1.885  1.7321 -0.8744  0.0524
  144OSM   H11B15708   2.246   4.707   2.023 -0.3419 -1.4722 -0.0615
  144OSM      P15709   2.329   4.985   1.984  0.2603 -0.1834 -0.2842
  144OSM    O1315710   2.419   5.047   1.884 -0.3580  0.0883 -0.4611
  144OSM    O1415711   2.245   5.080   2.061 -0.4933 -0.3941  0.3966
  144OSM    O1115712   2.407   4.897   2.085  0.1131  0.6605 -0.6402
  144OSM    O1215713   2.234   4.881   1.910  0.0438  0.1320 -0.1198
  144OSM    C1S15714   2.514   4.965   2.162  1.1542 -0.5838  0.3913
  144OSM    H1S15715   2.494   5.073   2.177  3.4304  0.2906 -2.0250
  144OSM    H1T15716   2.605   4.968   2.099  0.9475  0.3226  0.1336
  144OSM     NF15717   2.608   4.972   2.402  0.2546 -0.5947  0.0718
  144OSM    HNF15718   2.708   4.976   2.404  0.3472 -1.0418 -2.0047
  144OSM    C2S15719   2.538   4.894   2.298 -0.2655 -0.0564 -0.6997
  144OSM    H2S15720   2.436   4.875   2.338  0.8090 -2.9565  0.9638
  144OSM    C3S15721   2.603   4.756   2.280 -0.2040  0.8308  0.2494
  144OSM    H3S15722   2.702   4.766   2.231  0.8282 -1.2494  1.7823
  144OSM     O315723   2.518   4.680   2.191  0.5637 -0.2321  0.1732
  144OSM    HO315724   2.466   4.754   2.159  0.2047  0.9234  3.1055
  144OSM    C4S15725   2.605   4.676   2.407 -0.0370 -0.4412  0.7532
  144OSM    H4S15726   2.507   4.661   2.455  0.9170  0.3280  3.0514
  144OSM    C5S15727   2.721   4.655   2.475  0.2357  0.6925 -0.3915
  144OSM    H5S15728   2.808   4.704   2.428  0.9011  1.7217  1.7844
  144OSM    C6S15729   2.733   4.582   2.607 -0.2239 -0.0097 -0.2654
  144OSM    H6S15730   2.838   4.563   2.636  0.5690  0.7515 -2.4784
  144OSM    H6T15731   2.689   4.480   2.595  0.4927 -0.5606  1.4034
  144OSM    C7S15732   2.647   4.654   2.719 -0.2882  0.4527 -0.6570
  144OSM    H7S15733   2.643   4.584   2.806  2.2992 -0.2640 -1.0381
  144OSM    H7T15734   2.547   4.666   2.672 -0.6026  0.7449  0.0700
  144OSM    C8S15735   2.713   4.783   2.758  0.2911  0.6990 -0.1384
  144OSM    H8S15736   2.748   4.846   2.673  1.2604 -0.1031 -0.3580
  144OSM    H8T15737   2.800   4.765   2.825  0.5019  1.6713 -0.1331
  144OSM    C9S15738   2.620   4.855   2.853  0.1570  0.0896 -0.4612
  144OSM    H9S15739   2.524   4.880   2.802 -0.1872  0.8434  0.5267
  144OSM    H9T15740   2.669   4.949   2.886  2.7640 -1.6960  1.1467
  144OSM   C10S15741   2.598   4.784   2.991 -0.2789  0.7177  0.1760
  144OSM   H10S15742   2.696   4.741   3.021 -0.0989  1.0311  0.0405
  144OSM   H10T15743   2.521   4.704   2.980 -0.4814  1.0281 -0.6693
  144OSM   C11S15744   2.564   4.883   3.107 -0.1276  0.1289  0.6254
  144OSM   H11S15745   2.473   4.942   3.081 -0.4203 -0.5024  0.1804
  144OSM   H11T15746   2.652   4.950   3.121  0.2330 -0.4584  1.2120
  144OSM   C12S15747   2.535   4.816   3.248 -0.7847 -0.4536  0.4878
  144OSM   H12S15748   2.635   4.803   3.295 -0.1312  3.6063  0.5969
  144OSM   H12T15749   2.473   4.727   3.224  0.5512 -0.7441 -2.3315
  144OSM   C13S15750   2.458   4.908   3.345  0.2696 -0.3658  0.9272
  144OSM   H13S15751   2.370   4.949   3.291  0.3788  2.0873  2.4636
  144OSM   H13T15752   2.528   4.992   3.365 -1.6493  1.3493  0.7814
  144OSM   C14S15753   2.433   4.853   3.476  1.0324  0.0272 -0.3202
  144OSM   H14S15754   2.531   4.838   3.525  0.7600  2.1406  1.0016
  144OSM   H14T15755   2.375   4.759   3.462  0.4081 -0.0066  2.0356
  144OSM   C15S15756   2.342   4.937   3.567  0.1369 -0.1799  0.3960
  144OSM   H15S15757   2.259   4.986   3.512 -0.0910 -1.9943 -0.9479
  144OSM   H15T15758   2.404   5.022   3.604 -0.6157 -0.2684  1.9779
  144OSM   C16S15759   2.299   4.864   3.686 -0.1984  0.6246  1.1030
  144OSM   H16S15760   2.373   4.803   3.742 -0.5375 -3.5979 -2.5587
  144OSM   H16T15761   2.211   4.807   3.650  0.4666  1.2134 -1.6831
  144OSM   C17S15762   2.230   4.959   3.788 -0.4030 -0.2001  0.7044
  144OSM   H17S15763   2.179   4.887   3.855 -1.9599  0.4673  0.2899
  144OSM   H17T15764   2.149   5.025   3.750 -0.7421 -1.0582 -0.0917
  144OSM   C18S15765   2.330   5.039   3.875  0.7328 -0.3468  0.0819
  144OSM   H18S15766   2.365   5.136   3.835  2.1975 -0.5668  0.7413
  144OSM   H18T15767   2.419   4.977   3.898  3.1190  2.8797  0.2425
  144OSM   H18U15768   2.272   5.068   3.965 -0.2895 -0.6363 -0.4655
  144OSM    C1F15769   2.546   5.080   2.457 -1.0185 -0.7644 -0.0857
  144OSM     OF15770   2.436   5.113   2.418 -0.0022  0.0506 -0.5242
  144OSM    C2F15771   2.624   5.164   2.562 -0.8154  0.9246  0.0599
  144OSM    H2F15772   2.709   5.221   2.520 -1.1263  2.5818  1.5669
  144OSM    H2G15773   2.654   5.087   2.635  0.2500  2.1373  0.9362
  144OSM    C3F15774   2.527   5.273   2.614 -0.1969  0.1301 -0.5912
  144OSM    H3F15775   2.461   5.223   2.688  0.0171 -0.2089 -0.6253
  144OSM    H3G15776   2.471   5.325   2.534 -1.0352  0.6467  0.3101
  144OSM    C4F15777   2.619   5.372   2.689  0.8645 -0.2241 -0.0096
  144OSM    H4F15778   2.666   5.438   2.612 -0.7175  0.8519 -0.0981
  144OSM    H4G15779   2.704   5.332   2.749  2.1058  3.5679  1.0352
  144OSM    C5F15780   2.544   5.461   2.790  0.2456  0.2607  0.2867
  144OSM    H5F15781   2.470   5.518   2.731  1.6373  3.4224  1.3733
  144OSM    H5G15782   2.602   5.542   2.839  0.3560  0.5794 -0.3611
  144OSM    C6F15783   2.475   5.379   2.900  0.2182 -0.2304  0.0032
  144OSM    H6F15784   2.397   5.311   2.860 -1.4677  1.9067 -0.5558
  144OSM    H6G15785   2.433   5.445   2.979  2.5673 -0.0413  1.2012
  144OSM    C7F15786   2.581   5.305   2.988  0.2005 -0.8291 -0.2540
  144OSM    H7F15787   2.676   5.363   2.999  0.0187 -0.6295  0.2935
  144OSM    H7G15788   2.611   5.212   2.935  1.5964  0.7970 -2.5317
  144OSM    C8F15789   2.528   5.277   3.126 -0.3047  0.2229  0.3739
  144OSM    H8F15790   2.596   5.198   3.164 -0.8646 -0.9646 -0.9961
  144OSM    H8G15791   2.430   5.225   3.125 -0.7192  0.9853 -0.5619
  144OSM    C9F15792   2.526   5.403   3.214  0.2855  0.0653 -0.9513
  144OSM    H9F15793   2.526   5.501   3.163 -2.2843  0.3205 -0.5870
  144OSM   C10F15794   2.500   5.416   3.342 -0.0376  0.0328  0.5378
  144OSM   H10F15795   2.484   5.516   3.384 -2.2401  0.1175 -0.3797
  144OSM   C11F15796   2.462   5.300   3.435  0.6547  0.3313  0.3897
  144OSM   H11F15797   2.536   5.291   3.518 -0.2635  1.6494  1.3861
  144OSM   H11G15798   2.475   5.202   3.383  0.7572  0.2167  0.6245
  144OSM   C12F15799   2.319   5.316   3.495 -0.5956  0.3723  0.2390
  144OSM   H12F15800   2.282   5.214   3.517 -1.0882  0.4002 -0.4329
  144OSM   H12G15801   2.257   5.352   3.410  0.9272 -0.1929 -1.1589
  144OSM   C13F15802   2.311   5.408   3.616 -1.0397 -0.7179 -0.1316
  144OSM   H13F15803   2.344   5.507   3.580 -0.4613 -1.3362 -1.3589
  144OSM   H13G15804   2.382   5.367   3.691  0.0364 -0.3605 -0.9291
  144OSM   C14F15805   2.172   5.430   3.659  0.1246  0.0578 -0.3620
  144OSM   H14F15806   2.103   5.343   3.667 -1.5387  1.2638 -1.0628
  144OSM   H14G15807   2.125   5.506   3.594 -1.8902 -1.0686 -0.3054
  144OSM   C15F15808   2.160   5.498   3.800 -0.4111  0.1445 -0.2317
  144OSM   H15F15809   2.080   5.575   3.800 -0.1510  0.4361  0.6257
  144OSM   H15G15810   2.255   5.549   3.824  0.0605 -1.2019  0.9493
  144OSM   C16F15811   2.132   5.393   3.912 -0.2335 -0.6789  0.0824
  144OSM   H16F15812   2.223   5.330   3.928 -0.0808 -1.1474 -2.3311
  144OSM   H16G15813   2.038   5.348   3.873  0.2296  0.0151 -1.9087
  144OSM   C17F15814   2.091   5.457   4.045  0.3224 -0.2056  0.2252
  144OSM   H17F15815   2.172   5.529   4.073  2.4203 -1.6090 -1.8873
  144OSM   H17G15816   2.082   5.378   4.122  0.3974 -0.2371  0.2021
  144OSM   C18F15817   1.958   5.529   4.054 -0.1763  0.0194  0.2541
  144OSM   H18F15818   1.955   5.632   4.012  0.8083 -0.0415 -0.0046
  144OSM   H18G15819   1.927   5.549   4.158 -0.9417  0.1174  0.0090
  144OSM   H18H15820   1.873   5.467   4.020 -0.7431 -1.8049  4.3957
  145SAPE     N15821   3.370   0.023   6.318  1.6128  0.6369 -0.3891
  145SAPE   HN115822   3.421   0.020   6.408 -0.5690  1.5719  0.9468
  145SAPE   HN215823   3.283   0.061   6.359  2.3207  0.3348  1.4755
  145SAPE   HN315824   3.367  -0.077   6.287  1.3879 -0.8449  3.7921
  145SAPE   C1215825   3.419   0.124   6.217  0.3880  0.3627 -0.0717
  145SAPE  H12A15826   3.343   0.121   6.136  0.2381 -1.1107  0.0929
  145SAPE  H12B15827   3.517   0.087   6.181 -0.9038 -3.1577 -0.3799
  145SAPE   C1115828   3.419   0.264   6.279 -0.0888 -0.4723  0.4937
  145SAPE  H11A15829   3.322   0.288   6.326 -1.1245 -1.4710 -1.0374
  145SAPE  H11B15830   3.435   0.340   6.199  2.7527 -0.1796  1.2292
  145SAPE     P15831   3.671   0.327   6.331  0.1387 -0.5086  0.1323
  145SAPE   O1315832   3.646   0.443   6.242 -0.0460 -0.2598 -0.4173
  145SAPE   O1415833   3.755   0.344   6.449 -0.4962  0.5387 -0.1602
  145SAPE   O1215834   3.525   0.270   6.375  0.6119 -0.1006 -0.0531
  145SAPE   O1115835   3.733   0.206   6.248 -0.1650 -0.6168  0.1376
  145SAPE    C115836   3.782   0.091   6.316 -0.1314  0.2612  0.3513
  145SAPE    HA15837   3.835   0.117   6.410  1.5722 -1.8208  0.0764
  145SAPE    HB15838   3.695   0.026   6.341 -0.4383  0.0386 -1.1792
  145SAPE    C215839   3.884   0.019   6.221  0.5024  0.1124  0.3207
  145SAPE    HS15840   3.954   0.096   6.183 -0.9970 -0.0772 -3.1957
  145SAPE   O2115841   3.813  -0.027   6.103 -0.3279 -0.1484 -0.2779
  145SAPE   C2115842   3.884  -0.032   5.995  0.3241 -0.3173  0.3310
  145SAPE   O2215843   4.003  -0.020   5.977 -0.9840 -0.2691 -0.7275
  145SAPE   C2215844   3.797  -0.054   5.875  0.5469 -0.0150 -0.0125
  145SAPE   H2R15845   3.833   0.013   5.794 -0.3208 -0.2883 -0.6394
  145SAPE   H2S15846   3.799  -0.158   5.838 -2.8893 -0.5294  0.8691
  145SAPE    C315847   3.963  -0.096   6.293  0.9047  0.7659  0.2364
  145SAPE    HX15848   3.881  -0.164   6.324  1.0807  0.8420  0.8816
  145SAPE    HY15849   4.020  -0.076   6.386  1.4477 -1.4624  0.4482
  145SAPE   O3115850   4.047  -0.176   6.204 -0.4331 -0.0886  0.4932
  145SAPE   C3115851   4.180  -0.149   6.204  0.2208 -0.3633 -0.8679
  145SAPE   O3215852   4.236  -0.073   6.283 -0.0814  0.1988  0.3163
  145SAPE   C3215853   4.246  -0.220   6.097 -1.0370 -0.2430  0.2455
  145SAPE   H2X15854   4.177  -0.206   6.012  0.2759  0.0496 -0.8060
  145SAPE   H2Y15855   4.256  -0.328   6.120  1.0191 -0.1605 -0.0196
  145SAPE   C2315856   3.648  -0.016   5.901 -0.8308 -0.2189 -0.5456
  145SAPE   H3R15857   3.645   0.075   5.964  0.9485  0.0910 -0.8497
  145SAPE   H3S15858   3.615  -0.093   5.973 -0.1839  1.9981  2.3198
  145SAPE   C2415859   3.554  -0.005   5.782  0.0677  0.4029  0.7294
  145SAPE   H4R15860   3.594   0.072   5.712  1.8224  0.9227  2.2073
  145SAPE   H4S15861   3.456   0.025   5.824 -1.8678 -2.4139 -1.3977
  145SAPE   C2515862   3.543  -0.141   5.703 -0.3389  0.5870  0.3893
  145SAPE   H5R15863   3.538  -0.233   5.763  0.3672  1.5000  1.8977
  145SAPE   C2615864   3.545  -0.165   5.570 -0.1156  0.2342 -1.2880
  145SAPE   H6R15865   3.527  -0.269   5.538 -0.0335 -0.2983  0.2988
  145SAPE   C2715866   3.545  -0.060   5.470  0.6798  0.8120  0.0027
  145SAPE   H7R15867   3.535   0.045   5.504 -3.3439  0.2524  1.0141
  145SAPE   H7S15868   3.459  -0.077   5.401  0.6590  1.0359 -0.0284
  145SAPE   C2815869   3.678  -0.061   5.395  0.2282 -0.3610  0.4830
  145SAPE   H8R15870   3.757  -0.017   5.457 -0.2920  0.3693  0.6413
  145SAPE   C2915871   3.694  -0.064   5.264  0.5132  0.2775 -0.2252
  145SAPE   H9R15872   3.799  -0.055   5.230  1.4606  0.3348  2.5008
  145SAPE  C21015873   3.599  -0.107   5.154 -0.1829  0.3733  0.2642
  145SAPE  H10R15874   3.555  -0.022   5.097  1.6308 -0.5227 -2.6983
  145SAPE  H10S15875   3.516  -0.170   5.193  0.2042 -0.3379 -0.0416
  145SAPE  C21115876   3.664  -0.187   5.049  0.9072 -0.2906 -0.2889
  145SAPE  H11R15877   3.687  -0.138   4.953  0.2859 -0.1669 -0.3775
  145SAPE  C21215878   3.694  -0.318   5.054  0.2310 -0.4639  0.5174
  145SAPE  H12R15879   3.736  -0.371   4.968 -0.3505 -3.1601  1.7876
  145SAPE  C21315880   3.668  -0.400   5.179  0.2530 -0.1301 -0.5746
  145SAPE  H13R15881   3.563  -0.391   5.214  0.4180  0.0604 -0.1261
  145SAPE  H13S15882   3.721  -0.355   5.265  0.2166 -1.5946  0.2508
  145SAPE  C21415883   3.688  -0.548   5.158  0.2338 -0.4134  0.1405
  145SAPE  H14R15884   3.698  -0.583   5.054  1.0758  2.9612 -1.0344
  145SAPE  C21515885   3.667  -0.634   5.261 -0.2308  0.0684  0.3241
  145SAPE  H15R15886   3.668  -0.742   5.238  1.2040 -0.5355  2.7903
  145SAPE  C21615887   3.661  -0.611   5.410  0.0709 -0.6020  0.5578
  145SAPE  H16R15888   3.698  -0.508   5.431 -0.7346 -0.3792  0.9147
  145SAPE  H16S15889   3.720  -0.685   5.468  0.5571 -0.3661  0.3711
  145SAPE  C21715890   3.514  -0.617   5.452  0.0815  0.2848 -0.3640
  145SAPE  H17R15891   3.474  -0.720   5.438  0.6884  0.1915 -1.5705
  145SAPE  H17S15892   3.458  -0.549   5.383  0.3224 -0.7581 -1.6154
  145SAPE  C21815893   3.489  -0.560   5.601  0.1727  0.7014  0.7181
  145SAPE  H18R15894   3.378  -0.563   5.607  0.0973 -0.8491 -0.7037
  145SAPE  H18S15895   3.534  -0.459   5.605  0.7221  0.4375  1.3008
  145SAPE  C21915896   3.548  -0.646   5.709 -0.4282 -1.0296 -0.3112
  145SAPE  H19R15897   3.658  -0.629   5.703 -0.3913 -0.5291  1.3318
  145SAPE  H19S15898   3.499  -0.745   5.710 -2.2192 -0.2419  3.0747
  145SAPE  C22015899   3.520  -0.578   5.840 -0.6839 -0.1883 -0.2650
  145SAPE  H20R15900   3.548  -0.654   5.916 -1.2680  0.5222  0.6755
  145SAPE  H20S15901   3.416  -0.543   5.853 -0.1504  1.1737  0.5642
  145SAPE  H20T15902   3.582  -0.488   5.858 -0.4619 -0.4870  0.5199
  145SAPE   C3315903   4.389  -0.161   6.076  0.2332  0.2486 -0.3644
  145SAPE   H3X15904   4.454  -0.174   6.165 -0.4196 -1.7338 -0.1335
  145SAPE   H3Y15905   4.369  -0.054   6.054 -0.6709  0.4470  1.2453
  145SAPE   C3415906   4.452  -0.223   5.952 -0.3642  0.4170  0.3090
  145SAPE   H4X15907   4.469  -0.332   5.955  1.5034  0.6432 -0.2961
  145SAPE   H4Y15908   4.556  -0.183   5.944 -0.1057 -0.0960  0.9660
  145SAPE   C3515909   4.387  -0.173   5.823  0.4501  0.5193  0.2703
  145SAPE   H5X15910   4.373  -0.064   5.831 -0.7011  0.4321 -0.3493
  145SAPE   H5Y15911   4.284  -0.215   5.820  1.2457 -1.6772  1.1260
  145SAPE   C3615912   4.459  -0.206   5.688  0.6925  0.3074  0.2428
  145SAPE   H6X15913   4.452  -0.313   5.662 -2.0581  0.3940  0.2834
  145SAPE   H6Y15914   4.562  -0.164   5.686  0.2055  1.5818  0.5885
  145SAPE   C3715915   4.390  -0.125   5.577 -0.0387 -0.6321 -0.3075
  145SAPE   H7X15916   4.396  -0.020   5.614  0.4505 -0.2699 -1.3764
  145SAPE   H7Y15917   4.280  -0.141   5.566  0.1087 -2.3024  0.4108
  145SAPE   C3815918   4.459  -0.119   5.441 -0.0468  0.4814  0.0555
  145SAPE   H8X15919   4.566  -0.126   5.467 -0.4458 -1.7851  1.4110
  145SAPE   H8Y15920   4.438  -0.027   5.383  2.8928 -1.5455 -4.7936
  145SAPE   C3915921   4.422  -0.250   5.369  0.4229 -0.6749  0.3995
  145SAPE   H9X15922   4.312  -0.248   5.353  0.3998 -1.0958  0.4923
  145SAPE   H9Y15923   4.435  -0.339   5.433 -0.5285 -0.8592  0.3629
  145SAPE  C31015924   4.486  -0.257   5.228  0.3942 -0.1786  0.3685
  145SAPE  H10X15925   4.447  -0.353   5.189 -1.1161  0.2691  0.7169
  145SAPE  H10Y15926   4.596  -0.256   5.239  0.3661 -0.0088  0.6411
  145SAPE  C31115927   4.437  -0.157   5.118 -0.2608  1.0599 -0.9005
  145SAPE  H11X15928   4.473  -0.059   5.156 -1.8331  0.1212  3.5818
  145SAPE  H11Y15929   4.328  -0.153   5.096 -0.5576 -0.5127  0.1696
  145SAPE  C31215930   4.507  -0.197   4.984 -0.4046 -0.6026  0.0704
  145SAPE  H12X15931   4.618  -0.204   4.994 -0.2423 -0.5284 -1.3740
  145SAPE  H12Y15932   4.484  -0.111   4.917  0.2134  0.4702  1.1932
  145SAPE  C31315933   4.453  -0.321   4.911  0.5497 -0.6010 -0.0296
  145SAPE  H13X15934   4.346  -0.328   4.940  0.5942 -1.4864 -0.0524
  145SAPE  H13Y15935   4.509  -0.399   4.966 -0.1528 -0.0972  1.4305
  145SAPE  C31415936   4.482  -0.325   4.763 -0.3087  0.7130 -0.3832
  145SAPE  H14X15937   4.589  -0.301   4.746  0.6558 -0.2528  3.3880
  145SAPE  H14Y15938   4.419  -0.252   4.708 -0.2069 -0.0256 -1.5188
  145SAPE  C31515939   4.447  -0.457   4.702 -0.4539 -0.0808  0.9142
  145SAPE  H15X15940   4.338  -0.479   4.703 -0.4029 -0.3329  1.3402
  145SAPE  H15Y15941   4.494  -0.546   4.749 -1.7053  0.0262  2.4780
  145SAPE  C31615942   4.507  -0.483   4.558  0.0438 -0.1776  0.1153
  145SAPE  H16X15943   4.486  -0.584   4.515  3.2693 -0.4610 -1.0348
  145SAPE  H16Y15944   4.617  -0.484   4.568  0.1226  1.5882 -0.3681
  145SAPE  C31715945   4.470  -0.386   4.442 -0.1048 -0.1462 -1.2825
  145SAPE  H17X15946   4.507  -0.288   4.480 -0.2317 -0.7940  0.6269
  145SAPE  H17Y15947   4.360  -0.371   4.433 -0.7369 -2.8697  0.6594
  145SAPE  C31815948   4.551  -0.411   4.317 -0.4965  0.8590 -0.0605
  145SAPE  H18X15949   4.660  -0.404   4.337  0.1446 -3.1385 -1.1919
  145SAPE  H18Y15950   4.524  -0.329   4.248 -2.3821  0.5407  0.2366
  145SAPE  H18Z15951   4.536  -0.508   4.264  0.8408 -0.4777  1.8543
  146SAPE     N15952   5.907   0.473   6.639  0.0465 -0.7616 -0.0209
  146SAPE   HN115953   5.939   0.568   6.670  1.9734 -1.2630 -0.3662
  146SAPE   HN215954   5.878   0.413   6.719  1.0196  1.1973  1.9144
  146SAPE   HN315955   5.990   0.436   6.590  1.6888  0.8443  1.4018
  146SAPE   C1215956   5.785   0.486   6.547  0.0032  0.0681 -0.3232
  146SAPE  H12A15957   5.763   0.386   6.504  1.8148 -0.4269 -0.1858
  146SAPE  H12B15958   5.824   0.549   6.464 -1.7466  1.4315 -0.1645
  146SAPE   C1115959   5.673   0.549   6.612 -0.4265  0.4541 -0.1147
  146SAPE  H11A15960   5.594   0.574   6.537  0.5720  0.1096 -1.3074
  146SAPE  H11B15961   5.704   0.641   6.667 -2.4800  2.8193 -2.6046
  146SAPE     P15962   5.485   0.506   6.792  0.2763  0.0938 -0.0187
  146SAPE   O1315963   5.454   0.392   6.884 -0.0913  0.6427 -0.2928
  146SAPE   O1415964   5.509   0.637   6.852 -0.0111  0.1006 -0.2651
  146SAPE   O1215965   5.613   0.466   6.716 -0.2876 -0.4872  0.0051
  146SAPE   O1115966   5.370   0.524   6.683  0.4908  0.2232 -0.2740
  146SAPE    C115967   5.318   0.406   6.616 -0.6769 -0.5989 -0.2645
  146SAPE    HA15968   5.343   0.310   6.666 -1.1050  0.0367  1.2590
  146SAPE    HB15969   5.208   0.415   6.606 -0.5386  1.2683 -0.4018
  146SAPE    C215970   5.378   0.402   6.471  0.2511 -0.3494  0.6933
  146SAPE    HS15971   5.489   0.406   6.478  0.5611  0.9499 -2.8333
  146SAPE   O2115972   5.334   0.519   6.389 -0.0354 -0.4313 -0.1935
  146SAPE   C2115973   5.422   0.549   6.283 -0.6941 -0.5195 -0.0671
  146SAPE   O2215974   5.535   0.504   6.280 -0.8323 -0.2304  0.6953
  146SAPE   C2215975   5.368   0.652   6.182 -0.6403  0.1472  0.2494
  146SAPE   H2R15976   5.280   0.599   6.141 -0.4381 -0.0578  0.0795
  146SAPE   H2S15977   5.339   0.739   6.246  0.5110 -1.0217  2.5021
  146SAPE    C315978   5.337   0.265   6.395 -0.3604  0.0874 -0.5334
  146SAPE    HX15979   5.227   0.256   6.399 -0.1469 -3.3311  1.4784
  146SAPE    HY15980   5.375   0.175   6.448  0.4995  1.6919  1.7499
  146SAPE   O3115981   5.380   0.261   6.257 -0.2153  0.2461 -0.2358
  146SAPE   C3115982   5.517   0.234   6.247  0.2633 -0.1917  0.8142
  146SAPE   O3215983   5.587   0.206   6.341 -0.0646  0.3836  0.8341
  146SAPE   C3215984   5.555   0.241   6.097  0.1281  0.2248  0.5118
  146SAPE   H2X15985   5.592   0.140   6.070  1.2729  0.0334  2.6199
  146SAPE   H2Y15986   5.641   0.311   6.090  1.0826 -1.0544 -1.8507
  146SAPE   C2315987   5.476   0.680   6.078  0.5160  0.9106  0.1338
  146SAPE   H3R15988   5.521   0.601   6.014 -1.9159  1.0172 -1.8560
  146SAPE   H3S15989   5.564   0.732   6.122  1.6972 -1.7599  1.1285
  146SAPE   C2415990   5.400   0.778   5.982 -0.6377 -0.1458  0.2507
  146SAPE   H4R15991   5.335   0.841   6.047 -0.1493  1.7518 -1.0001
  146SAPE   H4S15992   5.324   0.721   5.925 -1.2452  2.0483 -1.2528
  146SAPE   C2515993   5.482   0.859   5.884  0.1596 -0.1075 -0.0448
  146SAPE   H5R15994   5.575   0.904   5.922  1.2532 -0.5646 -2.0789
  146SAPE   C2615995   5.473   0.863   5.749 -0.2055 -0.1225 -0.3143
  146SAPE   H6R15996   5.551   0.915   5.691  0.5941 -2.6330 -1.6409
  146SAPE   C2715997   5.380   0.790   5.662  0.4911 -1.2306  0.8775
  146SAPE   H7R15998   5.292   0.759   5.722 -0.2192 -0.1467  0.4345
  146SAPE   H7S15999   5.429   0.703   5.614  0.9951  0.0053 -0.9423
  146SAPE   C2816000   5.325   0.856   5.538  0.5739 -0.6201  0.4718
  146SAPE   H8R16001   5.236   0.917   5.557  0.6486 -1.4772  4.2900
  146SAPE   C2916002   5.368   0.853   5.413 -0.5907 -0.9129 -0.2944
  146SAPE   H9R16003   5.314   0.904   5.332 -0.4493 -0.6079 -0.1983
  146SAPE  C21016004   5.505   0.799   5.375  1.1141  0.1375  0.0299
  146SAPE  H10R16005   5.572   0.774   5.460  1.2516 -0.1305 -0.1574
  146SAPE  H10S16006   5.560   0.884   5.329 -2.2063  2.0128 -0.8004
  146SAPE  C21116007   5.487   0.680   5.273 -0.1049 -0.3110 -0.3244
  146SAPE  H11R16008   5.491   0.578   5.314  1.2053 -0.1736 -0.0462
  146SAPE  C21216009   5.468   0.690   5.138 -0.3753  0.1311  0.2131
  146SAPE  H12R16010   5.477   0.598   5.078  0.0683  1.6826 -2.2374
  146SAPE  C21316011   5.470   0.821   5.060  0.1665 -0.2425 -0.1825
  146SAPE  H13R16012   5.563   0.821   4.999  0.0258  0.7411 -0.4147
  146SAPE  H13S16013   5.493   0.909   5.124  1.1971 -0.3701 -0.3615
  146SAPE  C21416014   5.348   0.836   4.967 -0.4379 -0.2567 -0.0768
  146SAPE  H14R16015   5.254   0.804   5.016 -0.5718 -1.2477 -0.9593
  146SAPE  C21516016   5.352   0.878   4.838 -0.2096 -0.3675  0.6151
  146SAPE  H15R16017   5.264   0.867   4.773  1.2906 -0.1416 -1.5420
  146SAPE  C21616018   5.469   0.920   4.754 -0.1201  0.6103  0.0234
  146SAPE  H16R16019   5.568   0.879   4.785 -0.0320  1.1406  0.4661
  146SAPE  H16S16020   5.468   1.031   4.760  0.2383  0.5554  2.1542
  146SAPE  C21716021   5.454   0.882   4.608 -0.1189 -0.1401  0.0404
  146SAPE  H17R16022   5.517   0.946   4.543 -0.8862 -0.5810 -1.1946
  146SAPE  H17S16023   5.351   0.907   4.572 -0.6591  0.4699  1.9264
  146SAPE  C21816024   5.475   0.735   4.573  0.1068  0.1195 -0.1038
  146SAPE  H18R16025   5.397   0.676   4.626 -0.5904 -1.0134 -2.2434
  146SAPE  H18S16026   5.573   0.691   4.603 -0.4670 -0.5997  0.7827
  146SAPE  C21916027   5.448   0.700   4.427 -0.4745 -0.3228  0.8175
  146SAPE  H19R16028   5.363   0.753   4.380  0.6721  0.1543 -0.8370
  146SAPE  H19S16029   5.437   0.590   4.426 -0.5240 -0.3230 -0.2098
  146SAPE  C22016030   5.571   0.733   4.339 -0.3756 -0.1510 -0.1022
  146SAPE  H20R16031   5.552   0.681   4.243  0.5693 -0.3040 -0.2191
  146SAPE  H20S16032   5.667   0.685   4.370  0.4697  1.0911 -0.6914
  146SAPE  H20T16033   5.582   0.843   4.331  2.1620 -0.1009  2.2973
  146SAPE   C3316034   5.442   0.294   6.001 -0.3095 -0.7152 -0.4498
  146SAPE   H3X16035   5.409   0.393   6.039 -0.9011 -1.8407  2.2003
  146SAPE   H3Y16036   5.355   0.225   6.000 -1.5350  0.7809 -0.0210
  146SAPE   C3416037   5.495   0.309   5.857 -0.0122  0.0959  0.1669
  146SAPE   H4X16038   5.515   0.212   5.806 -1.5564  0.6282 -1.6016
  146SAPE   H4Y16039   5.589   0.365   5.872  0.1246 -0.2044  0.4450
  146SAPE   C3516040   5.408   0.394   5.760  0.6807  0.1115 -0.5682
  146SAPE   H5X16041   5.416   0.493   5.808 -0.9088  1.3271 -2.6560
  146SAPE   H5Y16042   5.307   0.353   5.738  1.0699 -0.9949 -0.3556
  146SAPE   C3616043   5.466   0.409   5.617  0.2561  0.3021 -0.2483
  146SAPE   H6X16044   5.562   0.465   5.624 -0.6570  1.9520 -0.4077
  146SAPE   H6Y16045   5.404   0.479   5.556  0.0669 -0.2628 -0.7210
  146SAPE   C3716046   5.477   0.272   5.545 -0.2223 -0.3177 -0.0303
  146SAPE   H7X16047   5.399   0.205   5.587 -1.5897  0.2214 -1.5802
  146SAPE   H7Y16048   5.578   0.239   5.578  0.1145  1.1017  0.4024
  146SAPE   C3816049   5.470   0.278   5.396 -0.4555  0.3549  1.0163
  146SAPE   H8X16050   5.391   0.343   5.353  1.0586  2.1290  0.7985
  146SAPE   H8Y16051   5.455   0.176   5.355 -0.5390  0.5886  0.4688
  146SAPE   C3916052   5.601   0.342   5.332 -0.1963 -0.4371 -0.0324
  146SAPE   H9X16053   5.692   0.288   5.365  1.3067  0.5382 -2.2889
  146SAPE   H9Y16054   5.608   0.450   5.355  1.3349 -0.4081 -0.5419
  146SAPE  C31016055   5.606   0.320   5.176 -0.5168  0.1418 -0.2793
  146SAPE  H10X16056   5.516   0.376   5.142 -0.5996  0.7863  0.9518
  146SAPE  H10Y16057   5.591   0.216   5.140 -1.4021  0.0142  0.4388
  146SAPE  C31116058   5.727   0.385   5.099 -0.2626  0.0896  0.0111
  146SAPE  H11X16059   5.825   0.343   5.130  0.4872 -0.3209 -2.6541
  146SAPE  H11Y16060   5.738   0.495   5.110 -3.0680  0.5697 -1.0786
  146SAPE  C31216061   5.727   0.357   4.941  1.0781 -0.6292 -0.6060
  146SAPE  H12X16062   5.697   0.255   4.910 -0.0315  0.0233 -1.7852
  146SAPE  H12Y16063   5.829   0.382   4.906  1.5742 -1.2749  0.3460
  146SAPE  C31316064   5.608   0.435   4.881  0.5233 -0.1722 -0.5417
  146SAPE  H13X16065   5.593   0.543   4.903 -0.6308 -0.5319  0.5343
  146SAPE  H13Y16066   5.512   0.382   4.900  0.5598 -0.1119 -0.1716
  146SAPE  C31416067   5.615   0.449   4.724 -0.2793 -0.0016 -0.0047
  146SAPE  H14X16068   5.691   0.525   4.696 -0.7605 -0.0885 -1.6585
  146SAPE  H14Y16069   5.522   0.496   4.685  0.5278  1.2509 -0.5034
  146SAPE  C31516070   5.647   0.324   4.640  0.6512  0.1759  0.0253
  146SAPE  H15X16071   5.594   0.238   4.686 -0.3170  0.3739 -0.6894
  146SAPE  H15Y16072   5.750   0.295   4.672  0.4693  1.2017  1.6443
  146SAPE  C31616073   5.618   0.329   4.487 -0.6180  0.5367 -0.0619
  146SAPE  H16X16074   5.665   0.425   4.454 -1.2961  1.5347  1.7070
  146SAPE  H16Y16075   5.508   0.342   4.475 -1.0586  0.3384  2.9157
  146SAPE  C31716076   5.684   0.212   4.406  0.6252  0.5366  0.9031
  146SAPE  H17X16077   5.656   0.228   4.299 -0.2796  0.0770  1.0591
  146SAPE  H17Y16078   5.631   0.118   4.432  2.7653 -0.7137  0.9993
  146SAPE  C31816079   5.836   0.191   4.429 -0.2050 -0.2325 -0.3689
  146SAPE  H18X16080   5.861   0.202   4.537  0.5269  1.9240 -0.7104
  146SAPE  H18Y16081   5.895   0.265   4.371  0.8488  1.2972  2.4430
  146SAPE  H18Z16082   5.871   0.090   4.399  2.6511  0.7375 -0.6298
  147SAPE     N16083   1.756   2.317   6.499  0.0140  0.4266 -0.2434
  147SAPE   HN116084   1.675   2.369   6.458  0.5676  0.0656 -1.9008
  147SAPE   HN216085   1.719   2.225   6.527  1.4738  0.5295  2.2753
  147SAPE   HN316086   1.781   2.372   6.584 -0.8286  3.1210 -1.6013
  147SAPE   C1216087   1.859   2.319   6.387  0.4262 -0.0372 -0.2052
  147SAPE  H12A16088   1.880   2.424   6.358  1.1265 -0.5361 -1.5878
  147SAPE  H12B16089   1.808   2.268   6.303 -2.8730  0.2282  1.4882
  147SAPE   C1116090   1.983   2.246   6.416  0.0847  0.0355 -0.2173
  147SAPE  H11A16091   2.038   2.256   6.320 -1.2892  0.7253 -0.9553
  147SAPE  H11B16092   1.961   2.140   6.436  0.9214 -0.0362  0.4153
  147SAPE     P16093   2.158   2.406   6.525 -0.4438 -0.2725 -0.2535
  147SAPE   O1316094   2.101   2.530   6.589  1.2958  0.7579  0.0056
  147SAPE   O1416095   2.273   2.357   6.603  0.6546  0.6829 -0.2849
  147SAPE   O1216096   2.041   2.303   6.536  0.1786  0.1483 -0.4585
  147SAPE   O1116097   2.188   2.418   6.372  0.3527 -0.1278 -0.2390
  147SAPE    C116098   2.165   2.531   6.291 -0.1196 -0.5472  0.0603
  147SAPE    HA16099   2.070   2.518   6.235  0.7401 -0.9891 -1.3600
  147SAPE    HB16100   2.166   2.624   6.351 -0.3625  0.2596 -1.1535
  147SAPE    C216101   2.277   2.539   6.189  0.3283  0.2389 -0.4979
  147SAPE    HS16102   2.247   2.622   6.122 -0.7651 -0.2779 -0.6752
  147SAPE   O2116103   2.290   2.411   6.121  0.5482 -0.4989 -0.1169
  147SAPE   C2116104   2.209   2.383   6.026  0.1566  0.3410 -0.2239
  147SAPE   O2216105   2.112   2.447   5.992 -0.4417 -0.5298 -0.1697
  147SAPE   C2216106   2.241   2.244   5.981  0.2874  0.7554  0.6112
  147SAPE   H2R16107   2.349   2.225   6.000 -0.0988 -1.3276  0.9826
  147SAPE   H2S16108   2.170   2.175   6.031 -0.7448  1.3239 -0.0287
  147SAPE    C316109   2.401   2.583   6.265 -0.5785  0.0335 -0.1217
  147SAPE    HX16110   2.417   2.523   6.357 -0.3934  2.1166  1.2687
  147SAPE    HY16111   2.382   2.688   6.294 -1.0582  0.2215 -1.0649
  147SAPE   O3116112   2.514   2.576   6.177 -0.0327  0.2297 -0.0288
  147SAPE   C3116113   2.614   2.653   6.218  0.2910 -0.6831  0.2055
  147SAPE   O3216114   2.614   2.726   6.313 -0.3918  0.2571 -0.3588
  147SAPE   C3216115   2.740   2.623   6.132 -0.1541  0.0177  0.1404
  147SAPE   H2X16116   2.695   2.605   6.032  0.5010 -1.5204  0.0929
  147SAPE   H2Y16117   2.770   2.521   6.164 -0.4129 -0.4371 -1.0106
  147SAPE   C2316118   2.213   2.219   5.832  0.6252 -0.3737  0.7884
  147SAPE   H3R16119   2.284   2.141   5.797 -0.8788 -0.9896 -1.0237
  147SAPE   H3S16120   2.228   2.303   5.760 -0.6430 -1.3667 -0.7126
  147SAPE   C2416121   2.073   2.168   5.794 -0.6877  0.6506 -0.7191
  147SAPE   H4R16122   1.992   2.238   5.822 -0.5180  0.1671  1.1206
  147SAPE   H4S16123   2.045   2.079   5.854  0.8422 -0.1750 -1.1625
  147SAPE   C2516124   2.064   2.141   5.643  0.1336  0.1830  0.0711
  147SAPE   H5R16125   2.067   2.232   5.582 -1.5677 -0.1013 -0.4775
  147SAPE   C2616126   2.074   2.021   5.582 -0.3525 -0.1984 -0.0081
  147SAPE   H6R16127   2.088   2.024   5.473 -2.5792  0.4934 -0.3345
  147SAPE   C2716128   2.062   1.892   5.662  0.3625 -0.1137 -0.7725
  147SAPE   H7R16129   2.097   1.903   5.767  0.0968 -2.2824 -0.4133
  147SAPE   H7S16130   2.134   1.813   5.629  0.2861 -2.1761  3.3799
  147SAPE   C2816131   1.917   1.834   5.672 -0.3525 -0.2088  0.1022
  147SAPE   H8R16132   1.839   1.895   5.720  0.7959  1.3618  0.0649
  147SAPE   C2916133   1.873   1.732   5.588  0.2851  0.7801  0.2759
  147SAPE   H9R16134   1.769   1.698   5.605  0.4013  0.6696  0.7913
  147SAPE  C21016135   1.956   1.654   5.496 -0.0580  0.2529  0.0039
  147SAPE  H10R16136   2.053   1.640   5.547 -0.2762  1.0979  0.6733
  147SAPE  H10S16137   1.982   1.723   5.413  0.3038  1.4312  1.0603
  147SAPE  C21116138   1.901   1.525   5.462  0.2533  0.4533  0.5721
  147SAPE  H11R16139   1.913   1.445   5.536 -0.8269 -0.4788 -0.2276
  147SAPE  C21216140   1.868   1.484   5.338 -0.8734  0.3730  0.2170
  147SAPE  H12R16141   1.852   1.376   5.324  1.2571  0.0743 -0.2963
  147SAPE  C21316142   1.875   1.564   5.211  0.4615  0.5212 -0.4649
  147SAPE  H13R16143   1.885   1.672   5.235 -0.2927  0.1300  1.9276
  147SAPE  H13S16144   1.784   1.550   5.149 -0.2296  0.4156  0.5317
  147SAPE  C21416145   1.988   1.530   5.117  0.5005 -0.7560  0.4133
  147SAPE  H14R16146   2.088   1.526   5.162  0.6381 -0.8391  0.1038
  147SAPE  C21516147   1.987   1.513   4.989 -1.3304 -0.6129  0.3593
  147SAPE  H15R16148   2.083   1.489   4.943  0.4600 -0.0113  3.4983
  147SAPE  C21616149   1.861   1.520   4.906  0.1376  0.3502  0.0570
  147SAPE  H16R16150   1.785   1.452   4.949  0.0116  1.6499  1.9918
  147SAPE  H16S16151   1.875   1.501   4.797 -0.4186  2.3309 -0.4095
  147SAPE  C21716152   1.784   1.661   4.915 -0.1083  0.7626 -0.0649
  147SAPE  H17R16153   1.796   1.701   5.018 -0.7510 -1.5691  0.9955
  147SAPE  H17S16154   1.677   1.639   4.897 -0.7945  1.7368  2.4584
  147SAPE  C21816155   1.829   1.760   4.807 -0.0556 -0.4737 -0.0346
  147SAPE  H18R16156   1.832   1.708   4.709 -2.9148 -1.1577  0.1560
  147SAPE  H18S16157   1.935   1.787   4.831 -0.3578  0.1598  0.6467
  147SAPE  C21916158   1.743   1.883   4.794 -0.3891  0.0276 -0.1475
  147SAPE  H19R16159   1.787   1.955   4.723  0.1018  2.1715  2.2160
  147SAPE  H19S16160   1.759   1.937   4.890  0.7637 -1.5296  0.5832
  147SAPE  C22016161   1.596   1.868   4.751 -0.5779  0.2614  0.4476
  147SAPE  H20R16162   1.533   1.808   4.819 -2.2976 -0.6070 -1.8099
  147SAPE  H20S16163   1.593   1.837   4.645 -0.9044 -2.6931  1.2237
  147SAPE  H20T16164   1.546   1.967   4.748 -2.5873 -0.7381 -0.5753
  147SAPE   C3316165   2.845   2.737   6.124 -0.0655  0.6846 -0.6954
  147SAPE   H3X16166   2.905   2.734   6.217 -1.5494  0.7213  0.3014
  147SAPE   H3Y16167   2.798   2.838   6.119  1.4506  1.3678 -1.9035
  147SAPE   C3416168   2.940   2.738   6.005 -0.7842 -0.3710 -0.2431
  147SAPE   H4X16169   2.997   2.643   6.004 -0.2935 -0.0795 -0.7449
  147SAPE   H4Y16170   3.010   2.821   6.030  0.2416 -1.8673  2.2475
  147SAPE   C3516171   2.871   2.743   5.872  1.0000  0.1583  0.1043
  147SAPE   H5X16172   2.798   2.827   5.868 -1.5857 -1.9687 -1.9038
  147SAPE   H5Y16173   2.823   2.646   5.846  0.8654  1.3098 -5.0738
  147SAPE   C3616174   2.961   2.779   5.757  0.3543 -0.1816  0.3924
  147SAPE   H6X16175   3.039   2.703   5.738 -0.2091 -0.2106 -2.2686
  147SAPE   H6Y16176   3.013   2.874   5.780  0.7722  0.1075 -1.5167
  147SAPE   C3716177   2.884   2.813   5.631  0.2445 -0.6267  0.6561
  147SAPE   H7X16178   2.948   2.849   5.547 -1.0643 -1.2592 -0.6563
  147SAPE   H7Y16179   2.808   2.892   5.650 -0.7133 -0.7613 -2.0698
  147SAPE   C3816180   2.796   2.701   5.576  0.3444  0.7613  0.4413
  147SAPE   H8X16181   2.707   2.697   5.642  0.0485 -0.5418 -0.0046
  147SAPE   H8Y16182   2.850   2.604   5.580 -0.4568  0.2395 -0.8520
  147SAPE   C3916183   2.763   2.714   5.428 -0.0604 -0.1925 -0.1933
  147SAPE   H9X16184   2.710   2.811   5.415  0.6305  0.5427  1.9226
  147SAPE   H9Y16185   2.689   2.634   5.407 -0.6451  0.7551 -1.9092
  147SAPE  C31016186   2.886   2.699   5.333  0.2927 -0.3403  1.0081
  147SAPE  H10X16187   2.925   2.597   5.352 -1.2013 -1.0934  0.2259
  147SAPE  H10Y16188   2.956   2.780   5.362 -1.6765  0.6652  3.2963
  147SAPE  C31116189   2.842   2.704   5.181 -0.5330 -0.4025 -0.4316
  147SAPE  H11X16190   2.805   2.804   5.150 -0.8737  0.0795  1.4067
  147SAPE  H11Y16191   2.748   2.646   5.172 -1.0067 -0.0316  1.6740
  147SAPE  C31216192   2.954   2.663   5.088 -0.3050  0.1202 -0.1451
  147SAPE  H12X16193   3.001   2.569   5.123 -0.7988  0.4531  1.4704
  147SAPE  H12Y16194   3.033   2.741   5.087  0.3409 -0.5073  0.4337
  147SAPE  C31316195   2.895   2.651   4.945  0.3010  0.3396 -0.2941
  147SAPE  H13X16196   2.795   2.602   4.947  1.2410 -1.6756  1.8546
  147SAPE  H13Y16197   2.950   2.584   4.876  1.6789  2.4334 -1.3216
  147SAPE  C31416198   2.882   2.781   4.861  0.4656 -0.4883 -0.2051
  147SAPE  H14X16199   2.984   2.818   4.841 -0.0784  0.3240 -1.5804
  147SAPE  H14Y16200   2.841   2.873   4.908  1.9205  0.2896 -0.3909
  147SAPE  C31516201   2.812   2.761   4.727  0.2373 -0.0359  0.5836
  147SAPE  H15X16202   2.848   2.674   4.668  0.6627  0.8142 -0.4389
  147SAPE  H15Y16203   2.831   2.851   4.665 -2.2309  0.3206  0.2400
  147SAPE  C31616204   2.659   2.750   4.738 -0.4195  0.2071  0.6252
  147SAPE  H16X16205   2.615   2.839   4.786 -0.7985  0.2121  0.2663
  147SAPE  H16Y16206   2.638   2.668   4.811 -0.9718  0.0520  0.2924
  147SAPE  C31716207   2.587   2.726   4.603 -0.4424  0.4513  0.3993
  147SAPE  H17X16208   2.611   2.629   4.555  1.0262  0.7429  0.4760
  147SAPE  H17Y16209   2.626   2.804   4.535  1.6560 -0.5263  0.3996
  147SAPE  C31816210   2.436   2.715   4.609  0.1041 -0.6436  0.6164
  147SAPE  H18X16211   2.419   2.612   4.646 -0.9522 -1.7300 -2.5118
  147SAPE  H18Y16212   2.410   2.735   4.502  3.1554 -0.8248 -0.2556
  147SAPE  H18Z16213   2.398   2.800   4.670  0.5955  1.0445 -1.3143
  148SAPE     N16214   5.442   3.475   6.870  0.1084  0.2209 -0.0653
  148SAPE   HN116215   5.414   3.377   6.850 -0.3046  0.5668 -1.2817
  148SAPE   HN216216   5.421   3.501   6.969  1.5861 -0.1006  0.3616
  148SAPE   HN316217   5.377   3.527   6.808 -0.5401 -1.3442 -0.7549
  148SAPE   C1216218   5.572   3.511   6.810 -1.0123 -0.4072  0.5449
  148SAPE  H12A16219   5.650   3.449   6.857 -0.5940  0.6022  1.2152
  148SAPE  H12B16220   5.590   3.620   6.822  1.2706 -0.6517 -0.2857
  148SAPE   C1116221   5.576   3.474   6.659  0.2897 -0.3640 -0.4145
  148SAPE  H11A16222   5.677   3.496   6.616  0.1024 -0.5529 -0.9567
  148SAPE  H11B16223   5.505   3.532   6.597  1.5511  2.1021  0.2984
  148SAPE     P16224   5.604   3.212   6.625 -0.0666 -0.7341  0.0302
  148SAPE   O1316225   5.704   3.193   6.731  0.3447 -0.0874 -0.0967
  148SAPE   O1416226   5.512   3.098   6.608  0.3555 -0.4130  0.2327
  148SAPE   O1216227   5.527   3.346   6.650 -0.3684 -0.5624  0.3544
  148SAPE   O1116228   5.678   3.237   6.488  0.1977  0.0683  0.0411
  148SAPE    C116229   5.626   3.197   6.361 -0.2086  0.5477  1.0039
  148SAPE    HA16230   5.659   3.101   6.316  2.2216  1.9941 -0.5777
  148SAPE    HB16231   5.516   3.193   6.349  0.1253 -0.9029 -4.4627
  148SAPE    C216232   5.648   3.309   6.261  0.0041  0.5381 -0.3505
  148SAPE    HS16233   5.574   3.298   6.179 -2.1770 -0.7528  1.6745
  148SAPE   O2116234   5.787   3.315   6.217  0.4401 -0.2925  0.0485
  148SAPE   C2116235   5.805   3.312   6.091  0.2427  0.3295  1.0690
  148SAPE   O2216236   5.721   3.288   6.002  0.0097  0.1436  0.0947
  148SAPE   C2216237   5.957   3.319   6.045  0.6998 -0.1569 -0.3490
  148SAPE   H2R16238   5.988   3.420   6.077  2.0413 -0.2712 -1.2170
  148SAPE   H2S16239   5.999   3.241   6.112 -0.3638  1.1894  1.9637
  148SAPE    C316240   5.621   3.443   6.316  0.4214  0.5435  0.1439
  148SAPE    HX16241   5.697   3.479   6.389  1.8999  2.8455 -2.3447
  148SAPE    HY16242   5.526   3.431   6.372 -0.1099  1.0150 -0.6501
  148SAPE   O3116243   5.598   3.548   6.223  0.2743 -0.2318 -0.1895
  148SAPE   C3116244   5.692   3.623   6.181  0.0575  0.7540 -0.1484
  148SAPE   O3216245   5.811   3.617   6.207 -0.4000 -0.0313  0.3850
  148SAPE   C3216246   5.634   3.727   6.082  1.0424  0.4592  0.7601
  148SAPE   H2X16247   5.712   3.806   6.071  0.4771  0.7758 -1.4276
  148SAPE   H2Y16248   5.545   3.779   6.122  0.4372  1.6911 -1.9928
  148SAPE   C2316249   5.989   3.295   5.893  0.9187 -0.4766 -0.2821
  148SAPE   H3R16250   5.914   3.358   5.841 -0.4936 -0.0690  2.0977
  148SAPE   H3S16251   5.968   3.190   5.863  0.4944 -0.5139  0.1460
  148SAPE   C2416252   6.128   3.352   5.850  0.2661 -0.2635  0.3191
  148SAPE   H4R16253   6.142   3.452   5.896 -0.0876 -0.7088  1.4244
  148SAPE   H4S16254   6.122   3.360   5.739  1.6937  0.1795  0.2538
  148SAPE   C2516255   6.227   3.249   5.901 -0.3684 -0.8826  0.0039
  148SAPE   H5R16256   6.251   3.245   6.008 -0.1328 -3.5624 -0.0893
  148SAPE   C2616257   6.297   3.165   5.819 -0.0488  0.5636 -0.3880
  148SAPE   H6R16258   6.386   3.111   5.856 -0.5688 -0.6132 -0.8309
  148SAPE   C2716259   6.270   3.167   5.673  0.5449 -0.3708  0.2816
  148SAPE   H7R16260   6.287   3.272   5.641  1.7166 -0.7055 -0.2395
  148SAPE   H7S16261   6.165   3.137   5.655 -0.3858  0.6726  3.3136
  148SAPE   C2816262   6.366   3.082   5.599  0.5962 -0.2929  0.3109
  148SAPE   H8R16263   6.450   3.052   5.662  2.2067  0.2892 -1.4749
  148SAPE   C2916264   6.368   3.057   5.467 -0.0086  0.1547 -0.1218
  148SAPE   H9R16265   6.444   2.995   5.417 -2.0160  0.5471 -4.0754
  148SAPE  C21016266   6.277   3.121   5.373  0.0467 -0.4235  0.3866
  148SAPE  H10R16267   6.342   3.175   5.301  0.3726 -1.4952 -0.1522
  148SAPE  H10S16268   6.200   3.183   5.423  1.5271 -0.5106  2.9576
  148SAPE  C21116269   6.214   3.003   5.300  0.4690 -0.1652 -0.6530
  148SAPE  H11R16270   6.127   2.963   5.355  0.3052  1.4387  0.3358
  148SAPE  C21216271   6.246   2.958   5.177 -0.0255  0.1811 -0.1681
  148SAPE  H12R16272   6.192   2.873   5.133 -0.1353  0.8335 -1.3216
  148SAPE  C21316273   6.344   3.014   5.076  0.0811 -0.0359 -0.7896
  148SAPE  H13R16274   6.383   3.110   5.115  0.4395 -0.2447 -0.6311
  148SAPE  H13S16275   6.280   3.052   4.993  0.5207  0.8107 -0.7435
  148SAPE  C21416276   6.449   2.923   5.019  0.7298  0.4731 -0.3667
  148SAPE  H14R16277   6.552   2.938   5.054  1.1076 -0.2154 -1.1690
  148SAPE  C21516278   6.435   2.828   4.927 -0.2332 -0.3962 -0.6622
  148SAPE  H15R16279   6.529   2.780   4.897  0.5656 -0.0880  1.1892
  148SAPE  C21616280   6.312   2.786   4.855  0.8320 -0.5465 -0.4451
  148SAPE  H16R16281   6.294   2.838   4.759 -2.2834  0.5936  0.6282
  148SAPE  H16S16282   6.225   2.804   4.921  1.2401 -0.1624 -0.0099
  148SAPE  C21716283   6.312   2.634   4.807 -0.2556  0.0633 -0.6933
  148SAPE  H17R16284   6.233   2.639   4.729  1.4409 -0.5888 -2.5431
  148SAPE  H17S16285   6.265   2.571   4.886 -1.2479  1.3222 -0.2356
  148SAPE  C21816286   6.440   2.593   4.737 -0.1318 -0.2264 -0.3376
  148SAPE  H18R16287   6.505   2.587   4.827 -1.8485 -0.0896  0.9677
  148SAPE  H18S16288   6.487   2.670   4.672  3.2691 -1.0567  0.9385
  148SAPE  C21916289   6.430   2.463   4.650  0.6461  0.3336  0.2590
  148SAPE  H19R16290   6.525   2.439   4.598 -1.5679 -1.1442 -3.4326
  148SAPE  H19S16291   6.357   2.476   4.567  0.7841 -3.8808 -0.7052
  148SAPE  C22016292   6.388   2.343   4.734  0.1936  0.0727  0.2266
  148SAPE  H20R16293   6.447   2.355   4.827  1.2657  2.2652 -0.6455
  148SAPE  H20S16294   6.415   2.247   4.686  1.5834  0.7766 -0.4696
  148SAPE  H20T16295   6.281   2.350   4.762  0.9397 -0.1780  3.5194
  148SAPE   C3316296   5.589   3.654   5.948  0.0878 -1.0142 -0.0665
  148SAPE   H3X16297   5.511   3.705   5.888 -0.0750  0.8253  1.5890
  148SAPE   H3Y16298   5.547   3.556   5.979  1.0850 -1.0837  1.1541
  148SAPE   C3416299   5.706   3.627   5.855  0.5321  0.3723  0.2815
  148SAPE   H4X16300   5.788   3.569   5.904  0.4403 -2.4942 -2.5907
  148SAPE   H4Y16301   5.752   3.722   5.823  0.6196  0.3657  0.3867
  148SAPE   C3516302   5.666   3.544   5.729  0.3791 -0.3907 -0.9152
  148SAPE   H5X16303   5.585   3.602   5.680  1.3134 -0.5240 -2.7103
  148SAPE   H5Y16304   5.614   3.448   5.748 -0.0153  0.0604  0.4040
  148SAPE   C3616305   5.768   3.535   5.620 -0.0981 -0.3237  0.5351
  148SAPE   H6X16306   5.867   3.507   5.664  0.4348 -0.5062 -0.7476
  148SAPE   H6Y16307   5.782   3.625   5.558 -2.2291  1.1547  2.0684
  148SAPE   C3716308   5.732   3.422   5.520  0.0692 -0.4002 -0.3177
  148SAPE   H7X16309   5.644   3.447   5.457 -0.5867 -2.3433 -0.2565
  148SAPE   H7Y16310   5.699   3.335   5.581 -0.9640 -0.5076 -1.0062
  148SAPE   C3816311   5.850   3.382   5.433 -1.0143  0.2298  0.0264
  148SAPE   H8X16312   5.914   3.308   5.485  3.1656  1.3814 -2.9228
  148SAPE   H8Y16313   5.918   3.466   5.406 -1.8247  0.6679 -0.7247
  148SAPE   C3916314   5.809   3.313   5.303  0.1597 -0.1133 -0.6147
  148SAPE   H9X16315   5.749   3.383   5.241  0.1845  0.0370 -0.4706
  148SAPE   H9Y16316   5.753   3.222   5.333 -1.3056  1.1074  0.5457
  148SAPE  C31016317   5.930   3.259   5.226 -0.2827  0.1235 -0.5136
  148SAPE  H10X16318   5.988   3.196   5.296 -1.6605 -1.7051 -0.9243
  148SAPE  H10Y16319   6.007   3.335   5.204 -0.3669  0.3319 -0.0831
  148SAPE  C31116320   5.895   3.177   5.100 -0.5623 -0.2695 -0.1802
  148SAPE  H11X16321   5.803   3.117   5.113 -0.8773  0.3180  0.3297
  148SAPE  H11Y16322   5.990   3.121   5.083 -0.8499 -0.4480 -1.2976
  148SAPE  C31216323   5.868   3.280   4.988  0.3435  0.2327  0.4413
  148SAPE  H12X16324   5.962   3.324   4.950  0.1156 -1.0877 -1.8408
  148SAPE  H12Y16325   5.811   3.360   5.040  0.8270  1.5832 -1.0378
  148SAPE  C31316326   5.783   3.217   4.883 -0.0238  0.0941 -0.2444
  148SAPE  H13X16327   5.736   3.298   4.824  0.7079 -0.9062 -2.3273
  148SAPE  H13Y16328   5.700   3.167   4.936  0.0972 -1.1557 -1.1623
  148SAPE  C31416329   5.853   3.104   4.803 -0.1819 -0.5242 -0.2453
  148SAPE  H14X16330   5.782   3.066   4.727 -2.1504  1.5702  0.4241
  148SAPE  H14Y16331   5.874   3.021   4.873 -2.0879  1.7071  3.2908
  148SAPE  C31516332   5.989   3.141   4.732  0.8154  0.0950  0.1675
  148SAPE  H15X16333   6.068   3.184   4.797  2.4910 -0.5467 -1.3298
  148SAPE  H15Y16334   5.966   3.223   4.661  1.1514  0.2542  0.2382
  148SAPE  C31616335   6.047   3.017   4.658  0.0875 -0.1821 -0.1678
  148SAPE  H16X16336   6.072   2.932   4.725  2.9384  0.2904 -0.5131
  148SAPE  H16Y16337   6.145   3.054   4.622 -0.2213  2.1136  1.1370
  148SAPE  C31716338   5.974   2.962   4.536  1.0386 -0.3098 -0.1210
  148SAPE  H17X16339   5.949   3.042   4.463  0.3366 -0.4070  0.0028
  148SAPE  H17Y16340   5.879   2.924   4.579  0.4504  1.4056  0.1713
  148SAPE  C31816341   6.045   2.860   4.460  0.0876  0.6827  0.2325
  148SAPE  H18X16342   5.984   2.793   4.395  1.2701  0.2508 -0.4665
  148SAPE  H18Y16343   6.088   2.783   4.526  1.6768  0.3802 -1.0953
  148SAPE  H18Z16344   6.129   2.891   4.395 -1.6784 -1.5140 -3.4213
  149SAPE     N16345   5.886   1.518   6.796  0.2600 -0.3756 -0.0417
  149SAPE   HN116346   5.845   1.608   6.828  0.3761 -0.1980 -0.3826
  149SAPE   HN216347   5.802   1.459   6.782  0.8888 -1.3672  0.2285
  149SAPE   HN316348   5.940   1.482   6.877 -0.2330 -1.3892 -0.1617
  149SAPE   C1216349   5.962   1.537   6.665 -0.3007 -0.0040 -0.3319
  149SAPE  H12A16350   6.025   1.448   6.642  0.5190  0.4580  0.0795
  149SAPE  H12B16351   6.034   1.619   6.683  3.3211 -2.7425 -1.2695
  149SAPE   C1116352   5.862   1.561   6.553 -0.5446  0.1114 -0.5008
  149SAPE  H11A16353   5.930   1.589   6.470 -0.5726  0.7711 -0.3084
  149SAPE  H11B16354   5.797   1.649   6.576  0.7518  0.8591  0.4322
  149SAPE     P16355   5.806   1.329   6.422 -0.1004  0.5320  0.4641
  149SAPE   O1316356   5.932   1.257   6.446  0.0280 -0.0638  0.6325
  149SAPE   O1416357   5.689   1.235   6.414 -0.7965  0.0599  0.3434
  149SAPE   O1216358   5.792   1.437   6.535  0.3925 -0.0146  0.7038
  149SAPE   O1116359   5.817   1.419   6.290 -0.3000  0.4902 -0.0958
  149SAPE    C116360   5.697   1.485   6.252 -0.1159 -0.0402  0.2816
  149SAPE    HA16361   5.647   1.518   6.345 -0.0573 -1.2733  0.7657
  149SAPE    HB16362   5.719   1.580   6.198  1.2895  0.8761  2.3232
  149SAPE    C216363   5.598   1.396   6.162  0.2321 -0.7247 -0.0384
  149SAPE    HS16364   5.582   1.305   6.223 -0.4799 -1.6395 -1.5341
  149SAPE   O2116365   5.657   1.372   6.029 -0.0288 -0.4471  0.3302
  149SAPE   C2116366   5.626   1.253   5.971  0.4791  0.3486 -0.9400
  149SAPE   O2216367   5.591   1.153   6.036  0.2087 -0.0750  0.2323
  149SAPE   C2216368   5.632   1.265   5.822 -0.3510 -0.1037 -0.4771
  149SAPE   H2R16369   5.529   1.230   5.797 -0.0378 -1.6169  0.2384
  149SAPE   H2S16370   5.646   1.374   5.806  0.4994  0.1122  1.4748
  149SAPE    C316371   5.453   1.456   6.145  0.3676 -0.3111 -0.1438
  149SAPE    HX16372   5.465   1.561   6.111 -0.6812  0.2808  1.2367
  149SAPE    HY16373   5.404   1.455   6.245  2.1604 -0.1073  0.7841
  149SAPE   O3116374   5.379   1.409   6.029  0.0537  0.0342 -0.7318
  149SAPE   C3116375   5.311   1.302   6.043  0.5565 -0.2611 -0.0285
  149SAPE   O3216376   5.297   1.232   6.143  0.1632 -0.4172 -0.4493
  149SAPE   C3216377   5.249   1.261   5.907  0.2250 -0.0045  0.8382
  149SAPE   H2X16378   5.334   1.200   5.870  1.4774  0.9764  1.9734
  149SAPE   H2Y16379   5.236   1.353   5.846 -1.8209 -0.1164  1.0447
  149SAPE   C2316380   5.740   1.180   5.750 -0.3739  0.0190  0.4457
  149SAPE   H3R16381   5.727   1.074   5.782  0.4866  0.0780  1.0363
  149SAPE   H3S16382   5.846   1.206   5.770 -0.3617 -0.2439  0.7361
  149SAPE   C2416383   5.712   1.192   5.595  0.4699  0.2956  0.2271
  149SAPE   H4R16384   5.787   1.129   5.543  1.6975  1.5982  0.3657
  149SAPE   H4S16385   5.746   1.292   5.561 -1.1259  0.7276 -0.1623
  149SAPE   C2516386   5.576   1.154   5.543 -0.3482 -0.4573 -0.4240
  149SAPE   H5R16387   5.505   1.107   5.613  0.1921  1.2546  1.3641
  149SAPE   C2616388   5.539   1.176   5.414 -0.2222  0.1390  0.0012
  149SAPE   H6R16389   5.449   1.127   5.374  0.6750  0.9009 -3.2660
  149SAPE   C2716390   5.630   1.245   5.318 -0.4940 -0.2530  0.3092
  149SAPE   H7R16391   5.723   1.184   5.316 -0.3071  0.0523 -0.7086
  149SAPE   H7S16392   5.665   1.342   5.359  0.0596 -0.2204 -0.2231
  149SAPE   C2816393   5.566   1.273   5.183 -0.3375 -0.4000  0.1977
  149SAPE   H8R16394   5.458   1.292   5.194  0.0137  0.5002  2.6703
  149SAPE   C2916395   5.621   1.257   5.061  0.3655  0.0363 -0.7551
  149SAPE   H9R16396   5.555   1.284   4.978 -1.7166  1.8520  1.3282
  149SAPE  C21016397   5.759   1.209   5.016  0.7350  0.0327 -0.5995
  149SAPE  H10R16398   5.805   1.162   5.105  2.7255 -0.6862 -1.9332
  149SAPE  H10S16399   5.817   1.297   4.983 -0.0702  0.5759 -0.6143
  149SAPE  C21116400   5.751   1.106   4.902 -0.1793 -0.1919  0.2305
  149SAPE  H11R16401   5.705   1.011   4.935  0.2157  0.7450  3.9618
  149SAPE  C21216402   5.771   1.134   4.771 -0.6263 -0.2472 -0.9504
  149SAPE  H12R16403   5.763   1.050   4.701  2.1140 -2.6342  1.3271
  149SAPE  C21316404   5.828   1.268   4.710 -0.5043  0.6668  0.3889
  149SAPE  H13R16405   5.934   1.241   4.687 -0.8001 -1.2343  1.0309
  149SAPE  H13S16406   5.830   1.349   4.786  0.8475 -0.6890  1.8790
  149SAPE  C21416407   5.754   1.309   4.589 -0.1658 -0.1145  0.2507
  149SAPE  H14R16408   5.660   1.366   4.599  0.9257  2.0103 -0.8484
  149SAPE  C21516409   5.800   1.292   4.465 -0.8051 -0.0468 -0.4828
  149SAPE  H15R16410   5.752   1.344   4.380  1.1073  2.8943  0.0773
  149SAPE  C21616411   5.934   1.242   4.414  0.3423 -0.0628 -0.0190
  149SAPE  H16R16412   5.980   1.160   4.472 -0.7659 -1.5517 -1.1714
  149SAPE  H16S16413   5.999   1.328   4.443  0.5949 -0.4415  0.5401
  149SAPE  C21716414   5.943   1.220   4.261  0.0707  0.2160  0.2385
  149SAPE  H17R16415   5.848   1.179   4.221 -0.1843  1.1860 -0.2005
  149SAPE  H17S16416   6.033   1.161   4.238 -0.8748 -1.1941  0.0201
  149SAPE  C21816417   5.961   1.352   4.175  0.3170 -0.0470 -0.9096
  149SAPE  H18R16418   5.878   1.418   4.209  0.6446 -0.9514  1.9250
  149SAPE  H18S16419   5.947   1.327   4.067  0.7939  2.2093 -1.5475
  149SAPE  C21916420   6.097   1.420   4.190 -0.4258 -0.2389 -0.0574
  149SAPE  H19R16421   6.167   1.334   4.191  0.4536  0.4632  0.4972
  149SAPE  H19S16422   6.088   1.468   4.290  0.7936 -1.2916  0.5741
  149SAPE  C22016423   6.128   1.515   4.071  0.1890 -0.7216 -0.6300
  149SAPE  H20R16424   6.097   1.619   4.096  0.8584 -1.1457  2.3460
  149SAPE  H20S16425   6.071   1.491   3.979  1.4535  0.5379 -1.7956
  149SAPE  H20T16426   6.237   1.510   4.048  1.2355 -0.5492  3.5324
  149SAPE   C3316427   5.119   1.185   5.904 -0.4207  0.6736  0.8066
  149SAPE   H3X16428   5.031   1.250   5.887 -2.4412 -1.8826  0.8453
  149SAPE   H3Y16429   5.091   1.131   5.997 -0.4043  1.0326  1.0204
  149SAPE   C3416430   5.115   1.084   5.787  0.2608 -1.2179  0.5864
  149SAPE   H4X16431   5.210   1.027   5.795  1.1862 -0.0797 -1.4385
  149SAPE   H4Y16432   5.122   1.157   5.703 -3.7728  2.3052  2.9374
  149SAPE   C3516433   4.988   1.009   5.785 -0.0812 -0.7857 -0.2316
  149SAPE   H5X16434   4.901   1.073   5.812  0.1245 -1.4534  2.2389
  149SAPE   H5Y16435   5.005   0.938   5.869  1.3269  0.3987  0.5242
  149SAPE   C3616436   4.972   0.935   5.655  0.4910  0.1443 -0.4669
  149SAPE   H6X16437   4.889   0.862   5.664 -0.3000  1.0565 -0.2071
  149SAPE   H6Y16438   5.053   0.860   5.642 -0.8584 -1.0470 -2.5173
  149SAPE   C3716439   4.958   1.020   5.529  0.1392  0.0568  0.4635
  149SAPE   H7X16440   5.034   1.101   5.527 -1.5477  1.7884  2.0535
  149SAPE   H7Y16441   4.862   1.076   5.531  0.0226 -0.0545 -0.8937
  149SAPE   C3816442   4.970   0.926   5.412  0.2919  0.3606 -0.4835
  149SAPE   H8X16443   4.900   0.840   5.413 -1.9734  2.0435  1.4096
  149SAPE   H8Y16444   5.073   0.886   5.412 -0.1114 -0.7119  0.1320
  149SAPE   C3916445   4.924   0.994   5.287  0.0714 -0.5647  0.2059
  149SAPE   H9X16446   4.991   1.080   5.263  1.6697 -1.9246 -0.3809
  149SAPE   H9Y16447   4.821   1.037   5.289  1.3761  2.8980  0.4420
  149SAPE  C31016448   4.946   0.904   5.162 -0.0943  0.2425  0.0453
  149SAPE  H10X16449   4.911   0.803   5.193 -0.8929 -0.2901 -2.3925
  149SAPE  H10Y16450   5.052   0.888   5.133 -0.4166 -1.7485 -0.1448
  149SAPE  C31116451   4.853   0.939   5.047  0.0673  0.4686  0.2698
  149SAPE  H11X16452   4.876   1.045   5.023 -1.9375  0.5530 -1.4822
  149SAPE  H11Y16453   4.749   0.936   5.086  0.2693  0.4596  0.8288
  149SAPE  C31216454   4.865   0.846   4.924  0.0305  0.5678 -0.6805
  149SAPE  H12X16455   4.841   0.739   4.944 -3.5099  1.1964 -0.9137
  149SAPE  H12Y16456   4.975   0.845   4.909  0.0367  2.5221 -0.9438
  149SAPE  C31316457   4.793   0.892   4.796  0.0975  0.1737 -0.8133
  149SAPE  H13X16458   4.798   1.003   4.800 -1.5592  0.2547 -0.0109
  149SAPE  H13Y16459   4.686   0.866   4.812  0.0795  0.5568 -0.2460
  149SAPE  C31416460   4.849   0.838   4.664  0.1977 -0.2779  0.4724
  149SAPE  H14X16461   4.800   0.741   4.639 -0.0842  0.3407 -1.4978
  149SAPE  H14Y16462   4.959   0.821   4.653 -0.1110 -1.6849 -0.8537
  149SAPE  C31516463   4.819   0.930   4.549 -0.1127  0.7471  0.0417
  149SAPE  H15X16464   4.875   1.025   4.563 -0.5004  1.1458 -0.9913
  149SAPE  H15Y16465   4.711   0.952   4.539 -0.3574 -0.3560  0.0992
  149SAPE  C31616466   4.875   0.886   4.415 -0.2773 -0.4193  0.5224
  149SAPE  H16X16467   4.850   0.779   4.399  0.2173 -0.2896 -1.3115
  149SAPE  H16Y16468   4.986   0.878   4.416 -0.2500 -0.7943 -1.3997
  149SAPE  C31716469   4.841   0.984   4.296 -0.3472  0.6651 -0.0162
  149SAPE  H17X16470   4.738   1.022   4.308 -1.5228 -2.7233  1.9794
  149SAPE  H17Y16471   4.856   0.924   4.203  1.2507 -0.4243  0.8867
  149SAPE  C31816472   4.938   1.102   4.287  0.2044 -0.1498  0.1518
  149SAPE  H18X16473   4.925   1.167   4.198 -2.2520 -0.2173  0.3906
  149SAPE  H18Y16474   5.044   1.068   4.282  0.0184 -0.5818 -1.2595
  149SAPE  H18Z16475   4.921   1.166   4.376 -2.9111 -0.4928 -0.0762
  150SAPE     N16476   1.207   1.315   6.386  0.2145  0.5172  0.0629
  150SAPE   HN116477   1.235   1.364   6.298 -1.3392 -0.9084 -1.2919
  150SAPE   HN216478   1.197   1.386   6.462 -3.6628  2.2449 -1.7653
  150SAPE   HN316479   1.278   1.241   6.401 -0.3221 -0.6951 -2.7034
  150SAPE   C1216480   1.068   1.251   6.352 -0.0900 -0.1948 -1.0738
  150SAPE  H12A16481   1.006   1.320   6.292 -0.2983  1.2388  0.7096
  150SAPE  H12B16482   1.018   1.234   6.450 -1.1486  1.7981 -1.2262
  150SAPE   C1116483   1.091   1.119   6.278 -0.6522  0.1742  0.9989
  150SAPE  H11A16484   1.139   1.131   6.179  0.1936  0.8540  1.4839
  150SAPE  H11B16485   0.992   1.086   6.239  0.3533 -0.6389 -0.9767
  150SAPE     P16486   1.315   0.992   6.345  0.2740 -0.1099  0.3346
  150SAPE   O1316487   1.383   1.116   6.396  0.0048  0.0134 -0.3713
  150SAPE   O1416488   1.342   0.860   6.413 -0.6151  0.2184 -0.6346
  150SAPE   O1216489   1.159   1.023   6.356 -0.6905 -0.5211 -0.4206
  150SAPE   O1116490   1.348   0.965   6.193 -0.3072  0.1769 -0.1060
  150SAPE    C116491   1.471   1.005   6.145 -0.2919 -0.2414  0.0962
  150SAPE    HA16492   1.485   1.116   6.142 -0.5828 -0.2227 -1.7498
  150SAPE    HB16493   1.561   0.959   6.191 -0.9435 -0.1833  1.4799
  150SAPE    C216494   1.477   0.972   5.994 -0.6668 -0.4961 -0.3955
  150SAPE    HS16495   1.556   1.026   5.938 -1.3590  1.1442  0.1657
  150SAPE   O2116496   1.354   0.992   5.937  0.0411 -0.3370  0.0093
  150SAPE   C2116497   1.323   1.116   5.899 -0.0676 -0.2439  0.0448
  150SAPE   O2216498   1.404   1.206   5.898 -0.4523 -0.1570 -0.4143
  150SAPE   C2216499   1.180   1.135   5.849 -0.7713 -0.4458  0.1404
  150SAPE   H2R16500   1.171   1.062   5.766 -0.5273  2.0728 -2.2245
  150SAPE   H2S16501   1.119   1.107   5.938  0.2889 -2.4620  0.2832
  150SAPE    C316502   1.509   0.825   5.973  0.1783 -0.2193  0.1303
  150SAPE    HX16503   1.444   0.770   6.044 -1.0781  0.3241 -0.5508
  150SAPE    HY16504   1.612   0.799   6.005  0.5966 -2.0146 -2.3793
  150SAPE   O3116505   1.505   0.792   5.833  0.4148  0.0280 -0.5251
  150SAPE   C3116506   1.389   0.719   5.797 -0.1061 -0.2590  0.5281
  150SAPE   O3216507   1.316   0.666   5.878  0.4143 -0.0168  0.0391
  150SAPE   C3216508   1.370   0.709   5.645  0.2373  0.2361  0.2085
  150SAPE   H2X16509   1.291   0.633   5.624  0.5332  0.2668 -1.1378
  150SAPE   H2Y16510   1.462   0.672   5.595 -1.1471  0.8457 -3.0350
  150SAPE   C2316511   1.162   1.279   5.800 -0.6005  0.4664  0.2119
  150SAPE   H3R16512   1.206   1.357   5.867 -0.1409  3.2219 -3.0006
  150SAPE   H3S16513   1.054   1.301   5.794 -0.6644  0.8507  2.0282
  150SAPE   C2416514   1.213   1.306   5.656  0.1600  0.2343 -0.0960
  150SAPE   H4R16515   1.148   1.244   5.590  2.3736 -1.4276 -0.8244
  150SAPE   H4S16516   1.309   1.254   5.636  0.4567 -0.1858  2.2291
  150SAPE   C2516517   1.205   1.446   5.619  0.1426 -0.0813  1.6351
  150SAPE   H5R16518   1.102   1.484   5.628 -0.0266  0.5569 -1.5753
  150SAPE   C2616519   1.307   1.525   5.580 -0.1917  0.0832 -0.0502
  150SAPE   H6R16520   1.287   1.617   5.523 -1.6685 -1.3998 -2.0800
  150SAPE   C2716521   1.454   1.483   5.582 -0.3230  0.1318  0.3067
  150SAPE   H7R16522   1.468   1.395   5.649 -1.1108 -0.7666 -0.6914
  150SAPE   H7S16523   1.517   1.561   5.630  0.9322 -1.1019  0.7414
  150SAPE   C2816524   1.518   1.464   5.446  0.2647 -0.0861 -0.0726
  150SAPE   H8R16525   1.526   1.358   5.420  1.2576 -0.0446  0.0304
  150SAPE   C2916526   1.541   1.563   5.356 -0.3582 -0.0984  0.3097
  150SAPE   H9R16527   1.587   1.533   5.261 -1.3528  3.1718 -1.3757
  150SAPE  C21016528   1.521   1.708   5.381 -0.1372 -0.2650  0.0414
  150SAPE  H10R16529   1.608   1.777   5.379  0.1004 -0.5758 -0.7602
  150SAPE  H10S16530   1.483   1.717   5.484  2.3633  2.7636  0.8633
  150SAPE  C21116531   1.404   1.757   5.302  0.2237  0.3917  0.6858
  150SAPE  H11R16532   1.308   1.704   5.310  0.3523 -0.1304 -0.8347
  150SAPE  C21216533   1.412   1.855   5.213  0.2808 -0.4674 -0.5605
  150SAPE  H12R16534   1.320   1.885   5.162 -1.5126 -2.6134  1.2315
  150SAPE  C21316535   1.534   1.935   5.162 -0.3187 -0.1103  0.5594
  150SAPE  H13R16536   1.522   1.945   5.051 -2.3269 -0.3027  0.7126
  150SAPE  H13S16537   1.620   1.866   5.170  0.5386  0.9654  0.8720
  150SAPE  C21416538   1.584   2.063   5.235  0.2130  0.3995  0.0347
  150SAPE  H14R16539   1.571   2.057   5.344 -0.1472 -0.0435 -0.0285
  150SAPE  C21516540   1.642   2.165   5.181 -0.2589 -0.1140  0.3420
  150SAPE  H15R16541   1.671   2.249   5.245 -0.9807  1.1913 -0.9862
  150SAPE  C21616542   1.680   2.207   5.039 -0.4179 -0.0047  0.2338
  150SAPE  H16R16543   1.633   2.303   5.011  0.5507  0.1239 -1.0118
  150SAPE  H16S16544   1.647   2.123   4.974 -0.6141  0.6157 -0.4681
  150SAPE  C21716545   1.834   2.227   5.018 -0.0736  0.4999 -0.0910
  150SAPE  H17R16546   1.886   2.131   5.040 -0.5687 -0.2103 -1.8601
  150SAPE  H17S16547   1.873   2.304   5.088  1.4382 -0.9297  0.7190
  150SAPE  C21816548   1.869   2.257   4.875  0.4820 -0.1530 -0.1843
  150SAPE  H18R16549   1.821   2.357   4.864  1.5408  0.8156  2.8642
  150SAPE  H18S16550   1.821   2.182   4.808 -0.8157  1.1545 -0.7620
  150SAPE  C21916551   2.022   2.270   4.859 -0.3411  0.2038  0.1706
  150SAPE  H19R16552   2.079   2.176   4.875  2.4886  1.5073 -1.5126
  150SAPE  H19S16553   2.062   2.330   4.944 -0.0892  1.4319 -0.7894
  150SAPE  C22016554   2.057   2.340   4.733 -0.4157 -0.5728  0.6597
  150SAPE  H20R16555   1.999   2.434   4.718  0.1083 -0.4149 -0.5484
  150SAPE  H20S16556   2.037   2.269   4.649 -0.1689  0.6509 -0.4806
  150SAPE  H20T16557   2.168   2.350   4.736 -0.1761 -1.8107 -1.7057
  150SAPE   C3316558   1.335   0.843   5.570  0.5786 -0.2291  0.2600
  150SAPE   H3X16559   1.378   0.929   5.625 -0.1280  1.5695 -1.8627
  150SAPE   H3Y16560   1.226   0.865   5.569  0.6234 -0.0029  0.4146
  150SAPE   C3416561   1.396   0.849   5.429 -0.5824 -0.5818 -0.2125
  150SAPE   H4X16562   1.357   0.765   5.367 -2.2753 -1.2939  1.6809
  150SAPE   H4Y16563   1.504   0.833   5.446 -0.4953 -0.4441 -0.6409
  150SAPE   C3516564   1.371   0.979   5.353  0.4286  0.2328  0.1524
  150SAPE   H5X16565   1.434   1.056   5.404  1.0401  1.2853 -2.0715
  150SAPE   H5Y16566   1.263   1.005   5.353  0.0172 -1.3673  0.1949
  150SAPE   C3616567   1.411   0.971   5.203  0.6246  1.0961 -0.3008
  150SAPE   H6X16568   1.333   0.917   5.146  0.7754 -0.0887  0.5913
  150SAPE   H6Y16569   1.511   0.926   5.189  0.0887 -1.3045  2.7337
  150SAPE   C3716570   1.410   1.116   5.162 -0.2588 -0.7011 -0.0321
  150SAPE   H7X16571   1.501   1.169   5.199  0.4666 -1.8245 -0.1602
  150SAPE   H7Y16572   1.325   1.177   5.199  0.2810  0.5473 -0.7998
  150SAPE   C3816573   1.398   1.130   5.011  0.5476  0.4135 -0.1614
  150SAPE   H8X16574   1.409   1.239   4.994 -0.1412  0.4452 -0.4103
  150SAPE   H8Y16575   1.294   1.105   4.980  0.7846  0.7568 -1.2888
  150SAPE   C3916576   1.498   1.043   4.939 -0.6061 -0.8795  0.0690
  150SAPE   H9X16577   1.443   0.947   4.936 -0.6514 -0.8999  1.0979
  150SAPE   H9Y16578   1.592   1.037   4.997 -1.0987 -0.3303  0.9430
  150SAPE  C31016579   1.542   1.110   4.811 -0.5619  0.6490  0.7843
  150SAPE  H10X16580   1.595   1.202   4.844  1.0635 -0.8573  2.6568
  150SAPE  H10Y16581   1.452   1.138   4.753 -1.3293 -1.3124  0.9485
  150SAPE  C31116582   1.625   1.025   4.717 -0.5595  0.2473 -0.7044
  150SAPE  H11X16583   1.572   0.935   4.681 -0.5219  0.0428 -0.2597
  150SAPE  H11Y16584   1.714   0.994   4.777 -1.1891  0.0792  0.1700
  150SAPE  C31216585   1.693   1.104   4.605 -0.1455  0.7578  0.5103
  150SAPE  H12X16586   1.780   1.042   4.576  1.0312  2.4473  0.2767
  150SAPE  H12Y16587   1.717   1.209   4.634  1.9987  0.1249  1.2251
  150SAPE  C31316588   1.614   1.113   4.473  0.9493 -0.3381  0.1889
  150SAPE  H13X16589   1.515   1.160   4.492  0.3772 -2.1877  2.2474
  150SAPE  H13Y16590   1.591   1.014   4.429  0.2631 -0.0866 -0.0319
  150SAPE  C31416591   1.676   1.218   4.371 -0.0821  0.6439 -0.7844
  150SAPE  H14X16592   1.729   1.159   4.293 -1.2847  0.2992 -1.3597
  150SAPE  H14Y16593   1.756   1.277   4.420 -0.6342 -0.0675  1.0367
  150SAPE  C31516594   1.583   1.318   4.310 -0.2162  0.3601  0.0331
  150SAPE  H15X16595   1.506   1.369   4.372  0.5243  1.2438  0.2559
  150SAPE  H15Y16596   1.520   1.251   4.248  1.5086  0.8890 -2.4572
  150SAPE  C31616597   1.642   1.425   4.219 -0.3740  0.2009 -0.3755
  150SAPE  H16X16598   1.569   1.464   4.146 -1.2100  0.6581  0.6725
  150SAPE  H16Y16599   1.710   1.362   4.157 -1.9141 -3.2003  1.1213
  150SAPE  C31716600   1.731   1.531   4.290  0.0632 -0.0113 -0.3122
  150SAPE  H17X16601   1.778   1.612   4.230 -2.1118  1.3581 -0.3085
  150SAPE  H17Y16602   1.822   1.481   4.329 -0.5548 -0.0857  1.1188
  150SAPE  C31816603   1.662   1.607   4.404 -0.3054  0.8774  0.8723
  150SAPE  H18X16604   1.574   1.643   4.347 -1.0677 -2.2483 -0.1151
  150SAPE  H18Y16605   1.733   1.688   4.435  0.3684 -0.4288  2.9212
  150SAPE  H18Z16606   1.631   1.538   4.485  0.2842  1.3549  1.5184
  151SAPE     N16607   5.892   5.023   6.773 -0.8772 -0.3686  0.5094
  151SAPE   HN116608   5.830   4.949   6.813 -2.8316  1.1071  0.3524
  151SAPE   HN216609   5.961   5.045   6.848  1.2555 -1.4582 -1.0395
  151SAPE   HN316610   5.837   5.108   6.752  0.5646  0.8075  1.2958
  151SAPE   C1216611   5.958   4.965   6.653 -0.0812 -0.0153 -0.2544
  151SAPE  H12A16612   5.967   4.855   6.659  1.2442  0.0892 -0.0161
  151SAPE  H12B16613   6.055   5.014   6.632 -1.8427  2.4584 -3.4640
  151SAPE   C1116614   5.871   5.004   6.527 -0.4807 -0.3280 -0.0253
  151SAPE  H11A16615   5.775   4.948   6.525 -0.6425 -0.2211  2.2856
  151SAPE  H11B16616   5.939   4.978   6.443  0.8834  2.0915  0.2259
  151SAPE     P16617   5.737   5.223   6.560  0.3723  0.1252  0.0768
  151SAPE   O1316618   5.693   5.163   6.691 -0.5562 -0.2903  0.2036
  151SAPE   O1416619   5.773   5.367   6.563 -0.7506  0.4887 -0.3192
  151SAPE   O1216620   5.868   5.150   6.514 -0.2515 -0.1158 -0.6092
  151SAPE   O1116621   5.633   5.198   6.440 -0.0542 -0.1808 -0.2532
  151SAPE    C116622   5.656   5.239   6.302  0.4574  0.1650 -0.1019
  151SAPE    HA16623   5.562   5.275   6.255  1.4741  0.0784 -2.2911
  151SAPE    HB16624   5.716   5.333   6.304 -1.2003  1.3242  2.8204
  151SAPE    C216625   5.714   5.123   6.219 -0.7660 -0.1007  0.0748
  151SAPE    HS16626   5.821   5.103   6.243 -0.1553 -0.9336 -2.9074
  151SAPE   O2116627   5.698   5.155   6.080 -0.7001  0.0203 -0.0290
  151SAPE   C2116628   5.807   5.191   6.016  0.2990  0.7439  0.3176
  151SAPE   O2216629   5.914   5.211   6.069 -0.8286  0.5635  0.3574
  151SAPE   C2216630   5.785   5.199   5.865  0.0045 -0.0960 -0.1510
  151SAPE   H2R16631   5.715   5.116   5.842  0.3347 -0.3555 -0.2129
  151SAPE   H2S16632   5.749   5.300   5.836 -1.2385 -1.1144 -2.4136
  151SAPE    C316633   5.639   4.987   6.243  0.3315 -0.4885  0.2405
  151SAPE    HX16634   5.534   4.990   6.207  0.3167 -2.1449  0.0994
  151SAPE    HY16635   5.638   4.974   6.353  0.6200  0.1613  0.3262
  151SAPE   O3116636   5.722   4.891   6.183  0.0111 -0.5170  0.2948
  151SAPE   C3116637   5.661   4.772   6.177 -0.7071  0.2493  0.1793
  151SAPE   O3216638   5.560   4.740   6.232  0.4896 -0.4134  0.2719
  151SAPE   C3216639   5.736   4.686   6.072 -0.5807  0.1566  0.1942
  151SAPE   H2X16640   5.657   4.631   6.017  1.6259 -2.0859 -0.9101
  151SAPE   H2Y16641   5.801   4.617   6.130  0.3007  3.5026  3.5852
  151SAPE   C2316642   5.911   5.171   5.781  0.2994 -0.2145 -0.1103
  151SAPE   H3R16643   5.938   5.066   5.807 -1.6440 -0.6269  0.3599
  151SAPE   H3S16644   5.995   5.239   5.807  0.4614 -0.7529  0.8160
  151SAPE   C2416645   5.894   5.186   5.631 -0.2741 -0.0345  0.3140
  151SAPE   H4R16646   5.843   5.102   5.579  2.0248 -0.6224 -1.1291
  151SAPE   H4S16647   5.991   5.187   5.578 -0.7096 -0.5614 -0.5195
  151SAPE   C2516648   5.832   5.319   5.603  0.3402 -0.9182 -0.5508
  151SAPE   H5R16649   5.894   5.408   5.621 -2.7722  1.1564  0.7654
  151SAPE   C2616650   5.714   5.350   5.543 -0.2533  0.3411 -1.0040
  151SAPE   H6R16651   5.699   5.458   5.526 -0.2215  0.3678 -0.8605
  151SAPE   C2716652   5.607   5.255   5.496  0.5094  0.0261 -0.2254
  151SAPE   H7R16653   5.520   5.261   5.564  0.6296  0.3695 -0.1010
  151SAPE   H7S16654   5.640   5.148   5.498  2.7597  0.6691  0.6832
  151SAPE   C2816655   5.539   5.296   5.365  0.7551  0.5139 -0.4573
  151SAPE   H8R16656   5.482   5.390   5.358 -0.8285 -0.2378  1.5922
  151SAPE   C2916657   5.550   5.225   5.250  0.6744 -0.2609  0.7264
  151SAPE   H9R16658   5.518   5.268   5.154  1.4841  0.7507  0.8860
  151SAPE  C21016659   5.622   5.093   5.246  0.4479  0.6294 -0.4763
  151SAPE  H10R16660   5.592   5.034   5.335 -0.9879  0.3401 -1.1096
  151SAPE  H10S16661   5.732   5.100   5.234  0.4240 -0.6886 -1.8389
  151SAPE  C21116662   5.574   4.994   5.134 -0.1633 -0.1043 -0.0343
  151SAPE  H11R16663   5.656   4.948   5.078  0.4196  2.2838 -1.2708
  151SAPE  C21216664   5.453   4.949   5.120  0.2816  0.0427 -0.1052
  151SAPE  H12R16665   5.428   4.899   5.026  0.2752 -2.0723  0.9556
  151SAPE  C21316666   5.335   4.976   5.214  0.0313 -0.3913 -0.5814
  151SAPE  H13R16667   5.272   5.047   5.156 -0.1316  1.6182  1.8577
  151SAPE  H13S16668   5.358   5.045   5.298 -0.5391  2.7715 -2.8148
  151SAPE  C21416669   5.257   4.856   5.264  0.3761 -0.2218  0.6142
  151SAPE  H14R16670   5.181   4.810   5.199  2.5934 -1.3427 -1.3673
  151SAPE  C21516671   5.279   4.805   5.386 -0.6344  0.6178  0.4040
  151SAPE  H15R16672   5.232   4.707   5.405 -0.1559  0.5702  1.4140
  151SAPE  C21616673   5.386   4.846   5.484 -0.1479  0.3283  0.5124
  151SAPE  H16R16674   5.466   4.908   5.437  0.5872 -0.4994  0.6321
  151SAPE  H16S16675   5.436   4.752   5.516 -1.5405 -1.1698 -1.4896
  151SAPE  C21716676   5.353   4.904   5.619  0.8065 -0.2251 -0.5479
  151SAPE  H17R16677   5.256   4.872   5.663  0.5092  2.7557  1.2911
  151SAPE  H17S16678   5.336   5.011   5.597  2.2480  0.4131  1.1833
  151SAPE  C21816679   5.463   4.880   5.719 -0.8881 -0.7466 -0.4103
  151SAPE  H18R16680   5.555   4.929   5.681 -1.6652  0.9800 -0.1397
  151SAPE  H18S16681   5.476   4.770   5.731  1.3255 -0.2587  2.9827
  151SAPE  C21916682   5.450   4.946   5.857  0.1990  0.5214  0.0647
  151SAPE  H19R16683   5.440   5.056   5.849  0.8285  0.5986  0.2920
  151SAPE  H19S16684   5.543   4.941   5.918  0.3798  4.5487  0.3483
  151SAPE  C22016685   5.347   4.874   5.947 -0.2176  0.1143 -0.3447
  151SAPE  H20R16686   5.393   4.783   5.991 -1.2836  0.2276  1.0793
  151SAPE  H20S16687   5.263   4.829   5.889 -0.4317 -0.9206  0.7292
  151SAPE  H20T16688   5.313   4.938   6.031  0.8753  1.7405 -1.0953
  151SAPE   C3316689   5.805   4.762   5.952 -0.2496  0.1374  0.2614
  151SAPE   H3X16690   5.893   4.824   5.975 -0.3704  0.8051 -0.9713
  151SAPE   H3Y16691   5.725   4.833   5.920 -0.9689 -0.3371  0.9771
  151SAPE   C3416692   5.848   4.661   5.837 -0.0016  0.3475  0.6146
  151SAPE   H4X16693   5.756   4.621   5.790  0.7890 -2.0786  0.9906
  151SAPE   H4Y16694   5.912   4.578   5.874  0.6915  0.7085  0.2271
  151SAPE   C3516695   5.926   4.737   5.727  0.2453 -0.4197 -0.6585
  151SAPE   H5X16696   6.010   4.786   5.781 -1.3707  2.0157 -0.2082
  151SAPE   H5Y16697   5.870   4.821   5.682  1.4508 -0.1337 -1.7050
  151SAPE   C3616698   5.973   4.654   5.608 -0.4032 -0.2370 -0.8785
  151SAPE   H6X16699   5.885   4.597   5.571 -0.5038 -1.2592  0.8603
  151SAPE   H6Y16700   6.059   4.590   5.636  1.0493  2.5547  1.6247
  151SAPE   C3716701   6.033   4.738   5.497  0.0265  0.6769  0.0613
  151SAPE   H7X16702   6.070   4.660   5.427  2.0066 -0.1668  1.9205
  151SAPE   H7Y16703   6.123   4.795   5.527  0.1057  0.0634  1.0377
  151SAPE   C3816704   5.934   4.834   5.431 -0.4070  0.4220  0.2012
  151SAPE   H8X16705   5.925   4.920   5.501  1.8368  2.4436 -1.7833
  151SAPE   H8Y16706   5.838   4.781   5.413  0.1379 -0.4462 -0.2221
  151SAPE   C3916707   5.983   4.888   5.300  0.1693 -0.3669  1.3157
  151SAPE   H9X16708   5.899   4.933   5.242  0.3872 -0.7499  0.6878
  151SAPE   H9Y16709   6.013   4.802   5.237 -0.9408 -0.6391  1.1299
  151SAPE  C31016710   6.104   4.981   5.311 -0.3005  0.0772 -0.2933
  151SAPE  H10X16711   6.187   4.929   5.364 -0.9173 -2.9129 -2.0154
  151SAPE  H10Y16712   6.079   5.081   5.354 -0.5363  0.3311 -1.0169
  151SAPE  C31116713   6.158   5.013   5.169  0.6581  0.2988 -0.6674
  151SAPE  H11X16714   6.076   5.063   5.112 -1.1023  0.4208  1.7851
  151SAPE  H11Y16715   6.171   4.911   5.127 -0.2908 -0.0006 -0.2683
  151SAPE  C31216716   6.289   5.092   5.167 -0.5945  0.8464 -0.3255
  151SAPE  H12X16717   6.370   5.018   5.183 -1.8146 -0.4345  0.1158
  151SAPE  H12Y16718   6.298   5.169   5.247 -0.5990 -0.7419  1.2812
  151SAPE  C31316719   6.322   5.144   5.033 -0.4255  0.2150 -0.1291
  151SAPE  H13X16720   6.252   5.221   4.994  0.3329  1.1314  0.2550
  151SAPE  H13Y16721   6.343   5.065   4.957  1.3601 -0.6098  1.1455
  151SAPE  C31416722   6.457   5.226   5.026 -0.6456 -0.8716  0.3456
  151SAPE  H14X16723   6.543   5.159   5.046  0.4806  0.3664 -0.2370
  151SAPE  H14Y16724   6.445   5.307   5.101  0.4151  0.2731 -0.6855
  151SAPE  C31516725   6.491   5.293   4.885 -0.0426  0.2802  0.3709
  151SAPE  H15X16726   6.469   5.220   4.804  0.6665 -1.0016  1.2895
  151SAPE  H15Y16727   6.598   5.322   4.878 -0.0941  0.7999  1.5172
  151SAPE  C31616728   6.392   5.409   4.852  0.4045  0.2467  0.4963
  151SAPE  H16X16729   6.402   5.485   4.932  0.4055 -1.3458  2.0604
  151SAPE  H16Y16730   6.292   5.362   4.860  1.2193 -1.9515 -1.1315
  151SAPE  C31716731   6.395   5.489   4.714 -0.5754  0.5870 -0.0061
  151SAPE  H17X16732   6.303   5.549   4.699 -0.5935  0.1187 -2.0800
  151SAPE  H17Y16733   6.400   5.409   4.637 -1.1744  2.2692 -1.8628
  151SAPE  C31816734   6.509   5.586   4.696 -0.2807  0.3527 -0.2244
  151SAPE  H18X16735   6.516   5.641   4.600  2.0379  0.2417 -0.1714
  151SAPE  H18Y16736   6.603   5.527   4.701 -1.0984 -0.9921 -0.4394
  151SAPE  H18Z16737   6.502   5.665   4.774 -0.2118  0.0591  0.0808
  152SAPE     N16738   1.779   6.367   6.274 -0.1229 -0.1881  0.1987
  152SAPE   HN116739   1.757   6.351   6.173  1.0279 -1.6762  0.1462
  152SAPE   HN216740   1.762   6.270   6.309  0.7537 -1.7798 -3.2837
  152SAPE   HN316741   1.700   6.409   6.327 -0.1402 -0.3962  0.3398
  152SAPE   C1216742   1.913   6.436   6.299 -0.1916  0.3464  0.0967
  152SAPE  H12A16743   1.919   6.453   6.409  0.6879 -0.6689  0.2188
  152SAPE  H12B16744   1.917   6.535   6.249  0.1357 -0.3020 -1.2064
  152SAPE   C1116745   2.031   6.359   6.234  0.9649  0.1517 -0.0082
  152SAPE  H11A16746   2.124   6.419   6.240 -0.3647  2.4650 -1.1149
  152SAPE  H11B16747   2.006   6.347   6.126  0.8811 -0.2419  0.0546
  152SAPE     P16748   2.173   6.142   6.249  0.0698 -0.3512 -0.5135
  152SAPE   O1316749   2.243   6.193   6.134 -0.4947 -0.4844  0.5762
  152SAPE   O1416750   2.257   6.114   6.370  0.5267 -0.0335 -0.3715
  152SAPE   O1216751   2.055   6.233   6.300  0.5849 -0.2110  0.5220
  152SAPE   O1116752   2.090   6.017   6.205 -0.7568  0.0431  0.2039
  152SAPE    C116753   1.961   6.030   6.142 -0.6305 -0.0745 -0.2728
  152SAPE    HA16754   1.923   5.926   6.131 -1.0950  0.1277 -0.6382
  152SAPE    HB16755   1.890   6.088   6.205 -0.6478 -0.2552 -0.1267
  152SAPE    C216756   1.970   6.079   5.989 -0.8125 -0.3637 -0.6152
  152SAPE    HS16757   1.998   6.187   5.992  0.3373 -0.6688  0.6837
  152SAPE   O2116758   1.848   6.060   5.911 -0.3215 -0.4900 -0.4733
  152SAPE   C2116759   1.741   6.133   5.950 -0.4014 -0.1037  0.2110
  152SAPE   O2216760   1.757   6.222   6.036 -0.1039  0.2243  0.2872
  152SAPE   C2216761   1.612   6.122   5.875  1.0124 -0.3260 -1.2858
  152SAPE   H2R16762   1.583   6.015   5.863 -1.2176  0.3240 -2.2434
  152SAPE   H2S16763   1.523   6.159   5.931  1.0378 -2.9047  0.6425
  152SAPE    C316764   2.092   6.021   5.911  0.7560  0.0159 -1.4858
  152SAPE    HX16765   2.088   5.910   5.904  1.3966 -0.0914 -0.3869
  152SAPE    HY16766   2.188   6.040   5.962 -0.7580  1.6669  0.9754
  152SAPE   O3116767   2.092   6.085   5.782  0.0331  0.9384 -0.6096
  152SAPE   C3116768   2.199   6.059   5.717 -0.1175 -0.3209 -0.6114
  152SAPE   O3216769   2.283   5.977   5.748  0.0484  0.0340 -0.1349
  152SAPE   C3216770   2.200   6.121   5.583  0.1614  0.0340  0.0723
  152SAPE   H2X16771   2.206   6.230   5.606 -0.8946 -0.2301  1.7910
  152SAPE   H2Y16772   2.109   6.082   5.533  0.3356 -1.9759  1.2131
  152SAPE   C2316773   1.601   6.199   5.739 -0.2521  0.0887  0.3412
  152SAPE   H3R16774   1.694   6.168   5.686 -0.5434  0.1958 -0.2397
  152SAPE   H3S16775   1.617   6.308   5.755 -3.1150  0.8317 -1.1945
  152SAPE   C2416776   1.470   6.160   5.660 -0.3729 -0.8522 -0.5008
  152SAPE   H4R16777   1.455   6.237   5.581  1.9309  0.1691 -0.0189
  152SAPE   H4S16778   1.379   6.153   5.723  0.2256 -3.1244  0.2115
  152SAPE   C2516779   1.488   6.025   5.582 -0.2196 -0.2220  0.3852
  152SAPE   H5R16780   1.532   5.941   5.638 -0.8947 -0.7127  0.1948
  152SAPE   C2616781   1.478   5.997   5.449  1.1981 -0.4452 -0.2973
  152SAPE   H6R16782   1.499   5.895   5.415  2.0397 -0.1955 -0.5532
  152SAPE   C2716783   1.424   6.087   5.344  0.0757 -0.4351  0.1777
  152SAPE   H7R16784   1.370   6.172   5.389  0.3535 -0.0619 -0.1899
  152SAPE   H7S16785   1.346   6.035   5.284  0.1029 -0.0026 -0.2390
  152SAPE   C2816786   1.527   6.136   5.242  0.1707 -0.3841 -0.3245
  152SAPE   H8R16787   1.600   6.202   5.291 -0.5052 -1.4504  2.2860
  152SAPE   C2916788   1.534   6.113   5.106  0.1747 -0.9910  0.1729
  152SAPE   H9R16789   1.622   6.153   5.053  0.5730 -0.1864  1.3964
  152SAPE  C21016790   1.441   6.029   5.019  0.2750 -0.2372 -1.2093
  152SAPE  H10R16791   1.414   6.088   4.929 -2.6286 -0.5960 -0.6645
  152SAPE  H10S16792   1.344   6.007   5.069  1.2651  3.0819  2.8026
  152SAPE  C21116793   1.513   5.910   4.976  0.6294 -0.4910 -0.5072
  152SAPE  H11R16794   1.600   5.876   5.034 -0.6335 -5.0511 -0.8510
  152SAPE  C21216795   1.485   5.827   4.867  0.5633  0.1735  0.1063
  152SAPE  H12R16796   1.559   5.747   4.849  1.1339  0.7645 -0.2255
  152SAPE  C21316797   1.379   5.849   4.757 -0.6245  0.2867 -0.0090
  152SAPE  H13R16798   1.428   5.906   4.675 -1.7835  0.8454 -0.3318
  152SAPE  H13S16799   1.313   5.934   4.784  2.9403  3.4141 -0.2882
  152SAPE  C21416800   1.313   5.727   4.682  0.4314 -0.8029  0.6575
  152SAPE  H14R16801   1.207   5.710   4.705  0.0289  2.0480  1.3784
  152SAPE  C21516802   1.371   5.638   4.601  0.3542 -0.4154  0.7251
  152SAPE  H15R16803   1.304   5.560   4.561  0.5501  0.0585 -0.6037
  152SAPE  C21616804   1.516   5.642   4.557 -0.0318  0.6144  0.4972
  152SAPE  H16R16805   1.577   5.688   4.638 -0.4698  1.0097  0.6048
  152SAPE  H16S16806   1.539   5.705   4.468 -0.0091 -1.2793 -0.8893
  152SAPE  C21716807   1.575   5.506   4.519 -0.4449  0.8069  0.0746
  152SAPE  H17R16808   1.523   5.453   4.437  2.7314  0.3430 -1.7870
  152SAPE  H17S16809   1.571   5.443   4.611 -0.4944  0.7853  0.0573
  152SAPE  C21816810   1.721   5.523   4.464 -0.2742 -0.1104 -0.1314
  152SAPE  H18R16811   1.782   5.550   4.553  1.6785 -1.4033 -1.0097
  152SAPE  H18S16812   1.717   5.606   4.390 -3.2980  1.0675  1.1668
  152SAPE  C21916813   1.789   5.397   4.401  0.3585 -0.3966  0.1310
  152SAPE  H19R16814   1.798   5.318   4.478 -2.5482 -1.0443 -0.0752
  152SAPE  H19S16815   1.890   5.427   4.366 -0.6185  0.0673 -2.5357
  152SAPE  C22016816   1.719   5.322   4.292 -0.2701 -0.7786 -0.3542
  152SAPE  H20R16817   1.793   5.252   4.248  0.9547  0.4013 -0.2434
  152SAPE  H20S16818   1.683   5.399   4.220 -0.2766 -1.0882 -0.6867
  152SAPE  H20T16819   1.625   5.277   4.330 -0.1191 -0.9468 -0.1787
  152SAPE   C3316820   2.313   6.086   5.481  0.4652 -0.0851 -0.2113
  152SAPE   H3X16821   2.293   5.985   5.440 -1.5286 -0.1719  0.8556
  152SAPE   H3Y16822   2.415   6.082   5.525  0.6405 -1.9141 -0.7154
  152SAPE   C3416823   2.305   6.193   5.367 -0.0221  0.2259  0.1903
  152SAPE   H4X16824   2.341   6.291   5.404 -3.4800  1.9840 -0.7108
  152SAPE   H4Y16825   2.199   6.215   5.343  0.0091  1.2679  0.9253
  152SAPE   C3516826   2.372   6.149   5.235  0.0497  0.2035  0.0846
  152SAPE   H5X16827   2.323   6.057   5.199  2.2362 -0.6306 -0.9734
  152SAPE   H5Y16828   2.481   6.129   5.247 -0.0345  0.1241  0.7626
  152SAPE   C3616829   2.366   6.262   5.134  0.4349  0.5363 -0.4552
  152SAPE   H6X16830   2.410   6.361   5.160  0.0003  0.0949  2.1680
  152SAPE   H6Y16831   2.259   6.291   5.128  0.0916 -0.9240 -2.2370
  152SAPE   C3716832   2.396   6.223   4.987  0.7301  0.1787 -0.0444
  152SAPE   H7X16833   2.467   6.138   4.985  0.6386  0.0884  0.4351
  152SAPE   H7Y16834   2.451   6.309   4.942 -1.9991  1.9289 -0.2666
  152SAPE   C3816835   2.265   6.201   4.906  0.5454  0.0890  0.3799
  152SAPE   H8X16836   2.224   6.302   4.886  1.5020  0.5060  0.4803
  152SAPE   H8Y16837   2.184   6.141   4.952 -0.1117 -0.1252 -0.9958
  152SAPE   C3916838   2.299   6.123   4.776 -0.7077  0.4074  0.4020
  152SAPE   H9X16839   2.203   6.098   4.727 -1.7193 -0.4080  2.6622
  152SAPE   H9Y16840   2.347   6.026   4.801 -0.9958  0.1907  0.1183
  152SAPE  C31016841   2.387   6.188   4.672  0.4072 -0.9325 -0.2371
  152SAPE  H10X16842   2.400   6.112   4.592  0.3769  0.5474 -1.6846
  152SAPE  H10Y16843   2.479   6.225   4.723 -1.0925  2.7416  0.1132
  152SAPE  C31116844   2.319   6.311   4.598  0.6440  0.4266 -0.5707
  152SAPE  H11X16845   2.332   6.386   4.680  1.4406 -0.6075  0.2841
  152SAPE  H11Y16846   2.215   6.301   4.561  1.0825  1.8285 -2.2950
  152SAPE  C31216847   2.404   6.370   4.484 -0.1885  0.1691 -0.2081
  152SAPE  H12X16848   2.505   6.370   4.530 -0.7917  0.9231  1.2162
  152SAPE  H12Y16849   2.364   6.473   4.472  1.8904  1.1069  0.4007
  152SAPE  C31316850   2.395   6.284   4.363 -0.2361 -0.1295  0.5439
  152SAPE  H13X16851   2.293   6.240   4.349  0.1611 -0.7812 -0.3740
  152SAPE  H13Y16852   2.464   6.202   4.389  0.3587 -0.1701 -1.0893
  152SAPE  C31416853   2.432   6.364   4.236 -0.4475 -0.3227  0.7167
  152SAPE  H14X16854   2.533   6.409   4.238 -0.3195 -0.5673  3.2290
  152SAPE  H14Y16855   2.359   6.448   4.230 -1.3597 -1.0368  1.4553
  152SAPE  C31516856   2.415   6.275   4.109 -0.1141 -0.4328 -0.3145
  152SAPE  H15X16857   2.323   6.213   4.120  0.6912 -1.6514 -0.2092
  152SAPE  H15Y16858   2.500   6.205   4.096 -0.4164 -1.2457  1.7278
  152SAPE  C31616859   2.405   6.362   3.978  0.4685  0.6563 -0.2628
  152SAPE  H16X16860   2.498   6.419   3.957 -0.6226  2.0544 -1.5207
  152SAPE  H16Y16861   2.321   6.434   3.986  0.7082  0.9109 -0.0435
  152SAPE  C31716862   2.376   6.281   3.855  0.2576 -0.1522  0.5011
  152SAPE  H17X16863   2.347   6.352   3.774 -0.5066 -0.5084  0.4502
  152SAPE  H17Y16864   2.281   6.226   3.870 -0.1974  0.4410 -0.1011
  152SAPE  C31816865   2.489   6.187   3.815  0.2854 -0.1213  0.2472
  152SAPE  H18X16866   2.465   6.135   3.720  0.9570 -1.1235  0.6156
  152SAPE  H18Y16867   2.501   6.108   3.891  0.2375  0.7486  1.1860
  152SAPE  H18Z16868   2.582   6.246   3.797 -0.3454  0.1349 -2.7093
  153SAPE     N16869   0.270   5.795   6.622  0.3701 -0.3092 -0.4409
  153SAPE   HN116870   0.248   5.766   6.719 -0.7176  0.1296 -0.5385
  153SAPE   HN216871   0.186   5.777   6.564  0.2268  1.1488 -0.7263
  153SAPE   HN316872   0.351   5.738   6.589  1.3903 -0.1892  1.6967
  153SAPE   C1216873   0.308   5.941   6.605  0.6503 -0.0511 -0.0396
  153SAPE  H12A16874   0.399   5.955   6.668  2.3436  0.5552 -2.4714
  153SAPE  H12B16875   0.227   6.005   6.646 -0.3799 -0.9646 -0.5907
  153SAPE   C1116876   0.322   5.993   6.460 -0.3407  0.4283  0.2385
  153SAPE  H11A16877   0.361   6.097   6.471 -2.4516  1.1871  0.9365
  153SAPE  H11B16878   0.221   5.986   6.415 -0.6896  0.0443  1.0643
  153SAPE     P16879   0.562   5.944   6.372  0.1137 -0.3806 -0.3635
  153SAPE   O1316880   0.600   6.047   6.475 -0.0087  0.2375 -0.0638
  153SAPE   O1416881   0.650   5.824   6.367  0.2924  0.3396 -0.4716
  153SAPE   O1216882   0.406   5.907   6.378 -0.1383 -0.3948 -0.3324
  153SAPE   O1116883   0.557   6.009   6.232 -0.2855 -0.0224 -0.4625
  153SAPE    C116884   0.461   5.959   6.131 -0.2825  0.4156 -0.4339
  153SAPE    HA16885   0.378   5.901   6.175  0.0801  0.3549  0.1810
  153SAPE    HB16886   0.405   6.046   6.089 -0.0963 -0.3869 -2.4806
  153SAPE    C216887   0.535   5.884   6.015  0.6944  0.3391  0.0928
  153SAPE    HS16888   0.453   5.859   5.944 -1.0198  1.6334  1.5339
  153SAPE   O2116889   0.604   5.765   6.061  0.1323  0.6839  0.0440
  153SAPE   C2116890   0.522   5.665   6.101  0.2981  0.1333  0.0358
  153SAPE   O2216891   0.401   5.666   6.082  0.1167 -0.3985 -0.4002
  153SAPE   C2216892   0.596   5.546   6.151 -0.2794  0.6700  0.2155
  153SAPE   H2R16893   0.701   5.581   6.163 -0.7835  2.6098 -0.5666
  153SAPE   H2S16894   0.553   5.517   6.249 -2.0783  2.5816  0.0705
  153SAPE    C316895   0.642   5.970   5.942  0.1342 -0.4225  0.9282
  153SAPE    HX16896   0.684   5.913   5.856  1.1520 -1.0029  1.7951
  153SAPE    HY16897   0.721   5.996   6.016  0.2734  0.9336  0.3257
  153SAPE   O3116898   0.573   6.091   5.891 -0.2493 -0.2354 -0.2446
  153SAPE   C3116899   0.616   6.211   5.945 -0.1507 -0.1819 -0.6915
  153SAPE   O3216900   0.699   6.214   6.037  0.2747 -0.4213 -0.4808
  153SAPE   C3216901   0.549   6.334   5.878 -0.4115  0.3829  0.2155
  153SAPE   H2X16902   0.470   6.367   5.949  0.8726  1.7377  1.0721
  153SAPE   H2Y16903   0.498   6.300   5.785 -2.6862 -1.5430  2.0235
  153SAPE   C2316904   0.593   5.416   6.062  0.7996  0.0960  0.3130
  153SAPE   H3R16905   0.491   5.387   6.029  0.9307  0.8497 -0.8109
  153SAPE   H3S16906   0.624   5.330   6.125 -0.2412 -0.8371 -0.3919
  153SAPE   C2416907   0.680   5.418   5.930  0.2407 -0.1387  0.0474
  153SAPE   H4R16908   0.638   5.503   5.872  0.6938 -0.3198 -0.5662
  153SAPE   H4S16909   0.645   5.330   5.871  0.4011  1.5577 -2.7945
  153SAPE   C2516910   0.829   5.409   5.945 -0.7266 -0.6347 -0.0476
  153SAPE   H5R16911   0.870   5.322   6.000 -1.7697  1.2512  4.1559
  153SAPE   C2616912   0.917   5.504   5.908 -0.0340 -0.5186  0.2729
  153SAPE   H6R16913   1.024   5.491   5.932 -0.2413 -2.0643  0.4234
  153SAPE   C2716914   0.885   5.636   5.845 -0.6248  0.1885 -0.3396
  153SAPE   H7R16915   0.912   5.713   5.921 -0.5454  1.4235 -1.5862
  153SAPE   H7S16916   0.775   5.651   5.843 -0.7116 -0.3852 -0.0100
  153SAPE   C2816917   0.950   5.674   5.712 -0.2396 -0.6997 -0.0265
  153SAPE   H8R16918   1.056   5.698   5.700 -0.1376 -0.3358  1.3614
  153SAPE   C2916919   0.881   5.670   5.599  0.3207  0.2276  0.1845
  153SAPE   H9R16920   0.927   5.707   5.506  1.0909 -0.5393  0.2521
  153SAPE  C21016921   0.732   5.638   5.591  0.1244  0.3193  0.1663
  153SAPE  H10R16922   0.703   5.548   5.649 -1.1085 -0.6624 -1.8723
  153SAPE  H10S16923   0.714   5.611   5.485  1.7035  5.3311 -1.6551
  153SAPE  C21116924   0.642   5.751   5.621 -0.3678 -1.0013 -0.1865
  153SAPE  H11R16925   0.609   5.752   5.726 -2.3444  0.6652 -0.7659
  153SAPE  C21216926   0.595   5.844   5.541  0.3930  0.0537 -0.2848
  153SAPE  H12R16927   0.528   5.921   5.582 -1.7690 -0.2222 -2.9960
  153SAPE  C21316928   0.606   5.852   5.388  0.1791  0.5262 -0.0817
  153SAPE  H13R16929   0.547   5.767   5.348  0.7297 -1.2290  2.5978
  153SAPE  H13S16930   0.705   5.830   5.341  1.0553 -3.3682  3.0154
  153SAPE  C21416931   0.536   5.976   5.342 -0.9144 -0.7221 -0.0150
  153SAPE  H14R16932   0.525   6.049   5.423 -0.1306 -0.6782  0.0582
  153SAPE  C21516933   0.517   6.018   5.218 -0.1175  0.8527  0.2943
  153SAPE  H15R16934   0.453   6.105   5.197  0.2441  1.1437  0.3937
  153SAPE  C21616935   0.561   5.938   5.096  0.0220  0.2368  0.0278
  153SAPE  H16R16936   0.566   5.829   5.116  1.3068  0.3595  0.4892
  153SAPE  H16S16937   0.652   5.980   5.047 -1.7149  1.6602 -2.1512
  153SAPE  C21716938   0.470   5.954   4.979 -0.0846 -0.3078  0.2775
  153SAPE  H17R16939   0.367   5.960   5.020 -1.0139 -1.2048 -1.7759
  153SAPE  H17S16940   0.470   5.864   4.914 -4.0052  0.7803 -1.5367
  153SAPE  C21816941   0.493   6.090   4.901  0.2242  0.7350  0.0230
  153SAPE  H18R16942   0.603   6.104   4.900  0.7620 -2.5151 -2.2998
  153SAPE  H18S16943   0.454   6.178   4.956  0.0276  0.7530 -0.1410
  153SAPE  C21916944   0.433   6.072   4.754  0.5760  0.4037  1.0160
  153SAPE  H19R16945   0.323   6.057   4.760  0.8654 -2.8101  0.0836
  153SAPE  H19S16946   0.460   5.970   4.719  1.1475  0.8512  0.1061
  153SAPE  C22016947   0.466   6.186   4.660 -0.4534 -0.1883 -0.2288
  153SAPE  H20R16948   0.402   6.276   4.669 -0.4959 -0.4224  2.4212
  153SAPE  H20S16949   0.456   6.131   4.564  0.7240 -1.1828  0.1913
  153SAPE  H20T16950   0.573   6.215   4.670  0.4226 -1.0228 -4.7749
  153SAPE   C3316951   0.637   6.459   5.860  0.4264  0.0048  0.5437
  153SAPE   H3X16952   0.703   6.483   5.946  2.4127  1.5844 -1.2885
  153SAPE   H3Y16953   0.577   6.550   5.842 -0.1166 -0.5596 -0.6009
  153SAPE   C3416954   0.729   6.448   5.736  0.3687 -0.3120 -0.1451
  153SAPE   H4X16955   0.758   6.341   5.733 -1.4500 -0.8387 -0.7832
  153SAPE   H4Y16956   0.822   6.507   5.729 -0.2434  0.6930 -0.0235
  153SAPE   C3516957   0.657   6.486   5.602  0.2212 -0.1527  1.2044
  153SAPE   H5X16958   0.650   6.596   5.610 -1.4591  0.3465 -3.7761
  153SAPE   H5Y16959   0.558   6.435   5.591 -0.3036  0.8940  1.0084
  153SAPE   C3616960   0.738   6.458   5.477  0.0799  0.1402 -0.3608
  153SAPE   H6X16961   0.810   6.379   5.506 -0.6858 -0.0082  1.2448
  153SAPE   H6Y16962   0.791   6.550   5.445  2.4242 -0.6078  1.1334
  153SAPE   C3716963   0.647   6.414   5.363 -0.5446 -0.1515  0.8101
  153SAPE   H7X16964   0.551   6.469   5.374 -1.8772 -2.2261  0.2144
  153SAPE   H7Y16965   0.609   6.312   5.384  0.5208 -0.9602 -0.9584
  153SAPE   C3816966   0.714   6.416   5.226  0.1591  0.4536 -0.7222
  153SAPE   H8X16967   0.769   6.319   5.224 -0.5437 -0.0337  1.1442
  153SAPE   H8Y16968   0.789   6.497   5.217  2.0678 -1.1236  0.1837
  153SAPE   C3916969   0.611   6.403   5.112  0.3215  0.9498  0.1161
  153SAPE   H9X16970   0.540   6.488   5.113 -2.2384 -1.0683 -0.7126
  153SAPE   H9Y16971   0.552   6.313   5.140 -0.3313  2.4552  4.3050
  153SAPE  C31016972   0.680   6.397   4.973  0.4162  0.1061  1.1346
  153SAPE  H10X16973   0.603   6.356   4.905 -0.7736  3.0010  0.6065
  153SAPE  H10Y16974   0.777   6.343   4.975  0.7315  0.6688  1.6354
  153SAPE  C31116975   0.694   6.540   4.911 -0.8243  0.3974  0.1093
  153SAPE  H11X16976   0.789   6.593   4.932 -2.5543  2.9556  2.1698
  153SAPE  H11Y16977   0.612   6.612   4.932  0.0228  0.8417  2.1317
  153SAPE  C31216978   0.705   6.522   4.759 -0.6694  0.9092 -0.0052
  153SAPE  H12X16979   0.616   6.467   4.725 -1.1833  2.3753 -1.1229
  153SAPE  H12Y16980   0.796   6.465   4.731  0.6391  3.2603 -0.8152
  153SAPE  C31316981   0.711   6.653   4.675 -0.2476 -0.6515  0.5350
  153SAPE  H13X16982   0.655   6.728   4.735 -1.8053 -1.7050  0.4562
  153SAPE  H13Y16983   0.655   6.633   4.581 -1.3511  0.6369  0.8796
  153SAPE  C31416984   0.848   6.699   4.626 -0.0365 -0.3215  0.6642
  153SAPE  H14X16985   0.908   6.617   4.583  1.2080 -0.3808  2.4254
  153SAPE  H14Y16986   0.909   6.718   4.716  0.6651 -2.3852  0.6536
  153SAPE  C31516987   0.848   6.826   4.530  0.2034 -0.4808 -0.4822
  153SAPE  H15X16988   0.779   6.905   4.568  1.9068  2.1688 -2.5312
  153SAPE  H15Y16989   0.798   6.799   4.435 -0.8673  1.0026 -0.3910
  153SAPE  C31616990   0.986   6.873   4.502 -0.3721  0.1176 -0.1841
  153SAPE  H16X16991   1.033   6.778   4.472  0.3579  0.0940  0.9674
  153SAPE  H16Y16992   1.036   6.906   4.595 -1.3282  2.3173 -0.3616
  153SAPE  C31716993   0.996   6.987   4.402 -0.2932 -0.5329  0.4634
  153SAPE  H17X16994   0.948   6.955   4.307 -0.5060  0.7077  0.1387
  153SAPE  H17Y16995   1.105   6.997   4.384  0.0099 -1.0017  1.8580
  153SAPE  C31816996   0.941   7.118   4.457 -0.2864 -0.4482  0.1834
  153SAPE  H18X16997   0.957   7.201   4.384  0.2704 -1.2386 -0.6171
  153SAPE  H18Y16998   1.000   7.150   4.546  0.9474  1.3883 -1.2191
  153SAPE  H18Z16999   0.836   7.105   4.488 -0.0106 -0.1903  1.2644
  154SAPE     N17000   5.439   6.696   7.164 -0.6003 -0.6132  0.3725
  154SAPE   HN117001   5.390   6.712   7.074  1.5923 -0.0980 -0.8009
  154SAPE   HN217002   5.441   6.593   7.179  1.1952 -0.4390  1.6877
  154SAPE   HN317003   5.398   6.738   7.250  2.7762 -1.3915  2.5709
  154SAPE   C1217004   5.577   6.753   7.157 -0.5722 -0.3127  0.5405
  154SAPE  H12A17005   5.631   6.718   7.247  0.4330 -3.8386 -1.2443
  154SAPE  H12B17006   5.579   6.862   7.132 -0.9726 -0.3217  0.4632
  154SAPE   C1117007   5.654   6.693   7.041  0.0892 -0.0777 -0.1914
  154SAPE  H11A17008   5.762   6.719   7.051 -0.0312 -0.0172  1.1256
  154SAPE  H11B17009   5.627   6.734   6.942 -0.0805 -1.4739 -0.7430
  154SAPE     P17010   5.723   6.463   6.954  0.2768 -0.3161 -0.0708
  154SAPE   O1317011   5.852   6.459   7.026 -0.2045  0.2169 -0.3875
  154SAPE   O1417012   5.659   6.333   6.932 -0.5816  0.4707  0.4272
  154SAPE   O1217013   5.625   6.549   7.036  0.5749 -0.2664 -0.2183
  154SAPE   O1117014   5.725   6.548   6.819  0.3347 -0.0495  0.2393
  154SAPE    C117015   5.606   6.590   6.745  0.5633 -0.1198 -0.3338
  154SAPE    HA17016   5.517   6.570   6.809  0.7710  0.1686  0.0559
  154SAPE    HB17017   5.596   6.700   6.727 -2.7659 -0.3222 -0.4399
  154SAPE    C217018   5.602   6.508   6.614 -0.3250  0.2039  0.0030
  154SAPE    HS17019   5.605   6.401   6.641 -1.6339  0.0667 -0.2924
  154SAPE   O2117020   5.720   6.551   6.541  0.5087 -0.4756  0.2649
  154SAPE   C2117021   5.774   6.468   6.459 -0.9042 -0.9213  1.0687
  154SAPE   O2217022   5.747   6.353   6.441 -0.1314  0.5317  0.2480
  154SAPE   C2217023   5.905   6.528   6.389 -0.7096  0.1573  0.2548
  154SAPE   H2R17024   5.928   6.618   6.450 -0.6915 -0.3152  0.9559
  154SAPE   H2S17025   5.987   6.455   6.402  1.5006  2.5396  0.4482
  154SAPE    C317026   5.470   6.535   6.534  0.3547 -0.6468  0.0012
  154SAPE    HX17027   5.480   6.640   6.497 -1.2342  0.1348  1.6679
  154SAPE    HY17028   5.391   6.523   6.610  0.6643 -1.1486  0.2497
  154SAPE   O3117029   5.457   6.442   6.420  0.2330  0.0501 -0.1076
  154SAPE   C3117030   5.351   6.366   6.412  0.3194 -0.1190 -0.2467
  154SAPE   O3217031   5.266   6.351   6.506 -0.1678 -0.1427  0.3830
  154SAPE   C3217032   5.352   6.288   6.281  0.6082  0.4186 -0.1600
  154SAPE   H2X17033   5.250   6.292   6.239  1.1695 -3.3816 -2.3169
  154SAPE   H2Y17034   5.371   6.183   6.313 -0.8254 -0.7355 -2.7950
  154SAPE   C2317035   5.875   6.569   6.244  0.0162 -0.1829  0.7170
  154SAPE   H3R17036   5.835   6.482   6.187  0.8199  1.2688 -2.2425
  154SAPE   H3S17037   5.967   6.602   6.191 -0.8658  2.0672  0.4927
  154SAPE   C2417038   5.765   6.670   6.226  0.4778 -0.3888  0.5721
  154SAPE   H4R17039   5.664   6.640   6.259 -0.4406  1.3593 -0.5014
  154SAPE   H4S17040   5.734   6.674   6.119 -2.7042  2.0202  1.4269
  154SAPE   C2517041   5.797   6.812   6.266  0.3733  0.3399 -0.4133
  154SAPE   H5R17042   5.760   6.847   6.364  2.1420  1.1494  0.0075
  154SAPE   C2617043   5.851   6.902   6.188 -0.2406 -0.8862 -0.6587
  154SAPE   H6R17044   5.865   7.006   6.223 -2.1043 -0.3520 -1.3590
  154SAPE   C2717045   5.906   6.885   6.047  0.0726 -0.0916 -0.2702
  154SAPE   H7R17046   5.890   6.782   6.009  1.2539 -0.6713  0.7227
  154SAPE   H7S17047   6.016   6.893   6.059  0.0278 -1.9920  2.2186
  154SAPE   C2817048   5.841   6.981   5.953 -0.6049 -0.1813 -0.0587
  154SAPE   H8R17049   5.873   7.084   5.973 -0.2575 -0.5075  1.0891
  154SAPE   C2917050   5.775   6.960   5.841 -0.6013  0.2375  0.5261
  154SAPE   H9R17051   5.746   7.053   5.790  1.3227 -0.1072 -1.3363
  154SAPE  C21017052   5.720   6.832   5.792 -0.0176 -0.3572 -0.2728
  154SAPE  H10R17053   5.628   6.862   5.738 -1.0776  2.5544  2.8593
  154SAPE  H10S17054   5.671   6.769   5.869  0.5690 -0.1467  0.2717
  154SAPE  C21117055   5.806   6.746   5.706  0.3376  0.6661  0.4725
  154SAPE  H11R17056   5.884   6.691   5.760  0.5347  0.0113 -0.4583
  154SAPE  C21217057   5.789   6.735   5.569 -0.3473  1.0120 -0.5185
  154SAPE  H12R17058   5.848   6.661   5.514  0.4014  2.8265 -2.2870
  154SAPE  C21317059   5.687   6.803   5.482 -0.3043  0.1339  0.6946
  154SAPE  H13R17060   5.733   6.875   5.410 -0.0731 -1.4354 -0.7824
  154SAPE  H13S17061   5.617   6.871   5.535  1.5064  2.4279  0.3238
  154SAPE  C21417062   5.610   6.704   5.402  0.4849 -0.1575  0.2082
  154SAPE  H14R17063   5.516   6.667   5.445  1.4121  0.2800  2.7964
  154SAPE  C21517064   5.650   6.657   5.283 -0.8001  1.0159 -0.2215
  154SAPE  H15R17065   5.581   6.594   5.226  0.2538 -0.1938 -0.2050
  154SAPE  C21617066   5.777   6.678   5.208  0.3597 -0.5517  0.4282
  154SAPE  H16R17067   5.828   6.582   5.187  0.9527  0.2166 -2.0308
  154SAPE  H16S17068   5.852   6.724   5.277  0.4265  2.1462 -1.2583
  154SAPE  C21717069   5.767   6.771   5.087 -0.1517  0.5900 -0.3134
  154SAPE  H17R17070   5.874   6.798   5.077  0.6377 -1.7140  1.1577
  154SAPE  H17S17071   5.708   6.860   5.119 -2.7670 -0.7063 -1.1806
  154SAPE  C21817072   5.699   6.705   4.970 -0.0113 -0.3818 -0.0165
  154SAPE  H18R17073   5.590   6.704   4.987 -0.5486  4.0069 -2.0025
  154SAPE  H18S17074   5.729   6.602   4.938 -0.2096 -0.3860 -0.1928
  154SAPE  C21917075   5.714   6.800   4.845  0.2172 -0.8122 -0.4162
  154SAPE  H19R17076   5.818   6.832   4.823  0.0267 -1.0728 -1.8328
  154SAPE  H19S17077   5.671   6.897   4.877  2.3934 -0.6769  2.4386
  154SAPE  C22017078   5.644   6.749   4.720 -0.0813  0.2595  0.1029
  154SAPE  H20R17079   5.627   6.834   4.650  1.0494  1.6918  1.4936
  154SAPE  H20S17080   5.549   6.700   4.749  0.0125  0.1670  0.2584
  154SAPE  H20T17081   5.694   6.654   4.689  0.1048 -0.2418  1.8537
  154SAPE   C3317082   5.461   6.332   6.183 -0.3204  0.1426  0.3200
  154SAPE   H3X17083   5.562   6.299   6.217 -1.2253  0.3817  3.5407
  154SAPE   H3Y17084   5.445   6.441   6.171 -0.3836  0.1039  0.0238
  154SAPE   C3417085   5.427   6.276   6.039 -0.1338  0.6031  0.1174
  154SAPE   H4X17086   5.425   6.167   6.057 -1.6781  0.4527 -0.8204
  154SAPE   H4Y17087   5.514   6.296   5.973 -0.9481  0.3313 -1.0730
  154SAPE   C3517088   5.295   6.324   5.969 -0.2010  0.1518  0.1870
  154SAPE   H5X17089   5.289   6.435   5.964  0.1358  0.3283  2.5050
  154SAPE   H5Y17090   5.216   6.291   6.040 -0.4639  0.2724 -0.0461
  154SAPE   C3617091   5.268   6.257   5.831 -0.0968 -0.3863 -0.9300
  154SAPE   H6X17092   5.179   6.309   5.791 -0.0648 -0.4072 -1.0269
  154SAPE   H6Y17093   5.244   6.149   5.844  0.1162 -0.4524 -1.0777
  154SAPE   C3717094   5.369   6.267   5.729 -0.3175 -0.4586 -0.2399
  154SAPE   H7X17095   5.457   6.201   5.744  0.1545  0.1165 -0.4302
  154SAPE   H7Y17096   5.424   6.364   5.734  1.3983 -1.4415  1.2218
  154SAPE   C3817097   5.313   6.270   5.587  0.3222  0.2329  0.8990
  154SAPE   H8X17098   5.270   6.372   5.575  0.2390  0.0210 -1.0774
  154SAPE   H8Y17099   5.222   6.207   5.583 -0.0007  0.7162  0.4629
  154SAPE   C3917100   5.422   6.240   5.481 -0.0819  0.0945 -0.3229
  154SAPE   H9X17101   5.478   6.148   5.511  0.9083  0.7634 -0.0658
  154SAPE   H9Y17102   5.499   6.319   5.488 -0.0733 -0.0243  1.2987
  154SAPE  C31017103   5.378   6.236   5.333  0.8223 -0.1900  0.1389
  154SAPE  H10X17104   5.287   6.299   5.331  0.5671 -0.4555  1.8341
  154SAPE  H10Y17105   5.340   6.137   5.300  1.2619 -0.7634  1.3085
  154SAPE  C31117106   5.483   6.285   5.231 -0.8845 -0.4731 -0.0276
  154SAPE  H11X17107   5.569   6.217   5.213 -0.3353  0.0482  0.5627
  154SAPE  H11Y17108   5.535   6.377   5.265 -1.2167 -0.8795  1.6764
  154SAPE  C31217109   5.435   6.316   5.086  0.2858  0.8314 -1.0133
  154SAPE  H12X17110   5.370   6.406   5.094  0.1779  0.5924  2.8122
  154SAPE  H12Y17111   5.372   6.238   5.039 -0.2325  0.9194 -0.4801
  154SAPE  C31317112   5.548   6.346   4.997 -0.1348 -0.0840 -0.4343
  154SAPE  H13X17113   5.620   6.262   4.988  0.5739  0.1178  2.3114
  154SAPE  H13Y17114   5.605   6.425   5.050 -0.6527  0.9888 -1.4289
  154SAPE  C31417115   5.501   6.397   4.869 -0.4553 -0.0308  0.2014
  154SAPE  H14X17116   5.562   6.490   4.858 -0.4396  0.0368  0.8737
  154SAPE  H14Y17117   5.406   6.454   4.878 -0.2856  0.3113 -0.0958
  154SAPE  C31517118   5.518   6.304   4.750 -0.4498 -0.4342 -0.3918
  154SAPE  H15X17119   5.612   6.246   4.762  0.6502  0.7894 -2.4315
  154SAPE  H15Y17120   5.526   6.360   4.654 -1.9897 -0.0443 -0.3138
  154SAPE  C31617121   5.411   6.197   4.732  0.4304  0.1737  0.0014
  154SAPE  H16X17122   5.322   6.232   4.675  0.9260  1.9882  0.2892
  154SAPE  H16Y17123   5.371   6.159   4.828  0.0487  0.9445  0.1519
  154SAPE  C31717124   5.465   6.075   4.658  0.5196  0.1427 -0.6241
  154SAPE  H17X17125   5.386   5.996   4.652  1.1969 -0.4863 -1.5613
  154SAPE  H17Y17126   5.544   6.035   4.726  0.2938  0.9007  0.1087
  154SAPE  C31817127   5.524   6.113   4.526  0.4224  0.1539 -0.1303
  154SAPE  H18X17128   5.591   6.036   4.484  0.2203 -0.3193  0.3998
  154SAPE  H18Y17129   5.590   6.201   4.538  1.0142 -0.2255 -0.5873
  154SAPE  H18Z17130   5.448   6.138   4.449 -0.0960  2.4361  1.0435
  155SAPE     N17131   0.770   4.071   6.833  0.1289 -0.4107  0.2927
  155SAPE   HN117132   0.831   4.054   6.915 -0.7627  1.5107  1.4162
  155SAPE   HN217133   0.701   3.993   6.832 -0.5476  0.1789 -0.3278
  155SAPE   HN317134   0.825   4.061   6.745  0.3684  0.3618  0.3470
  155SAPE   C1217135   0.700   4.210   6.833 -0.1320  0.6000  0.5461
  155SAPE  H12A17136   0.772   4.287   6.868 -2.3055  1.8532  2.5700
  155SAPE  H12B17137   0.625   4.206   6.915 -1.0499 -0.3046 -0.3252
  155SAPE   C1117138   0.623   4.248   6.711  0.4689 -0.8611  0.2163
  155SAPE  H11A17139   0.544   4.173   6.690  0.4729 -0.8853  0.2886
  155SAPE  H11B17140   0.692   4.242   6.624  1.0336  1.0373  0.4713
  155SAPE     P17141   0.566   4.504   6.641 -0.3790 -0.4572  0.1961
  155SAPE   O1317142   0.513   4.619   6.712 -0.5781 -0.4850 -0.2826
  155SAPE   O1417143   0.699   4.518   6.582  0.7229 -0.1102 -0.2036
  155SAPE   O1217144   0.569   4.377   6.733  0.3190  0.0833 -0.2880
  155SAPE   O1117145   0.466   4.471   6.525  0.1680 -0.1602 -0.5628
  155SAPE    C117146   0.468   4.349   6.451 -0.9470 -0.5719  0.1249
  155SAPE    HA17147   0.570   4.318   6.421 -0.3661 -0.8338  2.1861
  155SAPE    HB17148   0.432   4.269   6.519 -1.3584  0.9458  1.7681
  155SAPE    C217149   0.373   4.364   6.329 -0.1973 -0.5903  0.0669
  155SAPE    HS17150   0.326   4.266   6.304 -1.0532 -0.7176  1.9692
  155SAPE   O2117151   0.449   4.391   6.214  0.2045 -0.2141  0.2866
  155SAPE   C2117152   0.533   4.300   6.172 -0.4779  0.4571  0.1402
  155SAPE   O2217153   0.543   4.183   6.210 -0.4791 -0.9257 -0.4180
  155SAPE   C2217154   0.590   4.353   6.038 -0.1276  0.1466 -0.1182
  155SAPE   H2R17155   0.569   4.461   6.031  1.6984  0.4151 -2.4347
  155SAPE   H2S17156   0.701   4.340   6.042 -0.2149 -1.7526 -2.1714
  155SAPE    C317157   0.260   4.468   6.346 -0.7730 -0.1597 -0.6112
  155SAPE    HX17158   0.317   4.563   6.347  1.4857 -1.4455  0.7645
  155SAPE    HY17159   0.207   4.456   6.443 -1.2053  1.5296 -0.5985
  155SAPE   O3117160   0.166   4.446   6.238  0.3278  0.3561  0.2309
  155SAPE   C3117161   0.052   4.522   6.248  0.2418 -0.1065  0.4563
  155SAPE   O3217162   0.033   4.597   6.342  0.5396 -0.9796  0.4092
  155SAPE   C3217163  -0.028   4.503   6.125  0.1519 -0.0693  0.0047
  155SAPE   H2X17164  -0.134   4.495   6.156  0.2580 -2.8829 -0.0862
  155SAPE   H2Y17165  -0.010   4.399   6.088 -3.6891 -0.2471 -1.8521
  155SAPE   C2317166   0.528   4.273   5.914  0.2412 -0.6493 -0.6052
  155SAPE   H3R17167   0.417   4.277   5.925  0.2880 -0.6722 -0.1386
  155SAPE   H3S17168   0.555   4.167   5.929 -0.7094 -1.1069 -1.9190
  155SAPE   C2417169   0.574   4.327   5.777 -0.7896 -0.1497 -0.5787
  155SAPE   H4R17170   0.552   4.252   5.697  2.6458 -0.2567 -1.5727
  155SAPE   H4S17171   0.682   4.351   5.779 -1.0744  1.2072  1.4199
  155SAPE   C2517172   0.517   4.460   5.723  0.1591 -0.2466 -0.0037
  155SAPE   H5R17173   0.457   4.502   5.804 -0.6594 -1.3629 -0.0127
  155SAPE   C2617174   0.514   4.509   5.595  0.5848 -0.4593 -0.7198
  155SAPE   H6R17175   0.455   4.601   5.580 -3.8452 -2.3913  2.6081
  155SAPE   C2717176   0.591   4.456   5.479 -0.0394  0.4972 -0.3806
  155SAPE   H7R17177   0.656   4.373   5.514 -0.3547  0.4109  0.0004
  155SAPE   H7S17178   0.670   4.525   5.441  3.1092 -1.3073  2.3518
  155SAPE   C2817179   0.490   4.394   5.383  0.1123 -0.1230  1.3845
  155SAPE   H8R17180   0.414   4.333   5.432  1.0692  0.5719  3.8860
  155SAPE   C2917181   0.496   4.403   5.250  0.3859  0.3179 -0.0616
  155SAPE   H9R17182   0.422   4.349   5.189  0.8003 -0.7797  0.3800
  155SAPE  C21017183   0.606   4.484   5.187 -0.7890 -0.1243 -0.0711
  155SAPE  H10R17184   0.704   4.468   5.237 -1.0894 -4.1777 -0.4502
  155SAPE  H10S17185   0.577   4.591   5.183 -2.3137 -0.5520 -2.1195
  155SAPE  C21117186   0.630   4.432   5.045 -0.4764  0.1285  0.4768
  155SAPE  H11R17187   0.679   4.334   5.054 -0.7293  0.0628  1.2497
  155SAPE  C21217188   0.610   4.494   4.928  0.1129  0.0384 -0.3934
  155SAPE  H12R17189   0.638   4.431   4.842  0.8348 -1.3541  0.7984
  155SAPE  C21317190   0.576   4.640   4.895 -0.4758 -0.0869  1.1775
  155SAPE  H13R17191   0.660   4.677   4.832  0.5252 -2.0096  1.2859
  155SAPE  H13S17192   0.586   4.698   4.989 -2.8537 -0.7258  1.8934
  155SAPE  C21417193   0.432   4.664   4.849  0.0934  0.0348 -0.1169
  155SAPE  H14R17194   0.357   4.673   4.929 -1.3236  0.7068 -1.4816
  155SAPE  C21517195   0.384   4.676   4.723 -0.1404  0.4538  0.0337
  155SAPE  H15R17196   0.274   4.684   4.711 -0.1386  0.0561 -0.2943
  155SAPE  C21617197   0.466   4.659   4.598  0.2848  0.1013  0.4940
  155SAPE  H16R17198   0.430   4.566   4.548 -1.1440  2.5883 -3.6375
  155SAPE  H16S17199   0.575   4.642   4.611  0.5755  1.0954 -0.4863
  155SAPE  C21717200   0.451   4.776   4.490 -0.5059 -0.2431 -0.2714
  155SAPE  H17R17201   0.346   4.784   4.453 -0.1914 -1.4836 -1.5307
  155SAPE  H17S17202   0.514   4.762   4.400  1.0136  0.7650  0.5906
  155SAPE  C21817203   0.496   4.913   4.545 -0.5599 -0.5242 -0.2859
  155SAPE  H18R17204   0.599   4.911   4.586  0.6712  3.6830 -2.5829
  155SAPE  H18S17205   0.432   4.956   4.625 -0.6859  1.8262 -1.5579
  155SAPE  C21917206   0.512   5.018   4.434  0.6944  0.5023 -0.2411
  155SAPE  H19R17207   0.545   4.963   4.344 -1.0853 -1.3748  0.1906
  155SAPE  H19S17208   0.580   5.102   4.460 -0.5465  1.3794  0.2858
  155SAPE  C22017209   0.378   5.089   4.403  0.0235 -0.3256  0.4916
  155SAPE  H20R17210   0.386   5.178   4.337 -0.1159 -0.4112  0.3570
  155SAPE  H20S17211   0.334   5.134   4.495  1.6167  1.3878  0.4898
  155SAPE  H20T17212   0.304   5.018   4.362  1.6353 -1.5268 -0.4519
  155SAPE   C3317213  -0.021   4.618   6.019 -0.7090  0.2016  0.0659
  155SAPE   H3X17214  -0.082   4.573   5.937 -0.4047 -0.4844  0.2114
  155SAPE   H3Y17215   0.077   4.633   5.969 -0.2042 -0.9817  0.6658
  155SAPE   C3417216  -0.080   4.753   6.056 -0.1204  1.1061 -0.3288
  155SAPE   H4X17217   0.004   4.799   6.113  1.1510 -0.9006 -0.4935
  155SAPE   H4Y17218  -0.170   4.730   6.117  0.0816 -1.9541 -1.0180
  155SAPE   C3517219  -0.105   4.857   5.939 -0.1163  0.5570  0.8306
  155SAPE   H5X17220  -0.121   4.960   5.979 -2.4328  1.4073 -1.9702
  155SAPE   H5Y17221  -0.202   4.835   5.890 -0.2246  0.0428  1.2697
  155SAPE   C3617222   0.019   4.875   5.849 -0.6081 -0.8052 -0.0834
  155SAPE   H6X17223   0.085   4.787   5.863 -0.3716 -0.5602  0.3692
  155SAPE   H6Y17224   0.056   4.973   5.887 -1.8740  0.2533 -1.4610
  155SAPE   C3717225  -0.026   4.895   5.703  0.3807 -0.2489 -0.5660
  155SAPE   H7X17226  -0.096   4.980   5.721 -1.7751 -1.9655 -0.4555
  155SAPE   H7Y17227  -0.084   4.804   5.677 -1.1373  0.7468 -0.8053
  155SAPE   C3817228   0.090   4.933   5.608 -0.4018  0.0225  0.2039
  155SAPE   H8X17229   0.154   4.843   5.611 -0.0946  0.1766 -1.2840
  155SAPE   H8Y17230   0.138   5.025   5.645 -1.0227  0.7505 -0.7471
  155SAPE   C3917231   0.036   4.953   5.464 -0.7540  0.2391 -0.1699
  155SAPE   H9X17232   0.114   4.976   5.389 -0.3395  0.6563  0.3876
  155SAPE   H9Y17233  -0.038   5.035   5.466 -0.6573  0.3158  1.3193
  155SAPE  C31017234  -0.027   4.815   5.417 -0.5714  0.1567 -0.3380
  155SAPE  H10X17235  -0.130   4.829   5.456 -0.6705  1.4306 -0.9994
  155SAPE  H10Y17236   0.023   4.727   5.461  1.9374  2.1622  1.1225
  155SAPE  C31117237  -0.020   4.781   5.271 -0.0435 -0.0083 -0.6181
  155SAPE  H11X17238  -0.068   4.685   5.245 -2.2836  1.1110 -0.7961
  155SAPE  H11Y17239   0.087   4.761   5.248  0.8605  0.2902  2.8408
  155SAPE  C31217240  -0.073   4.890   5.172 -0.2021  0.0183  0.1631
  155SAPE  H12X17241  -0.011   4.978   5.200  2.5137 -1.8629  0.5012
  155SAPE  H12Y17242  -0.178   4.912   5.200 -0.2580 -0.9425  0.7458
  155SAPE  C31317243  -0.058   4.859   5.021  0.0164  0.2326 -0.7174
  155SAPE  H13X17244  -0.104   4.758   5.016  0.4759 -0.1259  1.5442
  155SAPE  H13Y17245   0.048   4.854   4.990 -0.5234 -0.3765 -2.6462
  155SAPE  C31417246  -0.124   4.955   4.918  0.2537  0.3139 -0.6403
  155SAPE  H14X17247  -0.092   5.061   4.928  1.6524 -0.1916  0.8006
  155SAPE  H14Y17248  -0.234   4.963   4.931 -0.2597 -2.1163 -2.6709
  155SAPE  C31517249  -0.094   4.918   4.773  0.3806  0.1718 -0.3746
  155SAPE  H15X17250  -0.144   4.997   4.712  0.4999 -0.8670 -1.8920
  155SAPE  H15Y17251  -0.146   4.827   4.735 -0.4065  0.5505 -0.2355
  155SAPE  C31617252   0.049   4.915   4.735 -0.8627  0.4994  0.9112
  155SAPE  H16X17253   0.099   4.820   4.763  1.3786  1.3009 -0.1477
  155SAPE  H16Y17254   0.108   4.985   4.798 -0.8413  0.5212  0.8672
  155SAPE  C31717255   0.077   4.944   4.591  0.1256  0.2822 -0.4675
  155SAPE  H17X17256   0.184   4.956   4.563  0.5884 -1.4227  0.4331
  155SAPE  H17Y17257   0.031   5.040   4.559 -1.5238  0.1759  1.4083
  155SAPE  C31817258   0.044   4.825   4.494 -0.3817  0.3685  0.0442
  155SAPE  H18X17259   0.080   4.728   4.534 -1.3264  0.2022  0.5013
  155SAPE  H18Y17260   0.080   4.841   4.390 -1.7786  1.0074 -0.3568
  155SAPE  H18Z17261  -0.064   4.803   4.486 -0.8585  2.9835 -4.6207
  156SAPE     N17262   3.607   0.879   6.864 -0.0395  0.2937 -0.1404
  156SAPE   HN117263   3.547   0.826   6.930  2.5358 -1.9960  0.5534
  156SAPE   HN217264   3.704   0.888   6.900 -0.4394  0.2413  1.0074
  156SAPE   HN317265   3.577   0.979   6.866  2.2499  1.0452  0.7533
  156SAPE   C1217266   3.599   0.831   6.722 -0.3653  0.5919 -0.3339
  156SAPE  H12A17267   3.658   0.737   6.721 -1.3683 -0.0840  1.2395
  156SAPE  H12B17268   3.657   0.910   6.669  1.4757  0.4416  1.3543
  156SAPE   C1117269   3.455   0.828   6.681  0.0870 -0.1790  0.0825
  156SAPE  H11A17270   3.396   0.758   6.744  0.4509 -0.1198  0.4978
  156SAPE  H11B17271   3.446   0.795   6.576  0.8012  1.6095 -0.5874
  156SAPE     P17272   3.262   1.016   6.650 -0.1946  0.2088 -0.3999
  156SAPE   O1317273   3.151   0.971   6.732 -0.3413  0.3867 -0.1319
  156SAPE   O1417274   3.277   1.167   6.632 -0.1952  0.3447 -0.5511
  156SAPE   O1217275   3.393   0.957   6.706  0.0432 -0.0573  0.4305
  156SAPE   O1117276   3.241   0.942   6.514 -0.2097  0.5854 -0.0333
  156SAPE    C117277   3.313   0.988   6.393  0.0732 -0.1172  0.2551
  156SAPE    HA17278   3.365   1.085   6.402  0.1683 -0.0229 -1.1766
  156SAPE    HB17279   3.385   0.906   6.373  1.0839  0.6356  0.7499
  156SAPE    C217280   3.207   1.004   6.272 -0.2189 -0.2191  0.2053
  156SAPE    HS17281   3.122   1.063   6.311 -0.1068  1.2444 -1.6213
  156SAPE   O2117282   3.177   0.871   6.231 -0.0707 -0.4369  0.5459
  156SAPE   C2117283   3.063   0.851   6.172  0.2292  0.3640 -0.3930
  156SAPE   O2217284   2.986   0.942   6.141  0.0467  0.3397 -0.3593
  156SAPE   C2217285   3.040   0.705   6.117 -0.3818 -0.6027 -0.3965
  156SAPE   H2R17286   2.943   0.671   6.159 -1.2641  0.3974 -1.5461
  156SAPE   H2S17287   3.022   0.712   6.008 -1.5135 -0.0488 -0.1899
  156SAPE    C317288   3.272   1.079   6.158  0.6569  0.1209  0.3100
  156SAPE    HX17289   3.198   1.064   6.076  0.0680  1.0296  0.6585
  156SAPE    HY17290   3.374   1.049   6.126  0.7643 -0.0546  0.8025
  156SAPE   O3117291   3.288   1.215   6.193 -0.9616 -0.0652  0.1809
  156SAPE   C3117292   3.298   1.301   6.089  0.1602 -0.1931 -0.0274
  156SAPE   O3217293   3.260   1.266   5.982 -0.1100 -0.1535  0.2702
  156SAPE   C3217294   3.346   1.440   6.136  0.2102  0.0508 -0.2336
  156SAPE   H2X17295   3.415   1.417   6.220  1.7784  1.8282 -0.9654
  156SAPE   H2Y17296   3.269   1.505   6.183 -0.0207 -0.0133 -0.5257
  156SAPE   C2317297   3.152   0.604   6.154  0.4807 -0.1046  0.1919
  156SAPE   H3R17298   3.119   0.498   6.146 -1.0100  0.4723 -2.6182
  156SAPE   H3S17299   3.183   0.625   6.258  0.8853 -2.1908  0.5405
  156SAPE   C2417300   3.288   0.621   6.081  0.2451  0.5553 -0.1528
  156SAPE   H4R17301   3.369   0.561   6.128  0.5466  2.6554  2.2711
  156SAPE   H4S17302   3.321   0.724   6.106  1.7118  0.4332 -1.4734
  156SAPE   C2517303   3.275   0.588   5.934 -0.8186 -0.5186 -0.2983
  156SAPE   H5R17304   3.285   0.484   5.899  1.0095 -0.4046 -0.1888
  156SAPE   C2617305   3.265   0.678   5.833 -0.2183  0.0835  0.2572
  156SAPE   H6R17306   3.261   0.640   5.730  2.0317 -0.8634  0.4538
  156SAPE   C2717307   3.274   0.831   5.851 -0.2629 -0.7162 -0.9705
  156SAPE   H7R17308   3.363   0.856   5.790  0.3440 -2.4793 -0.8745
  156SAPE   H7S17309   3.308   0.863   5.951  0.0664  0.2117 -1.3716
  156SAPE   C2817310   3.157   0.914   5.793  0.4228 -0.5067 -0.8144
  156SAPE   H8R17311   3.094   0.971   5.863  0.5728 -0.1641 -0.9572
  156SAPE   C2917312   3.115   0.920   5.666 -0.0115 -0.4170  0.0427
  156SAPE   H9R17313   3.043   1.000   5.643  0.8352  0.4943  0.4893
  156SAPE  C21017314   3.174   0.854   5.543  0.1148 -0.3387  0.0007
  156SAPE  H10R17315   3.283   0.831   5.544 -0.2292 -2.3210 -1.9971
  156SAPE  H10S17316   3.155   0.918   5.455 -1.0974  0.2369  0.6674
  156SAPE  C21117317   3.094   0.726   5.530 -0.4207 -0.3755 -0.0500
  156SAPE  H11R17318   3.035   0.691   5.616 -2.6327 -0.0887 -1.3929
  156SAPE  C21217319   3.083   0.668   5.413  0.2462  0.1670  0.6779
  156SAPE  H12R17320   3.029   0.572   5.407 -0.2288  0.5079 -0.9519
  156SAPE  C21317321   3.166   0.695   5.283  0.0522  0.0482  0.0215
  156SAPE  H13R17322   3.199   0.594   5.252  0.7625 -0.1671  1.3864
  156SAPE  H13S17323   3.254   0.760   5.305  0.5343  0.0173 -1.6524
  156SAPE  C21417324   3.097   0.763   5.161  0.0605  0.7625 -0.5056
  156SAPE  H14R17325   3.029   0.847   5.181  1.4056  2.0006 -0.9109
  156SAPE  C21517326   3.119   0.758   5.029  0.0773 -0.3934 -0.7119
  156SAPE  H15R17327   3.056   0.805   4.952  1.9709 -0.2461 -2.2653
  156SAPE  C21617328   3.228   0.686   4.966  0.1495  0.1466  0.3066
  156SAPE  H16R17329   3.279   0.627   5.045 -1.7880 -0.3424  1.2639
  156SAPE  H16S17330   3.302   0.762   4.934 -0.1916  2.1877  3.8809
  156SAPE  C21717331   3.198   0.578   4.866  0.2872 -0.2946  0.6057
  156SAPE  H17R17332   3.098   0.531   4.880 -0.2632  1.4626  3.2696
  156SAPE  H17S17333   3.259   0.486   4.880 -2.3188 -1.9817  1.6756
  156SAPE  C21817334   3.233   0.620   4.724  0.0730 -0.3261  0.4169
  156SAPE  H18R17335   3.334   0.666   4.717 -0.5914  1.4526  1.7844
  156SAPE  H18S17336   3.159   0.697   4.694 -1.1305 -1.0327  1.5129
  156SAPE  C21917337   3.223   0.502   4.622 -0.0991  0.4686  0.2020
  156SAPE  H19R17338   3.134   0.440   4.647  0.5916  0.5973  3.4315
  156SAPE  H19S17339   3.317   0.446   4.639 -1.7101 -2.8766 -1.0421
  156SAPE  C22017340   3.224   0.539   4.472  0.3550  0.0077 -0.2093
  156SAPE  H20R17341   3.246   0.448   4.413 -1.7088 -0.9238  0.3939
  156SAPE  H20S17342   3.313   0.603   4.451 -0.9481  1.9989  0.0557
  156SAPE  H20T17343   3.132   0.592   4.438  0.7793  0.0229 -1.3775
  156SAPE   C3317344   3.416   1.516   6.019  0.4668 -0.4189 -0.5636
  156SAPE   H3X17345   3.451   1.615   6.054 -0.1730  0.5243 -2.4367
  156SAPE   H3Y17346   3.347   1.545   5.937  1.8362 -1.5042 -2.1794
  156SAPE   C3417347   3.531   1.438   5.973  0.4250  0.3440 -0.5114
  156SAPE   H4X17348   3.497   1.337   5.942  2.6385 -0.9549  0.9820
  156SAPE   H4Y17349   3.603   1.428   6.058 -0.3827  0.6301  0.2149
  156SAPE   C3517350   3.608   1.487   5.858 -0.4739  0.2487  0.2378
  156SAPE   H5X17351   3.694   1.422   5.834  0.1902  1.3221 -0.3803
  156SAPE   H5Y17352   3.635   1.593   5.878 -0.8104  0.9707 -2.6391
  156SAPE   C3617353   3.527   1.487   5.724  0.2145  0.2118 -0.5484
  156SAPE   H6X17354   3.451   1.568   5.728  0.8265  0.7728  0.1251
  156SAPE   H6Y17355   3.479   1.390   5.700 -0.7869 -0.0115  2.0414
  156SAPE   C3717356   3.611   1.505   5.601 -0.1187  0.7397  0.0404
  156SAPE   H7X17357   3.686   1.423   5.587 -2.1018 -1.0061 -0.8164
  156SAPE   H7Y17358   3.676   1.592   5.626 -0.5757  0.6580  1.6127
  156SAPE   C3817359   3.534   1.525   5.468 -0.0821  0.0827 -0.0695
  156SAPE   H8X17360   3.478   1.620   5.468 -0.3561 -0.0798 -0.1012
  156SAPE   H8Y17361   3.462   1.441   5.469 -1.5072  1.2775  0.2773
  156SAPE   C3917362   3.627   1.511   5.342  0.5757 -0.5822  0.2452
  156SAPE   H9X17363   3.690   1.420   5.353 -0.7061 -1.1796  4.1445
  156SAPE   H9Y17364   3.698   1.595   5.328 -0.6300  0.2583 -1.1204
  156SAPE  C31017365   3.547   1.510   5.213  0.4592  0.3165 -0.1080
  156SAPE  H10X17366   3.489   1.605   5.215  1.5148  0.9794 -0.2888
  156SAPE  H10Y17367   3.482   1.421   5.227  1.5303 -0.4555  0.0823
  156SAPE  C31117368   3.627   1.504   5.082 -0.4036  0.4686 -0.5954
  156SAPE  H11X17369   3.679   1.407   5.069  1.4876  1.6296 -2.2484
  156SAPE  H11Y17370   3.703   1.585   5.077  0.8994 -0.6948 -0.3407
  156SAPE  C31217371   3.544   1.512   4.953 -0.1061  0.2409 -0.1850
  156SAPE  H12X17372   3.490   1.609   4.950  1.1857  1.0240  0.7709
  156SAPE  H12Y17373   3.470   1.430   4.941 -0.9345  1.1192 -1.1885
  156SAPE  C31317374   3.629   1.516   4.816  0.5765  0.9757  0.3028
  156SAPE  H13X17375   3.720   1.452   4.817 -1.5809 -2.4715 -2.0395
  156SAPE  H13Y17376   3.668   1.621   4.814  1.4903  0.6490  0.4755
  156SAPE  C31417377   3.551   1.486   4.692 -0.3628  0.1790 -0.2797
  156SAPE  H14X17378   3.464   1.555   4.696 -0.1120  0.4483  0.7637
  156SAPE  H14Y17379   3.504   1.386   4.706 -3.0706  1.5075  0.8731
  156SAPE  C31517380   3.625   1.512   4.560 -0.4994 -0.2284 -0.0519
  156SAPE  H15X17381   3.717   1.451   4.549 -1.5456 -1.4578 -2.6674
  156SAPE  H15Y17382   3.653   1.620   4.554 -1.4664  0.1020  0.9809
  156SAPE  C31617383   3.547   1.484   4.428 -0.0927  0.2661  0.8112
  156SAPE  H16X17384   3.613   1.519   4.346  1.7312 -0.1871  2.0411
  156SAPE  H16Y17385   3.460   1.554   4.427  1.5987  2.4780 -0.7324
  156SAPE  C31717386   3.508   1.339   4.411 -0.9712  0.3104 -0.0799
  156SAPE  H17X17387   3.463   1.308   4.507 -0.2999 -0.2575  0.0649
  156SAPE  H17Y17388   3.605   1.285   4.404 -0.5394  0.8173  1.5784
  156SAPE  C31817389   3.425   1.317   4.287  0.3547  0.2785  0.9395
  156SAPE  H18X17390   3.400   1.209   4.279 -1.5985  0.7293  0.1422
  156SAPE  H18Y17391   3.475   1.354   4.195 -2.1182 -0.2734 -0.7357
  156SAPE  H18Z17392   3.329   1.373   4.299 -0.0898 -0.7025  2.1411
  157SAPE     N17393   5.047   5.747   6.738  0.3294 -0.0774  0.1655
  157SAPE   HN117394   5.136   5.696   6.754  0.1232  0.0995  2.1657
  157SAPE   HN217395   4.978   5.720   6.812 -0.0890 -1.0897 -0.5647
  157SAPE   HN317396   5.013   5.722   6.643 -0.7845  3.8198 -0.6420
  157SAPE   C1217397   5.069   5.897   6.745  0.0719  0.2495 -0.0819
  157SAPE  H12A17398   5.145   5.920   6.667  0.4580  1.2179  0.5624
  157SAPE  H12B17399   5.103   5.920   6.848 -1.3208 -0.0604  0.4648
  157SAPE   C1117400   4.936   5.969   6.723  0.7321  0.0108  0.3240
  157SAPE  H11A17401   4.905   5.967   6.616 -2.1258 -1.8421  1.1032
  157SAPE  H11B17402   4.951   6.076   6.750  0.3245  0.3343 -0.6536
  157SAPE     P17403   4.682   5.887   6.776 -0.1144 -0.0161 -0.0865
  157SAPE   O1317404   4.681   5.754   6.711  0.5295 -0.1688 -0.6503
  157SAPE   O1417405   4.600   5.894   6.895 -0.1107  0.0935 -0.5796
  157SAPE   O1217406   4.833   5.918   6.809 -0.4179  0.9177 -0.3032
  157SAPE   O1117407   4.645   5.992   6.671  0.5002  0.3641 -0.2000
  157SAPE    C117408   4.664   6.132   6.694 -0.2819  0.4221 -0.0068
  157SAPE    HA17409   4.707   6.150   6.795  0.1031  3.0083 -0.5428
  157SAPE    HB17410   4.737   6.163   6.617 -1.1558  1.5381 -0.4128
  157SAPE    C217411   4.530   6.209   6.675  0.4409  0.1917 -0.2654
  157SAPE    HS17412   4.482   6.208   6.775  4.1815  0.0774  1.7104
  157SAPE   O2117413   4.458   6.148   6.565  0.3671  0.5268  0.1464
  157SAPE   C2117414   4.364   6.061   6.609 -0.9043  0.4566  0.4893
  157SAPE   O2217415   4.344   6.031   6.728 -0.2941  0.4421  0.0577
  157SAPE   C2217416   4.298   6.001   6.483 -0.6852 -0.0563 -0.4447
  157SAPE   H2R17417   4.190   6.025   6.485 -0.2321  2.2259  0.2750
  157SAPE   H2S17418   4.336   6.051   6.391 -3.6602  1.0824 -1.1722
  157SAPE    C317419   4.568   6.355   6.644 -0.0986  0.1178  0.1749
  157SAPE    HX17420   4.634   6.381   6.730 -3.3879  1.7272  2.4285
  157SAPE    HY17421   4.478   6.419   6.657 -0.0678  0.0090  0.9788
  157SAPE   O3117422   4.649   6.371   6.519  0.5778 -0.8840 -0.0767
  157SAPE   C3117423   4.573   6.426   6.421 -0.0229  0.6967 -0.4373
  157SAPE   O3217424   4.461   6.467   6.437  0.5175 -0.4747  0.8760
  157SAPE   C3217425   4.661   6.418   6.291 -0.2051 -0.0444 -0.7269
  157SAPE   H2X17426   4.763   6.378   6.311  0.0304  2.0867  3.1830
  157SAPE   H2Y17427   4.679   6.526   6.268  0.6108  0.3290  1.4412
  157SAPE   C2317428   4.314   5.849   6.466 -1.0172 -0.2325 -0.1266
  157SAPE   H3R17429   4.275   5.804   6.559 -0.2126 -0.2177  0.2250
  157SAPE   H3S17430   4.416   5.806   6.459 -2.2195 -3.3106 -0.1582
  157SAPE   C2417431   4.239   5.791   6.345 -0.6286  0.3923 -0.2998
  157SAPE   H4R17432   4.281   5.696   6.308  0.5174  1.0328 -0.6942
  157SAPE   H4S17433   4.264   5.867   6.267  2.2013 -0.5049 -0.3645
  157SAPE   C2517434   4.088   5.775   6.368 -0.7004  0.0206 -0.5313
  157SAPE   H5R17435   4.068   5.727   6.465  2.5813  1.2351  0.9117
  157SAPE   C2617436   3.981   5.814   6.301 -0.1540  0.4770  0.1429
  157SAPE   H6R17437   3.880   5.790   6.337  1.2604 -0.3754  3.9748
  157SAPE   C2717438   3.988   5.891   6.172 -0.4263  0.1907  0.4063
  157SAPE   H7R17439   4.032   5.827   6.092 -1.9436 -0.9656  0.4478
  157SAPE   H7S17440   4.061   5.974   6.177  0.4698 -0.5361 -0.2274
  157SAPE   C2817441   3.849   5.940   6.127 -0.3763  0.0239 -0.1761
  157SAPE   H8R17442   3.775   5.956   6.206 -1.3229 -1.8379 -0.6333
  157SAPE   C2917443   3.796   5.952   6.007  0.3262 -0.1340  0.0551
  157SAPE   H9R17444   3.699   6.002   6.000 -1.1214 -2.8738 -0.7803
  157SAPE  C21017445   3.864   5.914   5.875 -0.4983 -0.1836  0.1856
  157SAPE  H10R17446   3.890   5.806   5.886 -3.7316 -1.3121 -1.9697
  157SAPE  H10S17447   3.961   5.966   5.861 -1.9189  1.9588 -2.6300
  157SAPE  C21117448   3.777   5.934   5.756 -0.7031  0.3364 -0.4518
  157SAPE  H11R17449   3.679   5.970   5.789 -0.0991  1.2712  0.4056
  157SAPE  C21217450   3.822   5.928   5.627  0.3482 -0.7186 -0.7109
  157SAPE  H12R17451   3.745   5.937   5.549  0.7052  1.0378 -0.9053
  157SAPE  C21317452   3.959   5.906   5.579 -0.1654 -0.0494 -0.4104
  157SAPE  H13R17453   3.968   5.812   5.521 -0.9867  0.0773 -0.7549
  157SAPE  H13S17454   4.031   5.883   5.661  0.6345 -0.8619 -1.3112
  157SAPE  C21417455   4.010   6.025   5.498  0.0853 -0.5074  0.1336
  157SAPE  H14R17456   3.998   6.127   5.538 -1.3565 -1.2264  1.6424
  157SAPE  C21517457   4.038   6.022   5.371 -1.1679  0.2003  0.6243
  157SAPE  H15R17458   4.051   6.115   5.315 -0.7997 -0.9990 -1.3961
  157SAPE  C21617459   4.053   5.892   5.290 -0.2684 -0.4562 -0.2154
  157SAPE  H16R17460   4.088   5.807   5.352  0.9073 -0.1113 -0.3742
  157SAPE  H16S17461   4.147   5.895   5.230 -0.4617 -2.5822 -0.7062
  157SAPE  C21717462   3.932   5.849   5.214 -0.3124  0.2281  0.5818
  157SAPE  H17R17463   3.832   5.881   5.250  0.4280  1.5919  1.5345
  157SAPE  H17S17464   3.934   5.739   5.201  2.6908  0.4043 -1.3888
  157SAPE  C21817465   3.936   5.900   5.069 -0.2083  0.2138 -0.2126
  157SAPE  H18R17466   4.030   5.865   5.022  0.3003  1.5076 -0.1746
  157SAPE  H18S17467   3.933   6.010   5.080 -0.7411  0.2940 -1.0912
  157SAPE  C21917468   3.824   5.861   4.982  0.5217  0.4474 -0.0287
  157SAPE  H19R17469   3.852   5.912   4.888  2.0015  0.5281  0.4382
  157SAPE  H19S17470   3.733   5.907   5.027  1.6578  2.9168 -0.1412
  157SAPE  C22017471   3.800   5.714   4.961 -0.4861  0.7830 -0.1007
  157SAPE  H20R17472   3.704   5.697   4.907 -1.4402  1.1837  1.4019
  157SAPE  H20S17473   3.786   5.667   5.061 -0.2958  1.0512  0.0515
  157SAPE  H20T17474   3.882   5.660   4.908 -0.1582 -0.6617  1.7603
  157SAPE   C3317475   4.586   6.350   6.171 -0.3051  0.1795  0.2375
  157SAPE   H3X17476   4.495   6.409   6.146 -0.7541 -1.2640 -1.7421
  157SAPE   H3Y17477   4.557   6.248   6.205  0.0501  0.1787  0.5410
  157SAPE   C3417478   4.671   6.351   6.044 -0.2892 -0.2205  0.2496
  157SAPE   H4X17479   4.757   6.286   6.070  0.0523 -1.4140 -3.3711
  157SAPE   H4Y17480   4.712   6.453   6.025  0.9033  0.0201  3.4490
  157SAPE   C3517481   4.601   6.283   5.920  0.7407 -0.3188  0.0985
  157SAPE   H5X17482   4.517   6.329   5.865 -1.1271 -2.3026  1.1476
  157SAPE   H5Y17483   4.561   6.183   5.950 -0.0665 -0.2885 -0.8447
  157SAPE   C3617484   4.710   6.257   5.817  0.1652  0.2657  0.2006
  157SAPE   H6X17485   4.662   6.232   5.719 -1.9870  1.3706  0.9048
  157SAPE   H6Y17486   4.778   6.176   5.850  0.5530 -0.1269 -1.4747
  157SAPE   C3717487   4.790   6.385   5.784  0.1092 -0.4311 -0.8405
  157SAPE   H7X17488   4.842   6.425   5.873 -1.0806  1.7072 -1.0402
  157SAPE   H7Y17489   4.708   6.455   5.756  1.3913  0.1451 -3.4868
  157SAPE   C3817490   4.888   6.380   5.659  0.6952  0.5139  0.5616
  157SAPE   H8X17491   4.964   6.299   5.658  1.2995  1.0268  2.1675
  157SAPE   H8Y17492   4.954   6.469   5.666  0.3468  0.9132 -0.8413
  157SAPE   C3917493   4.821   6.408   5.521 -0.0267 -0.8503  0.4636
  157SAPE   H9X17494   4.756   6.498   5.515  2.3174  0.8964 -0.3048
  157SAPE   H9Y17495   4.764   6.315   5.502  1.2333 -1.4029 -0.8394
  157SAPE  C31017496   4.923   6.412   5.408 -0.1808  0.5833 -0.1986
  157SAPE  H10X17497   4.996   6.329   5.421  1.5790  1.9718 -0.7756
  157SAPE  H10Y17498   4.988   6.502   5.415  3.2526 -1.6097 -1.1570
  157SAPE  C31117499   4.869   6.426   5.264 -0.5631 -0.6422  0.9434
  157SAPE  H11X17500   4.784   6.498   5.267 -0.5014 -0.5091 -0.1329
  157SAPE  H11Y17501   4.818   6.335   5.228 -1.4730 -0.0549  0.7122
  157SAPE  C31217502   4.986   6.479   5.172 -0.5241  1.0336 -0.4764
  157SAPE  H12X17503   5.076   6.419   5.195 -0.6121  1.3109  0.6684
  157SAPE  H12Y17504   5.004   6.581   5.214  1.2883 -0.3843  2.4991
  157SAPE  C31317505   4.938   6.487   5.029  0.5047 -0.6199  0.4715
  157SAPE  H13X17506   4.844   6.545   5.020  1.1590  0.2024 -1.6641
  157SAPE  H13Y17507   4.905   6.385   4.998 -4.1971  0.9862 -0.7585
  157SAPE  C31417508   5.032   6.544   4.927 -0.5873  0.0359  0.4433
  157SAPE  H14X17509   5.123   6.482   4.943 -0.3662  0.4520  0.7956
  157SAPE  H14Y17510   5.046   6.653   4.937  1.4629 -0.0866 -0.4654
  157SAPE  C31517511   4.989   6.515   4.785  0.1736  0.6841 -0.0883
  157SAPE  H15X17512   4.916   6.589   4.745 -0.1978 -0.4343 -1.6038
  157SAPE  H15Y17513   4.934   6.418   4.785  1.0235  0.1602 -1.7156
  157SAPE  C31617514   5.116   6.500   4.695 -1.1312 -0.3373  1.0161
  157SAPE  H16X17515   5.182   6.412   4.707 -1.0764 -1.5486 -5.0013
  157SAPE  H16Y17516   5.184   6.585   4.719  0.1031 -0.9797 -0.1080
  157SAPE  C31717517   5.081   6.507   4.550  0.2778 -0.0370 -0.3723
  157SAPE  H17X17518   5.048   6.609   4.522  0.5024  0.2601  0.4135
  157SAPE  H17Y17519   5.000   6.434   4.528 -0.1582  0.0691  0.8030
  157SAPE  C31817520   5.198   6.473   4.459 -0.0917 -0.8357  0.1303
  157SAPE  H18X17521   5.284   6.533   4.494  1.0517 -3.1320  1.4927
  157SAPE  H18Y17522   5.164   6.510   4.360  0.9086  0.2190  0.1683
  157SAPE  H18Z17523   5.222   6.364   4.456 -2.7827 -1.5085  0.0103
  158SAPE     N17524   6.738   4.285   6.847 -0.1949  0.4397 -0.0519
  158SAPE   HN117525   6.669   4.328   6.782  0.1885  1.0364 -0.0827
  158SAPE   HN217526   6.728   4.182   6.843 -3.0768  0.5274  2.1456
  158SAPE   HN317527   6.719   4.320   6.943 -2.5991  2.9040 -1.2920
  158SAPE   C1217528   6.870   4.335   6.781  0.7718  0.3587  0.3824
  158SAPE  H12A17529   6.960   4.303   6.838  1.6311 -1.1034 -1.6594
  158SAPE  H12B17530   6.857   4.445   6.771  0.1085  0.2293 -0.3416
  158SAPE   C1117531   6.877   4.259   6.642  0.7425  0.0135 -0.3800
  158SAPE  H11A17532   6.972   4.284   6.590  0.7365  0.0982 -0.3506
  158SAPE  H11B17533   6.792   4.286   6.577 -0.4336  0.3827  1.2584
  158SAPE     P17534   6.914   4.010   6.551 -0.2842 -0.1180 -0.2945
  158SAPE   O1317535   7.056   3.994   6.588  0.3858  0.2705 -0.1924
  158SAPE   O1417536   6.827   3.892   6.553  0.7085 -0.1278 -0.0209
  158SAPE   O1217537   6.874   4.118   6.657 -0.1940 -0.3432  0.4896
  158SAPE   O1117538   6.895   4.097   6.413  0.1211  0.1795  0.4004
  158SAPE    C117539   6.959   4.033   6.297 -0.0076 -0.3149 -0.3383
  158SAPE    HA17540   7.064   4.065   6.308 -0.2912  0.6985 -0.4710
  158SAPE    HB17541   6.942   3.924   6.288  2.1343 -0.6280 -1.0958
  158SAPE    C217542   6.910   4.094   6.165 -0.0199  0.0141 -0.0203
  158SAPE    HS17543   6.885   4.201   6.181 -2.7933 -0.7402  1.2016
  158SAPE   O2117544   6.796   4.021   6.115  0.0638  0.2410 -0.7072
  158SAPE   C2117545   6.717   4.089   6.025 -0.2948 -0.5390 -0.7281
  158SAPE   O2217546   6.731   4.207   5.994  0.3264  0.0619  0.5564
  158SAPE   C2217547   6.610   3.997   5.962  0.3270  0.5997  0.0216
  158SAPE   H2R17548   6.659   3.905   5.921 -0.3291 -0.9215  2.4831
  158SAPE   H2S17549   6.528   3.985   6.035  1.5754  0.7885  1.5225
  158SAPE    C317550   7.028   4.102   6.061  0.9088  0.0287  0.1559
  158SAPE    HX17551   7.002   4.007   6.010 -2.7713  0.0026  1.8197
  158SAPE    HY17552   7.132   4.108   6.102  2.5745  0.0952 -3.6827
  158SAPE   O3117553   7.010   4.220   5.980 -0.0148 -0.5398  0.3610
  158SAPE   C3117554   7.010   4.202   5.845 -0.4226  0.1531  0.0478
  158SAPE   O3217555   6.986   4.094   5.802  0.6436 -0.0946  0.2983
  158SAPE   C3217556   7.028   4.337   5.780 -0.5406 -0.4246  0.1308
  158SAPE   H2X17557   7.130   4.373   5.807 -0.5535 -0.7596  0.6428
  158SAPE   H2Y17558   6.948   4.406   5.816  0.5244  0.5237  0.7676
  158SAPE   C2317559   6.538   4.070   5.847  0.0262 -0.5195  0.2895
  158SAPE   H3R17560   6.617   4.068   5.769  0.9389  1.4313  1.1147
  158SAPE   H3S17561   6.510   4.173   5.877 -0.1450  0.3001 -2.4008
  158SAPE   C2417562   6.412   4.003   5.783  0.1526  0.8175  0.3600
  158SAPE   H4R17563   6.343   3.983   5.867 -0.3534  0.7200 -0.0781
  158SAPE   H4S17564   6.456   3.912   5.736 -1.5145  0.9323 -1.5277
  158SAPE   C2517565   6.348   4.098   5.691 -0.5691 -0.5439 -0.4645
  158SAPE   H5R17566   6.273   4.157   5.744 -1.3546 -1.4975 -0.4883
  158SAPE   C2617567   6.385   4.124   5.564 -0.3852 -0.6189 -0.2427
  158SAPE   H6R17568   6.315   4.192   5.514 -0.7382  0.2652  1.3804
  158SAPE   C2717569   6.494   4.049   5.486  0.0712  0.3101 -0.2809
  158SAPE   H7R17570   6.450   3.951   5.455 -0.8871 -0.3202  2.6816
  158SAPE   H7S17571   6.575   4.027   5.559 -0.3066 -0.4934 -0.0893
  158SAPE   C2817572   6.534   4.136   5.371 -0.2282  0.2969 -0.6116
  158SAPE   H8R17573   6.579   4.230   5.405 -0.3033  1.0460 -2.4914
  158SAPE   C2917574   6.517   4.118   5.237 -0.7381  0.3600 -1.2030
  158SAPE   H9R17575   6.581   4.184   5.177  1.4975 -2.2328 -1.8649
  158SAPE  C21017576   6.449   4.001   5.178 -0.3226  0.9179  0.3447
  158SAPE  H10R17577   6.383   4.041   5.098 -1.6462 -2.4202 -0.4016
  158SAPE  H10S17578   6.395   3.937   5.250 -0.4750 -0.1607 -0.6866
  158SAPE  C21117579   6.552   3.922   5.100 -0.1502  0.5080  0.1121
  158SAPE  H11R17580   6.587   3.828   5.144  0.9082 -0.8178 -3.2654
  158SAPE  C21217581   6.602   3.953   4.980  0.1080 -0.4378  0.2722
  158SAPE  H12R17582   6.665   3.875   4.935  0.1590  1.2981 -2.9141
  158SAPE  C21317583   6.572   4.079   4.900 -0.0327  0.3440 -0.1155
  158SAPE  H13R17584   6.618   4.169   4.947 -0.5034  0.4020  0.2519
  158SAPE  H13S17585   6.465   4.108   4.911 -0.5886 -1.6051 -0.0475
  158SAPE  C21417586   6.616   4.077   4.764  0.5200  0.0699  0.2483
  158SAPE  H14R17587   6.724   4.092   4.751  0.2771  0.3038 -2.0424
  158SAPE  C21517588   6.533   4.040   4.665 -0.4548 -0.2285  0.8850
  158SAPE  H15R17589   6.568   4.029   4.562 -0.2925  0.5819  0.8478
  158SAPE  C21617590   6.396   4.007   4.693  0.0674  0.2156  0.2743
  158SAPE  H16R17591   6.344   4.094   4.737  0.8245  1.3420 -0.9709
  158SAPE  H16S17592   6.392   3.925   4.768 -0.0981 -0.6951 -0.7021
  158SAPE  C21717593   6.314   3.962   4.566  0.3516 -0.0419  0.0360
  158SAPE  H17R17594   6.207   3.959   4.593 -0.0809 -0.9970 -1.6477
  158SAPE  H17S17595   6.339   3.855   4.549  0.5750 -0.5969  3.2385
  158SAPE  C21817596   6.322   4.047   4.433  0.3110  0.1948 -0.3916
  158SAPE  H18R17597   6.432   4.052   4.415  0.4716 -1.7552 -0.0928
  158SAPE  H18S17598   6.284   4.151   4.448  1.6748  0.5345  0.9700
  158SAPE  C21917599   6.252   3.979   4.310 -0.4173  0.6938  0.5421
  158SAPE  H19R17600   6.159   3.930   4.345 -1.6467  1.1414 -1.9074
  158SAPE  H19S17601   6.333   3.907   4.284 -1.9586 -1.9243  2.4976
  158SAPE  C22017602   6.238   4.082   4.196 -0.0032  0.3537 -0.3931
  158SAPE  H20R17603   6.335   4.123   4.161 -0.5123  1.7711 -0.2060
  158SAPE  H20S17604   6.160   4.154   4.229 -0.4826  0.2946 -1.3628
  158SAPE  H20T17605   6.178   4.027   4.121  0.3526 -0.7803  0.1298
  158SAPE   C3317606   7.021   4.330   5.626  0.1989 -0.5415 -0.7142
  158SAPE   H3X17607   7.062   4.231   5.595  2.3853 -0.5482  1.8391
  158SAPE   H3Y17608   7.081   4.413   5.582 -1.5897  0.7795 -0.7615
  158SAPE   C3417609   6.878   4.334   5.567 -0.5821 -0.6158  0.7562
  158SAPE   H4X17610   6.808   4.398   5.624  1.2205  1.1513  1.1110
  158SAPE   H4Y17611   6.833   4.233   5.553  0.9351 -1.5070  1.9500
  158SAPE   C3517612   6.874   4.395   5.422 -0.0931 -0.2606 -0.2212
  158SAPE   H5X17613   6.925   4.493   5.432  1.3815 -1.2498  3.4146
  158SAPE   H5Y17614   6.771   4.426   5.393 -0.5909  0.8959  2.5076
  158SAPE   C3617615   6.934   4.300   5.314 -0.3685 -0.1210 -0.7139
  158SAPE   H6X17616   6.899   4.196   5.331  0.2582 -0.3428 -0.7564
  158SAPE   H6Y17617   7.042   4.290   5.336 -0.6199 -0.2773  0.5240
  158SAPE   C3717618   6.904   4.335   5.170 -0.0895  0.5647  0.0278
  158SAPE   H7X17619   6.930   4.443   5.163  3.2446 -0.0938  0.6261
  158SAPE   H7Y17620   6.794   4.322   5.154 -0.0137 -0.3898  0.2217
  158SAPE   C3817621   6.978   4.253   5.056  0.2802  0.1864 -0.0200
  158SAPE   H8X17622   7.085   4.280   5.072  0.2318 -1.0486  3.0615
  158SAPE   H8Y17623   6.939   4.274   4.954 -0.6943 -1.1075  0.0613
  158SAPE   C3917624   6.962   4.101   5.074  0.0024  0.4839 -0.1128
  158SAPE   H9X17625   6.858   4.083   5.110  0.3936  1.2997  1.5345
  158SAPE   H9Y17626   7.031   4.079   5.158 -0.1712 -0.5316 -0.2255
  158SAPE  C31017627   6.994   4.014   4.955 -0.5815 -0.9033  0.9084
  158SAPE  H10X17628   7.096   4.021   4.914 -0.5485 -2.0250  0.7536
  158SAPE  H10Y17629   6.921   4.047   4.878 -0.4237  1.6551  1.7634
  158SAPE  C31117630   6.977   3.867   4.989 -0.4958 -0.4298 -0.2258
  158SAPE  H11X17631   6.889   3.843   5.053 -1.6807  0.3098 -1.5175
  158SAPE  H11Y17632   7.072   3.839   5.040 -0.1271  0.4404 -0.4134
  158SAPE  C31217633   6.959   3.771   4.869 -0.3294 -0.7875 -0.0686
  158SAPE  H12X17634   6.854   3.770   4.833 -0.2683 -1.1417 -0.2461
  158SAPE  H12Y17635   6.972   3.671   4.917 -0.9353  0.0223  1.8752
  158SAPE  C31317636   7.051   3.803   4.752  0.7578  0.2969 -0.2262
  158SAPE  H13X17637   7.151   3.810   4.799 -0.3774 -0.5910  2.5441
  158SAPE  H13Y17638   7.012   3.895   4.703  0.0212 -0.6407 -1.4854
  158SAPE  C31417639   7.056   3.696   4.637  0.7027 -0.5805 -0.1791
  158SAPE  H14X17640   7.114   3.611   4.681 -0.3041 -1.7352 -1.0125
  158SAPE  H14Y17641   7.112   3.735   4.549  0.6002  1.5908  0.6491
  158SAPE  C31517642   6.916   3.646   4.603 -0.4271 -0.1804  0.0070
  158SAPE  H15X17643   6.872   3.602   4.694  1.0267 -1.1994  0.2539
  158SAPE  H15Y17644   6.917   3.564   4.528 -0.1425  1.5944 -2.0527
  158SAPE  C31617645   6.821   3.751   4.540 -0.6100 -0.0607 -0.3616
  158SAPE  H16X17646   6.805   3.833   4.613 -0.9754 -1.0798  0.7246
  158SAPE  H16Y17647   6.721   3.705   4.526 -0.9211  0.4507  0.1664
  158SAPE  C31717648   6.868   3.812   4.411  0.0963  0.4446  0.3832
  158SAPE  H17X17649   6.960   3.874   4.422  0.6552  0.4817 -3.3671
  158SAPE  H17Y17650   6.789   3.877   4.369 -0.0301  0.7568  1.0812
  158SAPE  C31817651   6.893   3.703   4.304 -0.1254 -0.0853 -0.0802
  158SAPE  H18X17652   6.874   3.751   4.205 -1.4644 -0.4234 -0.0059
  158SAPE  H18Y17653   6.834   3.609   4.308  0.5135 -0.5695 -1.4789
  158SAPE  H18Z17654   6.998   3.671   4.313  0.4257  1.0413 -1.8896
  159SAPE     N17655   1.022   4.616   1.941 -0.2545  0.1944 -0.0138
  159SAPE   HN117656   0.937   4.569   1.978 -0.0709 -1.3020 -1.3897
  159SAPE   HN217657   1.006   4.658   1.847  1.1631  3.1204  0.9487
  159SAPE   HN317658   1.094   4.541   1.947 -0.1215  0.3463  0.2975
  159SAPE   C1217659   1.066   4.721   2.041 -0.3060  0.4367  0.1501
  159SAPE  H12A17660   1.170   4.754   2.018  0.1773 -0.4376  0.9834
  159SAPE  H12B17661   1.076   4.675   2.142  1.9464 -0.1038 -0.2470
  159SAPE   C1117662   0.970   4.838   2.044  0.0667  0.2264 -0.4182
  159SAPE  H11A17663   1.000   4.898   1.956 -1.9416  0.5522 -0.9348
  159SAPE  H11B17664   0.993   4.898   2.135 -1.0282 -3.5495  2.6068
  159SAPE     P17665   0.742   4.768   2.154  0.1059  0.1597 -0.0895
  159SAPE   O1317666   0.602   4.785   2.104  0.1000 -0.2864 -0.2432
  159SAPE   O1417667   0.778   4.636   2.217  0.5589  0.1777  0.0715
  159SAPE   O1217668   0.829   4.799   2.029 -0.2233 -0.2176  0.3517
  159SAPE   O1117669   0.769   4.888   2.251  0.3709  0.5007 -0.0374
  159SAPE    C117670   0.716   4.891   2.386  0.2002  0.4045  0.4385
  159SAPE    HA17671   0.614   4.932   2.376  0.2408  0.5078  0.4539
  159SAPE    HB17672   0.705   4.786   2.421 -0.6821  0.3131 -0.0937
  159SAPE    C217673   0.792   4.987   2.473  0.6908 -0.1731 -0.2897
  159SAPE    HS17674   0.789   5.082   2.415  0.1558 -0.7528 -1.2412
  159SAPE   O2117675   0.928   4.936   2.473  0.0286 -0.0164  0.2627
  159SAPE   C2117676   1.029   4.994   2.542 -0.0569  0.5547  0.7486
  159SAPE   O2217677   1.035   5.109   2.584  0.5771 -0.1499 -0.1040
  159SAPE   C2217678   1.138   4.892   2.573  0.0575  0.2474 -0.0612
  159SAPE   H2R17679   1.095   4.812   2.509 -2.0484  2.1067 -1.1094
  159SAPE   H2S17680   1.238   4.925   2.536  1.1792 -0.6247  2.0130
  159SAPE    C317681   0.736   5.024   2.617  0.8638  0.1845  0.2068
  159SAPE    HX17682   0.626   5.028   2.603  1.0361  0.0375 -1.2630
  159SAPE    HY17683   0.763   5.129   2.643 -0.4725  1.0901 -1.8523
  159SAPE   O3117684   0.781   4.925   2.718 -0.1772  0.0304  0.3866
  159SAPE   C3117685   0.697   4.830   2.755 -0.0950  0.3874 -0.2542
  159SAPE   O3217686   0.581   4.817   2.710  0.1862  0.0812  0.3437
  159SAPE   C3217687   0.752   4.740   2.864  0.9585 -0.3676  0.3386
  159SAPE   H2X17688   0.863   4.744   2.856  0.8393  1.8104 -1.7544
  159SAPE   H2Y17689   0.719   4.639   2.834  2.2909 -1.1290  1.3225
  159SAPE   C2317690   1.133   4.823   2.711  0.8519  0.0756  0.6318
  159SAPE   H3R17691   1.155   4.718   2.681 -3.1578 -0.6609 -0.2842
  159SAPE   H3S17692   1.033   4.828   2.759 -0.5479 -2.2092 -1.7868
  159SAPE   C2417693   1.253   4.872   2.807 -0.0262  0.4963 -0.2309
  159SAPE   H4R17694   1.354   4.853   2.766 -0.0102 -2.7030  1.0584
  159SAPE   H4S17695   1.236   4.815   2.901 -1.9584  0.8988 -0.2803
  159SAPE   C2517696   1.233   5.015   2.843  0.0286 -0.4268 -0.3365
  159SAPE   H5R17697   1.295   5.083   2.782  2.0835  0.2484  2.3147
  159SAPE   C2617698   1.151   5.065   2.938  0.6887 -0.2932 -1.0678
  159SAPE   H6R17699   1.147   5.174   2.948  1.5014 -0.2615 -1.0316
  159SAPE   C2717700   1.063   4.985   3.031  0.4214  0.4471 -0.4850
  159SAPE   H7R17701   1.119   4.952   3.121 -0.3193 -0.8037 -0.4690
  159SAPE   H7S17702   1.031   4.893   2.980  0.9947  0.4866 -0.9264
  159SAPE   C2817703   0.944   5.070   3.078 -0.4998 -0.0473 -0.0518
  159SAPE   H8R17704   0.893   5.134   3.005 -3.5968 -2.7451 -0.5184
  159SAPE   C2917705   0.886   5.072   3.197 -0.4961  0.2665 -0.3427
  159SAPE   H9R17706   0.801   5.139   3.213 -1.4517  0.1808 -4.0621
  159SAPE  C21017707   0.927   4.988   3.316  0.8047  0.2781  0.1167
  159SAPE  H10R17708   0.875   5.021   3.408  1.1798 -2.1244  1.2739
  159SAPE  H10S17709   1.036   5.004   3.327  0.8101  1.5028 -1.3208
  159SAPE  C21117710   0.905   4.837   3.303  0.2200  0.0244  0.2812
  159SAPE  H11R17711   0.874   4.791   3.208 -0.0031 -0.2156  0.4671
  159SAPE  C21217712   0.895   4.757   3.407 -0.4057  0.4517  0.6712
  159SAPE  H12R17713   0.856   4.655   3.389  2.6972 -0.8034  0.3139
  159SAPE  C21317714   0.942   4.788   3.549 -0.9767  0.7223  0.4379
  159SAPE  H13R17715   0.864   4.833   3.615 -0.6785  3.9576 -1.2091
  159SAPE  H13S17716   1.019   4.868   3.539  1.1744 -1.4390 -1.2854
  159SAPE  C21417717   1.012   4.676   3.629  0.0124  0.2277  0.0033
  159SAPE  H14R17718   1.005   4.574   3.589  1.9017 -1.3529  3.3686
  159SAPE  C21517719   1.088   4.692   3.736 -0.0544 -0.2187  0.0122
  159SAPE  H15R17720   1.130   4.606   3.789  1.1671  0.2962 -0.0749
  159SAPE  C21617721   1.122   4.819   3.808  0.5104  0.8570 -0.1639
  159SAPE  H16R17722   1.121   4.907   3.740  1.7143  1.1800  0.2237
  159SAPE  H16S17723   1.226   4.817   3.846 -0.6003  0.4737  3.1237
  159SAPE  C21717724   1.019   4.837   3.920 -0.2331 -0.2281  0.2259
  159SAPE  H17R17725   1.041   4.759   3.995 -1.1776  0.5798  1.3797
  159SAPE  H17S17726   0.911   4.834   3.897 -0.1480  0.5377 -0.3260
  159SAPE  C21817727   1.043   4.980   3.990 -0.2295  1.0147 -0.1723
  159SAPE  H18R17728   1.151   5.003   3.994 -0.0211 -0.0786  1.7366
  159SAPE  H18S17729   1.009   4.977   4.095  0.2605 -0.4191 -0.0356
  159SAPE  C21917730   0.979   5.090   3.910  0.3307 -0.4924  0.7312
  159SAPE  H19R17731   0.872   5.070   3.889  0.3320  1.4112 -1.6808
  159SAPE  H19S17732   1.020   5.081   3.807  1.9141 -1.5480  1.4212
  159SAPE  C22017733   1.000   5.229   3.976 -0.2984 -0.9009  0.9724
  159SAPE  H20R17734   0.942   5.239   4.070 -0.0945  1.5531  0.9237
  159SAPE  H20S17735   0.958   5.301   3.902  0.7405 -3.2257 -2.0722
  159SAPE  H20T17736   1.107   5.255   3.993 -0.8288  1.7891  0.7363
  159SAPE   C3317737   0.705   4.774   3.005  0.1213 -0.3430  0.3428
  159SAPE   H3X17738   0.734   4.878   3.030  2.0899 -1.0877  1.4133
  159SAPE   H3Y17739   0.757   4.705   3.075 -1.1946 -0.3848  1.3051
  159SAPE   C3417740   0.558   4.749   3.030 -0.2251  0.1631  0.4668
  159SAPE   H4X17741   0.536   4.651   2.983  1.2037  1.3334 -2.9659
  159SAPE   H4Y17742   0.492   4.823   2.981 -1.1418 -1.4888 -0.8977
  159SAPE   C3517743   0.521   4.732   3.176  0.5275  0.4526  0.2942
  159SAPE   H5X17744   0.606   4.670   3.212 -0.2891  0.1900  1.8657
  159SAPE   H5Y17745   0.436   4.660   3.180  0.5869  0.4281  1.8371
  159SAPE   C3617746   0.506   4.853   3.264  0.6476 -0.3125  0.1751
  159SAPE   H6X17747   0.403   4.892   3.251  0.3708 -1.4957 -1.4571
  159SAPE   H6Y17748   0.566   4.943   3.240 -3.0224  1.9295 -1.5507
  159SAPE   C3717749   0.520   4.814   3.417  0.1305 -0.4648 -0.5670
  159SAPE   H7X17750   0.615   4.763   3.445  1.3407  2.0799  0.2643
  159SAPE   H7Y17751   0.450   4.728   3.423  0.2657 -0.5375  0.1001
  159SAPE   C3817752   0.479   4.928   3.516 -0.4149  0.1865 -0.5341
  159SAPE   H8X17753   0.389   4.986   3.486 -1.8524 -0.8566  1.5749
  159SAPE   H8Y17754   0.559   5.003   3.535  0.2903 -1.3565  3.3359
  159SAPE   C3917755   0.442   4.857   3.652 -0.0079 -0.3007  1.1364
  159SAPE   H9X17756   0.383   4.767   3.627 -3.4585  1.6066  1.7736
  159SAPE   H9Y17757   0.373   4.923   3.709 -0.3410  1.6495 -1.3385
  159SAPE  C31017758   0.562   4.826   3.744  0.1131  0.4343  0.4892
  159SAPE  H10X17759   0.615   4.921   3.767 -0.1016  0.6214  0.2273
  159SAPE  H10Y17760   0.633   4.758   3.693  0.6223  0.3420  1.3146
  159SAPE  C31117761   0.516   4.768   3.878 -0.6789  0.3618  0.3807
  159SAPE  H11X17762   0.473   4.667   3.861 -0.9031  0.4756  0.2620
  159SAPE  H11Y17763   0.434   4.825   3.926 -0.3696  1.2554 -0.1323
  159SAPE  C31217764   0.627   4.769   3.984  0.3171 -0.1570 -0.5111
  159SAPE  H12X17765   0.634   4.874   4.018  2.0138 -0.5126  0.3127
  159SAPE  H12Y17766   0.725   4.749   3.935  1.0206 -3.6615  1.9540
  159SAPE  C31317767   0.606   4.677   4.106 -0.8557 -0.2650  0.0822
  159SAPE  H13X17768   0.583   4.579   4.059  0.5835  0.3061 -1.9856
  159SAPE  H13Y17769   0.527   4.711   4.176 -0.0554  0.4903  0.6388
  159SAPE  C31417770   0.736   4.666   4.182  0.0996  0.2048 -0.3784
  159SAPE  H14X17771   0.808   4.618   4.112 -0.8576 -1.8320 -0.0055
  159SAPE  H14Y17772   0.714   4.596   4.265  1.0377 -2.5484 -2.3227
  159SAPE  C31517773   0.793   4.799   4.240  0.5184  0.5894  0.1753
  159SAPE  H15X17774   0.719   4.859   4.296  1.5590  2.1129 -0.0030
  159SAPE  H15Y17775   0.831   4.860   4.155 -0.0501  1.4865  0.5437
  159SAPE  C31617776   0.925   4.778   4.321  0.2538 -0.0319  0.0113
  159SAPE  H16X17777   1.010   4.782   4.249  0.9483  0.4302  0.8415
  159SAPE  H16Y17778   0.909   4.673   4.355 -0.2902  0.0867  0.1334
  159SAPE  C31717779   0.947   4.879   4.433  0.2490 -0.2985  0.4468
  159SAPE  H17X17780   1.054   4.863   4.460  0.0727  0.2564  1.5529
  159SAPE  H17Y17781   0.883   4.855   4.521 -0.7495  0.6640  0.0099
  159SAPE  C31817782   0.940   5.028   4.380  0.2980 -0.2652  0.3998
  159SAPE  H18X17783   0.850   5.052   4.319  1.6116  0.3805 -1.3532
  159SAPE  H18Y17784   1.032   5.040   4.319  0.1681  2.6498  0.6431
  159SAPE  H18Z17785   0.955   5.107   4.457  1.2723  1.3360 -1.3536
  160SAPE     N17786   0.249   6.053   1.812 -0.3596  0.4051  0.2031
  160SAPE   HN117787   0.251   5.968   1.752 -1.6371  1.7688 -1.9128
  160SAPE   HN217788   0.152   6.088   1.821 -0.8243 -0.4270 -1.2731
  160SAPE   HN317789   0.300   6.126   1.757  0.4503 -0.5056 -0.2755
  160SAPE   C1217790   0.309   6.022   1.942 -0.2710  0.5081 -0.2889
  160SAPE  H12A17791   0.362   6.111   1.982 -2.4114  2.0158 -0.6540
  160SAPE  H12B17792   0.380   5.938   1.929 -0.2909  0.2977  0.8677
  160SAPE   C1117793   0.194   5.964   2.032 -0.7069  0.2601 -0.2086
  160SAPE  H11A17794   0.233   5.912   2.122 -2.3009 -1.8971 -0.6656
  160SAPE  H11B17795   0.138   5.885   1.977  0.2564 -1.4025  1.0858
  160SAPE     P17796  -0.047   6.032   2.110 -0.0306 -0.1981  0.0077
  160SAPE   O1317797  -0.144   6.135   2.063 -0.2350 -0.0924 -0.2490
  160SAPE   O1417798  -0.073   5.896   2.065 -0.4924  0.0389  0.6678
  160SAPE   O1217799   0.102   6.066   2.067  0.2689 -0.7164  0.3205
  160SAPE   O1117800  -0.036   6.026   2.270  0.1341 -0.2460  0.7256
  160SAPE    C117801   0.072   6.088   2.341  0.3131 -0.7267  0.3131
  160SAPE    HA17802   0.146   6.138   2.275 -1.5603  2.4400  0.4374
  160SAPE    HB17803   0.030   6.166   2.407 -1.0403 -2.6734  1.8807
  160SAPE    C217804   0.143   5.986   2.427 -0.6402  0.5611 -0.4420
  160SAPE    HS17805   0.170   5.901   2.361 -2.8667 -0.5282 -0.0766
  160SAPE   O2117806   0.057   5.938   2.535  0.1729 -0.6401 -0.5531
  160SAPE   C2117807  -0.014   5.832   2.505  0.7617 -0.2873 -0.4922
  160SAPE   O2217808  -0.018   5.770   2.403  0.7299  0.1142 -0.2233
  160SAPE   C2217809  -0.106   5.808   2.625  0.2471 -0.7104 -0.1241
  160SAPE   H2R17810  -0.180   5.731   2.596 -0.7462  0.7007 -1.4758
  160SAPE   H2S17811  -0.045   5.768   2.710  2.4739 -0.0822 -1.3484
  160SAPE    C317812   0.276   6.034   2.483 -0.0564 -0.6332 -0.0390
  160SAPE    HX17813   0.333   6.076   2.397 -0.9660  0.5927 -0.0742
  160SAPE    HY17814   0.325   5.941   2.516  2.5082 -1.2243 -4.6510
  160SAPE   O3117815   0.259   6.121   2.596  0.5604 -0.1781 -0.1701
  160SAPE   C3117816   0.312   6.234   2.594 -0.2482 -0.4922 -0.4394
  160SAPE   O3217817   0.376   6.285   2.505 -0.4036 -0.0062  0.5652
  160SAPE   C3217818   0.271   6.307   2.716 -0.1609 -1.0528 -0.9395
  160SAPE   H2X17819   0.160   6.308   2.719 -0.1758 -0.5785  2.2560
  160SAPE   H2Y17820   0.300   6.414   2.707 -0.8873 -0.8941 -1.5078
  160SAPE   C2317821  -0.191   5.924   2.680 -0.3707 -0.2609  0.4828
  160SAPE   H3R17822  -0.262   5.955   2.600 -1.2673 -1.8897  0.6146
  160SAPE   H3S17823  -0.130   6.015   2.699  0.2895 -0.5171 -0.3398
  160SAPE   C2417824  -0.251   5.882   2.813 -0.2143 -0.5294  0.9929
  160SAPE   H4R17825  -0.290   5.974   2.861 -1.5589 -0.4966 -0.1059
  160SAPE   H4S17826  -0.162   5.856   2.875  0.3613 -0.0357  0.3852
  160SAPE   C2517827  -0.358   5.780   2.795  0.2733 -0.2020  0.0862
  160SAPE   H5R17828  -0.381   5.735   2.697 -0.2987 -1.1810  0.6595
  160SAPE   C2617829  -0.444   5.750   2.891  0.3445  0.4560 -0.8338
  160SAPE   H6R17830  -0.521   5.676   2.865  0.6707 -0.0853 -0.2892
  160SAPE   C2717831  -0.453   5.810   3.032 -0.1340  0.2489  0.1786
  160SAPE   H7R17832  -0.539   5.878   3.046 -1.9829 -2.1284  0.9726
  160SAPE   H7S17833  -0.359   5.867   3.050 -0.2521  0.6176 -0.3322
  160SAPE   C2817834  -0.456   5.704   3.137 -0.3575 -0.1155 -0.3611
  160SAPE   H8R17835  -0.461   5.601   3.099  0.5499 -0.4321  0.3499
  160SAPE   C2917836  -0.468   5.723   3.277 -0.3422  1.3019  0.2032
  160SAPE   H9R17837  -0.481   5.630   3.335  2.3220  1.3967  1.0825
  160SAPE  C21017838  -0.493   5.859   3.337 -0.2674  0.2858  0.1894
  160SAPE  H10R17839  -0.601   5.854   3.362 -0.0696 -2.4279  0.7749
  160SAPE  H10S17840  -0.485   5.938   3.258  0.0138  0.4287  0.3613
  160SAPE  C21117841  -0.399   5.890   3.448 -0.4371  0.4917 -0.1739
  160SAPE  H11R17842  -0.292   5.899   3.425  0.2053 -1.5436  1.6839
  160SAPE  C21217843  -0.436   5.893   3.575  0.3672  0.2436 -0.4047
  160SAPE  H12R17844  -0.354   5.915   3.646 -1.5579  1.0746  1.6789
  160SAPE  C21317845  -0.575   5.893   3.633  0.4469 -0.2374 -0.7172
  160SAPE  H13R17846  -0.564   5.882   3.742 -0.6180  1.5762 -0.3838
  160SAPE  H13S17847  -0.636   5.813   3.585 -1.1777  1.3322 -1.3995
  160SAPE  C21417848  -0.656   6.022   3.611  1.1525  0.5361 -0.1822
  160SAPE  H14R17849  -0.658   6.070   3.512  0.5430  1.2702  0.1763
  160SAPE  C21517850  -0.711   6.085   3.715 -0.1556  0.4992  0.7994
  160SAPE  H15R17851  -0.775   6.171   3.695  1.8250  1.4790 -1.9862
  160SAPE  C21617852  -0.722   6.025   3.856  0.3381 -0.0681 -0.3462
  160SAPE  H16R17853  -0.622   6.011   3.902 -0.0453 -0.1241  0.4988
  160SAPE  H16S17854  -0.769   5.924   3.858  0.1425 -0.0294 -1.7474
  160SAPE  C21717855  -0.810   6.119   3.941  0.3292  0.2837 -0.7703
  160SAPE  H17R17856  -0.902   6.159   3.893 -1.2979  0.1926  2.0479
  160SAPE  H17S17857  -0.756   6.206   3.983  0.8966 -1.5238  2.5384
  160SAPE  C21817858  -0.853   6.045   4.073 -0.1358  0.5612  0.4814
  160SAPE  H18R17859  -0.758   6.041   4.130  0.3688  1.1603 -0.3041
  160SAPE  H18S17860  -0.891   5.942   4.058  1.6210 -0.1716  0.8795
  160SAPE  C21917861  -0.961   6.137   4.149 -0.6906 -0.0312  0.7356
  160SAPE  H19R17862  -1.045   6.149   4.077 -1.4229 -0.8143  1.4359
  160SAPE  H19S17863  -0.920   6.236   4.178  0.3441 -0.0482 -0.5534
  160SAPE  C22017864  -1.013   6.060   4.264  0.2236 -0.4910  0.2992
  160SAPE  H20R17865  -1.085   6.126   4.316 -1.6815 -1.0524 -1.5034
  160SAPE  H20S17866  -0.935   6.029   4.337 -0.4243 -1.3997  0.6299
  160SAPE  H20T17867  -1.078   5.976   4.230  0.0586 -0.8170  1.3724
  160SAPE   C3317868   0.325   6.244   2.847 -0.8310 -0.6895 -0.2386
  160SAPE   H3X17869   0.434   6.243   2.826 -0.8851  0.7200 -0.7269
  160SAPE   H3Y17870   0.292   6.138   2.852  1.1244 -1.4856 -2.1954
  160SAPE   C3417871   0.307   6.324   2.978 -0.1658  0.2463  0.2056
  160SAPE   H4X17872   0.207   6.300   3.020 -1.3245  2.2702 -1.2214
  160SAPE   H4Y17873   0.305   6.434   2.958 -1.8483  0.1647 -0.2483
  160SAPE   C3517874   0.427   6.294   3.072 -0.4650  0.1545  0.1574
  160SAPE   H5X17875   0.520   6.311   3.013  0.9292 -2.1884  1.5390
  160SAPE   H5Y17876   0.430   6.187   3.100 -0.7553  0.2521  0.5678
  160SAPE   C3617877   0.423   6.376   3.203 -0.1771  0.5423 -0.4159
  160SAPE   H6X17878   0.443   6.481   3.176 -0.0132  0.8356  0.7621
  160SAPE   H6Y17879   0.501   6.332   3.269 -0.7931 -1.8199 -1.1586
  160SAPE   C3717880   0.289   6.365   3.272  0.4442 -0.3110 -0.4096
  160SAPE   H7X17881   0.265   6.257   3.281  0.4356 -0.2348  0.6633
  160SAPE   H7Y17882   0.213   6.411   3.205 -2.1221 -2.8874  0.5457
  160SAPE   C3817883   0.292   6.428   3.409  0.4259 -1.0558  0.2461
  160SAPE   H8X17884   0.320   6.535   3.410  1.6835 -1.3641  0.1886
  160SAPE   H8Y17885   0.349   6.365   3.481  0.4716 -0.0797  1.0810
  160SAPE   C3917886   0.142   6.433   3.455 -0.2766 -0.0822  0.3690
  160SAPE   H9X17887   0.085   6.338   3.458 -2.5782  1.1805 -0.7137
  160SAPE   H9Y17888   0.085   6.488   3.377 -0.5699 -1.3917 -0.3629
  160SAPE  C31017889   0.126   6.499   3.593 -0.3431  0.2268  0.1941
  160SAPE  H10X17890   0.023   6.538   3.585  0.5922  2.6924 -0.8782
  160SAPE  H10Y17891   0.197   6.585   3.602 -0.0718  0.1657 -1.1137
  160SAPE  C31117892   0.158   6.398   3.701  0.0237  0.3402 -0.1161
  160SAPE  H11X17893   0.257   6.348   3.692  0.5290  0.9391  1.6582
  160SAPE  H11Y17894   0.089   6.311   3.689  0.0130  0.4063 -0.5614
  160SAPE  C31217895   0.149   6.454   3.845  0.9254 -0.0061 -0.3327
  160SAPE  H12X17896   0.198   6.554   3.844  3.3701 -1.1547 -0.6795
  160SAPE  H12Y17897   0.200   6.381   3.911 -1.4183 -1.1010  0.4088
  160SAPE  C31317898  -0.005   6.472   3.889  0.2240  0.0996  0.3660
  160SAPE  H13X17899  -0.058   6.378   3.864  1.7517 -1.0252  1.1429
  160SAPE  H13Y17900  -0.043   6.561   3.836  1.9445  0.8671  0.3382
  160SAPE  C31417901  -0.017   6.502   4.041 -0.3873  0.2303  0.2553
  160SAPE  H14X17902   0.032   6.599   4.065 -1.2951  0.8404 -0.2647
  160SAPE  H14Y17903   0.031   6.422   4.100 -0.3266 -0.4788 -0.7289
  160SAPE  C31517904  -0.154   6.500   4.111  0.3575 -0.5107 -0.0064
  160SAPE  H15X17905  -0.226   6.545   4.040  1.5296 -0.8088 -1.4200
  160SAPE  H15Y17906  -0.140   6.558   4.205  3.6736 -3.6918  1.7620
  160SAPE  C31617907  -0.200   6.358   4.157  0.0348  0.7433 -0.1431
  160SAPE  H16X17908  -0.143   6.320   4.245 -1.4895  0.1454  0.6318
  160SAPE  H16Y17909  -0.195   6.270   4.089 -0.6962  0.7981 -0.2745
  160SAPE  C31717910  -0.356   6.350   4.191  0.4794 -0.0550  0.1949
  160SAPE  H17X17911  -0.397   6.438   4.246  1.6845  0.4509  0.3092
  160SAPE  H17Y17912  -0.381   6.262   4.254 -0.7551  1.3576  1.7700
  160SAPE  C31817913  -0.449   6.331   4.066 -0.3573  0.0326  0.2119
  160SAPE  H18X17914  -0.416   6.410   3.994 -1.6643  1.1745  0.8217
  160SAPE  H18Y17915  -0.556   6.350   4.088  0.3314  2.8701  1.5288
  160SAPE  H18Z17916  -0.448   6.234   4.012 -1.0927  0.3627 -0.4197
  161SAPE     N17917   3.624   2.082   2.650 -0.0051 -0.4587  0.2661
  161SAPE   HN117918   3.598   2.181   2.636  1.1857 -0.3047 -1.2206
  161SAPE   HN217919   3.694   2.056   2.577 -0.8681 -0.8001 -0.4653
  161SAPE   HN317920   3.541   2.019   2.643 -0.8443  0.7282 -1.0870
  161SAPE   C1217921   3.682   2.067   2.786 -0.8772 -0.0353  0.3784
  161SAPE  H12A17922   3.608   2.112   2.856 -0.6923  1.4153 -0.3205
  161SAPE  H12B17923   3.776   2.122   2.809  0.0459 -0.1127 -2.7407
  161SAPE   C1117924   3.685   1.916   2.811 -0.4055 -0.0081  0.0315
  161SAPE  H11A17925   3.726   1.889   2.910  1.3769  0.4693 -0.5262
  161SAPE  H11B17926   3.756   1.885   2.731  0.1962  1.4687 -0.0551
  161SAPE     P17927   3.540   1.715   2.759  0.1299  0.3429 -0.1550
  161SAPE   O1317928   3.397   1.689   2.733 -0.3785  0.8632 -0.3836
  161SAPE   O1417929   3.634   1.686   2.643 -0.3908  0.1445 -0.5759
  161SAPE   O1217930   3.557   1.863   2.780 -0.1808 -0.1315 -0.1970
  161SAPE   O1117931   3.609   1.663   2.892 -0.4281  0.2173  0.9037
  161SAPE    C117932   3.560   1.707   3.020  0.4718 -0.3960  0.0294
  161SAPE    HA17933   3.542   1.816   3.007 -3.6581 -0.8311  0.9233
  161SAPE    HB17934   3.461   1.665   3.046  0.1170  1.5088  2.0834
  161SAPE    C217935   3.669   1.698   3.135 -0.2948  1.4101 -0.2793
  161SAPE    HS17936   3.636   1.758   3.223 -0.4016  1.7219 -0.5314
  161SAPE   O2117937   3.793   1.750   3.083 -0.0765  0.1801 -0.4610
  161SAPE   C2117938   3.871   1.805   3.172 -0.6245 -0.0110 -0.3269
  161SAPE   O2217939   3.854   1.813   3.289  0.0517  0.3305 -0.3518
  161SAPE   C2217940   4.010   1.852   3.103 -0.0729  0.1195 -0.3138
  161SAPE   H2R17941   4.007   1.963   3.097  0.7305  0.0609 -2.8101
  161SAPE   H2S17942   4.096   1.819   3.165 -0.6187  0.9441  0.9317
  161SAPE    C317943   3.693   1.547   3.191 -0.5427 -0.6757  0.1034
  161SAPE    HX17944   3.782   1.545   3.257 -1.5351  0.1582  1.5292
  161SAPE    HY17945   3.713   1.489   3.098  0.4726 -0.7332  0.3556
  161SAPE   O3117946   3.578   1.496   3.261  0.0005 -0.1478  0.3195
  161SAPE   C3117947   3.530   1.549   3.370 -0.7819  0.4335  0.4251
  161SAPE   O3217948   3.584   1.639   3.433 -0.0530 -0.0424 -0.1624
  161SAPE   C3217949   3.398   1.474   3.409  0.2747 -0.1521  0.2195
  161SAPE   H2X17950   3.418   1.408   3.496 -2.4838 -1.6760 -0.1884
  161SAPE   H2Y17951   3.367   1.405   3.327 -1.8840 -1.2837  1.8883
  161SAPE   C2317952   4.017   1.794   2.957 -0.4732  0.2304 -0.0818
  161SAPE   H3R17953   3.922   1.819   2.903 -0.8509 -1.9111 -0.5178
  161SAPE   H3S17954   4.031   1.684   2.960  1.6266  0.4741  0.6909
  161SAPE   C2417955   4.142   1.856   2.889 -0.4591 -0.5156 -0.6137
  161SAPE   H4R17956   4.156   1.815   2.787 -0.2717 -0.9310 -0.4251
  161SAPE   H4S17957   4.231   1.816   2.942  1.1189  2.3997 -0.8822
  161SAPE   C2517958   4.140   2.005   2.887 -0.1203 -0.1361  0.5767
  161SAPE   H5R17959   4.067   2.052   2.819  0.4905 -1.4475 -1.0712
  161SAPE   C2617960   4.231   2.079   2.955  0.3000  0.2102 -0.4553
  161SAPE   H6R17961   4.233   2.188   2.939  1.4119  0.0972 -1.2264
  161SAPE   C2717962   4.322   2.045   3.068  0.0592  0.5681  1.4873
  161SAPE   H7R17963   4.426   2.048   3.031 -1.2374 -1.4001 -2.9926
  161SAPE   H7S17964   4.317   1.938   3.098  0.4897  0.1632  0.1791
  161SAPE   C2817965   4.319   2.135   3.194 -0.1907  0.2721  0.6614
  161SAPE   H8R17966   4.296   2.241   3.175 -1.2788 -0.2147 -0.9764
  161SAPE   C2917967   4.329   2.095   3.321 -0.0186  0.3861  0.3462
  161SAPE   H9R17968   4.327   2.174   3.396  0.5154  0.7093  0.0282
  161SAPE  C21017969   4.334   1.954   3.383 -0.7737 -0.2012  0.3583
  161SAPE  H10R17970   4.420   1.957   3.453 -0.1041 -0.5292 -0.4303
  161SAPE  H10S17971   4.366   1.875   3.312  1.2456 -0.1297  1.1322
  161SAPE  C21117972   4.208   1.925   3.463 -0.8427 -0.7691  0.4863
  161SAPE  H11R17973   4.113   1.918   3.408 -0.9056  1.5203  0.2230
  161SAPE  C21217974   4.205   1.914   3.596  0.3050 -0.7053 -0.1309
  161SAPE  H12R17975   4.113   1.874   3.641 -0.5133  0.0999 -1.0520
  161SAPE  C21317976   4.319   1.921   3.702 -0.0681 -0.2117  0.0019
  161SAPE  H13R17977   4.419   1.894   3.661 -0.4437 -1.9966  0.1867
  161SAPE  H13S17978   4.291   1.828   3.754 -2.3818 -1.1999 -2.7505
  161SAPE  C21417979   4.314   2.039   3.800 -0.4247 -0.9041  0.3888
  161SAPE  H14R17980   4.400   2.107   3.787 -2.7719  2.3101  0.6729
  161SAPE  C21517981   4.240   2.065   3.911 -0.0528  0.0214 -0.0312
  161SAPE  H15R17982   4.259   2.151   3.976 -1.7541 -1.8263  3.1294
  161SAPE  C21617983   4.127   1.977   3.965 -0.3164 -0.2637  0.0964
  161SAPE  H16R17984   4.175   1.917   4.046  1.1888 -1.0167 -1.2779
  161SAPE  H16S17985   4.104   1.897   3.891  0.1099 -1.7721  1.5252
  161SAPE  C21717986   3.996   2.050   3.999 -0.0690 -0.8345 -0.0659
  161SAPE  H17R17987   3.931   1.972   4.043  0.2143 -1.5768 -0.9152
  161SAPE  H17S17988   3.943   2.072   3.903  0.0351 -2.3542 -0.4943
  161SAPE  C21817989   4.002   2.160   4.111 -0.0721  0.6954 -0.6273
  161SAPE  H18R17990   4.056   2.252   4.080 -0.5300  0.9973 -0.5372
  161SAPE  H18S17991   4.056   2.118   4.199 -0.5263  1.9325  0.2633
  161SAPE  C21917992   3.863   2.219   4.141  0.1968  0.3644 -0.6121
  161SAPE  H19R17993   3.787   2.138   4.149 -1.1955  1.4787 -1.9308
  161SAPE  H19S17994   3.829   2.286   4.059 -0.8254  1.5259  0.7002
  161SAPE  C22017995   3.865   2.296   4.270  0.5911 -0.1250 -0.1385
  161SAPE  H20R17996   3.765   2.308   4.316 -0.6117 -0.2051 -2.5499
  161SAPE  H20S17997   3.911   2.395   4.248  0.7381 -0.5086 -1.6676
  161SAPE  H20T17998   3.927   2.245   4.347 -2.2460 -2.1289  0.9932
  161SAPE   C3317999   3.285   1.570   3.455  0.4673 -0.1845  0.2171
  161SAPE   H3X18000   3.252   1.629   3.367  0.4597 -0.3073  0.1378
  161SAPE   H3Y18001   3.317   1.645   3.531 -2.0256  0.1865  1.0281
  161SAPE   C3418002   3.173   1.500   3.516  0.7302  0.7395 -0.4329
  161SAPE   H4X18003   3.201   1.445   3.608 -1.2139  0.5630  0.0932
  161SAPE   H4Y18004   3.130   1.422   3.449  1.5576 -2.9140  2.8948
  161SAPE   C3518005   3.059   1.588   3.558 -0.0365  0.5813 -0.0690
  161SAPE   H5X18006   3.036   1.650   3.469 -2.3036  1.1379  0.8264
  161SAPE   H5Y18007   3.092   1.655   3.641 -0.4779  1.0989 -0.3039
  161SAPE   C3618008   2.934   1.506   3.610 -0.3967  0.2016 -0.1369
  161SAPE   H6X18009   2.958   1.437   3.694 -0.1445 -1.5697 -1.5939
  161SAPE   H6Y18010   2.901   1.437   3.529 -0.9972  2.7243 -2.1713
  161SAPE   C3718011   2.813   1.590   3.632 -0.1100  0.1064  0.9184
  161SAPE   H7X18012   2.789   1.628   3.531  1.7815  0.9377  0.7360
  161SAPE   H7Y18013   2.851   1.676   3.691 -0.2179 -1.3586  3.2481
  161SAPE   C3818014   2.696   1.520   3.711  0.0449 -0.3356 -0.0599
  161SAPE   H8X18015   2.729   1.455   3.794  0.8920  2.1358  1.6723
  161SAPE   H8Y18016   2.639   1.452   3.645  0.4915 -0.0701 -0.7365
  161SAPE   C3918017   2.591   1.624   3.757 -0.0471  0.3084  0.6153
  161SAPE   H9X18018   2.570   1.682   3.665  2.1747  0.1001 -0.0869
  161SAPE   H9Y18019   2.631   1.702   3.826  0.0416  1.1888 -0.3911
  161SAPE  C31018020   2.454   1.560   3.801  0.5054  0.0415  0.0246
  161SAPE  H10X18021   2.429   1.488   3.720  1.7339  0.6159 -0.8958
  161SAPE  H10Y18022   2.381   1.643   3.800  1.1289  0.6396  1.5740
  161SAPE  C31118023   2.448   1.484   3.936  0.2263 -0.1709 -0.5065
  161SAPE  H11X18024   2.463   1.555   4.021 -2.9002 -0.3963  0.3511
  161SAPE  H11Y18025   2.539   1.421   3.943  0.1651 -0.3920 -1.5615
  161SAPE  C31218026   2.332   1.385   3.961 -0.4753 -0.2999 -0.5805
  161SAPE  H12X18027   2.335   1.296   3.895 -1.0578 -1.0093  0.3429
  161SAPE  H12Y18028   2.239   1.444   3.956  1.4045  3.3257  2.1592
  161SAPE  C31318029   2.346   1.339   4.106 -0.0926  0.0931 -0.2472
  161SAPE  H13X18030   2.395   1.413   4.173  1.3162  0.3291 -1.5078
  161SAPE  H13Y18031   2.416   1.253   4.107 -1.2624 -0.9510 -2.0653
  161SAPE  C31418032   2.219   1.272   4.174  0.5124 -0.9950  0.4489
  161SAPE  H14X18033   2.248   1.214   4.264 -1.5786 -1.0341  1.1415
  161SAPE  H14Y18034   2.183   1.193   4.105 -0.5480 -0.3819  0.2806
  161SAPE  C31518035   2.097   1.361   4.207  0.6605 -0.6887  0.1579
  161SAPE  H15X18036   2.008   1.310   4.249  1.3541 -1.3620  0.8452
  161SAPE  H15Y18037   2.056   1.411   4.117 -1.2908 -0.7692  0.9476
  161SAPE  C31618038   2.133   1.461   4.313 -0.0292 -0.5802 -0.2051
  161SAPE  H16X18039   2.042   1.517   4.342 -1.1879 -2.8193  0.7277
  161SAPE  H16Y18040   2.218   1.526   4.284  0.3450 -0.6263  0.7617
  161SAPE  C31718041   2.169   1.391   4.451  0.4944 -0.9304 -0.1954
  161SAPE  H17X18042   2.235   1.461   4.505  1.1594 -0.9123 -1.0197
  161SAPE  H17Y18043   2.224   1.294   4.445  1.9897 -0.3454  2.4795
  161SAPE  C31818044   2.044   1.371   4.541 -0.2431  0.3637  0.1136
  161SAPE  H18X18045   2.012   1.470   4.579  0.6290  1.4712 -1.8696
  161SAPE  H18Y18046   2.061   1.296   4.621 -0.1512 -0.6766 -0.8528
  161SAPE  H18Z18047   1.955   1.332   4.486 -0.5492 -0.1642  0.9650
  162SAPE     N18048   4.032   4.147   2.271  0.1777  0.4086 -0.3442
  162SAPE   HN118049   4.019   4.233   2.327 -2.8659 -0.5561  0.6262
  162SAPE   HN218050   4.039   4.173   2.170  3.6410 -0.2791 -0.4084
  162SAPE   HN318051   3.936   4.108   2.277 -0.3041  1.4965 -0.6905
  162SAPE   C1218052   4.127   4.041   2.316 -0.0977 -0.9585  0.3371
  162SAPE  H12A18053   4.102   4.009   2.420  0.1605 -0.1765  0.6440
  162SAPE  H12B18054   4.229   4.083   2.324  0.0160 -1.2815  0.6508
  162SAPE   C1118055   4.123   3.922   2.221 -0.0104  0.2553 -0.4983
  162SAPE  H11A18056   4.016   3.895   2.207  0.4022 -0.8200 -1.8075
  162SAPE  H11B18057   4.179   3.834   2.259  0.6961  0.7148 -0.4525
  162SAPE     P18058   4.334   3.969   2.067 -0.0570 -0.3306 -0.1848
  162SAPE   O1318059   4.399   3.857   2.141 -0.0355 -0.5291  0.4091
  162SAPE   O1418060   4.346   3.967   1.919 -0.3845 -0.7203  0.3171
  162SAPE   O1218061   4.184   3.963   2.095  0.7210 -0.0271  0.1018
  162SAPE   O1118062   4.383   4.109   2.123  0.2480  0.2899 -0.2279
  162SAPE    C118063   4.518   4.135   2.158 -0.2206  0.2567 -0.2841
  162SAPE    HA18064   4.581   4.044   2.147 -1.2463 -0.8426  2.1070
  162SAPE    HB18065   4.552   4.224   2.100 -0.0729  0.7323  0.5118
  162SAPE    C218066   4.540   4.171   2.303 -0.3517  0.4116 -0.8444
  162SAPE    HS18067   4.647   4.193   2.323 -0.7252  2.3727 -0.8373
  162SAPE   O2118068   4.487   4.069   2.398 -0.1507  0.4376  0.5145
  162SAPE   C2118069   4.551   3.959   2.402 -0.4471  0.4563 -0.9156
  162SAPE   O2218070   4.660   3.938   2.353 -0.1844  0.0165  0.8195
  162SAPE   C2218071   4.466   3.857   2.485  0.1687  0.4605  0.1017
  162SAPE   H2R18072   4.411   3.916   2.560 -0.0651  0.3846 -0.0076
  162SAPE   H2S18073   4.394   3.810   2.414 -0.9888 -0.4208  1.7964
  162SAPE    C318074   4.471   4.306   2.332  0.1169  0.0296  0.8081
  162SAPE    HX18075   4.370   4.289   2.289 -0.0812  0.7787  0.9673
  162SAPE    HY18076   4.513   4.387   2.269  1.3470 -0.4820  0.9280
  162SAPE   O3118077   4.475   4.337   2.470  0.1791 -0.0545 -0.0561
  162SAPE   C3118078   4.359   4.316   2.538 -0.5689  0.0095 -0.0820
  162SAPE   O3218079   4.251   4.291   2.486 -0.0087  0.3233 -0.0559
  162SAPE   C3218080   4.390   4.308   2.694  0.3574  0.1683 -0.3967
  162SAPE   H2X18081   4.431   4.407   2.727  1.6774 -1.4636  3.4893
  162SAPE   H2Y18082   4.459   4.223   2.709 -1.9678 -1.8621 -0.6759
  162SAPE   C2318083   4.555   3.750   2.559 -0.4323 -0.3071  1.3636
  162SAPE   H3R18084   4.633   3.708   2.492 -0.5883  1.3208  0.0778
  162SAPE   H3S18085   4.492   3.667   2.595 -1.3128 -0.3243 -0.1434
  162SAPE   C2418086   4.622   3.810   2.686  0.8097 -0.0364  0.6330
  162SAPE   H4R18087   4.685   3.894   2.653 -0.9070  1.3029  0.6037
  162SAPE   H4S18088   4.686   3.728   2.724  0.8235  0.2023  1.1316
  162SAPE   C2518089   4.525   3.862   2.787 -0.1922  0.3239  0.4805
  162SAPE   H5R18090   4.482   3.960   2.761 -1.5243 -0.6748 -1.2252
  162SAPE   C2618091   4.475   3.811   2.901  0.4177  0.3706 -0.9649
  162SAPE   H6R18092   4.402   3.861   2.965  0.4453  0.5407 -1.0646
  162SAPE   C2718093   4.516   3.668   2.941  0.0003 -0.5316 -0.2746
  162SAPE   H7R18094   4.627   3.658   2.950 -0.1691 -2.7546  0.0351
  162SAPE   H7S18095   4.488   3.589   2.868 -1.4132 -1.1456  0.8652
  162SAPE   C2818096   4.457   3.615   3.066  0.6351  0.3665  1.1173
  162SAPE   H8R18097   4.378   3.541   3.044  0.8239  0.1174  1.2620
  162SAPE   C2918098   4.486   3.640   3.190  0.4376 -1.1104 -0.7675
  162SAPE   H9R18099   4.411   3.611   3.266  0.1372  1.3397 -0.0346
  162SAPE  C21018100   4.590   3.735   3.248 -0.0407 -0.3044  0.1160
  162SAPE  H10R18101   4.624   3.807   3.170 -0.3657 -1.4624 -1.1262
  162SAPE  H10S18102   4.673   3.674   3.288 -0.0617  0.7312  1.8826
  162SAPE  C21118103   4.548   3.817   3.364 -0.5682 -0.3277  0.0400
  162SAPE  H11R18104   4.442   3.844   3.359  0.2277  3.0311 -1.4402
  162SAPE  C21218105   4.621   3.861   3.466  0.5751 -0.5631 -0.2420
  162SAPE  H12R18106   4.571   3.918   3.546  0.3512  0.1879 -0.9019
  162SAPE  C21318107   4.765   3.830   3.495  0.4915  0.5251 -0.3635
  162SAPE  H13R18108   4.823   3.771   3.420 -0.6071 -0.6829 -0.3012
  162SAPE  H13S18109   4.769   3.758   3.580  0.1128  1.1884  0.2223
  162SAPE  C21418110   4.848   3.951   3.516  0.2340  0.6637  0.0823
  162SAPE  H14R18111   4.848   4.022   3.432  1.2706  0.7892  0.1816
  162SAPE  C21518112   4.930   3.988   3.616  0.0466 -0.4597  0.3071
  162SAPE  H15R18113   4.980   4.087   3.619  0.9616 -0.9002 -0.0101
  162SAPE  C21618114   4.945   3.911   3.747 -0.0628 -0.0368  0.3615
  162SAPE  H16R18115   5.034   3.953   3.799 -0.2276  1.3516 -0.4230
  162SAPE  H16S18116   4.963   3.802   3.742  0.6187 -0.1895  3.6030
  162SAPE  C21718117   4.830   3.920   3.843 -0.2419 -0.0607 -0.1113
  162SAPE  H17R18118   4.749   3.864   3.793  1.6204 -2.2719 -0.8704
  162SAPE  H17S18119   4.811   4.023   3.882 -2.6586 -0.7453  0.6461
  162SAPE  C21818120   4.859   3.835   3.973  0.1747 -0.2281  0.1637
  162SAPE  H18R18121   4.963   3.860   4.003  0.2858  0.5347 -0.8185
  162SAPE  H18S18122   4.865   3.725   3.953 -1.8815 -0.2660 -0.4306
  162SAPE  C21918123   4.757   3.875   4.079  0.3702  0.5646 -0.8300
  162SAPE  H19R18124   4.654   3.839   4.063  0.4550 -1.2921  2.1734
  162SAPE  H19S18125   4.749   3.985   4.093  0.7060  0.3887  0.8962
  162SAPE  C22018126   4.800   3.823   4.219  0.7856  0.1739 -0.2350
  162SAPE  H20R18127   4.790   3.713   4.232  1.1133  0.4533  2.9976
  162SAPE  H20S18128   4.716   3.858   4.283  0.1916  2.2240 -1.9963
  162SAPE  H20T18129   4.899   3.857   4.253  1.5110 -2.0723  0.1023
  162SAPE   C3318130   4.275   4.263   2.785  0.5818 -0.0229 -0.3335
  162SAPE   H3X18131   4.260   4.154   2.778  2.8471 -0.6446  2.5787
  162SAPE   H3Y18132   4.184   4.322   2.760  0.9210  0.9212  0.5623
  162SAPE   C3418133   4.302   4.316   2.926 -0.1943  0.0570  0.1892
  162SAPE   H4X18134   4.210   4.326   2.987 -0.9390  2.2201 -1.1813
  162SAPE   H4Y18135   4.343   4.419   2.924 -1.4785  0.6117 -2.7377
  162SAPE   C3518136   4.389   4.216   3.000  0.1823  0.0246 -0.3809
  162SAPE   H5X18137   4.478   4.191   2.938  1.0998  0.7456  0.6062
  162SAPE   H5Y18138   4.321   4.128   3.000  0.5058 -0.2275 -0.4354
  162SAPE   C3618139   4.423   4.254   3.148  0.4910 -0.4982  0.1678
  162SAPE   H6X18140   4.419   4.365   3.156 -0.7365 -0.3189 -2.1641
  162SAPE   H6Y18141   4.523   4.208   3.166  1.2589  0.5054 -1.3804
  162SAPE   C3718142   4.341   4.191   3.262 -0.3653  0.1318  0.3106
  162SAPE   H7X18143   4.340   4.081   3.250  0.7510  0.3849 -3.4525
  162SAPE   H7Y18144   4.241   4.240   3.263  1.0583  3.6086 -2.6660
  162SAPE   C3818145   4.406   4.221   3.395  0.1727 -0.0439  0.0767
  162SAPE   H8X18146   4.394   4.329   3.415  1.1744 -0.0008  0.4967
  162SAPE   H8Y18147   4.516   4.201   3.397  0.4400  1.0788 -1.5364
  162SAPE   C3918148   4.342   4.148   3.509 -0.1804 -0.2579 -0.7467
  162SAPE   H9X18149   4.334   4.038   3.497 -1.6031 -0.1129 -1.3744
  162SAPE   H9Y18150   4.237   4.183   3.516  0.1460  0.5797  0.1731
  162SAPE  C31018151   4.420   4.169   3.647  0.8427 -0.5125  0.9013
  162SAPE  H10X18152   4.440   4.277   3.659  0.1474 -0.3403  0.5978
  162SAPE  H10Y18153   4.521   4.125   3.631  1.0349  0.2684 -0.1469
  162SAPE  C31118154   4.355   4.091   3.754  0.2956 -0.4112 -1.0383
  162SAPE  H11X18155   4.364   3.982   3.734 -2.3088 -0.6405 -1.2422
  162SAPE  H11Y18156   4.246   4.114   3.755  0.1550 -1.0482 -1.5020
  162SAPE  C31218157   4.411   4.110   3.895 -0.2943 -0.2131 -0.1429
  162SAPE  H12X18158   4.419   4.216   3.924  1.6246 -0.2238 -0.4678
  162SAPE  H12Y18159   4.515   4.070   3.904 -0.5955 -0.7622  1.1460
  162SAPE  C31318160   4.337   4.032   4.001 -0.1757 -0.6305  0.1165
  162SAPE  H13X18161   4.355   3.924   3.987  1.4103 -0.0536 -3.2882
  162SAPE  H13Y18162   4.227   4.042   3.990 -0.0627 -1.1231 -1.7177
  162SAPE  C31418163   4.393   4.034   4.142 -0.8988  0.8777  0.2437
  162SAPE  H14X18164   4.504   4.020   4.140 -1.0167 -1.6826  3.1707
  162SAPE  H14Y18165   4.356   3.947   4.200  0.6133 -0.1603 -0.2725
  162SAPE  C31518166   4.366   4.159   4.225  0.3411 -0.0505  0.3979
  162SAPE  H15X18167   4.256   4.172   4.222  0.5633  2.1273  0.2835
  162SAPE  H15Y18168   4.411   4.248   4.175 -3.4874  0.6732 -2.2340
  162SAPE  C31618169   4.408   4.168   4.372 -0.5967 -0.2821 -0.5517
  162SAPE  H16X18170   4.387   4.273   4.402 -3.1328 -1.1314  0.9755
  162SAPE  H16Y18171   4.518   4.158   4.382 -0.1170  2.2571 -2.3589
  162SAPE  C31718172   4.347   4.069   4.471  0.5740 -0.8583  0.5170
  162SAPE  H17X18173   4.362   3.965   4.437  4.0216 -0.3580  0.1376
  162SAPE  H17Y18174   4.242   4.103   4.462  0.9521  0.1432 -0.4249
  162SAPE  C31818175   4.399   4.091   4.612  0.0914 -0.2662  0.5420
  162SAPE  H18X18176   4.387   3.993   4.662 -1.4300  0.9848  2.8017
  162SAPE  H18Y18177   4.348   4.174   4.665 -0.6207 -0.9001  0.8795
  162SAPE  H18Z18178   4.506   4.118   4.620  0.1175 -0.2489  0.1521
  163SAPE     N18179   3.747   0.444   2.100  0.5247  0.1201  0.5679
  163SAPE   HN118180   3.845   0.409   2.091  0.0567 -1.4075  1.0670
  163SAPE   HN218181   3.695   0.385   2.032  2.2572 -0.1202 -0.6111
  163SAPE   HN318182   3.744   0.539   2.057 -0.7497 -0.1313  0.0578
  163SAPE   C1218183   3.707   0.426   2.240  0.2482 -0.0615  0.6603
  163SAPE  H12A18184   3.763   0.508   2.291 -0.3326  1.6492 -1.3286
  163SAPE  H12B18185   3.737   0.324   2.272  0.9085 -0.3177 -0.7155
  163SAPE   C1118186   3.553   0.446   2.266  0.0873 -0.1761  0.2585
  163SAPE  H11A18187   3.529   0.434   2.373  0.4554  0.3093  0.3999
  163SAPE  H11B18188   3.492   0.367   2.216 -0.0651 -0.9220  1.5997
  163SAPE     P18189   3.532   0.704   2.312  0.5442  0.4575 -0.0384
  163SAPE   O1318190   3.640   0.680   2.407  0.1014 -0.3729  0.3277
  163SAPE   O1418191   3.541   0.823   2.230  0.3849  1.2366  0.7337
  163SAPE   O1218192   3.521   0.575   2.213 -0.2504 -0.1529 -0.1446
  163SAPE   O1118193   3.387   0.704   2.384 -0.1782  0.1473  0.5063
  163SAPE    C118194   3.338   0.829   2.423  0.4645  0.1739  0.7360
  163SAPE    HA18195   3.359   0.907   2.347  0.0858  0.8610  1.3268
  163SAPE    HB18196   3.227   0.837   2.424  0.5238  1.7321 -0.5636
  163SAPE    C218197   3.396   0.877   2.562 -0.0413  0.2782 -0.0293
  163SAPE    HS18198   3.503   0.894   2.535 -0.1229  0.4656 -0.2393
  163SAPE   O2118199   3.392   0.764   2.650 -0.4063  0.5410  0.1590
  163SAPE   C2118200   3.480   0.766   2.744 -0.3717 -0.4444 -0.2151
  163SAPE   O2218201   3.577   0.843   2.752 -0.2607 -0.5037  0.3403
  163SAPE   C2218202   3.449   0.656   2.841 -0.0953 -0.2039 -1.0032
  163SAPE   H2R18203   3.343   0.631   2.820  0.1104 -1.0002 -1.1476
  163SAPE   H2S18204   3.508   0.564   2.819 -1.1559 -1.2091  0.2315
  163SAPE    C318205   3.348   1.012   2.612 -0.6351 -0.4547 -0.3057
  163SAPE    HX18206   3.373   1.083   2.530  0.1234  0.9458  1.1000
  163SAPE    HY18207   3.410   1.040   2.700 -1.5311 -0.1423  0.2415
  163SAPE   O3118208   3.204   1.015   2.628  0.8458  0.2986 -0.7538
  163SAPE   C3118209   3.160   0.967   2.747 -0.2861  0.3605 -0.7339
  163SAPE   O3218210   3.231   0.932   2.837  0.7422  0.0810  0.4129
  163SAPE   C3218211   3.001   0.941   2.748  0.0184  1.0781 -0.1833
  163SAPE   H2X18212   2.986   0.881   2.656  0.4111 -0.7742  0.8996
  163SAPE   H2Y18213   2.958   1.042   2.735  1.3974  1.6323 -0.6526
  163SAPE   C2318214   3.451   0.701   2.992  0.4720 -0.0089  0.1849
  163SAPE   H3R18215   3.403   0.801   2.992 -2.0664 -1.1468 -0.7023
  163SAPE   H3S18216   3.561   0.709   3.011  0.1657  0.5274  1.8898
  163SAPE   C2418217   3.386   0.596   3.076 -0.6719 -0.5599 -0.1986
  163SAPE   H4R18218   3.390   0.503   3.014 -0.0882  0.5399 -1.8761
  163SAPE   H4S18219   3.281   0.628   3.092 -0.6575 -1.6544  2.7988
  163SAPE   C2518220   3.460   0.578   3.206 -0.5482 -0.4391 -0.4241
  163SAPE   H5R18221   3.552   0.518   3.206  1.0419  1.8496  0.6427
  163SAPE   C2618222   3.439   0.628   3.330 -0.2549 -0.2971  0.2600
  163SAPE   H6R18223   3.510   0.608   3.412  0.2896  1.3422  0.2300
  163SAPE   C2718224   3.339   0.731   3.357 -0.2620 -0.3386 -0.3174
  163SAPE   H7R18225   3.269   0.686   3.430  0.3382 -1.3269 -0.3290
  163SAPE   H7S18226   3.277   0.775   3.276 -0.6807  3.3156  1.7863
  163SAPE   C2818227   3.408   0.850   3.417  0.1573 -0.9939 -0.5805
  163SAPE   H8R18228   3.501   0.877   3.365  0.7131 -2.5508 -0.4651
  163SAPE   C2918229   3.374   0.926   3.528 -0.4434  0.1809  0.2263
  163SAPE   H9R18230   3.438   1.007   3.565  0.6924 -0.9265  0.7612
  163SAPE  C21018231   3.244   0.924   3.603  0.1399  0.1922  0.0240
  163SAPE  H10R18232   3.252   0.859   3.693  1.6036  0.3950  0.0727
  163SAPE  H10S18233   3.163   0.877   3.543 -0.1592  1.5424 -0.6559
  163SAPE  C21118234   3.193   1.069   3.629  0.3968 -0.4293 -0.2376
  163SAPE  H11R18235   3.159   1.108   3.532  0.1248 -2.6934 -1.1181
  163SAPE  C21218236   3.180   1.127   3.749 -0.4152 -0.6972  1.1764
  163SAPE  H12R18237   3.134   1.225   3.765 -0.3941 -0.0939 -1.9157
  163SAPE  C21318238   3.220   1.055   3.878 -0.1161  0.9097  0.1647
  163SAPE  H13R18239   3.300   0.983   3.849 -1.1298  1.0525 -3.3780
  163SAPE  H13S18240   3.133   0.988   3.894 -0.5223  0.7306 -2.4235
  163SAPE  C21418241   3.248   1.143   3.998  0.0869  0.8455 -0.0923
  163SAPE  H14R18242   3.356   1.158   4.012  0.5295 -2.5456  1.0244
  163SAPE  C21518243   3.157   1.199   4.074  1.0159 -0.3607  0.1650
  163SAPE  H15R18244   3.183   1.260   4.161  1.4232  1.1823 -0.9803
  163SAPE  C21618245   3.009   1.170   4.053  0.1197  0.3672  0.1208
  163SAPE  H16R18246   2.976   1.102   4.134 -0.5212 -0.1986 -0.5993
  163SAPE  H16S18247   2.996   1.097   3.970  2.3969  0.1291 -0.0826
  163SAPE  C21718248   2.912   1.291   4.029  0.2147  0.3532 -0.1791
  163SAPE  H17R18249   2.812   1.250   4.005  0.3127 -0.1668  0.2841
  163SAPE  H17S18250   2.933   1.352   3.938 -0.9515  0.0475 -0.6763
  163SAPE  C21818251   2.890   1.392   4.148  0.7520  0.1168 -0.6054
  163SAPE  H18R18252   2.991   1.423   4.182  0.5471  2.6384 -2.0291
  163SAPE  H18S18253   2.840   1.339   4.231  0.9712  0.6804 -0.1064
  163SAPE  C21918254   2.811   1.517   4.105 -0.0020  0.4076 -0.4115
  163SAPE  H19R18255   2.707   1.503   4.069 -0.6152  2.5741  0.3887
  163SAPE  H19S18256   2.864   1.559   4.016  0.0927  1.2906  0.0501
  163SAPE  C22018257   2.797   1.614   4.221  0.1330 -0.9122  0.0410
  163SAPE  H20R18258   2.890   1.671   4.245 -0.4930  0.6746 -1.1430
  163SAPE  H20S18259   2.775   1.556   4.313 -1.9866  0.2003  0.3006
  163SAPE  H20T18260   2.715   1.687   4.203 -0.6410 -2.0350 -1.1237
  163SAPE   C3318261   2.949   0.856   2.857  0.1352  0.0846  0.0194
  163SAPE   H3X18262   2.843   0.884   2.876  0.1583 -0.6174  1.2996
  163SAPE   H3Y18263   3.013   0.872   2.946  1.5758 -0.8281 -0.8202
  163SAPE   C3418264   2.972   0.709   2.829 -0.3810  0.2463  0.1427
  163SAPE   H4X18265   3.080   0.693   2.811 -0.9662 -1.2022 -2.6807
  163SAPE   H4Y18266   2.916   0.681   2.738 -2.0885  0.1101  1.1805
  163SAPE   C3518267   2.921   0.622   2.943  0.3522  0.0778  0.3498
  163SAPE   H5X18268   2.910   0.525   2.890  1.7371  0.9650 -1.6963
  163SAPE   H5Y18269   2.818   0.657   2.967  0.8389  1.5299  0.4142
  163SAPE   C3618270   3.009   0.614   3.072 -0.2845 -0.1593 -0.9079
  163SAPE   H6X18271   3.072   0.705   3.087 -0.6555 -0.1548  0.7334
  163SAPE   H6Y18272   3.075   0.525   3.071 -1.0229 -0.7158 -0.3061
  163SAPE   C3718273   2.925   0.598   3.199  0.8030  0.4572 -0.3539
  163SAPE   H7X18274   2.875   0.499   3.194  1.7981 -0.0174 -1.2351
  163SAPE   H7Y18275   2.856   0.681   3.224  1.3767  0.0856  2.9427
  163SAPE   C3818276   3.013   0.602   3.318 -0.0807 -0.1827 -0.0265
  163SAPE   H8X18277   3.054   0.705   3.326  0.7636 -0.4565 -0.6241
  163SAPE   H8Y18278   3.095   0.529   3.306 -2.1310 -2.3234 -1.9705
  163SAPE   C3918279   2.951   0.578   3.459 -0.4429  0.1710 -0.5941
  163SAPE   H9X18280   2.865   0.507   3.448  1.2634 -1.8551 -1.5467
  163SAPE   H9Y18281   2.906   0.673   3.494  0.9741  0.1092  1.5318
  163SAPE  C31018282   3.034   0.522   3.574 -0.1441 -0.1148  0.5277
  163SAPE  H10X18283   3.127   0.582   3.585  1.1775 -1.6178 -1.6581
  163SAPE  H10Y18284   3.061   0.418   3.547  2.5002  0.9410 -1.4433
  163SAPE  C31118285   2.964   0.529   3.710  0.3249 -0.3964  0.3870
  163SAPE  H11X18286   2.929   0.633   3.726 -0.6810  0.1077 -3.8413
  163SAPE  H11Y18287   3.032   0.485   3.786  0.1178 -2.3804 -0.4954
  163SAPE  C31218288   2.836   0.450   3.716 -0.2158 -0.0021 -0.1191
  163SAPE  H12X18289   2.753   0.495   3.657 -0.6113 -1.0122 -0.3476
  163SAPE  H12Y18290   2.811   0.459   3.824 -0.5589 -0.7391 -0.1324
  163SAPE  C31318291   2.833   0.300   3.690 -0.2557  0.7262  0.2696
  163SAPE  H13X18292   2.907   0.239   3.747  0.1386 -0.0857 -1.0716
  163SAPE  H13Y18293   2.854   0.274   3.584 -0.5636  3.2876 -0.4904
  163SAPE  C31418294   2.697   0.229   3.720 -0.3722  0.1607 -0.4851
  163SAPE  H14X18295   2.606   0.274   3.673 -2.1096 -2.8020 -0.1708
  163SAPE  H14Y18296   2.673   0.239   3.828 -0.3464 -1.0799 -0.3574
  163SAPE  C31518297   2.706   0.083   3.679  0.0650  0.1291  0.2196
  163SAPE  H15X18298   2.769   0.017   3.743  1.4247  0.6638 -0.5153
  163SAPE  H15Y18299   2.765   0.075   3.585 -0.5746 -0.5885 -0.1275
  163SAPE  C31618300   2.563   0.028   3.660  0.4856  0.0121 -0.1642
  163SAPE  H16X18301   2.527   0.073   3.565  3.0469  2.6060 -0.0494
  163SAPE  H16Y18302   2.490   0.060   3.738  0.0111  0.7231 -0.8875
  163SAPE  C31718303   2.557  -0.130   3.657  0.4833  0.1374  0.1470
  163SAPE  H17X18304   2.592  -0.172   3.753  0.1204 -2.2398 -0.6759
  163SAPE  H17Y18305   2.629  -0.174   3.585  1.2522 -2.6458  2.4565
  163SAPE  C31818306   2.418  -0.179   3.619  0.1750  0.3506 -0.3043
  163SAPE  H18X18307   2.346  -0.148   3.698  1.4771  1.7263  0.3879
  163SAPE  H18Y18308   2.403  -0.289   3.610 -2.1119  0.5273  0.5052
  163SAPE  H18Z18309   2.379  -0.120   3.534  2.7556  2.0352 -0.4330
  164SAPE     N18310   1.980   2.011   1.869 -0.1362 -0.5477 -0.4510
  164SAPE   HN118311   1.953   2.027   1.770  0.4065  0.4760 -0.4451
  164SAPE   HN218312   2.002   2.103   1.912  0.7657 -0.8813 -0.1653
  164SAPE   HN318313   2.071   1.961   1.880  1.4495  2.1877 -0.1381
  164SAPE   C1218314   1.870   1.940   1.937 -0.3198 -0.6088 -0.6523
  164SAPE  H12A18315   1.884   1.833   1.911 -0.4406 -0.6766 -0.4395
  164SAPE  H12B18316   1.773   1.983   1.903 -2.3245 -1.5240  3.3155
  164SAPE   C1118317   1.889   1.953   2.091 -0.4335  0.6741  0.2046
  164SAPE  H11A18318   1.981   1.894   2.113 -1.2894 -0.6083  0.4837
  164SAPE  H11B18319   1.807   1.891   2.133  0.8486 -0.3447  1.2944
  164SAPE     P18320   1.770   2.148   2.231 -0.4941  0.1956  0.3636
  164SAPE   O1318321   1.785   2.293   2.209  0.2730  0.6184  0.0916
  164SAPE   O1418322   1.636   2.086   2.204  0.2535 -0.6835 -0.3028
  164SAPE   O1218323   1.880   2.090   2.132  0.0381  0.4463  0.5755
  164SAPE   O1118324   1.827   2.107   2.368 -0.1723 -0.7718  0.3881
  164SAPE    C118325   1.966   2.093   2.385 -0.3176 -0.0690 -0.6103
  164SAPE    HA18326   2.008   2.010   2.324 -1.3844  0.1671 -1.7323
  164SAPE    HB18327   2.021   2.190   2.382  1.6511 -1.0630  1.2943
  164SAPE    C218328   1.996   2.060   2.534  0.2853  0.8718  0.1521
  164SAPE    HS18329   2.101   2.081   2.563  0.6711 -0.3951 -0.2568
  164SAPE   O2118330   1.968   1.919   2.555  0.3737  0.0057  0.2145
  164SAPE   C2118331   2.068   1.835   2.511  0.1220 -0.1672  0.5989
  164SAPE   O2218332   2.168   1.877   2.454  0.7277  0.5850  0.4418
  164SAPE   C2218333   2.052   1.688   2.566  0.1103 -1.0008  0.2001
  164SAPE   H2R18334   1.945   1.671   2.592  0.5705 -0.6807  2.4938
  164SAPE   H2S18335   2.085   1.613   2.491  1.5750  1.6007 -1.9293
  164SAPE    C318336   1.913   2.148   2.633 -0.1265  0.3936 -0.2563
  164SAPE    HX18337   1.805   2.144   2.605 -0.2257  1.1985 -0.0058
  164SAPE    HY18338   1.939   2.254   2.612 -2.3594  0.9606 -0.3875
  164SAPE   O3118339   1.933   2.103   2.770 -1.0513  0.0666  0.0678
  164SAPE   C3118340   1.846   2.016   2.812 -0.3218 -0.0840 -0.7657
  164SAPE   O3218341   1.734   1.999   2.768 -0.1730  0.2622 -0.1586
  164SAPE   C3218342   1.917   1.940   2.921 -0.0396  0.5173 -0.5692
  164SAPE   H2X18343   1.986   2.011   2.971 -1.3272  1.8957 -0.6905
  164SAPE   H2Y18344   1.977   1.858   2.875  1.4272  0.0767  1.9369
  164SAPE   C2318345   2.126   1.650   2.700  0.5877 -0.6501 -0.2811
  164SAPE   H3R18346   2.109   1.736   2.768  5.1940  0.0634  0.3339
  164SAPE   H3S18347   2.236   1.644   2.682  1.2040  2.6560  1.6326
  164SAPE   C2418348   2.071   1.523   2.762 -0.3257  0.4403 -0.2819
  164SAPE   H4R18349   2.081   1.441   2.688  0.0159  0.0788  0.1569
  164SAPE   H4S18350   1.962   1.539   2.774 -0.5866 -1.6489  0.7270
  164SAPE   C2518351   2.144   1.483   2.894 -0.3337 -0.2657 -0.6486
  164SAPE   H5R18352   2.246   1.442   2.883 -1.4321 -3.6917  0.7015
  164SAPE   C2618353   2.090   1.486   3.023 -0.1488  0.1670 -0.8441
  164SAPE   H6R18354   2.159   1.456   3.104 -1.2016 -1.5103 -0.5301
  164SAPE   C2718355   1.958   1.544   3.068 -0.6110 -0.1634  0.1934
  164SAPE   H7R18356   1.890   1.588   2.991 -0.6535 -0.6678 -0.0605
  164SAPE   H7S18357   1.984   1.632   3.132 -1.8282  0.4832 -0.1653
  164SAPE   C2818358   1.887   1.433   3.137 -0.8585 -0.0786  0.0367
  164SAPE   H8R18359   1.947   1.347   3.170 -0.5096  0.6006  1.2514
  164SAPE   C2918360   1.763   1.451   3.195 -0.4605 -0.2077  0.0569
  164SAPE   H9R18361   1.721   1.364   3.247 -1.5391 -0.6847 -1.5086
  164SAPE  C21018362   1.666   1.563   3.171  0.5243  0.8396 -0.1830
  164SAPE  H10R18363   1.697   1.622   3.082  0.3368  2.8417  1.0350
  164SAPE  H10S18364   1.687   1.630   3.257  3.4505  0.7557 -0.7230
  164SAPE  C21118365   1.514   1.548   3.170  0.0473 -0.2880 -0.4476
  164SAPE  H11R18366   1.461   1.577   3.079  0.2761  0.7626 -0.2651
  164SAPE  C21218367   1.431   1.495   3.270  0.4016  0.3218  0.4694
  164SAPE  H12R18368   1.322   1.488   3.261  0.4966  0.5733 -1.1346
  164SAPE  C21318369   1.479   1.448   3.412  0.3604  0.6902  0.3982
  164SAPE  H13R18370   1.589   1.447   3.428  0.3602  1.3092  0.4618
  164SAPE  H13S18371   1.454   1.341   3.426 -0.3816  0.8525  0.3644
  164SAPE  C21418372   1.432   1.534   3.524 -0.4230 -0.1118  1.0580
  164SAPE  H14R18373   1.476   1.635   3.524  3.2017 -1.5727  1.4086
  164SAPE  C21518374   1.372   1.489   3.630  0.6519  0.1535  0.4957
  164SAPE  H15R18375   1.337   1.570   3.695 -0.2356  0.3019 -0.1387
  164SAPE  C21618376   1.307   1.350   3.652  0.0650 -1.0812  0.2355
  164SAPE  H16R18377   1.346   1.270   3.585  1.4456 -1.1618  1.0943
  164SAPE  H16S18378   1.202   1.355   3.616 -0.4201  0.9248  1.7656
  164SAPE  C21718379   1.303   1.294   3.791 -0.1278  0.7986  0.2440
  164SAPE  H17R18380   1.405   1.265   3.825 -0.3502  0.5223  0.6813
  164SAPE  H17S18381   1.245   1.202   3.770 -2.3744  2.9542 -4.5831
  164SAPE  C21818382   1.223   1.375   3.890  0.3054 -0.1019 -0.6209
  164SAPE  H18R18383   1.168   1.307   3.960  2.2352 -1.6960 -0.5845
  164SAPE  H18S18384   1.147   1.441   3.843 -1.5847  0.7904  3.2110
  164SAPE  C21918385   1.320   1.461   3.973 -0.6641 -0.1789  0.1976
  164SAPE  H19R18386   1.384   1.519   3.903 -0.8467 -0.1236  0.0735
  164SAPE  H19S18387   1.382   1.386   4.027 -1.5526 -1.2422 -0.2055
  164SAPE  C22018388   1.269   1.570   4.065 -0.1942  0.0563 -0.1891
  164SAPE  H20R18389   1.251   1.663   4.008  2.3680  0.7693  0.0715
  164SAPE  H20S18390   1.346   1.588   4.143  0.5696  1.5058 -1.2291
  164SAPE  H20T18391   1.173   1.543   4.115  1.0145  0.3913  2.4927
  164SAPE   C3318392   1.814   1.874   3.022 -0.3900 -0.2722 -0.7342
  164SAPE   H3X18393   1.882   1.823   3.094  0.2320  1.1135 -0.3124
  164SAPE   H3Y18394   1.748   1.796   2.978 -0.2344  0.3480 -2.1196
  164SAPE   C3418395   1.736   1.968   3.119 -0.0882  0.0734 -0.5636
  164SAPE   H4X18396   1.628   1.965   3.091  0.1503 -0.3079 -1.5169
  164SAPE   H4Y18397   1.772   2.072   3.115 -1.3366  0.5701  0.4558
  164SAPE   C3518398   1.757   1.923   3.273 -0.5071  0.2470 -0.1414
  164SAPE   H5X18399   1.865   1.937   3.293 -0.4650 -0.6144  0.2676
  164SAPE   H5Y18400   1.730   1.818   3.296  3.1527 -0.4490  1.4939
  164SAPE   C3618401   1.673   2.005   3.370  0.2653  0.1803  0.6358
  164SAPE   H6X18402   1.565   1.982   3.368  0.3710 -0.3871 -2.1024
  164SAPE   H6Y18403   1.674   2.113   3.345 -2.2179  0.2558  0.6419
  164SAPE   C3718404   1.724   1.999   3.517 -0.2372 -0.5394  0.5634
  164SAPE   H7X18405   1.695   2.093   3.569  1.0655 -1.3056  2.8259
  164SAPE   H7Y18406   1.833   1.980   3.531 -0.5766 -2.7602  0.5083
  164SAPE   C3818407   1.663   1.881   3.586 -0.0773  0.1448 -0.4530
  164SAPE   H8X18408   1.705   1.793   3.532 -1.2975 -0.3653 -0.5968
  164SAPE   H8Y18409   1.555   1.869   3.565  0.0737 -1.4270 -0.4469
  164SAPE   C3918410   1.704   1.872   3.736  0.2621 -0.7070  0.2823
  164SAPE   H9X18411   1.686   1.970   3.787  0.2861 -0.6408  0.1635
  164SAPE   H9Y18412   1.812   1.850   3.739  0.5401  0.1077 -1.9065
  164SAPE  C31018413   1.625   1.759   3.807 -0.1124  0.1546  0.2675
  164SAPE  H10X18414   1.673   1.664   3.774 -0.7423 -0.1075  0.0860
  164SAPE  H10Y18415   1.525   1.753   3.760  0.6620 -1.5442 -1.3384
  164SAPE  C31118416   1.624   1.771   3.959  0.0673 -0.7239  0.5389
  164SAPE  H11X18417   1.716   1.787   4.018 -1.4173 -0.1468  2.8378
  164SAPE  H11Y18418   1.579   1.675   3.990  0.2173 -0.1187  2.7731
  164SAPE  C31218419   1.523   1.880   4.008 -0.5572 -0.0863  0.7031
  164SAPE  H12X18420   1.422   1.878   3.962 -0.1446 -1.7807 -0.2100
  164SAPE  H12Y18421   1.556   1.983   3.983  0.8854 -0.5787  0.5051
  164SAPE  C31318422   1.520   1.875   4.165 -0.3029  0.4686 -0.1685
  164SAPE  H13X18423   1.621   1.872   4.210 -0.0187  2.1639 -0.6378
  164SAPE  H13Y18424   1.468   1.778   4.182 -0.7814  0.9752  1.4268
  164SAPE  C31418425   1.433   1.989   4.225 -0.1504 -0.1765  0.4179
  164SAPE  H14X18426   1.347   2.001   4.156  0.8928  0.0583 -0.8814
  164SAPE  H14Y18427   1.492   2.082   4.240  0.2897 -0.4809  0.6029
  164SAPE  C31518428   1.371   1.943   4.357  0.5794 -0.4911  0.0018
  164SAPE  H15X18429   1.458   1.937   4.425  0.7489 -1.2172 -0.2697
  164SAPE  H15Y18430   1.324   1.843   4.344 -0.4075 -0.2993  1.8162
  164SAPE  C31618431   1.247   2.030   4.399  0.1216  0.3125  0.5075
  164SAPE  H16X18432   1.162   2.029   4.327 -2.4754 -1.4711  3.3567
  164SAPE  H16Y18433   1.272   2.138   4.414 -0.7183  0.3680  1.6574
  164SAPE  C31718434   1.187   1.987   4.532 -0.0471 -0.1950 -0.2026
  164SAPE  H17X18435   1.099   2.055   4.536 -0.0462 -0.0360 -1.9568
  164SAPE  H17Y18436   1.268   1.997   4.607  0.1565 -1.2081 -0.2693
  164SAPE  C31818437   1.141   1.843   4.537  0.1403  0.2652  0.4195
  164SAPE  H18X18438   1.060   1.824   4.464  0.9129  0.0715 -0.3972
  164SAPE  H18Y18439   1.114   1.808   4.639  0.5228 -1.6482 -0.0982
  164SAPE  H18Z18440   1.217   1.767   4.510 -1.9494 -1.9722  0.5266
  165SAPE     N18441   0.097   3.344   1.988  0.0513  0.4646  0.5761
  165SAPE   HN118442   0.102   3.413   2.066 -0.2919  1.0032  0.1373
  165SAPE   HN218443   0.171   3.374   1.920 -1.3067 -1.3812 -1.8869
  165SAPE   HN318444   0.003   3.361   1.946  1.1166  3.6994 -0.8329
  165SAPE   C1218445   0.091   3.195   2.028  0.8469 -0.7521 -0.1617
  165SAPE  H12A18446   0.192   3.155   2.004  1.1878 -0.4176  0.7115
  165SAPE  H12B18447   0.013   3.149   1.962  0.3515  1.1675 -0.9855
  165SAPE   C1118448   0.053   3.186   2.178  0.2497  0.3756 -0.0560
  165SAPE  H11A18449   0.091   3.086   2.208 -1.7162  0.0067  1.3642
  165SAPE  H11B18450  -0.058   3.193   2.181  0.3458  2.0532  1.4896
  165SAPE     P18451   0.224   3.266   2.355 -0.0697  0.2417  0.0867
  165SAPE   O1318452   0.335   3.187   2.295 -0.2627 -0.1805  0.3265
  165SAPE   O1418453   0.276   3.397   2.392 -0.2399 -0.3902 -0.0109
  165SAPE   O1218454   0.101   3.286   2.261 -0.2368  0.5944  0.0057
  165SAPE   O1118455   0.164   3.209   2.484 -0.2388  0.1285 -0.2612
  165SAPE    C118456   0.097   3.085   2.508 -0.6896 -0.3620 -0.0625
  165SAPE    HA18457  -0.004   3.105   2.549 -1.5666 -0.2193 -2.1727
  165SAPE    HB18458   0.087   3.029   2.412  0.4943  1.6018 -1.4008
  165SAPE    C218459   0.178   3.006   2.615  0.5168 -0.1676  0.1023
  165SAPE    HS18460   0.126   2.913   2.647 -0.6699  1.1379  2.2092
  165SAPE   O2118461   0.195   3.093   2.723 -0.3659 -0.3899 -0.3122
  165SAPE   C2118462   0.094   3.102   2.807 -0.1004 -0.5062  0.1223
  165SAPE   O2218463  -0.010   3.039   2.792 -0.2456  0.5826 -0.4092
  165SAPE   C2218464   0.113   3.217   2.904  0.1526  0.0096 -0.3235
  165SAPE   H2R18465   0.197   3.277   2.863  1.5917 -1.9208 -0.3517
  165SAPE   H2S18466   0.013   3.266   2.909 -1.4573 -3.1337  1.0206
  165SAPE    C318467   0.311   2.964   2.558 -0.0721  0.0609  0.4946
  165SAPE    HX18468   0.377   3.053   2.569 -0.9955  0.7771  0.3576
  165SAPE    HY18469   0.306   2.928   2.453  0.8581 -1.6374  0.9974
  165SAPE   O3118470   0.370   2.863   2.635 -0.2400 -0.0498 -0.1830
  165SAPE   C3118471   0.494   2.842   2.600 -0.9896  0.3955  0.3329
  165SAPE   O3218472   0.565   2.915   2.538 -0.4129 -0.3676 -0.0100
  165SAPE   C3218473   0.535   2.696   2.637  0.5099  0.2669  0.8375
  165SAPE   H2X18474   0.580   2.650   2.546 -1.5992 -2.3253  1.0084
  165SAPE   H2Y18475   0.453   2.630   2.672 -1.5175  2.0435 -0.2963
  165SAPE   C2318476   0.170   3.176   3.044 -0.0745  0.3765  0.1737
  165SAPE   H3R18477   0.105   3.113   3.109 -0.0254  0.1279 -0.0184
  165SAPE   H3S18478   0.186   3.270   3.101 -2.2100  0.5040  0.6410
  165SAPE   C2418479   0.307   3.109   3.042 -0.0143  0.2925 -0.0296
  165SAPE   H4R18480   0.345   3.094   3.145  0.2231 -2.5933 -0.4404
  165SAPE   H4S18481   0.380   3.172   2.986  0.7377 -1.0459 -0.5965
  165SAPE   C2518482   0.300   2.967   2.990 -0.4204 -0.2165 -0.0715
  165SAPE   H5R18483   0.353   2.959   2.894 -0.7680 -1.9243 -0.1588
  165SAPE   C2618484   0.252   2.848   3.038  0.8908 -0.2500  0.1618
  165SAPE   H6R18485   0.263   2.751   2.988 -0.6463 -0.9023  1.0228
  165SAPE   C2718486   0.175   2.833   3.168  0.4484  0.2950  0.1596
  165SAPE   H7R18487   0.119   2.737   3.171  3.2901 -1.4368  1.0745
  165SAPE   H7S18488   0.104   2.915   3.193 -0.6594 -0.6924  0.3583
  165SAPE   C2818489   0.275   2.808   3.282 -0.0813 -0.0363  0.1168
  165SAPE   H8R18490   0.357   2.737   3.261  0.7191  0.7286  0.5682
  165SAPE   C2918491   0.269   2.851   3.416  0.9380  0.6030  0.1710
  165SAPE   H9R18492   0.344   2.810   3.485 -1.1664  0.3277  2.4746
  165SAPE  C21018493   0.163   2.949   3.467 -0.9067  0.0406  0.2757
  165SAPE  H10R18494   0.085   2.883   3.510 -0.1546  0.3062  2.1171
  165SAPE  H10S18495   0.118   3.016   3.390 -0.2207 -1.0399 -1.1214
  165SAPE  C21118496   0.218   3.028   3.587 -1.3893 -0.2631 -0.0357
  165SAPE  H11R18497   0.293   3.106   3.564  1.2568 -1.3824  3.7538
  165SAPE  C21218498   0.188   3.015   3.721  0.5032  0.7689  0.3754
  165SAPE  H12R18499   0.238   3.074   3.799 -1.6920  2.5688  0.5211
  165SAPE  C21318500   0.099   2.904   3.771  0.6085 -0.1719  0.1390
  165SAPE  H13R18501   0.159   2.812   3.756  2.1385  0.7751  0.2545
  165SAPE  H13S18502   0.010   2.900   3.705  0.4652  0.5723  0.2792
  165SAPE  C21418503   0.051   2.912   3.914  0.4506 -0.0855 -0.3550
  165SAPE  H14R18504  -0.053   2.946   3.920  0.3097 -0.5985  0.1155
  165SAPE  C21518505   0.129   2.902   4.030  0.3197  0.0504  0.3482
  165SAPE  H15R18506   0.081   2.922   4.127  1.6899 -0.1692  1.0842
  165SAPE  C21618507   0.274   2.846   4.034  0.2991 -0.2616  0.0555
  165SAPE  H16R18508   0.353   2.899   3.976 -0.1535 -0.8494 -1.1299
  165SAPE  H16S18509   0.282   2.744   3.992  2.3871 -1.2924  2.6945
  165SAPE  C21718510   0.314   2.835   4.179 -0.6532  0.2383  0.4964
  165SAPE  H17R18511   0.394   2.758   4.182 -0.7951  0.0020 -1.0617
  165SAPE  H17S18512   0.230   2.811   4.248 -0.6672  2.6522  1.4275
  165SAPE  C21818513   0.382   2.967   4.235 -0.0823 -0.2786  0.0720
  165SAPE  H18R18514   0.313   3.049   4.264  0.6361 -0.3354  2.0886
  165SAPE  H18S18515   0.441   3.003   4.148  0.6147  0.9708  1.0300
  165SAPE  C21918516   0.462   2.933   4.357 -0.4190 -0.2052  0.4943
  165SAPE  H19R18517   0.554   2.872   4.342 -0.7662 -1.1023  1.7872
  165SAPE  H19S18518   0.410   2.871   4.433  0.6563  1.1446  2.4352
  165SAPE  C22018519   0.496   3.050   4.438  0.4176 -1.2173  0.2058
  165SAPE  H20R18520   0.412   3.097   4.494  2.4666  0.0605  2.4064
  165SAPE  H20S18521   0.540   3.138   4.386  1.8906 -3.1888 -2.0699
  165SAPE  H20T18522   0.576   3.031   4.513 -0.7086  1.3797  2.2279
  165SAPE   C3318523   0.635   2.687   2.745 -0.4044 -0.4411  0.2668
  165SAPE   H3X18524   0.718   2.758   2.723 -1.1968  1.2979  2.4872
  165SAPE   H3Y18525   0.674   2.584   2.732 -1.1552 -0.8555  1.1764
  165SAPE   C3418526   0.581   2.716   2.885 -0.6484 -0.0491 -0.6842
  165SAPE   H4X18527   0.492   2.654   2.907 -0.0598 -0.0036  2.2266
  165SAPE   H4Y18528   0.541   2.819   2.896 -1.4861 -0.4237 -0.1306
  165SAPE   C3518529   0.679   2.686   2.994 -0.3003 -0.4546 -0.2211
  165SAPE   H5X18530   0.771   2.749   2.996 -0.2534 -0.5439  0.6763
  165SAPE   H5Y18531   0.709   2.580   2.986 -0.1437 -0.3543 -1.1202
  165SAPE   C3618532   0.609   2.709   3.133  0.2163 -0.1432 -0.1548
  165SAPE   H6X18533   0.539   2.624   3.152  1.7111 -1.8142 -1.7279
  165SAPE   H6Y18534   0.545   2.798   3.114 -0.5605 -0.9191 -1.3113
  165SAPE   C3718535   0.702   2.731   3.248  0.7048 -0.1259  0.4491
  165SAPE   H7X18536   0.769   2.817   3.226  3.8655 -2.2380  1.1297
  165SAPE   H7Y18537   0.762   2.639   3.262 -2.4515 -2.1540  1.8828
  165SAPE   C3818538   0.624   2.763   3.375 -0.9390  0.2384 -0.5757
  165SAPE   H8X18539   0.548   2.684   3.395 -0.8881  0.9008  2.7540
  165SAPE   H8Y18540   0.567   2.858   3.363  1.0765  1.1979 -4.0702
  165SAPE   C3918541   0.718   2.776   3.505  0.4190 -0.4602 -0.4761
  165SAPE   H9X18542   0.773   2.873   3.501  1.6132 -1.0817  0.3081
  165SAPE   H9Y18543   0.799   2.701   3.503  1.0517  0.0160  2.5139
  165SAPE  C31018544   0.645   2.774   3.633  0.3955  0.2749  0.4566
  165SAPE  H10X18545   0.610   2.670   3.647  0.9154 -0.0654 -0.6549
  165SAPE  H10Y18546   0.550   2.831   3.638  0.0299 -0.3360  0.5706
  165SAPE  C31118547   0.736   2.787   3.757  0.6230 -0.4751  0.0037
  165SAPE  H11X18548   0.790   2.883   3.749  0.6902 -0.4578  0.6659
  165SAPE  H11Y18549   0.821   2.717   3.739  0.6041 -0.3831 -0.4463
  165SAPE  C31218550   0.672   2.758   3.889 -0.2827 -0.3201  0.1669
  165SAPE  H12X18551   0.566   2.730   3.877 -0.1758 -1.0248  0.8252
  165SAPE  H12Y18552   0.671   2.848   3.955 -1.4007  0.1612 -0.4845
  165SAPE  C31318553   0.741   2.631   3.940 -0.6203  0.4545 -0.4694
  165SAPE  H13X18554   0.849   2.644   3.961 -0.4859 -2.2796  1.0198
  165SAPE  H13Y18555   0.737   2.559   3.856  0.8709  1.6975 -1.6603
  165SAPE  C31418556   0.668   2.578   4.060  0.1276  0.0346  0.5076
  165SAPE  H14X18557   0.721   2.482   4.081 -0.7341 -0.4125  0.6644
  165SAPE  H14Y18558   0.566   2.543   4.033  0.8768 -3.1399  1.3355
  165SAPE  C31518559   0.678   2.664   4.185  0.1259  0.3854 -0.5558
  165SAPE  H15X18560   0.600   2.631   4.256  1.7547 -0.3601  0.9694
  165SAPE  H15Y18561   0.656   2.769   4.158 -2.2686  0.5496  1.5956
  165SAPE  C31618562   0.807   2.648   4.263 -0.3484  0.5814 -0.1362
  165SAPE  H16X18563   0.894   2.677   4.200 -0.1461 -0.0363 -0.1403
  165SAPE  H16Y18564   0.826   2.541   4.285 -0.8396  1.1014  3.4137
  165SAPE  C31718565   0.808   2.725   4.397  0.9294  0.0229 -0.1459
  165SAPE  H17X18566   0.722   2.694   4.460  0.6755 -0.3683 -0.6723
  165SAPE  H17Y18567   0.808   2.834   4.377  0.5393  0.0019 -0.2718
  165SAPE  C31818568   0.934   2.700   4.485 -0.9737  0.0020 -0.8507
  165SAPE  H18X18569   1.024   2.692   4.421  1.3815  0.1049  2.2016
  165SAPE  H18Y18570   0.927   2.603   4.538 -0.1232 -0.0131 -0.7650
  165SAPE  H18Z18571   0.965   2.784   4.551 -2.2776  1.1807 -1.6709
  166SAPE     N18572   2.217   4.088   1.970  0.0969  0.4907  0.3982
  166SAPE   HN118573   2.288   4.088   2.047  0.6699  0.6302 -0.1190
  166SAPE   HN218574   2.248   4.011   1.908  0.3288 -1.7048  3.0372
  166SAPE   HN318575   2.225   4.183   1.928  0.7732 -0.1661 -1.0191
  166SAPE   C1218576   2.079   4.060   2.026 -0.8646  0.4032  0.2805
  166SAPE  H12A18577   2.068   3.954   2.056 -1.3325  0.7755  1.4787
  166SAPE  H12B18578   2.005   4.071   1.943 -1.4730 -1.4877  0.5206
  166SAPE   C1118579   2.055   4.166   2.128  0.3905 -0.5052  0.4763
  166SAPE  H11A18580   2.125   4.179   2.213  0.3439 -0.5726  0.5249
  166SAPE  H11B18581   1.963   4.124   2.172  0.7042 -0.2423  1.4003
  166SAPE     P18582   1.968   4.417   2.145 -0.4537  0.2135  0.1590
  166SAPE   O1318583   1.872   4.478   2.050  0.0535 -0.2930 -0.2848
  166SAPE   O1418584   1.920   4.380   2.277  0.1603 -0.5063  0.0711
  166SAPE   O1218585   2.026   4.294   2.069 -0.0692  0.4740 -0.6447
  166SAPE   O1118586   2.090   4.515   2.164  0.3705  0.9289  0.1576
  166SAPE    C118587   2.223   4.462   2.188 -0.4246 -0.3660  0.2796
  166SAPE    HA18588   2.243   4.373   2.125  2.0601 -0.3649  0.9565
  166SAPE    HB18589   2.296   4.540   2.157  1.9234 -2.4895  0.1268
  166SAPE    C218590   2.254   4.452   2.332 -0.3002 -0.8028  0.0251
  166SAPE    HS18591   2.183   4.378   2.374 -0.7293 -1.0689 -1.1560
  166SAPE   O2118592   2.239   4.590   2.384  0.8734 -0.0910  0.6169
  166SAPE   C2118593   2.168   4.604   2.495 -0.1075  0.2374 -0.1142
  166SAPE   O2218594   2.119   4.513   2.562 -0.2404  0.3731  0.4236
  166SAPE   C2218595   2.174   4.751   2.532 -0.0838 -0.2053 -0.1618
  166SAPE   H2R18596   2.225   4.815   2.457  0.1101  1.5999  1.4429
  166SAPE   H2S18597   2.072   4.795   2.534 -0.5810 -1.3116 -0.6431
  166SAPE    C318598   2.401   4.400   2.353  0.1253  0.1655 -0.5172
  166SAPE    HX18599   2.471   4.471   2.304 -0.3223 -0.9101 -2.8675
  166SAPE    HY18600   2.403   4.301   2.302  2.5790  0.4102 -0.9701
  166SAPE   O3118601   2.433   4.392   2.498 -0.0145 -0.7796  0.2381
  166SAPE   C3118602   2.396   4.278   2.558  0.1219  0.1159 -0.4391
  166SAPE   O3218603   2.322   4.191   2.515  1.0238 -0.0800  0.0608
  166SAPE   C3218604   2.459   4.260   2.699 -0.3409 -0.5320  0.0808
  166SAPE   H2X18605   2.569   4.276   2.691 -0.2541  0.3070  2.2622
  166SAPE   H2Y18606   2.453   4.153   2.728  1.2064 -1.0505 -1.3517
  166SAPE   C2318607   2.243   4.773   2.667 -1.0037  0.2202  0.0111
  166SAPE   H3R18608   2.350   4.747   2.651 -0.9403  0.5461 -0.1129
  166SAPE   H3S18609   2.208   4.709   2.750  1.2348 -0.0925  0.7859
  166SAPE   C2418610   2.238   4.922   2.715  0.3743  0.2569 -0.2918
  166SAPE   H4R18611   2.284   4.989   2.639 -0.7085 -0.6611 -1.8092
  166SAPE   H4S18612   2.300   4.921   2.808 -0.7291  0.8242  0.4769
  166SAPE   C2518613   2.097   4.971   2.745 -0.5098  0.7287 -0.1707
  166SAPE   H5R18614   2.030   4.987   2.659  0.2261 -1.1710 -1.1502
  166SAPE   C2618615   2.040   4.990   2.867 -0.1031 -0.3243 -0.3102
  166SAPE   H6R18616   1.949   5.052   2.869  0.0826  0.0408 -1.9001
  166SAPE   C2718617   2.096   4.966   3.000  0.0814  0.1624 -0.4389
  166SAPE   H7R18618   2.148   4.868   3.010 -0.1744  0.0541 -0.1408
  166SAPE   H7S18619   2.009   4.957   3.068 -0.6005  1.1160 -1.1518
  166SAPE   C2818620   2.187   5.077   3.046  0.5847  0.2120 -0.3800
  166SAPE   H8R18621   2.278   5.101   2.989  0.9439 -0.8467 -0.2842
  166SAPE   C2918622   2.152   5.171   3.139 -0.5979 -0.8533 -0.1017
  166SAPE   H9R18623   2.228   5.245   3.168 -0.0956 -0.7273 -1.6797
  166SAPE  C21018624   2.019   5.179   3.212  0.8381 -0.2417 -0.0607
  166SAPE  H10R18625   1.936   5.136   3.152 -1.5474  1.3488  1.9175
  166SAPE  H10S18626   1.989   5.282   3.239 -0.5943 -1.3543  3.1079
  166SAPE  C21118627   2.018   5.101   3.338  0.3248  0.6303 -0.4591
  166SAPE  H11R18628   2.109   5.042   3.356 -0.3836 -0.8107 -1.4345
  166SAPE  C21218629   1.913   5.099   3.427 -0.0059  0.1027 -0.0097
  166SAPE  H12R18630   1.917   5.037   3.517 -2.7712 -1.1751 -0.6412
  166SAPE  C21318631   1.779   5.165   3.411 -0.8570 -0.1020  0.1143
  166SAPE  H13R18632   1.752   5.172   3.304 -0.8435  0.2772  0.1366
  166SAPE  H13S18633   1.785   5.266   3.457  0.3703  0.3546 -1.0125
  166SAPE  C21418634   1.665   5.079   3.470  0.0827  0.5882  1.4419
  166SAPE  H14R18635   1.640   4.986   3.418  1.0040  0.8229  0.5365
  166SAPE  C21518636   1.579   5.126   3.562  0.3395 -0.7951 -0.2034
  166SAPE  H15R18637   1.492   5.062   3.585 -0.4604 -0.3971 -1.9649
  166SAPE  C21618638   1.582   5.252   3.647  0.3111 -0.5119 -0.2268
  166SAPE  H16R18639   1.487   5.307   3.633 -1.3785 -2.9564  1.0521
  166SAPE  H16S18640   1.665   5.317   3.611 -0.1279  1.5308  2.2064
  166SAPE  C21718641   1.616   5.231   3.795 -0.4722 -0.2438 -0.7278
  166SAPE  H17R18642   1.532   5.177   3.845 -0.3655  0.2443 -0.0053
  166SAPE  H17S18643   1.626   5.336   3.832 -1.5678 -0.3689 -0.0327
  166SAPE  C21818644   1.751   5.160   3.815  0.4101  0.1783 -0.0625
  166SAPE  H18R18645   1.823   5.233   3.772  0.6803  0.1360  0.3086
  166SAPE  H18S18646   1.768   5.070   3.751  0.7271 -1.8920  2.7430
  166SAPE  C21918647   1.788   5.120   3.960  0.2328  0.1487  0.2688
  166SAPE  H19R18648   1.722   5.038   3.997  0.0543  0.5164  0.7756
  166SAPE  H19S18649   1.765   5.209   4.022 -1.0313 -0.8530  1.3064
  166SAPE  C22018650   1.938   5.076   3.969  0.4318  0.7018  0.2880
  166SAPE  H20R18651   1.965   5.061   4.075  0.2729  1.7760  0.4884
  166SAPE  H20S18652   2.002   5.154   3.922  0.3547 -0.2086 -1.4163
  166SAPE  H20T18653   1.964   4.979   3.919  0.1890  0.9157 -0.2568
  166SAPE   C3318654   2.400   4.361   2.807  0.1545 -1.0144 -0.0081
  166SAPE   H3X18655   2.293   4.346   2.833 -0.2560  2.0969  0.5796
  166SAPE   H3Y18656   2.400   4.470   2.787  1.9113 -0.9367  0.2722
  166SAPE   C3418657   2.480   4.326   2.934 -1.0100 -0.3026 -0.3504
  166SAPE   H4X18658   2.586   4.360   2.932 -0.8244 -0.6749  1.3802
  166SAPE   H4Y18659   2.481   4.219   2.963  1.5455 -0.1118  0.5981
  166SAPE   C3518660   2.428   4.400   3.065 -0.7086  0.0590  0.2481
  166SAPE   H5X18661   2.319   4.380   3.066 -1.3488  3.0671 -0.0828
  166SAPE   H5Y18662   2.453   4.508   3.057  3.2599 -0.8131 -2.1136
  166SAPE   C3618663   2.489   4.341   3.193 -0.4481 -0.3625 -0.1869
  166SAPE   H6X18664   2.590   4.383   3.214 -0.5384 -0.4159  0.3586
  166SAPE   H6Y18665   2.490   4.232   3.173 -0.9528  0.0189 -2.7273
  166SAPE   C3718666   2.417   4.383   3.319  0.2225 -0.3880  0.0570
  166SAPE   H7X18667   2.306   4.373   3.322  0.1854 -0.6354 -1.2337
  166SAPE   H7Y18668   2.428   4.493   3.311 -0.7588 -0.2813 -0.0051
  166SAPE   C3818669   2.500   4.355   3.447  0.3396 -0.1540 -0.4553
  166SAPE   H8X18670   2.603   4.372   3.411 -0.0092  0.8218 -1.0135
  166SAPE   H8Y18671   2.477   4.250   3.476 -0.5327 -0.6373 -2.6864
  166SAPE   C3918672   2.464   4.453   3.562 -0.0487 -0.3332 -0.2849
  166SAPE   H9X18673   2.354   4.459   3.565 -0.0137  2.9881 -1.2261
  166SAPE   H9Y18674   2.492   4.552   3.519  0.2541 -0.2203  0.1677
  166SAPE  C31018675   2.533   4.421   3.692 -0.6853 -0.2569  0.3569
  166SAPE  H10X18676   2.641   4.408   3.671 -0.6170  1.0850 -0.2184
  166SAPE  H10Y18677   2.499   4.322   3.732  2.1561 -1.3416  0.2672
  166SAPE  C31118678   2.512   4.529   3.802 -0.0228 -0.3594 -0.2765
  166SAPE  H11X18679   2.539   4.625   3.751 -0.0155  0.3780  1.0625
  166SAPE  H11Y18680   2.585   4.512   3.884 -0.1554 -0.1125 -0.1049
  166SAPE  C31218681   2.375   4.523   3.863  0.8332 -0.2641  1.4425
  166SAPE  H12X18682   2.353   4.429   3.918 -0.7721 -0.0286  1.2620
  166SAPE  H12Y18683   2.304   4.535   3.779 -1.5682 -1.9161  3.0806
  166SAPE  C31318684   2.380   4.629   3.970  0.2010 -0.2009  0.4604
  166SAPE  H13X18685   2.393   4.730   3.924  1.3779  0.1925  1.5925
  166SAPE  H13Y18686   2.473   4.609   4.026  0.7773 -0.5893 -0.5970
  166SAPE  C31418687   2.258   4.636   4.073  0.5106 -0.1834  0.1394
  166SAPE  H14X18688   2.259   4.549   4.141 -1.1054 -0.2386  0.1240
  166SAPE  H14Y18689   2.162   4.633   4.017 -1.1935 -1.1158  2.9509
  166SAPE  C31518690   2.257   4.770   4.150  0.5199 -0.2288  0.0308
  166SAPE  H15X18691   2.154   4.785   4.190  0.1029 -2.4116 -0.0919
  166SAPE  H15Y18692   2.264   4.852   4.075 -2.2381  1.4288  1.4196
  166SAPE  C31618693   2.362   4.785   4.262 -0.4331  0.3818  0.1421
  166SAPE  H16X18694   2.348   4.886   4.306  0.6936  0.9235 -0.7002
  166SAPE  H16Y18695   2.464   4.771   4.221 -1.1937 -2.9078 -0.9192
  166SAPE  C31718696   2.332   4.687   4.374 -0.1072 -0.1250  0.1266
  166SAPE  H17X18697   2.343   4.582   4.340 -0.8798 -1.0002  2.3556
  166SAPE  H17Y18698   2.223   4.689   4.399  0.0290 -0.3071  0.7593
  166SAPE  C31818699   2.400   4.713   4.506 -0.3998  0.2790  0.9177
  166SAPE  H18X18700   2.401   4.618   4.563  0.4249 -0.4909 -0.3162
  166SAPE  H18Y18701   2.332   4.784   4.557 -2.3867 -0.5476 -0.4633
  166SAPE  H18Z18702   2.503   4.751   4.487 -0.1734 -0.9139 -0.3936
  167SAPE     N18703   2.720   0.209   2.144 -0.0862 -0.6175 -0.0260
  167SAPE   HN118704   2.806   0.185   2.198  0.4943 -0.1486 -0.7201
  167SAPE   HN218705   2.742   0.279   2.070 -2.0432  1.1667  0.9893
  167SAPE   HN318706   2.657   0.253   2.213  0.5882 -0.1099  0.2802
  167SAPE   C1218707   2.657   0.086   2.100  0.0680  0.4732  0.2111
  167SAPE  H12A18708   2.725   0.018   2.044 -2.5316  0.8976 -3.8697
  167SAPE  H12B18709   2.575   0.105   2.028 -0.0821 -0.9496 -0.0307
  167SAPE   C1118710   2.599   0.007   2.224 -0.1843  0.3374  0.4813
  167SAPE  H11A18711   2.558  -0.094   2.201  1.0414  0.1229 -0.9108
  167SAPE  H11B18712   2.518   0.067   2.272 -1.3712 -0.9669  0.1628
  167SAPE     P18713   2.782  -0.130   2.353 -0.1827 -0.4698  0.3392
  167SAPE   O1318714   2.807  -0.190   2.218  0.5656  0.6936  0.1615
  167SAPE   O1418715   2.903  -0.102   2.434 -0.4617  0.2468  0.2304
  167SAPE   O1218716   2.701   0.007   2.330 -0.2410  0.3176 -0.3987
  167SAPE   O1118717   2.678  -0.222   2.422 -0.4370  0.3738 -0.5499
  167SAPE    C118718   2.584  -0.172   2.515  1.3581 -0.4328 -0.3091
  167SAPE    HA18719   2.555  -0.067   2.492 -0.8435 -1.1833 -1.1915
  167SAPE    HB18720   2.487  -0.222   2.496 -0.1406  2.0391  0.4163
  167SAPE    C218721   2.624  -0.201   2.660 -0.4064 -0.1802  0.6471
  167SAPE    HS18722   2.727  -0.169   2.686 -0.6322  0.1493  1.1478
  167SAPE   O2118723   2.606  -0.336   2.687  0.1333  0.3249  0.6634
  167SAPE   C2118724   2.710  -0.414   2.680 -0.2189  0.0832  0.6175
  167SAPE   O2218725   2.826  -0.376   2.673  0.1738 -0.6263  0.3045
  167SAPE   C2218726   2.662  -0.561   2.695 -0.0586  0.1069 -0.1851
  167SAPE   H2R18727   2.564  -0.565   2.748  0.1946  0.2602  0.2933
  167SAPE   H2S18728   2.658  -0.611   2.595  0.1331 -0.5115  0.1116
  167SAPE    C318729   2.525  -0.117   2.750 -0.5571  0.0811 -0.2972
  167SAPE    HX18730   2.435  -0.178   2.772 -0.4167  0.4554  1.4238
  167SAPE    HY18731   2.498  -0.020   2.703 -1.6065  0.4247  0.9852
  167SAPE   O3118732   2.584  -0.097   2.873 -0.3985  0.0705 -0.8835
  167SAPE   C3118733   2.578  -0.181   2.978  0.7861  1.3034  1.1321
  167SAPE   O3218734   2.537  -0.296   2.977 -0.0415 -0.5468 -0.7239
  167SAPE   C3218735   2.632  -0.108   3.101 -0.7077 -0.7664  0.0681
  167SAPE   H2X18736   2.557  -0.028   3.117  0.6693  0.4647  0.5543
  167SAPE   H2Y18737   2.727  -0.064   3.065 -0.4064 -2.0421 -0.7733
  167SAPE   C2318738   2.769  -0.644   2.771  0.3449  0.5615 -0.6357
  167SAPE   H3R18739   2.872  -0.640   2.731  1.0272  0.8877  1.0598
  167SAPE   H3S18740   2.752  -0.754   2.771  1.7903  0.3080 -1.5808
  167SAPE   C2418741   2.762  -0.604   2.924  0.4167 -0.0281 -0.7248
  167SAPE   H4R18742   2.656  -0.591   2.955  0.7335  1.7271 -0.2897
  167SAPE   H4S18743   2.799  -0.501   2.942 -3.4215  1.1968  1.2020
  167SAPE   C2518744   2.834  -0.702   3.013  0.0473 -0.5336  0.2702
  167SAPE   H5R18745   2.943  -0.703   2.997  0.0792  1.5029  0.1385
  167SAPE   C2618746   2.783  -0.787   3.108  0.2228 -0.2178 -0.2726
  167SAPE   H6R18747   2.848  -0.860   3.158 -1.8673 -0.9401  1.5223
  167SAPE   C2718748   2.640  -0.805   3.131  1.0919  0.0647 -0.4401
  167SAPE   H7R18749   2.637  -0.890   3.203  1.0650  0.6757  0.3054
  167SAPE   H7S18750   2.583  -0.838   3.042 -1.4222 -0.4111  1.2062
  167SAPE   C2818751   2.570  -0.683   3.193  0.8343 -0.0421  0.4831
  167SAPE   H8R18752   2.547  -0.596   3.130  1.1045  1.1634  1.9953
  167SAPE   C2918753   2.529  -0.677   3.324 -0.9338  0.0713  0.4706
  167SAPE   H9R18754   2.492  -0.577   3.352  0.4069  1.2220 -1.6576
  167SAPE  C21018755   2.537  -0.778   3.431 -0.1578 -0.3985  0.8395
  167SAPE  H10R18756   2.510  -0.720   3.522 -2.8626 -2.7238  1.6684
  167SAPE  H10S18757   2.642  -0.815   3.425  0.9650  2.4959  0.9474
  167SAPE  C21118758   2.441  -0.895   3.439 -0.1226  0.2669  0.1305
  167SAPE  H11R18759   2.364  -0.899   3.361 -0.1992 -1.7968  0.2491
  167SAPE  C21218760   2.459  -0.996   3.528  0.2381 -0.3095  0.2133
  167SAPE  H12R18761   2.383  -1.076   3.529 -1.3233  1.1154  0.7756
  167SAPE  C21318762   2.572  -1.011   3.627 -0.3862 -0.8444  0.5454
  167SAPE  H13R18763   2.551  -0.938   3.709 -0.1646 -0.5997  0.3846
  167SAPE  H13S18764   2.664  -0.970   3.581  0.2558 -0.8485  1.7578
  167SAPE  C21418765   2.604  -1.147   3.683 -0.6727 -0.2102 -0.2076
  167SAPE  H14R18766   2.650  -1.222   3.618  0.8336 -0.1259  0.7088
  167SAPE  C21518767   2.588  -1.182   3.810  0.3668 -0.0716  0.1706
  167SAPE  H15R18768   2.617  -1.284   3.841 -0.1926  0.2162  1.7836
  167SAPE  C21618769   2.519  -1.094   3.907 -0.0447 -0.7711  0.1988
  167SAPE  H16R18770   2.426  -1.051   3.865  1.5289  3.4959  0.5634
  167SAPE  H16S18771   2.583  -1.008   3.937 -2.6161  2.2186 -2.1672
  167SAPE  C21718772   2.484  -1.180   4.027 -0.9485 -0.5478 -0.4449
  167SAPE  H17R18773   2.574  -1.222   4.079 -1.2686 -0.3941  0.2517
  167SAPE  H17S18774   2.406  -1.255   4.004 -0.9595 -0.6095 -0.2173
  167SAPE  C21818775   2.427  -1.095   4.141  0.3683  0.3862  0.2084
  167SAPE  H18R18776   2.502  -1.021   4.177  0.4793 -0.8043  2.6131
  167SAPE  H18S18777   2.388  -1.148   4.230  0.1933  2.0958  1.1885
  167SAPE  C21918778   2.300  -1.023   4.099 -0.2615 -0.2023  0.6045
  167SAPE  H19R18779   2.213  -1.091   4.090  1.5667 -2.4676 -1.2201
  167SAPE  H19S18780   2.310  -0.973   4.001 -2.8715  1.6206  1.1744
  167SAPE  C22018781   2.276  -0.910   4.202  0.4938  0.9405  0.1175
  167SAPE  H20R18782   2.263  -0.950   4.305 -0.2981  1.2803  0.1624
  167SAPE  H20S18783   2.181  -0.855   4.183  0.2632  0.9814  1.2793
  167SAPE  H20T18784   2.360  -0.838   4.194  3.0056 -1.7165  0.9715
  167SAPE   C3318785   2.646  -0.194   3.229  0.1123  0.5024  0.8063
  167SAPE   H3X18786   2.557  -0.259   3.247 -1.4983  1.7771 -1.8524
  167SAPE   H3Y18787   2.652  -0.129   3.319 -0.6225  1.9013 -0.1035
  167SAPE   C3418788   2.781  -0.257   3.229  0.2329  0.0557  1.0519
  167SAPE   H4X18789   2.845  -0.170   3.202  1.4798 -1.3469 -0.7502
  167SAPE   H4Y18790   2.788  -0.338   3.153  2.0448  1.2191 -0.0948
  167SAPE   C3518791   2.834  -0.319   3.357  0.2927 -0.3424 -0.1495
  167SAPE   H5X18792   2.805  -0.260   3.446  0.2810  0.8288 -0.9083
  167SAPE   H5Y18793   2.940  -0.352   3.346 -0.4684 -2.7700 -0.9132
  167SAPE   C3618794   2.770  -0.456   3.384 -0.4523 -0.0727  0.2474
  167SAPE   H6X18795   2.797  -0.523   3.300 -1.2366  0.0278 -0.0954
  167SAPE   H6Y18796   2.659  -0.447   3.382 -0.4945 -0.6272 -0.1399
  167SAPE   C3718797   2.815  -0.528   3.516 -0.4076  0.6831 -0.4628
  167SAPE   H7X18798   2.745  -0.614   3.528 -1.6004  1.4798 -1.4903
  167SAPE   H7Y18799   2.792  -0.474   3.610 -1.4132  0.4612 -0.5706
  167SAPE   C3818800   2.958  -0.576   3.519 -0.2849  0.4057 -0.2436
  167SAPE   H8X18801   3.022  -0.485   3.506 -0.4455  0.9946  2.4571
  167SAPE   H8Y18802   2.967  -0.642   3.430  0.3195  1.2221 -0.8073
  167SAPE   C3918803   2.998  -0.660   3.641 -0.0076 -1.6420 -0.1759
  167SAPE   H9X18804   2.980  -0.607   3.737  1.6880  0.4333 -0.9104
  167SAPE   H9Y18805   3.104  -0.693   3.630  0.6359  0.5130 -1.0404
  167SAPE  C31018806   2.906  -0.788   3.659  0.0872 -0.3846  0.8607
  167SAPE  H10X18807   2.900  -0.837   3.560  1.3933 -0.5022  0.8282
  167SAPE  H10Y18808   2.804  -0.753   3.684  0.1578 -1.1299  2.3256
  167SAPE  C31118809   2.947  -0.891   3.764  0.3889 -0.5650 -0.6795
  167SAPE  H11X18810   3.045  -0.935   3.736  1.6544  0.8789  1.2319
  167SAPE  H11Y18811   2.874  -0.975   3.763 -0.0602 -0.1897 -0.1203
  167SAPE  C31218812   2.952  -0.825   3.902  0.5538  0.6044  0.7963
  167SAPE  H12X18813   2.854  -0.783   3.932  0.7244  0.4112  1.6445
  167SAPE  H12Y18814   3.027  -0.743   3.899 -0.6059  1.6719  0.2216
  167SAPE  C31318815   3.006  -0.916   4.009  0.0759  0.4328 -0.8465
  167SAPE  H13X18816   3.111  -0.948   3.986 -0.5599 -0.1313 -3.3336
  167SAPE  H13Y18817   2.934  -1.001   4.008  1.7322 -1.0664  0.1607
  167SAPE  C31418818   2.995  -0.847   4.140 -0.3851  0.3641  0.0699
  167SAPE  H14X18819   3.012  -0.928   4.214 -0.0748 -0.9715 -1.4093
  167SAPE  H14Y18820   2.896  -0.801   4.160 -0.1703  0.2605  1.4683
  167SAPE  C31518821   3.100  -0.746   4.171  0.1455  0.3721 -0.1758
  167SAPE  H15X18822   3.073  -0.663   4.103 -0.1164  1.7111  1.4821
  167SAPE  H15Y18823   3.202  -0.773   4.136  1.0860  2.2100  0.9680
  167SAPE  C31618824   3.090  -0.707   4.321 -1.0199 -0.1403  0.1304
  167SAPE  H16X18825   3.128  -0.787   4.389 -3.3119 -0.1100  1.5482
  167SAPE  H16Y18826   2.981  -0.704   4.343 -0.8139  0.1464  1.2058
  167SAPE  C31718827   3.157  -0.576   4.351  0.6434  0.2787  0.8712
  167SAPE  H17X18828   3.108  -0.498   4.288  0.2777 -1.2445 -0.8241
  167SAPE  H17Y18829   3.265  -0.586   4.330  0.5033  1.9376 -1.0028
  167SAPE  C31818830   3.163  -0.545   4.498  0.3743 -0.2041 -1.2303
  167SAPE  H18X18831   3.208  -0.632   4.551 -0.1618 -0.1412 -0.6544
  167SAPE  H18Y18832   3.059  -0.527   4.533  0.5142 -0.1914 -0.8171
  167SAPE  H18Z18833   3.226  -0.457   4.524  2.4736 -2.5425  2.4953
  168SAPE     N18834   4.627   3.697   2.084  0.1431 -0.2533 -0.2881
  168SAPE   HN118835   4.555   3.770   2.097 -0.8407 -1.1090 -0.8061
  168SAPE   HN218836   4.720   3.734   2.054  0.1103 -0.9312 -1.3069
  168SAPE   HN318837   4.582   3.635   2.014 -1.1087 -0.0087  0.2865
  168SAPE   C1218838   4.637   3.618   2.212  0.2876  0.3404 -0.3572
  168SAPE  H12A18839   4.679   3.693   2.283 -0.8028  0.9923 -0.3866
  168SAPE  H12B18840   4.710   3.534   2.207 -1.2000 -0.9352 -1.5206
  168SAPE   C1118841   4.495   3.568   2.265 -0.4386 -0.5883  0.1238
  168SAPE  H11A18842   4.416   3.645   2.277 -0.5235 -0.7967  1.0338
  168SAPE  H11B18843   4.503   3.539   2.372 -3.0600  1.6305  1.0429
  168SAPE     P18844   4.464   3.309   2.209  0.2924  0.4567  0.3405
  168SAPE   O1318845   4.392   3.233   2.102 -0.6648 -0.6263 -0.0136
  168SAPE   O1418846   4.607   3.281   2.243  0.3725 -0.0476 -0.5028
  168SAPE   O1218847   4.445   3.462   2.184 -0.3413 -0.6528  0.0241
  168SAPE   O1118848   4.377   3.281   2.336  0.1039  0.1331 -0.9238
  168SAPE    C118849   4.237   3.325   2.333  0.0329 -0.8788  0.1289
  168SAPE    HA18850   4.220   3.400   2.252 -0.1792 -1.1090 -0.0420
  168SAPE    HB18851   4.165   3.242   2.324 -1.7466  0.6913 -0.7941
  168SAPE    C218852   4.192   3.385   2.473 -0.0458  0.4217 -0.2952
  168SAPE    HS18853   4.271   3.463   2.486  1.5958 -1.0507 -0.9549
  168SAPE   O2118854   4.193   3.274   2.565 -0.2645  0.2602  0.1244
  168SAPE   C2118855   4.217   3.312   2.688 -0.1830  0.2211 -0.3455
  168SAPE   O2218856   4.199   3.428   2.722  0.1511  0.4949 -0.2012
  168SAPE   C2218857   4.256   3.186   2.776  0.2682  0.6083  0.4906
  168SAPE   H2R18858   4.220   3.101   2.714 -3.7198  0.1447  3.0555
  168SAPE   H2S18859   4.366   3.195   2.789  0.2734  2.1730 -0.4172
  168SAPE    C318860   4.048   3.449   2.455 -0.3919  0.3540 -0.0427
  168SAPE    HX18861   3.975   3.365   2.451 -0.8411  0.6415  1.5492
  168SAPE    HY18862   4.046   3.506   2.360  2.0423  1.1939  0.3619
  168SAPE   O3118863   4.019   3.532   2.565  0.0004  0.4102  0.1826
  168SAPE   C3118864   4.072   3.654   2.571 -0.8043  0.1669  0.1767
  168SAPE   O3218865   4.135   3.710   2.482  0.3362  0.5749  0.8829
  168SAPE   C3218866   4.041   3.717   2.710  0.5541 -0.8462 -0.1571
  168SAPE   H2X18867   4.042   3.636   2.785 -1.1027  1.0019  2.0161
  168SAPE   H2Y18868   3.935   3.750   2.706  0.6918 -0.2523  0.8923
  168SAPE   C2318869   4.191   3.173   2.918 -0.1025 -0.9415  0.8027
  168SAPE   H3R18870   4.192   3.066   2.949 -1.9280 -1.4468 -0.7416
  168SAPE   H3S18871   4.086   3.208   2.916  0.7465  1.8318 -0.5752
  168SAPE   C2418872   4.271   3.257   3.021 -0.0115 -0.6861  0.5053
  168SAPE   H4R18873   4.195   3.273   3.101 -1.5648 -3.4917 -0.2562
  168SAPE   H4S18874   4.300   3.354   2.976 -1.9369 -1.0019 -1.6120
  168SAPE   C2518875   4.394   3.178   3.069  0.2345 -0.2321  0.1088
  168SAPE   H5R18876   4.461   3.167   2.982  0.5717  2.4505 -0.0516
  168SAPE   C2618877   4.432   3.130   3.195  0.6299  0.1715 -0.1895
  168SAPE   H6R18878   4.526   3.076   3.216  1.3005  1.9808  1.8702
  168SAPE   C2718879   4.349   3.160   3.316  0.1127  0.4652 -0.0874
  168SAPE   H7R18880   4.286   3.073   3.346  1.2875  0.0311  1.2557
  168SAPE   H7S18881   4.269   3.233   3.291 -0.3874 -0.0983 -0.1550
  168SAPE   C2818882   4.429   3.207   3.434  0.1261 -0.0287  0.7124
  168SAPE   H8R18883   4.421   3.316   3.447 -0.3060  0.0555 -0.2322
  168SAPE   C2918884   4.505   3.132   3.526 -0.3630  0.3444 -0.1230
  168SAPE   H9R18885   4.556   3.178   3.612 -0.8899 -0.4683  0.6406
  168SAPE  C21018886   4.497   2.983   3.529 -1.2876  0.2404 -0.0237
  168SAPE  H10R18887   4.536   2.946   3.432  1.2905 -0.3231  1.1504
  168SAPE  H10S18888   4.392   2.948   3.541 -0.7749 -0.8251  1.6972
  168SAPE  C21118889   4.596   2.928   3.627 -0.5316 -0.2910 -0.2331
  168SAPE  H11R18890   4.682   2.993   3.649  1.0090 -1.9039 -1.2542
  168SAPE  C21218891   4.577   2.829   3.709 -0.0346  0.2036 -0.0970
  168SAPE  H12R18892   4.661   2.808   3.777 -0.2239  0.5163  0.2378
  168SAPE  C21318893   4.454   2.735   3.702  0.4221  0.4563  0.4664
  168SAPE  H13R18894   4.406   2.722   3.603  1.6042  2.4203 -0.4116
  168SAPE  H13S18895   4.376   2.780   3.767  0.7190 -1.3156  2.1590
  168SAPE  C21418896   4.485   2.599   3.759  0.2314 -0.1048 -0.5975
  168SAPE  H14R18897   4.521   2.522   3.689  2.2267 -1.0007  1.2640
  168SAPE  C21518898   4.483   2.569   3.896 -0.7808  0.1722 -0.2670
  168SAPE  H15R18899   4.506   2.470   3.940 -2.4200  0.6933  1.9611
  168SAPE  C21618900   4.450   2.665   4.000  0.7091 -1.0174  0.1692
  168SAPE  H16R18901   4.394   2.750   3.954 -0.1822 -2.1611 -0.9481
  168SAPE  H16S18902   4.537   2.715   4.046  0.4006  1.1058 -1.3785
  168SAPE  C21718903   4.347   2.614   4.101  0.3290  0.4709 -0.0933
  168SAPE  H17R18904   4.392   2.519   4.137  0.2452  0.2265 -0.6303
  168SAPE  H17S18905   4.249   2.598   4.051 -0.8111 -1.0252  2.4034
  168SAPE  C21818906   4.333   2.708   4.221  0.5061 -0.2772  0.9800
  168SAPE  H18R18907   4.283   2.798   4.180 -2.6021 -2.3516 -0.1206
  168SAPE  H18S18908   4.435   2.736   4.257  0.7953  0.7674 -0.5745
  168SAPE  C21918909   4.253   2.655   4.337  0.2032  0.2294 -0.1344
  168SAPE  H19R18910   4.248   2.725   4.423  1.8762  1.1941 -0.7788
  168SAPE  H19S18911   4.282   2.556   4.378  0.2432  0.2800 -0.0390
  168SAPE  C22018912   4.112   2.625   4.287  0.0800  0.1773  0.2147
  168SAPE  H20R18913   4.044   2.608   4.373 -0.9160 -0.5656 -0.7046
  168SAPE  H20S18914   4.096   2.538   4.220 -3.6331  1.9496 -1.5124
  168SAPE  H20T18915   4.071   2.717   4.240  0.3224  0.0101 -0.3247
  168SAPE   C3318916   4.129   3.837   2.746 -0.3365 -0.0723  0.9010
  168SAPE   H3X18917   4.107   3.926   2.684  0.3929 -0.8813 -0.5701
  168SAPE   H3Y18918   4.234   3.808   2.728  0.0495  2.3952 -1.4244
  168SAPE   C3418919   4.119   3.889   2.888  0.1785  0.2562  0.5457
  168SAPE   H4X18920   4.025   3.948   2.896  2.3753  4.0683  0.4636
  168SAPE   H4Y18921   4.205   3.959   2.892  1.7833 -0.9475 -4.8205
  168SAPE   C3518922   4.119   3.787   3.004  0.4929 -0.1382  0.5212
  168SAPE   H5X18923   4.209   3.723   2.993 -1.4294 -2.8571 -0.1535
  168SAPE   H5Y18924   4.028   3.730   2.976 -1.3539  1.6355  2.5085
  168SAPE   C3618925   4.090   3.850   3.141 -0.2472  0.1116  0.0919
  168SAPE   H6X18926   4.003   3.917   3.123 -0.1087  0.1213 -0.5619
  168SAPE   H6Y18927   4.173   3.913   3.179 -1.2453  0.2061  2.2675
  168SAPE   C3718928   4.044   3.748   3.251  0.1368  0.8900  0.1483
  168SAPE   H7X18929   4.095   3.650   3.239 -0.7743  0.4236 -0.0113
  168SAPE   H7Y18930   3.939   3.726   3.222  0.2228  0.2883  0.2741
  168SAPE   C3818931   4.049   3.790   3.396  0.2565  0.0968 -0.0556
  168SAPE   H8X18932   4.153   3.810   3.428  0.6616 -0.0930 -1.2145
  168SAPE   H8Y18933   3.995   3.704   3.443 -2.6173  0.1978 -2.8088
  168SAPE   C3918934   3.961   3.913   3.417 -0.1112 -0.3830  0.8802
  168SAPE   H9X18935   3.859   3.889   3.383 -0.2226  0.9155  0.2465
  168SAPE   H9Y18936   3.996   3.988   3.343  0.2673 -1.2233  0.1863
  168SAPE  C31018937   3.959   3.965   3.567 -0.3394  0.2632  0.6194
  168SAPE  H10X18938   3.901   4.058   3.584  3.7154  3.1168  0.3058
  168SAPE  H10Y18939   4.065   3.996   3.582 -0.6509  1.9082 -0.3112
  168SAPE  C31118940   3.919   3.864   3.677  0.0213  0.3733  0.2989
  168SAPE  H11X18941   3.990   3.780   3.657 -0.2785  0.1008  0.3709
  168SAPE  H11Y18942   3.813   3.834   3.669  0.3991 -1.7494  2.2062
  168SAPE  C31218943   3.936   3.917   3.820  0.1463  0.1313  0.4906
  168SAPE  H12X18944   3.874   4.009   3.826 -1.0956 -0.3580 -2.6745
  168SAPE  H12Y18945   4.044   3.939   3.833 -0.2579  2.1032  0.8864
  168SAPE  C31318946   3.883   3.828   3.928 -0.5688 -0.6209  0.0445
  168SAPE  H13X18947   3.935   3.730   3.917  0.8674  0.1713 -0.5428
  168SAPE  H13Y18948   3.772   3.823   3.919 -0.4516 -0.5489 -2.0527
  168SAPE  C31418949   3.919   3.886   4.063 -0.2952  0.9076  0.4051
  168SAPE  H14X18950   4.027   3.912   4.065  0.5900 -2.3828  0.6319
  168SAPE  H14Y18951   3.911   3.803   4.137  1.6418 -0.3943 -0.7683
  168SAPE  C31518952   3.810   3.993   4.109 -0.3515 -0.0437 -0.0504
  168SAPE  H15X18953   3.711   3.944   4.102  0.1640 -1.0145 -0.7985
  168SAPE  H15Y18954   3.811   4.070   4.028  0.4203  2.1616  1.9441
  168SAPE  C31618955   3.844   4.036   4.248 -0.3488 -0.3715  0.1152
  168SAPE  H16X18956   3.950   4.071   4.244 -0.6228  0.5219  0.3734
  168SAPE  H16Y18957   3.845   3.959   4.328  0.0350  0.0332  0.5047
  168SAPE  C31718958   3.764   4.153   4.305  0.8314 -0.2600  0.1317
  168SAPE  H17X18959   3.660   4.125   4.333  0.0498  0.9778 -1.3601
  168SAPE  H17Y18960   3.743   4.227   4.224 -3.2487 -0.0566  1.1756
  168SAPE  C31818961   3.833   4.218   4.428 -0.3599  0.1020 -0.5372
  168SAPE  H18X18962   3.835   4.151   4.517  2.2198  2.0100  0.9954
  168SAPE  H18Y18963   3.779   4.308   4.464  1.6014  0.3144  2.2303
  168SAPE  H18Z18964   3.939   4.247   4.412  0.0165 -1.0850 -0.3034
  169SAPE     N18965   3.142   1.440   2.141  0.4150 -0.3690  0.4433
  169SAPE   HN118966   3.228   1.462   2.196  0.9677 -2.9572  0.7147
  169SAPE   HN218967   3.141   1.342   2.106 -1.9240 -1.0094  2.1154
  169SAPE   HN318968   3.123   1.506   2.063 -1.7190 -0.3305  0.9394
  169SAPE   C1218969   3.027   1.449   2.235 -1.2791 -0.0596 -0.2646
  169SAPE  H12A18970   3.046   1.363   2.302 -2.1671  1.3619  1.9268
  169SAPE  H12B18971   2.932   1.424   2.181 -0.3763  1.9547 -3.0566
  169SAPE   C1118972   3.033   1.575   2.314  0.0051 -0.9718  0.2536
  169SAPE  H11A18973   3.124   1.575   2.377  0.5163  0.6121 -0.4324
  169SAPE  H11B18974   2.951   1.558   2.386 -0.6003 -0.6340 -0.3366
  169SAPE     P18975   3.026   1.828   2.305  0.4171 -0.1830  0.0479
  169SAPE   O1318976   3.114   1.808   2.423  0.0804 -0.7492 -0.1570
  169SAPE   O1418977   3.073   1.932   2.201  0.2979  0.1992 -0.5109
  169SAPE   O1218978   3.007   1.694   2.225  0.3073  0.2570  0.4038
  169SAPE   O1118979   2.876   1.875   2.345 -0.4607 -0.0726 -0.3321
  169SAPE    C118980   2.848   2.013   2.362 -0.0663  0.0082 -0.5494
  169SAPE    HA18981   2.942   2.071   2.376 -0.0757 -0.0495 -0.2267
  169SAPE    HB18982   2.807   2.054   2.268  1.8769  3.4853 -0.0388
  169SAPE    C218983   2.744   2.039   2.470 -0.5063  0.2466  0.2991
  169SAPE    HS18984   2.803   2.063   2.561  1.1292 -1.6645 -0.2006
  169SAPE   O2118985   2.653   1.930   2.483  0.2509 -0.0903 -0.0998
  169SAPE   C2118986   2.674   1.854   2.587 -0.1796  0.3348  0.4331
  169SAPE   O2218987   2.758   1.881   2.675 -0.3255 -0.0402 -0.0066
  169SAPE   C2218988   2.565   1.746   2.598 -0.0764 -0.1270 -0.6333
  169SAPE   H2R18989   2.474   1.785   2.548 -1.0200 -0.7345  0.5495
  169SAPE   H2S18990   2.598   1.653   2.547 -1.4911 -0.6615 -0.6162
  169SAPE    C318991   2.671   2.175   2.451 -0.8926 -0.8635  0.4086
  169SAPE    HX18992   2.599   2.168   2.367  0.4755  2.2431 -1.1753
  169SAPE    HY18993   2.735   2.258   2.413 -2.2619  0.1010  0.1615
  169SAPE   O3118994   2.596   2.199   2.572  0.0087  0.1969 -0.2382
  169SAPE   C3118995   2.576   2.319   2.621 -0.6623 -0.0357 -0.3410
  169SAPE   O3218996   2.634   2.421   2.584 -0.2546  0.0273 -0.1556
  169SAPE   C3218997   2.474   2.314   2.736  0.2129 -0.2971 -0.7648
  169SAPE   H2X18998   2.527   2.245   2.805  2.6747  1.9983 -0.2029
  169SAPE   H2Y18999   2.373   2.283   2.700  0.4295  1.6782 -3.3548
  169SAPE   C2319000   2.521   1.712   2.743 -0.0623 -0.4300 -0.2884
  169SAPE   H3R19001   2.611   1.664   2.789  0.0207 -1.4057 -1.4318
  169SAPE   H3S19002   2.442   1.636   2.728 -1.5781  1.4031 -2.0039
  169SAPE   C2419003   2.479   1.841   2.822 -0.4633  0.0825 -0.1730
  169SAPE   H4R19004   2.576   1.893   2.837 -0.1727 -0.5232  0.0797
  169SAPE   H4S19005   2.443   1.800   2.919 -0.9776 -1.2537 -0.8986
  169SAPE   C2519006   2.384   1.942   2.762 -0.0897 -0.2813  0.7655
  169SAPE   H5R19007   2.358   1.922   2.657 -1.1174 -1.3145  1.1919
  169SAPE   C2619008   2.327   2.049   2.826 -0.2297  0.1036  0.0642
  169SAPE   H6R19009   2.255   2.109   2.767 -2.5757  0.2658  2.8534
  169SAPE   C2719010   2.356   2.097   2.963 -0.4500  0.5130 -0.0007
  169SAPE   H7R19011   2.349   2.207   2.975  0.3133  0.5928 -0.2029
  169SAPE   H7S19012   2.461   2.077   2.994  0.2148  2.9781 -0.4309
  169SAPE   C2819013   2.274   2.024   3.067 -0.5119  0.2797  0.0875
  169SAPE   H8R19014   2.289   1.915   3.059 -1.9284  0.1967 -2.3148
  169SAPE   C2919015   2.200   2.065   3.169  0.1872  0.4169 -0.7447
  169SAPE   H9R19016   2.163   1.987   3.236 -2.1093  0.8595 -1.4193
  169SAPE  C21019017   2.177   2.212   3.220 -0.7996 -0.0268 -0.2417
  169SAPE  H10R19018   2.218   2.280   3.143  2.0395 -1.2401  0.0621
  169SAPE  H10S19019   2.247   2.223   3.306 -2.1940 -0.8004  1.0388
  169SAPE  C21119020   2.035   2.252   3.262  0.5452  0.0058  0.5157
  169SAPE  H11R19021   1.965   2.282   3.184 -0.0820  0.2418  1.1591
  169SAPE  C21219022   1.990   2.245   3.388  0.6362 -0.3353 -0.3327
  169SAPE  H12R19023   1.886   2.275   3.403  0.2627 -1.7359  0.0355
  169SAPE  C21319024   2.066   2.186   3.507  0.3258  0.2455 -0.4873
  169SAPE  H13R19025   2.172   2.219   3.506  0.9690 -1.6525 -1.9327
  169SAPE  H13S19026   2.073   2.076   3.497 -0.2704 -0.0812  2.0681
  169SAPE  C21419027   2.022   2.203   3.646  1.1958 -0.4100  0.7660
  169SAPE  H14R19028   1.967   2.119   3.691 -2.3256  1.9074  1.1944
  169SAPE  C21519029   2.011   2.321   3.713 -0.2653 -0.5331  0.2965
  169SAPE  H15R19030   1.960   2.330   3.809  0.1820 -0.2486  0.5131
  169SAPE  C21619031   2.063   2.454   3.656  0.4105 -1.0115  0.0103
  169SAPE  H16R19032   2.098   2.463   3.551  1.3845  3.1666  0.5040
  169SAPE  H16S19033   2.151   2.489   3.714 -0.9715  1.6082  0.6898
  169SAPE  C21719034   1.949   2.554   3.676 -0.9402  0.8611 -0.4014
  169SAPE  H17R19035   1.975   2.660   3.653 -1.0997  0.4808 -2.5950
  169SAPE  H17S19036   1.915   2.544   3.781  1.4128 -1.6967  0.2505
  169SAPE  C21819037   1.824   2.529   3.588  0.1252  0.0935 -0.4605
  169SAPE  H18R19038   1.750   2.594   3.641  0.3622 -0.3466  0.4246
  169SAPE  H18S19039   1.787   2.425   3.600  0.6424  0.2135  3.4511
  169SAPE  C21919040   1.851   2.566   3.442 -0.1298 -0.0610  0.1571
  169SAPE  H19R19041   1.937   2.512   3.396 -0.3334  1.0448 -1.6451
  169SAPE  H19S19042   1.870   2.676   3.437 -0.5036 -0.0431 -2.1026
  169SAPE  C22019043   1.720   2.540   3.368 -0.0691  0.2990 -0.0244
  169SAPE  H20R19044   1.712   2.601   3.276  2.1814  2.4379  1.0949
  169SAPE  H20S19045   1.627   2.550   3.427 -1.1891  0.9981 -1.8272
  169SAPE  H20T19046   1.718   2.431   3.345  2.8277 -0.1050  1.1923
  169SAPE   C3319047   2.454   2.454   2.794  0.1240 -0.1086  0.5907
  169SAPE   H3X19048   2.397   2.516   2.722  0.7541  0.8094  0.8628
  169SAPE   H3Y19049   2.556   2.498   2.804 -0.2733  0.8598  0.4639
  169SAPE   C3419050   2.377   2.467   2.929 -0.8402 -0.2284 -0.4767
  169SAPE   H4X19051   2.430   2.405   3.004 -0.9133  1.0333  0.6665
  169SAPE   H4Y19052   2.274   2.430   2.911 -0.9670  0.3562 -1.0178
  169SAPE   C3519053   2.396   2.611   2.975  0.3557 -0.0794 -0.2671
  169SAPE   H5X19054   2.401   2.684   2.891  1.4690 -2.0351 -2.0241
  169SAPE   H5Y19055   2.496   2.614   3.023 -0.3175  1.7242  1.1286
  169SAPE   C3619056   2.279   2.666   3.069 -0.3260  0.0963  0.6286
  169SAPE   H6X19057   2.192   2.698   3.009 -0.1359 -1.4470 -0.5026
  169SAPE   H6Y19058   2.322   2.755   3.121 -0.3812 -0.0375  0.9093
  169SAPE   C3719059   2.239   2.566   3.182 -0.2639  0.3365 -0.1178
  169SAPE   H7X19060   2.194   2.479   3.130  0.1999  0.0727 -0.0916
  169SAPE   H7Y19061   2.161   2.607   3.250 -1.2368  0.5342 -1.3331
  169SAPE   C3819062   2.349   2.522   3.277 -0.3917 -1.0500 -0.1325
  169SAPE   H8X19063   2.429   2.459   3.233  0.1669 -1.5078  1.5090
  169SAPE   H8Y19064   2.306   2.449   3.348 -0.6990 -0.2481  0.5163
  169SAPE   C3919065   2.398   2.642   3.358 -0.4757 -0.0108 -0.7910
  169SAPE   H9X19066   2.319   2.698   3.412 -0.2640  1.2790 -1.7589
  169SAPE   H9Y19067   2.444   2.713   3.285  1.0739 -1.4384 -1.2657
  169SAPE  C31019068   2.499   2.614   3.473  0.1500  0.1014  0.2907
  169SAPE  H10X19069   2.547   2.708   3.507 -0.1984  1.3250 -2.3667
  169SAPE  H10Y19070   2.582   2.557   3.425  1.3511  1.3794  0.7780
  169SAPE  C31119071   2.429   2.538   3.587  0.0661 -0.0804  0.9122
  169SAPE  H11X19072   2.369   2.450   3.558 -1.5493  0.7193  1.6937
  169SAPE  H11Y19073   2.359   2.609   3.635 -2.0646 -0.3774 -1.5474
  169SAPE  C31219074   2.542   2.510   3.696 -0.2945  0.2444  0.5658
  169SAPE  H12X19075   2.604   2.598   3.722  0.5806 -0.1111 -0.2366
  169SAPE  H12Y19076   2.609   2.440   3.642 -0.6009  1.1244 -1.0196
  169SAPE  C31319077   2.508   2.441   3.828  0.5514  0.5000  0.1722
  169SAPE  H13X19078   2.595   2.398   3.881  0.5248  0.4085  0.1412
  169SAPE  H13Y19079   2.442   2.353   3.812  2.6719 -1.3424  1.1362
  169SAPE  C31419080   2.433   2.544   3.916  0.4091 -0.3873 -0.0966
  169SAPE  H14X19081   2.356   2.598   3.857  0.2883 -2.2387 -1.7353
  169SAPE  H14Y19082   2.509   2.617   3.950 -0.8939  0.9537 -0.0050
  169SAPE  C31519083   2.356   2.469   4.027  0.0239  0.6618 -0.0014
  169SAPE  H15X19084   2.429   2.409   4.086 -1.4841 -2.7754 -1.3699
  169SAPE  H15Y19085   2.296   2.392   3.975  1.2150 -0.4275  0.1825
  169SAPE  C31619086   2.280   2.563   4.121  0.0835 -0.6291 -0.5581
  169SAPE  H16X19087   2.348   2.639   4.164 -2.1135  1.6482 -0.8798
  169SAPE  H16Y19088   2.227   2.516   4.206 -0.2448  1.6611  0.5661
  169SAPE  C31719089   2.177   2.657   4.053  0.2087 -0.5256  0.5306
  169SAPE  H17X19090   2.219   2.714   3.968 -1.2039  0.7813  0.6487
  169SAPE  H17Y19091   2.151   2.732   4.131 -0.0201  0.7703 -0.7432
  169SAPE  C31819092   2.054   2.593   4.000  0.4637 -0.6565  0.7246
  169SAPE  H18X19093   1.979   2.565   4.077 -1.5393  0.8693 -0.5656
  169SAPE  H18Y19094   2.072   2.500   3.943 -1.3234 -0.5731 -0.0450
  169SAPE  H18Z19095   1.996   2.657   3.930  0.6610 -0.7693  0.4549
  170SAPE     N19096   3.269   2.579   2.278 -0.2792 -0.0213  0.4875
  170SAPE   HN119097   3.301   2.512   2.205  3.0526  3.0421 -1.1902
  170SAPE   HN219098   3.264   2.531   2.370 -1.2080 -0.3004  0.3065
  170SAPE   HN319099   3.171   2.606   2.255  0.2622 -0.6240 -3.1135
  170SAPE   C1219100   3.354   2.701   2.292  0.5438  0.2285 -0.3625
  170SAPE  H12A19101   3.357   2.752   2.193 -0.1256  0.0359 -0.4852
  170SAPE  H12B19102   3.460   2.675   2.308  0.4769  0.2862  0.1912
  170SAPE   C1119103   3.306   2.771   2.417 -0.3574 -0.2033  0.1309
  170SAPE  H11A19104   3.371   2.860   2.429  0.3479 -0.4033 -1.8055
  170SAPE  H11B19105   3.316   2.697   2.499 -2.8076 -1.6628 -0.7703
  170SAPE     P19106   3.126   2.931   2.320 -0.1575 -0.4016  0.0861
  170SAPE   O1319107   3.252   2.987   2.267  0.4032  0.3770 -0.0004
  170SAPE   O1419108   3.027   2.891   2.221  0.0754  0.4432 -0.7112
  170SAPE   O1219109   3.166   2.800   2.404 -0.3976  0.1271 -0.2085
  170SAPE   O1119110   3.073   3.032   2.435 -0.3353  0.4956 -0.6482
  170SAPE    C119111   2.947   3.003   2.493 -0.0841  0.1017  0.4007
  170SAPE    HA19112   2.865   3.034   2.426  0.6303  0.6523 -0.2416
  170SAPE    HB19113   2.940   2.896   2.521 -1.9667 -0.5121 -2.1014
  170SAPE    C219114   2.929   3.097   2.612  0.8780 -0.0759 -0.1199
  170SAPE    HS19115   2.948   3.196   2.565  2.3400 -0.5031 -0.5018
  170SAPE   O2119116   3.014   3.062   2.717 -0.5161  0.4635 -0.1959
  170SAPE   C2119117   3.102   3.145   2.765  0.2558 -0.2803  0.4733
  170SAPE   O2219118   3.106   3.265   2.740  0.0404 -0.4490  0.9054
  170SAPE   C2219119   3.203   3.064   2.853 -0.1961 -0.5835 -0.5740
  170SAPE   H2R19120   3.153   2.992   2.922  1.2741 -0.1679  0.9912
  170SAPE   H2S19121   3.264   3.005   2.781 -1.1593  0.5994 -2.4490
  170SAPE    C319122   2.783   3.096   2.675 -0.0868  0.2347 -0.0445
  170SAPE    HX19123   2.773   2.995   2.720 -0.9005  0.7256  0.9054
  170SAPE    HY19124   2.706   3.110   2.595 -0.6262  0.1546  0.4532
  170SAPE   O3119125   2.758   3.192   2.782  0.0282 -0.1555 -0.0853
  170SAPE   C3119126   2.768   3.319   2.739  0.1027  0.0781 -0.0410
  170SAPE   O3219127   2.773   3.356   2.623 -0.3620 -0.2418  0.1449
  170SAPE   C3219128   2.757   3.410   2.857 -0.9479  0.1414  0.1961
  170SAPE   H2X19129   2.830   3.492   2.843 -1.4477  0.9085  1.8464
  170SAPE   H2Y19130   2.780   3.364   2.956 -3.0655  1.1620  1.2220
  170SAPE   C2319131   3.288   3.167   2.930  0.3999 -0.1349 -0.3979
  170SAPE   H3R19132   3.306   3.259   2.869 -0.4922 -0.1880 -0.7593
  170SAPE   H3S19133   3.386   3.121   2.953 -0.4059 -1.2364  0.9718
  170SAPE   C2419134   3.223   3.214   3.063  0.4107  0.0748  0.7709
  170SAPE   H4R19135   3.308   3.258   3.119  0.4101 -1.8653  2.4346
  170SAPE   H4S19136   3.206   3.119   3.118 -1.9314  0.3712  0.6718
  170SAPE   C2519137   3.098   3.293   3.065 -0.2511 -1.2350 -0.3155
  170SAPE   H5R19138   3.076   3.359   2.979 -0.0765 -0.0006  0.5507
  170SAPE   C2619139   3.006   3.293   3.167 -0.6503 -0.9008  0.4669
  170SAPE   H6R19140   2.913   3.350   3.159 -1.0673 -1.5796  0.4743
  170SAPE   C2719141   3.023   3.232   3.300 -0.9913  0.5305 -0.1394
  170SAPE   H7R19142   3.039   3.316   3.370 -1.4444  0.8766 -0.4440
  170SAPE   H7S19143   3.109   3.166   3.322 -1.0873  0.9120  1.4638
  170SAPE   C2819144   2.899   3.171   3.354 -0.4123  0.4870 -0.1707
  170SAPE   H8R19145   2.832   3.134   3.275  0.1935  1.6401 -1.2574
  170SAPE   C2919146   2.872   3.162   3.482  0.5238 -0.4190 -0.1616
  170SAPE   H9R19147   2.774   3.114   3.502  0.1601 -0.2810 -1.4974
  170SAPE  C21019148   2.957   3.197   3.609 -0.1220  0.3018  0.0882
  170SAPE  H10R19149   2.918   3.285   3.665 -3.5957 -0.6808 -0.5363
  170SAPE  H10S19150   3.061   3.226   3.585  0.3396 -1.1444  0.2379
  170SAPE  C21119151   2.978   3.070   3.697  0.1886  0.1472 -0.4180
  170SAPE  H11R19152   2.976   2.972   3.647 -0.4112  0.0275 -0.1740
  170SAPE  C21219153   3.008   3.072   3.829  1.0701  0.4347 -0.0869
  170SAPE  H12R19154   3.028   2.973   3.871 -0.8478 -0.2986 -0.7982
  170SAPE  C21319155   3.022   3.191   3.923  0.4376 -0.2761  0.4386
  170SAPE  H13R19156   3.067   3.282   3.878  0.8448  0.3583  2.0549
  170SAPE  H13S19157   3.092   3.162   4.004 -0.1612 -0.1791  1.0042
  170SAPE  C21419158   2.893   3.238   3.991  0.2675 -0.5502 -0.3220
  170SAPE  H14R19159   2.802   3.261   3.933 -0.0717  0.1477  0.4732
  170SAPE  C21519160   2.893   3.261   4.126  0.5158  0.0486 -0.4811
  170SAPE  H15R19161   2.798   3.296   4.169 -0.6709 -3.5763  0.2529
  170SAPE  C21619162   3.002   3.239   4.226  0.5313 -0.4741  0.2245
  170SAPE  H16R19163   3.014   3.325   4.295  1.0962 -0.5281  0.1938
  170SAPE  H16S19164   3.102   3.227   4.179 -0.1007 -1.7428 -0.8748
  170SAPE  C21719165   2.963   3.121   4.319  0.4137  0.6737  0.5097
  170SAPE  H17R19166   2.865   3.142   4.367  1.2840  2.6029  1.5859
  170SAPE  H17S19167   3.039   3.097   4.397  0.6186 -1.7952 -0.3770
  170SAPE  C21819168   2.942   2.982   4.241 -0.3573  0.0830  0.5503
  170SAPE  H18R19169   3.026   2.940   4.181 -1.1952 -1.9563  0.7133
  170SAPE  H18S19170   2.859   2.997   4.169  0.8015  1.7447 -0.4961
  170SAPE  C21919171   2.904   2.874   4.337  0.5010  0.0039  0.0679
  170SAPE  H19R19172   2.803   2.886   4.383  0.7330  1.1049  0.3261
  170SAPE  H19S19173   2.967   2.891   4.427 -1.3416  1.6895  1.1385
  170SAPE  C22019174   2.914   2.733   4.275  0.1512 -0.5069 -0.1613
  170SAPE  H20R19175   3.011   2.725   4.221  1.1607 -0.6761  1.6134
  170SAPE  H20S19176   2.827   2.713   4.208  0.8728  1.0805 -1.6423
  170SAPE  H20T19177   2.917   2.655   4.354  1.2799 -1.6767 -1.3105
  170SAPE   C3319178   2.611   3.469   2.879  0.5506  0.2912 -0.3864
  170SAPE   H3X19179   2.524   3.402   2.897 -0.0621  0.6351 -1.9515
  170SAPE   H3Y19180   2.564   3.523   2.795  2.5316  1.8095 -0.6105
  170SAPE   C3419181   2.610   3.559   3.008 -0.1582  0.9530 -0.2593
  170SAPE   H4X19182   2.519   3.621   2.996 -2.0713 -2.1746 -4.7234
  170SAPE   H4Y19183   2.701   3.621   3.020 -0.3218  1.0426  0.6064
  170SAPE   C3519184   2.584   3.484   3.138 -0.5166 -0.4777 -0.1805
  170SAPE   H5X19185   2.639   3.387   3.133  0.5141  0.1243 -1.0730
  170SAPE   H5Y19186   2.478   3.453   3.136 -0.2010 -1.5719 -0.5685
  170SAPE   C3619187   2.623   3.568   3.261  0.4667  0.1678 -0.1024
  170SAPE   H6X19188   2.576   3.669   3.265  0.8301  0.3688 -0.7530
  170SAPE   H6Y19189   2.731   3.591   3.254  0.4949  0.0604 -0.0260
  170SAPE   C3719190   2.607   3.505   3.404 -0.8818 -0.1508  0.4605
  170SAPE   H7X19191   2.657   3.406   3.396 -0.2980  0.1477  0.3313
  170SAPE   H7Y19192   2.501   3.486   3.432 -0.7365 -1.0354  0.4360
  170SAPE   C3819193   2.674   3.582   3.515 -0.0272  0.0216  0.2299
  170SAPE   H8X19194   2.605   3.667   3.534  1.6939  0.8976  3.1021
  170SAPE   H8Y19195   2.776   3.613   3.483 -0.7321  1.4817 -0.7266
  170SAPE   C3919196   2.699   3.493   3.640  0.8659 -0.2383  1.0385
  170SAPE   H9X19197   2.759   3.402   3.620 -0.2803 -0.3796 -2.5478
  170SAPE   H9Y19198   2.596   3.457   3.660 -0.1774  2.6573  1.4374
  170SAPE  C31019199   2.762   3.567   3.758  0.0527 -0.2994  0.1259
  170SAPE  H10X19200   2.817   3.657   3.722 -0.3910 -0.7357 -1.7320
  170SAPE  H10Y19201   2.837   3.498   3.802 -1.6276 -1.3518  1.5082
  170SAPE  C31119202   2.662   3.613   3.866  0.3197  0.2994  0.6001
  170SAPE  H11X19203   2.622   3.522   3.917  0.9602  0.0488  0.6678
  170SAPE  H11Y19204   2.584   3.669   3.811 -0.1223  0.2088  1.1294
  170SAPE  C31219205   2.720   3.696   3.982 -0.2780  0.3173 -0.6988
  170SAPE  H12X19206   2.648   3.691   4.067 -2.9628  2.9658 -2.6273
  170SAPE  H12Y19207   2.724   3.803   3.953 -0.4370  0.4988 -0.0751
  170SAPE  C31319208   2.866   3.656   4.022  0.2404 -0.4956 -0.1947
  170SAPE  H13X19209   2.932   3.700   3.945  0.6429  0.1938  0.5319
  170SAPE  H13Y19210   2.886   3.548   4.039  0.1480 -0.4761  0.0408
  170SAPE  C31419211   2.917   3.705   4.167 -0.5241 -0.1484  0.0307
  170SAPE  H14X19212   2.893   3.813   4.175 -0.1282 -0.1931  2.6683
  170SAPE  H14Y19213   3.027   3.697   4.151 -0.4147  2.1029 -0.7103
  170SAPE  C31519214   2.863   3.624   4.282 -0.1437 -0.2904 -0.1375
  170SAPE  H15X19215   2.882   3.517   4.265 -0.6651 -1.5907  5.3252
  170SAPE  H15Y19216   2.755   3.651   4.275 -0.1259 -0.3650 -0.7098
  170SAPE  C31619217   2.904   3.656   4.425  0.1134 -0.2502 -0.8706
  170SAPE  H16X19218   3.014   3.667   4.435  0.0293 -0.1533  0.0598
  170SAPE  H16Y19219   2.875   3.570   4.489 -1.3702 -0.9952 -2.4598
  170SAPE  C31719220   2.848   3.790   4.483  0.6896  0.1699 -0.5448
  170SAPE  H17X19221   2.737   3.784   4.484  0.6078  1.2073 -1.5453
  170SAPE  H17Y19222   2.872   3.873   4.414 -1.8076  0.9931 -0.5333
  170SAPE  C31819223   2.892   3.824   4.623 -0.2042  0.1024 -0.1735
  170SAPE  H18X19224   2.866   3.738   4.688 -0.4647  0.8626  0.7302
  170SAPE  H18Y19225   2.837   3.911   4.664  1.0121 -0.1900  2.2681
  170SAPE  H18Z19226   3.002   3.844   4.621 -0.1842 -0.0169 -1.0613
  171SAPE     N19227   2.305   5.342   1.969 -0.1833  0.3483 -0.0785
  171SAPE   HN119228   2.408   5.332   1.976 -0.2211 -0.0088 -0.0071
  171SAPE   HN219229   2.282   5.432   2.015  0.9638  0.2822  0.6925
  171SAPE   HN319230   2.252   5.269   2.021  2.1719  0.5677  2.9348
  171SAPE   C1219231   2.246   5.355   1.842  0.1880 -0.1830  0.1215
  171SAPE  H12A19232   2.298   5.301   1.761 -1.9292  3.0703 -3.7891
  171SAPE  H12B19233   2.254   5.462   1.811 -2.1432 -0.0357 -0.2143
  171SAPE   C1119234   2.104   5.307   1.832  0.1964  1.0536  0.6347
  171SAPE  H11A19235   2.121   5.200   1.857  2.2532  1.2333  0.1767
  171SAPE  H11B19236   2.056   5.314   1.732 -1.8573 -0.5103  1.4385
  171SAPE     P19237   1.876   5.351   1.954  0.1774  0.1149  0.1283
  171SAPE   O1319238   1.820   5.331   1.814  0.1662 -0.0202  0.2007
  171SAPE   O1419239   1.851   5.237   2.044 -0.6055 -0.5472  0.3512
  171SAPE   O1219240   2.028   5.375   1.936 -0.2435  0.0259 -0.1894
  171SAPE   O1119241   1.819   5.480   2.024  0.3492 -0.6592  0.7914
  171SAPE    C119242   1.885   5.574   2.105  0.0591  1.3451 -1.1168
  171SAPE    HA19243   1.996   5.566   2.105  0.0896 -2.3949  3.3649
  171SAPE    HB19244   1.847   5.675   2.079 -3.2343  0.9130  1.3628
  171SAPE    C219245   1.852   5.560   2.260  0.1950 -0.2593 -0.5463
  171SAPE    HS19246   1.877   5.654   2.314  0.6310 -0.6469 -0.0645
  171SAPE   O2119247   1.924   5.450   2.324 -0.0212 -0.7262 -0.2702
  171SAPE   C2119248   2.052   5.476   2.351  0.0085 -0.2895 -0.3505
  171SAPE   O2219249   2.121   5.571   2.314  0.2634  0.0744  0.3641
  171SAPE   C2219250   2.107   5.366   2.448  1.4397  0.4199 -0.1669
  171SAPE   H2R19251   2.023   5.298   2.472 -0.9579  2.4139 -2.2884
  171SAPE   H2S19252   2.187   5.317   2.387  2.7186  2.2882 -0.0936
  171SAPE    C319253   1.696   5.551   2.274 -0.0875  0.5398  0.1531
  171SAPE    HX19254   1.678   5.442   2.263  0.6735  0.5138 -1.0060
  171SAPE    HY19255   1.643   5.604   2.191  1.3670  0.8722 -0.5937
  171SAPE   O3119256   1.645   5.600   2.400 -0.0266  0.4304 -0.3261
  171SAPE   C3119257   1.520   5.559   2.423 -0.3368 -0.6697  0.1148
  171SAPE   O3219258   1.450   5.487   2.356  0.2672 -0.0345 -0.3354
  171SAPE   C3219259   1.472   5.627   2.541 -0.2102  0.6996  0.3871
  171SAPE   H2X19260   1.483   5.734   2.516  1.6579  0.0778 -1.8168
  171SAPE   H2Y19261   1.539   5.602   2.627 -0.3690 -2.6576 -0.3192
  171SAPE   C2319262   2.169   5.435   2.567  0.2001  0.2727 -0.2459
  171SAPE   H3R19263   2.226   5.528   2.547 -0.4510  0.3004 -2.1355
  171SAPE   H3S19264   2.242   5.371   2.622 -0.4543  0.8285  1.3370
  171SAPE   C2419265   2.058   5.451   2.672  0.5677  0.6770 -0.3166
  171SAPE   H4R19266   2.091   5.498   2.768 -0.8172 -1.8133  1.5014
  171SAPE   H4S19267   2.040   5.347   2.705 -2.0252  0.5059 -1.9753
  171SAPE   C2519268   1.923   5.497   2.632 -0.1987 -0.2358 -0.1958
  171SAPE   H5R19269   1.923   5.601   2.595 -0.4522  0.6204  2.0641
  171SAPE   C2619270   1.802   5.440   2.649  0.1472  0.0388  0.8859
  171SAPE   H6R19271   1.713   5.493   2.612  0.7308 -0.8528 -2.0074
  171SAPE   C2719272   1.777   5.302   2.708 -0.3031 -0.1312 -0.6578
  171SAPE   H7R19273   1.852   5.270   2.783  0.3254  0.5576 -0.9786
  171SAPE   H7S19274   1.787   5.224   2.631  1.2251 -1.8860  1.2114
  171SAPE   C2819275   1.635   5.299   2.764 -0.4646 -0.2089  0.0670
  171SAPE   H8R19276   1.564   5.356   2.703  0.2296 -0.3588 -0.9013
  171SAPE   C2919277   1.590   5.213   2.855 -1.3292  0.4762  0.2868
  171SAPE   H9R19278   1.485   5.205   2.885 -0.8096 -3.4211  1.7252
  171SAPE  C21019279   1.680   5.113   2.938  0.3259 -0.7365 -0.2908
  171SAPE  H10R19280   1.655   5.132   3.044 -0.4255  1.4438 -0.8028
  171SAPE  H10S19281   1.787   5.142   2.938 -0.3838  2.0988 -0.3031
  171SAPE  C21119282   1.656   4.978   2.892  0.2874  0.3008 -0.0492
  171SAPE  H11R19283   1.654   4.948   2.786  1.1911 -5.0330  1.1581
  171SAPE  C21219284   1.614   4.881   2.978  0.0092 -0.4536  0.8155
  171SAPE  H12R19285   1.596   4.781   2.936  2.1113 -0.6026  0.1479
  171SAPE  C21319286   1.598   4.891   3.126  0.1251  0.2933 -0.5158
  171SAPE  H13R19287   1.519   4.960   3.162  0.5560 -0.3957  1.9691
  171SAPE  H13S19288   1.687   4.946   3.164  0.3362 -0.1790 -0.3137
  171SAPE  C21419289   1.589   4.755   3.189 -1.3203  0.4690  0.3157
  171SAPE  H14R19290   1.671   4.687   3.160 -2.2494 -0.5415 -0.0388
  171SAPE  C21519291   1.508   4.700   3.273  0.1490 -0.5104 -0.8408
  171SAPE  H15R19292   1.517   4.590   3.276  0.9516 -0.4311  0.7504
  171SAPE  C21619293   1.391   4.765   3.334  0.2830 -0.3740  0.1510
  171SAPE  H16R19294   1.378   4.870   3.298 -2.3096  0.2264  2.5075
  171SAPE  H16S19295   1.392   4.776   3.444  0.1631  1.5739  0.0003
  171SAPE  C21719296   1.253   4.684   3.302 -0.0581 -0.5231  1.0790
  171SAPE  H17R19297   1.168   4.755   3.311 -0.0338  0.2159 -2.6776
  171SAPE  H17S19298   1.254   4.607   3.382  1.1428 -1.2421  0.3982
  171SAPE  C21819299   1.254   4.603   3.172  0.2538  0.4921 -0.2192
  171SAPE  H18R19300   1.347   4.547   3.150  0.5547  0.6983  0.4943
  171SAPE  H18S19301   1.257   4.678   3.091  3.5835 -0.5299 -1.1962
  171SAPE  C21919302   1.125   4.527   3.159  0.2021  0.2336  0.2277
  171SAPE  H19R19303   1.038   4.596   3.167 -1.3175 -1.5193 -0.5120
  171SAPE  H19S19304   1.118   4.456   3.244  0.9306 -0.4846 -0.2963
  171SAPE  C22019305   1.109   4.450   3.029 -0.1989  0.1583 -0.0160
  171SAPE  H20R19306   1.026   4.378   3.046 -1.1684  1.7576  2.5783
  171SAPE  H20S19307   1.201   4.395   3.000 -0.2510  0.9081 -1.7342
  171SAPE  H20T19308   1.088   4.516   2.941 -2.1063  1.9076  1.6393
  171SAPE   C3319309   1.330   5.565   2.571  1.0433  0.1343 -0.1886
  171SAPE   H3X19310   1.344   5.456   2.588 -0.0880 -0.1154 -0.7255
  171SAPE   H3Y19311   1.267   5.587   2.482  0.0599  1.4035  0.7750
  171SAPE   C3419312   1.261   5.621   2.699 -0.3039  0.4235 -0.5950
  171SAPE   H4X19313   1.248   5.730   2.687 -1.0156  0.4219  0.0469
  171SAPE   H4Y19314   1.332   5.603   2.783 -2.3149  1.7711  1.5139
  171SAPE   C3519315   1.138   5.540   2.737 -0.7095  0.2509 -0.0042
  171SAPE   H5X19316   1.173   5.445   2.783 -2.2283 -0.1059  0.4998
  171SAPE   H5Y19317   1.082   5.512   2.646 -2.3116  1.9309  0.4116
  171SAPE   C3619318   1.045   5.599   2.845  0.0729  0.3181  0.6849
  171SAPE   H6X19319   1.021   5.705   2.824 -0.1400  0.9681  3.7818
  171SAPE   H6Y19320   1.090   5.581   2.945 -1.3449 -0.7361  1.1671
  171SAPE   C3719321   0.907   5.528   2.853 -0.1942 -0.7288 -0.3428
  171SAPE   H7X19322   0.938   5.422   2.843 -0.8182 -0.9143 -0.3260
  171SAPE   H7Y19323   0.853   5.558   2.761 -0.2098 -0.2045 -0.1696
  171SAPE   C3819324   0.829   5.565   2.985  0.4735 -0.0414  0.1488
  171SAPE   H8X19325   0.732   5.512   2.984  0.5127 -0.1318 -1.0503
  171SAPE   H8Y19326   0.821   5.676   2.986 -0.3845 -0.0922  1.7199
  171SAPE   C3919327   0.904   5.519   3.110 -0.0597 -1.1695 -0.3035
  171SAPE   H9X19328   0.988   5.590   3.126 -1.4757  0.9864 -1.8055
  171SAPE   H9Y19329   0.948   5.417   3.114 -0.2241 -1.3115 -1.6563
  171SAPE  C31019330   0.822   5.548   3.237  0.2231  0.4939 -0.0862
  171SAPE  H10X19331   0.867   5.482   3.314 -1.9420 -2.4668 -1.1928
  171SAPE  H10Y19332   0.718   5.514   3.220  0.4508  0.6278 -1.9805
  171SAPE  C31119333   0.818   5.693   3.282 -0.0034 -0.6795 -0.0639
  171SAPE  H11X19334   0.752   5.747   3.213  0.9811  1.5824  0.6703
  171SAPE  H11Y19335   0.919   5.739   3.287  0.2665 -1.2837  0.2180
  171SAPE  C31219336   0.761   5.704   3.429  0.2232 -0.4978 -0.1440
  171SAPE  H12X19337   0.700   5.613   3.446 -2.4703  1.0338 -0.9451
  171SAPE  H12Y19338   0.689   5.788   3.435 -0.3846 -0.9746 -0.6218
  171SAPE  C31319339   0.878   5.707   3.529  0.1744 -0.1144  0.5046
  171SAPE  H13X19340   0.942   5.796   3.507 -0.2924  0.4433  1.3506
  171SAPE  H13Y19341   0.937   5.614   3.513  0.9931  0.4368  0.2225
  171SAPE  C31419342   0.827   5.710   3.678  0.0744  0.0977 -0.0584
  171SAPE  H14X19343   0.735   5.651   3.697  0.7493 -0.4974  1.4925
  171SAPE  H14Y19344   0.784   5.812   3.691  0.2865  0.0921  0.7742
  171SAPE  C31519345   0.938   5.687   3.783  1.1965  0.2186  0.6179
  171SAPE  H15X19346   1.003   5.776   3.796  0.9403  0.4657  0.2121
  171SAPE  H15Y19347   1.005   5.604   3.751  0.0346  0.1871 -1.9914
  171SAPE  C31619348   0.864   5.661   3.918 -0.4978 -0.0950 -0.0093
  171SAPE  H16X19349   0.820   5.560   3.917  1.3341 -1.1438  3.9030
  171SAPE  H16Y19350   0.785   5.737   3.934 -0.8160 -0.8018  2.0198
  171SAPE  C31719351   0.963   5.667   4.041  0.2868 -0.1473  0.3097
  171SAPE  H17X19352   1.056   5.610   4.021  1.3399  1.7939 -0.6881
  171SAPE  H17Y19353   0.903   5.639   4.131  0.5874  2.8314  1.5538
  171SAPE  C31819354   1.001   5.813   4.066 -0.0122 -0.1235 -0.2030
  171SAPE  H18X19355   0.923   5.891   4.055 -1.3399 -1.7253 -3.9464
  171SAPE  H18Y19356   1.078   5.846   3.992 -0.5890  1.5580 -0.0958
  171SAPE  H18Z19357   1.038   5.816   4.171 -2.1621  0.6241  0.5756
  172SAPE     N19358   3.766   2.548   2.356 -0.2723 -0.3158  0.2871
  172SAPE   HN119359   3.840   2.493   2.308 -0.5324 -1.1070  0.7646
  172SAPE   HN219360   3.674   2.534   2.308 -0.7000 -0.0969  1.0200
  172SAPE   HN319361   3.792   2.646   2.335 -2.7396  0.9462  2.4677
  172SAPE   C1219362   3.762   2.530   2.496  0.8354  0.4113 -0.0649
  172SAPE  H12A19363   3.859   2.559   2.541  0.5682 -0.2670  0.9815
  172SAPE  H12B19364   3.750   2.420   2.510  0.4768  0.4260 -0.2338
  172SAPE   C1119365   3.641   2.599   2.558  0.3169 -0.7527  0.2093
  172SAPE  H11A19366   3.644   2.709   2.541  0.6172 -0.7568  0.2242
  172SAPE  H11B19367   3.638   2.580   2.668 -0.7626  3.2306  1.0427
  172SAPE     P19368   3.446   2.437   2.581  0.1848  0.1023  0.4314
  172SAPE   O1319369   3.318   2.402   2.512  0.0163 -0.3651 -0.5335
  172SAPE   O1419370   3.541   2.331   2.612 -0.9039 -0.2219  0.0297
  172SAPE   O1219371   3.523   2.545   2.494  0.3368  0.3378 -0.4247
  172SAPE   O1119372   3.415   2.524   2.708  0.1016  0.1549 -0.5087
  172SAPE    C119373   3.331   2.452   2.811 -0.3955 -0.1261  0.1874
  172SAPE    HA19374   3.233   2.422   2.768 -0.7040  1.4310 -0.2709
  172SAPE    HB19375   3.390   2.362   2.840 -2.2001 -1.0080  1.3321
  172SAPE    C219376   3.311   2.545   2.936 -0.1501 -0.4093  0.4022
  172SAPE    HS19377   3.262   2.481   3.013 -0.7744 -0.6099 -0.1541
  172SAPE   O2119378   3.221   2.647   2.887  0.2380 -0.3133  0.0835
  172SAPE   C2119379   3.092   2.601   2.870 -0.5858 -0.8838 -0.9221
  172SAPE   O2219380   3.048   2.496   2.894 -0.0562 -0.3906  0.2543
  172SAPE   C2219381   3.012   2.722   2.810 -0.6883  0.6063 -0.5093
  172SAPE   H2R19382   3.029   2.809   2.877  0.1606 -0.1230  0.2566
  172SAPE   H2S19383   3.060   2.727   2.710  2.5225 -1.3131  0.7616
  172SAPE    C319384   3.438   2.600   2.996  0.3545  0.3646 -0.3314
  172SAPE    HX19385   3.506   2.648   2.923 -0.1406 -1.5762 -2.1764
  172SAPE    HY19386   3.495   2.513   3.035  0.1297 -0.1733 -1.1740
  172SAPE   O3119387   3.401   2.674   3.114  0.1241 -0.4259  0.2125
  172SAPE   C3119388   3.410   2.799   3.104 -0.4175 -0.4025 -0.1048
  172SAPE   O3219389   3.469   2.869   3.023  0.5077 -0.1580  0.0986
  172SAPE   C3219390   3.339   2.852   3.236 -0.1745  0.5449  0.4722
  172SAPE   H2X19391   3.308   2.761   3.293 -0.7635  0.3553 -0.1307
  172SAPE   H2Y19392   3.252   2.908   3.197  1.2098  0.7856 -2.5927
  172SAPE   C2319393   2.860   2.690   2.794 -0.5932 -0.9088  0.2021
  172SAPE   H3R19394   2.841   2.583   2.775  1.3469 -1.5256  1.4463
  172SAPE   H3S19395   2.819   2.748   2.708  0.3635 -0.3554  0.1046
  172SAPE   C2419396   2.762   2.737   2.908  0.4536 -0.2642 -0.1680
  172SAPE   H4R19397   2.753   2.645   2.969 -3.0296  0.6261  0.8669
  172SAPE   H4S19398   2.664   2.752   2.859 -0.5614  2.0996  2.3464
  172SAPE   C2519399   2.809   2.860   2.983 -0.9788  0.5328 -0.5352
  172SAPE   H5R19400   2.784   2.954   2.931 -0.1758  1.1027  0.0895
  172SAPE   C2619401   2.836   2.866   3.114  1.2341 -0.4019  0.3129
  172SAPE   H6R19402   2.869   2.964   3.151 -1.0417  0.2699  0.7215
  172SAPE   C2719403   2.842   2.749   3.210  0.0682 -0.0335 -0.6741
  172SAPE   H7R19404   2.774   2.664   3.187  1.8980 -1.0531 -2.7774
  172SAPE   H7S19405   2.803   2.788   3.306 -3.3614  0.1512 -1.9925
  172SAPE   C2819406   2.977   2.694   3.233  0.1482  0.7189 -0.3038
  172SAPE   H8R19407   3.055   2.716   3.158 -0.9324  1.0674 -1.3552
  172SAPE   C2919408   3.017   2.641   3.351 -0.2900 -0.2020 -0.4384
  172SAPE   H9R19409   3.116   2.594   3.339  0.0272  0.6058 -1.1063
  172SAPE  C21019410   2.945   2.598   3.473  0.0039  0.3510 -0.3365
  172SAPE  H10R19411   3.015   2.539   3.535  1.0181  0.8978 -0.9282
  172SAPE  H10S19412   2.866   2.531   3.433 -1.8033  2.7011 -0.8727
  172SAPE  C21119413   2.875   2.697   3.561 -0.0772 -0.2985  0.0872
  172SAPE  H11R19414   2.853   2.796   3.518 -2.0300  0.3492  2.3287
  172SAPE  C21219415   2.872   2.704   3.695  0.1315 -0.5955 -0.5862
  172SAPE  H12R19416   2.823   2.791   3.740 -0.4205 -0.5770 -1.2106
  172SAPE  C21319417   2.907   2.589   3.789 -0.1686  0.0776 -0.4171
  172SAPE  H13R19418   2.939   2.497   3.736  0.0740 -0.0843  0.0012
  172SAPE  H13S19419   2.811   2.556   3.834 -0.4892 -0.3704 -1.3956
  172SAPE  C21419420   3.012   2.610   3.898 -0.5457  0.4478 -0.1869
  172SAPE  H14R19421   2.966   2.600   3.998  0.0549 -0.8997 -0.0150
  172SAPE  C21519422   3.142   2.631   3.894  0.0818  0.4329  0.4824
  172SAPE  H15R19423   3.193   2.643   3.990 -0.2465  0.5178  0.6461
  172SAPE  C21619424   3.229   2.649   3.771  0.0898  0.3742  0.2463
  172SAPE  H16R19425   3.289   2.739   3.797 -0.6480  0.3085  2.3943
  172SAPE  H16S19426   3.178   2.672   3.675 -0.2038 -1.1779 -0.0016
  172SAPE  C21719427   3.315   2.524   3.736  0.3720 -0.0711 -0.0278
  172SAPE  H17R19428   3.248   2.437   3.722  1.1235 -0.7030  0.2374
  172SAPE  H17S19429   3.376   2.483   3.819 -1.3288 -2.7918  0.0024
  172SAPE  C21819430   3.406   2.536   3.607  0.7291 -0.2226 -0.0616
  172SAPE  H18R19431   3.340   2.560   3.522  0.2904  2.3007  0.8907
  172SAPE  H18S19432   3.449   2.437   3.583 -0.1762 -0.5823 -0.2313
  172SAPE  C21919433   3.521   2.632   3.612 -0.1145 -0.2685  0.0209
  172SAPE  H19R19434   3.597   2.600   3.686  0.9466  2.1750  0.0964
  172SAPE  H19S19435   3.483   2.728   3.654 -1.3311 -2.5712  5.0800
  172SAPE  C22019436   3.588   2.650   3.472  0.7661 -0.6400 -0.0439
  172SAPE  H20R19437   3.624   2.754   3.456  2.5095 -0.7017  2.7027
  172SAPE  H20S19438   3.525   2.621   3.386  0.9500  0.8420 -0.7271
  172SAPE  H20T19439   3.673   2.580   3.456  0.5051 -0.8594 -0.4599
  172SAPE   C3319440   3.422   2.933   3.335 -0.5252  0.3524  0.3827
  172SAPE   H3X19441   3.456   3.024   3.281  0.3385  0.9242  1.8548
  172SAPE   H3Y19442   3.516   2.883   3.364 -0.4195 -1.0510 -2.1107
  172SAPE   C3419443   3.340   2.979   3.460  0.3579  0.8063 -0.2286
  172SAPE   H4X19444   3.304   2.891   3.517 -2.0293  1.6137 -0.3710
  172SAPE   H4Y19445   3.248   3.031   3.426  1.8116  3.6557 -0.0774
  172SAPE   C3519446   3.428   3.055   3.553  0.0589 -0.0646 -0.2066
  172SAPE   H5X19447   3.470   3.144   3.501 -0.4197 -0.8824 -2.0406
  172SAPE   H5Y19448   3.515   2.992   3.583 -1.2467 -1.6002  0.4675
  172SAPE   C3619449   3.362   3.105   3.688  0.3847 -0.4823 -0.0023
  172SAPE   H6X19450   3.322   3.021   3.749 -0.4436 -0.8889 -1.0561
  172SAPE   H6Y19451   3.285   3.179   3.656  0.5041 -0.1106  0.5650
  172SAPE   C3719452   3.470   3.167   3.781  0.9817  0.3017  0.1730
  172SAPE   H7X19453   3.425   3.233   3.858 -1.6318  0.8745 -1.6780
  172SAPE   H7Y19454   3.555   3.222   3.736  1.3173  0.7486  1.3268
  172SAPE   C3819455   3.542   3.056   3.862  0.8113 -0.1092  0.0890
  172SAPE   H8X19456   3.628   3.108   3.911 -0.4808 -0.2049  2.6053
  172SAPE   H8Y19457   3.569   2.963   3.808 -0.7817 -1.6235  1.7643
  172SAPE   C3919458   3.469   3.002   3.990  0.0626  0.4188  0.4550
  172SAPE   H9X19459   3.519   2.907   4.019 -0.1306 -0.7793 -2.7182
  172SAPE   H9Y19460   3.361   2.983   3.977 -0.0072  0.9760  0.1671
  172SAPE  C31019461   3.478   3.092   4.112 -0.6766  0.3186 -0.6143
  172SAPE  H10X19462   3.421   3.186   4.098 -3.6847 -1.5073 -1.5119
  172SAPE  H10Y19463   3.581   3.134   4.120 -0.1573 -0.4008 -2.8467
  172SAPE  C31119464   3.434   3.032   4.248 -0.9034  0.1336 -0.0103
  172SAPE  H11X19465   3.507   2.953   4.276 -2.3215 -0.2326  3.1753
  172SAPE  H11Y19466   3.328   2.998   4.243 -0.6962 -0.6029  0.4806
  172SAPE  C31219467   3.428   3.143   4.352 -0.0565 -0.0123  0.6546
  172SAPE  H12X19468   3.327   3.191   4.353  0.1858  0.5005  0.6981
  172SAPE  H12Y19469   3.507   3.218   4.332 -0.0477 -0.1577  0.1325
  172SAPE  C31319470   3.442   3.083   4.491  0.2413 -0.8435  0.7496
  172SAPE  H13X19471   3.547   3.050   4.502  0.4307 -0.4696  0.1201
  172SAPE  H13Y19472   3.384   2.988   4.492  0.7629 -1.1667  2.1047
  172SAPE  C31419473   3.412   3.185   4.601  0.1896  0.7879 -0.1579
  172SAPE  H14X19474   3.404   3.131   4.698  1.0310  1.7434  0.4676
  172SAPE  H14Y19475   3.320   3.236   4.567  0.9622  1.3537 -1.4988
  172SAPE  C31519476   3.524   3.285   4.629  0.6032 -0.3981 -0.1430
  172SAPE  H15X19477   3.540   3.338   4.533  1.2533 -0.0971  0.1285
  172SAPE  H15Y19478   3.615   3.235   4.667  1.0014 -0.4853 -1.1886
  172SAPE  C31619479   3.486   3.386   4.744 -0.7947  0.0763 -0.0634
  172SAPE  H16X19480   3.380   3.420   4.752 -1.0467 -0.0890 -2.3152
  172SAPE  H16Y19481   3.557   3.472   4.740  0.6890 -1.1039  0.2390
  172SAPE  C31719482   3.506   3.311   4.882  0.2165  0.4517 -0.5104
  172SAPE  H17X19483   3.614   3.286   4.872  0.3810  0.0546  1.7318
  172SAPE  H17Y19484   3.438   3.224   4.884 -0.2072  0.7195  2.6214
  172SAPE  C31819485   3.462   3.395   4.998 -0.8007 -0.5231 -0.0526
  172SAPE  H18X19486   3.463   3.336   5.093  0.6854 -0.7601 -0.2029
  172SAPE  H18Y19487   3.359   3.435   4.985  0.2497  1.8769 -1.6508
  172SAPE  H18Z19488   3.522   3.487   5.016 -1.4872 -0.1098  0.1672
  173SLPC     N19489   2.090   5.778   6.486 -0.1410  0.3957  0.6150
  173SLPC   C1319490   2.065   5.663   6.578 -0.0863  0.3126  0.3215
  173SLPC  H13A19491   2.019   5.589   6.513  1.6259  0.6148 -1.3111
  173SLPC  H13B19492   2.150   5.607   6.613 -0.0405  0.2830  0.1651
  173SLPC  H13C19493   2.013   5.709   6.660  0.1057  0.5183  0.3270
  173SLPC   C1419494   2.196   5.863   6.544 -0.8600 -0.2909 -0.1232
  173SLPC  H14A19495   2.213   5.953   6.485  0.3704 -0.1452  0.4257
  173SLPC  H14B19496   2.167   5.890   6.644 -1.2160 -0.2007 -0.2493
  173SLPC  H14C19497   2.290   5.809   6.548 -0.4128  0.5287  0.8366
  173SLPC   C1519498   1.958   5.853   6.478  0.0297  0.1010  0.2772
  173SLPC  H15A19499   1.923   5.896   6.570 -1.0673  0.8223 -0.4475
  173SLPC  H15B19500   1.976   5.932   6.407  1.4277 -1.8830 -1.7468
  173SLPC  H15C19501   1.881   5.796   6.427  0.1169 -0.8645  1.1898
  173SLPC   C1219502   2.141   5.726   6.353 -0.5388 -0.5888  0.7130
  173SLPC  H12A19503   2.232   5.671   6.373  0.6205  0.7189 -0.7358
  173SLPC  H12B19504   2.168   5.806   6.287 -3.4542 -0.4203 -0.3928
  173SLPC   C1119505   2.049   5.637   6.270 -0.6085  0.5337 -0.0748
  173SLPC  H11A19506   2.104   5.621   6.175 -0.5639 -0.5415  0.1239
  173SLPC  H11B19507   1.956   5.696   6.256  0.0185  1.7649  0.7781
  173SLPC     P19508   2.131   5.397   6.347  0.1949  0.1623  0.1237
  173SLPC   O1319509   2.259   5.473   6.360  0.3672 -0.7214 -0.3949
  173SLPC   O1419510   2.087   5.310   6.458  0.4687 -0.2469  0.6162
  173SLPC   O1219511   2.017   5.503   6.327  0.1293 -0.5308  0.0256
  173SLPC   O1119512   2.141   5.306   6.216 -0.2759  0.0451 -0.0612
  173SLPC    C119513   2.029   5.224   6.171  0.8278  0.7510  1.2071
  173SLPC    HA19514   2.026   5.124   6.220  0.0041  0.2141  0.1093
  173SLPC    HB19515   1.933   5.274   6.193 -0.9335 -1.4749 -0.9158
  173SLPC    C219516   2.018   5.224   6.015  0.5579  0.4828  0.2823
  173SLPC    HS19517   1.922   5.175   5.988  1.1201  1.4799 -4.5263
  173SLPC   O2119518   2.136   5.148   5.958  0.0144  0.2604  0.1727
  173SLPC   C2119519   2.127   5.017   5.974 -0.5543 -0.3076  0.4417
  173SLPC   O2219520   2.026   4.959   6.005 -0.0830  0.8921  0.0027
  173SLPC   C2219521   2.272   4.964   5.956  0.1357  0.5352 -0.4849
  173SLPC   H2R19522   2.334   5.025   5.887  0.5148  0.3044 -0.3494
  173SLPC   H2S19523   2.323   4.969   6.054 -0.3288  0.3767 -0.2335
  173SLPC    C319524   2.022   5.366   5.952  0.2400  0.1751 -0.3429
  173SLPC    HX19525   2.099   5.424   6.006  1.1136 -0.7305 -0.5903
  173SLPC    HY19526   1.927   5.420   5.972  0.1395 -0.2010  0.2162
  173SLPC   O3119527   2.050   5.371   5.810  0.2757  0.1418 -0.2057
  173SLPC   C3119528   1.946   5.348   5.731  0.1346 -0.5752 -0.0875
  173SLPC   O3219529   1.834   5.315   5.761  0.1627  0.1111  0.3374
  173SLPC   C3219530   1.994   5.375   5.588  0.1242 -0.0214  0.4874
  173SLPC   H2X19531   2.083   5.309   5.580  1.4179  1.8061 -0.7574
  173SLPC   H2Y19532   2.035   5.478   5.593 -0.2760  0.0670  3.1213
  173SLPC   C2319533   2.271   4.814   5.907  0.3064 -0.4002 -0.1462
  173SLPC   H3R19534   2.183   4.785   5.845 -1.6247  0.6908  1.9071
  173SLPC   H3S19535   2.275   4.743   5.992  0.3259  0.6107  0.7233
  173SLPC   C2419536   2.397   4.789   5.826 -0.0182  0.4350  0.2265
  173SLPC   H4R19537   2.491   4.803   5.884 -0.0486 -3.0033  1.3243
  173SLPC   H4S19538   2.416   4.845   5.732  1.0687 -3.1273 -1.8565
  173SLPC   C2519539   2.406   4.638   5.782 -0.9383 -0.5476 -0.1093
  173SLPC   H5R19540   2.317   4.619   5.719 -1.7955  1.4521  0.4236
  173SLPC   H5S19541   2.398   4.576   5.874 -0.4842  1.9074  1.6809
  173SLPC   C2619542   2.530   4.613   5.701 -0.3013 -0.2761 -0.4022
  173SLPC   H6R19543   2.621   4.599   5.764 -0.7656  0.1848  0.3877
  173SLPC   H6S19544   2.543   4.705   5.641  1.9264 -1.5302 -1.9779
  173SLPC   C2719545   2.515   4.496   5.606  0.0193  0.4455  0.7972
  173SLPC   H7R19546   2.612   4.481   5.555  0.1458  1.0197  0.8710
  173SLPC   H7S19547   2.429   4.506   5.536  1.3394  3.1627 -0.5806
  173SLPC   C2819548   2.494   4.369   5.689 -0.3042  0.7915  0.7915
  173SLPC   H8R19549   2.400   4.383   5.746 -0.9598 -2.0736  0.5671
  173SLPC   H8S19550   2.584   4.341   5.747  1.2592 -0.5473 -2.0410
  173SLPC   C2919551   2.455   4.238   5.621 -0.2034 -0.0539 -0.6587
  173SLPC   H9R19552   2.353   4.206   5.647  0.1984  0.5538  1.8909
  173SLPC  C21019553   2.541   4.159   5.561 -0.0529  0.6927 -0.4320
  173SLPC  H10R19554   2.496   4.064   5.529  2.8328 -0.9437 -0.0358
  173SLPC  C21119555   2.688   4.182   5.543  0.5302 -0.1802  0.4268
  173SLPC  H11R19556   2.746   4.195   5.637  1.2401  4.0371 -0.3875
  173SLPC  H11S19557   2.689   4.282   5.495 -0.7638 -0.6654 -0.6754
  173SLPC  C21219558   2.759   4.081   5.464 -0.0807  0.7815 -0.1991
  173SLPC  H12R19559   2.802   3.994   5.516  0.7348  1.3345  0.0668
  173SLPC  C21319560   2.768   4.081   5.331 -0.4476  0.0646 -0.2640
  173SLPC  H13R19561   2.814   3.996   5.279 -0.1844  1.4652 -2.4653
  173SLPC  C21419562   2.710   4.187   5.245 -0.1543 -0.4099  0.0125
  173SLPC  H14R19563   2.784   4.190   5.162  0.0043  1.2564  0.1730
  173SLPC  H14S19564   2.716   4.293   5.280 -0.2891 -0.3185 -0.2397
  173SLPC  C21519565   2.569   4.174   5.181  0.5258  0.3154 -0.1107
  173SLPC  H15R19566   2.498   4.212   5.257  0.0054 -0.4178 -0.2285
  173SLPC  H15S19567   2.533   4.070   5.165 -1.8710  0.9598  0.7354
  173SLPC  C21619568   2.548   4.254   5.052 -0.9194  0.6016  0.5111
  173SLPC  H16R19569   2.450   4.239   5.001 -0.5831 -1.5788  0.4259
  173SLPC  H16S19570   2.622   4.219   4.977 -1.2899  0.9285 -0.0134
  173SLPC  C21719571   2.568   4.409   5.055  0.1680 -0.0346 -0.5305
  173SLPC  H17R19572   2.674   4.435   5.075 -0.5606  3.1296 -0.2270
  173SLPC  H17S19573   2.504   4.447   5.137  1.1218  0.5998 -0.0700
  173SLPC  C21819574   2.526   4.469   4.924  1.2485 -0.1185 -0.4726
  173SLPC  H18R19575   2.421   4.443   4.901  1.5561 -2.8608  0.7652
  173SLPC  H18S19576   2.593   4.435   4.842  2.0739  1.0751 -0.3143
  173SLPC  H18T19577   2.533   4.580   4.917  0.1793 -0.0572 -0.6758
  173SLPC   C3319578   1.883   5.360   5.484  0.2700  0.2076 -0.2301
  173SLPC   H3X19579   1.804   5.431   5.517 -1.0753 -1.4537  0.3279
  173SLPC   H3Y19580   1.833   5.260   5.484 -1.1565  0.8544  1.6479
  173SLPC   C3419581   1.926   5.388   5.342 -0.1334 -0.5146 -0.5218
  173SLPC   H4X19582   2.036   5.375   5.330 -0.1388 -0.2113 -0.9140
  173SLPC   H4Y19583   1.918   5.497   5.325  0.0434 -0.1633  1.4610
  173SLPC   C3519584   1.851   5.302   5.243 -0.1175 -0.2303  0.7570
  173SLPC   H5X19585   1.740   5.313   5.251 -0.1167  0.0143  0.4680
  173SLPC   H5Y19586   1.872   5.193   5.253 -0.0525 -0.4700 -1.4208
  173SLPC   C3619587   1.882   5.334   5.094  0.0192 -0.9521  0.3024
  173SLPC   H6X19588   1.985   5.296   5.077  0.2297 -2.0400  3.4025
  173SLPC   H6Y19589   1.878   5.445   5.091 -4.2391 -0.8760  1.8199
  173SLPC   C3719590   1.784   5.281   4.994  0.1930 -0.3492  0.1669
  173SLPC   H7X19591   1.677   5.296   5.020  0.8192 -1.5750  4.2638
  173SLPC   H7Y19592   1.807   5.174   5.010 -1.2077 -0.5394  1.0348
  173SLPC   C3819593   1.811   5.309   4.846  0.7731 -1.2848 -0.6259
  173SLPC   H8X19594   1.915   5.288   4.815  1.8739  1.9968  0.4501
  173SLPC   H8Y19595   1.805   5.417   4.821 -0.0910 -1.1108  0.2595
  173SLPC   C3919596   1.722   5.228   4.750 -0.2070  0.4558  0.5227
  173SLPC   H9X19597   1.746   5.251   4.644  2.0639 -1.4832  0.5150
  173SLPC   H9Y19598   1.616   5.254   4.767 -0.2980 -0.7199  1.9872
  173SLPC  C31019599   1.740   5.079   4.762 -0.2457 -0.2596  0.3195
  173SLPC  H10X19600   1.698   5.038   4.857  0.1530 -1.8592 -0.1777
  173SLPC  H10Y19601   1.848   5.055   4.756 -0.0164  0.3012  1.7497
  173SLPC  C31119602   1.669   4.995   4.652 -0.3365  0.1347  0.4830
  173SLPC  H11X19603   1.651   5.050   4.556 -0.0727 -1.5541 -0.5676
  173SLPC  H11Y19604   1.564   4.970   4.679 -0.6885  1.4413  0.4224
  173SLPC  C31219605   1.747   4.867   4.629 -0.3282  0.2601  0.6789
  173SLPC  H12X19606   1.747   4.805   4.721 -1.2721  0.5177  0.8611
  173SLPC  H12Y19607   1.854   4.889   4.608 -0.4297  1.8447  1.6417
  173SLPC  C31319608   1.693   4.770   4.523 -0.4991  0.3309 -0.2279
  173SLPC  H13X19609   1.593   4.740   4.559 -0.4897  1.9502  1.3106
  173SLPC  H13Y19610   1.759   4.682   4.538  0.8101  1.1224 -1.0466
  173SLPC  C31419611   1.698   4.818   4.373  0.3963  0.4766 -0.0378
  173SLPC  H14X19612   1.741   4.920   4.365 -3.1700  2.3025  1.7307
  173SLPC  H14Y19613   1.597   4.838   4.330  0.8555  0.7580 -1.0167
  173SLPC  C31519614   1.777   4.723   4.291 -0.1739 -0.7088 -0.1519
  173SLPC  H15X19615   1.738   4.619   4.285 -1.3855 -0.4225  1.7136
  173SLPC  H15Y19616   1.866   4.712   4.357 -0.2528 -2.0780 -0.2490
  173SLPC  C31619617   1.801   4.773   4.152  0.1090  0.6833  0.5527
  173SLPC  H16X19618   1.877   4.854   4.145  0.0063  0.6625 -0.9611
  173SLPC  H16Y19619   1.712   4.819   4.104 -0.3064 -0.4679  0.1909
  173SLPC  C31719620   1.843   4.643   4.073 -0.3073 -0.0792 -0.1542
  173SLPC  H17X19621   1.751   4.582   4.066 -0.3829 -0.0808  0.7973
  173SLPC  H17Y19622   1.917   4.589   4.136 -0.9474 -0.5651  0.1886
  173SLPC  C31819623   1.878   4.668   3.936 -0.0303  0.0965  0.6335
  173SLPC  H18X19624   1.867   4.579   3.870 -0.5838  0.4170  0.2863
  173SLPC  H18Y19625   1.979   4.709   3.914 -0.4235  0.5304 -0.4364
  173SLPC  H18Z19626   1.806   4.747   3.907 -1.1258 -1.2231 -0.3949
  174SLPC     N19627   4.154   0.305   6.479  0.1872 -0.3704 -0.7891
  174SLPC   C1319628   4.188   0.156   6.501 -0.0346 -0.8185  0.4149
  174SLPC  H13A19629   4.234   0.110   6.415  0.3942 -0.0257  0.2113
  174SLPC  H13B19630   4.262   0.160   6.580  1.5639 -0.0632 -1.0629
  174SLPC  H13C19631   4.102   0.098   6.529 -0.9791  0.1673 -0.3669
  174SLPC   C1419632   4.071   0.341   6.602 -0.2738 -0.3309  0.8435
  174SLPC  H14A19633   4.119   0.309   6.694 -0.7376 -2.9157  0.2784
  174SLPC  H14B19634   4.061   0.448   6.608  2.1552 -0.0184  0.3664
  174SLPC  H14C19635   3.975   0.291   6.597 -0.2543 -0.3692  0.8511
  174SLPC   C1519636   4.078   0.325   6.350 -0.3156 -0.5329 -0.5222
  174SLPC  H15A19637   3.979   0.282   6.345 -1.1230  0.8607  1.7105
  174SLPC  H15B19638   4.070   0.431   6.335 -0.4377 -0.6526 -1.3230
  174SLPC  H15C19639   4.138   0.285   6.270  1.8144 -1.5240  1.4376
  174SLPC   C1219640   4.276   0.391   6.471 -0.1654  0.2158 -0.4240
  174SLPC  H12A19641   4.246   0.493   6.457 -1.6479 -0.3760 -1.8652
  174SLPC  H12B19642   4.338   0.367   6.385  1.5158  0.8109  0.5644
  174SLPC   C1119643   4.375   0.384   6.590  0.1936 -0.5147 -0.8622
  174SLPC  H11A19644   4.333   0.400   6.692  1.0885 -0.6098 -0.4706
  174SLPC  H11B19645   4.440   0.470   6.562 -0.5887  0.8737  1.3461
  174SLPC     P19646   4.573   0.242   6.519  0.3349  0.1819  0.0348
  174SLPC   O1319647   4.567   0.324   6.395 -0.5833  0.3845  0.3085
  174SLPC   O1419648   4.678   0.246   6.615 -0.6413  0.0323  0.3353
  174SLPC   O1219649   4.439   0.262   6.602  0.1974 -0.2679  0.7691
  174SLPC   O1119650   4.571   0.089   6.473 -0.6306  0.2433  0.2170
  174SLPC    C119651   4.558   0.057   6.329 -0.6851 -0.2781  0.1279
  174SLPC    HA19652   4.510  -0.042   6.319 -0.8062 -0.2928  0.7948
  174SLPC    HB19653   4.501   0.134   6.273  0.6375  1.5817  1.2124
  174SLPC    C219654   4.698   0.042   6.261  0.1028  0.3111 -0.4174
  174SLPC    HS19655   4.754   0.137   6.275  2.5970 -1.4586  3.0373
  174SLPC   O2119656   4.679   0.002   6.124  0.0215 -0.2953 -0.4944
  174SLPC   C2119657   4.703   0.093   6.033 -0.6280  0.0542  0.5975
  174SLPC   O2219658   4.737   0.207   6.059  0.3218 -0.1317  0.3881
  174SLPC   C2219659   4.693   0.040   5.891 -0.2837 -0.3213 -0.3646
  174SLPC   H2R19660   4.725  -0.066   5.883  0.9366 -0.0121  0.2893
  174SLPC   H2S19661   4.584   0.039   5.867 -0.7029 -2.0188  1.3061
  174SLPC    C319662   4.786  -0.066   6.336 -0.4106 -0.3840  0.4899
  174SLPC    HX19663   4.710  -0.136   6.378 -0.2085 -0.1220  1.3016
  174SLPC    HY19664   4.837  -0.010   6.416 -1.6034  1.1491  0.2347
  174SLPC   O3119665   4.874  -0.148   6.250  0.1506  0.0136  0.4264
  174SLPC   C3119666   4.999  -0.101   6.254  0.2087  0.0066 -0.6594
  174SLPC   O3219667   5.039  -0.007   6.318  0.0866  0.5890 -0.5587
  174SLPC   C3219668   5.087  -0.201   6.175  0.8529 -0.4791  0.5700
  174SLPC   H2X19669   5.037  -0.229   6.080  0.5145  1.3212  0.1808
  174SLPC   H2Y19670   5.087  -0.285   6.247  1.3546 -0.3033  0.7831
  174SLPC   C2319671   4.771   0.131   5.789 -0.0425 -0.3228 -0.6512
  174SLPC   H3R19672   4.880   0.124   5.810  0.1530  2.5109 -0.2593
  174SLPC   H3S19673   4.738   0.237   5.788  0.0334 -0.2836  0.1372
  174SLPC   C2419674   4.752   0.079   5.646  0.9219  0.4937  0.6915
  174SLPC   H4R19675   4.645   0.064   5.621  0.6542  0.5210  1.7603
  174SLPC   H4S19676   4.806  -0.018   5.648  1.5620  0.8121 -0.6248
  174SLPC   C2519677   4.818   0.159   5.533 -0.5464 -0.5057 -0.0911
  174SLPC   H5R19678   4.924   0.171   5.566 -0.6734 -3.3723  1.6848
  174SLPC   H5S19679   4.776   0.261   5.518  1.5868  0.2990 -0.9806
  174SLPC   C2619680   4.809   0.084   5.401  0.0749 -0.0645  0.0466
  174SLPC   H6R19681   4.701   0.066   5.384 -0.3145 -0.3897  2.4636
  174SLPC   H6S19682   4.858  -0.015   5.416  1.8723  0.7739 -0.0434
  174SLPC   C2719683   4.856   0.163   5.282  0.9063 -0.5180 -0.9043
  174SLPC   H7R19684   4.966   0.172   5.290  1.0948 -2.0081 -1.5384
  174SLPC   H7S19685   4.812   0.265   5.284  2.1337  0.0413 -1.3445
  174SLPC   C2819686   4.814   0.104   5.149  0.1736 -0.3022  0.3765
  174SLPC   H8R19687   4.703   0.099   5.147  0.2243 -1.4976 -1.1273
  174SLPC   H8S19688   4.852   0.000   5.158  2.7319  0.5904  0.8193
  174SLPC   C2919689   4.872   0.168   5.031 -0.8068 -0.6092  0.0475
  174SLPC   H9R19690   4.952   0.240   5.055 -1.7955 -0.3170  2.8681
  174SLPC  C21019691   4.812   0.159   4.907 -0.5586 -0.5615 -1.0646
  174SLPC  H10R19692   4.868   0.202   4.823  1.6859 -1.6387 -0.2161
  174SLPC  C21119693   4.699   0.078   4.870 -0.0832  0.4109  0.3061
  174SLPC  H11R19694   4.624   0.148   4.828 -0.7356  0.8762  2.1339
  174SLPC  H11S19695   4.658   0.039   4.966  2.3418  2.5029  2.3410
  174SLPC  C21219696   4.733  -0.033   4.769  0.4066 -0.1761 -0.3612
  174SLPC  H12R19697   4.783  -0.114   4.824  1.2079  0.1104 -0.6388
  174SLPC  C21319698   4.699  -0.043   4.637  0.1391  0.0319  0.5724
  174SLPC  H13R19699   4.728  -0.133   4.582 -0.7078 -0.0565  0.2665
  174SLPC  C21419700   4.629   0.061   4.557 -0.1624  0.3974 -0.1251
  174SLPC  H14R19701   4.643   0.164   4.598 -0.2072 -0.4469  2.1268
  174SLPC  H14S19702   4.519   0.047   4.554  0.1539 -2.8862  0.6109
  174SLPC  C21519703   4.673   0.065   4.409 -0.5396  0.3158  0.3596
  174SLPC  H15R19704   4.663  -0.038   4.367  0.6361 -0.6233  2.2237
  174SLPC  H15S19705   4.783   0.080   4.397 -0.0583 -2.0745  1.1091
  174SLPC  C21619706   4.599   0.173   4.324 -0.1898  0.1183 -0.4201
  174SLPC  H16R19707   4.600   0.275   4.368  2.4242 -0.2117  0.5187
  174SLPC  H16S19708   4.496   0.139   4.303 -0.3179 -0.1132  0.5308
  174SLPC  C21719709   4.655   0.186   4.176  0.5465 -0.0888 -0.0214
  174SLPC  H17R19710   4.628   0.088   4.131 -0.8056 -0.8793  2.3151
  174SLPC  H17S19711   4.763   0.195   4.201  0.5694 -2.4897  1.0320
  174SLPC  C21819712   4.595   0.308   4.098  0.1421  0.2318 -0.6930
  174SLPC  H18R19713   4.601   0.403   4.156 -0.8434 -0.2287  0.2166
  174SLPC  H18S19714   4.486   0.286   4.086 -0.0142  0.1238  0.6608
  174SLPC  H18T19715   4.652   0.315   4.004  1.1396  1.0496 -0.0474
  174SLPC   C3319716   5.225  -0.149   6.150 -0.6425  0.1681 -0.5106
  174SLPC   H3X19717   5.293  -0.225   6.106 -0.4116 -0.2991  0.6158
  174SLPC   H3Y19718   5.273  -0.116   6.245  1.5395  2.5147 -2.2994
  174SLPC   C3419719   5.233  -0.024   6.064  0.6456  0.2944 -0.1129
  174SLPC   H4X19720   5.340  -0.004   6.043  0.8287  1.0132  1.3861
  174SLPC   H4Y19721   5.208   0.074   6.109 -0.3696 -0.2187  0.4618
  174SLPC   C3519722   5.173  -0.055   5.924 -0.5075 -0.2620 -0.0333
  174SLPC   H5X19723   5.065  -0.033   5.937 -0.4307 -0.7372  1.7171
  174SLPC   H5Y19724   5.193  -0.162   5.904  0.3317 -0.4736  1.7078
  174SLPC   C3619725   5.224   0.037   5.805 -0.5610 -0.2145 -0.8341
  174SLPC   H6X19726   5.334   0.032   5.795 -0.5737  2.0276 -3.2441
  174SLPC   H6Y19727   5.210   0.145   5.829 -0.4193  0.8019 -4.6184
  174SLPC   C3719728   5.155   0.005   5.666  0.2941 -0.0184  0.4864
  174SLPC   H7X19729   5.135   0.100   5.613  2.5537  0.8001  1.0229
  174SLPC   H7Y19730   5.062  -0.051   5.694 -0.9708  0.8394 -1.7638
  174SLPC   C3819731   5.236  -0.079   5.564  0.2539  0.5655 -0.4280
  174SLPC   H8X19732   5.243  -0.183   5.603 -1.3279  0.8045  0.5920
  174SLPC   H8Y19733   5.340  -0.040   5.554  0.6877 -0.7820 -1.5433
  174SLPC   C3919734   5.183  -0.079   5.425 -0.0640  0.7387  0.6000
  174SLPC   H9X19735   5.143   0.021   5.398  3.2029  1.2277 -3.6198
  174SLPC   H9Y19736   5.097  -0.149   5.415  0.4718  0.3071 -1.7345
  174SLPC  C31019737   5.287  -0.114   5.323  0.1000 -0.3760 -0.1968
  174SLPC  H10X19738   5.322  -0.218   5.339  1.3323  0.1001  0.3087
  174SLPC  H10Y19739   5.374  -0.048   5.342 -0.4892  0.8154 -1.3910
  174SLPC  C31119740   5.242  -0.070   5.183  0.2057  0.3082 -0.2481
  174SLPC  H11X19741   5.221   0.039   5.184  2.1514  0.8722 -3.6720
  174SLPC  H11Y19742   5.151  -0.129   5.160  1.5492 -1.3164 -1.7082
  174SLPC  C31219743   5.345  -0.099   5.077 -0.0341 -0.6032 -0.1289
  174SLPC  H12X19744   5.341  -0.209   5.063 -2.0215 -0.8063  1.4580
  174SLPC  H12Y19745   5.446  -0.066   5.110 -1.2205  1.5253  1.6765
  174SLPC  C31319746   5.306  -0.039   4.947 -0.2719  0.0857 -0.8691
  174SLPC  H13X19747   5.198  -0.053   4.925  0.3177 -2.1785 -2.6601
  174SLPC  H13Y19748   5.358  -0.107   4.877  0.8195  0.0207 -0.0175
  174SLPC  C31419749   5.330   0.110   4.932  0.7095  0.7840  0.1692
  174SLPC  H14X19750   5.436   0.121   4.960  0.6071  2.0214  0.1314
  174SLPC  H14Y19751   5.268   0.171   5.001 -0.8326  0.7511 -1.1133
  174SLPC  C31519752   5.319   0.168   4.785 -0.5124  0.0639  0.0562
  174SLPC  H15X19753   5.395   0.130   4.714 -2.5570 -2.5680 -0.9029
  174SLPC  H15Y19754   5.305   0.279   4.788  1.9346  0.4034  0.8001
  174SLPC  C31619755   5.199   0.103   4.717  0.2231 -0.2142 -0.3111
  174SLPC  H16X19756   5.116   0.116   4.790  0.4077 -0.1085 -0.1218
  174SLPC  H16Y19757   5.235  -0.002   4.710  1.1871  0.1496 -1.0959
  174SLPC  C31719758   5.170   0.165   4.592 -0.0882 -0.5034  0.4706
  174SLPC  H17X19759   5.259   0.151   4.527 -0.8280 -0.7378 -0.5112
  174SLPC  H17Y19760   5.162   0.274   4.610 -1.0825 -0.8760  2.6479
  174SLPC  C31819761   5.049   0.106   4.506 -0.4696  0.2778 -0.1515
  174SLPC  H18X19762   5.025   0.154   4.409 -1.5039 -0.3997 -0.2461
  174SLPC  H18Y19763   4.955   0.123   4.563 -0.9799  1.1696 -1.2163
  174SLPC  H18Z19764   5.076   0.001   4.483  0.8437  1.0380 -2.3657
  175SLPC     N19765   2.500   6.480   6.253 -0.1576 -0.7010  0.0174
  175SLPC   C1319766   2.537   6.361   6.180 -0.1333  0.5469  0.0296
  175SLPC  H13A19767   2.559   6.282   6.250 -0.8032  0.9245  0.6782
  175SLPC  H13B19768   2.458   6.320   6.118  0.9742 -1.2627 -0.2716
  175SLPC  H13C19769   2.621   6.383   6.115 -0.6682  0.6879 -0.6310
  175SLPC   C1419770   2.609   6.516   6.347 -0.1389  0.2557 -0.6426
  175SLPC  H14A19771   2.693   6.560   6.294  1.0372 -1.0916  0.0322
  175SLPC  H14B19772   2.574   6.589   6.418  0.5799  0.7181 -0.7462
  175SLPC  H14C19773   2.652   6.434   6.403 -0.7524  0.0402 -0.4802
  175SLPC   C1519774   2.380   6.454   6.330  0.7648  0.5620 -0.3321
  175SLPC  H15A19775   2.298   6.427   6.266  0.8789  0.3141 -0.3780
  175SLPC  H15B19776   2.394   6.367   6.393  3.9322  0.5860 -0.8064
  175SLPC  H15C19777   2.355   6.538   6.392  2.1260 -0.4999  1.7982
  175SLPC   C1219778   2.475   6.595   6.153  0.2984  0.1437 -0.6475
  175SLPC  H12A19779   2.404   6.557   6.081 -1.9689 -1.9911  2.4641
  175SLPC  H12B19780   2.568   6.626   6.107 -0.1903  0.7667 -1.2317
  175SLPC   C1119781   2.418   6.730   6.211 -0.1282 -0.0037  0.1696
  175SLPC  H11A19782   2.442   6.812   6.140  1.4025 -0.2362  0.3732
  175SLPC  H11B19783   2.472   6.761   6.302  0.7569  1.9637 -0.9662
  175SLPC     P19784   2.194   6.720   6.081  0.2293 -0.0472 -0.3683
  175SLPC   O1319785   2.218   6.592   6.007  0.3408 -0.0274 -0.1656
  175SLPC   O1419786   2.055   6.739   6.128  0.1800 -0.2899  0.0277
  175SLPC   O1219787   2.283   6.718   6.215  0.1665 -0.0868  0.2069
  175SLPC   O1119788   2.252   6.837   6.003  0.8490  0.7898  0.1808
  175SLPC    C119789   2.231   6.972   6.053  0.2510  0.4668 -0.0207
  175SLPC    HA19790   2.236   6.978   6.163  0.3004  0.9140 -0.0455
  175SLPC    HB19791   2.320   7.037   6.033  1.5969 -0.8778  1.3718
  175SLPC    C219792   2.118   7.047   5.984  0.9460  0.0915  0.2812
  175SLPC    HS19793   2.027   6.985   5.998  1.8662 -1.2302  0.6066
  175SLPC   O2119794   2.157   7.073   5.850  0.2830 -0.5877  0.3635
  175SLPC   C2119795   2.066   7.031   5.761  0.4910  0.1257  0.1618
  175SLPC   O2219796   1.964   6.969   5.783  0.5962 -0.0012  0.0621
  175SLPC   C2219797   2.093   7.090   5.615 -1.1742 -0.8190 -0.3653
  175SLPC   H2R19798   2.046   7.190   5.624 -0.0604 -0.3179  0.0662
  175SLPC   H2S19799   2.204   7.095   5.614 -1.0794 -2.2046  0.5285
  175SLPC    C319800   2.077   7.182   6.045  0.2639 -0.1634 -0.4196
  175SLPC    HX19801   2.161   7.254   6.034 -0.5502  1.0208  0.7662
  175SLPC    HY19802   2.065   7.162   6.154 -1.2028  2.3538 -0.0588
  175SLPC   O3119803   1.956   7.227   5.978 -0.0245 -0.1440 -0.5706
  175SLPC   C3119804   1.935   7.348   6.040  0.4079  0.4793 -0.1561
  175SLPC   O3219805   2.013   7.403   6.116  0.6166 -0.1766  0.6006
  175SLPC   C3219806   1.810   7.418   5.993 -0.4198 -0.0667  0.6339
  175SLPC   H2X19807   1.842   7.521   5.967  0.7905 -1.1619 -2.5965
  175SLPC   H2Y19808   1.734   7.424   6.075  0.0794 -1.4996  1.2324
  175SLPC   C2319809   2.032   7.018   5.495  0.0530  0.4809 -0.5520
  175SLPC   H3R19810   1.921   7.018   5.498 -0.0082  0.4388 -1.9916
  175SLPC   H3S19811   2.046   6.908   5.495  0.2839  0.4455 -2.8921
  175SLPC   C2419812   2.061   7.066   5.355  0.0348 -0.2633 -0.2837
  175SLPC   H4R19813   2.163   7.109   5.359  0.2742 -0.9068  1.4196
  175SLPC   H4S19814   1.992   7.149   5.329 -0.4290 -0.9581 -1.3421
  175SLPC   C2519815   2.037   6.961   5.243  0.0356 -0.7784  0.0969
  175SLPC   H5R19816   1.934   6.920   5.249 -0.2937 -0.1253 -0.7625
  175SLPC   H5S19817   2.104   6.874   5.255  2.1637  0.4639 -1.9446
  175SLPC   C2619818   2.059   7.018   5.104 -0.3277  0.7489 -0.0485
  175SLPC   H6R19819   2.165   7.046   5.090  0.1931 -1.0938 -0.0071
  175SLPC   H6S19820   2.007   7.115   5.088 -1.9721 -0.4087 -2.3167
  175SLPC   C2719821   1.999   6.932   4.993 -0.4515 -0.1432 -0.3670
  175SLPC   H7R19822   1.889   6.918   4.998 -0.5349 -0.4328 -2.2498
  175SLPC   H7S19823   2.044   6.833   5.015 -1.1624 -0.1717  1.0584
  175SLPC   C2819824   2.047   6.967   4.850 -0.9381 -0.0382  0.1158
  175SLPC   H8R19825   2.041   6.870   4.795  0.8389 -0.6298  0.8787
  175SLPC   H8S19826   2.153   6.999   4.862 -0.5223 -0.6763 -1.6073
  175SLPC   C2919827   1.967   7.082   4.786 -0.2645  0.7744 -0.4467
  175SLPC   H9R19828   1.928   7.162   4.850  0.1607  1.2462 -0.7662
  175SLPC  C21019829   1.932   7.083   4.659  0.0933 -0.3963 -0.0348
  175SLPC  H10R19830   1.875   7.171   4.627 -0.3498 -0.8442 -0.4862
  175SLPC  C21119831   1.967   6.978   4.550  0.5568 -0.3551  0.4593
  175SLPC  H11R19832   1.969   6.878   4.599 -0.5107 -0.5896  0.0404
  175SLPC  H11S19833   2.068   6.995   4.508 -0.0273 -0.9170 -1.2729
  175SLPC  C21219834   1.862   6.981   4.436 -0.3948  0.2297 -0.4718
  175SLPC  H12R19835   1.771   6.920   4.443 -0.5677  0.3228 -1.6035
  175SLPC  C21319836   1.871   7.052   4.324 -0.5878 -0.4044  0.0736
  175SLPC  H13R19837   1.795   7.037   4.247  0.3386 -1.0785 -0.7320
  175SLPC  C21419838   1.990   7.138   4.290  0.0210  0.4219 -0.4475
  175SLPC  H14R19839   2.081   7.100   4.341  0.9287  0.3740 -2.0323
  175SLPC  H14S19840   1.967   7.241   4.326 -1.3790  0.7503 -2.1510
  175SLPC  C21519841   2.033   7.130   4.148 -0.8940 -0.2668  0.5244
  175SLPC  H15R19842   1.948   7.145   4.078 -1.1640  0.0924  0.9259
  175SLPC  H15S19843   2.075   7.030   4.125  0.1675  0.0180  1.1342
  175SLPC  C21619844   2.130   7.247   4.125 -0.4257  0.8464  0.0492
  175SLPC  H16R19845   2.189   7.273   4.215  0.5524 -0.9439 -0.0247
  175SLPC  H16S19846   2.063   7.334   4.109  1.0486  1.9319 -0.4329
  175SLPC  C21719847   2.230   7.243   4.010  0.2453 -0.4753 -0.3544
  175SLPC  H17R19848   2.187   7.233   3.908  0.9406 -1.9923 -0.5274
  175SLPC  H17S19849   2.285   7.148   4.029  2.5678  1.1477  1.6349
  175SLPC  C21819850   2.334   7.360   4.002 -0.2722 -0.6712 -0.1093
  175SLPC  H18R19851   2.416   7.350   4.076 -0.4383 -1.2417  0.0070
  175SLPC  H18S19852   2.281   7.457   4.014  0.6136 -0.0290 -1.2135
  175SLPC  H18T19853   2.386   7.360   3.904 -1.4180 -0.7711 -0.7319
  175SLPC   C3319854   1.749   7.349   5.869 -0.7769  0.4702 -0.7165
  175SLPC   H3X19855   1.642   7.380   5.875 -0.7487  0.2727  1.9866
  175SLPC   H3Y19856   1.750   7.238   5.876 -1.8561  0.3919 -1.5168
  175SLPC   C3419857   1.813   7.402   5.739  0.0407 -0.5811  0.2772
  175SLPC   H4X19858   1.923   7.405   5.750 -0.0211  0.6187  0.7015
  175SLPC   H4Y19859   1.760   7.497   5.714 -1.6915 -1.7910 -0.9662
  175SLPC   C3519860   1.781   7.300   5.629 -0.5245  0.1412 -0.1931
  175SLPC   H5X19861   1.671   7.288   5.617 -0.1867 -2.3788 -1.3473
  175SLPC   H5Y19862   1.820   7.199   5.653 -1.4262 -0.3314 -0.6712
  175SLPC   C3619863   1.829   7.341   5.492  0.7180  0.3799  0.4064
  175SLPC   H6X19864   1.821   7.262   5.414 -1.1321  1.2803 -0.3785
  175SLPC   H6Y19865   1.935   7.376   5.495  0.2707  1.7363  1.6414
  175SLPC   C3719866   1.738   7.448   5.434  0.7635  0.0067 -0.1946
  175SLPC   H7X19867   1.743   7.530   5.509  0.3272  0.1371 -0.3029
  175SLPC   H7Y19868   1.631   7.419   5.432  0.8929 -0.4794 -0.1268
  175SLPC   C3819869   1.778   7.500   5.296  0.3511  0.1578 -0.8741
  175SLPC   H8X19870   1.881   7.543   5.297 -0.6414  2.6671  0.0210
  175SLPC   H8Y19871   1.711   7.585   5.272  0.1083  0.4192  0.6691
  175SLPC   C3919872   1.770   7.410   5.176 -0.8109  0.5919 -0.2081
  175SLPC   H9X19873   1.685   7.339   5.175  0.8826 -1.5403 -0.0384
  175SLPC   H9Y19874   1.855   7.338   5.176  0.4451  1.8988 -2.8375
  175SLPC  C31019875   1.785   7.493   5.044 -0.0302  0.0425 -0.1146
  175SLPC  H10X19876   1.893   7.515   5.030  0.3037 -0.9980  0.7005
  175SLPC  H10Y19877   1.726   7.585   5.059  0.3328  0.1676  0.6070
  175SLPC  C31119878   1.736   7.420   4.918 -0.7269  0.3497 -0.2021
  175SLPC  H11X19879   1.637   7.371   4.932 -0.8614  0.7462  0.2680
  175SLPC  H11Y19880   1.808   7.337   4.902 -2.3883 -1.1929 -0.0838
  175SLPC  C31219881   1.738   7.518   4.802  0.2472 -0.0782  0.3896
  175SLPC  H12X19882   1.843   7.553   4.809  0.5079 -1.0315  1.6686
  175SLPC  H12Y19883   1.679   7.612   4.807  0.7516  0.3165 -0.6317
  175SLPC  C31319884   1.709   7.440   4.669 -0.0598 -0.0954 -0.5798
  175SLPC  H13X19885   1.628   7.364   4.674  0.1075 -0.3162 -1.1459
  175SLPC  H13Y19886   1.802   7.382   4.652 -0.8217 -1.7083  0.4777
  175SLPC  C31419887   1.673   7.529   4.548 -0.6627 -0.4498 -0.2369
  175SLPC  H14X19888   1.738   7.617   4.568  1.6546 -2.0204 -0.4130
  175SLPC  H14Y19889   1.566   7.558   4.552 -1.0780 -1.8875 -0.5755
  175SLPC  C31519890   1.708   7.453   4.422 -0.7305  0.3830  0.4419
  175SLPC  H15X19891   1.648   7.359   4.425 -0.2261  0.0839  1.5169
  175SLPC  H15Y19892   1.814   7.422   4.428 -0.8748 -0.7425 -1.7501
  175SLPC  C31619893   1.671   7.530   4.296 -0.3890 -0.2872  0.0538
  175SLPC  H16X19894   1.728   7.625   4.290 -0.9954  0.0486 -0.6954
  175SLPC  H16Y19895   1.565   7.564   4.302 -0.1457  0.3502  0.8372
  175SLPC  C31719896   1.705   7.442   4.172 -0.5013 -0.6777 -0.0562
  175SLPC  H17X19897   1.801   7.393   4.201  1.2778  1.9378 -1.1666
  175SLPC  H17Y19898   1.719   7.511   4.087 -2.0620  0.4299  0.5459
  175SLPC  C31819899   1.597   7.338   4.145  0.1103 -0.3247  0.0970
  175SLPC  H18X19900   1.597   7.266   4.229 -1.5522 -0.1066  0.3167
  175SLPC  H18Y19901   1.624   7.294   4.046 -0.5407 -2.7362  0.9181
  175SLPC  H18Z19902   1.494   7.377   4.130  0.0462 -0.0688  1.1709
  176SLPC     N19903   6.102   3.924   6.657  0.2474 -0.2657 -0.1107
  176SLPC   C1319904   6.150   3.846   6.772  0.2319 -0.4375 -0.2160
  176SLPC  H13A19905   6.176   3.912   6.853  0.5893 -1.0510  0.1807
  176SLPC  H13B19906   6.062   3.790   6.803 -0.5929  0.8107 -0.2442
  176SLPC  H13C19907   6.230   3.780   6.741 -1.1201 -0.7573 -3.3735
  176SLPC   C1419908   6.000   4.026   6.694  0.0105  0.7023 -0.2881
  176SLPC  H14A19909   5.905   3.979   6.716  0.7520 -1.4213 -1.3546
  176SLPC  H14B19910   6.043   4.086   6.773 -1.7764  3.4369 -1.2471
  176SLPC  H14C19911   5.985   4.081   6.602 -3.8831  0.4672  0.0277
  176SLPC   C1519912   6.062   3.834   6.543 -1.0690 -0.4425 -0.6940
  176SLPC  H15A19913   6.136   3.758   6.523  0.0227  0.0483  1.2304
  176SLPC  H15B19914   5.964   3.789   6.543 -2.3160  2.1189 -0.3499
  176SLPC  H15C19915   6.049   3.901   6.459  1.0225  1.4474  0.4055
  176SLPC   C1219916   6.228   3.999   6.610 -0.3855  0.1706 -0.8953
  176SLPC  H12A19917   6.305   3.923   6.608 -0.9175 -0.5183  1.2578
  176SLPC  H12B19918   6.258   4.066   6.690  1.4640  0.1760 -1.5580
  176SLPC   C1119919   6.232   4.081   6.473 -0.2264 -0.0304  0.0468
  176SLPC  H11A19920   6.199   4.014   6.390 -0.2194  0.7046 -0.5553
  176SLPC  H11B19921   6.334   4.120   6.452 -0.3487 -0.5356 -1.5847
  176SLPC     P19922   6.155   4.322   6.556 -0.1896  0.4110 -0.0178
  176SLPC   O1319923   6.017   4.369   6.591  0.3400  0.1476  0.4241
  176SLPC   O1419924   6.249   4.295   6.666 -0.4191 -0.0234 -0.3427
  176SLPC   O1219925   6.134   4.186   6.478  0.2444  0.0932 -0.4405
  176SLPC   O1119926   6.214   4.414   6.444  0.7948 -0.4105  0.4228
  176SLPC    C119927   6.145   4.412   6.318 -0.2140 -0.6403  0.1544
  176SLPC    HA19928   6.147   4.307   6.281 -1.5544 -0.1060 -1.5853
  176SLPC    HB19929   6.037   4.438   6.327 -0.5847 -1.9528 -0.2480
  176SLPC    C219930   6.209   4.507   6.211  0.1204 -0.1781  1.0224
  176SLPC    HS19931   6.305   4.455   6.193 -1.6990 -3.1343 -1.0090
  176SLPC   O2119932   6.217   4.642   6.271  0.4197  0.9292 -0.2847
  176SLPC   C2119933   6.329   4.715   6.239  0.0707  0.5298  0.6238
  176SLPC   O2219934   6.422   4.675   6.173 -0.0971  0.1744 -0.1417
  176SLPC   C2219935   6.299   4.863   6.279 -0.2495  0.0189 -0.2824
  176SLPC   H2R19936   6.197   4.877   6.323 -0.9689 -0.3966 -1.7611
  176SLPC   H2S19937   6.366   4.878   6.367 -1.4517  0.9249  0.5171
  176SLPC    C319938   6.136   4.515   6.075  0.3834 -0.4292 -0.4059
  176SLPC    HX19939   6.049   4.584   6.076  1.2522  0.8127 -2.7547
  176SLPC    HY19940   6.100   4.414   6.047  0.5065 -0.1528 -1.6027
  176SLPC   O3119941   6.217   4.571   5.978  0.2091  0.1872  0.2918
  176SLPC   C3119942   6.307   4.491   5.925  0.2083  0.9837 -0.6861
  176SLPC   O3219943   6.294   4.368   5.919  0.0266 -0.0032 -0.5085
  176SLPC   C3219944   6.419   4.580   5.862  0.0368  0.4162  0.5089
  176SLPC   H2X19945   6.469   4.645   5.938  0.4787  0.8405 -0.1342
  176SLPC   H2Y19946   6.352   4.646   5.802  1.1058 -2.2782 -4.1088
  176SLPC   C2319947   6.307   4.960   6.166 -0.1332 -0.2534 -0.1320
  176SLPC   H3R19948   6.410   4.977   6.129  0.6611  0.9673  2.4579
  176SLPC   H3S19949   6.272   5.059   6.202  0.9111 -0.5492  1.8080
  176SLPC   C2419950   6.224   4.936   6.043 -0.5625  0.6744  0.3512
  176SLPC   H4R19951   6.118   4.917   6.071  0.0306 -2.1628  0.9237
  176SLPC   H4S19952   6.260   4.844   5.992 -0.4625  1.9147 -1.9934
  176SLPC   C2519953   6.223   5.048   5.940 -0.0396 -0.1676 -0.4421
  176SLPC   H5R19954   6.163   5.126   5.992 -0.3851 -0.0491 -1.0128
  176SLPC   H5S19955   6.166   5.026   5.848 -0.0962 -1.8834 -0.0349
  176SLPC   C2619956   6.360   5.109   5.906  0.8004 -0.0199 -0.0197
  176SLPC   H6R19957   6.426   5.033   5.860 -0.5023 -0.1496 -1.7826
  176SLPC   H6S19958   6.400   5.151   6.001 -0.5336  0.3955  0.3705
  176SLPC   C2719959   6.364   5.226   5.810  0.5187 -0.9095 -0.3314
  176SLPC   H7R19960   6.468   5.264   5.819 -0.9960  3.8671  0.1489
  176SLPC   H7S19961   6.304   5.311   5.850 -0.3062 -1.3427 -0.6426
  176SLPC   C2819962   6.320   5.188   5.670  0.3738  0.0621  0.2898
  176SLPC   H8R19963   6.311   5.291   5.630  1.7453  0.4458  0.9114
  176SLPC   H8S19964   6.222   5.136   5.677 -0.0490  0.8024 -0.0555
  176SLPC   C2919965   6.419   5.095   5.600  0.1275  0.3150 -0.1919
  176SLPC   H9R19966   6.436   5.005   5.661  1.0633  1.3044  1.0827
  176SLPC  C21019967   6.490   5.124   5.492 -0.1796 -0.4241  0.5839
  176SLPC  H10R19968   6.529   5.037   5.438 -0.6122 -0.2943  0.0512
  176SLPC  C21119969   6.504   5.259   5.419  0.3050  0.1000 -0.0933
  176SLPC  H11R19970   6.419   5.327   5.442 -0.8552 -0.3945 -2.5570
  176SLPC  H11S19971   6.508   5.244   5.309 -0.0498 -0.5096 -0.0257
  176SLPC  C21219972   6.622   5.341   5.473 -0.6799  1.1085 -0.0295
  176SLPC  H12R19973   6.607   5.373   5.577  0.7972 -4.4497  2.2722
  176SLPC  C21319974   6.746   5.353   5.414  0.2621 -0.1492  0.4442
  176SLPC  H13R19975   6.822   5.409   5.471  0.0007  1.8743 -1.1177
  176SLPC  C21419976   6.795   5.317   5.276  0.1397 -0.2173  0.0311
  176SLPC  H14R19977   6.732   5.241   5.225 -0.8159  0.4878  0.1362
  176SLPC  H14S19978   6.888   5.259   5.297  0.6659  1.2930  2.2855
  176SLPC  C21519979   6.830   5.432   5.176  0.4024 -0.1890 -0.0245
  176SLPC  H15R19980   6.914   5.498   5.203 -1.4083  2.6822 -0.8923
  176SLPC  H15S19981   6.742   5.499   5.161  0.9699  0.5834  0.0662
  176SLPC  C21619982   6.866   5.373   5.036 -0.1756 -0.0163  0.0718
  176SLPC  H16R19983   6.788   5.297   5.014 -0.7655  0.6078 -0.0245
  176SLPC  H16S19984   6.960   5.315   5.046 -0.2240 -0.5625 -2.2181
  176SLPC  C21719985   6.892   5.471   4.923 -0.2170 -0.5393  0.0905
  176SLPC  H17R19986   6.998   5.504   4.934 -0.9506  1.7208  1.0264
  176SLPC  H17S19987   6.831   5.563   4.929  0.0805 -0.3626  0.5117
  176SLPC  C21819988   6.882   5.403   4.783  0.1851  0.1533 -0.7833
  176SLPC  H18R19989   6.781   5.358   4.785  0.6679 -0.9555  0.8136
  176SLPC  H18S19990   6.959   5.323   4.787  1.6353  1.5279  0.3953
  176SLPC  H18T19991   6.889   5.481   4.704  0.1215 -0.8780 -1.8280
  176SLPC   C3319992   6.513   4.499   5.769  0.2327  0.5969  0.7895
  176SLPC   H3X19993   6.548   4.403   5.812  1.7652  0.1334 -1.3325
  176SLPC   H3Y19994   6.607   4.557   5.769  2.2881 -2.4035 -1.7414
  176SLPC   C3419995   6.459   4.473   5.623 -0.2136  0.3718 -0.1337
  176SLPC   H4X19996   6.366   4.414   5.636  2.9628 -5.0123  1.3856
  176SLPC   H4Y19997   6.521   4.399   5.567  0.6838 -0.3098  1.6810
  176SLPC   C3519998   6.442   4.601   5.541  0.5704 -0.1568 -0.3883
  176SLPC   H5X19999   6.527   4.664   5.574  1.6779 -1.0866 -1.3578
  176SLPC   H5Y20000   6.355   4.665   5.566 -0.9099 -0.9576 -3.0139
  176SLPC   C3620001   6.460   4.576   5.395 -0.0032  0.2482  0.0423
  176SLPC   H6X20002   6.393   4.491   5.369 -1.3307  0.1274  3.3668
  176SLPC   H6Y20003   6.566   4.553   5.371 -0.1891 -0.1442 -0.4172
  176SLPC   C3720004   6.419   4.695   5.305  0.0074 -0.2129  0.1772
  176SLPC   H7X20005   6.492   4.772   5.337  1.7985 -1.5071 -0.6342
  176SLPC   H7Y20006   6.314   4.721   5.331 -0.0619  1.0952 -1.2743
  176SLPC   C3820007   6.455   4.664   5.158  0.0377 -0.0325  0.6236
  176SLPC   H8X20008   6.561   4.632   5.151 -0.2425 -0.9879  0.7090
  176SLPC   H8Y20009   6.438   4.754   5.095 -2.1400  1.6505  3.3786
  176SLPC   C3920010   6.365   4.551   5.099 -0.2457 -0.1533  0.2008
  176SLPC   H9X20011   6.256   4.559   5.122 -0.5244 -0.1862 -1.0714
  176SLPC   H9Y20012   6.408   4.458   5.140 -0.1240  0.4349  1.4664
  176SLPC  C31020013   6.376   4.543   4.942 -1.1716 -0.1231  0.3977
  176SLPC  H10X20014   6.347   4.636   4.890  0.8882 -0.7920 -2.1156
  176SLPC  H10Y20015   6.307   4.465   4.903 -1.1469 -0.6562  1.3843
  176SLPC  C31120016   6.514   4.500   4.892 -0.2710 -1.0005  0.4115
  176SLPC  H11X20017   6.525   4.390   4.886  1.4184 -0.7920 -1.5050
  176SLPC  H11Y20018   6.593   4.546   4.956  0.2498 -1.3744  0.0385
  176SLPC  C31220019   6.558   4.554   4.753 -0.5318 -0.0643  0.1361
  176SLPC  H12X20020   6.594   4.659   4.742 -1.1193  0.0427 -0.9363
  176SLPC  H12Y20021   6.467   4.535   4.693  0.5462 -1.6703 -1.0829
  176SLPC  C31320022   6.670   4.463   4.694  0.3474  0.5077 -0.2041
  176SLPC  H13X20023   6.681   4.482   4.585 -0.1851  1.7218 -0.0610
  176SLPC  H13Y20024   6.652   4.355   4.712 -0.4302  0.5557 -0.6211
  176SLPC  C31420025   6.816   4.500   4.737 -0.7283 -0.5407 -0.0932
  176SLPC  H14X20026   6.829   4.465   4.841 -0.2225 -2.1711 -0.6823
  176SLPC  H14Y20027   6.817   4.612   4.733  0.6998 -0.4897  0.8536
  176SLPC  C31520028   6.924   4.443   4.644 -0.1748  0.7266  0.2327
  176SLPC  H15X20029   7.009   4.427   4.714 -1.9142 -0.5315  2.2046
  176SLPC  H15Y20030   6.952   4.517   4.567 -0.3731 -2.9641 -3.7677
  176SLPC  C31620031   6.889   4.306   4.575 -0.0380 -0.1171  0.4120
  176SLPC  H16X20032   6.823   4.327   4.488 -0.1663 -1.2720  0.2152
  176SLPC  H16Y20033   6.833   4.247   4.651 -2.9066 -0.4365 -1.7534
  176SLPC  C31720034   7.013   4.222   4.535 -0.5476  0.0535  0.0193
  176SLPC  H17X20035   7.054   4.264   4.441  1.5434 -1.6924  0.0603
  176SLPC  H17Y20036   6.994   4.115   4.513 -0.7973 -0.4551  2.3974
  176SLPC  C31820037   7.131   4.235   4.632 -0.0538  0.6004 -0.5037
  176SLPC  H18X20038   7.101   4.201   4.734  2.7719 -1.4893 -0.2627
  176SLPC  H18Y20039   7.177   4.335   4.647  1.5142 -0.0931 -0.5637
  176SLPC  H18Z20040   7.207   4.162   4.598  0.2962 -0.2463  1.8848
  177SLPC     N20041   0.713   0.869   6.962  0.5897  0.6304 -0.7090
  177SLPC   C1320042   0.616   0.813   7.074 -0.2287  0.0415 -0.2724
  177SLPC  H13A20043   0.536   0.884   7.090 -0.1744 -0.0434  0.4157
  177SLPC  H13B20044   0.569   0.723   7.038 -0.9437  0.6989 -1.0171
  177SLPC  H13C20045   0.665   0.797   7.169  0.1163  1.6600 -0.1430
  177SLPC   C1420046   0.825   0.772   6.928  0.3703 -0.2793 -1.1700
  177SLPC  H14A20047   0.857   0.799   6.829  0.3613  1.4264 -0.7296
  177SLPC  H14B20048   0.910   0.768   6.994 -0.5598 -1.9997  0.0346
  177SLPC  H14C20049   0.776   0.676   6.916 -2.6650  0.7129  1.5446
  177SLPC   C1520050   0.782   0.986   7.017  0.0560  0.3401  0.1563
  177SLPC  H15A20051   0.713   1.069   7.022  0.7237  1.0481 -1.5786
  177SLPC  H15B20052   0.810   0.963   7.119 -1.7677 -2.5393  0.1240
  177SLPC  H15C20053   0.862   1.017   6.952  0.8322  0.9755  1.3803
  177SLPC   C1220054   0.631   0.908   6.846  0.5737  0.5645  0.7772
  177SLPC  H12A20055   0.685   0.965   6.772 -2.3879  2.8296  0.1400
  177SLPC  H12B20056   0.557   0.983   6.874  0.8349  0.9888  0.3344
  177SLPC   C1120057   0.545   0.801   6.768  0.6863 -0.2037  0.0704
  177SLPC  H11A20058   0.478   0.855   6.698 -0.8658 -0.3458  1.3944
  177SLPC  H11B20059   0.469   0.768   6.841 -0.8292  2.1062 -0.3646
  177SLPC     P20060   0.716   0.717   6.594 -0.4659  0.0971 -0.5727
  177SLPC   O1320061   0.821   0.821   6.617 -0.0960  0.7439 -0.1631
  177SLPC   O1420062   0.771   0.586   6.551  0.0330 -0.5128 -0.2234
  177SLPC   O1220063   0.622   0.691   6.722 -0.2830 -0.0050 -0.3963
  177SLPC   O1120064   0.616   0.769   6.481  0.2948  0.1930 -0.3797
  177SLPC    C120065   0.507   0.682   6.435  0.6054 -0.7671 -0.4198
  177SLPC    HA20066   0.491   0.594   6.501  1.8149 -0.0233  0.9233
  177SLPC    HB20067   0.413   0.741   6.444  1.3435  0.1119  4.2069
  177SLPC    C220068   0.529   0.637   6.293 -0.6556 -0.4942 -0.1245
  177SLPC    HS20069   0.448   0.574   6.251 -1.4624  0.6275 -0.2895
  177SLPC   O2120070   0.653   0.559   6.293 -0.1009 -0.5530 -0.0659
  177SLPC   C2120071   0.684   0.484   6.185 -0.2750 -0.4663  1.0202
  177SLPC   O2220072   0.601   0.444   6.105 -0.0161 -0.3888 -0.4104
  177SLPC   C2220073   0.831   0.449   6.193  0.7543  0.3890 -0.5362
  177SLPC   H2R20074   0.878   0.548   6.213 -0.7535  0.6723  2.2260
  177SLPC   H2S20075   0.841   0.388   6.285 -2.2912  1.0702  0.3706
  177SLPC    C320076   0.545   0.755   6.198  0.0831  0.5310 -0.2907
  177SLPC    HX20077   0.646   0.797   6.220  1.3750 -1.4708 -1.9930
  177SLPC    HY20078   0.467   0.830   6.220 -1.6800 -1.5631  1.0527
  177SLPC   O3120079   0.537   0.720   6.054 -0.7056  0.0352 -0.6277
  177SLPC   C3120080   0.413   0.673   6.012 -0.2654 -0.2035 -0.2042
  177SLPC   O3220081   0.308   0.682   6.075 -0.3143  0.6969  0.2779
  177SLPC   C3220082   0.422   0.625   5.869 -0.4710  1.2124 -0.1048
  177SLPC   H2X20083   0.319   0.641   5.830 -0.2978 -1.0574 -1.6773
  177SLPC   H2Y20084   0.440   0.516   5.874 -0.8034  1.1651  0.1414
  177SLPC   C2320085   0.886   0.394   6.064 -0.0727  0.2805 -0.3902
  177SLPC   H3R20086   0.823   0.314   6.020  2.1211 -1.0945 -1.1890
  177SLPC   H3S20087   0.981   0.349   6.102 -1.1141  0.0385  2.1731
  177SLPC   C2420088   0.912   0.499   5.952 -0.3418 -0.3493 -0.3809
  177SLPC   H4R20089   1.011   0.545   5.972 -0.2517 -0.5259 -0.4195
  177SLPC   H4S20090   0.832   0.576   5.953  0.7434  0.8701 -1.8512
  177SLPC   C2520091   0.909   0.455   5.808  0.5344  0.7773 -0.1711
  177SLPC   H5R20092   0.805   0.434   5.777  1.2080 -0.6769 -1.5540
  177SLPC   H5S20093   0.958   0.356   5.795  0.4504  0.6902  0.1623
  177SLPC   C2620094   0.959   0.562   5.710  0.2655  0.2196  0.2028
  177SLPC   H6R20095   1.069   0.570   5.725  0.7074 -3.8368  0.2061
  177SLPC   H6S20096   0.905   0.658   5.725  1.1513  1.0029 -1.4019
  177SLPC   C2720097   0.939   0.513   5.566  0.0526 -0.6128 -0.1069
  177SLPC   H7R20098   0.831   0.498   5.543 -0.5361  1.3987  1.0082
  177SLPC   H7S20099   0.971   0.407   5.562 -0.8774 -0.8660 -2.4315
  177SLPC   C2820100   1.020   0.591   5.461 -0.1571  0.6628  0.0653
  177SLPC   H8R20101   1.123   0.578   5.499 -1.5167 -1.2249  3.6158
  177SLPC   H8S20102   0.986   0.697   5.457 -3.1620 -0.1056  1.6134
  177SLPC   C2920103   0.992   0.519   5.335 -0.0252 -0.3153 -0.0722
  177SLPC   H9R20104   0.935   0.425   5.330 -2.2120  1.0159 -2.4174
  177SLPC  C21020105   1.045   0.551   5.213  0.4174 -0.2503 -0.4831
  177SLPC  H10R20106   1.006   0.502   5.122  1.0868 -0.9402 -0.4037
  177SLPC  C21120107   1.119   0.681   5.190 -0.5420  0.3398 -0.0665
  177SLPC  H11R20108   1.129   0.750   5.275 -1.1160 -1.0832  1.2114
  177SLPC  H11S20109   1.067   0.738   5.109 -0.2137 -0.2837 -0.7310
  177SLPC  C21220110   1.255   0.642   5.143  0.1057  0.4579  0.1726
  177SLPC  H12R20111   1.317   0.594   5.220 -2.0885  0.5338  2.0935
  177SLPC  C21320112   1.315   0.653   5.025  0.2854  0.3186  0.1671
  177SLPC  H13R20113   1.421   0.623   5.025  0.3874  0.5743  1.7729
  177SLPC  C21420114   1.257   0.705   4.898  0.3846  0.6612  0.0832
  177SLPC  H14R20115   1.323   0.787   4.861 -1.3397  2.1821  0.2237
  177SLPC  H14S20116   1.153   0.744   4.906 -0.2580 -0.9851  0.0969
  177SLPC  C21520117   1.274   0.608   4.780 -0.3686  0.2361  0.7095
  177SLPC  H15R20118   1.198   0.527   4.781  1.4364 -1.5460  0.3479
  177SLPC  H15S20119   1.381   0.579   4.792 -0.1232  0.8162  0.0054
  177SLPC  C21620120   1.276   0.663   4.631 -0.4653 -0.8952  0.3042
  177SLPC  H16R20121   1.372   0.717   4.620 -0.7944 -0.6114 -1.5782
  177SLPC  H16S20122   1.201   0.744   4.622  0.2902 -0.2017  0.1501
  177SLPC  C21720123   1.255   0.560   4.521  0.3503  0.5986  0.1432
  177SLPC  H17R20124   1.234   0.605   4.421 -0.0567 -0.9180 -0.4882
  177SLPC  H17S20125   1.164   0.508   4.559  0.0109  0.3402 -0.9835
  177SLPC  C21820126   1.361   0.456   4.517  0.4907 -0.3222  0.7020
  177SLPC  H18R20127   1.460   0.506   4.502  1.1189 -1.8872 -0.7087
  177SLPC  H18S20128   1.346   0.379   4.438 -0.8929  0.9127 -0.3066
  177SLPC  H18T20129   1.366   0.401   4.613 -2.2566  0.6310  1.4760
  177SLPC   C3320130   0.538   0.688   5.778  0.0336 -0.1782  0.3203
  177SLPC   H3X20131   0.637   0.666   5.822  0.6529 -3.0070 -2.1870
  177SLPC   H3Y20132   0.504   0.792   5.760  0.0832 -0.6701 -3.2131
  177SLPC   C3420133   0.534   0.617   5.645  0.2454 -0.8392  0.3009
  177SLPC   H4X20134   0.430   0.585   5.624 -0.3748  0.4020  1.2813
  177SLPC   H4Y20135   0.596   0.526   5.657 -0.8618 -1.8770 -1.4672
  177SLPC   C3520136   0.593   0.705   5.531  0.3577  0.0182 -0.0854
  177SLPC   H5X20137   0.699   0.732   5.549  0.0190  2.7064 -1.5457
  177SLPC   H5Y20138   0.535   0.798   5.548 -0.1206 -0.6601  2.4547
  177SLPC   C3620139   0.575   0.654   5.386 -0.3271 -0.0513 -0.4980
  177SLPC   H6X20140   0.571   0.544   5.403 -0.7717  0.3371  2.4607
  177SLPC   H6Y20141   0.660   0.690   5.325  0.5296 -0.9917  0.1071
  177SLPC   C3720142   0.450   0.705   5.322 -0.1106 -0.1333 -0.0996
  177SLPC   H7X20143   0.434   0.806   5.366 -1.1534  0.1909 -1.1605
  177SLPC   H7Y20144   0.357   0.646   5.341  1.7437 -2.2189  3.6156
  177SLPC   C3820145   0.470   0.713   5.164  0.1523  0.1263 -0.0789
  177SLPC   H8X20146   0.574   0.710   5.128 -0.0404 -0.0236 -0.6243
  177SLPC   H8Y20147   0.427   0.811   5.134  0.6703  0.6521  0.8533
  177SLPC   C3920148   0.373   0.607   5.104 -0.2672 -0.5926  0.4686
  177SLPC   H9X20149   0.277   0.614   5.158  1.3111  1.3947  3.3200
  177SLPC   H9Y20150   0.429   0.511   5.111  1.8714  0.6481  1.6148
  177SLPC  C31020151   0.352   0.634   4.951  0.3190 -0.8205  0.9101
  177SLPC  H10X20152   0.451   0.652   4.903 -0.8986  2.4479 -0.6222
  177SLPC  H10Y20153   0.291   0.726   4.953  0.7364 -0.5001 -0.3112
  177SLPC  C31120154   0.271   0.532   4.877 -1.1029  1.1614  0.3764
  177SLPC  H11X20155   0.170   0.533   4.924 -2.1080 -1.1538 -1.5114
  177SLPC  H11Y20156   0.332   0.441   4.896  0.4135  2.2795  1.0648
  177SLPC  C31220157   0.274   0.554   4.724 -0.3688  0.1547 -0.5000
  177SLPC  H12X20158   0.372   0.597   4.692  0.0908 -1.0567 -0.7679
  177SLPC  H12Y20159   0.195   0.624   4.691 -0.9893 -0.5858 -0.5941
  177SLPC  C31320160   0.237   0.431   4.639  0.2372 -0.0640 -0.5426
  177SLPC  H13X20161   0.135   0.391   4.657 -1.2421  1.9966 -3.5237
  177SLPC  H13Y20162   0.306   0.345   4.657  1.7634  1.4315  1.1224
  177SLPC  C31420163   0.245   0.467   4.482  0.2814  0.4515 -0.0670
  177SLPC  H14X20164   0.348   0.509   4.470  0.5868  0.6095  2.5612
  177SLPC  H14Y20165   0.176   0.554   4.476 -0.5231 -0.2373 -1.0520
  177SLPC  C31520166   0.204   0.367   4.374  0.0152  0.0109 -0.1086
  177SLPC  H15X20167   0.227   0.408   4.274 -0.6793  0.1807 -0.2073
  177SLPC  H15Y20168   0.097   0.337   4.386 -0.1251  0.3963 -0.3988
  177SLPC  C31620169   0.281   0.230   4.380  0.7679  0.0487 -0.5074
  177SLPC  H16X20170   0.242   0.171   4.295  2.9709  0.3771 -1.8283
  177SLPC  H16Y20171   0.239   0.194   4.476  1.2781  2.2196  0.5929
  177SLPC  C31720172   0.429   0.240   4.371 -0.5424  0.1106 -0.6584
  177SLPC  H17X20173   0.484   0.149   4.404  1.7223  2.0001  1.2015
  177SLPC  H17Y20174   0.447   0.310   4.455 -0.6129  1.1494 -1.4810
  177SLPC  C31820175   0.498   0.293   4.247 -0.4974  0.2062 -0.3433
  177SLPC  H18X20176   0.603   0.310   4.278  0.0976 -0.1121 -2.1200
  177SLPC  H18Y20177   0.450   0.388   4.215  0.2149  0.9786  0.8194
  177SLPC  H18Z20178   0.506   0.214   4.169  0.9949  0.1339 -0.1383
  178SLPC     N20179   4.916   4.579   7.061  0.3777 -0.4992  0.3180
  178SLPC   C1320180   4.811   4.552   7.163  0.5140 -0.3229  0.2950
  178SLPC  H13A20181   4.783   4.448   7.152  0.2188 -0.2296  0.1655
  178SLPC  H13B20182   4.852   4.570   7.261  2.1510 -1.3543 -0.1442
  178SLPC  H13C20183   4.725   4.614   7.147 -0.8192 -1.9114  1.0202
  178SLPC   C1420184   5.011   4.467   7.077  0.5042  0.9176  1.0077
  178SLPC  H14A20185   5.073   4.455   6.989 -0.0261 -3.0717  0.9564
  178SLPC  H14B20186   5.066   4.471   7.170 -2.0513 -0.2563  2.7075
  178SLPC  H14C20187   4.945   4.381   7.086 -2.1557  2.4361 -1.8034
  178SLPC   C1520188   4.982   4.710   7.084 -0.2749 -0.4798 -0.2785
  178SLPC  H15A20189   4.901   4.781   7.076  0.1692  0.0654 -0.0512
  178SLPC  H15B20190   5.028   4.719   7.181 -0.5403  4.0294 -0.3540
  178SLPC  H15C20191   5.051   4.746   7.008 -0.0454  1.3567  0.7288
  178SLPC   C1220192   4.855   4.580   6.927  0.0137  0.1710 -0.5600
  178SLPC  H12A20193   4.784   4.661   6.932  1.0770  1.0567  1.6193
  178SLPC  H12B20194   4.807   4.483   6.914  0.0956 -0.2262  1.7584
  178SLPC   C1120195   4.948   4.595   6.805 -0.3039  0.5659 -0.0252
  178SLPC  H11A20196   4.895   4.570   6.711  0.6512 -2.6180  0.1365
  178SLPC  H11B20197   5.024   4.514   6.809  0.6420  1.4770  1.2360
  178SLPC     P20198   4.963   4.848   6.726 -0.3692  0.1745  0.2591
  178SLPC   O1320199   4.820   4.850   6.732 -0.1514  0.0694  0.0757
  178SLPC   O1420200   5.031   4.969   6.776 -0.6965  0.9323 -0.2049
  178SLPC   O1220201   5.018   4.715   6.800 -0.2374 -0.5263  0.0124
  178SLPC   O1120202   4.992   4.815   6.580 -0.4950 -0.2087 -0.0181
  178SLPC    C120203   5.118   4.757   6.549  0.2982 -0.5816  0.3008
  178SLPC    HA20204   5.205   4.824   6.569  1.3725 -1.6427 -0.6407
  178SLPC    HB20205   5.130   4.652   6.584 -1.1219 -1.6774 -2.1907
  178SLPC    C220206   5.135   4.727   6.401 -0.1270 -0.2632 -0.4288
  178SLPC    HS20207   5.242   4.712   6.379 -0.2240 -0.2803 -0.8993
  178SLPC   O2120208   5.078   4.828   6.315  0.3578 -0.5889 -0.4637
  178SLPC   C2120209   5.132   4.947   6.322 -0.2464 -0.3615  0.4589
  178SLPC   O2220210   5.244   4.972   6.369  0.3586 -0.4118  0.3420
  178SLPC   C2220211   5.037   5.042   6.254 -0.4528 -0.0503 -0.2729
  178SLPC   H2R20212   4.948   5.062   6.317 -1.7942 -1.0757 -1.7780
  178SLPC   H2S20213   5.093   5.138   6.251  0.9302 -0.7273  1.4740
  178SLPC    C320214   5.067   4.587   6.368 -0.5826 -0.3526  0.0439
  178SLPC    HX20215   4.958   4.592   6.392 -1.0467  3.2835 -2.1550
  178SLPC    HY20216   5.107   4.501   6.426 -1.0713 -0.8853 -0.3969
  178SLPC   O3120217   5.077   4.552   6.225 -0.2088 -0.1756 -0.2749
  178SLPC   C3120218   4.969   4.575   6.150 -0.2620 -0.3219 -0.1132
  178SLPC   O3220219   4.866   4.632   6.190 -0.6532  0.0310  0.2855
  178SLPC   C3220220   4.986   4.525   6.009  0.0298  0.0988 -0.1714
  178SLPC   H2X20221   4.971   4.416   6.018  0.7742 -0.1411 -1.5354
  178SLPC   H2Y20222   5.092   4.536   5.976 -0.1233 -0.4008 -0.8482
  178SLPC   C2320223   4.996   4.988   6.116 -0.4700 -0.4732 -0.4603
  178SLPC   H3R20224   4.947   4.889   6.122 -1.5085  0.1238  2.1775
  178SLPC   H3S20225   5.075   4.978   6.038  1.2361 -1.2776  1.2834
  178SLPC   C2420226   4.902   5.090   6.061  0.2810  0.4357  0.6656
  178SLPC   H4R20227   4.813   5.107   6.124  0.0180 -1.2405  0.7900
  178SLPC   H4S20228   4.858   5.041   5.972  0.0113 -0.1564  1.1201
  178SLPC   C2520229   4.966   5.217   6.009 -0.2687  0.3466 -0.3498
  178SLPC   H5R20230   5.050   5.188   5.942  0.0617  0.1818  0.1303
  178SLPC   H5S20231   5.007   5.273   6.095 -2.9852 -2.3230  3.0074
  178SLPC   C2620232   4.867   5.310   5.941 -0.0217  0.3633 -0.9941
  178SLPC   H6R20233   4.916   5.407   5.920 -0.7020  1.2538  1.2154
  178SLPC   H6S20234   4.775   5.319   6.003  0.2019 -0.0735 -0.5893
  178SLPC   C2720235   4.804   5.247   5.811  0.2013  0.1819 -0.6942
  178SLPC   H7R20236   4.733   5.167   5.840  0.0364 -0.3817 -2.5367
  178SLPC   H7S20237   4.894   5.204   5.761 -0.2364  0.6537 -1.9145
  178SLPC   C2820238   4.754   5.362   5.730  0.3079  0.2820  0.2197
  178SLPC   H8R20239   4.846   5.415   5.697 -0.3612  0.7515 -0.9446
  178SLPC   H8S20240   4.694   5.426   5.799  0.4834 -0.2066  0.8278
  178SLPC   C2920241   4.671   5.321   5.610 -0.3487  0.1231 -0.1991
  178SLPC   H9R20242   4.633   5.218   5.600  0.0098  0.1041 -1.5272
  178SLPC  C21020243   4.652   5.396   5.501 -0.4239  0.0863 -0.1622
  178SLPC  H10R20244   4.592   5.353   5.420  0.0897 -0.9674 -0.0046
  178SLPC  C21120245   4.712   5.531   5.478 -0.3053  0.4137  0.7080
  178SLPC  H11R20246   4.761   5.531   5.379 -0.7347 -0.5944  0.4820
  178SLPC  H11S20247   4.803   5.555   5.537  2.3904 -1.8276 -2.2213
  178SLPC  C21220248   4.602   5.626   5.513  0.4462  0.3063  0.3413
  178SLPC  H12R20249   4.563   5.629   5.616  0.3264 -1.5075  0.3928
  178SLPC  C21320250   4.568   5.723   5.425  0.4062 -0.0442 -0.6036
  178SLPC  H13R20251   4.493   5.797   5.459 -0.1822 -1.1719  0.6265
  178SLPC  C21420252   4.601   5.740   5.283 -0.1418 -0.3846 -0.1564
  178SLPC  H14R20253   4.696   5.688   5.260 -0.8055 -1.6016 -0.2072
  178SLPC  H14S20254   4.601   5.846   5.251 -0.2991 -0.5675 -0.7748
  178SLPC  C21520255   4.503   5.667   5.187  0.6466 -0.7945 -0.1914
  178SLPC  H15R20256   4.396   5.687   5.211  0.8908  3.0834 -1.5814
  178SLPC  H15S20257   4.521   5.557   5.196  0.4597 -0.9662 -1.6422
  178SLPC  C21620258   4.512   5.699   5.036 -0.5145 -0.2431  0.7637
  178SLPC  H16R20259   4.622   5.694   5.019 -0.6046 -1.4975  0.4354
  178SLPC  H16S20260   4.481   5.801   5.005  0.2584 -0.0207  0.7071
  178SLPC  C21720261   4.443   5.585   4.956  0.1564  0.4633 -0.1461
  178SLPC  H17R20262   4.465   5.486   5.003 -1.4336  0.0626 -0.1959
  178SLPC  H17S20263   4.491   5.583   4.856 -0.0699 -0.6567 -0.2505
  178SLPC  C21820264   4.290   5.589   4.944 -0.6289  0.3022 -0.6922
  178SLPC  H18R20265   4.251   5.540   5.035  0.8756  1.0960  0.4238
  178SLPC  H18S20266   4.255   5.541   4.850  0.7933  0.3082 -1.2480
  178SLPC  H18T20267   4.266   5.697   4.935  1.8411  1.0152  0.4832
  178SLPC   C3320268   4.891   4.585   5.911 -0.2871 -0.2278  0.0268
  178SLPC   H3X20269   4.793   4.607   5.959  0.1306 -1.3875  1.4963
  178SLPC   H3Y20270   4.859   4.511   5.835 -1.2698  1.0676 -0.8825
  178SLPC   C3420271   4.942   4.704   5.838  0.2613 -0.1878 -0.4148
  178SLPC   H4X20272   5.034   4.673   5.782 -1.2100 -4.5534 -0.7622
  178SLPC   H4Y20273   4.976   4.780   5.912 -0.9521 -0.7051  0.7034
  178SLPC   C3520274   4.844   4.771   5.743  0.2645  0.5429 -1.1578
  178SLPC   H5X20275   4.752   4.789   5.803  1.5418 -1.5021  1.6533
  178SLPC   H5Y20276   4.827   4.693   5.666  1.1675 -2.3794  1.4127
  178SLPC   C3620277   4.894   4.902   5.672 -0.3861 -0.5407  0.0078
  178SLPC   H6X20278   4.996   4.886   5.630 -0.8220 -0.1275 -1.2649
  178SLPC   H6Y20279   4.894   4.986   5.745  0.2185 -1.2511  0.8533
  178SLPC   C3720280   4.804   4.937   5.560 -0.1983  0.8399  0.2466
  178SLPC   H7X20281   4.715   4.992   5.598 -2.9314 -1.9595 -1.6392
  178SLPC   H7Y20282   4.753   4.851   5.513 -1.9287  1.2328  1.2973
  178SLPC   C3820283   4.869   5.022   5.462 -0.3680  0.5798  0.0597
  178SLPC   H8X20284   4.958   4.965   5.429 -0.6017  1.0182 -1.4328
  178SLPC   H8Y20285   4.899   5.118   5.510  1.4402  1.5478 -2.7337
  178SLPC   C3920286   4.781   5.057   5.338 -0.3647  0.2871 -0.1473
  178SLPC   H9X20287   4.696   5.121   5.372  1.1500  1.9625  0.6114
  178SLPC   H9Y20288   4.740   4.965   5.291  1.4526 -0.2673 -0.7134
  178SLPC  C31020289   4.855   5.133   5.223 -0.2762  0.0314  0.4272
  178SLPC  H10X20290   4.929   5.208   5.258 -0.4811  0.4460 -0.0108
  178SLPC  H10Y20291   4.782   5.200   5.171 -0.7542  0.4795  1.6396
  178SLPC  C31120292   4.920   5.033   5.123 -0.0886  0.5500  0.1927
  178SLPC  H11X20293   4.848   4.959   5.082 -0.3287  1.0661 -0.3260
  178SLPC  H11Y20294   4.992   4.976   5.186 -0.8423 -0.1068  0.4804
  178SLPC  C31220295   4.988   5.092   5.001 -1.3567 -0.4468 -0.6620
  178SLPC  H12X20296   5.052   5.174   5.042 -0.6997  0.0723 -2.6383
  178SLPC  H12Y20297   4.926   5.134   4.919 -0.1693  0.7978 -0.9685
  178SLPC  C31320298   5.086   4.991   4.934  0.3324 -0.9252 -0.8945
  178SLPC  H13X20299   5.152   4.948   5.012  1.4282  0.6008 -0.9293
  178SLPC  H13Y20300   5.150   5.049   4.864  0.1970  0.6522  0.2333
  178SLPC  C31420301   5.020   4.879   4.850  0.0088 -0.5215 -0.4511
  178SLPC  H14X20302   4.958   4.926   4.771 -0.6771 -0.1605  0.2901
  178SLPC  H14Y20303   4.957   4.818   4.918 -0.7303  1.1956  0.4529
  178SLPC  C31520304   5.134   4.799   4.789  0.0972  0.0017  0.9111
  178SLPC  H15X20305   5.190   4.744   4.868 -3.2833 -2.3524  1.8912
  178SLPC  H15Y20306   5.207   4.875   4.754  0.1864 -0.0985  0.8811
  178SLPC  C31620307   5.099   4.698   4.674  0.1616 -0.1267  0.2935
  178SLPC  H16X20308   5.051   4.759   4.595  0.1364  0.3747  0.6925
  178SLPC  H16Y20309   5.009   4.638   4.700  0.6871 -0.7373  0.7330
  178SLPC  C31720310   5.212   4.626   4.611 -0.3924  0.5359  0.0046
  178SLPC  H17X20311   5.293   4.628   4.687 -2.1393  0.7911  1.9595
  178SLPC  H17Y20312   5.246   4.695   4.531  1.6491 -0.7265 -0.2997
  178SLPC  C31820313   5.177   4.492   4.560  0.3106  0.2071  0.0785
  178SLPC  H18X20314   5.082   4.486   4.503  0.3820 -0.3692  0.0165
  178SLPC  H18Y20315   5.165   4.424   4.647  0.6086  2.8249  2.2900
  178SLPC  H18Z20316   5.265   4.452   4.505  1.7687  0.8129  1.8531
  179SLPC     N20317   5.878   4.652   2.237 -0.2287 -0.1874 -0.1125
  179SLPC   C1320318   5.856   4.705   2.097  0.0266 -0.4348 -0.0494
  179SLPC  H13A20319   5.945   4.688   2.040 -0.8611 -1.4985 -1.1626
  179SLPC  H13B20320   5.771   4.670   2.041 -0.3900  0.5407 -0.0610
  179SLPC  H13C20321   5.832   4.811   2.096 -0.2683 -0.4522 -3.1171
  179SLPC   C1420322   6.001   4.709   2.296  0.0333 -0.1209 -0.2324
  179SLPC  H14A20323   6.034   4.804   2.255 -0.0232 -0.0991 -0.2277
  179SLPC  H14B20324   5.988   4.715   2.403 -2.9846 -0.8337 -0.4673
  179SLPC  H14C20325   6.087   4.649   2.271  0.6415  1.0056 -0.9503
  179SLPC   C1520326   5.891   4.497   2.233 -0.1547 -0.5042 -0.2010
  179SLPC  H15A20327   5.951   4.454   2.312  1.5404  2.3423  0.1872
  179SLPC  H15B20328   5.793   4.454   2.244 -0.4419  0.3088  0.5783
  179SLPC  H15C20329   5.930   4.461   2.139  3.9976 -1.1199  1.5330
  179SLPC   C1220330   5.760   4.694   2.326 -1.3466 -0.0590  1.0785
  179SLPC  H12A20331   5.681   4.683   2.254 -1.1803  0.3370  0.8296
  179SLPC  H12B20332   5.765   4.797   2.358 -0.4629 -0.1137  1.1606
  179SLPC   C1120333   5.716   4.610   2.446  0.1188  0.1090 -0.4225
  179SLPC  H11A20334   5.631   4.669   2.486  0.5730  1.3517 -1.2361
  179SLPC  H11B20335   5.792   4.608   2.528 -0.8991 -2.4931  0.5463
  179SLPC     P20336   5.710   4.364   2.512  0.0446  0.1218  0.0652
  179SLPC   O1320337   5.644   4.238   2.470 -0.1545  0.0511  0.0295
  179SLPC   O1420338   5.860   4.366   2.523 -0.1868  0.0646 -0.1450
  179SLPC   O1220339   5.668   4.477   2.404 -0.7763 -0.5840 -0.7264
  179SLPC   O1120340   5.655   4.410   2.653  0.6600  0.1163  0.1756
  179SLPC    C120341   5.520   4.437   2.673  0.5510 -0.2058 -0.2994
  179SLPC    HA20342   5.500   4.542   2.641  2.7478 -0.1328 -1.7041
  179SLPC    HB20343   5.456   4.362   2.623  2.7004 -2.1050 -0.3836
  179SLPC    C220344   5.483   4.419   2.819 -0.6857 -0.2391  0.3951
  179SLPC    HS20345   5.554   4.487   2.871 -1.2730  0.6792  0.0285
  179SLPC   O2120346   5.503   4.275   2.848  0.1918  0.6010 -0.6929
  179SLPC   C2120347   5.527   4.252   2.982  0.3777 -0.3144 -0.3800
  179SLPC   O2220348   5.557   4.330   3.066  0.8507  0.3154 -0.5608
  179SLPC   C2220349   5.502   4.101   3.008 -0.4781  0.0662  0.9022
  179SLPC   H2R20350   5.513   4.040   2.916 -0.2983  2.2475 -0.6117
  179SLPC   H2S20351   5.569   4.047   3.079 -1.6110 -3.9883 -0.8260
  179SLPC    C320352   5.336   4.468   2.846  0.2273  0.0115 -0.2820
  179SLPC    HX20353   5.269   4.382   2.823 -1.1214  0.8303  0.4165
  179SLPC    HY20354   5.294   4.556   2.793  0.7846  1.2530  1.2580
  179SLPC   O3120355   5.303   4.495   2.986 -1.3849  0.5107 -0.4150
  179SLPC   C3120356   5.379   4.584   3.054 -0.2825  0.0361 -0.2663
  179SLPC   O3220357   5.460   4.660   3.003  0.1499  0.8831  0.4687
  179SLPC   C3220358   5.339   4.592   3.199  0.6474 -0.2371 -0.9418
  179SLPC   H2X20359   5.267   4.511   3.227  0.2207  0.5657  0.4304
  179SLPC   H2Y20360   5.276   4.683   3.211 -0.1158 -0.6369 -1.7948
  179SLPC   C2320361   5.354   4.068   3.053 -0.1085 -0.4031  0.9196
  179SLPC   H3R20362   5.366   3.958   3.071  0.9159 -0.5166 -0.3114
  179SLPC   H3S20363   5.292   4.091   2.963  1.0511 -2.4490 -0.5045
  179SLPC   C2420364   5.307   4.135   3.181 -0.5618  0.6303 -0.6421
  179SLPC   H4R20365   5.202   4.113   3.211  0.0975 -0.0415  1.3075
  179SLPC   H4S20366   5.315   4.245   3.178 -2.5394  0.8378  0.1845
  179SLPC   C2520367   5.394   4.091   3.303 -0.4009 -0.4635 -0.0207
  179SLPC   H5R20368   5.457   4.182   3.319 -5.0030  2.8402  1.3812
  179SLPC   H5S20369   5.451   3.998   3.286  0.1433 -0.3712  1.1745
  179SLPC   C2620370   5.308   4.075   3.433  0.4311 -0.3942 -0.1452
  179SLPC   H6R20371   5.244   3.986   3.415  1.7945 -1.0620 -2.0217
  179SLPC   H6S20372   5.258   4.173   3.452  2.3151  0.4542  0.7024
  179SLPC   C2720373   5.392   4.052   3.555 -0.1788  0.0886  0.0391
  179SLPC   H7R20374   5.464   4.134   3.571  0.7931 -0.2902 -2.0278
  179SLPC   H7S20375   5.457   3.963   3.536 -0.0402  0.3510 -0.7550
  179SLPC   C2820376   5.311   4.038   3.687  0.4413 -0.8139 -0.4296
  179SLPC   H8R20377   5.380   3.986   3.757 -0.4211 -0.7823  0.4743
  179SLPC   H8S20378   5.228   3.968   3.664 -2.3457  2.2449 -0.4056
  179SLPC   C2920379   5.253   4.167   3.747  0.1313  0.4954  0.1306
  179SLPC   H9R20380   5.202   4.234   3.677 -2.2189 -0.9687  0.3474
  179SLPC  C21020381   5.245   4.201   3.875  0.4819 -0.8085  0.2983
  179SLPC  H10R20382   5.190   4.295   3.889  0.8241 -0.5491 -0.0598
  179SLPC  C21120383   5.306   4.122   3.989  0.3524  0.4185  0.7849
  179SLPC  H11R20384   5.402   4.086   3.947 -0.6265 -2.2232  0.6549
  179SLPC  H11S20385   5.254   4.025   4.002  1.0220 -0.2862 -1.3203
  179SLPC  C21220386   5.307   4.195   4.125 -0.6422  0.0561 -0.3360
  179SLPC  H12R20387   5.406   4.242   4.140  0.2818 -1.8554 -0.1851
  179SLPC  C21320388   5.216   4.192   4.226  0.0564 -0.4658 -0.1397
  179SLPC  H13R20389   5.234   4.262   4.308  0.2757 -0.0953 -0.4978
  179SLPC  C21420390   5.093   4.101   4.228  0.1169 -0.9089 -0.2584
  179SLPC  H14R20391   5.121   4.011   4.286  0.6240 -1.6191 -1.5576
  179SLPC  H14S20392   5.067   4.068   4.125  1.4274  3.5624 -2.2636
  179SLPC  C21520393   4.956   4.164   4.280 -0.7275 -0.1808  1.1774
  179SLPC  H15R20394   4.873   4.092   4.266 -0.0847 -0.5980 -0.9015
  179SLPC  H15S20395   4.930   4.250   4.214 -0.4297  0.2239  1.5819
  179SLPC  C21620396   4.955   4.217   4.423  0.5805 -0.0193 -0.1030
  179SLPC  H16R20397   4.868   4.284   4.441  0.6433 -0.5056  2.4150
  179SLPC  H16S20398   5.043   4.281   4.445 -1.5536  2.7440  1.1410
  179SLPC  C21720399   4.942   4.112   4.527  0.9212  0.2209 -0.4396
  179SLPC  H17R20400   4.956   4.167   4.622 -2.1376  2.7797 -1.2996
  179SLPC  H17S20401   5.019   4.033   4.516 -1.2948 -2.0817 -0.5046
  179SLPC  C21820402   4.814   4.023   4.525  0.4879 -0.1096 -0.7988
  179SLPC  H18R20403   4.840   3.917   4.540 -1.9945 -0.4160  2.8894
  179SLPC  H18S20404   4.761   4.022   4.427  0.6056 -2.9221 -0.9028
  179SLPC  H18T20405   4.747   4.049   4.610  2.3994 -1.3107  1.1814
  179SLPC   C3320406   5.464   4.578   3.295 -0.0355 -0.7221 -0.1461
  179SLPC   H3X20407   5.529   4.666   3.274 -0.0408 -0.9069 -0.9863
  179SLPC   H3Y20408   5.516   4.483   3.271 -1.3782 -1.2101 -1.2076
  179SLPC   C3420409   5.425   4.561   3.451  0.1880 -0.2439 -0.5675
  179SLPC   H4X20410   5.522   4.534   3.498 -1.0351 -0.5543  1.9317
  179SLPC   H4Y20411   5.355   4.475   3.459  0.7463 -0.6789 -0.2460
  179SLPC   C3520412   5.373   4.675   3.530  0.2786  0.1736 -0.0778
  179SLPC   H5X20413   5.443   4.761   3.537 -1.2849  1.4591  0.6180
  179SLPC   H5Y20414   5.287   4.716   3.473 -0.0860 -0.6606 -0.1400
  179SLPC   C3620415   5.321   4.644   3.667 -0.0415 -0.2546  0.3702
  179SLPC   H6X20416   5.247   4.561   3.668 -1.5612  1.0336 -0.7053
  179SLPC   H6Y20417   5.281   4.740   3.704 -3.2986 -1.5221  0.4408
  179SLPC   C3720418   5.435   4.598   3.758  0.3368 -0.4592  0.2541
  179SLPC   H7X20419   5.519   4.670   3.766  1.1386 -1.4288  0.7869
  179SLPC   H7Y20420   5.465   4.493   3.737 -1.8217 -1.4573  1.7006
  179SLPC   C3820421   5.391   4.566   3.904 -0.0180 -0.0135  0.5901
  179SLPC   H8X20422   5.311   4.489   3.896  1.2348 -1.2744 -0.4458
  179SLPC   H8Y20423   5.350   4.657   3.953 -2.2760 -0.1547 -0.8983
  179SLPC   C3920424   5.507   4.500   3.984 -0.5409  0.6569  0.5675
  179SLPC   H9X20425   5.567   4.418   3.939 -3.1804 -1.8372  1.2937
  179SLPC   H9Y20426   5.453   4.455   4.070 -2.5136 -2.6414 -2.1314
  179SLPC  C31020427   5.609   4.598   4.045  0.2183  0.2293  0.4975
  179SLPC  H10X20428   5.557   4.666   4.117  1.7062  1.3159  0.5820
  179SLPC  H10Y20429   5.660   4.646   3.959 -0.4209  0.2858  0.1424
  179SLPC  C31120430   5.716   4.535   4.131 -0.2470  0.4477 -0.3635
  179SLPC  H11X20431   5.776   4.465   4.070  0.2058 -1.0309  1.6662
  179SLPC  H11Y20432   5.668   4.482   4.216 -0.4061  1.4470  0.1839
  179SLPC  C31220433   5.807   4.646   4.178 -0.2179  0.2899 -0.1912
  179SLPC  H12X20434   5.750   4.723   4.234  1.1247  2.9556 -2.2370
  179SLPC  H12Y20435   5.836   4.715   4.096 -1.3845  0.3904 -0.5298
  179SLPC  C31320436   5.930   4.600   4.256 -0.3197 -0.3988 -0.1226
  179SLPC  H13X20437   6.002   4.683   4.274  0.7637 -0.7589 -2.3478
  179SLPC  H13Y20438   5.982   4.532   4.184  0.4363 -1.2133  1.1586
  179SLPC  C31420439   5.903   4.519   4.383 -0.1805 -0.0416 -0.6616
  179SLPC  H14X20440   5.871   4.418   4.352  2.7537 -1.2867 -0.0562
  179SLPC  H14Y20441   5.827   4.584   4.432 -0.0745  2.3997 -3.4501
  179SLPC  C31520442   6.030   4.489   4.469 -0.4286 -0.1524  1.0058
  179SLPC  H15X20443   6.076   4.587   4.494 -0.4353 -0.0597  0.6598
  179SLPC  H15Y20444   6.104   4.444   4.400 -0.9476  1.0213 -0.3660
  179SLPC  C31620445   6.011   4.407   4.601  0.2135 -0.0967 -0.1579
  179SLPC  H16X20446   5.971   4.307   4.574 -1.2096 -0.8312  3.9364
  179SLPC  H16Y20447   5.932   4.450   4.666  0.4060 -1.1839  0.8454
  179SLPC  C31720448   6.140   4.381   4.681  0.0370  0.0918 -0.9713
  179SLPC  H17X20449   6.178   4.476   4.726  1.3731 -1.3951  1.2364
  179SLPC  H17Y20450   6.213   4.322   4.623  0.2661 -2.0974  1.3847
  179SLPC  C31820451   6.119   4.284   4.804 -0.2040 -1.6588  0.3642
  179SLPC  H18X20452   6.057   4.197   4.775 -1.3406 -0.5809 -0.5564
  179SLPC  H18Y20453   6.078   4.347   4.886  6.1724  2.2098  1.3610
  179SLPC  H18Z20454   6.217   4.252   4.845  0.7738  1.5741  0.8642
  180SLPC     N20455   5.443   0.412   1.209 -0.0133  0.0538  0.1370
  180SLPC   C1320456   5.547   0.346   1.280  0.1044  0.5990 -0.8154
  180SLPC  H13A20457   5.524   0.314   1.381 -0.2546  0.3552 -0.9731
  180SLPC  H13B20458   5.586   0.257   1.233  1.6814  0.3771  0.7733
  180SLPC  H13C20459   5.634   0.409   1.290  0.1844  0.4496 -0.5386
  180SLPC   C1420460   5.330   0.317   1.177 -0.0965 -0.4872 -0.1643
  180SLPC  H14A20461   5.359   0.241   1.105 -1.5913 -0.6420 -0.6466
  180SLPC  H14B20462   5.293   0.268   1.267 -0.9088 -0.9345 -0.7211
  180SLPC  H14C20463   5.247   0.366   1.129 -0.2936  0.8184  1.4088
  180SLPC   C1520464   5.493   0.453   1.070  0.2508  0.0856  0.6127
  180SLPC  H15A20465   5.575   0.523   1.075  0.6747 -0.3732  0.2080
  180SLPC  H15B20466   5.541   0.370   1.021 -0.6847 -1.7579  2.6729
  180SLPC  H15C20467   5.406   0.492   1.018  0.9687 -1.2395 -1.7203
  180SLPC   C1220468   5.395   0.535   1.282 -0.6216 -0.5202 -0.7985
  180SLPC  H12A20469   5.327   0.593   1.221 -1.1941  0.0625  0.3553
  180SLPC  H12B20470   5.469   0.610   1.306 -1.9602  0.9066 -0.9446
  180SLPC   C1120471   5.312   0.509   1.411  0.2663  0.1868  0.4526
  180SLPC  H11A20472   5.210   0.485   1.374 -0.4782  2.0669  1.2069
  180SLPC  H11B20473   5.301   0.606   1.463 -2.4343  1.2350 -1.8453
  180SLPC     P20474   5.276   0.314   1.558  0.2401  0.0622 -0.3521
  180SLPC   O1320475   5.191   0.399   1.644  0.6390 -0.9455 -0.4248
  180SLPC   O1420476   5.212   0.217   1.463 -0.5507 -0.0722 -0.0820
  180SLPC   O1220477   5.376   0.408   1.483  0.3595 -0.6099 -0.2132
  180SLPC   O1120478   5.375   0.238   1.658 -0.2246 -0.5061 -0.2115
  180SLPC    C120479   5.491   0.291   1.717  0.5192  0.2821  0.3577
  180SLPC    HA20480   5.583   0.237   1.684  0.3343  0.0659  0.1988
  180SLPC    HB20481   5.512   0.399   1.704 -1.6550  0.9163  1.6472
  180SLPC    C220482   5.498   0.256   1.863  0.0592  0.9616  0.6378
  180SLPC    HS20483   5.496   0.146   1.881 -3.7503  0.9238  0.8489
  180SLPC   O2120484   5.391   0.328   1.934  0.8953  0.4564  0.2918
  180SLPC   C2120485   5.285   0.254   1.955  0.0756  0.1800 -0.8281
  180SLPC   O2220486   5.265   0.140   1.916  0.3603  0.6849  0.9618
  180SLPC   C2220487   5.185   0.325   2.048  0.9343  0.2034  0.0971
  180SLPC   H2R20488   5.154   0.418   1.995  0.5949  0.3481  0.5456
  180SLPC   H2S20489   5.092   0.267   2.065  0.9763 -0.1096 -0.6837
  180SLPC    C320490   5.637   0.305   1.926 -0.2807  0.6962  0.2839
  180SLPC    HX20491   5.650   0.413   1.906  2.0188  0.0653 -2.0941
  180SLPC    HY20492   5.717   0.251   1.870 -2.8337 -0.8896 -2.1189
  180SLPC   O3120493   5.642   0.259   2.070 -0.7520 -0.0805 -0.1345
  180SLPC   C3120494   5.743   0.329   2.131 -0.4449  0.0159  0.4963
  180SLPC   O3220495   5.797   0.428   2.091  0.4465 -0.2897  0.2557
  180SLPC   C3220496   5.770   0.266   2.265 -0.1336  0.3636  0.0695
  180SLPC   H2X20497   5.808   0.163   2.249 -0.8883  0.2500 -1.0650
  180SLPC   H2Y20498   5.678   0.245   2.324 -0.3436 -1.3760 -0.7972
  180SLPC   C2320499   5.247   0.350   2.187 -0.0751 -0.3382 -0.2864
  180SLPC   H3R20500   5.214   0.450   2.222 -1.8641 -0.7121 -0.7975
  180SLPC   H3S20501   5.358   0.344   2.188  0.0647  1.5756 -0.3269
  180SLPC   C2420502   5.192   0.256   2.301 -0.4762 -0.4042 -0.7758
  180SLPC   H4R20503   5.229   0.153   2.285  1.0829  0.2152 -1.3065
  180SLPC   H4S20504   5.085   0.249   2.273 -0.5923 -0.3166 -0.3668
  180SLPC   C2520505   5.213   0.319   2.443 -0.3795  0.3266 -0.1945
  180SLPC   H5R20506   5.185   0.427   2.442 -0.7227  0.2390 -0.5000
  180SLPC   H5S20507   5.321   0.304   2.465  0.0025  0.1638 -2.0303
  180SLPC   C2620508   5.123   0.254   2.549  0.2200  0.9279 -0.0518
  180SLPC   H6R20509   5.154   0.151   2.577 -0.9171  0.7657  0.6879
  180SLPC   H6S20510   5.016   0.259   2.518 -0.3927 -0.8573  1.5807
  180SLPC   C2720511   5.129   0.317   2.682 -0.7877 -0.3098  0.3190
  180SLPC   H7R20512   5.124   0.425   2.656  2.5101 -0.5327 -1.7772
  180SLPC   H7S20513   5.232   0.314   2.723  0.0733  3.1403 -1.2361
  180SLPC   C2820514   5.022   0.271   2.783  0.3487  0.5975 -0.0762
  180SLPC   H8R20515   4.923   0.256   2.737  1.1893  2.0401 -2.5697
  180SLPC   H8S20516   5.005   0.347   2.863 -5.4704  0.2604 -0.6146
  180SLPC   C2920517   5.075   0.149   2.845  0.1984 -0.4604 -0.3107
  180SLPC   H9R20518   5.106   0.069   2.776  0.1495 -0.6856 -0.0774
  180SLPC  C21020519   5.095   0.126   2.973  0.6418 -0.2102  0.2862
  180SLPC  H10R20520   5.126   0.026   3.004 -0.7811 -0.1215  2.2147
  180SLPC  C21120521   5.076   0.214   3.089 -0.3571  0.0048 -0.1140
  180SLPC  H11R20522   5.078   0.321   3.060 -1.0853  0.2840  0.8197
  180SLPC  H11S20523   5.165   0.204   3.155 -0.8708  1.8998  0.9172
  180SLPC  C21220524   4.947   0.189   3.170  1.0188 -0.2817  0.1602
  180SLPC  H12R20525   4.858   0.180   3.107  0.1341 -0.7442  1.4398
  180SLPC  C21320526   4.924   0.197   3.301 -0.2577 -0.0220 -0.3893
  180SLPC  H13R20527   4.822   0.181   3.339 -0.4237 -1.8883 -1.5117
  180SLPC  C21420528   5.031   0.207   3.405 -0.6831 -0.4974  0.4075
  180SLPC  H14R20529   5.122   0.255   3.363 -0.6445 -1.5432 -0.7481
  180SLPC  H14S20530   5.061   0.104   3.433  1.3756 -0.1681 -0.4212
  180SLPC  C21520531   4.977   0.283   3.534  0.2512 -0.7017 -0.4011
  180SLPC  H15R20532   4.924   0.207   3.595  0.7095 -0.2572  0.5751
  180SLPC  H15S20533   4.915   0.373   3.515  0.1484 -0.2381  1.9049
  180SLPC  C21620534   5.098   0.320   3.619  0.6444 -0.3822 -0.1135
  180SLPC  H16R20535   5.138   0.401   3.555  0.0182  0.2465  0.2748
  180SLPC  H16S20536   5.177   0.242   3.615  0.0182 -1.0098 -0.4785
  180SLPC  C21720537   5.074   0.379   3.765 -0.4680  0.1565  0.7314
  180SLPC  H17R20538   5.020   0.477   3.762 -0.6457  0.0442 -1.3191
  180SLPC  H17S20539   5.175   0.396   3.808 -0.8756 -0.3373  1.9195
  180SLPC  C21820540   4.991   0.281   3.860 -0.5022 -0.0837  0.2475
  180SLPC  H18R20541   4.895   0.260   3.808  0.5308 -0.0567 -1.7744
  180SLPC  H18S20542   4.969   0.333   3.956 -0.5129 -0.6190  0.5393
  180SLPC  H18T20543   5.049   0.187   3.877  1.8128  1.1401 -0.4644
  180SLPC   C3320544   5.847   0.362   2.356 -0.2209  0.0193 -0.4280
  180SLPC   H3X20545   5.788   0.455   2.368  0.9444  0.6334  0.9154
  180SLPC   H3Y20546   5.947   0.393   2.317 -0.1083 -0.4238 -0.4972
  180SLPC   C3420547   5.874   0.292   2.489 -0.0066 -0.2979 -0.4273
  180SLPC   H4X20548   5.943   0.207   2.478  1.4169  0.7474  0.1119
  180SLPC   H4Y20549   5.783   0.248   2.535 -0.3011  0.6453 -0.0772
  180SLPC   C3520550   5.932   0.385   2.606  0.4452 -0.4892 -0.2495
  180SLPC   H5X20551   5.864   0.472   2.620  0.0994 -0.9863  1.2764
  180SLPC   H5Y20552   6.034   0.414   2.572  0.1032  0.9136 -0.1603
  180SLPC   C3620553   5.933   0.308   2.743 -0.6888  0.4505 -0.8588
  180SLPC   H6X20554   6.011   0.229   2.734  0.0444  0.9138  0.9189
  180SLPC   H6Y20555   5.842   0.244   2.747  1.2704 -2.4580  0.5105
  180SLPC   C3720556   5.948   0.376   2.878  0.3926  0.3489  0.4589
  180SLPC   H7X20557   5.872   0.457   2.885 -0.1231 -0.0119 -0.7851
  180SLPC   H7Y20558   6.045   0.428   2.891  0.5520  0.2348 -0.2298
  180SLPC   C3820559   5.923   0.276   2.991  0.4850  0.0994 -0.3248
  180SLPC   H8X20560   6.001   0.197   2.978  0.0036 -0.3815 -0.2998
  180SLPC   H8Y20561   5.830   0.216   2.982 -0.4610  0.8363  3.1460
  180SLPC   C3920562   5.919   0.341   3.133  0.5407  0.7048 -0.5120
  180SLPC   H9X20563   5.827   0.403   3.121 -0.3060 -0.1094  1.2528
  180SLPC   H9Y20564   6.013   0.399   3.149  0.4281  0.1313  3.0434
  180SLPC  C31020565   5.901   0.240   3.240 -0.2191 -0.3347  0.0501
  180SLPC  H10X20566   5.991   0.174   3.240 -1.0117 -1.5889  2.9632
  180SLPC  H10Y20567   5.807   0.181   3.232 -0.4722  0.1398 -0.5706
  180SLPC  C31120568   5.909   0.301   3.381 -0.0542 -0.4060  0.0887
  180SLPC  H11X20569   5.829   0.376   3.403  0.6265  0.6080 -0.8186
  180SLPC  H11Y20570   5.997   0.368   3.387  0.5214 -1.2573  2.6244
  180SLPC  C31220571   5.924   0.195   3.493  0.4821 -0.4915 -0.3100
  180SLPC  H12X20572   6.020   0.144   3.476  1.3542  1.9134 -3.5998
  180SLPC  H12Y20573   5.850   0.113   3.478 -1.6722  1.0907  0.9694
  180SLPC  C31320574   5.917   0.249   3.638  0.7884 -0.5055  0.9169
  180SLPC  H13X20575   5.810   0.266   3.665  1.0397  0.0449  1.6103
  180SLPC  H13Y20576   5.985   0.337   3.650  1.9041 -1.2198 -0.0052
  180SLPC  C31420577   5.959   0.142   3.743  0.7374  0.1466 -0.3363
  180SLPC  H14X20578   6.067   0.123   3.728  0.5902 -0.8994 -0.1314
  180SLPC  H14Y20579   5.906   0.048   3.716 -0.6428  0.8861 -0.3137
  180SLPC  C31520580   5.925   0.181   3.891 -0.0302  0.2789  0.5484
  180SLPC  H15X20581   5.963   0.109   3.966  1.2818  0.8437  0.4422
  180SLPC  H15Y20582   5.814   0.171   3.895  0.1010 -1.1786  0.9723
  180SLPC  C31620583   5.982   0.310   3.926  0.0089 -0.6687  0.2372
  180SLPC  H16X20584   5.923   0.390   3.878  1.3779 -0.4689 -1.2007
  180SLPC  H16Y20585   6.086   0.324   3.888 -1.3039 -1.2767 -3.9751
  180SLPC  C31720586   5.984   0.333   4.079 -0.0509  0.0384  0.2748
  180SLPC  H17X20587   6.075   0.396   4.087  1.4578 -2.1429  1.6864
  180SLPC  H17Y20588   5.999   0.245   4.145  0.5458 -0.2376 -0.2207
  180SLPC  C31820589   5.865   0.420   4.130  0.4854  0.2818  0.0857
  180SLPC  H18X20590   5.862   0.517   4.076  0.1786 -0.9152 -2.1720
  180SLPC  H18Y20591   5.866   0.438   4.240  0.3125  1.2153 -0.0594
  180SLPC  H18Z20592   5.769   0.369   4.112  0.2143 -0.0542  2.2062
  181SLPC     N20593   5.019   4.881   1.947  0.0674  1.2114  0.0210
  181SLPC   C1320594   5.113   4.937   1.835  0.1744  0.1865  0.7319
  181SLPC  H13A20595   5.075   5.017   1.774  2.5618 -1.0294 -2.6533
  181SLPC  H13B20596   5.198   4.982   1.884  0.9944 -0.2304 -0.2586
  181SLPC  H13C20597   5.151   4.863   1.766  2.6399  2.0365 -0.0429
  181SLPC   C1420598   5.056   4.734   1.964 -0.4531 -0.4908 -0.2965
  181SLPC  H14A20599   4.992   4.694   2.042 -1.1114  1.0760 -0.0043
  181SLPC  H14B20600   5.035   4.685   1.870 -2.6520 -1.0096  0.3965
  181SLPC  H14C20601   5.161   4.726   1.986 -0.1081  1.1978 -1.2298
  181SLPC   C1520602   4.879   4.879   1.902  0.2020  0.0637  0.1130
  181SLPC  H15A20603   4.816   4.826   1.972  0.6070  0.1077  0.5162
  181SLPC  H15B20604   4.831   4.975   1.913 -0.9115 -0.3704 -0.6784
  181SLPC  H15C20605   4.867   4.845   1.800 -1.5223  2.7596 -0.6800
  181SLPC   C1220606   5.028   4.972   2.076  0.7407  0.1704 -0.0640
  181SLPC  H12A20607   5.027   5.070   2.030 -2.9744 -0.6789 -2.2186
  181SLPC  H12B20608   5.122   4.949   2.124  1.1544  0.6669 -0.6288
  181SLPC   C1120609   4.914   4.962   2.172  0.5257  0.4265  0.0498
  181SLPC  H11A20610   4.814   4.964   2.123  1.0825 -0.3544 -1.1383
  181SLPC  H11B20611   4.927   5.048   2.241  3.2484  0.1692 -0.0356
  181SLPC     P20612   5.031   4.823   2.359 -0.4231 -0.1059 -0.1876
  181SLPC   O1320613   5.033   4.681   2.405 -0.5186  0.2477 -0.0949
  181SLPC   O1420614   5.162   4.875   2.308 -0.0454 -0.0637 -0.5271
  181SLPC   O1220615   4.927   4.837   2.244 -0.0330 -0.7325 -0.1817
  181SLPC   O1120616   4.979   4.919   2.484 -0.2925  0.8248  0.5523
  181SLPC    C120617   4.851   4.896   2.544 -0.4957  0.1205 -0.3855
  181SLPC    HA20618   4.806   4.799   2.513 -2.7213  0.8335  0.4429
  181SLPC    HB20619   4.850   4.893   2.655 -1.3779  0.2223 -0.3813
  181SLPC    C220620   4.762   5.034   2.528 -0.9825 -0.5190 -0.5432
  181SLPC    HS20621   4.745   5.049   2.419  0.3163 -0.0043 -0.6961
  181SLPC   O2120622   4.843   5.142   2.580 -0.2687 -0.0124  1.1045
  181SLPC   C2120623   4.815   5.260   2.534  0.0334 -0.4497  0.3511
  181SLPC   O2220624   4.719   5.285   2.459 -0.0273 -0.4591 -0.1170
  181SLPC   C2220625   4.916   5.359   2.574 -0.0701  0.5188 -0.0932
  181SLPC   H2R20626   5.013   5.318   2.538 -1.0531 -0.3967 -1.8594
  181SLPC   H2S20627   4.897   5.442   2.503 -1.5730 -1.5213 -2.2617
  181SLPC    C320628   4.634   5.032   2.607  0.0774 -0.4333  0.4453
  181SLPC    HX20629   4.578   4.939   2.583 -0.8503  0.1611  0.2650
  181SLPC    HY20630   4.570   5.115   2.571  0.5715 -0.5201 -0.6770
  181SLPC   O3120631   4.674   5.039   2.750  0.0184  0.6339  0.0083
  181SLPC   C3120632   4.655   5.150   2.809  0.4478  0.1719  0.6811
  181SLPC   O3220633   4.586   5.245   2.770  0.3039  0.2112  0.0529
  181SLPC   C3220634   4.739   5.155   2.933 -0.5776 -0.8946  0.1328
  181SLPC   H2X20635   4.796   5.250   2.942 -1.0368 -0.7085  1.2489
  181SLPC   H2Y20636   4.820   5.081   2.917 -0.6224 -0.5843 -1.6879
  181SLPC   C2320637   4.907   5.400   2.722 -0.7854 -0.5933  0.1780
  181SLPC   H3R20638   4.948   5.328   2.795 -3.2351 -2.0676  0.2094
  181SLPC   H3S20639   4.798   5.411   2.741  0.0371  4.5459  4.0603
  181SLPC   C2420640   4.966   5.541   2.749 -0.0236 -0.0434  0.3392
  181SLPC   H4R20641   4.926   5.612   2.674  0.1923 -4.0609 -3.9803
  181SLPC   H4S20642   5.074   5.542   2.722 -0.1336 -1.7852 -0.2624
  181SLPC   C2520643   4.924   5.595   2.885 -0.5638 -0.0964  0.3742
  181SLPC   H5R20644   4.813   5.605   2.893 -0.6262  0.4348 -0.9458
  181SLPC   H5S20645   4.963   5.699   2.884 -1.3589  0.2087 -0.5122
  181SLPC   C2620646   4.975   5.517   3.007  0.3095 -0.2058  0.0901
  181SLPC   H6R20647   5.083   5.491   3.017  0.1216 -0.2804  2.4170
  181SLPC   H6S20648   4.926   5.418   2.997  0.5599 -0.3109 -0.1008
  181SLPC   C2720649   4.938   5.589   3.137  0.0190 -0.4113 -0.5300
  181SLPC   H7R20650   4.827   5.596   3.137  0.1344  3.4020 -1.1652
  181SLPC   H7S20651   4.977   5.693   3.134 -2.0448  0.3964 -2.7559
  181SLPC   C2820652   4.980   5.514   3.267 -0.0720 -0.2643  0.8375
  181SLPC   H8R20653   4.973   5.406   3.239 -3.3599  0.0232  0.0701
  181SLPC   H8S20654   4.904   5.541   3.343  1.7109  2.0873  1.8943
  181SLPC   C2920655   5.118   5.541   3.319  0.2380 -0.1576  0.1290
  181SLPC   H9R20656   5.200   5.554   3.247 -0.3786  2.3432 -0.2152
  181SLPC  C21020657   5.152   5.553   3.449  0.0909 -0.1973  0.1544
  181SLPC  H10R20658   5.259   5.565   3.473  0.6085 -0.4487 -1.8258
  181SLPC  C21120659   5.063   5.545   3.569  0.1603  0.4303 -0.2087
  181SLPC  H11R20660   4.974   5.606   3.542  0.8926  0.8653 -1.7458
  181SLPC  H11S20661   5.108   5.592   3.659  0.5748 -1.7403  0.7744
  181SLPC  C21220662   5.011   5.408   3.600 -0.7037 -0.3391  0.4299
  181SLPC  H12R20663   5.020   5.333   3.520  3.8217 -0.2004  0.5524
  181SLPC  C21320664   4.957   5.370   3.716  0.7269  0.4693 -0.2270
  181SLPC  H13R20665   4.933   5.263   3.723  0.1388  0.5975 -0.2127
  181SLPC  C21420666   4.939   5.444   3.840 -0.2952 -0.3324 -0.6772
  181SLPC  H14R20667   4.879   5.533   3.812  1.6535  0.8143 -1.4632
  181SLPC  H14S20668   5.041   5.483   3.862  0.5319 -0.3167 -3.9959
  181SLPC  C21520669   4.883   5.351   3.949  0.3304  0.0731  0.3548
  181SLPC  H15R20670   4.952   5.266   3.967  0.2859  0.1373  0.8502
  181SLPC  H15S20671   4.785   5.313   3.913  0.4167  0.4853 -0.3246
  181SLPC  C21620672   4.875   5.432   4.082 -0.6615 -0.2489 -0.1226
  181SLPC  H16R20673   4.778   5.485   4.083 -1.4780 -1.6895  0.9967
  181SLPC  H16S20674   4.965   5.497   4.086  0.3430 -1.6362  1.1015
  181SLPC  C21720675   4.895   5.341   4.206 -0.3753 -0.5942  0.2265
  181SLPC  H17R20676   4.948   5.395   4.288 -1.1648 -0.7657  0.8664
  181SLPC  H17S20677   4.966   5.263   4.173 -0.4076 -0.9732  1.0116
  181SLPC  C21820678   4.774   5.270   4.251  0.0014 -0.4132 -0.5242
  181SLPC  H18R20679   4.743   5.194   4.176  2.6693 -1.4834 -0.6417
  181SLPC  H18S20680   4.696   5.342   4.286 -1.0880 -0.7261 -2.1921
  181SLPC  H18T20681   4.806   5.207   4.337  3.3439 -0.7678 -1.8714
  181SLPC   C3320682   4.656   5.138   3.060 -0.6551  0.2775  0.2108
  181SLPC   H3X20683   4.591   5.048   3.052 -0.1515  0.0604 -2.1687
  181SLPC   H3Y20684   4.590   5.227   3.067 -0.5985  0.2346  1.3694
  181SLPC   C3420685   4.739   5.137   3.185 -0.0877 -0.3769 -0.0397
  181SLPC   H4X20686   4.780   5.236   3.212  3.8847 -1.9408  0.3573
  181SLPC   H4Y20687   4.836   5.083   3.179 -0.7352 -1.4409 -1.5276
  181SLPC   C3520688   4.665   5.090   3.306  0.6051 -0.5109 -0.1395
  181SLPC   H5X20689   4.640   4.982   3.298 -2.4547  0.1297 -0.5958
  181SLPC   H5Y20690   4.566   5.136   3.324  1.2612  0.4843  1.0323
  181SLPC   C3620691   4.737   5.109   3.439 -0.1519 -0.4006  0.0452
  181SLPC   H6X20692   4.722   5.213   3.476 -2.9939 -0.4843 -0.6571
  181SLPC   H6Y20693   4.845   5.082   3.433  0.7232  2.1156  2.3639
  181SLPC   C3720694   4.667   5.031   3.550  0.1461  0.9107  0.0806
  181SLPC   H7X20695   4.677   4.923   3.527  2.2326  1.0640  0.0466
  181SLPC   H7Y20696   4.558   5.052   3.548 -0.2155 -0.6715 -2.6710
  181SLPC   C3820697   4.730   5.059   3.686 -0.0512  0.4215  0.2531
  181SLPC   H8X20698   4.739   5.167   3.708  1.1354  0.2015  0.9218
  181SLPC   H8Y20699   4.833   5.019   3.688 -0.1572  0.1383  1.9680
  181SLPC   C3920700   4.652   4.997   3.800 -0.0502  0.5633 -0.3999
  181SLPC   H9X20701   4.625   4.892   3.778 -0.4567  0.7774 -0.9481
  181SLPC   H9Y20702   4.555   5.051   3.797  0.2476  1.2461  1.1227
  181SLPC  C31020703   4.720   5.012   3.936 -0.2900  0.7536  0.0338
  181SLPC  H10X20704   4.741   5.118   3.960  0.6665  0.2882  1.3913
  181SLPC  H10Y20705   4.822   4.970   3.924 -1.0232 -0.9625 -0.5342
  181SLPC  C31120706   4.630   4.968   4.052 -0.2017 -1.0304  0.3090
  181SLPC  H11X20707   4.683   4.984   4.148  1.8029  0.7058 -0.9653
  181SLPC  H11Y20708   4.608   4.859   4.052 -2.1641 -0.6743  1.5166
  181SLPC  C31220709   4.496   5.033   4.049  0.4917  0.3600  0.0774
  181SLPC  H12X20710   4.434   5.006   3.960 -0.6974 -0.8825  1.2478
  181SLPC  H12Y20711   4.503   5.142   4.026 -1.2696  1.0380  2.3725
  181SLPC  C31320712   4.413   5.023   4.180 -0.7669  0.5645  0.1412
  181SLPC  H13X20713   4.330   5.097   4.175  0.2900  1.7489 -0.4623
  181SLPC  H13Y20714   4.472   5.059   4.267 -2.7607  1.3551  1.2247
  181SLPC  C31420715   4.369   4.882   4.234 -0.2319 -0.2651 -0.3690
  181SLPC  H14X20716   4.465   4.837   4.269 -0.0235 -1.0755 -1.8857
  181SLPC  H14Y20717   4.346   4.812   4.151  0.9459  0.9184 -1.7785
  181SLPC  C31520718   4.266   4.881   4.347  0.2493  0.1071  0.3158
  181SLPC  H15X20719   4.168   4.912   4.306  0.3999  0.2824  0.0850
  181SLPC  H15Y20720   4.292   4.954   4.427 -0.4432  3.3519 -2.2216
  181SLPC  C31620721   4.258   4.743   4.412  0.1179 -1.0066 -0.0242
  181SLPC  H16X20722   4.359   4.725   4.455  0.5235 -0.0358 -0.5523
  181SLPC  H16Y20723   4.244   4.668   4.331 -2.7053  1.4050 -2.0021
  181SLPC  C31720724   4.151   4.737   4.524  0.2282  0.2008  0.2282
  181SLPC  H17X20725   4.052   4.765   4.484 -0.3446  0.0269  1.4733
  181SLPC  H17Y20726   4.180   4.813   4.601 -0.9337  0.5379  0.3469
  181SLPC  C31820727   4.156   4.600   4.573 -0.9540  0.0573 -0.0932
  181SLPC  H18X20728   4.255   4.574   4.617 -0.5004 -1.1412 -1.7085
  181SLPC  H18Y20729   4.143   4.535   4.483 -0.6728  1.1464 -0.9489
  181SLPC  H18Z20730   4.072   4.584   4.643 -0.5497 -1.2928  0.1168
  182SLPC     N20731   5.805   3.281   2.507  0.1492 -0.6430  0.0632
  182SLPC   C1320732   5.860   3.261   2.642 -0.5469 -0.5508 -0.2701
  182SLPC  H13A20733   5.804   3.186   2.697 -1.5196  0.5662  0.2953
  182SLPC  H13B20734   5.962   3.227   2.629  0.8660  3.1795 -0.1984
  182SLPC  H13C20735   5.870   3.354   2.695  1.2377  0.6541 -2.5527
  182SLPC   C1420736   5.857   3.168   2.422  0.2133 -0.3921 -0.5517
  182SLPC  H14A20737   5.963   3.170   2.401  0.4154  0.4672  0.4653
  182SLPC  H14B20738   5.831   3.070   2.459  1.0269 -1.9200 -3.6970
  182SLPC  H14C20739   5.819   3.155   2.322  0.7678 -3.0924 -0.4796
  182SLPC   C1520740   5.844   3.414   2.456  0.9255 -0.3291  0.3876
  182SLPC  H15A20741   5.795   3.487   2.519  1.0829  0.7656 -0.7294
  182SLPC  H15B20742   5.951   3.426   2.448  0.9137 -0.9244 -1.0113
  182SLPC  H15C20743   5.806   3.435   2.357  0.4746  0.5359  0.7385
  182SLPC   C1220744   5.651   3.263   2.528 -0.5917 -0.3578  0.1962
  182SLPC  H12A20745   5.625   3.168   2.573 -2.2714  0.6543  1.4800
  182SLPC  H12B20746   5.604   3.280   2.433 -1.3926 -2.5581  0.1494
  182SLPC   C1120747   5.587   3.380   2.615 -0.2706 -0.7313  0.4473
  182SLPC  H11A20748   5.647   3.385   2.709  3.9614  0.8270 -2.0402
  182SLPC  H11B20749   5.487   3.349   2.654  0.0504  1.1410  3.0631
  182SLPC     P20750   5.463   3.528   2.438  0.3980  0.2165  0.0414
  182SLPC   O1320751   5.496   3.638   2.348 -0.2445 -0.2604  0.4373
  182SLPC   O1420752   5.446   3.397   2.367 -0.4025 -0.1450  0.1157
  182SLPC   O1220753   5.585   3.511   2.547 -0.3380 -0.2272 -0.5274
  182SLPC   O1120754   5.336   3.560   2.532  0.3548 -0.0973 -0.1903
  182SLPC    C120755   5.352   3.666   2.621  0.4582  0.0284 -0.7473
  182SLPC    HA20756   5.439   3.730   2.593  0.9463 -0.3447 -0.0992
  182SLPC    HB20757   5.259   3.726   2.633  0.2527 -0.6247  1.2868
  182SLPC    C220758   5.371   3.626   2.772  0.1230  0.2194 -0.1180
  182SLPC    HS20759   5.470   3.578   2.781  0.6285  1.4393  1.2599
  182SLPC   O2120760   5.259   3.542   2.811 -0.4508 -0.0694 -0.2739
  182SLPC   C2120761   5.295   3.428   2.864 -0.0528  0.6067  0.5139
  182SLPC   O2220762   5.405   3.388   2.897  0.2812  0.2657 -0.3706
  182SLPC   C2220763   5.163   3.346   2.881 -0.1801 -0.4895  0.8395
  182SLPC   H2R20764   5.080   3.402   2.930  0.8422  1.1252  0.7960
  182SLPC   H2S20765   5.126   3.326   2.779 -0.1665  0.4386  0.6400
  182SLPC    C320766   5.375   3.749   2.863 -0.0439 -0.0358 -0.3309
  182SLPC    HX20767   5.266   3.770   2.868 -0.2766 -0.1377 -3.2526
  182SLPC    HY20768   5.436   3.832   2.819  0.4466 -1.4252 -2.4048
  182SLPC   O3120769   5.429   3.715   2.990 -0.0320  0.0350 -0.1864
  182SLPC   C3120770   5.560   3.714   3.002 -0.0906  0.2415  0.3964
  182SLPC   O3220771   5.642   3.742   2.911  0.4124  0.0412  0.0714
  182SLPC   C3220772   5.599   3.667   3.143  0.2689 -0.1187  0.0135
  182SLPC   H2X20773   5.529   3.582   3.163 -0.3988 -0.0507 -1.7850
  182SLPC   H2Y20774   5.590   3.755   3.209  0.9324  0.6639 -0.9190
  182SLPC   C2320775   5.181   3.222   2.965 -0.1497  1.1793  0.8267
  182SLPC   H3R20776   5.274   3.172   2.931 -2.0900 -0.3180 -2.9340
  182SLPC   H3S20777   5.101   3.149   2.938  0.2711  1.4014 -1.2286
  182SLPC   C2420778   5.170   3.250   3.115  0.4603  0.0919 -0.3037
  182SLPC   H4R20779   5.080   3.311   3.138 -1.1944 -1.4627 -2.2305
  182SLPC   H4S20780   5.257   3.315   3.138  0.5544 -0.2061  0.1733
  182SLPC   C2520781   5.157   3.120   3.200 -0.0241 -0.2375 -0.1547
  182SLPC   H5R20782   5.071   3.067   3.153 -0.7702 -0.0426  0.9635
  182SLPC   H5S20783   5.142   3.151   3.305  1.0093 -1.7490  0.4821
  182SLPC   C2620784   5.284   3.040   3.171 -0.0515 -0.3752  0.1869
  182SLPC   H6R20785   5.365   3.115   3.188 -0.1886 -0.2406  0.2563
  182SLPC   H6S20786   5.280   3.004   3.066 -1.6191 -1.0162  0.4396
  182SLPC   C2720787   5.306   2.923   3.264  0.1388  0.6021  0.0961
  182SLPC   H7R20788   5.235   2.841   3.240  2.0985 -1.5442  1.2094
  182SLPC   H7S20789   5.285   2.952   3.370 -1.5201 -0.6489  0.1514
  182SLPC   C2820790   5.443   2.847   3.269 -0.0528  0.1171 -0.0468
  182SLPC   H8R20791   5.526   2.908   3.310 -0.0647  1.3447 -1.7382
  182SLPC   H8S20792   5.470   2.837   3.161 -0.2040 -0.0289 -0.0707
  182SLPC   C2920793   5.433   2.716   3.340 -0.0902 -0.0514  0.0058
  182SLPC   H9R20794   5.419   2.622   3.285  1.3787 -1.5860  2.0704
  182SLPC  C21020795   5.423   2.707   3.477  0.3714  0.5130 -0.0951
  182SLPC  H10R20796   5.415   2.609   3.526 -0.0998  0.5946 -0.0066
  182SLPC  C21120797   5.442   2.821   3.571 -0.0119  1.0007 -0.4430
  182SLPC  H11R20798   5.347   2.876   3.587 -0.5213 -0.2930  1.1566
  182SLPC  H11S20799   5.515   2.902   3.545  0.5353  1.1404  1.3638
  182SLPC  C21220800   5.483   2.773   3.709  0.6674 -0.0431  1.0506
  182SLPC  H12R20801   5.578   2.719   3.697 -0.4116 -1.7357 -0.6828
  182SLPC  C21320802   5.424   2.774   3.830  0.1863 -0.3710 -0.1358
  182SLPC  H13R20803   5.478   2.728   3.914  0.0861 -0.8352 -0.3163
  182SLPC  C21420804   5.296   2.843   3.860  0.5372  0.4981 -0.5320
  182SLPC  H14R20805   5.227   2.771   3.909 -0.6929  2.6890  1.1588
  182SLPC  H14S20806   5.232   2.885   3.779 -4.1272  0.0559  2.5328
  182SLPC  C21520807   5.303   2.965   3.959 -0.4430 -0.1764  0.1239
  182SLPC  H15R20808   5.340   2.935   4.060  0.3682 -1.1677 -0.4420
  182SLPC  H15S20809   5.200   3.003   3.975  0.1466  1.1189  0.9983
  182SLPC  C21620810   5.375   3.087   3.906  0.4343 -0.1711  0.4088
  182SLPC  H16R20811   5.481   3.067   3.878  0.2595 -2.3134  1.0803
  182SLPC  H16S20812   5.373   3.159   3.990 -3.3755 -0.4361  0.7063
  182SLPC  C21720813   5.328   3.150   3.777 -0.2464 -0.5649  0.3133
  182SLPC  H17R20814   5.228   3.196   3.791 -0.9006 -1.4871 -1.1237
  182SLPC  H17S20815   5.320   3.065   3.706 -1.2726 -1.2904  1.2650
  182SLPC  C21820816   5.422   3.252   3.722 -0.3564  0.1557  0.2244
  182SLPC  H18R20817   5.473   3.315   3.797  1.2210 -0.0516 -0.6476
  182SLPC  H18S20818   5.368   3.319   3.651  2.1073  0.3092 -1.6081
  182SLPC  H18T20819   5.501   3.204   3.662  2.6786  1.1769  3.0900
  182SLPC   C3320820   5.734   3.600   3.167 -0.0640 -0.1419  0.2169
  182SLPC   H3X20821   5.810   3.656   3.108 -0.9837  0.5904 -0.3066
  182SLPC   H3Y20822   5.722   3.497   3.127 -2.0496 -0.1999  0.8156
  182SLPC   C3420823   5.775   3.588   3.318 -0.4417  0.4091  0.0264
  182SLPC   H4X20824   5.779   3.692   3.357  3.2062  0.5353 -0.4039
  182SLPC   H4Y20825   5.878   3.553   3.336 -0.8800 -0.4534  0.9596
  182SLPC   C3520826   5.681   3.491   3.399  0.5336 -0.2839  0.4550
  182SLPC   H5X20827   5.717   3.392   3.362  0.8105 -0.3647  0.9385
  182SLPC   H5Y20828   5.578   3.510   3.362  0.1940  0.2992  1.6472
  182SLPC   C3620829   5.674   3.488   3.554 -0.2921 -0.9310 -0.1820
  182SLPC   H6X20830   5.773   3.455   3.591 -1.0835  0.3089  3.3816
  182SLPC   H6Y20831   5.595   3.417   3.587 -2.7480  1.5636 -0.3799
  182SLPC   C3720832   5.650   3.626   3.622  0.0340 -0.1067 -0.4307
  182SLPC   H7X20833   5.577   3.695   3.575  1.7869  2.9743  1.0931
  182SLPC   H7Y20834   5.748   3.677   3.629 -0.2578  0.3776  0.2151
  182SLPC   C3820835   5.616   3.613   3.774  0.1629 -0.0459 -0.0970
  182SLPC   H8X20836   5.522   3.553   3.778 -0.2199  0.6142  1.8316
  182SLPC   H8Y20837   5.602   3.720   3.798 -1.2577 -0.2992  0.3194
  182SLPC   C3920838   5.727   3.548   3.863  0.2150  0.5998  0.3448
  182SLPC   H9X20839   5.825   3.592   3.834  0.7329  0.5738  1.9433
  182SLPC   H9Y20840   5.743   3.438   3.857 -0.0730  0.6302 -1.5525
  182SLPC  C31020841   5.703   3.588   4.011  0.6701 -0.5119 -0.6091
  182SLPC  H10X20842   5.614   3.538   4.053  3.0037 -2.8058  1.9810
  182SLPC  H10Y20843   5.700   3.699   4.005  0.9725 -0.5563 -1.9567
  182SLPC  C31120844   5.828   3.558   4.103 -0.1194  0.2281  0.5592
  182SLPC  H11X20845   5.847   3.448   4.105  0.0077  0.2197 -0.6157
  182SLPC  H11Y20846   5.804   3.599   4.203 -2.1282  0.8125 -0.1127
  182SLPC  C31220847   5.957   3.623   4.054 -0.5719 -0.0649  0.0423
  182SLPC  H12X20848   5.923   3.725   4.024  1.5868  0.9348  0.7843
  182SLPC  H12Y20849   5.995   3.575   3.961 -1.1728 -1.1114  0.3242
  182SLPC  C31320850   6.063   3.643   4.166  0.1677  1.0066 -0.1444
  182SLPC  H13X20851   6.011   3.672   4.260  0.2442  1.3697 -0.2109
  182SLPC  H13Y20852   6.138   3.720   4.136  1.4573  0.2135  0.9212
  182SLPC  C31420853   6.147   3.512   4.196  0.8659 -0.0120  0.6140
  182SLPC  H14X20854   6.208   3.480   4.109 -0.1257  1.3865 -0.6481
  182SLPC  H14Y20855   6.078   3.427   4.217  0.0749  0.0712 -1.4881
  182SLPC  C31520856   6.238   3.526   4.315  0.4712 -0.3359 -0.1282
  182SLPC  H15X20857   6.178   3.542   4.407  0.8211  1.2797 -0.1426
  182SLPC  H15Y20858   6.298   3.619   4.302 -0.8552  0.5062 -0.5037
  182SLPC  C31620859   6.328   3.400   4.342  0.4702 -0.2497  0.5570
  182SLPC  H16X20860   6.259   3.314   4.330 -0.5408  0.5069  0.8450
  182SLPC  H16Y20861   6.361   3.415   4.447 -0.2566 -0.2844  0.7960
  182SLPC  C31720862   6.450   3.390   4.244 -0.4202 -0.2919 -0.4004
  182SLPC  H17X20863   6.521   3.469   4.275  0.0428 -1.2058  0.9687
  182SLPC  H17Y20864   6.421   3.403   4.137  1.1699  0.8262 -0.7244
  182SLPC  C31820865   6.515   3.243   4.248  1.4187 -0.6606 -0.1499
  182SLPC  H18X20866   6.436   3.166   4.251  0.0043  0.7508  0.3627
  182SLPC  H18Y20867   6.565   3.236   4.347  1.0665  0.1637  0.0957
  182SLPC  H18Z20868   6.589   3.224   4.167  3.2044 -2.1475  1.7343
  183SLPC     N20869   1.772   6.359   1.717  0.8328  0.0164  0.3357
  183SLPC   C1320870   1.684   6.485   1.695  0.4891  0.1602  0.1739
  183SLPC  H13A20871   1.685   6.504   1.589  2.7266 -2.2163 -0.3217
  183SLPC  H13B20872   1.581   6.473   1.725 -0.3182  1.5114 -1.9091
  183SLPC  H13C20873   1.740   6.564   1.742  0.3782  0.5122 -0.2888
  183SLPC   C1420874   1.913   6.400   1.695  0.0003 -0.0079 -0.0356
  183SLPC  H14A20875   1.946   6.456   1.782 -1.6093 -2.1899  2.1464
  183SLPC  H14B20876   1.971   6.310   1.687  0.5676  0.4807 -1.7259
  183SLPC  H14C20877   1.929   6.459   1.606  1.7891 -0.6167 -0.1473
  183SLPC   C1520878   1.723   6.254   1.624  0.3237 -0.2705  0.3874
  183SLPC  H15A20879   1.755   6.267   1.521  0.3329 -0.8948  0.3108
  183SLPC  H15B20880   1.753   6.163   1.673 -0.9564 -0.0341  1.6866
  183SLPC  H15C20881   1.615   6.256   1.636  0.3206  0.5246  0.3184
  183SLPC   C1220882   1.755   6.311   1.864  0.0215  0.4882  0.4239
  183SLPC  H12A20883   1.823   6.227   1.875 -0.1619  0.1180 -1.1206
  183SLPC  H12B20884   1.657   6.269   1.879  0.4609 -0.9175 -0.4902
  183SLPC   C1120885   1.767   6.409   1.985  0.0412 -0.0498 -0.8533
  183SLPC  H11A20886   1.742   6.359   2.080 -2.1213  0.0139 -1.3411
  183SLPC  H11B20887   1.692   6.489   1.965  0.5695  0.6452 -0.1344
  183SLPC     P20888   2.018   6.396   2.052 -0.3410  0.2630  0.1014
  183SLPC   O1320889   2.035   6.261   1.998  0.0685  0.6359 -0.5380
  183SLPC   O1420890   2.138   6.482   2.027 -0.3407 -0.4542 -0.0020
  183SLPC   O1220891   1.897   6.472   1.988  0.1647  0.0318 -0.3432
  183SLPC   O1120892   1.994   6.389   2.212  0.4374  0.3379  0.2491
  183SLPC    C120893   2.022   6.511   2.284  0.3467 -0.3882 -0.4151
  183SLPC    HA20894   2.132   6.515   2.301  0.5556  0.0700 -1.7498
  183SLPC    HB20895   2.004   6.597   2.217  0.7420 -2.0057 -2.7019
  183SLPC    C220896   1.942   6.520   2.418  0.6043  1.1947  0.8126
  183SLPC    HS20897   1.956   6.622   2.460 -0.6966  0.8412  2.2057
  183SLPC   O2120898   1.984   6.418   2.513  0.1257  0.0558 -0.1167
  183SLPC   C2120899   2.101   6.451   2.568  0.4365  0.0349 -0.0543
  183SLPC   O2220900   2.171   6.544   2.540  0.5088  0.3034  0.2179
  183SLPC   C2220901   2.129   6.342   2.670  0.2783  0.7169 -0.1320
  183SLPC   H2R20902   2.033   6.310   2.714  0.9526  1.0848  1.7201
  183SLPC   H2S20903   2.156   6.261   2.599 -0.2174  1.0113 -0.6638
  183SLPC    C320904   1.786   6.508   2.389  0.4351 -0.1940  0.7064
  183SLPC    HX20905   1.755   6.412   2.343  0.3467 -0.3246  1.0406
  183SLPC    HY20906   1.755   6.574   2.305 -0.0506 -4.2297 -2.6125
  183SLPC   O3120907   1.710   6.540   2.506 -0.2074 -0.6424  0.4837
  183SLPC   C3120908   1.656   6.445   2.570  0.4392 -0.3147  0.3378
  183SLPC   O3220909   1.662   6.324   2.546  0.0679 -0.3468 -0.2602
  183SLPC   C3220910   1.584   6.500   2.688  0.3075  0.2623  0.5252
  183SLPC   H2X20911   1.479   6.465   2.689 -0.6358  2.8890 -0.2171
  183SLPC   H2Y20912   1.586   6.611   2.686 -1.7393  0.3562  1.1949
  183SLPC   C2320913   2.239   6.379   2.774  0.0428  0.3525  0.2577
  183SLPC   H3R20914   2.196   6.469   2.822  1.8591  0.2840  2.1770
  183SLPC   H3S20915   2.331   6.409   2.719  0.6808 -1.6865  0.0983
  183SLPC   C2420916   2.277   6.266   2.872  0.3047  0.4106  0.3205
  183SLPC   H4R20917   2.362   6.303   2.932  1.0720 -2.6810  1.3224
  183SLPC   H4S20918   2.333   6.186   2.818  0.2947 -0.5142  1.6551
  183SLPC   C2520919   2.166   6.216   2.955  0.0257 -0.6351  0.0934
  183SLPC   H5R20920   2.087   6.179   2.886  0.5510 -1.0325 -0.2991
  183SLPC   H5S20921   2.114   6.293   3.017 -2.0547 -0.5745 -1.6266
  183SLPC   C2620922   2.208   6.108   3.064 -0.4845 -0.7255  0.1520
  183SLPC   H6R20923   2.287   6.157   3.124 -0.2446 -1.5950  0.5544
  183SLPC   H6S20924   2.252   6.019   3.015  0.4420 -0.4543  0.4847
  183SLPC   C2720925   2.086   6.061   3.142  0.6452 -0.0610  0.2419
  183SLPC   H7R20926   2.008   6.047   3.065 -0.3042  0.4535  1.0853
  183SLPC   H7S20927   2.053   6.142   3.211 -1.3772 -0.8450  0.2643
  183SLPC   C2820928   2.076   5.920   3.216 -0.5462 -0.2718 -0.1294
  183SLPC   H8R20929   1.971   5.902   3.246 -0.5156 -2.9065 -1.2663
  183SLPC   H8S20930   2.137   5.919   3.309 -1.7981  1.4126  0.7743
  183SLPC   C2920931   2.147   5.805   3.139  0.2515  0.4153 -0.1368
  183SLPC   H9R20932   2.254   5.819   3.123  0.4680 -0.9874 -0.0370
  183SLPC  C21020933   2.092   5.696   3.081 -0.4530 -0.1382  0.0309
  183SLPC  H10R20934   2.149   5.616   3.032 -0.3106  0.0068 -0.0423
  183SLPC  C21120935   1.942   5.676   3.091  0.5528  0.0040  0.0852
  183SLPC  H11R20936   1.896   5.753   3.024  0.2687  0.8427  1.2067
  183SLPC  H11S20937   1.894   5.695   3.189 -1.0645 -1.8342 -0.2726
  183SLPC  C21220938   1.894   5.544   3.040 -0.5156  0.3244  0.2885
  183SLPC  H12R20939   1.974   5.469   3.037  0.4604  1.3045  0.9405
  183SLPC  C21320940   1.769   5.512   3.009  0.2208  0.1208  0.1899
  183SLPC  H13R20941   1.755   5.407   2.979  2.3410  0.2602 -1.5163
  183SLPC  C21420942   1.647   5.595   3.034 -0.3654 -0.6216  0.5969
  183SLPC  H14R20943   1.557   5.587   2.970 -0.4136  1.1973  0.3982
  183SLPC  H14S20944   1.680   5.699   3.014 -2.4043 -0.3643 -1.8421
  183SLPC  C21520945   1.601   5.593   3.177  0.2354 -0.2669 -0.1656
  183SLPC  H15R20946   1.535   5.680   3.197 -0.0988  0.1251 -2.6859
  183SLPC  H15S20947   1.692   5.612   3.237  1.9335  0.5137 -2.8059
  183SLPC  C21620948   1.530   5.466   3.222 -0.0357  0.3917 -0.2579
  183SLPC  H16R20949   1.489   5.474   3.325 -0.0190  1.7546 -0.3354
  183SLPC  H16S20950   1.605   5.384   3.225 -0.5747 -0.1422 -1.1056
  183SLPC  C21720951   1.419   5.415   3.129 -0.2144  1.1328  0.1410
  183SLPC  H17R20952   1.391   5.311   3.155 -0.0676  0.9633 -0.3694
  183SLPC  H17S20953   1.463   5.398   3.028  2.1257 -0.0125  1.2775
  183SLPC  C21820954   1.291   5.492   3.126  0.5811  0.2769  0.1390
  183SLPC  H18R20955   1.225   5.435   3.057  1.2216 -0.4806  0.1397
  183SLPC  H18S20956   1.309   5.598   3.094  2.4253  0.1802  0.7586
  183SLPC  H18T20957   1.238   5.501   3.223  0.0670 -2.6353  0.1997
  183SLPC   C3320958   1.649   6.457   2.822 -0.1073 -0.0669  0.5388
  183SLPC   H3X20959   1.655   6.346   2.818 -1.3231 -0.1237 -0.1297
  183SLPC   H3Y20960   1.567   6.471   2.895 -0.3473 -3.0467  0.9706
  183SLPC   C3420961   1.781   6.525   2.854  0.4795 -0.5279  0.7636
  183SLPC   H4X20962   1.767   6.635   2.867 -1.5426 -0.1670 -3.0205
  183SLPC   H4Y20963   1.849   6.514   2.766 -2.9928 -0.9679 -2.1191
  183SLPC   C3520964   1.856   6.461   2.970 -0.0328 -0.4256  0.3625
  183SLPC   H5X20965   1.961   6.497   2.962 -0.5373  1.2343  0.8089
  183SLPC   H5Y20966   1.854   6.355   2.939 -3.5960  0.2019 -2.0765
  183SLPC   C3620967   1.784   6.479   3.108 -0.4631  0.2461  0.3929
  183SLPC   H6X20968   1.682   6.437   3.102 -0.4652  0.5037 -1.8328
  183SLPC   H6Y20969   1.779   6.588   3.128 -4.0082  0.1618  0.5149
  183SLPC   C3720970   1.867   6.397   3.217  0.3314  0.7069 -0.2109
  183SLPC   H7X20971   1.973   6.430   3.220  1.0531 -1.3359 -1.1633
  183SLPC   H7Y20972   1.874   6.290   3.188  1.7905  0.2988  1.4692
  183SLPC   C3820973   1.817   6.417   3.365 -0.1792  0.2639 -0.1189
  183SLPC   H8X20974   1.709   6.391   3.369  0.7399 -4.2406  1.4079
  183SLPC   H8Y20975   1.817   6.525   3.390  0.9540 -0.0414  1.3122
  183SLPC   C3920976   1.878   6.318   3.465 -0.6889 -0.5441  0.5840
  183SLPC   H9X20977   1.882   6.220   3.413 -0.9819 -1.5752  2.4384
  183SLPC   H9Y20978   1.814   6.301   3.554 -1.3772 -0.7733  0.0460
  183SLPC  C31020979   2.018   6.359   3.515  0.1467 -0.0921 -0.1204
  183SLPC  H10X20980   2.000   6.419   3.607  0.0730 -1.1938  0.5935
  183SLPC  H10Y20981   2.074   6.425   3.445  3.7847 -1.5221  1.1869
  183SLPC  C31120982   2.110   6.241   3.527 -0.3183 -0.1868  0.4508
  183SLPC  H11X20983   2.202   6.267   3.584 -1.1326 -1.3348  2.3803
  183SLPC  H11Y20984   2.146   6.200   3.429 -0.6010 -1.3251  0.8052
  183SLPC  C31220985   2.050   6.132   3.625  0.8423  0.0597  0.4177
  183SLPC  H12X20986   1.963   6.086   3.574  1.6805 -1.5161  0.3319
  183SLPC  H12Y20987   2.016   6.176   3.720 -3.0888 -1.4089 -0.1374
  183SLPC  C31320988   2.160   6.022   3.657 -0.4256  0.3846  0.1951
  183SLPC  H13X20989   2.260   6.071   3.655  0.7805 -1.9292 -0.2322
  183SLPC  H13Y20990   2.162   5.945   3.577  2.1307 -0.4205  0.9263
  183SLPC  C31420991   2.122   5.948   3.789  0.3702 -0.4066 -0.2887
  183SLPC  H14X20992   2.152   6.018   3.870  3.8735 -1.4730 -0.4924
  183SLPC  H14Y20993   2.200   5.870   3.789  0.9392  0.1482  0.8594
  183SLPC  C31520994   1.985   5.877   3.794  0.0909  0.0426 -0.8258
  183SLPC  H15X20995   1.905   5.951   3.819 -0.6612 -0.4022 -1.8725
  183SLPC  H15Y20996   1.981   5.809   3.882  1.5248  0.4118 -0.4417
  183SLPC  C31620997   1.945   5.793   3.675 -0.0835  0.3773  0.6050
  183SLPC  H16X20998   2.038   5.734   3.659  1.5980  2.0046  3.4865
  183SLPC  H16Y20999   1.929   5.856   3.585  0.7922 -0.8965 -0.4878
  183SLPC  C31721000   1.814   5.716   3.713  0.0767  0.1701 -0.3187
  183SLPC  H17X21001   1.745   5.797   3.747  0.4904 -0.1932  1.5084
  183SLPC  H17Y21002   1.826   5.659   3.807  0.7741  0.5187 -0.1869
  183SLPC  C31821003   1.758   5.621   3.617  0.5542 -0.0823  0.3454
  183SLPC  H18X21004   1.765   5.676   3.520 -0.0076  2.0580  1.4492
  183SLPC  H18Y21005   1.655   5.588   3.645  0.6491 -0.2702  0.4729
  183SLPC  H18Z21006   1.823   5.532   3.610  1.3367  0.4235  1.0457
  184SLPC     N21007   2.576   5.927   1.751  0.0586 -0.1297  0.7420
  184SLPC   C1321008   2.633   5.800   1.801  0.2653  0.4780  0.3382
  184SLPC  H13A21009   2.677   5.747   1.719  0.3068  0.6726  0.2332
  184SLPC  H13B21010   2.699   5.820   1.884 -1.5370 -1.4413  2.4008
  184SLPC  H13C21011   2.553   5.736   1.836 -0.7269  0.6830 -1.4224
  184SLPC   C1421012   2.478   5.906   1.645  0.3801 -0.2871  0.3070
  184SLPC  H14A21013   2.395   5.839   1.667 -0.0831 -0.0719 -0.7354
  184SLPC  H14B21014   2.441   6.000   1.607  1.1875 -0.7999 -1.8719
  184SLPC  H14C21015   2.515   5.863   1.553 -3.1091 -0.0577 -1.4094
  184SLPC   C1521016   2.689   6.006   1.683 -0.3615  0.1374  0.3731
  184SLPC  H15A21017   2.762   6.036   1.757 -0.2156  3.5756 -0.9757
  184SLPC  H15B21018   2.738   5.949   1.606  1.7105 -1.7475  2.8884
  184SLPC  H15C21019   2.653   6.098   1.640  0.9364  1.1843  1.4314
  184SLPC   C1221020   2.512   6.010   1.855 -0.0927  0.1975 -0.7272
  184SLPC  H12A21021   2.425   5.963   1.899  1.0805 -0.0604  1.4391
  184SLPC  H12B21022   2.470   6.101   1.814 -1.0976 -0.6243 -1.5609
  184SLPC   C1121023   2.602   6.051   1.972 -0.6400 -1.1487 -0.7196
  184SLPC  H11A21024   2.545   6.120   2.037  0.1961  0.1763 -1.3553
  184SLPC  H11B21025   2.684   6.113   1.931 -1.4329  0.8769  0.6484
  184SLPC     P21026   2.548   5.876   2.168 -0.1256 -0.7648 -0.3188
  184SLPC   O1321027   2.407   5.889   2.135 -0.0647  0.1888 -0.1591
  184SLPC   O1421028   2.590   5.739   2.199  0.2013  0.6066  0.0848
  184SLPC   O1221029   2.646   5.935   2.051 -0.1318 -0.2599 -0.1047
  184SLPC   O1121030   2.583   5.970   2.296  0.4242  0.3273  0.2552
  184SLPC    C121031   2.712   5.949   2.357  0.1784 -0.3369 -0.2790
  184SLPC    HA21032   2.795   5.918   2.290  0.0107 -0.1511 -0.5713
  184SLPC    HB21033   2.742   6.051   2.392  0.8256 -0.5205 -0.2817
  184SLPC    C221034   2.699   5.865   2.479  0.1726  0.2652 -0.3351
  184SLPC    HS21035   2.679   5.762   2.443 -1.1953  1.1962 -2.4022
  184SLPC   O2121036   2.600   5.912   2.564 -0.6543 -0.0960  0.3210
  184SLPC   C2121037   2.516   5.828   2.615 -0.3527 -0.0459 -0.2703
  184SLPC   O2221038   2.490   5.716   2.577 -0.0547  0.1441  0.4991
  184SLPC   C2221039   2.452   5.896   2.745  0.0831  0.2532  0.2979
  184SLPC   H2R21040   2.531   5.922   2.819  1.7407 -1.5436 -0.7437
  184SLPC   H2S21041   2.409   5.994   2.715 -0.2550  0.9132  2.7239
  184SLPC    C321042   2.828   5.879   2.557 -0.1439  0.0827 -0.4956
  184SLPC    HX21043   2.841   5.988   2.575 -0.5884  0.1999 -0.8769
  184SLPC    HY21044   2.912   5.845   2.493  1.4872  1.1273  0.9948
  184SLPC   O3121045   2.830   5.805   2.679  0.5063 -0.3253  0.1407
  184SLPC   C3121046   2.881   5.685   2.678 -0.4789  0.0972 -0.9769
  184SLPC   O3221047   2.935   5.631   2.581  0.1572 -0.1959  0.2553
  184SLPC   C3221048   2.886   5.624   2.819 -0.5700  0.7307 -1.4147
  184SLPC   H2X21049   2.996   5.618   2.836 -0.6636  2.0648 -0.1416
  184SLPC   H2Y21050   2.844   5.522   2.827 -0.1408  0.6535  0.2079
  184SLPC   C2321051   2.362   5.802   2.813 -0.5270  0.2682  0.5623
  184SLPC   H3R21052   2.333   5.850   2.909 -1.9500 -1.2319  0.9332
  184SLPC   H3S21053   2.411   5.707   2.844 -1.5983 -0.1291  1.1312
  184SLPC   C2421054   2.224   5.772   2.756  0.6913  0.4274 -0.6641
  184SLPC   H4R21055   2.181   5.685   2.809  0.6828 -0.1879 -1.6486
  184SLPC   H4S21056   2.237   5.737   2.651  0.1089 -4.9436  0.7524
  184SLPC   C2521057   2.122   5.887   2.761  0.7324 -0.1796 -0.7319
  184SLPC   H5R21058   2.167   5.973   2.706  2.7198 -1.7047 -1.6031
  184SLPC   H5S21059   2.099   5.916   2.866  2.0584 -1.4172 -0.0684
  184SLPC   C2621060   1.986   5.852   2.697  0.4371  0.1792 -0.1352
  184SLPC   H6R21061   1.927   5.785   2.763 -0.5983  0.1479 -1.0651
  184SLPC   H6S21062   2.008   5.801   2.601 -0.7329 -1.5120  0.4386
  184SLPC   C2721063   1.901   5.974   2.654 -0.7033  1.0001 -0.2773
  184SLPC   H7R21064   1.962   6.041   2.590  0.5625  0.5141  0.3934
  184SLPC   H7S21065   1.878   6.024   2.751  0.9956 -0.1601  0.7669
  184SLPC   C2821066   1.778   5.938   2.573  0.2454 -0.1653 -0.2660
  184SLPC   H8R21067   1.797   5.890   2.475  2.2265 -1.8568  0.8529
  184SLPC   H8S21068   1.736   6.038   2.550 -1.2841 -0.4216  1.2460
  184SLPC   C2921069   1.693   5.852   2.662 -0.2104 -0.0081  0.1544
  184SLPC   H9R21070   1.721   5.746   2.672  1.3645  0.3608 -0.0077
  184SLPC  C21021071   1.583   5.897   2.724 -0.8626  0.2900 -0.0019
  184SLPC  H10R21072   1.539   5.836   2.804 -3.0349  2.3500  0.4714
  184SLPC  C21121073   1.517   6.035   2.720  0.2639  0.4643  0.3637
  184SLPC  H11R21074   1.436   6.045   2.644  0.9053 -0.8922 -0.5413
  184SLPC  H11S21075   1.591   6.110   2.686  0.4222  0.5484  0.8971
  184SLPC  C21221076   1.468   6.087   2.852 -0.4696 -0.5411 -0.5159
  184SLPC  H12R21077   1.368   6.132   2.850  0.4156  1.6022  0.4192
  184SLPC  C21321078   1.531   6.113   2.961  1.0054 -0.3339  0.1477
  184SLPC  H13R21079   1.476   6.147   3.049  0.4115  1.8485 -0.9936
  184SLPC  C21421080   1.663   6.062   3.000 -0.3049 -0.4376 -0.0233
  184SLPC  H14R21081   1.722   6.154   3.017  2.5730 -1.9652 -1.0703
  184SLPC  H14S21082   1.712   6.009   2.916 -2.0699 -1.4638 -0.4490
  184SLPC  C21521083   1.671   5.963   3.117  0.0045  0.6199 -0.1775
  184SLPC  H15R21084   1.767   5.908   3.121 -0.1200  0.4583  1.1081
  184SLPC  H15S21085   1.592   5.887   3.097  2.3349 -2.3834  1.3269
  184SLPC  C21621086   1.646   6.039   3.246  0.2679 -0.4736 -0.3925
  184SLPC  H16R21087   1.540   6.070   3.239  0.6355  0.6888 -1.1740
  184SLPC  H16S21088   1.710   6.130   3.244  0.4102 -0.5608  0.0673
  184SLPC  C21721089   1.671   5.965   3.380  0.3455 -0.1498 -0.2379
  184SLPC  H17R21090   1.781   5.958   3.391  0.1895  0.2298  1.9113
  184SLPC  H17S21091   1.621   5.865   3.385  0.0052 -0.0173 -0.8803
  184SLPC  C21821092   1.616   6.033   3.502 -0.0738 -0.4809  0.4066
  184SLPC  H18R21093   1.658   6.135   3.519 -1.5875 -0.0066  1.4775
  184SLPC  H18S21094   1.648   5.973   3.589 -2.2302 -2.9029 -0.3324
  184SLPC  H18T21095   1.505   6.039   3.502 -0.0696 -0.3677  0.1018
  184SLPC   C3321096   2.830   5.716   2.932 -0.0251  0.4648  0.2536
  184SLPC   H3X21097   2.725   5.728   2.898  0.2786  0.1827 -0.8156
  184SLPC   H3Y21098   2.881   5.815   2.937  0.1564  0.5447 -2.1172
  184SLPC   C3421099   2.821   5.647   3.066  0.0719  0.3382 -0.3975
  184SLPC   H4X21100   2.728   5.588   3.083 -0.3699  1.2048  0.2643
  184SLPC   H4Y21101   2.804   5.734   3.134 -4.0120  0.4219 -1.2549
  184SLPC   C3521102   2.935   5.553   3.100  0.1942 -0.4123 -0.5110
  184SLPC   H5X21103   3.033   5.606   3.104 -0.5928  1.0437  0.9422
  184SLPC   H5Y21104   2.932   5.473   3.023 -0.2218 -1.4277  0.5307
  184SLPC   C3621105   2.905   5.482   3.228  1.1672 -0.6649  0.1688
  184SLPC   H6X21106   2.952   5.381   3.231 -1.5571 -2.0319 -0.5428
  184SLPC   H6Y21107   2.798   5.457   3.241  0.7883  0.8555  0.2605
  184SLPC   C3721108   2.955   5.557   3.350  0.4237  0.3567 -0.1742
  184SLPC   H7X21109   2.908   5.658   3.354 -0.6122 -0.0543 -1.3237
  184SLPC   H7Y21110   3.065   5.563   3.346  0.5476 -1.1165  0.3806
  184SLPC   C3821111   2.920   5.494   3.491 -0.5589  0.8083  0.7386
  184SLPC   H8X21112   2.941   5.385   3.485 -0.9158  0.7892 -3.1626
  184SLPC   H8Y21113   2.811   5.494   3.513 -0.3759 -1.1160  1.9048
  184SLPC   C3921114   2.994   5.562   3.608 -0.2124 -0.3523  0.3927
  184SLPC   H9X21115   2.987   5.673   3.609  0.4352 -0.2675  2.7691
  184SLPC   H9Y21116   3.100   5.534   3.591 -0.4944 -0.4497 -1.3328
  184SLPC  C31021117   2.957   5.503   3.744 -0.5994 -0.3986 -0.0794
  184SLPC  H10X21118   2.980   5.395   3.737 -0.2298 -0.3248 -0.0644
  184SLPC  H10Y21119   2.849   5.517   3.761 -0.9372  3.6595 -3.7598
  184SLPC  C31121120   3.034   5.576   3.852  0.0907  0.5720  0.0079
  184SLPC  H11X21121   3.009   5.683   3.858 -0.4559  0.5215 -1.0900
  184SLPC  H11Y21122   3.143   5.571   3.828  0.0615  0.4800 -0.1080
  184SLPC  C31221123   3.009   5.515   3.998  0.2131  0.0191  0.0992
  184SLPC  H12X21124   2.900   5.512   4.017 -0.2815  2.9056 -1.7283
  184SLPC  H12Y21125   3.057   5.590   4.064 -0.8857 -0.1361  1.1123
  184SLPC  C31321126   3.090   5.385   4.017 -0.4360 -0.8866  0.3952
  184SLPC  H13X21127   3.196   5.420   4.016 -0.7367  0.6153  4.2216
  184SLPC  H13Y21128   3.071   5.312   3.936 -1.6827  0.5256 -0.6287
  184SLPC  C31421129   3.066   5.334   4.156 -0.8202 -0.0882 -0.3113
  184SLPC  H14X21130   2.963   5.294   4.164 -0.7068 -0.3546 -0.1738
  184SLPC  H14Y21131   3.083   5.419   4.225 -4.1401  0.9109 -0.5518
  184SLPC  C31521132   3.174   5.234   4.219 -0.3276 -0.4176  0.3148
  184SLPC  H15X21133   3.277   5.271   4.197 -0.2885 -1.0197 -0.5510
  184SLPC  H15Y21134   3.156   5.140   4.164  1.2536 -2.2762  2.7761
  184SLPC  C31621135   3.150   5.204   4.366  0.2999 -0.2059  0.5484
  184SLPC  H16X21136   3.048   5.161   4.379  0.1112  0.5504  1.7719
  184SLPC  H16Y21137   3.152   5.302   4.418  2.9967 -0.4141  0.9803
  184SLPC  C31721138   3.256   5.108   4.441 -0.1148  0.3895 -1.1201
  184SLPC  H17X21139   3.356   5.156   4.438 -0.0317  0.3510  0.2773
  184SLPC  H17Y21140   3.271   5.009   4.394 -0.3289 -0.7251  1.0440
  184SLPC  C31821141   3.208   5.085   4.584 -0.0199  0.1062  0.1498
  184SLPC  H18X21142   3.179   5.183   4.628 -1.9896  0.1445 -1.1446
  184SLPC  H18Y21143   3.287   5.041   4.649  0.6012 -0.2853 -0.8494
  184SLPC  H18Z21144   3.115   5.025   4.591  0.3608 -0.3882  1.1722
  185POPC     N21145   2.882   4.919   6.924 -0.7795 -0.2690  0.4644
  185POPC   C1221146   2.840   4.930   6.778  0.7525 -0.1089 -0.4262
  185POPC  H12A21147   2.792   5.026   6.766 -0.0733 -0.5288 -0.5707
  185POPC  H12B21148   2.764   4.857   6.753  0.4926 -0.2216  0.6301
  185POPC   C1321149   2.772   4.976   7.012 -0.2072 -0.3491 -0.4691
  185POPC  H13A21150   2.808   5.014   7.107 -1.3107 -0.0001 -0.1750
  185POPC  H13B21151   2.725   5.061   6.964 -1.8682 -0.1607  1.3861
  185POPC  H13C21152   2.694   4.905   7.035  0.8965 -1.2857  0.4863
  185POPC   C1421153   2.915   4.783   6.981  0.0100 -0.4246  0.4005
  185POPC  H14A21154   2.842   4.709   6.955 -1.9262  2.1739 -2.2805
  185POPC  H14B21155   3.013   4.749   6.949  0.1356 -0.7456  1.1120
  185POPC  H14C21156   2.926   4.790   7.088  1.2233  2.7368  0.1842
  185POPC   C1521157   3.002   5.010   6.948 -0.8746  0.6615  0.1935
  185POPC  H15A21158   2.970   5.109   6.919 -2.4082  0.7006  1.8539
  185POPC  H15B21159   3.097   4.989   6.901  0.1723  0.7760  2.1376
  185POPC  H15C21160   3.017   5.035   7.052 -1.8337 -1.8650  1.0083
  185POPC   C1121161   2.942   4.915   6.657 -0.5033  0.4067 -0.8268
  185POPC  H11A21162   3.025   4.986   6.676 -1.1411  0.7844  0.6859
  185POPC  H11B21163   2.898   4.947   6.560 -2.4264  1.4082  0.3125
  185POPC     P21164   2.891   4.674   6.593  0.1613 -0.1070 -0.1064
  185POPC   O1321165   2.752   4.730   6.581  0.0160 -0.4094 -0.4541
  185POPC   O1421166   2.910   4.540   6.656  0.7259  0.5491 -0.0453
  185POPC   O1221167   2.995   4.779   6.647  0.4001 -0.0404 -0.1648
  185POPC   O1121168   2.959   4.667   6.448  0.0870  0.1684 -0.0338
  185POPC    C121169   3.100   4.654   6.413  0.1965 -0.4194 -0.2214
  185POPC    HA21170   3.122   4.545   6.408  1.3561 -0.1491 -2.0052
  185POPC    HB21171   3.168   4.709   6.482 -0.6743  2.5185 -1.5110
  185POPC    C221172   3.130   4.720   6.277  0.7812 -0.7208  0.4304
  185POPC    HS21173   3.150   4.827   6.302  0.1425 -0.1399 -1.3683
  185POPC   O2121174   3.019   4.714   6.186 -0.2373  0.6001  0.0363
  185POPC   C2121175   2.943   4.818   6.169  0.2322 -0.6110 -0.0629
  185POPC   O2221176   2.967   4.935   6.197  1.0147 -0.1595 -0.7393
  185POPC   C2221177   2.819   4.791   6.087  0.2589 -0.1404 -0.0401
  185POPC   H2R21178   2.727   4.832   6.135  0.8315 -0.9988  1.8756
  185POPC   H2S21179   2.793   4.683   6.076 -2.0149  0.1568  1.5556
  185POPC    C321180   3.249   4.644   6.212  0.7256  0.9252 -0.5176
  185POPC    HX21181   3.216   4.539   6.197  3.2920 -0.6321  3.2644
  185POPC    HY21182   3.334   4.646   6.284 -1.0121 -1.7001  1.8486
  185POPC   O3121183   3.279   4.701   6.083  0.3201 -0.6634  0.1187
  185POPC   C3121184   3.384   4.641   6.028 -0.1043  0.3030  0.1981
  185POPC   O3221185   3.436   4.538   6.073  0.0092 -0.9261  0.2571
  185POPC   C3221186   3.418   4.711   5.895 -0.3546  0.1704  0.1917
  185POPC   H2X21187   3.475   4.801   5.924  0.7838 -1.3497  3.1495
  185POPC   H2Y21188   3.324   4.748   5.847 -0.6240 -1.1558 -0.3617
  185POPC   C2321189   2.830   4.849   5.951 -0.9905  0.1806 -0.1481
  185POPC   H3R21190   2.862   4.955   5.962 -0.1333  0.0423 -1.1490
  185POPC   H3S21191   2.737   4.835   5.893 -0.2971 -0.6492 -1.0934
  185POPC   C2421192   2.936   4.781   5.861  0.6934 -0.4046 -0.2403
  185POPC   H4R21193   3.030   4.783   5.920  1.8656 -0.5871 -2.0491
  185POPC   H4S21194   2.950   4.850   5.776  2.3763  1.2559  1.2933
  185POPC   C2521195   2.911   4.633   5.817  0.1056 -0.4374 -0.1039
  185POPC   H5R21196   2.832   4.630   5.740  1.1798 -0.8016 -1.2307
  185POPC   H5S21197   2.886   4.565   5.901  0.9284 -0.2509  0.3032
  185POPC   C2621198   3.032   4.579   5.740  0.4464 -0.2340  0.4203
  185POPC   H6R21199   3.107   4.548   5.816 -1.2971 -1.9826  1.5158
  185POPC   H6S21200   3.079   4.654   5.673  1.2017 -2.9842 -2.4365
  185POPC   C2721201   2.993   4.453   5.650 -0.7209  0.5601 -0.5810
  185POPC   H7R21202   2.897   4.460   5.595 -2.0408 -1.9520  1.1927
  185POPC   H7S21203   2.982   4.360   5.710  1.9597  1.6632  1.8669
  185POPC   C2821204   3.099   4.426   5.548 -0.4470 -0.7879 -0.4136
  185POPC   H8R21205   3.191   4.395   5.603 -0.0841 -0.3979 -0.7959
  185POPC   H8S21206   3.122   4.520   5.495  0.0911 -1.2324 -0.9800
  185POPC   C2921207   3.058   4.318   5.445 -0.4784 -0.0021 -0.0487
  185POPC   H9121208   3.041   4.219   5.489  0.4113 -1.0503 -1.9490
  185POPC  C21021209   3.060   4.332   5.308  0.1402  0.1327 -0.4616
  185POPC  H10121210   3.041   4.237   5.256 -0.9846 -0.7491  1.4430
  185POPC  C21121211   3.097   4.446   5.222 -0.3563 -0.5181 -0.2184
  185POPC  H11R21212   3.145   4.415   5.127  0.1308  2.7616 -1.1816
  185POPC  H11S21213   3.170   4.515   5.271  1.1874 -0.9488 -1.8033
  185POPC  C21221214   2.976   4.537   5.173  0.1638 -0.1679  0.0559
  185POPC  H12R21215   2.894   4.474   5.133 -0.5749  0.1346  1.0404
  185POPC  H12S21216   3.014   4.614   5.103  2.3905 -0.0858  1.2438
  185POPC  C21321217   2.908   4.611   5.291  0.3938 -0.1217  0.4098
  185POPC  H13R21218   2.993   4.669   5.334 -0.3578  0.6222  0.9141
  185POPC  H13S21219   2.888   4.539   5.373  1.7729  0.5255  1.3591
  185POPC  C21421220   2.785   4.699   5.255 -0.0470 -0.1918 -0.2114
  185POPC  H14R21221   2.721   4.630   5.197  0.6312  1.0337 -2.5775
  185POPC  H14S21222   2.815   4.779   5.183 -3.0857 -0.5645 -2.0477
  185POPC  C21521223   2.712   4.764   5.378 -0.2294  0.4043  0.1357
  185POPC  H15R21224   2.718   4.677   5.447  1.2250  0.5006  0.1581
  185POPC  H15S21225   2.607   4.787   5.350  0.1122  1.0115 -0.7080
  185POPC  C21621226   2.786   4.884   5.431 -0.1870  0.2199  0.2813
  185POPC  H16R21227   2.807   4.961   5.355  0.1615 -0.9443 -0.8403
  185POPC  H16S21228   2.886   4.849   5.466 -0.6371 -2.2848 -0.7138
  185POPC  C21721229   2.714   4.950   5.551  0.3741 -0.2144  0.1670
  185POPC  H17R21230   2.699   4.871   5.628  1.1398  0.4273  1.0121
  185POPC  H17S21231   2.609   4.968   5.523 -0.1628 -1.1758  1.4566
  185POPC  C21821232   2.770   5.079   5.599  0.5079 -0.8709 -0.5260
  185POPC  H18R21233   2.792   5.149   5.516  2.3551 -2.1940 -1.1980
  185POPC  H18S21234   2.864   5.052   5.651 -0.1392  0.0936  1.2437
  185POPC  H18T21235   2.701   5.129   5.671 -1.2988 -1.0216 -2.0727
  185POPC   C3321236   3.510   4.630   5.793  0.2963 -0.1082  0.0352
  185POPC   H3X21237   3.470   4.527   5.796 -0.5867  0.2333  0.5055
  185POPC   H3Y21238   3.611   4.626   5.838  1.0310  1.8123 -1.3060
  185POPC   C3421239   3.510   4.674   5.642  0.2021 -0.0614 -0.0277
  185POPC   H4X21240   3.540   4.585   5.582 -2.4667 -1.4645  0.5973
  185POPC   H4Y21241   3.591   4.747   5.620  1.0530 -0.6188  1.1245
  185POPC   C3521242   3.364   4.694   5.595  0.0744  0.3004  0.5345
  185POPC   H5X21243   3.327   4.793   5.631  1.4099  1.2775 -0.6308
  185POPC   H5Y21244   3.304   4.613   5.640  2.2676 -1.0848  1.1617
  185POPC   C3621245   3.357   4.675   5.440 -0.5368  0.4517 -0.0894
  185POPC   H6X21246   3.255   4.694   5.398 -0.4425  2.0887  0.3677
  185POPC   H6Y21247   3.380   4.568   5.419 -1.3317  0.1933  0.2931
  185POPC   C3721248   3.462   4.769   5.371  0.1446 -0.0632  0.0847
  185POPC   H7X21249   3.566   4.757   5.410  1.2473  2.3049 -1.8110
  185POPC   H7Y21250   3.434   4.875   5.391 -0.4947  0.0223 -1.2067
  185POPC   C3821251   3.465   4.744   5.223 -0.6344 -1.8666  0.3532
  185POPC   H8X21252   3.365   4.747   5.175  0.5516  0.3389 -2.2732
  185POPC   H8Y21253   3.517   4.645   5.217  2.5230 -0.3535  0.6384
  185POPC   C3921254   3.542   4.855   5.145 -0.0334 -0.3783 -0.0404
  185POPC   H9X21255   3.648   4.862   5.180 -0.9102 -2.5098  3.5747
  185POPC   H9Y21256   3.481   4.945   5.167 -3.1493 -2.5795  0.8893
  185POPC  C31021257   3.538   4.838   4.989  0.2925  0.2337 -0.7611
  185POPC  H10X21258   3.431   4.844   4.959 -0.4999  4.0527  2.0475
  185POPC  H10Y21259   3.574   4.738   4.956 -0.2539  0.5338 -2.3470
  185POPC  C31121260   3.604   4.945   4.893 -1.2387 -0.3463  0.0599
  185POPC  H11X21261   3.616   5.042   4.946  0.6791 -1.6267  2.1165
  185POPC  H11Y21262   3.531   4.961   4.810 -2.5128  1.2409  1.4237
  185POPC  C31221263   3.748   4.901   4.860 -0.1643 -0.8126 -0.1708
  185POPC  H12X21264   3.750   4.799   4.817 -1.5407 -0.5486 -0.9085
  185POPC  H12Y21265   3.804   4.892   4.955 -1.4720  0.7381  0.8052
  185POPC  C31321266   3.819   4.983   4.751  0.2509 -0.5842 -0.1068
  185POPC  H13X21267   3.816   5.094   4.756  1.3412 -0.5539  0.1032
  185POPC  H13Y21268   3.769   4.953   4.656 -1.7077 -0.2194  0.7472
  185POPC  C31421269   3.967   4.951   4.742  0.4610  0.5872  0.0730
  185POPC  H14X21270   3.973   4.850   4.694 -0.9290  0.2422  0.5858
  185POPC  H14Y21271   4.017   4.938   4.840  0.9375 -0.6628 -0.3133
  185POPC  C31521272   4.052   5.056   4.668  0.7111 -1.0581 -0.2930
  185POPC  H15X21273   4.007   5.075   4.568  0.8090 -2.7361 -0.6892
  185POPC  H15Y21274   4.151   5.010   4.649  1.0516 -0.2665 -0.4758
  185POPC  C31621275   4.076   5.186   4.740  0.3396 -0.5366 -0.6239
  185POPC  H16X21276   4.124   5.268   4.682  0.0907  2.9899  3.6568
  185POPC  H16Y21277   4.142   5.169   4.827  0.9574  1.1329 -0.7306
  185POPC  H16Z21278   3.975   5.215   4.778  0.1160 -1.3704 -0.5670
  186POPC     N21279   1.685   3.271   7.063  0.1015  0.3423  0.1565
  186POPC   C1221280   1.693   3.288   6.914  0.0695  0.2801  0.1923
  186POPC  H12A21281   1.765   3.220   6.871  0.0595  0.3563  0.0550
  186POPC  H12B21282   1.725   3.386   6.883  0.3132  0.3241  0.5707
  186POPC   C1321283   1.658   3.128   7.095  0.2708  0.3044 -0.0766
  186POPC  H13A21284   1.740   3.062   7.070  0.6725 -0.2456  2.4013
  186POPC  H13B21285   1.625   3.101   7.194 -0.0440  0.7074 -0.0699
  186POPC  H13C21286   1.573   3.108   7.031  2.3264  0.2514 -3.0294
  186POPC   C1421287   1.812   3.314   7.132  0.3891  0.4861 -0.2682
  186POPC  H14A21288   1.897   3.257   7.098  1.2614  1.6138 -0.0531
  186POPC  H14B21289   1.840   3.415   7.104  0.0659  0.1148 -2.0566
  186POPC  H14C21290   1.813   3.299   7.239  2.2071 -1.7358 -0.5290
  186POPC   C1521291   1.573   3.348   7.113  0.0221  0.1100  0.2306
  186POPC  H15A21292   1.488   3.323   7.051 -0.5664  1.9584  0.2077
  186POPC  H15B21293   1.593   3.453   7.097  0.2636  0.2126  1.1351
  186POPC  H15C21294   1.560   3.331   7.219  0.8442  0.8536  0.4655
  186POPC   C1121295   1.559   3.266   6.833  0.7076 -0.2770  0.2019
  186POPC  H11A21296   1.589   3.276   6.726  2.9581  0.4340  0.8243
  186POPC  H11B21297   1.489   3.348   6.861  0.7681 -0.8993  2.3541
  186POPC     P21298   1.507   3.011   6.786  0.2353  0.3039 -0.1149
  186POPC   O1321299   1.387   2.932   6.820  0.1326 -0.2573 -0.3780
  186POPC   O1421300   1.637   2.947   6.811 -0.0701 -0.5139 -0.0375
  186POPC   O1221301   1.499   3.146   6.862  0.3581  0.4791  0.2281
  186POPC   O1121302   1.496   3.042   6.631 -0.2794  0.1008  0.0460
  186POPC    C121303   1.603   2.993   6.541 -0.0539  0.4142  0.2388
  186POPC    HA21304   1.549   2.972   6.446 -1.2899 -1.9508  1.3675
  186POPC    HB21305   1.651   2.902   6.582  1.1521  1.1480  0.4995
  186POPC    C221306   1.715   3.098   6.499 -0.1493  0.5940 -0.8650
  186POPC    HS21307   1.772   3.115   6.593  1.8663 -1.5537 -1.6034
  186POPC   O2121308   1.659   3.222   6.447 -0.1566 -1.0290 -0.2235
  186POPC   C2121309   1.746   3.319   6.422  0.3397  0.0934  0.3671
  186POPC   O2221310   1.856   3.331   6.473  1.0457  0.9331 -0.3651
  186POPC   C2221311   1.684   3.402   6.318 -0.0582  0.2525  0.1126
  186POPC   H2R21312   1.748   3.493   6.312  0.3812 -0.0014  0.7608
  186POPC   H2S21313   1.582   3.437   6.342 -0.0535 -0.4561  1.2341
  186POPC    C321314   1.823   3.029   6.412 -0.0187 -0.5279 -1.2604
  186POPC    HX21315   1.836   2.931   6.461 -3.6003 -0.7348 -0.5092
  186POPC    HY21316   1.916   3.089   6.426 -0.3992 -0.3166  0.7422
  186POPC   O3121317   1.770   3.030   6.281 -0.3858  0.5504 -0.4814
  186POPC   C3121318   1.858   2.980   6.188  0.0932  0.1462 -0.1900
  186POPC   O3221319   1.971   2.951   6.215 -0.0679  0.5013 -0.0513
  186POPC   C3221320   1.794   2.983   6.048 -0.0784  0.5225 -1.2768
  186POPC   H2X21321   1.716   3.062   6.048 -0.8323 -0.0858  1.8826
  186POPC   H2Y21322   1.745   2.883   6.037  0.9236 -0.1509  0.1796
  186POPC   C2321323   1.677   3.316   6.183 -0.5490  0.1698  0.1673
  186POPC   H3R21324   1.610   3.227   6.191  1.0703 -0.9594  2.5123
  186POPC   H3S21325   1.775   3.266   6.169 -1.8123 -2.1519 -1.0408
  186POPC   C2421326   1.666   3.410   6.054 -0.4361 -0.4799  0.0842
  186POPC   H4R21327   1.723   3.503   6.078 -1.7324  0.0839  1.1044
  186POPC   H4S21328   1.557   3.430   6.045 -0.7912 -2.6713 -1.0345
  186POPC   C2521329   1.702   3.328   5.932 -0.4320 -0.1530  0.2213
  186POPC   H5R21330   1.643   3.235   5.916 -1.5291  0.4137  0.8237
  186POPC   H5S21331   1.810   3.306   5.944  0.1304 -0.0316 -3.3780
  186POPC   C2621332   1.687   3.407   5.801 -0.1102  0.0953 -0.0698
  186POPC   H6R21333   1.769   3.472   5.764 -1.4495  1.0977 -1.4070
  186POPC   H6S21334   1.603   3.478   5.812  0.0540  0.2535  0.1592
  186POPC   C2721335   1.651   3.308   5.683 -0.1143 -0.6260 -0.2111
  186POPC   H7R21336   1.560   3.247   5.701 -0.6497  0.3804  0.6259
  186POPC   H7S21337   1.747   3.252   5.683 -0.3855 -1.1423  1.3706
  186POPC   C2821338   1.639   3.387   5.552 -0.3833 -0.1343 -0.3202
  186POPC   H8R21339   1.655   3.327   5.460  2.5406 -0.6368  0.4277
  186POPC   H8S21340   1.733   3.446   5.553  0.6586 -1.7210 -0.4283
  186POPC   C2921341   1.515   3.470   5.543 -0.3388 -0.5773  0.4978
  186POPC   H9121342   1.526   3.562   5.603 -0.3631 -0.4462  0.2980
  186POPC  C21021343   1.411   3.447   5.473  1.6845 -0.4230 -0.4385
  186POPC  H10121344   1.331   3.523   5.471  0.1114 -1.6703  4.0248
  186POPC  C21121345   1.393   3.328   5.379  0.3806  0.6204  0.1814
  186POPC  H11R21346   1.288   3.295   5.366  0.3158  0.3376  1.3572
  186POPC  H11S21347   1.449   3.242   5.422  0.4776  1.9637  2.9599
  186POPC  C21221348   1.451   3.362   5.244 -0.0419  0.2278 -0.5029
  186POPC  H12R21349   1.561   3.367   5.262  0.2261 -2.0593 -1.1505
  186POPC  H12S21350   1.414   3.458   5.204  0.3826  0.8530  0.5737
  186POPC  C21321351   1.441   3.243   5.148 -0.9118  0.3925 -0.3401
  186POPC  H13R21352   1.338   3.240   5.104 -0.6583 -1.2007 -0.9009
  186POPC  H13S21353   1.469   3.147   5.196 -0.7462 -0.2129 -1.6044
  186POPC  C21421354   1.531   3.272   5.016 -0.3360  0.2471 -0.5395
  186POPC  H14R21355   1.638   3.273   5.043 -1.1204 -1.2170  3.2737
  186POPC  H14S21356   1.506   3.372   4.976  1.3703  0.0054 -2.4099
  186POPC  C21521357   1.493   3.176   4.895  0.7558 -0.0974  0.2388
  186POPC  H15R21358   1.381   3.179   4.893  0.7432 -0.5689 -0.0708
  186POPC  H15S21359   1.523   3.072   4.923  0.8919 -0.0665  0.2071
  186POPC  C21621360   1.552   3.221   4.763 -0.4768  0.1034  0.7874
  186POPC  H16R21361   1.660   3.199   4.776 -0.5150  0.5199  1.9551
  186POPC  H16S21362   1.541   3.331   4.756  2.0086  0.3128 -1.6582
  186POPC  C21721363   1.490   3.150   4.645  0.2131  0.0513 -0.3722
  186POPC  H17R21364   1.385   3.180   4.624 -0.3238 -1.2266  0.3914
  186POPC  H17S21365   1.487   3.042   4.671  0.4098 -0.8166 -3.5538
  186POPC  C21821366   1.576   3.164   4.519 -0.1050 -1.0346 -0.6918
  186POPC  H18R21367   1.673   3.113   4.533 -0.4883 -1.7838 -0.7223
  186POPC  H18S21368   1.598   3.268   4.485  0.3943 -1.2688 -1.0860
  186POPC  H18T21369   1.521   3.112   4.437  1.1975 -1.4448 -1.3201
  186POPC   C3321370   1.884   2.995   5.920  0.1422  0.1887 -1.4162
  186POPC   H3X21371   1.972   2.929   5.931  0.5854  1.0996  1.2123
  186POPC   H3Y21372   1.923   3.099   5.919  2.4349 -0.5960 -0.5429
  186POPC   C3421373   1.805   2.966   5.792 -0.1161  0.1909  0.0901
  186POPC   H4X21374   1.716   3.031   5.778  0.1723  0.2833 -1.5044
  186POPC   H4Y21375   1.763   2.863   5.792  1.4312 -0.4954  1.8019
  186POPC   C3521376   1.894   2.987   5.676 -0.3328 -0.8032 -0.0901
  186POPC   H5X21377   1.983   2.921   5.691  0.7262  0.2891 -1.3332
  186POPC   H5Y21378   1.920   3.095   5.667 -1.3772 -0.2905  2.3582
  186POPC   C3621379   1.834   2.936   5.546 -0.9081  0.4069  0.0970
  186POPC   H6X21380   1.806   2.830   5.563 -1.6979  0.7155  0.8036
  186POPC   H6Y21381   1.925   2.932   5.483  0.6470 -1.3289  2.3029
  186POPC   C3721382   1.720   3.018   5.481  0.1925 -0.7558 -0.2386
  186POPC   H7X21383   1.760   3.122   5.486 -0.8567 -0.2803 -1.2265
  186POPC   H7Y21384   1.625   3.004   5.538  0.2805  0.3102  0.1978
  186POPC   C3821385   1.682   2.958   5.345 -0.3496 -0.5065 -0.3912
  186POPC   H8X21386   1.584   2.994   5.306 -1.0240 -3.8701 -2.1765
  186POPC   H8Y21387   1.689   2.848   5.353 -0.8752 -0.4699  0.9091
  186POPC   C3921388   1.781   2.996   5.233 -0.5069 -0.0053 -0.0732
  186POPC   H9X21389   1.878   2.946   5.255 -0.8842  0.1095  1.9992
  186POPC   H9Y21390   1.792   3.106   5.237 -1.0020  0.0508 -0.2123
  186POPC  C31021391   1.724   2.958   5.093  0.6051 -0.0483  0.1212
  186POPC  H10X21392   1.784   3.020   5.024  0.7431  0.2374  0.4924
  186POPC  H10Y21393   1.614   2.976   5.098  0.1972 -2.5644  2.3952
  186POPC  C31121394   1.743   2.805   5.060  0.0477  0.4261  0.1846
  186POPC  H11X21395   1.712   2.744   5.147  1.8059 -1.4442 -0.4057
  186POPC  H11Y21396   1.853   2.789   5.049 -0.3549 -2.1088 -0.5484
  186POPC  C31221397   1.674   2.761   4.933 -0.4636  0.1517  0.4083
  186POPC  H12X21398   1.567   2.770   4.961 -0.3398  1.5695  0.5054
  186POPC  H12Y21399   1.695   2.655   4.907  1.4369  0.3216  1.0506
  186POPC  C31321400   1.712   2.851   4.808 -0.1291  0.5807 -0.1423
  186POPC  H13X21401   1.673   2.955   4.817 -1.1546  0.3576 -1.5821
  186POPC  H13Y21402   1.654   2.804   4.725 -1.0788 -0.4219  1.0551
  186POPC  C31421403   1.859   2.857   4.763  0.4240 -0.3937 -0.0630
  186POPC  H14X21404   1.916   2.930   4.825 -0.8869 -0.3190  1.0957
  186POPC  H14Y21405   1.874   2.900   4.661  0.3849  0.5108  0.3020
  186POPC  C31521406   1.924   2.720   4.767 -0.1573  0.0142  0.4623
  186POPC  H15X21407   1.877   2.655   4.690 -0.1610 -1.3894  1.6140
  186POPC  H15Y21408   1.909   2.668   4.863 -2.8072  1.7048  1.0577
  186POPC  C31621409   2.075   2.728   4.748 -0.1350 -0.4985  0.4287
  186POPC  H16X21410   2.116   2.790   4.830  1.1554  0.3732 -0.8253
  186POPC  H16Y21411   2.100   2.775   4.651  2.7079 -2.2909  0.1611
  186POPC  H16Z21412   2.113   2.623   4.752 -1.3011 -0.9546  0.1123
  187POPC     N21413   0.575   2.202   1.877 -0.3848  0.4578  0.5350
  187POPC   C1221414   0.695   2.124   1.927  0.6265  0.2230 -0.4204
  187POPC  H12A21415   0.762   2.188   1.982 -0.8087  1.0847  0.3993
  187POPC  H12B21416   0.759   2.098   1.845 -0.1141 -1.1115 -0.6020
  187POPC   C1321417   0.495   2.248   1.994 -0.2174 -0.3891 -0.0574
  187POPC  H13A21418   0.443   2.170   2.048 -1.3839 -0.0123 -0.6138
  187POPC  H13B21419   0.565   2.296   2.061 -0.4353  0.7281 -0.6072
  187POPC  H13C21420   0.426   2.323   1.957  1.2496  0.5244 -1.0411
  187POPC   C1421421   0.625   2.327   1.804 -0.3270 -0.7173  0.2273
  187POPC  H14A21422   0.676   2.295   1.714  0.6743  0.5468  0.3114
  187POPC  H14B21423   0.545   2.397   1.786 -1.2859 -1.9938 -0.7460
  187POPC  H14C21424   0.707   2.367   1.861 -0.4723  1.1784 -0.8016
  187POPC   C1521425   0.472   2.129   1.788  1.0064  0.3228  0.5310
  187POPC  H15A21426   0.445   2.032   1.828  2.3747 -1.4985 -2.5786
  187POPC  H15B21427   0.497   2.120   1.684 -0.5411 -0.4821  0.2012
  187POPC  H15C21428   0.385   2.192   1.787  0.0334 -0.9555  1.5367
  187POPC   C1121429   0.662   1.995   2.010  0.4008  0.5012  0.2512
  187POPC  H11A21430   0.759   1.941   2.025 -0.2133  0.0679  3.5083
  187POPC  H11B21431   0.596   1.922   1.959  1.7460 -0.6212  0.0557
  187POPC     P21432   0.523   1.956   2.234 -0.2624 -0.2693 -0.0214
  187POPC   O1321433   0.390   1.993   2.179  0.1402  0.2090  0.1141
  187POPC   O1421434   0.545   1.987   2.382 -0.2380  0.2670  0.3581
  187POPC   O1221435   0.628   2.032   2.148 -0.3551 -0.4047 -0.3109
  187POPC   O1121436   0.545   1.804   2.203 -0.6206  0.5684  0.3571
  187POPC    C121437   0.645   1.730   2.281 -0.0003  1.0466 -0.2823
  187POPC    HA21438   0.612   1.726   2.387  0.0995  1.7212 -0.2202
  187POPC    HB21439   0.746   1.776   2.275  0.5760 -0.2519 -1.2781
  187POPC    C221440   0.662   1.581   2.241  0.0317  0.0185 -0.7102
  187POPC    HS21441   0.698   1.571   2.137 -0.2260 -0.1261 -0.7849
  187POPC   O2121442   0.536   1.523   2.265  0.7056  0.9630  0.0035
  187POPC   C2121443   0.518   1.407   2.198  0.3207  0.3075  0.0708
  187POPC   O2221444   0.604   1.355   2.133 -0.0153 -0.5896  0.2245
  187POPC   C2221445   0.370   1.347   2.230  0.2658 -0.9095  0.2708
  187POPC   H2R21446   0.372   1.242   2.194  0.2998 -0.5855 -0.7237
  187POPC   H2S21447   0.295   1.412   2.179 -0.1510 -1.0897  0.6464
  187POPC    C321448   0.771   1.515   2.333  0.0461 -0.5828 -0.2139
  187POPC    HX21449   0.863   1.577   2.325  0.1255 -0.5542  0.7845
  187POPC    HY21450   0.816   1.421   2.293 -2.7371 -1.8942 -0.5115
  187POPC   O3121451   0.721   1.504   2.468 -0.3179  0.0710  0.6121
  187POPC   C3121452   0.694   1.373   2.504 -0.4811 -0.3439 -0.7248
  187POPC   O3221453   0.705   1.278   2.429  0.4582 -0.0043  0.1846
  187POPC   C3221454   0.645   1.369   2.654  0.3591 -1.0535  0.1889
  187POPC   H2X21455   0.566   1.445   2.671  1.1680 -0.4953  1.5969
  187POPC   H2Y21456   0.724   1.407   2.722 -2.0686 -0.6014  2.9715
  187POPC   C2321457   0.335   1.323   2.380  0.4566  0.4057  0.7565
  187POPC   H3R21458   0.427   1.285   2.429 -0.4988 -3.6845 -0.2307
  187POPC   H3S21459   0.257   1.244   2.379  1.6535 -0.8046  0.2714
  187POPC   C2421460   0.265   1.446   2.448  0.2590  0.5632  0.1392
  187POPC   H4R21461   0.188   1.483   2.378 -0.2737 -1.8550 -0.6288
  187POPC   H4S21462   0.331   1.534   2.466  0.8286 -0.3102  2.7233
  187POPC   C2521463   0.223   1.410   2.590  0.3509  0.2304  0.1961
  187POPC   H5R21464   0.300   1.354   2.646  0.2178 -0.4920 -0.3293
  187POPC   H5S21465   0.144   1.333   2.578  0.4693  0.2063 -0.4736
  187POPC   C2621466   0.149   1.525   2.659  0.8951  0.6331  0.8118
  187POPC   H6R21467   0.050   1.537   2.611  1.3078  0.9011  0.0084
  187POPC   H6S21468   0.212   1.613   2.633 -0.5137  0.8387 -2.2947
  187POPC   C2721469   0.148   1.510   2.815 -0.1742 -0.5236  0.2845
  187POPC   H7R21470   0.111   1.601   2.866  1.2100  0.2524 -0.0511
  187POPC   H7S21471   0.251   1.478   2.840 -0.3053 -1.4644 -0.3092
  187POPC   C2821472   0.052   1.401   2.865  0.1170 -0.4146  0.0016
  187POPC   H8R21473   0.068   1.375   2.972  0.4607  0.6607  0.2215
  187POPC   H8S21474   0.068   1.308   2.806 -0.2769 -0.4427 -0.0587
  187POPC   C2921475  -0.092   1.431   2.843  0.5003  0.0529  0.1926
  187POPC   H9121476  -0.127   1.399   2.744  0.6455 -1.2415  0.5412
  187POPC  C21021477  -0.169   1.502   2.925  0.2520  0.8175 -0.0342
  187POPC  H10121478  -0.277   1.502   2.905  0.2444  0.0625 -0.0352
  187POPC  C21121479  -0.128   1.560   3.055 -0.6032 -0.7540  0.1245
  187POPC  H11R21480  -0.029   1.522   3.088  0.1326 -1.0870 -2.3089
  187POPC  H11S21481  -0.213   1.538   3.124 -1.5441  0.6750 -0.5328
  187POPC  C21221482  -0.119   1.717   3.053  0.7446  0.6096  0.7342
  187POPC  H12R21483  -0.216   1.766   3.029  0.1521 -0.5769  0.6417
  187POPC  H12S21484  -0.044   1.748   2.976  0.8203  0.5845  0.7975
  187POPC  C21321485  -0.078   1.780   3.185 -0.2224  0.5410 -0.8671
  187POPC  H13R21486  -0.166   1.778   3.254  1.1973 -0.2786  1.0195
  187POPC  H13S21487  -0.062   1.888   3.166 -1.8150  0.8638 -0.5896
  187POPC  C21421488   0.044   1.725   3.257  0.0948  0.1187  0.5143
  187POPC  H14R21489   0.131   1.748   3.193  1.5467 -2.8657  1.2229
  187POPC  H14S21490   0.038   1.617   3.283  0.5217  0.3526  1.6491
  187POPC  C21521491   0.075   1.793   3.386  0.1349  0.1147 -0.3630
  187POPC  H15R21492  -0.012   1.790   3.454  0.1337 -2.2326 -0.3959
  187POPC  H15S21493   0.120   1.891   3.360  2.5991 -1.2374 -1.6192
  187POPC  C21621494   0.181   1.725   3.479  0.3934  0.2312 -0.0618
  187POPC  H16R21495   0.279   1.722   3.427  0.0567 -1.7123 -0.6781
  187POPC  H16S21496   0.135   1.625   3.496 -0.2906  0.8237  1.8544
  187POPC  C21721497   0.185   1.789   3.613 -0.5797  0.0216  0.0438
  187POPC  H17R21498   0.082   1.802   3.653 -1.7075 -1.2101 -2.2471
  187POPC  H17S21499   0.230   1.889   3.593 -0.6565 -0.3283 -2.0730
  187POPC  C21821500   0.278   1.706   3.709  0.1229 -0.1957 -0.1314
  187POPC  H18R21501   0.379   1.684   3.668 -1.1600 -3.1939 -2.0573
  187POPC  H18S21502   0.234   1.607   3.734  1.0556 -0.7059 -0.5007
  187POPC  H18T21503   0.300   1.763   3.802  0.1185  0.0683 -0.2919
  187POPC   C3321504   0.594   1.230   2.695 -0.0239  0.6065 -0.6608
  187POPC   H3X21505   0.682   1.163   2.687  1.9218  2.9364 -0.0217
  187POPC   H3Y21506   0.506   1.197   2.635  0.4987 -2.8256  0.2418
  187POPC   C3421507   0.558   1.212   2.849  0.6773 -1.4910  0.2041
  187POPC   H4X21508   0.648   1.247   2.904  2.0596 -1.4087 -1.9972
  187POPC   H4Y21509   0.543   1.103   2.865  2.5436 -2.2388 -2.4384
  187POPC   C3521510   0.443   1.312   2.905  0.3987 -0.0065  0.4023
  187POPC   H5X21511   0.349   1.254   2.889  0.8628 -0.3443 -1.2594
  187POPC   H5Y21512   0.438   1.396   2.833 -1.5599 -0.7650 -0.4130
  187POPC   C3621513   0.469   1.358   3.052 -0.5943 -0.1612  0.8349
  187POPC   H6X21514   0.554   1.429   3.044  1.7525 -2.9096 -1.3102
  187POPC   H6Y21515   0.506   1.269   3.107  0.3641 -0.5242 -0.3373
  187POPC   C3721516   0.347   1.433   3.110  0.4317  0.2190 -0.1341
  187POPC   H7X21517   0.261   1.363   3.104  1.6285 -1.3917  0.7883
  187POPC   H7Y21518   0.334   1.518   3.038  0.8891  1.4520  1.1893
  187POPC   C3821519   0.363   1.486   3.251  0.0818 -0.3631  0.2083
  187POPC   H8X21520   0.277   1.556   3.254  0.5755  0.2245  1.7380
  187POPC   H8Y21521   0.455   1.548   3.257  0.6184 -1.0168 -1.0120
  187POPC   C3921522   0.368   1.378   3.362  0.2031 -0.2226 -0.3589
  187POPC   H9X21523   0.452   1.311   3.332  0.5745 -0.3924  1.0150
  187POPC   H9Y21524   0.272   1.323   3.369  0.1197 -0.2705 -1.6425
  187POPC  C31021525   0.412   1.442   3.501  1.1437  0.6231  0.0634
  187POPC  H10X21526   0.337   1.512   3.543  2.3399  1.5791  0.6783
  187POPC  H10Y21527   0.504   1.498   3.476  1.0180  1.1129  0.6761
  187POPC  C31121528   0.455   1.343   3.608  0.3874 -0.6203 -0.1057
  187POPC  H11X21529   0.539   1.282   3.570  0.1566 -1.0266  0.0364
  187POPC  H11Y21530   0.373   1.271   3.624  0.3431 -0.7371 -0.8304
  187POPC  C31221531   0.490   1.405   3.747 -0.4697  0.1666  0.3021
  187POPC  H12X21532   0.404   1.462   3.788 -0.3009 -1.3653  3.0373
  187POPC  H12Y21533   0.562   1.489   3.738  0.1286  0.0176  2.9508
  187POPC  C31321534   0.537   1.308   3.851  0.8531 -0.4166  0.1900
  187POPC  H13X21535   0.621   1.264   3.793 -0.3829 -0.7618 -1.4421
  187POPC  H13Y21536   0.459   1.235   3.880 -0.6475 -0.8739 -4.1469
  187POPC  C31421537   0.594   1.375   3.973  0.1291 -0.2711 -0.4912
  187POPC  H14X21538   0.511   1.426   4.026  1.9410 -0.4652  2.8323
  187POPC  H14Y21539   0.672   1.447   3.940  2.1662 -2.6382 -1.1883
  187POPC  C31521540   0.656   1.281   4.075  0.0609 -0.1921 -0.0659
  187POPC  H15X21541   0.712   1.200   4.024  1.4849  1.1760 -0.7724
  187POPC  H15Y21542   0.578   1.236   4.140 -0.0611  0.7445  0.4630
  187POPC  C31621543   0.757   1.370   4.154 -0.2564  0.0985 -0.3428
  187POPC  H16X21544   0.841   1.397   4.086 -0.5684  2.3572  0.0706
  187POPC  H16Y21545   0.800   1.314   4.240  0.1796 -2.0865 -1.9132
  187POPC  H16Z21546   0.712   1.465   4.190  1.1774 -0.0974  2.2212
  188POPC     N21547   5.944   2.534   2.001 -0.9752  0.6448  0.1755
  188POPC   C1221548   6.029   2.502   2.120  0.0528  0.1860  0.2685
  188POPC  H12A21549   5.960   2.442   2.176  0.9210 -2.4587 -1.3429
  188POPC  H12B21550   6.053   2.586   2.184 -2.8140  0.0595  1.6896
  188POPC   C1321551   5.891   2.407   1.944  0.3226  0.0912 -0.1143
  188POPC  H13A21552   5.802   2.431   1.887  0.5622  1.8195  0.1772
  188POPC  H13B21553   5.955   2.344   1.884 -1.7378 -1.3169 -0.9453
  188POPC  H13C21554   5.850   2.351   2.027  0.2722  1.4433  0.8081
  188POPC   C1421555   5.826   2.618   2.045  0.5595  0.2117  0.0128
  188POPC  H14A21556   5.758   2.567   2.113 -1.3445  1.4155 -0.8856
  188POPC  H14B21557   5.871   2.705   2.089  1.4585 -0.8526  1.2433
  188POPC  H14C21558   5.767   2.639   1.956  1.7177 -0.7952 -1.0347
  188POPC   C1521559   6.011   2.610   1.897  0.3962  0.3380  0.2589
  188POPC  H15A21560   5.951   2.614   1.807 -0.0305 -1.8286  0.4035
  188POPC  H15B21561   6.112   2.573   1.882  0.5929 -0.3166  2.7339
  188POPC  H15C21562   6.024   2.714   1.924  2.0019  0.9207 -2.3852
  188POPC   C1121563   6.166   2.427   2.109 -0.2597  0.6354  0.2214
  188POPC  H11A21564   6.134   2.335   2.056 -2.7309  0.6556  1.5016
  188POPC  H11B21565   6.210   2.394   2.206 -1.1717  0.2638  0.5297
  188POPC     P21566   6.315   2.638   2.067 -0.1426  0.1890  0.3741
  188POPC   O1321567   6.264   2.739   1.969  0.0246 -0.2145 -0.5503
  188POPC   O1421568   6.465   2.628   2.075 -0.7601  0.0374  0.0801
  188POPC   O1221569   6.261   2.496   2.032  0.1679 -0.0443  0.1635
  188POPC   O1121570   6.236   2.668   2.202  0.2274  0.1692 -0.0117
  188POPC    C121571   6.270   2.780   2.279 -0.1921  0.0969  0.4662
  188POPC    HA21572   6.181   2.842   2.304  0.2360  1.2762 -0.7923
  188POPC    HB21573   6.345   2.840   2.224 -0.0549 -2.7308 -2.7720
  188POPC    C221574   6.338   2.722   2.404 -0.6877  0.2094  0.2586
  188POPC    HS21575   6.323   2.795   2.487 -0.7884 -2.4016  2.7184
  188POPC   O2121576   6.475   2.687   2.371 -0.0289  0.1615 -0.3895
  188POPC   C2121577   6.558   2.780   2.399  0.7525 -0.0078  0.3546
  188POPC   O2221578   6.533   2.894   2.436  0.9315 -0.1139 -0.3406
  188POPC   C2221579   6.699   2.726   2.363  0.0489 -0.7849 -0.1338
  188POPC   H2R21580   6.737   2.793   2.282  2.9110 -0.8892  0.9883
  188POPC   H2S21581   6.701   2.632   2.304 -0.5922  0.2618 -1.8999
  188POPC    C321582   6.268   2.590   2.459 -0.2072  0.2498 -0.2779
  188POPC    HX21583   6.278   2.509   2.384  0.4418  0.2621 -0.2058
  188POPC    HY21584   6.159   2.607   2.471 -0.6967 -1.0597 -2.3895
  188POPC   O3121585   6.328   2.549   2.586 -0.2918  0.8289  0.2631
  188POPC   C3121586   6.292   2.431   2.621 -0.3309 -0.3041  0.5130
  188POPC   O3221587   6.242   2.349   2.550  0.8545 -0.1122  0.2365
  188POPC   C3221588   6.326   2.409   2.769 -0.1196  0.0417  0.4622
  188POPC   H2X21589   6.364   2.508   2.804 -0.5053  0.7123 -0.9275
  188POPC   H2Y21590   6.417   2.347   2.756 -1.4200 -1.4504 -2.7681
  188POPC   C2321591   6.802   2.720   2.482 -0.6396 -0.1164  0.5437
  188POPC   H3R21592   6.814   2.813   2.541  0.4609 -0.4855  0.9201
  188POPC   H3S21593   6.901   2.712   2.432 -1.0024 -1.0014 -0.0643
  188POPC   C2421594   6.795   2.602   2.580  0.6534 -0.0981  0.8700
  188POPC   H4R21595   6.837   2.513   2.528  1.0600 -0.0305  1.0884
  188POPC   H4S21596   6.692   2.575   2.613  0.7312 -3.1349 -0.9797
  188POPC   C2521597   6.878   2.598   2.710  0.0403  0.0247 -0.1856
  188POPC   H5R21598   6.886   2.700   2.754  3.3148 -0.4124  0.4356
  188POPC   H5S21599   6.980   2.562   2.686  0.9816  0.9735  2.0787
  188POPC   C2621600   6.828   2.512   2.820  0.6818  0.7509 -0.7247
  188POPC   H6R21601   6.835   2.404   2.798  0.2217  0.0784  2.0734
  188POPC   H6S21602   6.722   2.538   2.840  0.3753  0.4166 -1.8609
  188POPC   C2721603   6.907   2.529   2.942  0.0509  0.0943 -0.4584
  188POPC   H7R21604   6.883   2.625   2.993  1.1967 -0.1212  0.5300
  188POPC   H7S21605   7.013   2.537   2.911  0.0552  1.0100 -0.2519
  188POPC   C2821606   6.885   2.422   3.053  0.8554 -0.5279  0.4368
  188POPC   H8R21607   6.956   2.441   3.136  0.5225 -1.2199  0.8922
  188POPC   H8S21608   6.927   2.327   3.011  1.1623 -1.0788  1.9187
  188POPC   C2921609   6.743   2.408   3.103  0.4325  0.3557 -0.4974
  188POPC   H9121610   6.675   2.366   3.027 -1.2093 -0.0304  1.0953
  188POPC  C21021611   6.688   2.454   3.220 -0.4750 -0.0937  0.0888
  188POPC  H10121612   6.580   2.437   3.237 -0.3977 -0.8232 -0.1082
  188POPC  C21121613   6.758   2.527   3.329 -0.6911 -0.6391  0.8567
  188POPC  H11R21614   6.722   2.631   3.338  1.3988  0.2531 -0.4723
  188POPC  H11S21615   6.866   2.545   3.313 -0.9359  0.7687  0.6721
  188POPC  C21221616   6.748   2.446   3.457  0.0918  0.2365  0.1841
  188POPC  H12R21617   6.807   2.352   3.447  0.3057  0.4254 -0.3409
  188POPC  H12S21618   6.640   2.426   3.470  0.3543 -1.4732  0.0001
  188POPC  C21321619   6.806   2.503   3.589 -0.0492  0.0231 -0.4069
  188POPC  H13R21620   6.758   2.603   3.585 -2.2995 -1.0138 -1.4914
  188POPC  H13S21621   6.913   2.521   3.568  0.0625  2.2823  1.6717
  188POPC  C21421622   6.775   2.427   3.724  0.3549  0.2446  0.3356
  188POPC  H14R21623   6.834   2.333   3.722 -1.6274 -1.0383 -0.2112
  188POPC  H14S21624   6.665   2.413   3.730  0.3028 -0.1327 -1.2386
  188POPC  C21521625   6.815   2.507   3.852 -0.0290 -0.4261 -0.3767
  188POPC  H15R21626   6.748   2.595   3.845 -1.6685 -1.5415  0.5040
  188POPC  H15S21627   6.914   2.556   3.842 -0.3971  0.2483 -0.7455
  188POPC  C21621628   6.797   2.447   3.992  0.1300 -0.0635 -0.3135
  188POPC  H16R21629   6.856   2.353   3.997 -1.6375 -1.1327  1.8661
  188POPC  H16S21630   6.688   2.429   4.004  0.3950 -1.5272  0.0095
  188POPC  C21721631   6.854   2.533   4.103 -0.4009 -0.3515 -0.5873
  188POPC  H17R21632   6.804   2.631   4.089 -0.9733 -0.7507 -1.4668
  188POPC  H17S21633   6.964   2.535   4.087 -0.5724  2.0167 -1.8532
  188POPC  C21821634   6.829   2.488   4.245 -0.6877  0.3297 -0.3732
  188POPC  H18R21635   6.903   2.410   4.273  2.4550  2.7739 -1.1949
  188POPC  H18S21636   6.726   2.455   4.266 -0.3248 -0.3342  0.3942
  188POPC  H18T21637   6.855   2.573   4.312  0.1817 -1.3582  1.5077
  188POPC   C3321638   6.219   2.342   2.858  0.1045  0.5443  0.1978
  188POPC   H3X21639   6.274   2.296   2.943  0.7500  2.2512  0.7487
  188POPC   H3Y21640   6.167   2.260   2.804  1.4313 -1.6413  2.0361
  188POPC   C3421641   6.111   2.444   2.906  0.0048  0.2603 -0.6037
  188POPC   H4X21642   6.017   2.399   2.944  0.3031  0.8741  0.9451
  188POPC   H4Y21643   6.097   2.514   2.821 -2.6003 -0.0471 -0.5189
  188POPC   C3521644   6.162   2.520   3.027 -1.1187 -0.3205  0.5183
  188POPC   H5X21645   6.096   2.606   3.051 -1.0785 -0.6498  1.9410
  188POPC   H5Y21646   6.260   2.570   3.013 -1.2227 -0.7287 -1.9775
  188POPC   C3621647   6.169   2.424   3.148 -0.5041  0.5295  0.4421
  188POPC   H6X21648   6.220   2.330   3.122 -0.2430  0.5811  0.7620
  188POPC   H6Y21649   6.064   2.402   3.178 -0.2064 -0.8305  0.5111
  188POPC   C3721650   6.238   2.480   3.272  0.1671  0.5390  0.3806
  188POPC   H7X21651   6.218   2.589   3.260  0.7989  0.5921 -0.2428
  188POPC   H7Y21652   6.348   2.467   3.277  0.2246  1.3960  1.7882
  188POPC   C3821653   6.181   2.419   3.398 -0.1752  0.4429 -0.0187
  188POPC   H8X21654   6.108   2.337   3.381 -3.7767  3.1878  1.0790
  188POPC   H8Y21655   6.128   2.506   3.441 -0.0569  0.1315  0.7775
  188POPC   C3921656   6.289   2.393   3.498 -0.7871  0.2500 -0.0628
  188POPC   H9X21657   6.378   2.459   3.489  0.3834 -0.7056  3.1087
  188POPC   H9Y21658   6.324   2.288   3.487  0.3747  0.5290  0.8203
  188POPC  C31021659   6.240   2.406   3.646 -0.4535 -0.3416 -0.1483
  188POPC  H10X21660   6.134   2.376   3.655 -0.6988 -0.2932 -2.2087
  188POPC  H10Y21661   6.252   2.511   3.679 -0.1605 -0.3260 -0.2976
  188POPC  C31121662   6.331   2.314   3.734  1.3001 -0.5497  0.0873
  188POPC  H11X21663   6.436   2.335   3.704  0.7934  0.9222 -0.7419
  188POPC  H11Y21664   6.310   2.206   3.714 -0.6593 -0.1847 -0.0886
  188POPC  C31221665   6.298   2.337   3.881  0.0741  0.2005 -0.8308
  188POPC  H12X21666   6.196   2.311   3.916 -0.4592  1.9013 -1.0443
  188POPC  H12Y21667   6.309   2.446   3.898  1.0512 -0.1076  0.7356
  188POPC  C31321668   6.399   2.272   3.975  0.5744  0.1534  0.0782
  188POPC  H13X21669   6.493   2.329   3.963  1.0612  0.2711  3.3899
  188POPC  H13Y21670   6.418   2.168   3.943 -1.0723 -0.1605  0.0464
  188POPC  C31421671   6.363   2.265   4.117  0.9655  0.5882 -0.4816
  188POPC  H14X21672   6.260   2.230   4.135  1.3247 -0.1527  0.1992
  188POPC  H14Y21673   6.372   2.368   4.159 -1.6433  1.2525 -1.3949
  188POPC  C31521674   6.453   2.171   4.201  0.8045 -0.0610  0.1627
  188POPC  H15X21675   6.557   2.203   4.180  0.7057 -0.5995 -1.2415
  188POPC  H15Y21676   6.444   2.067   4.163  2.1215 -0.4054  0.7505
  188POPC  C31621677   6.412   2.180   4.349 -0.1855  0.5781  0.2588
  188POPC  H16X21678   6.303   2.164   4.363  0.0168 -1.3219 -0.0128
  188POPC  H16Y21679   6.439   2.283   4.381 -0.4912  1.0253 -0.8750
  188POPC  H16Z21680   6.472   2.105   4.405  1.9346  1.5408 -0.6094
  189SAPI   C1221681   5.424   4.500   6.585 -0.3989 -0.3135  0.0782
  189SAPI    H221682   5.331   4.542   6.629 -1.3179 -1.6366 -0.5103
  189SAPI    O221683   5.392   4.465   6.450 -0.4368  0.1881  0.5452
  189SAPI   HO221684   5.385   4.369   6.452  0.4280  0.0370 -1.4832
  189SAPI   C1321685   5.524   4.612   6.594 -0.3801  0.6188 -0.3304
  189SAPI    H321686   5.533   4.639   6.701  2.9554 -1.4204  0.0241
  189SAPI    O321687   5.487   4.731   6.528 -0.2033  0.0370  0.1839
  189SAPI   HO321688   5.486   4.709   6.434  0.5113 -1.2639  0.4549
  189SAPI   C1421689   5.661   4.561   6.547 -0.0276  0.6508  0.4598
  189SAPI    H421690   5.652   4.572   6.436  2.3319  3.9836  0.4629
  189SAPI    O421691   5.759   4.653   6.574  0.6053 -0.1603  0.5086
  189SAPI   HO421692   5.821   4.669   6.502  2.1471 -0.9679  1.5967
  189SAPI   C1521693   5.704   4.415   6.572  0.5184  0.1203 -0.0814
  189SAPI    H521694   5.764   4.423   6.665 -0.0809  0.4244  0.2837
  189SAPI    O521695   5.791   4.373   6.470 -0.5656 -0.5615 -0.9504
  189SAPI   HO521696   5.875   4.357   6.514 -1.6074  2.3338  2.5680
  189SAPI   C1621697   5.602   4.312   6.615  0.2200 -0.0157  0.5228
  189SAPI    H621698   5.585   4.259   6.518  3.5895  1.8971 -1.2955
  189SAPI    O621699   5.652   4.207   6.700  0.6934  0.2225 -0.4450
  189SAPI   HO621700   5.687   4.134   6.648  1.2172 -0.2510  0.5356
  189SAPI   C1121701   5.468   4.373   6.665  0.2392 -0.1058  0.5374
  189SAPI    H121702   5.498   4.408   6.766  2.5761 -1.1969  0.2995
  189SAPI     P21703   5.227   4.289   6.747  0.0167 -0.1161  0.3990
  189SAPI   O1321704   5.241   4.382   6.865  0.0504  0.0378 -0.2941
  189SAPI   O1421705   5.168   4.157   6.782  0.0594  0.3022 -0.4411
  189SAPI   O1221706   5.360   4.274   6.660  0.0834  0.2075  0.0840
  189SAPI   O1121707   5.134   4.368   6.640  0.2355 -0.1929  0.0648
  189SAPI    C121708   4.993   4.327   6.625 -0.0134  0.7215  0.5640
  189SAPI    HA21709   4.952   4.282   6.719  0.2654 -1.0632 -0.1267
  189SAPI    HB21710   4.930   4.415   6.601  0.1363  0.9235  0.9027
  189SAPI    C221711   4.961   4.219   6.516  1.2868  0.2946 -0.0304
  189SAPI    HS21712   4.988   4.121   6.561 -1.1936 -1.3001 -1.7550
  189SAPI   O2121713   5.028   4.258   6.392 -0.0837  0.7441 -0.5175
  189SAPI   C2121714   5.125   4.172   6.361 -0.0480  0.3483  0.4130
  189SAPI   O2221715   5.151   4.069   6.429 -0.7418 -0.5936  0.7181
  189SAPI   C2221716   5.190   4.209   6.225 -0.2555  0.3683 -0.3527
  189SAPI   H2R21717   5.144   4.172   6.131 -1.1019 -1.7873  0.8288
  189SAPI   H2S21718   5.175   4.319   6.216  0.8178  0.3832 -2.8686
  189SAPI    C321719   4.805   4.212   6.493  0.2022  0.3563  0.1252
  189SAPI    HX21720   4.751   4.175   6.584 -1.3257 -1.1571 -1.3246
  189SAPI    HY21721   4.793   4.134   6.415  1.2189 -0.7611  1.0491
  189SAPI   O3121722   4.734   4.334   6.461  0.0531 -0.7840 -0.0134
  189SAPI   C3121723   4.665   4.326   6.344 -0.4488 -0.7021  0.2228
  189SAPI   O3221724   4.682   4.244   6.254  0.2802  0.2763 -0.5356
  189SAPI   C3221725   4.566   4.441   6.342  0.0747  0.1531  0.0577
  189SAPI   H2X21726   4.596   4.518   6.416  0.8207 -0.0842  0.0134
  189SAPI   H2Y21727   4.472   4.399   6.384  0.8928 -1.4113  0.4263
  189SAPI   C2321728   5.349   4.193   6.228  0.1781  0.1111 -1.1333
  189SAPI   H3R21729   5.382   4.087   6.238  0.5641  0.3583  0.3021
  189SAPI   H3S21730   5.390   4.257   6.308 -1.0737  1.3087 -1.4186
  189SAPI   C2421731   5.415   4.241   6.097  0.5030  0.6297 -0.3551
  189SAPI   H4R21732   5.369   4.189   6.010 -0.1891  1.1752 -0.3203
  189SAPI   H4S21733   5.523   4.212   6.098  0.4932  0.5291  1.2465
  189SAPI   C2521734   5.394   4.385   6.076 -0.8777  0.5234  0.1048
  189SAPI   H5R21735   5.439   4.448   6.155 -1.3757 -0.8703  1.5578
  189SAPI   C2621736   5.345   4.436   5.960 -0.4074  0.4304  0.1050
  189SAPI   H6R21737   5.335   4.545   5.954 -2.6604  0.2214 -0.5822
  189SAPI   C2721738   5.303   4.352   5.842  0.0067  0.5237  0.3426
  189SAPI   H7R21739   5.239   4.272   5.886  0.8425 -0.1709  0.3315
  189SAPI   H7S21740   5.390   4.304   5.792  1.1659  1.8656  1.0019
  189SAPI   C2821741   5.219   4.426   5.746  0.1689 -0.5257  0.3622
  189SAPI   H8R21742   5.151   4.500   5.788  0.4671  1.4075 -2.3321
  189SAPI   C2921743   5.232   4.412   5.613  0.5818  0.2031 -0.3436
  189SAPI   H9R21744   5.187   4.488   5.547  2.1825  1.3228 -0.1936
  189SAPI  C21021745   5.314   4.303   5.546 -0.3627  0.2649 -1.0062
  189SAPI  H10R21746   5.261   4.272   5.453 -0.7290  0.3482 -0.8256
  189SAPI  H10S21747   5.324   4.210   5.606 -2.6876 -0.5371 -1.7514
  189SAPI  C21121748   5.452   4.344   5.515 -0.6916 -0.2481 -0.2845
  189SAPI  H11R21749   5.518   4.355   5.603 -1.4137  1.6994  0.0600
  189SAPI  C21221750   5.488   4.400   5.396  0.8659  0.5027  0.5312
  189SAPI  H12R21751   5.592   4.435   5.382  1.0025 -0.0042  0.2740
  189SAPI  C21321752   5.402   4.420   5.270 -0.2757 -0.2380 -0.2911
  189SAPI  H13R21753   5.299   4.442   5.305 -1.3403 -1.7450 -2.2647
  189SAPI  H13S21754   5.396   4.320   5.222 -0.6515  0.0690 -0.8896
  189SAPI  C21421755   5.434   4.533   5.165  1.2040  0.2948  0.1250
  189SAPI  H14R21756   5.446   4.632   5.212  3.1997 -0.4133  1.2206
  189SAPI  C21521757   5.436   4.517   5.031  0.6201  0.4715 -0.3615
  189SAPI  H15R21758   5.447   4.604   4.966 -0.9729  1.1019  0.1563
  189SAPI  C21621759   5.403   4.390   4.948  1.0362 -0.0520 -0.1452
  189SAPI  H16R21760   5.344   4.424   4.860 -0.2248  2.4047  1.5179
  189SAPI  H16S21761   5.337   4.322   5.006  2.5242  1.0004  3.0579
  189SAPI  C21721762   5.518   4.295   4.898 -0.2394 -0.6775 -0.1925
  189SAPI  H17R21763   5.603   4.364   4.878  0.4118 -1.5761 -0.5643
  189SAPI  H17S21764   5.493   4.253   4.798  0.2025  0.4846 -0.8122
  189SAPI  C21821765   5.570   4.201   5.006 -0.0639 -0.0099  0.0543
  189SAPI  H18R21766   5.495   4.123   5.031 -1.7512  0.5778 -2.7723
  189SAPI  H18S21767   5.576   4.256   5.103 -0.7332  4.2514 -2.0609
  189SAPI  C21921768   5.709   4.140   4.970 -0.5421  0.1659 -0.0713
  189SAPI  H19R21769   5.740   4.075   5.055 -0.5983  1.6366  1.1334
  189SAPI  H19S21770   5.790   4.216   4.963 -0.1928 -0.3523 -3.0009
  189SAPI  C22021771   5.716   4.086   4.825  0.1837  0.2073  0.2203
  189SAPI  H20R21772   5.824   4.075   4.800 -0.2465  0.4382 -1.9246
  189SAPI  H20S21773   5.669   4.155   4.752 -2.0270 -0.2987  1.0645
  189SAPI  H20T21774   5.666   3.987   4.814 -0.7975  0.6753  0.3456
  189SAPI   C3321775   4.554   4.500   6.196 -0.6711 -0.2594 -0.6141
  189SAPI   H3X21776   4.496   4.427   6.135 -2.0644 -0.6567  1.0853
  189SAPI   H3Y21777   4.658   4.504   6.156  0.2755 -1.3854  1.5548
  189SAPI   C3421778   4.483   4.627   6.186 -0.1273  0.1823 -0.4608
  189SAPI   H4X21779   4.516   4.697   6.265  1.9805 -0.9732 -0.2487
  189SAPI   H4Y21780   4.373   4.609   6.189  0.2689 -2.3721  1.0593
  189SAPI   C3521781   4.510   4.690   6.043  0.0697  0.4470 -0.4600
  189SAPI   H5X21782   4.615   4.720   6.024 -0.4508  3.4155  0.8400
  189SAPI   H5Y21783   4.465   4.791   6.052  0.1275  0.3740  0.8204
  189SAPI   C3621784   4.451   4.612   5.924  0.5304  0.2444  0.0036
  189SAPI   H6X21785   4.353   4.564   5.942  0.3435  0.7830  0.4748
  189SAPI   H6Y21786   4.528   4.534   5.902  2.4259  1.4436  1.9284
  189SAPI   C3721787   4.413   4.703   5.801  0.1408  0.4175 -0.1435
  189SAPI   H7X21788   4.505   4.757   5.770 -1.9026  3.5482 -1.2286
  189SAPI   H7Y21789   4.335   4.773   5.837  0.7319  0.9934  0.0366
  189SAPI   C3821790   4.354   4.618   5.681  0.1430 -0.5447  0.8751
  189SAPI   H8X21791   4.323   4.686   5.600  0.1060 -1.2778  0.2610
  189SAPI   H8Y21792   4.265   4.560   5.714 -0.1812 -0.4085  0.2472
  189SAPI   C3921793   4.451   4.524   5.601 -0.0461 -0.2893  0.5207
  189SAPI   H9X21794   4.482   4.439   5.666  0.1848 -0.9886 -0.4762
  189SAPI   H9Y21795   4.539   4.574   5.554 -0.2689 -0.6487 -0.3030
  189SAPI  C31021796   4.363   4.473   5.481 -0.7692  0.5609  0.6827
  189SAPI  H10X21797   4.334   4.553   5.409 -1.1100  1.4456  1.7628
  189SAPI  H10Y21798   4.269   4.430   5.520  0.7555 -1.9012  1.8853
  189SAPI  C31121799   4.424   4.356   5.411  0.2008 -0.7206  0.4830
  189SAPI  H11X21800   4.439   4.271   5.480  0.3376 -1.5709 -0.5696
  189SAPI  H11Y21801   4.524   4.387   5.372  0.3810 -0.6770  0.9762
  189SAPI  C31221802   4.335   4.310   5.301  0.3149 -0.3393  0.3315
  189SAPI  H12X21803   4.295   4.394   5.240  2.1496 -0.1192 -0.6518
  189SAPI  H12Y21804   4.246   4.260   5.344 -0.5729  0.1197 -0.9306
  189SAPI  C31321805   4.406   4.216   5.201 -0.0595  0.6166 -1.3205
  189SAPI  H13X21806   4.431   4.123   5.256  1.6133  1.4251 -0.6289
  189SAPI  H13Y21807   4.508   4.259   5.186 -0.2471  0.7903 -2.1383
  189SAPI  C31421808   4.343   4.189   5.068  0.0528 -0.0673 -0.2520
  189SAPI  H14X21809   4.393   4.110   5.008 -0.6092  0.8193 -2.0346
  189SAPI  H14Y21810   4.335   4.281   5.007 -0.6878 -1.5920 -2.6026
  189SAPI  C31521811   4.190   4.149   5.078  0.2688  0.1023 -0.0003
  189SAPI  H15X21812   4.136   4.226   5.137  0.8241 -0.6999  1.6182
  189SAPI  H15Y21813   4.174   4.059   5.142 -1.3922 -0.6819 -1.4277
  189SAPI  C31621814   4.130   4.130   4.940  0.3256 -0.4456  0.3023
  189SAPI  H16X21815   4.207   4.079   4.879  0.6512 -0.0245  0.3565
  189SAPI  H16Y21816   4.117   4.222   4.879  1.1742 -1.8911 -2.1903
  189SAPI  C31721817   4.000   4.043   4.928 -0.3840 -0.0317  0.0285
  189SAPI  H17X21818   3.915   4.090   4.983 -1.2839  1.7292 -2.6184
  189SAPI  H17Y21819   4.022   3.948   4.981 -1.5363 -0.1860  0.2521
  189SAPI  C31821820   3.958   4.007   4.785  0.2449  0.3493 -0.0126
  189SAPI  H18X21821   3.954   4.107   4.736  1.7182  0.1938 -0.4743
  189SAPI  H18Y21822   3.857   3.961   4.785  0.6272 -0.5009 -0.2854
  189SAPI  H18Z21823   4.026   3.931   4.741 -2.6904 -3.1484  0.9999
  190SAPI   C1221824   4.927   2.249   6.314  0.2973  0.7853  0.4814
  190SAPI    H221825   4.874   2.306   6.234 -0.2364 -0.8426 -0.3691
  190SAPI    O221826   5.063   2.236   6.278 -0.4607  0.2616 -0.2219
  190SAPI   HO221827   5.078   2.181   6.200  1.1364 -0.8889  0.8410
  190SAPI   C1321828   4.917   2.322   6.446  0.0018  0.9235 -0.0856
  190SAPI    H321829   4.808   2.316   6.462 -0.2995 -1.9624 -2.4273
  190SAPI    O321830   4.946   2.463   6.444 -0.3177  0.1484  0.0493
  190SAPI   HO321831   4.878   2.508   6.495  0.3644 -0.5695  1.6710
  190SAPI   C1421832   4.989   2.248   6.560  0.0532  0.1183  0.3076
  190SAPI    H421833   5.097   2.266   6.540 -0.3867  1.9782 -0.6555
  190SAPI    O421834   4.959   2.306   6.681 -0.0051 -0.1794 -0.7156
  190SAPI   HO421835   4.967   2.401   6.664  0.4664  0.2586  1.5287
  190SAPI   C1521836   4.962   2.091   6.564 -0.0985 -0.3779  0.1375
  190SAPI    H521837   4.860   2.093   6.609 -0.6364 -1.3493 -1.0037
  190SAPI    O521838   5.051   2.024   6.654 -0.3570 -0.4116 -0.0872
  190SAPI   HO521839   5.142   2.020   6.623  0.3373  0.1566  1.7445
  190SAPI   C1621840   4.932   2.028   6.427  0.3653  0.1571 -0.1020
  190SAPI    H621841   5.028   2.005   6.376 -0.7162 -0.2469 -2.0399
  190SAPI    O621842   4.873   1.895   6.439  0.1554 -0.1209 -0.9531
  190SAPI   HO621843   4.837   1.864   6.355  1.3395 -3.0576 -0.5181
  190SAPI   C1121844   4.858   2.118   6.322  0.5094  0.6920  0.1000
  190SAPI    H121845   4.756   2.138   6.362  0.2672 -0.0505 -0.1192
  190SAPI     P21846   4.924   1.952   6.114 -0.0387  0.0822  0.5263
  190SAPI   O1321847   5.066   1.990   6.118  0.0020 -0.2961  0.0045
  190SAPI   O1421848   4.859   1.956   5.982 -0.3641  0.5593  0.5498
  190SAPI   O1221849   4.840   2.060   6.196  0.2491 -0.5805  0.8507
  190SAPI   O1121850   4.880   1.819   6.188  0.0204  0.2189  0.1682
  190SAPI    C121851   4.758   1.745   6.174 -0.4944 -0.0991  0.1704
  190SAPI    HA21852   4.712   1.730   6.274  2.4854  0.1140  1.6583
  190SAPI    HB21853   4.688   1.818   6.126  0.9161  1.0125 -0.2701
  190SAPI    C221854   4.779   1.607   6.099  0.3799  0.0521  0.6501
  190SAPI    HS21855   4.870   1.555   6.136  0.3665 -1.6335 -1.4987
  190SAPI   O2121856   4.782   1.623   5.954  0.0876  0.0008 -0.2190
  190SAPI   C2121857   4.905   1.655   5.906  0.4425  0.0961  0.3727
  190SAPI   O2221858   5.008   1.641   5.971  0.4487 -0.0106  0.2056
  190SAPI   C2221859   4.900   1.703   5.763  0.4256  0.3141  0.0087
  190SAPI   H2R21860   4.794   1.724   5.736 -0.0601 -1.3318  0.5696
  190SAPI   H2S21861   4.969   1.790   5.755 -0.4668  1.1800  1.3774
  190SAPI    C321862   4.666   1.515   6.130 -0.4560  0.0723 -0.0638
  190SAPI    HX21863   4.573   1.564   6.092 -1.5991 -1.7012  0.3408
  190SAPI    HY21864   4.644   1.495   6.237 -0.8103 -1.2782 -0.3669
  190SAPI   O3121865   4.680   1.392   6.067 -0.3696 -0.2336 -0.1537
  190SAPI   C3121866   4.565   1.330   6.030 -0.3335 -0.3594  0.5446
  190SAPI   O3221867   4.453   1.369   6.050  0.0904  0.0013 -0.0012
  190SAPI   C3221868   4.601   1.219   5.930  0.2276 -0.2939 -0.0167
  190SAPI   H2X21869   4.560   1.126   5.976 -3.2876  1.1729  0.0994
  190SAPI   H2Y21870   4.711   1.217   5.914  0.1489 -0.7989 -0.5336
  190SAPI   C2321871   4.961   1.590   5.672  0.1827 -0.4866  0.2442
  190SAPI   H3R21872   5.060   1.556   5.709 -0.2085 -0.0594  1.7691
  190SAPI   H3S21873   4.982   1.634   5.572 -0.8338  1.1680  0.7216
  190SAPI   C2421874   4.862   1.478   5.638 -0.0201  0.2242 -0.2686
  190SAPI   H4R21875   4.767   1.523   5.603  1.3493  1.1672 -3.0294
  190SAPI   H4S21876   4.841   1.422   5.732  1.0336  0.0347 -0.1355
  190SAPI   C2521877   4.912   1.386   5.528 -0.3526  0.6040 -0.4691
  190SAPI   H5R21878   4.953   1.292   5.568 -2.2486 -0.3952 -0.7809
  190SAPI   C2621879   4.913   1.406   5.397 -0.3085 -0.4505 -0.4160
  190SAPI   H6R21880   4.960   1.327   5.335  1.5791 -0.3206  0.7519
  190SAPI   C2721881   4.874   1.534   5.332  0.2520  0.0905  0.0787
  190SAPI   H7R21882   4.951   1.564   5.258 -0.0936 -0.5991 -0.5705
  190SAPI   H7S21883   4.852   1.614   5.406  0.0283 -0.3442  0.4893
  190SAPI   C2821884   4.738   1.516   5.259  0.4469 -0.0613  0.4406
  190SAPI   H8R21885   4.650   1.564   5.304 -0.0994 -1.8204  1.3355
  190SAPI   C2921886   4.739   1.466   5.129  0.0779 -0.4495 -0.2855
  190SAPI   H9R21887   4.644   1.454   5.074  0.5788 -0.3035 -1.2003
  190SAPI  C21021888   4.846   1.423   5.039 -0.5831  0.1967  0.0257
  190SAPI  H10R21889   4.840   1.314   5.017 -1.1076  0.5680 -1.8084
  190SAPI  H10S21890   4.942   1.430   5.095 -0.8001 -0.8444  0.5465
  190SAPI  C21121891   4.866   1.501   4.909 -0.2307 -0.3602  1.0226
  190SAPI  H11R21892   4.830   1.605   4.915  2.7209  0.7505  1.0552
  190SAPI  C21221893   4.892   1.450   4.783 -0.0195  0.2057  0.1947
  190SAPI  H12R21894   4.896   1.520   4.699 -1.8663  1.7065  1.2698
  190SAPI  C21321895   4.917   1.304   4.755 -0.0258 -0.3801 -0.3179
  190SAPI  H13R21896   4.904   1.292   4.646 -0.8836 -0.3133 -0.2323
  190SAPI  H13S21897   4.833   1.254   4.809 -0.9164  2.7937  1.5321
  190SAPI  C21421898   5.051   1.241   4.803 -0.5577 -0.2457  0.2147
  190SAPI  H14R21899   5.048   1.211   4.909 -0.7976 -0.1297  0.2423
  190SAPI  C21521900   5.160   1.217   4.722  0.2623  0.3044 -0.5437
  190SAPI  H15R21901   5.254   1.181   4.767  0.6086  0.7793 -0.8796
  190SAPI  C21621902   5.160   1.241   4.577  0.2853  0.3547 -0.5459
  190SAPI  H16R21903   5.102   1.332   4.553 -2.0577 -0.7013  0.6710
  190SAPI  H16S21904   5.112   1.165   4.511  2.2291  0.7886 -2.5470
  190SAPI  C21721905   5.305   1.238   4.522  0.1829  0.3182 -0.4357
  190SAPI  H17R21906   5.352   1.139   4.538 -1.9515 -0.4310  1.9681
  190SAPI  H17S21907   5.367   1.308   4.581 -2.3065  2.2800  0.0517
  190SAPI  C21821908   5.309   1.285   4.378 -0.2786 -0.4134  0.6636
  190SAPI  H18R21909   5.287   1.393   4.376 -1.4203 -0.6484 -0.4654
  190SAPI  H18S21910   5.235   1.236   4.311  0.1332 -0.5707  0.3204
  190SAPI  C21921911   5.441   1.261   4.298  0.5037  0.5039 -0.4958
  190SAPI  H19R21912   5.529   1.291   4.358 -0.6653 -1.8108  2.7175
  190SAPI  H19S21913   5.434   1.332   4.213 -0.4300  1.3344  0.2464
  190SAPI  C22021914   5.454   1.115   4.262  0.2078 -0.4208  0.6294
  190SAPI  H20R21915   5.409   1.053   4.343 -0.7598 -0.4490  0.0994
  190SAPI  H20S21916   5.561   1.101   4.238  0.2964  0.5437  0.4399
  190SAPI  H20T21917   5.394   1.086   4.172 -1.7701  1.6545  1.1698
  190SAPI   C3321918   4.533   1.240   5.790 -0.2824  0.7172  0.4240
  190SAPI   H3X21919   4.534   1.348   5.761  0.3781  1.2136  2.1226
  190SAPI   H3Y21920   4.423   1.227   5.802 -0.5931  2.2359 -0.4898
  190SAPI   C3421921   4.600   1.172   5.683 -0.5663  0.6485  0.2823
  190SAPI   H4X21922   4.625   1.069   5.718 -1.8056 -0.1007 -0.8928
  190SAPI   H4Y21923   4.684   1.240   5.659  0.7533 -0.5918  1.2152
  190SAPI   C3521924   4.519   1.147   5.553  0.4303  0.0849  0.3571
  190SAPI   H5X21925   4.421   1.097   5.568  0.6869 -0.2230  1.0467
  190SAPI   H5Y21926   4.581   1.084   5.486 -0.6470 -1.6236  0.9017
  190SAPI   C3621927   4.485   1.279   5.473  0.2667  0.5499  0.0198
  190SAPI   H6X21928   4.579   1.328   5.440 -0.3290  2.0428  0.4867
  190SAPI   H6Y21929   4.445   1.359   5.538  1.3336  0.2095  1.1412
  190SAPI   C3721930   4.410   1.253   5.345  0.5168  0.7980 -0.0438
  190SAPI   H7X21931   4.378   1.350   5.300  1.1173  0.5052 -1.1500
  190SAPI   H7Y21932   4.318   1.195   5.364  1.1648 -0.0048  0.7391
  190SAPI   C3821933   4.499   1.193   5.234 -0.0741 -0.0594 -0.1085
  190SAPI   H8X21934   4.533   1.090   5.259  2.1073  0.7561  0.4309
  190SAPI   H8Y21935   4.587   1.259   5.222  0.2346  0.2620  3.1388
  190SAPI   C3921936   4.423   1.196   5.102  0.5164  0.7259 -0.9685
  190SAPI   H9X21937   4.383   1.299   5.098  0.0834  0.6934  1.2668
  190SAPI   H9Y21938   4.336   1.130   5.118  1.5984 -0.1386  1.9445
  190SAPI  C31021939   4.499   1.166   4.983  0.1145  0.0596 -0.2243
  190SAPI  H10X21940   4.509   1.055   4.978 -0.6449  0.0014 -0.7798
  190SAPI  H10Y21941   4.598   1.215   4.989  0.3058 -0.4216  0.6948
  190SAPI  C31121942   4.436   1.198   4.852  0.9759  0.3048  0.6040
  190SAPI  H11X21943   4.393   1.301   4.857  0.9580  0.2900  0.7846
  190SAPI  H11Y21944   4.355   1.123   4.840 -0.5033  1.8765  0.3804
  190SAPI  C31221945   4.523   1.188   4.730  0.2989 -0.0695 -0.1832
  190SAPI  H12X21946   4.558   1.083   4.719  0.3215 -0.0444 -0.3545
  190SAPI  H12Y21947   4.611   1.248   4.761 -1.9767  2.9309  0.9689
  190SAPI  C31321948   4.461   1.241   4.603 -0.0473  0.7195  0.9852
  190SAPI  H13X21949   4.427   1.346   4.617  0.4075  0.9934  0.1505
  190SAPI  H13Y21950   4.376   1.176   4.576  0.9543  0.3689 -1.6524
  190SAPI  C31421951   4.564   1.249   4.490 -0.1972 -0.5768 -0.2894
  190SAPI  H14X21952   4.619   1.153   4.484 -0.2931 -0.6385 -0.1766
  190SAPI  H14Y21953   4.639   1.329   4.505  0.3205 -1.0220 -0.4832
  190SAPI  C31521954   4.502   1.265   4.352 -0.4809 -0.2315  0.0814
  190SAPI  H15X21955   4.439   1.356   4.339  0.3864  0.3153 -0.4335
  190SAPI  H15Y21956   4.447   1.170   4.338 -0.1009 -0.2781 -1.2553
  190SAPI  C31621957   4.601   1.292   4.232 -0.1605 -0.2591 -0.6105
  190SAPI  H16X21958   4.557   1.257   4.136  1.0745 -0.2184 -1.2029
  190SAPI  H16Y21959   4.692   1.231   4.250 -1.1663 -1.3663  1.0264
  190SAPI  C31721960   4.634   1.443   4.216 -0.0685  0.3488 -0.7108
  190SAPI  H17X21961   4.657   1.474   4.320  0.8431 -3.3571  0.3359
  190SAPI  H17Y21962   4.541   1.489   4.175  0.2641  3.0705  1.3160
  190SAPI  C31821963   4.750   1.477   4.122 -0.5411 -0.1956  0.4497
  190SAPI  H18X21964   4.725   1.446   4.019 -1.5337 -0.1795  0.6755
  190SAPI  H18Y21965   4.840   1.415   4.140  0.2923  1.1549  1.1438
  190SAPI  H18Z21966   4.778   1.585   4.117  0.3185 -0.3431  1.6874
  191SAPI   C1221967   6.465   2.085   1.968 -0.1516  0.0822  0.4258
  191SAPI    H221968   6.527   1.999   2.003  1.0198  0.2165 -1.1935
  191SAPI    O221969   6.407   2.153   2.076  0.8163 -0.2557 -0.8143
  191SAPI   HO221970   6.337   2.091   2.096  1.3220 -0.3448  0.8654
  191SAPI   C1321971   6.557   2.190   1.904 -0.1604  0.1163  0.0936
  191SAPI    H321972   6.616   2.137   1.826 -1.2874  0.3520 -0.9396
  191SAPI    O321973   6.662   2.230   2.002  0.2933  0.3733  0.7666
  191SAPI   HO321974   6.625   2.273   2.080  0.1400 -1.4712  1.7474
  191SAPI   C1421975   6.484   2.306   1.842 -0.3354 -0.0841  0.0355
  191SAPI    H421976   6.469   2.384   1.920 -0.5147  0.2514 -0.3322
  191SAPI    O421977   6.566   2.380   1.744  0.0642 -0.0605  0.2104
  191SAPI   HO421978   6.622   2.436   1.798 -1.7197  1.4316  0.5993
  191SAPI   C1521979   6.340   2.275   1.782 -0.5847  0.1888  0.1034
  191SAPI    H521980   6.368   2.263   1.675  1.3741 -0.1372  0.6122
  191SAPI    O521981   6.247   2.379   1.784  0.3743 -0.0541 -0.5057
  191SAPI   HO521982   6.248   2.424   1.869 -1.9193 -1.0227  0.1198
  191SAPI   C1621983   6.278   2.136   1.818  0.3919  0.1041 -0.3175
  191SAPI    H621984   6.213   2.154   1.906 -0.6745 -3.4861 -0.1980
  191SAPI    O621985   6.196   2.083   1.717  0.1331  0.2976  0.1333
  191SAPI   HO621986   6.117   2.064   1.769  1.4882 -0.3972  2.0427
  191SAPI   C1121987   6.369   2.028   1.869 -0.6545 -0.0873 -0.9664
  191SAPI    H121988   6.421   1.988   1.780 -0.6929 -1.9886 -0.1696
  191SAPI     P21989   6.298   1.763   1.878 -0.2583 -0.2121 -0.1851
  191SAPI   O1321990   6.343   1.748   1.736 -0.3319 -0.2123 -0.1436
  191SAPI   O1421991   6.173   1.694   1.911 -0.1764 -0.2565  0.7106
  191SAPI   O1221992   6.298   1.915   1.935 -0.2511 -0.6669  0.9569
  191SAPI   O1121993   6.411   1.714   1.973  0.2602  0.2180  0.2974
  191SAPI    C121994   6.378   1.611   2.073 -0.1360  0.7619  0.4948
  191SAPI    HA21995   6.313   1.526   2.040  0.6658  0.1726  0.4074
  191SAPI    HB21996   6.474   1.562   2.102  0.1929  0.1950 -1.4116
  191SAPI    C221997   6.320   1.665   2.213  0.5895  0.3384  0.0265
  191SAPI    HS21998   6.221   1.713   2.199 -0.1620 -0.4382  2.3170
  191SAPI   O2121999   6.411   1.763   2.261 -0.0510  0.3907 -0.0160
  191SAPI   C2122000   6.368   1.845   2.352  0.0273 -0.6920 -0.2260
  191SAPI   O2222001   6.253   1.872   2.378  0.3038 -0.8574 -0.5693
  191SAPI   C2222002   6.491   1.897   2.425  0.0739 -0.2886 -0.5604
  191SAPI   H2R22003   6.523   1.817   2.495  2.1266 -0.6253 -1.8089
  191SAPI   H2S22004   6.572   1.915   2.350 -0.2953  1.6667 -0.5570
  191SAPI    C322005   6.301   1.547   2.314  0.2893  0.3123 -0.1225
  191SAPI    HX22006   6.405   1.511   2.326 -0.5941 -1.7083  2.0486
  191SAPI    HY22007   6.245   1.469   2.258 -1.6749  1.5062  0.0806
  191SAPI   O3122008   6.220   1.591   2.433 -0.1540 -0.5287  0.1335
  191SAPI   C3122009   6.295   1.604   2.535  0.2388  0.2886 -0.5513
  191SAPI   O3222010   6.419   1.600   2.541 -0.1784 -0.5044  0.0677
  191SAPI   C3222011   6.203   1.621   2.664  0.0326 -0.4334 -0.7691
  191SAPI   H2X22012   6.151   1.527   2.695 -0.4275  0.5190  1.5415
  191SAPI   H2Y22013   6.118   1.689   2.644  1.3836  1.9773  1.1211
  191SAPI   C2322014   6.470   2.019   2.519 -0.0646  0.4146 -0.0042
  191SAPI   H3R22015   6.403   1.988   2.601  0.1603 -0.4712 -0.1489
  191SAPI   H3S22016   6.423   2.104   2.465  1.6313  1.7186  0.4849
  191SAPI   C2422017   6.596   2.072   2.581 -0.7630 -0.5994 -0.3433
  191SAPI   H4R22018   6.583   2.173   2.625  0.8943 -0.5333  0.0771
  191SAPI   H4S22019   6.672   2.085   2.501 -0.1045  0.2166  0.4089
  191SAPI   C2522020   6.660   1.974   2.682 -0.6048 -0.0305  0.4184
  191SAPI   H5R22021   6.706   1.883   2.640 -0.1261  0.1983  0.4467
  191SAPI   C2622022   6.665   1.992   2.821  0.0996  0.4778 -0.3691
  191SAPI   H6R22023   6.715   1.919   2.886 -1.8375  0.0116  0.6504
  191SAPI   C2722024   6.596   2.103   2.904  0.4056 -0.2294  0.1233
  191SAPI   H7R22025   6.565   2.181   2.832 -2.7894 -0.3616  1.2071
  191SAPI   H7S22026   6.660   2.160   2.976 -2.1630  1.9895  0.7989
  191SAPI   C2822027   6.464   2.054   2.963 -0.2429  0.3337 -0.4941
  191SAPI   H8R22028   6.406   2.000   2.887  0.2139  1.2194 -1.4936
  191SAPI   C2922029   6.411   2.072   3.084  0.0301  0.1518 -0.5196
  191SAPI   H9R22030   6.304   2.052   3.096 -0.0599  0.8130 -0.1815
  191SAPI  C21022031   6.481   2.141   3.203  0.8473  0.7690 -0.3782
  191SAPI  H10R22032   6.419   2.125   3.294 -0.2383  2.1048 -0.8480
  191SAPI  H10S22033   6.496   2.250   3.191 -0.3815  1.2000  1.4390
  191SAPI  C21122034   6.609   2.078   3.245 -0.6248  0.1457 -0.3912
  191SAPI  H11R22035   6.678   2.064   3.161  0.4730 -0.5068  0.5897
  191SAPI  C21222036   6.653   2.051   3.368 -0.1147  0.2179  0.6198
  191SAPI  H12R22037   6.754   2.009   3.371 -0.1189  0.2684  2.0570
  191SAPI  C21322038   6.586   2.079   3.496  0.5023  0.4095 -0.0112
  191SAPI  H13R22039   6.528   2.173   3.486  0.7255  0.4479 -1.1438
  191SAPI  H13S22040   6.670   2.126   3.552  0.5078  0.8377 -0.3749
  191SAPI  C21422041   6.499   1.980   3.571  1.0720 -0.3209 -0.5487
  191SAPI  H14R22042   6.392   1.987   3.545  0.5963 -1.4442  0.9308
  191SAPI  C21522043   6.542   1.903   3.670 -0.5235  0.3051  0.3596
  191SAPI  H15R22044   6.474   1.821   3.699 -1.6523  0.3644 -1.8508
  191SAPI  C21622045   6.685   1.907   3.722  0.4442  0.2489 -0.3566
  191SAPI  H16R22046   6.753   1.956   3.649  0.8393 -1.0862 -0.9158
  191SAPI  H16S22047   6.728   1.807   3.743 -0.9514 -0.1005  1.0137
  191SAPI  C21722048   6.681   1.979   3.855  0.4955 -0.2068  0.2582
  191SAPI  H17R22049   6.617   1.934   3.935 -0.4227  3.3337  1.7171
  191SAPI  H17S22050   6.624   2.073   3.837 -0.7417 -1.2129 -1.3419
  191SAPI  C21822051   6.826   2.010   3.898  0.6118  0.0642  0.0950
  191SAPI  H18R22052   6.818   2.110   3.946  1.4872  0.9541 -1.5486
  191SAPI  H18S22053   6.889   2.030   3.809 -0.3559 -1.8152 -1.0707
  191SAPI  C21922054   6.901   1.914   3.996  0.5706 -0.0595 -0.0630
  191SAPI  H19R22055   6.997   1.969   4.005  0.8428 -0.3919 -0.8690
  191SAPI  H19S22056   6.913   1.809   3.962  0.1946  0.2475 -1.1935
  191SAPI  C22022057   6.832   1.913   4.130 -0.1617 -0.1169 -0.9093
  191SAPI  H20R22058   6.740   1.851   4.120 -1.1721  1.1882 -0.0279
  191SAPI  H20S22059   6.791   2.015   4.150  0.2231 -0.0938 -0.2171
  191SAPI  H20T22060   6.890   1.882   4.219 -1.5549  3.0404  1.2570
  191SAPI   C3322061   6.289   1.674   2.784  1.0502  0.2044 -0.3378
  191SAPI   H3X22062   6.344   1.764   2.749  1.0659 -0.3104 -1.6847
  191SAPI   H3Y22063   6.367   1.601   2.813  0.9392 -0.2100 -1.0568
  191SAPI   C3422064   6.212   1.699   2.917 -0.1903 -0.0824  0.3572
  191SAPI   H4X22065   6.145   1.611   2.928  2.1263 -1.8584  1.1323
  191SAPI   H4Y22066   6.158   1.795   2.904 -0.2073  0.0412  1.2592
  191SAPI   C3522067   6.312   1.699   3.032 -1.2539 -0.3857  0.4304
  191SAPI   H5X22068   6.405   1.756   3.010  2.1952 -5.2999  0.5613
  191SAPI   H5Y22069   6.344   1.595   3.052  1.0853  0.2381  0.2114
  191SAPI   C3622070   6.253   1.747   3.161  0.3777 -0.2819  0.3876
  191SAPI   H6X22071   6.155   1.698   3.182 -1.5477  3.3586  0.7873
  191SAPI   H6Y22072   6.226   1.855   3.154  0.1323 -0.4267 -1.3117
  191SAPI   C3722073   6.342   1.729   3.287 -0.1462 -0.0801  0.1179
  191SAPI   H7X22074   6.300   1.795   3.366  1.3790  0.6834  0.3293
  191SAPI   H7Y22075   6.441   1.771   3.256 -0.0945 -0.7168 -0.5985
  191SAPI   C3822076   6.349   1.584   3.327  0.1459  0.0704 -0.3964
  191SAPI   H8X22077   6.393   1.517   3.250 -1.4096 -2.3036  0.6697
  191SAPI   H8Y22078   6.254   1.544   3.368  0.0117  2.6042  2.0727
  191SAPI   C3922079   6.426   1.566   3.460 -0.4619  0.8294  0.1679
  191SAPI   H9X22080   6.377   1.641   3.526  0.4235  0.6603  1.0452
  191SAPI   H9Y22081   6.531   1.595   3.437 -0.7844  1.8595 -0.0770
  191SAPI  C31022082   6.435   1.424   3.518 -0.0082  0.2849  0.3691
  191SAPI  H10X22083   6.457   1.354   3.435 -1.1600 -0.6823  0.8537
  191SAPI  H10Y22084   6.333   1.402   3.557  1.0841 -1.5004  2.3845
  191SAPI  C31122085   6.525   1.413   3.647  0.1241 -0.3805  0.5909
  191SAPI  H11X22086   6.633   1.423   3.620  0.6666  0.9787  3.0163
  191SAPI  H11Y22087   6.524   1.309   3.685  2.2075 -0.2081  1.2683
  191SAPI  C31222088   6.502   1.514   3.764  0.1159 -0.4809  0.1623
  191SAPI  H12X22089   6.398   1.511   3.803  0.7465  2.0376  2.2762
  191SAPI  H12Y22090   6.508   1.618   3.724 -1.8152 -1.0360 -1.7712
  191SAPI  C31322091   6.601   1.492   3.879  0.6802  0.0965 -0.0025
  191SAPI  H13X22092   6.688   1.560   3.873  0.9527 -0.1507  0.9015
  191SAPI  H13Y22093   6.629   1.384   3.884  0.0865 -0.0202  1.1978
  191SAPI  C31422094   6.535   1.515   4.017 -0.4778  0.1954  0.6083
  191SAPI  H14X22095   6.613   1.496   4.093 -0.5094  3.3421  1.5455
  191SAPI  H14Y22096   6.451   1.443   4.021  0.2820 -0.7332  0.3249
  191SAPI  C31522097   6.478   1.657   4.041 -0.5082  0.3476  1.1238
  191SAPI  H15X22098   6.394   1.667   3.968 -0.1702 -0.1000  0.6624
  191SAPI  H15Y22099   6.553   1.734   4.012 -1.0110  0.0063 -1.3138
  191SAPI  C31622100   6.440   1.661   4.185 -0.3136  0.1302  0.0142
  191SAPI  H16X22101   6.524   1.626   4.249  0.2379 -1.1259 -1.3314
  191SAPI  H16Y22102   6.358   1.591   4.213  0.3627 -0.7325 -0.0857
  191SAPI  C31722103   6.410   1.798   4.242 -0.3565 -0.2104  0.1437
  191SAPI  H17X22104   6.320   1.833   4.187  2.2286  0.4833 -4.0610
  191SAPI  H17Y22105   6.489   1.869   4.209 -0.2466 -0.0349  0.7668
  191SAPI  C31822106   6.392   1.785   4.394  0.1064 -0.4072  0.3778
  191SAPI  H18X22107   6.477   1.734   4.443  1.5529  1.2501 -0.2688
  191SAPI  H18Y22108   6.299   1.733   4.424 -1.2543  1.7509  0.0896
  191SAPI  H18Z22109   6.381   1.882   4.447 -0.1743  0.2870 -0.9136
  192SAPI   C1222110   3.183   5.911   1.982  0.1080 -0.2854  1.0062
  192SAPI    H222111   3.268   5.977   2.009  0.7526 -0.2195 -1.0065
  192SAPI    O222112   3.072   5.928   2.073 -0.2239 -0.2382 -0.5829
  192SAPI   HO222113   3.089   5.895   2.161  0.1321 -0.0282 -0.5699
  192SAPI   C1322114   3.144   5.957   1.843  0.0762  0.1964 -0.1988
  192SAPI    H322115   3.229   5.942   1.773  0.6341  2.5142 -0.0721
  192SAPI    O322116   3.117   6.097   1.836  0.2445  0.3182 -0.2610
  192SAPI   HO322117   3.078   6.128   1.919 -0.1639 -1.5950  0.3261
  192SAPI   C1422118   3.032   5.874   1.781 -0.0835  0.2181 -0.2062
  192SAPI    H422119   2.951   5.893   1.854  0.8879 -1.2155  1.3470
  192SAPI    O422120   3.000   5.912   1.649  0.2802 -0.4969  0.0541
  192SAPI   HO422121   3.081   5.907   1.598  0.0954  0.6435 -0.3649
  192SAPI   C1522122   3.060   5.723   1.791 -0.1325 -0.3136  0.2648
  192SAPI    H522123   3.132   5.699   1.710  2.7169  1.4315  2.1089
  192SAPI    O522124   2.943   5.652   1.762  0.0112 -0.2867  0.1852
  192SAPI   HO522125   2.918   5.604   1.841 -0.8750 -0.1988 -0.0355
  192SAPI   C1622126   3.123   5.669   1.920  0.0402 -0.2109  0.0022
  192SAPI    H622127   3.039   5.676   1.993 -0.1835  0.5294 -0.3106
  192SAPI    O622128   3.172   5.531   1.916 -0.0271 -0.3929  0.3971
  192SAPI   HO622129   3.159   5.492   2.002  3.1200 -1.9170  0.3346
  192SAPI   C1122130   3.229   5.769   1.980 -0.9150  0.3007 -0.3279
  192SAPI    H122131   3.306   5.752   1.903 -1.6483 -1.7000 -0.6731
  192SAPI     P22132   3.417   5.768   2.176  0.4935  0.5206  0.1696
  192SAPI   O1322133   3.512   5.794   2.064  0.6113  0.5856  0.6707
  192SAPI   O1422134   3.463   5.684   2.290  0.2049 -0.0462  0.2182
  192SAPI   O1222135   3.272   5.716   2.108  0.2295 -0.4452 -0.3934
  192SAPI   O1122136   3.382   5.912   2.237 -0.7509  1.0491 -0.0854
  192SAPI    C122137   3.485   6.009   2.266  0.1781  0.0828 -0.7369
  192SAPI    HA22138   3.582   5.984   2.218  0.7276 -1.2995  0.9519
  192SAPI    HB22139   3.445   6.110   2.243 -0.7194 -0.1946 -0.4526
  192SAPI    C222140   3.532   6.006   2.416  0.0875  0.4028 -0.5489
  192SAPI    HS22141   3.622   5.942   2.423 -0.0212  0.1191 -1.5335
  192SAPI   O2122142   3.422   5.944   2.489  0.2377 -0.2998 -0.4931
  192SAPI   C2122143   3.458   5.873   2.593 -0.0583 -0.1279  0.2890
  192SAPI   O2222144   3.568   5.875   2.642 -0.2294  0.0361 -0.0219
  192SAPI   C2222145   3.334   5.784   2.630 -0.0384 -0.0208 -1.0483
  192SAPI   H2R22146   3.245   5.806   2.568 -0.1663 -1.3356 -1.3564
  192SAPI   H2S22147   3.360   5.679   2.609  1.7932  0.2175 -0.2402
  192SAPI    C322148   3.574   6.157   2.460  0.4314  0.3994  0.1253
  192SAPI    HX22149   3.491   6.225   2.430  0.3285 -0.6294 -2.1110
  192SAPI    HY22150   3.663   6.194   2.404 -0.7814  3.9681  0.2724
  192SAPI   O3122151   3.607   6.170   2.606  0.1594 -0.6564  0.6080
  192SAPI   C3122152   3.513   6.212   2.683  0.7565  0.2974 -0.6042
  192SAPI   O3222153   3.399   6.247   2.655 -0.3976  0.3547 -0.2627
  192SAPI   C3222154   3.569   6.226   2.819  0.0727 -0.6471 -0.5375
  192SAPI   H2X22155   3.494   6.256   2.895 -0.2639 -0.0526 -1.0982
  192SAPI   H2Y22156   3.626   6.321   2.823  0.9528 -1.1763  0.0480
  192SAPI   C2322157   3.295   5.803   2.781  0.0512  0.5946 -0.6141
  192SAPI   H3R22158   3.387   5.783   2.841 -2.2648 -1.3213  2.5893
  192SAPI   H3S22159   3.236   5.714   2.809  0.0286  1.5182  2.5868
  192SAPI   C2422160   3.244   5.948   2.800 -0.1732 -0.1516 -0.6724
  192SAPI   H4R22161   3.181   5.981   2.715 -0.9190  1.0783  0.3155
  192SAPI   H4S22162   3.337   6.009   2.800 -0.4901  0.3496  0.3528
  192SAPI   C2522163   3.146   5.969   2.917  0.1020 -0.0463 -0.0495
  192SAPI   H5R22164   3.040   5.954   2.892 -0.2943 -1.0667  2.0182
  192SAPI   C2622165   3.186   5.997   3.046 -0.0485  0.0323 -0.0803
  192SAPI   H6R22166   3.107   5.992   3.122  0.4155 -0.4583  0.3766
  192SAPI   C2722167   3.321   6.032   3.095  0.2469  0.2283  0.1426
  192SAPI   H7R22168   3.300   6.109   3.172 -0.3489  2.1535 -1.8449
  192SAPI   H7S22169   3.388   6.081   3.021 -1.6310  1.2012 -0.9628
  192SAPI   C2822170   3.394   5.922   3.159  0.0543  0.0367 -0.6910
  192SAPI   H8R22171   3.471   5.875   3.097  2.0222  1.2299  0.7260
  192SAPI   C2922172   3.375   5.871   3.285 -0.3314 -0.4929 -0.5075
  192SAPI   H9R22173   3.448   5.792   3.305  0.8908  0.9170  0.8075
  192SAPI  C21022174   3.274   5.906   3.398 -0.0925  0.5778  0.9089
  192SAPI  H10R22175   3.173   5.901   3.352 -0.1875  2.4530  0.8330
  192SAPI  H10S22176   3.289   6.014   3.420  0.2450  0.8156 -0.3577
  192SAPI  C21122177   3.300   5.815   3.513  0.0412  0.6194 -0.5008
  192SAPI  H11R22178   3.258   5.714   3.499 -0.2257  0.9680 -2.4519
  192SAPI  C21222179   3.364   5.842   3.625  0.0953 -0.5360 -0.7055
  192SAPI  H12R22180   3.366   5.770   3.709  0.8347  1.8387  1.4203
  192SAPI  C21322181   3.441   5.970   3.654  0.4382 -0.0872 -0.4709
  192SAPI  H13R22182   3.441   6.038   3.567  2.9305 -1.9981 -2.1028
  192SAPI  H13S22183   3.544   5.949   3.689  0.4959 -2.8795 -1.9944
  192SAPI  C21422184   3.376   6.052   3.760 -1.0947 -0.2249 -1.1935
  192SAPI  H14R22185   3.306   6.126   3.719 -0.8549 -0.2291 -1.6116
  192SAPI  C21522186   3.383   6.018   3.891  0.0936  0.5739 -0.5796
  192SAPI  H15R22187   3.311   6.062   3.961 -0.6422 -2.0213  0.4199
  192SAPI  C21622188   3.469   5.910   3.967  0.3186 -0.9109  0.1951
  192SAPI  H16R22189   3.548   5.959   4.028  1.5399 -2.1245 -0.3531
  192SAPI  H16S22190   3.536   5.852   3.900  0.9124 -0.2280  0.1909
  192SAPI  C21722191   3.386   5.809   4.039  0.3219  0.5613 -0.1842
  192SAPI  H17R22192   3.324   5.746   3.972 -1.2170  0.3308  1.3798
  192SAPI  H17S22193   3.319   5.868   4.106  0.5523 -1.9861  2.4981
  192SAPI  C21822194   3.478   5.721   4.116 -0.1904 -0.2955 -0.1933
  192SAPI  H18R22195   3.513   5.756   4.216  0.5534 -0.9993 -0.1942
  192SAPI  H18S22196   3.569   5.682   4.065  1.3090  0.9904  1.3709
  192SAPI  C21922197   3.401   5.590   4.141 -0.9212  0.0599  0.1944
  192SAPI  H19R22198   3.387   5.543   4.042  1.5572 -3.6597  1.3741
  192SAPI  H19S22199   3.302   5.603   4.191 -1.6426 -1.3389 -0.8010
  192SAPI  C22022200   3.475   5.482   4.227  0.5875 -0.7236 -0.0845
  192SAPI  H20R22201   3.500   5.523   4.327  1.5857 -4.0918  1.1736
  192SAPI  H20S22202   3.574   5.444   4.193  0.4057  0.4043 -2.0086
  192SAPI  H20T22203   3.409   5.394   4.244 -1.5323  0.6328 -0.8591
  192SAPI   C3322204   3.656   6.108   2.871  0.3444  0.6167 -0.3257
  192SAPI   H3X22205   3.742   6.093   2.802  1.6583  1.9845  0.9409
  192SAPI   H3Y22206   3.597   6.014   2.881  3.3763 -1.5103 -0.9316
  192SAPI   C3422207   3.724   6.152   2.998 -0.2523  0.2524  0.0023
  192SAPI   H4X22208   3.652   6.212   3.058  0.9860 -0.3671  2.2210
  192SAPI   H4Y22209   3.816   6.207   2.966 -0.1964  0.0052 -0.2608
  192SAPI   C3522210   3.775   6.023   3.077  0.8241 -0.0587  0.4158
  192SAPI   H5X22211   3.842   5.978   3.001 -1.7464  1.3068 -2.9598
  192SAPI   H5Y22212   3.686   5.961   3.101  0.6461  0.3220  0.7538
  192SAPI   C3622213   3.848   6.054   3.207 -0.0921  0.2837 -0.2159
  192SAPI   H6X22214   3.905   6.143   3.174 -1.9248  1.5823 -0.0417
  192SAPI   H6Y22215   3.921   5.980   3.245  1.7837  2.7539  1.3199
  192SAPI   C3722216   3.762   6.082   3.333  0.0648  0.0014  0.8715
  192SAPI   H7X22217   3.704   5.991   3.362  0.9216 -1.1585 -0.8776
  192SAPI   H7Y22218   3.690   6.165   3.316  0.9526  0.9479  1.6082
  192SAPI   C3822219   3.862   6.120   3.445  0.8611  0.5857  0.0265
  192SAPI   H8X22220   3.895   6.223   3.421  0.9510  0.0670 -2.2734
  192SAPI   H8Y22221   3.946   6.046   3.445 -0.6361 -1.2051  0.8169
  192SAPI   C3922222   3.783   6.127   3.576 -0.1109  0.3234  0.6459
  192SAPI   H9X22223   3.728   6.034   3.602 -0.3683  0.3818  0.3150
  192SAPI   H9Y22224   3.701   6.198   3.554  0.5980  0.4302 -1.9566
  192SAPI  C31022225   3.857   6.173   3.694 -0.2808 -0.3205  0.4533
  192SAPI  H10X22226   3.896   6.275   3.678  0.7709 -0.3313  2.5753
  192SAPI  H10Y22227   3.948   6.109   3.700 -1.0078 -1.3902  0.2638
  192SAPI  C31122228   3.782   6.142   3.821 -1.4328 -0.6285  0.2350
  192SAPI  H11X22229   3.756   6.036   3.840 -0.7588 -0.5004  2.1319
  192SAPI  H11Y22230   3.688   6.200   3.831 -1.8354 -0.8316 -1.8620
  192SAPI  C31222231   3.865   6.179   3.949 -0.0670  0.6100  0.3507
  192SAPI  H12X22232   3.898   6.285   3.936  2.5066  0.1202  2.1036
  192SAPI  H12Y22233   3.957   6.117   3.940  0.0856  0.9253 -0.4035
  192SAPI  C31322234   3.799   6.141   4.089  0.1590  0.3390 -0.2093
  192SAPI  H13X22235   3.766   6.035   4.092  2.1784 -0.3939 -1.3345
  192SAPI  H13Y22236   3.711   6.205   4.108  0.1939 -0.0841  1.5385
  192SAPI  C31422237   3.892   6.154   4.205 -0.0707 -0.8142 -0.6391
  192SAPI  H14X22238   3.919   6.261   4.223  0.9120 -1.1356 -0.1642
  192SAPI  H14Y22239   3.980   6.087   4.201 -0.0177 -0.8600  0.8832
  192SAPI  C31522240   3.820   6.102   4.328  0.5252  0.6021  0.0396
  192SAPI  H15X22241   3.827   5.992   4.341 -1.2930  0.6739  2.0188
  192SAPI  H15Y22242   3.713   6.132   4.332  0.2791 -0.2328 -0.1867
  192SAPI  C31622243   3.876   6.149   4.463 -0.8005 -0.4931 -0.2023
  192SAPI  H16X22244   3.907   6.255   4.478  0.0352 -0.7980  0.3480
  192SAPI  H16Y22245   3.965   6.090   4.493  0.4244  1.2352 -0.3005
  192SAPI  C31722246   3.776   6.131   4.574 -0.4456 -0.7838  0.3329
  192SAPI  H17X22247   3.732   6.030   4.586 -0.5906 -0.6632  0.8276
  192SAPI  H17Y22248   3.688   6.188   4.537  0.2071 -0.9587 -1.5883
  192SAPI  C31822249   3.810   6.175   4.718 -0.7109 -0.5541  0.3303
  192SAPI  H18X22250   3.867   6.095   4.771  0.4391  0.2641  0.3679
  192SAPI  H18Y22251   3.728   6.197   4.789  0.0587  1.0314  0.7708
  192SAPI  H18Z22252   3.866   6.270   4.729 -1.5297  0.1517 -1.2983
  193SOD    SOD22253   4.484   3.516   0.322 -0.5515  0.2086  0.2186
  194SOD    SOD22254   0.886   0.468   1.011 -0.3016 -0.1820  0.1544
  195SOD    SOD22255   5.387   4.867   6.910  0.0324  0.3732 -0.5834
  196SOD    SOD22256   6.149   2.760   0.247 -0.4456 -0.1034 -0.3504
  197SOD    SOD22257   1.812   3.059   8.649  0.5569 -0.0488 -0.1764
  198SOD    SOD22258   1.910   4.031   1.547 -0.1148  0.4732 -0.1925
  199SOD    SOD22259   5.008   2.698   7.228  0.1359  0.0933 -0.2031
  200SOD    SOD22260   0.821   6.554   6.657  0.2579  0.1508  0.3211
  201SOD    SOD22261   3.696   0.211   7.891  0.0331 -0.0138 -0.6186
  202SOD    SOD22262   3.114   6.784   2.496  0.8058  0.1041  0.0926
  203SOD    SOD22263   4.186   4.825   8.553  0.0594 -0.3498 -0.3185
  204SOD    SOD22264   0.391   5.319   0.026 -0.0350 -0.2953  0.0442
  205SOD    SOD22265   2.634   0.234   0.489  0.4224  0.0934  0.3231
  206SOD    SOD22266   0.328   6.069   7.125 -0.2092 -0.0520  0.1308
  207SOD    SOD22267   6.330   1.557   6.843  0.1209  0.0348  0.1295
  208SOD    SOD22268   3.346   5.146   7.613  0.1972  0.2180  0.0619
  209SOD    SOD22269   6.774   0.012   1.757  0.6003 -0.0107  0.1580
  210SOD    SOD22270   2.635   2.636   6.581  0.4321  0.1254 -0.0859
  211SOD    SOD22271   5.205   6.780   1.830  0.0015 -0.2197 -0.3643
  212SOD    SOD22272   6.506   3.990   2.466  0.1615  0.1527 -0.2101
  213SOD    SOD22273   3.606   3.447   2.254  0.2834  0.6342  0.6624
  214SOD    SOD22274   6.343   5.773   8.462  0.1081  0.4036 -0.0062
  215SOD    SOD22275   4.546   4.277   1.598  0.4951  0.0539 -0.3664
  216SOD    SOD22276   0.438   3.067   7.956  0.3546  0.2388 -0.2926
  217SOD    SOD22277   3.988   4.010   7.338 -0.0819  0.0419 -0.2185
  218SOD    SOD22278   3.726   0.771   1.401  0.0329 -0.2875 -0.6309
  219SOD    SOD22279   3.141   2.631   6.956  1.0107  0.0073  0.2617
  220SOD    SOD22280   3.966   4.968   6.958 -0.5568 -0.0851 -0.2467
  221SOD    SOD22281   2.743   1.611   1.839 -0.0867 -0.5477 -0.0792
  222SOD    SOD22282   6.346   4.446   1.570 -0.2992  0.5323 -0.2704
  223SOD    SOD22283   0.921   4.658   7.937  0.6459 -0.1824 -0.1444
  224SOD    SOD22284   4.075   1.883   6.336  0.3101 -0.1378 -0.5615
  225SOD    SOD22285   6.633   3.439   7.375 -0.2112 -0.4341 -0.0381
  226SOD    SOD22286   5.776   4.895   0.358 -0.0551 -0.2890 -0.0604
  227SOD    SOD22287   3.285   1.737   2.560 -0.3360 -0.2419  0.1048
  228SOD    SOD22288   0.462   1.600   1.772 -0.0306 -0.4860 -0.0703
  229SOD    SOD22289   6.817   0.045   7.665  0.1868  0.4004  0.1890
  230SOD    SOD22290   5.526   5.031   1.626 -0.5254 -0.0899  0.2890
  231SOD    SOD22291   1.716   0.159   6.260  0.4167 -0.3712 -0.2046
  232SOD    SOD22292   4.724   5.247   1.788  0.3816 -0.2736 -0.3507
  233SOD    SOD22293   1.865   3.401   0.232 -0.7096 -0.0766 -0.4681
  234CLA    CLA22294   3.197   6.042   7.890 -0.0535 -0.0665 -0.2120
  235CLA    CLA22295   3.808   2.843   0.250  0.1089  0.0500  0.1417
  236CLA    CLA22296   0.006   2.776   7.750  0.0383  0.2001  0.1149
  237CLA    CLA22297   5.941   4.770   8.452  0.0436  0.0071  0.1004
  238CLA    CLA22298   6.388   4.542   7.250 -0.3539  0.3417  0.0049
  239CLA    CLA22299   2.341   4.511   7.688  0.0343  0.0964 -0.1311
  240CLA    CLA22300   2.633   4.912   8.441  0.3440 -0.0793 -0.2758
  241CLA    CLA22301   2.579   3.375   0.795  0.0737 -0.1717  0.0543
  242CLA    CLA22302   0.699   3.233   0.207  0.2986 -0.2281 -0.0797
  243CLA    CLA22303   6.357   5.302   0.858  0.4394 -0.0182 -0.0186
  244CLA    CLA22304   6.145   0.806   1.148 -0.3564 -0.2598  0.1351
  245CLA    CLA22305   0.186   1.923   0.238  0.3232 -0.2746  0.0770
  246CLA    CLA22306   6.615   4.587   1.134 -0.1580 -0.1269  0.2172
  247CLA    CLA22307   3.375   6.141   0.164 -0.4620 -0.3557  0.4241
  248CLA    CLA22308   2.254   3.401   8.658  0.3553  0.4138  0.5480
  249CLA    CLA22309   3.331   5.787   1.191  0.0403  0.1299  0.0916
  250CLA    CLA22310   4.880   4.498   0.910 -0.3622 -0.1482 -0.4384
  251TIP3   OH222311   1.913   4.680   7.444  0.1834 -0.4161 -0.3011
  251TIP3    H122312   1.983   4.625   7.478 -0.1036 -0.7757 -0.2886
  251TIP3    H222313   1.935   4.692   7.352  1.3186  1.1123  0.1413
  252TIP3   OH222314   6.603   0.632   0.319 -0.4860  0.2977 -0.1426
  252TIP3    H122315   6.558   0.625   0.235  0.4622  1.2716 -0.7453
  252TIP3    H222316   6.690   0.664   0.297 -0.1216  0.2579  1.1888
  253TIP3   OH222317   5.737   1.481   0.165 -0.9695 -0.1197 -0.4668
  253TIP3    H122318   5.647   1.513   0.172 -0.2522  1.7030  1.3759
  253TIP3    H222319   5.787   1.556   0.134 -0.0857 -1.1829 -1.7005
  254TIP3   OH222320   4.014   3.568   2.113 -0.1006 -0.1892 -0.0722
  254TIP3    H122321   3.993   3.550   2.021 -1.9498  0.9979  0.0541
  254TIP3    H222322   4.092   3.623   2.109 -0.8836  0.9001 -1.0284
  255TIP3   OH222323   1.781   5.354   6.639  0.4533  0.4400 -0.4260
  255TIP3    H122324   1.793   5.423   6.574  1.2594 -0.4173 -1.2096
  255TIP3    H222325   1.830   5.279   6.604  0.4435 -0.2102  0.8965
  256TIP3   OH222326   0.765   3.559   7.922 -0.5201  0.1527  0.0570
  256TIP3    H122327   0.822   3.530   7.850  0.7067  0.1601  0.9935
  256TIP3    H222328   0.778   3.494   7.991 -0.3960  1.0326  0.8860
  257TIP3   OH222329   0.342   1.058   6.602 -0.1333 -0.3751 -0.1801
  257TIP3    H122330   0.275   1.010   6.554  1.2592 -1.9171 -0.6662
  257TIP3    H222331   0.419   1.054   6.546  0.7883  0.1147  0.9995
  258TIP3   OH222332   1.433   5.890   0.491  0.7720  0.6016  0.3796
  258TIP3    H122333   1.391   5.927   0.569 -1.0505  1.9948 -1.1410
  258TIP3    H222334   1.527   5.897   0.508  0.4263  1.7005  2.0853
  259TIP3   OH222335   6.727   0.653   1.110 -0.0550 -0.1652 -0.4559
  259TIP3    H122336   6.755   0.707   1.184 -1.0570 -0.4505  0.1522
  259TIP3    H222337   6.669   0.587   1.149  1.1881 -1.7314 -1.1682
  260TIP3   OH222338   4.907   3.981   0.786  0.8550  0.2346  0.2025
  260TIP3    H122339   4.863   4.053   0.831 -1.2275  0.2898 -1.7525
  260TIP3    H222340   4.913   3.911   0.851 -4.8336 -0.8420  0.0599
  261TIP3   OH222341   1.542   2.455   6.135 -0.3313  1.0926 -0.2204
  261TIP3    H122342   1.630   2.443   6.101 -0.0016 -1.5319  1.3168
  261TIP3    H222343   1.554   2.496   6.221 -0.5659  0.4318  0.1348
  262TIP3   OH222344   3.397   5.692   7.734  0.2325 -0.5376 -0.2119
  262TIP3    H122345   3.302   5.686   7.722  0.2639  1.0558 -1.6396
  262TIP3    H222346   3.409   5.692   7.829 -1.2502 -0.2690  0.0008
  263TIP3   OH222347   6.839   0.339   7.376  0.6729  0.1401  0.0628
  263TIP3    H122348   6.839   0.298   7.462 -1.6487 -2.2574 -0.9353
  263TIP3    H222349   6.904   0.290   7.326  1.5697  1.1216  0.2289
  264TIP3   OH222350   4.685   1.261   7.468  0.0949  0.0130  0.4211
  264TIP3    H122351   4.689   1.210   7.387 -0.6521 -0.9124  0.9393
  264TIP3    H222352   4.617   1.218   7.519 -0.3421  1.3744  1.0127
  265TIP3   OH222353   2.310   1.560   8.465  0.0205 -0.5118  0.3380
  265TIP3    H122354   2.216   1.575   8.449 -0.1838  1.8330  2.9891
  265TIP3    H222355   2.313   1.512   8.547  1.1616 -2.0258 -0.5566
  266TIP3   OH222356   6.759   1.951   2.160  0.5024  0.6837  0.3433
  266TIP3    H122357   6.751   1.918   2.249  1.6553  0.1473  0.2605
  266TIP3    H222358   6.828   2.017   2.165  0.5859  0.6367 -0.1587
  267TIP3   OH222359   4.256   1.862   6.778 -0.5583  0.2632  0.0704
  267TIP3    H122360   4.281   1.944   6.821 -0.0351  0.6197 -0.8760
  267TIP3    H222361   4.165   1.847   6.805 -0.3329  0.6119  1.0638
  268TIP3   OH222362   0.731   5.249   7.970  0.2982 -0.1049 -0.0119
  268TIP3    H122363   0.803   5.197   7.933 -0.1871 -2.1562  1.7816
  268TIP3    H222364   0.720   5.321   7.907  2.3249 -1.0297 -1.5627
  269TIP3   OH222365   6.441   2.195   7.994  0.8873 -0.3472  0.6616
  269TIP3    H122366   6.489   2.275   8.014 -1.5831  1.7598 -1.0640
  269TIP3    H222367   6.474   2.169   7.908 -0.8216  1.0870 -0.5131
  270TIP3   OH222368   4.935   4.498   8.403  0.4148 -0.0524 -0.0124
  270TIP3    H122369   4.930   4.410   8.440 -2.1875 -0.2872 -0.7133
  270TIP3    H222370   4.987   4.489   8.324  0.4777 -0.8994  0.1243
  271TIP3   OH222371   0.979   0.515   7.154 -0.1055  0.0682 -0.3907
  271TIP3    H122372   1.025   0.432   7.149 -0.7139 -0.3158  0.1997
  271TIP3    H222373   1.045   0.581   7.132  0.4928 -0.5299 -0.4143
  272TIP3   OH222374   5.357   3.591   0.483  0.6387 -0.2085  0.0713
  272TIP3    H122375   5.427   3.564   0.543  1.8840  2.2251 -0.1458
  272TIP3    H222376   5.356   3.686   0.489 -2.9628 -0.1224  0.3238
  273TIP3   OH222377   0.013   3.434   1.707 -0.6294 -0.6317 -0.0407
  273TIP3    H122378   0.013   3.350   1.662 -0.9204 -0.5475 -0.2028
  273TIP3    H222379  -0.024   3.495   1.644 -0.4868 -0.3942  0.1020
  274TIP3   OH222380   3.946   6.099   1.356  0.1680 -0.2961 -0.3902
  274TIP3    H122381   3.859   6.112   1.319  0.2231 -0.6464 -0.6487
  274TIP3    H222382   3.930   6.077   1.448  0.0002 -0.0306 -0.3563
  275TIP3   OH222383   3.486   6.091   7.855  0.8313  0.2012  0.2136
  275TIP3    H122384   3.393   6.073   7.869  0.7874 -0.5859 -0.9344
  275TIP3    H222385   3.498   6.079   7.760  2.1162  0.2311  0.3635
  276TIP3   OH222386   3.360   5.252   1.232 -0.1119 -0.1551  0.1061
  276TIP3    H122387   3.384   5.304   1.309  1.0328 -0.4083 -0.0643
  276TIP3    H222388   3.439   5.251   1.178 -0.2761 -1.6312 -0.1450
  277TIP3   OH222389   0.785   5.408   7.127 -0.0357  0.0327  0.2128
  277TIP3    H122390   0.739   5.420   7.044 -0.1779  0.5460  0.3634
  277TIP3    H222391   0.866   5.364   7.104  1.1543  2.4667 -0.5636
  278TIP3   OH222392   1.231   4.425   1.718  0.2937 -0.1890 -0.0771
  278TIP3    H122393   1.309   4.369   1.714  0.8791  0.5649  0.6028
  278TIP3    H222394   1.165   4.370   1.760  0.9539 -0.2845  0.8731
  279TIP3   OH222395   2.927   3.930   0.865 -0.3220  0.3020 -0.0004
  279TIP3    H122396   2.978   3.940   0.946 -0.8660 -0.7608  0.4910
  279TIP3    H222397   2.983   3.968   0.797  1.0413 -0.6100  0.5598
  280TIP3   OH222398   4.999   5.815   2.241  0.6389  0.1178  0.3697
  280TIP3    H122399   5.011   5.907   2.266  2.0376  0.0625 -0.0447
  280TIP3    H222400   5.087   5.785   2.218 -0.2182 -0.4587 -2.5141
  281TIP3   OH222401   3.717   4.830   7.316 -0.1505  0.2162 -0.0597
  281TIP3    H122402   3.680   4.751   7.277 -0.7090  0.1762  0.5304
  281TIP3    H222403   3.649   4.861   7.376  0.1838  0.9733 -0.0596
  282TIP3   OH222404   6.324   2.562   1.540  0.3841  0.1428 -0.2708
  282TIP3    H122405   6.263   2.613   1.593 -1.3688 -1.5567 -0.5493
  282TIP3    H222406   6.373   2.509   1.603  1.0587  0.9498 -0.1029
  283TIP3   OH222407   4.639   1.389   1.389  0.2911  0.3879 -0.0050
  283TIP3    H122408   4.638   1.417   1.297  1.2154 -0.9307 -0.4507
  283TIP3    H222409   4.549   1.365   1.408  0.1434  0.3956 -0.6707
  284TIP3   OH222410   6.772   3.877   7.040  0.2055  0.3744  0.2732
  284TIP3    H122411   6.689   3.885   6.994  0.6197  0.4071 -0.4908
  284TIP3    H222412   6.813   3.963   7.031 -0.1468  0.7179  1.6177
  285TIP3   OH222413   2.032   2.375   0.400 -0.5436 -0.1111  0.1418
  285TIP3    H122414   2.013   2.419   0.483 -1.0432  0.5656 -0.3198
  285TIP3    H222415   1.948   2.369   0.356 -0.4116 -1.1918  0.0208
  286TIP3   OH222416   3.280   2.543   7.420 -0.1021  0.3018 -0.5094
  286TIP3    H122417   3.256   2.549   7.512 -0.6195  1.9093 -0.7205
  286TIP3    H222418   3.349   2.476   7.417  1.7530  1.9838  1.4471
  287TIP3   OH222419   4.395   1.343   1.060 -0.2259 -0.2764  0.4818
  287TIP3    H122420   4.451   1.297   0.998 -0.1911  1.6589 -1.0385
  287TIP3    H222421   4.347   1.274   1.105 -0.6903 -1.7836 -2.1281
  288TIP3   OH222422   5.347   1.167   0.519  0.0355  0.1211  0.5449
  288TIP3    H122423   5.319   1.252   0.486  1.3995  0.7228  0.8984
  288TIP3    H222424   5.288   1.149   0.592  0.0719  1.0023  0.7946
  289TIP3   OH222425   2.850   5.185   1.014 -0.5130  0.3657 -0.0219
  289TIP3    H122426   2.946   5.181   1.018 -0.5184  0.4468  0.2206
  289TIP3    H222427   2.821   5.094   1.013 -0.5306  0.2694  2.4499
  290TIP3   OH222428   4.505   6.588   0.108 -0.0389  0.1840 -0.1782
  290TIP3    H122429   4.483   6.522   0.174 -0.6583  1.6393  1.1354
  290TIP3    H222430   4.420   6.627   0.084  0.2939  0.3860 -1.0753
  291TIP3   OH222431   2.596   6.128   1.146 -0.3660 -0.0884  0.1534
  291TIP3    H122432   2.593   6.101   1.054 -0.3868  1.1112 -0.2067
  291TIP3    H222433   2.679   6.175   1.154 -0.9068  0.8378  0.4479
  292TIP3   OH222434   4.806   0.880   7.298 -0.1985  0.0147 -0.3784
  292TIP3    H122435   4.879   0.880   7.361  0.3499  0.2940 -0.9946
  292TIP3    H222436   4.746   0.946   7.331 -0.9790 -1.3388  1.0275
  293TIP3   OH222437   0.385   6.713   0.543 -0.1354 -0.1637 -0.7592
  293TIP3    H122438   0.382   6.701   0.448 -1.4978  1.2612 -0.9236
  293TIP3    H222439   0.354   6.630   0.578 -2.3417  0.2089 -1.6586
  294TIP3   OH222440   3.093   0.468   7.038 -1.3301  0.2382  0.5837
  294TIP3    H122441   3.072   0.378   7.062 -2.2208  0.5378  0.9809
  294TIP3    H222442   3.017   0.498   6.988 -0.6157  0.4557 -0.4010
  295TIP3   OH222443   6.847   3.567   8.102  0.1419  0.3541  0.6155
  295TIP3    H122444   6.901   3.646   8.102  1.5031 -0.4860  2.7908
  295TIP3    H222445   6.776   3.586   8.164  0.9859 -0.4023  1.8482
  296TIP3   OH222446   4.560   4.614   7.457  0.1246 -0.3857 -0.0106
  296TIP3    H122447   4.479   4.640   7.413  0.3914  1.1533  0.3522
  296TIP3    H222448   4.531   4.562   7.532 -0.5147 -0.2637 -0.1701
  297TIP3   OH222449   1.821   0.313   6.672  0.1767  0.2190 -0.7092
  297TIP3    H122450   1.789   0.403   6.659  0.3311  0.6040  1.1458
  297TIP3    H222451   1.909   0.314   6.637  1.4558  1.8427  2.1364
  298TIP3   OH222452   3.557   4.074   7.826 -0.4580 -0.2754 -0.2383
  298TIP3    H122453   3.636   4.039   7.868 -0.5606  0.9767  1.0872
  298TIP3    H222454   3.553   4.165   7.857 -1.8694 -0.0316 -1.0971
  299TIP3   OH222455   1.779   2.759   8.283 -0.0150  0.4462 -0.2105
  299TIP3    H122456   1.817   2.777   8.197  0.0279 -1.7342 -0.7079
  299TIP3    H222457   1.853   2.764   8.344 -0.0688  2.1254 -0.2461
  300TIP3   OH222458   3.245   6.132   8.184 -0.2680  0.1496  0.2059
  300TIP3    H122459   3.230   6.087   8.101  3.1153  1.3251 -1.2242
  300TIP3    H222460   3.176   6.199   8.188  0.0067  0.6650 -2.1633
  301TIP3   OH222461   0.745   2.846   0.491 -0.3868  0.1308  0.2595
  301TIP3    H122462   0.668   2.901   0.479 -0.3782  0.1473  0.2816
  301TIP3    H222463   0.719   2.783   0.559  0.4188  1.6226  2.0145
  302TIP3   OH222464   6.678   4.377   8.405  0.4783  0.2356 -0.2492
  302TIP3    H122465   6.742   4.421   8.460  0.2831 -0.9602  0.9871
  302TIP3    H222466   6.722   4.366   8.320  1.5033  0.3643  0.2539
  303TIP3   OH222467   2.150   2.284   6.950 -0.0404  0.5866 -0.0606
  303TIP3    H122468   2.198   2.221   6.896 -1.7335 -0.3139 -0.5871
  303TIP3    H222469   2.061   2.283   6.915 -0.6960  1.5048  1.4621
  304TIP3   OH222470   1.945   3.286   7.449  0.2977  0.8441  0.4885
  304TIP3    H122471   1.924   3.193   7.450  0.9592  0.6890  0.4045
  304TIP3    H222472   1.875   3.327   7.500 -0.0421  0.3137  0.4573
  305TIP3   OH222473   3.968   4.640   7.349 -0.3353 -0.3962 -0.1890
  305TIP3    H122474   3.925   4.722   7.326 -0.3619 -0.8872 -2.0126
  305TIP3    H222475   3.925   4.612   7.430 -0.5038  1.2290  0.3204
  306TIP3   OH222476   6.623   1.293   2.359 -0.2509  0.3094  0.0056
  306TIP3    H122477   6.697   1.234   2.348  0.1588  1.1480 -2.2696
  306TIP3    H222478   6.546   1.240   2.336 -0.2747 -0.2503  1.2980
  307TIP3   OH222479   6.467   2.373   6.312  0.0619 -0.4123 -1.0588
  307TIP3    H122480   6.454   2.278   6.315  0.9183 -0.5904 -2.2981
  307TIP3    H222481   6.551   2.388   6.354  0.6946 -0.3935 -2.2930
  308TIP3   OH222482   6.497   1.376   1.189 -0.0542 -0.3622  0.2201
  308TIP3    H122483   6.586   1.379   1.222 -0.0892 -1.5893  0.4568
  308TIP3    H222484   6.443   1.357   1.265 -0.8511  2.6746  0.5717
  309TIP3   OH222485   4.870   6.503   8.014  0.2935 -0.1060  0.1056
  309TIP3    H122486   4.949   6.500   8.069 -0.5790 -1.6247  1.3601
  309TIP3    H222487   4.897   6.461   7.932  0.7330 -0.8441  0.6164
  310TIP3   OH222488   4.622   5.268   0.418  0.0531 -0.0698 -0.0062
  310TIP3    H122489   4.662   5.186   0.444  0.9785  0.3397 -0.1089
  310TIP3    H222490   4.649   5.281   0.327  1.1656  1.0699  0.4617
  311TIP3   OH222491   4.966   3.600   7.813 -0.1374 -0.0181 -0.2849
  311TIP3    H122492   4.960   3.578   7.906 -1.4977 -0.9095 -0.5742
  311TIP3    H222493   4.898   3.666   7.800  0.8835  1.0626 -0.4172
  312TIP3   OH222494   2.511   5.583   1.979  0.0356 -0.5901  0.1772
  312TIP3    H122495   2.427   5.621   2.002 -0.0911  0.9927 -2.4824
  312TIP3    H222496   2.570   5.609   2.050 -0.9934  1.1717  0.4390
  313TIP3   OH222497   1.659   4.058   7.166  0.2456 -0.1294  0.1875
  313TIP3    H122498   1.679   4.146   7.198 -3.1401  1.3492 -1.2287
  313TIP3    H222499   1.620   4.014   7.241  0.1347  0.2951  0.3846
  314TIP3   OH222500   5.618   1.057   7.808 -0.5967  0.2117  0.1435
  314TIP3    H122501   5.619   0.975   7.857 -0.4019 -1.1796 -2.0500
  314TIP3    H222502   5.691   1.108   7.844  0.8215 -1.5991 -0.0100
  315TIP3   OH222503   1.181   5.484   0.672 -0.3542  0.2636 -0.1903
  315TIP3    H122504   1.110   5.443   0.623 -0.9029 -1.2793  1.7926
  315TIP3    H222505   1.141   5.561   0.713 -0.5562  0.1113 -0.1018
  316TIP3   OH222506   0.409   1.305   8.668  0.1746  0.8186  0.2877
  316TIP3    H122507   0.465   1.324   8.743  0.2372 -1.8927  1.0418
  316TIP3    H222508   0.323   1.287   8.706  0.2477 -0.7389 -0.2067
  317TIP3   OH222509   1.361   5.948   0.982 -0.2202  0.8475  0.2736
  317TIP3    H122510   1.423   5.940   0.910  0.0490  1.4372  0.4395
  317TIP3    H222511   1.352   5.859   1.016 -2.4760 -0.0352 -2.2414
  318TIP3   OH222512   3.723   4.849   0.227  0.1740  0.0348  0.4308
  318TIP3    H122513   3.685   4.934   0.204 -2.6395 -1.5615 -1.4447
  318TIP3    H222514   3.673   4.820   0.303  0.9404 -0.1097  0.8948
  319TIP3   OH222515   0.286   4.014   6.831 -0.0377 -0.3886 -0.3513
  319TIP3    H122516   0.316   3.924   6.847  0.4461 -0.0989  0.4353
  319TIP3    H222517   0.251   4.012   6.742  2.5486 -0.7022 -1.4474
  320TIP3   OH222518   2.750   2.127   8.086  0.2871  0.7818 -0.0211
  320TIP3    H122519   2.803   2.186   8.138  1.8934 -1.1109  0.6419
  320TIP3    H222520   2.722   2.058   8.147 -0.1038 -0.0352 -1.0737
  321TIP3   OH222521   4.586   4.450   0.320 -0.1325 -0.2954 -0.0623
  321TIP3    H122522   4.569   4.483   0.408  0.3734  0.8766 -0.3783
  321TIP3    H222523   4.619   4.361   0.333  0.3731  0.0361  0.9645
  322TIP3   OH222524   0.262   1.079   0.322  0.4724  0.1413  0.0820
  322TIP3    H122525   0.273   1.060   0.229 -0.8050  1.0900 -0.2895
  322TIP3    H222526   0.168   1.071   0.338  0.5031  1.2709  0.9946
  323TIP3   OH222527   4.697   4.395   7.399  0.5591  0.1058 -0.8610
  323TIP3    H122528   4.692   4.357   7.487 -1.3959 -0.9770 -1.3922
  323TIP3    H222529   4.667   4.485   7.411 -1.7753 -0.6208 -0.6771
  324TIP3   OH222530   6.192   4.698   8.253 -0.3244 -0.0074 -0.1478
  324TIP3    H122531   6.099   4.719   8.257 -0.4441 -0.5940  0.5670
  324TIP3    H222532   6.214   4.672   8.343  0.2240 -1.0930 -0.5728
  325TIP3   OH222533   3.137   2.929   7.604  0.0347  0.9677  0.1874
  325TIP3    H122534   3.186   3.004   7.571  0.0972  1.0635  0.4968
  325TIP3    H222535   3.202   2.876   7.650 -0.1024  0.9737  0.3905
  326TIP3   OH222536   2.251   0.001   2.222 -0.4802 -0.3468 -0.0091
  326TIP3    H122537   2.270  -0.081   2.176  0.1752  0.5699 -1.4485
  326TIP3    H222538   2.251  -0.023   2.314  0.8051 -1.7505 -0.3336
  327TIP3   OH222539   6.379   6.808   0.250  0.5669 -0.3146  0.0987
  327TIP3    H122540   6.467   6.772   0.246  0.7666  0.1965 -0.1423
  327TIP3    H222541   6.379   6.864   0.328  0.7263  0.3934 -0.4078
  328TIP3   OH222542   1.660   6.784   7.254 -1.0686  0.0224  0.5018
  328TIP3    H122543   1.607   6.848   7.302  0.3670  0.3620  1.7247
  328TIP3    H222544   1.746   6.825   7.248 -0.4698 -1.2598  0.1218
  329TIP3   OH222545   3.980   6.099   8.515  0.3674 -0.4711 -0.4180
  329TIP3    H122546   4.059   6.065   8.472  0.3020  0.2358 -1.1182
  329TIP3    H222547   3.958   6.033   8.580  1.2438 -0.9261 -0.5690
  330TIP3   OH222548   1.861   4.388   1.325 -0.1470 -0.0022  0.6817
  330TIP3    H122549   1.783   4.420   1.281 -1.2634 -1.6523  1.3774
  330TIP3    H222550   1.843   4.400   1.418  0.1416 -1.0176  0.8769
  331TIP3   OH222551   3.402   3.678   0.330  0.0561 -0.1738 -0.2101
  331TIP3    H122552   3.308   3.661   0.342 -0.0984 -1.7869 -2.8599
  331TIP3    H222553   3.445   3.614   0.386 -0.4282  0.2018  0.6029
  332TIP3   OH222554   0.137   1.885   1.011  0.0135 -0.2804  0.8452
  332TIP3    H122555   0.108   1.972   1.038  0.8106  0.2812 -0.0258
  332TIP3    H222556   0.081   1.863   0.937  0.6395  0.0531  0.2628
  333TIP3   OH222557   5.137   1.429   1.849 -0.4110 -0.1859  0.5134
  333TIP3    H122558   5.110   1.519   1.865 -4.6601 -0.9647 -0.9846
  333TIP3    H222559   5.128   1.385   1.934 -0.7131  0.2844  0.7261
  334TIP3   OH222560   5.353   2.090   7.744 -0.3539 -0.0771 -0.1557
  334TIP3    H122561   5.357   2.082   7.839 -1.8985 -1.2298 -0.1419
  334TIP3    H222562   5.438   2.125   7.719 -0.2306  1.0933  1.7126
  335TIP3   OH222563   4.316   4.136   7.827 -0.3829 -0.0752 -0.3209
  335TIP3    H122564   4.248   4.110   7.889 -0.5471 -2.2936 -1.3127
  335TIP3    H222565   4.391   4.160   7.881 -0.2238 -2.7817  0.8073
  336TIP3   OH222566   4.966   6.688   0.506  0.3875  0.0132 -0.0289
  336TIP3    H122567   4.978   6.595   0.488  2.0861  0.4270 -1.3375
  336TIP3    H222568   5.033   6.709   0.571  1.4097  0.6911 -1.2443
  337TIP3   OH222569   3.378   1.096   7.102  0.4214  0.1325  0.5027
  337TIP3    H122570   3.405   1.079   7.012 -3.3006  0.2089 -0.8420
  337TIP3    H222571   3.371   1.192   7.108  1.7768  0.2048  1.3162
  338TIP3   OH222572   6.062   6.706   0.839 -0.2042 -0.4603 -0.2221
  338TIP3    H122573   6.118   6.634   0.808 -0.4136 -0.7127 -0.0131
  338TIP3    H222574   6.110   6.786   0.813  0.2273 -0.6721 -0.0953
  339TIP3   OH222575   0.174   3.785   1.125 -0.2752  0.0445  0.4193
  339TIP3    H122576   0.178   3.787   1.029 -2.3486 -2.8604  0.1250
  339TIP3    H222577   0.122   3.862   1.149  1.4865  1.6364 -0.5823
  340TIP3   OH222578   0.406   5.202   7.872 -0.7339 -0.5565  0.8672
  340TIP3    H122579   0.439   5.278   7.921 -2.7792  3.8318 -3.6685
  340TIP3    H222580   0.484   5.163   7.833  0.2105  1.4798  0.5725
  341TIP3   OH222581   2.734   2.300   2.149  0.0266 -0.3395  0.2918
  341TIP3    H122582   2.716   2.357   2.223  0.3018  0.7746 -0.4726
  341TIP3    H222583   2.679   2.333   2.079  1.4183  0.0725 -0.6611
  342TIP3   OH222584   0.008   3.268   0.441 -1.1229 -0.4449 -0.5020
  342TIP3    H122585  -0.003   3.330   0.369 -1.1432  0.5349  0.3184
  342TIP3    H222586   0.061   3.197   0.404  0.2098  0.7894 -1.0755
  343TIP3   OH222587   1.134   0.286   8.070 -0.0030  0.1933 -0.1101
  343TIP3    H122588   1.096   0.217   8.124 -2.4606 -0.1996 -2.1202
  343TIP3    H222589   1.184   0.240   8.003 -2.5156  0.1005 -2.1039
  344TIP3   OH222590   3.587   2.756   7.774 -0.3678  0.0711 -0.2740
  344TIP3    H122591   3.620   2.676   7.733  0.1070  0.2393 -0.2339
  344TIP3    H222592   3.653   2.777   7.840  1.3008  2.3055 -2.4685
  345TIP3   OH222593   4.075   3.135   8.232 -0.7899  0.3572  0.3899
  345TIP3    H122594   4.032   3.074   8.292  2.6390 -0.7758  1.9346
  345TIP3    H222595   4.126   3.080   8.173  1.2502  1.6391  0.8638
  346TIP3   OH222596   0.665   2.262   0.631  0.1672 -0.5606  0.0801
  346TIP3    H122597   0.606   2.233   0.562  1.1779  1.2942 -1.6791
  346TIP3    H222598   0.706   2.182   0.664  0.1927 -1.4682 -2.0200
  347TIP3   OH222599   3.361   0.147   7.514 -0.8659 -0.0713 -0.3989
  347TIP3    H122600   3.270   0.117   7.509 -0.3479 -1.6248 -1.0091
  347TIP3    H222601   3.376   0.163   7.607 -1.4373 -0.8861 -0.1587
  348TIP3   OH222602   0.880   5.133   7.771 -0.5991 -0.2784  0.0082
  348TIP3    H122603   0.946   5.163   7.709  0.5509 -0.1232  1.2571
  348TIP3    H222604   0.898   5.040   7.781 -1.5415 -0.5573 -0.7600
  349TIP3   OH222605   3.126   6.616   6.952  0.6158 -0.6950 -0.1015
  349TIP3    H122606   3.220   6.598   6.950  0.6684 -0.3775 -0.7675
  349TIP3    H222607   3.086   6.531   6.969  0.9599 -1.1247 -1.2783
  350TIP3   OH222608   3.044   4.852   8.112 -0.8077 -0.0899  0.5038
  350TIP3    H122609   2.969   4.887   8.159 -1.3597 -0.5359 -0.0329
  350TIP3    H222610   3.112   4.920   8.121 -0.2346 -0.9050  3.5079
  351TIP3   OH222611   6.107   4.418   8.726  0.6247 -0.0950 -0.4293
  351TIP3    H122612   6.105   4.338   8.674 -0.1049 -0.1401 -0.3314
  351TIP3    H222613   6.124   4.389   8.815  1.2248 -0.0673 -0.5293
  352TIP3   OH222614   4.011   6.530   6.559  0.1455 -0.5819  0.1735
  352TIP3    H122615   4.060   6.534   6.477  2.0170 -0.8045  1.2337
  352TIP3    H222616   4.006   6.621   6.588 -1.3537 -0.3825 -0.6220
  353TIP3   OH222617   5.137   1.840   7.740  0.0168  0.5805  0.6718
  353TIP3    H122618   5.094   1.922   7.715  0.6360  1.0086  0.9725
  353TIP3    H222619   5.224   1.867   7.771  0.9420 -0.3475 -0.9553
  354TIP3   OH222620   1.344   2.144   6.540 -0.1349 -0.4639 -0.8198
  354TIP3    H122621   1.327   2.214   6.477  0.0281 -1.9889 -2.6535
  354TIP3    H222622   1.343   2.188   6.625  0.7222  1.8849 -1.9186
  355TIP3   OH222623   1.465   5.335   0.062 -0.1426  0.3694  0.1683
  355TIP3    H122624   1.500   5.358   0.149 -0.4468  1.7206 -0.0511
  355TIP3    H222625   1.496   5.246   0.048  0.0240  0.1630  1.6140
  356TIP3   OH222626   3.772   4.197   0.377  0.6011  0.2917  0.6321
  356TIP3    H122627   3.857   4.202   0.333 -0.1672  0.5721 -0.9270
  356TIP3    H222628   3.766   4.279   0.426  0.4385  1.2211 -0.8618
  357TIP3   OH222629   4.707   4.417   1.710  0.1347  0.2603 -0.1160
  357TIP3    H122630   4.663   4.458   1.784 -0.2122 -0.5488  0.1372
  357TIP3    H222631   4.793   4.393   1.744  0.0007 -0.0484  0.0128
  358TIP3   OH222632   2.098   4.123   8.588  0.1381 -0.0303 -0.0429
  358TIP3    H122633   2.039   4.122   8.513  1.0134 -1.0933 -0.7438
  358TIP3    H222634   2.186   4.117   8.550  0.7969  2.4246  0.9341
  359TIP3   OH222635   3.836   0.322   8.402  0.3558 -0.4512  0.5300
  359TIP3    H122636   3.901   0.266   8.444  2.5033  0.8824 -0.7767
  359TIP3    H222637   3.875   0.409   8.403 -1.2686  0.3514 -0.6571
  360TIP3   OH222638   4.953   1.884   8.070 -0.5534  0.0086 -0.4790
  360TIP3    H122639   4.986   1.968   8.040  0.2123  0.0846  0.5288
  360TIP3    H222640   4.930   1.898   8.162 -0.0311 -0.9773 -0.1806
  361TIP3   OH222641   3.125   1.948   8.268 -0.0738  0.0570  0.2807
  361TIP3    H122642   3.117   1.923   8.360  1.5576 -1.8937 -0.0363
  361TIP3    H222643   3.082   1.877   8.220  1.3727 -0.3066 -0.5254
  362TIP3   OH222644   5.408   6.804   0.089 -0.1617  0.0740  0.1908
  362TIP3    H122645   5.445   6.765   0.010 -0.9640  1.6455 -1.0211
  362TIP3    H222646   5.331   6.751   0.109  0.7688 -1.1228  0.7277
  363TIP3   OH222647   2.043   5.025   7.365  0.3705  0.7447 -0.3989
  363TIP3    H122648   2.039   4.945   7.418 -0.4276 -0.8119 -2.6235
  363TIP3    H222649   2.134   5.052   7.369  0.4269  0.4498  1.3494
  364TIP3   OH222650   5.284   6.422   7.848 -0.0638  0.5133  0.2867
  364TIP3    H122651   5.200   6.376   7.850 -0.8850  1.9677  0.6822
  364TIP3    H222652   5.323   6.404   7.933 -0.2520  0.3027  0.3290
  365TIP3   OH222653   5.933   3.336   1.890  0.1739 -0.0951  0.0651
  365TIP3    H122654   5.839   3.320   1.893  0.3777 -1.4285 -0.0064
  365TIP3    H222655   5.970   3.271   1.949  1.1433 -0.4336 -0.8768
  366TIP3   OH222656   5.176   2.609   1.559 -0.0212 -0.5356  0.6142
  366TIP3    H122657   5.192   2.515   1.569  0.8412 -0.4413  0.2210
  366TIP3    H222658   5.106   2.615   1.495  1.0393 -0.8885 -0.6299
  367TIP3   OH222659   6.535   2.383   8.623  0.2783  0.2946 -0.2795
  367TIP3    H122660   6.586   2.435   8.561 -1.4324  0.9641 -1.1870
  367TIP3    H222661   6.572   2.295   8.617  2.0727  0.9756 -0.0118
  368TIP3   OH222662   4.346   1.206   6.275  0.0864 -0.4480 -0.3835
  368TIP3    H122663   4.352   1.299   6.297 -2.6055 -0.1045 -0.7253
  368TIP3    H222664   4.432   1.184   6.239  0.7564  1.9214 -0.3862
  369TIP3   OH222665   3.925   3.677   8.505  0.4052 -0.1345 -0.6420
  369TIP3    H122666   3.989   3.664   8.434 -0.0634 -1.3292 -0.8756
  369TIP3    H222667   3.862   3.740   8.469 -0.7676 -1.9591 -1.9973
  370TIP3   OH222668   4.504   0.979   8.200  0.0718 -0.4040  0.7447
  370TIP3    H122669   4.516   0.979   8.295  3.2547  1.2746  0.4708
  370TIP3    H222670   4.515   0.887   8.175 -0.3928 -0.8007  1.9313
  371TIP3   OH222671   3.193   4.791   7.302 -0.1195  0.9412  0.2235
  371TIP3    H122672   3.117   4.832   7.344 -0.5039  1.2059 -0.7228
  371TIP3    H222673   3.156   4.735   7.234  0.5830  2.3033 -1.3286
  372TIP3   OH222674   5.820   0.056   0.853  0.5617 -0.0722  0.0784
  372TIP3    H122675   5.908   0.018   0.849  0.6887  0.2923 -1.0572
  372TIP3    H222676   5.823   0.128   0.790 -0.5166  0.0336  0.1367
  373TIP3   OH222677   3.230   5.884   1.490 -0.2415 -0.4559  0.2366
  373TIP3    H122678   3.302   5.850   1.542  1.5081  2.2566 -0.2275
  373TIP3    H222679   3.252   5.860   1.400 -0.0346  0.1551  0.1213
  374TIP3   OH222680   1.140   2.651   7.260 -0.3504  0.3475  0.3709
  374TIP3    H122681   1.094   2.677   7.180  1.2569 -0.1119 -0.7602
  374TIP3    H222682   1.231   2.675   7.244  0.7758 -3.2895  0.3514
  375TIP3   OH222683   1.316   2.011   1.373 -0.6042  0.6297  0.3816
  375TIP3    H122684   1.300   2.092   1.326  0.7070 -0.1638 -1.5311
  375TIP3    H222685   1.264   1.945   1.327 -1.5368  0.3217  1.8144
  376TIP3   OH222686   0.877   2.868   0.873 -0.5744  0.0975 -0.2206
  376TIP3    H122687   0.917   2.826   0.797  0.6850 -0.2451  0.5999
  376TIP3    H222688   0.801   2.814   0.893 -0.2334 -0.5054 -0.5187
  377TIP3   OH222689   3.798   4.147   6.971 -0.4141 -0.5967 -0.0869
  377TIP3    H122690   3.749   4.158   6.890  0.7095 -1.0901 -0.8486
  377TIP3    H222691   3.887   4.174   6.950  0.0064 -1.1801  0.8527
  378TIP3   OH222692   0.989   6.136   0.848  0.3785 -0.0716  0.2286
  378TIP3    H122693   1.070   6.094   0.819  0.0570 -0.8249  0.3873
  378TIP3    H222694   0.949   6.169   0.768  1.3603  1.2827  0.2638
  379TIP3   OH222695   4.230   6.386   6.844  0.2990  0.7785  0.4438
  379TIP3    H122696   4.146   6.357   6.880  1.0279  0.5252  2.0186
  379TIP3    H222697   4.287   6.395   6.920  1.8566  0.4634 -0.6323
  380TIP3   OH222698   1.166   2.636   0.526 -0.7116  0.0446  0.2454
  380TIP3    H122699   1.077   2.629   0.491 -1.3209 -0.0959  1.7042
  380TIP3    H222700   1.207   2.552   0.504 -0.6826  0.3770 -1.0446
  381TIP3   OH222701   3.183   2.989   1.284  0.2177  0.2848  0.5470
  381TIP3    H122702   3.165   3.076   1.248  2.0463  1.3514  1.9820
  381TIP3    H222703   3.269   2.966   1.249  0.1235 -0.5737  0.8547
  382TIP3   OH222704   4.674   2.424   0.500  0.4559 -0.5031 -0.0601
  382TIP3    H122705   4.622   2.411   0.579  0.7184 -0.4471  0.1217
  382TIP3    H222706   4.622   2.385   0.430 -0.4019  0.6291 -0.0837
  383TIP3   OH222707   4.394   2.433   0.156  0.0538 -0.6414 -0.0668
  383TIP3    H122708   4.364   2.519   0.184  0.5477 -0.7417  0.8404
  383TIP3    H222709   4.433   2.448   0.070 -1.9078 -0.3978 -0.9645
  384TIP3   OH222710   3.575   4.190   8.641 -0.1024  0.1120 -0.0602
  384TIP3    H122711   3.579   4.173   8.735  3.1627 -2.6211 -0.4711
  384TIP3    H222712   3.515   4.124   8.607 -0.1242  0.1179 -0.0325
  385TIP3   OH222713   5.668   0.375   0.834  0.0129 -0.6445  0.3822
  385TIP3    H122714   5.677   0.470   0.846  0.1735 -0.6317  0.1711
  385TIP3    H222715   5.750   0.349   0.791 -0.4658 -0.7084 -0.5315
  386TIP3   OH222716   1.152   5.988   0.697  0.1171 -0.4334 -0.1183
  386TIP3    H122717   1.096   5.915   0.722 -1.9901  0.8706 -0.6896
  386TIP3    H222718   1.138   5.998   0.603 -2.2470  2.5786  0.3824
  387TIP3   OH222719   3.979   1.856   6.820  0.3638  0.1037 -0.4196
  387TIP3    H122720   3.957   1.930   6.763  1.8382  0.2106 -0.8968
  387TIP3    H222721   3.912   1.790   6.800 -0.2109  0.8217 -0.9323
  388TIP3   OH222722   5.210   4.473   1.958 -0.4910  0.4521 -0.4200
  388TIP3    H122723   5.204   4.486   2.053  1.2482  1.0849 -0.3681
  388TIP3    H222724   5.304   4.464   1.941 -0.7090  1.1240 -2.1798
  389TIP3   OH222725   5.277   5.335   1.354 -0.4771  0.4101 -0.2322
  389TIP3    H122726   5.338   5.263   1.369  0.6674  0.4222 -3.9119
  389TIP3    H222727   5.317   5.411   1.398  0.4336 -0.2834  0.1591
  390TIP3   OH222728   6.678   2.052   0.949 -0.2781 -0.0904 -0.1047
  390TIP3    H122729   6.601   2.110   0.942 -1.3008 -1.5594 -2.6131
  390TIP3    H222730   6.753   2.111   0.938 -1.1376  1.1285  0.3148
  391TIP3   OH222731   5.415   2.128   1.489 -0.2492  0.6368  0.1398
  391TIP3    H122732   5.381   2.110   1.576 -0.0449 -0.3880  0.0267
  391TIP3    H222733   5.474   2.054   1.470 -0.3252  0.8111 -0.8719
  392TIP3   OH222734   2.596   5.126   1.510  0.0879 -0.2504  0.3732
  392TIP3    H122735   2.522   5.169   1.468 -0.9949 -0.4721  1.9433
  392TIP3    H222736   2.660   5.196   1.526  1.3193 -0.4218 -3.0454
  393TIP3   OH222737   4.637   6.071   6.373 -0.0091 -0.0844  0.1091
  393TIP3    H122738   4.682   5.999   6.417  0.4885  0.4547  0.4752
  393TIP3    H222739   4.565   6.094   6.431 -1.0148 -1.1898 -0.6433
  394TIP3   OH222740   3.133   5.730   0.400  0.4627  0.1188 -0.5209
  394TIP3    H122741   3.059   5.776   0.439  0.1438 -0.9578  0.1700
  394TIP3    H222742   3.197   5.800   0.381  0.5970  0.7179  1.8524
  395TIP3   OH222743   0.949   2.225   6.702  0.3084 -0.1382 -0.0998
  395TIP3    H122744   0.959   2.143   6.653  3.4115 -1.3237  2.2108
  395TIP3    H222745   0.858   2.223   6.732 -0.3230 -1.5970 -1.9298
  396TIP3   OH222746   2.019   1.300   7.082 -0.4248 -0.3292  0.4837
  396TIP3    H122747   2.025   1.206   7.063 -0.7597 -0.7114  2.0595
  396TIP3    H222748   1.965   1.304   7.161  0.2261  1.1407  0.8787
  397TIP3   OH222749   3.127   1.535   0.632 -0.0602 -0.3467  0.5410
  397TIP3    H122750   3.175   1.610   0.666 -0.5852  0.0247  0.4821
  397TIP3    H222751   3.186   1.461   0.643  0.3167  0.0109  0.9508
  398TIP3   OH222752   3.274   1.592   7.633 -0.6468  0.2381 -0.0852
  398TIP3    H122753   3.279   1.498   7.611 -0.7694  0.2292 -0.0751
  398TIP3    H222754   3.188   1.603   7.672  0.5693 -0.2881  3.0127
  399TIP3   OH222755   5.461   1.090   6.944  0.5539 -0.5142  0.2206
  399TIP3    H122756   5.367   1.107   6.940  0.7070  0.2487 -0.3262
  399TIP3    H222757   5.482   1.048   6.860  0.8141 -0.0832  0.0669
  400TIP3   OH222758   1.575   1.753   0.269  0.5873 -0.3134  0.5929
  400TIP3    H122759   1.531   1.744   0.353 -1.4491  0.3150 -0.3438
  400TIP3    H222760   1.643   1.818   0.284 -0.7084  0.8969  1.4333
  401TIP3   OH222761   1.187   4.151   2.004  0.4991 -0.1010 -0.2572
  401TIP3    H122762   1.157   4.153   2.095  2.8468 -0.5171  0.5896
  401TIP3    H222763   1.214   4.060   1.989 -1.3916 -0.4710 -1.9736
  402TIP3   OH222764   6.652   2.536   8.405 -0.1194 -0.1298  0.1672
  402TIP3    H122765   6.600   2.613   8.428 -2.2455 -1.4230 -0.0143
  402TIP3    H222766   6.650   2.534   8.309 -1.0975 -1.0161  0.1843
  403TIP3   OH222767   0.802   6.597   0.408  0.4289  0.5336  0.0750
  403TIP3    H122768   0.803   6.680   0.454  0.8436  1.0572 -0.8516
  403TIP3    H222769   0.891   6.562   0.416 -0.1729 -0.7137  1.9832
  404TIP3   OH222770   3.356   3.223   7.187 -0.0322  0.1262  0.1464
  404TIP3    H122771   3.409   3.242   7.264 -0.1498 -1.4181  0.6462
  404TIP3    H222772   3.307   3.303   7.171 -0.9781  0.0748  2.4729
  405TIP3   OH222773   1.565   0.548   8.577  0.0683 -0.4015  0.3873
  405TIP3    H122774   1.606   0.477   8.627 -2.9861 -1.7983  1.1326
  405TIP3    H222775   1.559   0.514   8.488  1.7811  0.4552 -0.1201
  406TIP3   OH222776   6.488   4.179   6.676 -0.2266  0.8932 -0.5869
  406TIP3    H122777   6.406   4.224   6.656 -0.2958  0.6514 -0.8675
  406TIP3    H222778   6.533   4.173   6.591  0.4082  1.6595 -0.3155
  407TIP3   OH222779   1.058   0.334   0.524  0.2935 -0.0119  0.3566
  407TIP3    H122780   1.057   0.421   0.485  1.5376 -0.0525  0.2099
  407TIP3    H222781   0.978   0.292   0.490 -0.3602  1.0777  0.5035
  408TIP3   OH222782   5.403   1.544   1.064 -0.1159 -0.1810  0.0233
  408TIP3    H122783   5.399   1.486   0.987 -0.0187 -0.9767  0.5977
  408TIP3    H222784   5.372   1.489   1.136  0.8834  0.1869  0.7603
  409TIP3   OH222785   6.191   4.159   0.128 -0.4903 -0.3430 -0.3896
  409TIP3    H122786   6.178   4.068   0.153  1.4349 -0.1137  1.7531
  409TIP3    H222787   6.256   4.157   0.059 -1.1938 -0.6239 -1.0558
  410TIP3   OH222788   5.454   2.240   0.826 -0.2133  0.1014 -0.4255
  410TIP3    H122789   5.548   2.260   0.823  0.3169 -2.0277  0.1277
  410TIP3    H222790   5.411   2.324   0.809  1.7771  1.2077 -0.3163
  411TIP3   OH222791   4.689   5.551   0.384 -0.0535 -0.1498 -0.1418
  411TIP3    H122792   4.753   5.479   0.385  0.1697  0.0476 -0.0574
  411TIP3    H222793   4.632   5.534   0.458  0.9560  0.6062  0.8555
  412TIP3   OH222794   3.967   3.128   0.313 -0.6834 -0.0775 -0.1060
  412TIP3    H122795   3.891   3.186   0.315 -0.4944  0.1538  1.4085
  412TIP3    H222796   3.935   3.048   0.272 -1.0108  0.9764 -1.9938
  413TIP3   OH222797   1.100   4.265   0.755  0.4276  0.0882 -0.3120
  413TIP3    H122798   1.192   4.280   0.734  1.1611 -0.4250  2.2067
  413TIP3    H222799   1.100   4.186   0.809 -1.3229  0.8089  0.8320
  414TIP3   OH222800   6.147   3.003   1.173  0.2302 -0.1581  0.1527
  414TIP3    H122801   6.210   3.063   1.214 -0.1966 -0.1497  0.8232
  414TIP3    H222802   6.179   2.992   1.084  1.0238  0.0692  0.3934
  415TIP3   OH222803   1.297   5.205   2.592  0.0559  0.0584 -0.2094
  415TIP3    H122804   1.204   5.181   2.594 -0.7777  2.8278 -0.5716
  415TIP3    H222805   1.321   5.197   2.500  0.5334 -1.7145  0.0438
  416TIP3   OH222806   2.915   6.030   1.401 -0.6703 -0.3294  0.4082
  416TIP3    H122807   2.939   5.953   1.452  1.0238 -0.7772 -1.0111
  416TIP3    H222808   2.889   5.996   1.316 -2.1326  0.5255  0.4716
  417TIP3   OH222809   5.159   4.547   0.725  0.3071  0.3631  0.5570
  417TIP3    H122810   5.220   4.537   0.799 -0.7525 -0.2293  1.3757
  417TIP3    H222811   5.073   4.552   0.766 -0.3346 -0.3533 -0.6687
  418TIP3   OH222812   2.123   5.088   0.315  0.2278 -0.4833 -0.7435
  418TIP3    H122813   2.157   5.028   0.381  1.5517  0.2466 -0.7241
  418TIP3    H222814   2.042   5.122   0.354  0.8832 -0.2092  0.4375
  419TIP3   OH222815   5.451   5.454   0.431  0.1137 -0.0281 -0.2006
  419TIP3    H122816   5.501   5.406   0.364  0.8176  0.1137  0.2094
  419TIP3    H222817   5.517   5.504   0.478 -0.7116  2.3301 -1.3811
  420TIP3   OH222818   3.095   4.745   8.586 -0.5615  0.3633 -0.0820
  420TIP3    H122819   3.100   4.804   8.511 -1.4001  1.6979  0.8853
  420TIP3    H222820   3.088   4.802   8.662  1.5853 -0.9131  1.1830
  421TIP3   OH222821   3.576   5.664   0.985  0.4758 -0.1264  0.2169
  421TIP3    H122822   3.520   5.680   1.062 -1.5511  1.3473 -1.4519
  421TIP3    H222823   3.643   5.732   0.991 -1.0773  1.5619 -0.4787
  422TIP3   OH222824   3.309   5.888   0.914 -0.6248 -0.0854  0.0240
  422TIP3    H122825   3.328   5.811   0.861 -0.8999  0.6340 -1.1562
  422TIP3    H222826   3.315   5.857   1.005  2.4526 -0.7949 -0.3054
  423TIP3   OH222827   4.437   6.388   0.292 -0.2071  0.2865  0.2517
  423TIP3    H122828   4.430   6.369   0.385  0.0218 -1.7435 -0.0854
  423TIP3    H222829   4.419   6.304   0.249 -1.1825  1.3627 -1.5747
  424TIP3   OH222830   0.869   6.660   7.692  0.3020 -0.6315 -0.1536
  424TIP3    H122831   0.927   6.589   7.664  1.0652  0.4275 -1.3687
  424TIP3    H222832   0.862   6.717   7.615 -1.5102 -0.1691  0.3052
  425TIP3   OH222833   0.872   1.558   1.132  0.1126  0.0818  0.0194
  425TIP3    H122834   0.877   1.480   1.188  0.3013  0.2851  0.2894
  425TIP3    H222835   0.780   1.562   1.107 -0.3163  0.8486  1.5856
  426TIP3   OH222836   0.289   6.443   1.718 -0.4163  0.7559  0.0136
  426TIP3    H122837   0.280   6.359   1.674  1.1786 -0.1139  1.2602
  426TIP3    H222838   0.216   6.495   1.685 -1.3085 -1.0295 -0.9594
  427TIP3   OH222839   4.651   3.184   8.659  0.4177 -0.0221  0.1635
  427TIP3    H122840   4.607   3.151   8.737 -1.0852 -1.8087 -1.3505
  427TIP3    H222841   4.595   3.256   8.629 -0.6764 -1.2708 -0.8819
  428TIP3   OH222842   6.447   0.260   6.703  0.4414 -0.6739  0.0915
  428TIP3    H122843   6.462   0.311   6.624  3.0478 -1.2354  0.1248
  428TIP3    H222844   6.479   0.172   6.681 -0.5368 -1.3338  1.1863
  429TIP3   OH222845   4.471   1.963   0.330 -0.5474 -0.0420  0.0064
  429TIP3    H122846   4.394   2.002   0.372  0.5056  0.6677  1.3394
  429TIP3    H222847   4.492   2.023   0.258  1.4943  2.4245  2.4677
  430TIP3   OH222848   3.822   2.841   0.982  0.1414  0.1166 -0.4629
  430TIP3    H122849   3.741   2.792   0.971  1.1369 -1.9543  0.7819
  430TIP3    H222850   3.885   2.797   0.925  1.6092 -1.5941  2.2379
  431TIP3   OH222851   4.259   1.199   1.258 -0.1885 -0.2297  0.3481
  431TIP3    H122852   4.312   1.219   1.335 -0.1631 -0.6536  0.4420
  431TIP3    H222853   4.171   1.228   1.281 -0.5978 -2.0860  1.2921
  432TIP3   OH222854   3.077   3.753   0.493  0.1292  0.3606  0.0080
  432TIP3    H122855   3.072   3.732   0.586 -0.6071 -1.2923 -0.3632
  432TIP3    H222856   3.125   3.835   0.489  1.6727 -0.4064  1.7222
  433TIP3   OH222857   6.080   1.812   7.091  0.5147  0.4094  0.3232
  433TIP3    H122858   5.995   1.782   7.123  0.9653  0.5474  1.7534
  433TIP3    H222859   6.082   1.905   7.114  1.8578 -0.0313  2.2813
  434TIP3   OH222860   2.756   1.166   7.170  0.2322 -0.0454  0.0073
  434TIP3    H122861   2.740   1.188   7.078  0.1416 -1.7951 -0.4313
  434TIP3    H222862   2.815   1.236   7.201 -1.1601  1.5790 -0.8330
  435TIP3   OH222863   3.603   0.301   0.006  0.0907 -0.2977 -0.4493
  435TIP3    H122864   3.618   0.362  -0.065 -2.7757 -0.0004 -0.9168
  435TIP3    H222865   3.656   0.334   0.078  3.5377 -0.9389 -2.4908
  436TIP3   OH222866   1.064   5.406   7.346 -0.6657 -0.3485  0.0478
  436TIP3    H122867   1.064   5.341   7.276  1.4551 -1.1396  0.7001
  436TIP3    H222868   1.154   5.440   7.347 -1.4331  1.7877  0.4677
  437TIP3   OH222869   5.467   4.204   7.890 -0.5619  0.1455 -0.1403
  437TIP3    H122870   5.405   4.263   7.847 -0.7988  0.0926  0.1253
  437TIP3    H222871   5.553   4.235   7.861 -0.7104  0.2393 -0.4845
  438TIP3   OH222872   1.852   1.068   1.829  0.0934  0.1132 -0.1686
  438TIP3    H122873   1.857   1.042   1.921 -0.2861 -0.5357 -0.3329
  438TIP3    H222874   1.795   1.145   1.829  0.2751  0.2486  0.1670
  439TIP3   OH222875   4.797   2.495   8.367 -0.3330 -0.8055  0.2913
  439TIP3    H122876   4.766   2.582   8.341  1.2246  0.0180  1.0374
  439TIP3    H222877   4.807   2.501   8.462  3.1467 -0.5972  0.0086
  440TIP3   OH222878   0.220   5.151   6.888  0.3595 -0.0597 -0.2050
  440TIP3    H122879   0.234   5.058   6.872  2.2763 -0.1953  1.6816
  440TIP3    H222880   0.297   5.194   6.850 -0.3487  0.7170 -0.7758
  441TIP3   OH222881   4.037   3.326   5.969 -0.0540 -0.2699  0.5674
  441TIP3    H122882   4.094   3.261   6.010  2.1675  1.4852  0.4763
  441TIP3    H222883   4.037   3.399   6.031 -0.2761  0.6752 -0.5242
  442TIP3   OH222884   3.169   1.157   2.063 -0.0643 -0.3581 -0.1263
  442TIP3    H122885   3.246   1.101   2.069  0.3951  0.0238 -1.8897
  442TIP3    H222886   3.099   1.106   2.103  0.6602 -1.5830 -0.3679
  443TIP3   OH222887   6.446   1.909   6.737  0.0773 -0.4317 -0.0230
  443TIP3    H122888   6.419   1.833   6.789 -1.1682 -0.3753 -0.5608
  443TIP3    H222889   6.539   1.919   6.756 -0.0112 -1.3635  0.9795
  444TIP3   OH222890   1.828   4.066   1.761 -0.8694  0.3342 -0.2109
  444TIP3    H122891   1.778   4.128   1.814 -0.9290 -1.1162  1.4960
  444TIP3    H222892   1.783   3.983   1.771 -0.3235 -0.2008 -1.8023
  445TIP3   OH222893   1.549   0.571   7.788  0.1695  0.2878  0.0359
  445TIP3    H122894   1.523   0.504   7.851 -0.9522  1.0247  0.3917
  445TIP3    H222895   1.645   0.569   7.789  0.1602 -1.3543 -0.0332
  446TIP3   OH222896   3.478   3.558   1.129 -0.4001  0.0611 -0.2390
  446TIP3    H122897   3.566   3.535   1.160 -1.5014 -0.9935  2.4870
  446TIP3    H222898   3.438   3.602   1.204 -2.9848 -1.7590 -0.4117
  447TIP3   OH222899   5.764   2.217   1.084 -0.6424  0.3334 -0.3177
  447TIP3    H122900   5.850   2.184   1.108  0.2238  2.2575 -0.5838
  447TIP3    H222901   5.720   2.142   1.044  0.3991 -1.0393  0.9848
  448TIP3   OH222902   2.026   4.335   0.444  0.3865 -0.1396 -0.4701
  448TIP3    H122903   2.058   4.245   0.439 -2.2179 -1.0976 -1.5192
  448TIP3    H222904   2.057   4.377   0.364 -0.6412 -0.9555 -1.3215
  449TIP3   OH222905   3.966   4.765   0.156 -0.1424  0.5635 -0.9520
  449TIP3    H122906   3.893   4.812   0.196 -0.6389  0.7572 -2.0648
  449TIP3    H222907   3.982   4.811   0.074 -0.2145 -0.8054 -1.7563
  450TIP3   OH222908   0.649   2.640   7.932 -0.6662  0.0004 -0.3564
  450TIP3    H122909   0.606   2.555   7.942 -0.2971  0.0233  1.8018
  450TIP3    H222910   0.743   2.620   7.935 -0.4618  0.1876 -2.9821
  451TIP3   OH222911   1.048   5.233   0.419  0.0573 -0.1755  0.2229
  451TIP3    H122912   1.118   5.261   0.359 -0.9133  0.2651 -0.7434
  451TIP3    H222913   1.037   5.140   0.400 -0.7185  0.1096 -0.8167
  452TIP3   OH222914   1.589   4.659   1.800  0.0254 -0.0073  0.5408
  452TIP3    H122915   1.553   4.740   1.837  0.4546  0.2666  0.3687
  452TIP3    H222916   1.618   4.609   1.876  0.1797  0.2033  0.6215
  453TIP3   OH222917   6.742   2.490   1.573 -0.9293  0.2459 -0.4102
  453TIP3    H122918   6.757   2.565   1.631 -0.5005 -0.1280 -0.0357
  453TIP3    H222919   6.649   2.469   1.585 -1.2805  1.2694 -1.1872
  454TIP3   OH222920   1.395   3.291   6.498 -0.7775  0.2808  0.2800
  454TIP3    H122921   1.446   3.211   6.486 -0.7771  0.2500  0.4828
  454TIP3    H222922   1.461   3.359   6.517 -0.5187  0.8804 -2.3809
  455TIP3   OH222923   2.180   5.046   2.327 -0.0461  0.4443 -0.0370
  455TIP3    H122924   2.271   5.052   2.355 -0.4842  0.1664  1.5478
  455TIP3    H222925   2.180   5.079   2.237  1.9806 -1.5659 -0.8739
  456TIP3   OH222926   4.187   4.842   2.138 -0.4946  0.5452 -0.0294
  456TIP3    H122927   4.166   4.914   2.197 -1.4022 -0.1750  0.5463
  456TIP3    H222928   4.265   4.801   2.175 -1.3556 -0.2217  0.9851
  457TIP3   OH222929   6.783   5.796   0.068 -0.4876 -0.2659 -0.0907
  457TIP3    H122930   6.822   5.717   0.106 -0.3863 -0.3302 -0.3250
  457TIP3    H222931   6.689   5.783   0.079 -0.5254 -0.8840 -1.0177
  458TIP3   OH222932   3.184   4.091   0.084  0.3913  0.3942 -0.2955
  458TIP3    H122933   3.245   4.033   0.040 -1.3141 -2.1776  0.4914
  458TIP3    H222934   3.169   4.162   0.021  2.6920  0.1374 -1.2299
  459TIP3   OH222935   6.826   5.201   7.711  0.1344 -0.3944  0.1528
  459TIP3    H122936   6.794   5.290   7.700 -0.5859 -0.7821 -1.1249
  459TIP3    H222937   6.825   5.186   7.805  0.5756  1.0476  0.4148
  460TIP3   OH222938   3.966   6.219   0.447 -0.3160 -0.5430 -0.1857
  460TIP3    H122939   3.954   6.233   0.353 -0.0604 -1.6743 -0.4044
  460TIP3    H222940   3.883   6.182   0.477 -0.6707  0.5471  0.1956
  461TIP3   OH222941   2.334   6.636   2.076  0.1567  0.1178 -0.4206
  461TIP3    H122942   2.398   6.565   2.070  1.0442  0.7831  0.7749
  461TIP3    H222943   2.256   6.602   2.031  1.1474 -0.9264 -1.3983
  462TIP3   OH222944   1.748   4.497   8.069 -0.2005  0.1175 -0.3876
  462TIP3    H122945   1.785   4.564   8.126  1.4312  0.8415 -2.2000
  462TIP3    H222946   1.653   4.509   8.077 -0.0021  0.9177  1.2471
  463TIP3   OH222947   4.252   6.227   7.151 -0.2290  0.4282  0.7975
  463TIP3    H122948   4.308   6.288   7.104 -2.9959  0.9214 -2.1740
  463TIP3    H222949   4.264   6.143   7.105 -2.6637  0.8165 -0.6773
  464TIP3   OH222950   0.600   5.650   0.805 -0.1679  0.2204 -0.4152
  464TIP3    H122951   0.685   5.654   0.761  0.2267  0.4738  0.3444
  464TIP3    H222952   0.622   5.643   0.898 -0.9490  3.3955  0.1109
  465TIP3   OH222953   2.143   5.634   0.348  0.1174 -0.2495 -0.2167
  465TIP3    H122954   2.118   5.659   0.259 -0.5475 -1.5587 -0.4242
  465TIP3    H222955   2.170   5.715   0.389  1.0356  0.2886 -1.8041
  466TIP3   OH222956   6.002   4.535   0.497  0.3296 -0.5177  0.3296
  466TIP3    H122957   6.064   4.512   0.566 -0.5341 -1.8826  0.7021
  466TIP3    H222958   5.933   4.469   0.504 -1.0373  0.7756 -0.2384
  467TIP3   OH222959   6.433   6.189   1.087  0.3770  0.4189  0.0689
  467TIP3    H122960   6.509   6.131   1.085  0.2715  0.2901 -1.4922
  467TIP3    H222961   6.366   6.143   1.036 -0.9823  0.2579  1.9110
  468TIP3   OH222962   2.882   2.810   2.001  0.1245  0.3940 -0.1187
  468TIP3    H122963   2.941   2.847   2.067  2.6433 -0.5125 -1.7194
  468TIP3    H222964   2.921   2.725   1.980 -0.8143  0.4787 -2.4606
  469TIP3   OH222965   0.301   3.770   1.626 -0.3464  0.3463 -0.5057
  469TIP3    H122966   0.255   3.845   1.589 -0.4866 -0.0391 -1.1365
  469TIP3    H222967   0.306   3.707   1.554  0.6006  0.1222 -0.2573
  470TIP3   OH222968   3.986   4.819   0.821  0.1213 -0.0697 -0.7106
  470TIP3    H122969   4.043   4.782   0.888 -2.3784  1.3713  2.4742
  470TIP3    H222970   3.994   4.759   0.747  1.4075 -3.0422  1.6425
  471TIP3   OH222971   6.604   0.909   0.444  0.0141 -0.0400 -0.2880
  471TIP3    H122972   6.538   0.978   0.447 -0.6258 -0.6327 -0.4903
  471TIP3    H222973   6.620   0.895   0.351  0.8480  0.4904 -0.2325
  472TIP3   OH222974   0.158   2.261   1.390  0.4046  0.9047  0.2670
  472TIP3    H122975   0.165   2.311   1.309  0.7304  0.8664  0.2688
  472TIP3    H222976   0.089   2.197   1.373 -0.4585  1.7445  0.4743
  473TIP3   OH222977   6.350   2.887   0.835 -0.6240  0.1841 -0.2913
  473TIP3    H122978   6.373   2.817   0.897 -1.7554  1.0408  1.1641
  473TIP3    H222979   6.412   2.957   0.854 -1.2197  0.5981  0.1779
  474TIP3   OH222980   1.851   0.679   6.639  0.0204 -0.1810 -0.6535
  474TIP3    H122981   1.867   0.773   6.630 -2.4808  0.3625 -0.3503
  474TIP3    H222982   1.822   0.669   6.730  0.0577 -1.1969 -0.7431
  475TIP3   OH222983   6.271   1.223   8.092 -0.1247  0.0405 -0.6539
  475TIP3    H122984   6.292   1.245   8.002 -1.7619  0.8024 -0.8991
  475TIP3    H222985   6.313   1.139   8.108  2.0754  0.9445 -1.3641
  476TIP3   OH222986   2.338   1.425   7.199  0.4536  0.4424  0.2726
  476TIP3    H122987   2.245   1.415   7.219  0.5142  1.6163  1.3179
  476TIP3    H222988   2.344   1.415   7.104 -0.4381 -1.5599  0.3880
  477TIP3   OH222989   0.190   6.158   8.095 -0.2359  0.1298 -0.1193
  477TIP3    H122990   0.166   6.192   8.009  3.8304 -0.2604 -1.6166
  477TIP3    H222991   0.207   6.235   8.148  0.0109  0.4076 -0.5951
  478TIP3   OH222992   2.148   2.427   2.477 -0.2562 -0.1784 -0.3502
  478TIP3    H122993   2.149   2.484   2.554  0.1329 -0.5124 -0.1023
  478TIP3    H222994   2.057   2.428   2.448 -0.3344  0.2429 -0.1082
  479TIP3   OH222995   0.703   2.302   1.384 -0.2892 -0.4304  0.2419
  479TIP3    H122996   0.682   2.394   1.398 -0.3900 -0.4506  0.2183
  479TIP3    H222997   0.619   2.257   1.386 -0.6321 -0.1273 -3.0141
  480TIP3   OH222998   0.980   3.599   8.653 -0.1718 -0.1780 -0.1254
  480TIP3    H122999   1.071   3.572   8.650 -0.0688  0.0662  0.4985
  480TIP3    H223000   0.983   3.695   8.654 -0.5471 -0.0728 -2.8240
  481TIP3   OH223001   1.260   5.904   7.203  0.7371  0.4185 -0.1057
  481TIP3    H123002   1.216   5.989   7.207 -0.8558 -0.3504 -0.5282
  481TIP3    H223003   1.352   5.924   7.220  0.2229  2.0770  0.9676
  482TIP3   OH223004   0.339   1.283   7.877 -0.2671 -0.5806 -0.4172
  482TIP3    H123005   0.349   1.366   7.924 -1.2708  0.0076 -1.2085
  482TIP3    H223006   0.341   1.216   7.945  1.7920 -0.0427  0.1397
  483TIP3   OH223007   0.432   4.333   7.761 -0.7956 -0.3474 -0.1823
  483TIP3    H123008   0.343   4.329   7.796 -0.3242 -2.0448  0.9935
  483TIP3    H223009   0.425   4.295   7.673 -1.0820 -1.6092  0.3551
  484TIP3   OH223010   5.759   3.614   7.100  0.0015 -0.1577 -0.2780
  484TIP3    H123011   5.771   3.669   7.023  0.8141  1.1661  0.7490
  484TIP3    H223012   5.829   3.640   7.160 -0.1704 -1.6514  0.6403
  485TIP3   OH223013   2.979   0.396   0.716 -0.5947 -0.0191 -0.1499
  485TIP3    H123014   3.072   0.374   0.725 -0.7741 -1.2281 -1.0268
  485TIP3    H223015   2.980   0.486   0.683  0.2819 -0.0849 -0.3548
  486TIP3   OH223016   0.769   0.715   1.832 -0.3715  0.1480 -0.2764
  486TIP3    H123017   0.843   0.763   1.866 -0.1987 -0.2902 -0.0244
  486TIP3    H223018   0.786   0.624   1.856  0.3135 -0.3552 -2.4677
  487TIP3   OH223019   3.740   3.036   1.928 -0.4759 -0.0999  0.1918
  487TIP3    H123020   3.811   2.977   1.901 -0.7502 -0.0394 -0.6760
  487TIP3    H223021   3.672   2.978   1.961  0.4350 -0.1119  2.2315
  488TIP3   OH223022   6.182   6.833   7.339 -0.2141  0.2808 -0.1491
  488TIP3    H123023   6.092   6.804   7.331  0.1838 -0.9556 -0.3871
  488TIP3    H223024   6.190   6.904   7.276 -1.3316  1.2298  0.7405
  489TIP3   OH223025   0.403   1.942   7.068 -0.1478 -0.1846 -0.6119
  489TIP3    H123026   0.427   1.993   6.991 -1.2957  0.4402 -0.5833
  489TIP3    H223027   0.336   1.882   7.036  0.8514 -1.3660 -0.5363
  490TIP3   OH223028   4.652   1.246   8.684  0.0990 -0.4795 -0.1816
  490TIP3    H123029   4.740   1.221   8.711 -0.3074 -0.3285  1.4087
  490TIP3    H223030   4.650   1.231   8.590  1.5637 -1.2495 -0.1159
  491TIP3   OH223031   1.942   4.393   7.529  0.6684  0.3004  0.6224
  491TIP3    H123032   1.875   4.365   7.466  1.0581  1.3110 -0.2875
  491TIP3    H223033   1.903   4.377   7.615  0.6955 -2.5327  0.1930
  492TIP3   OH223034   2.336   6.437   7.177 -0.1147  0.5862  0.1520
  492TIP3    H123035   2.413   6.380   7.186  1.4176  2.4660 -0.4644
  492TIP3    H223036   2.300   6.442   7.266 -0.9122 -2.0799  0.0637
  493TIP3   OH223037   5.240   1.813   0.803  0.2353  0.7125  0.0785
  493TIP3    H123038   5.305   1.840   0.868  1.0129 -1.9770  0.5295
  493TIP3    H223039   5.195   1.894   0.779  0.7625  1.9966  3.0326
  494TIP3   OH223040   0.952   0.732   7.889  0.2886 -0.1292  0.1698
  494TIP3    H123041   1.012   0.796   7.852 -1.6550  1.8018  0.1616
  494TIP3    H223042   0.991   0.709   7.974  0.5497  1.8710  0.6394
  495TIP3   OH223043   6.094   3.444   7.241 -0.1087  0.3053 -0.5175
  495TIP3    H123044   6.175   3.492   7.262  0.0272  0.5538 -1.5272
  495TIP3    H223045   6.024   3.506   7.261 -0.0906 -0.0642  0.7762
  496TIP3   OH223046   1.094   2.097   7.210  0.9688 -0.2095  0.6873
  496TIP3    H123047   1.048   2.174   7.242  1.8809 -0.2020  2.0431
  496TIP3    H223048   1.174   2.131   7.171  1.0897 -0.4249  0.7442
  497TIP3   OH223049   6.688   6.821   0.789 -0.0984  0.1766  0.1059
  497TIP3    H123050   6.615   6.760   0.799 -0.8745  1.2448  1.1729
  497TIP3    H223051   6.647   6.907   0.786  1.0168  0.6909 -0.9668
  498TIP3   OH223052   6.747   6.259   6.911  0.2371 -0.2803 -0.2542
  498TIP3    H123053   6.784   6.344   6.933 -0.1300 -0.2387  0.2311
  498TIP3    H223054   6.745   6.258   6.816 -1.2378  0.9287 -0.2789
  499TIP3   OH223055   5.525   1.207   7.188 -0.3836 -0.2970 -0.4981
  499TIP3    H123056   5.497   1.200   7.097  0.0395 -2.2510 -0.5196
  499TIP3    H223057   5.456   1.163   7.238  0.3612 -1.0492 -0.1022
  500TIP3   OH223058   2.617   3.364   1.648  0.3018  0.2356  0.6744
  500TIP3    H123059   2.638   3.452   1.618  0.4471  0.4190  1.2963
  500TIP3    H223060   2.647   3.306   1.577 -0.0931  0.7007  0.1225
  501TIP3   OH223061   3.248   4.936   0.353  0.1792  0.3729  0.6136
  501TIP3    H123062   3.177   4.963   0.411 -1.0660 -0.5535 -0.4230
  501TIP3    H223063   3.222   4.850   0.320  0.7510  0.8950 -1.3863
  502TIP3   OH223064   5.607   1.290   0.540  0.2883 -0.5642 -0.4282
  502TIP3    H123065   5.531   1.233   0.525 -1.2568  0.9805  1.0741
  502TIP3    H223066   5.582   1.374   0.502  2.2271 -0.5730 -1.9239
  503TIP3   OH223067   0.097   4.899   8.695 -0.3995 -0.1184 -0.0706
  503TIP3    H123068   0.012   4.898   8.738 -1.0306 -0.2043 -1.2638
  503TIP3    H223069   0.127   4.808   8.698 -0.5981 -0.1855 -0.1251
  504TIP3   OH223070   0.342   4.686   7.302  0.2319  0.4969 -0.1569
  504TIP3    H123071   0.248   4.695   7.315 -0.1928 -2.1305 -0.8438
  504TIP3    H223072   0.351   4.632   7.224  2.2989  0.2755  0.1681
  505TIP3   OH223073   0.260   2.396   7.718  0.0890  0.3565  0.2322
  505TIP3    H123074   0.238   2.304   7.708 -1.0161  0.7797 -1.7862
  505TIP3    H223075   0.317   2.416   7.643  2.2380  0.8121  1.8911
  506TIP3   OH223076   6.280   2.088   1.310 -0.0464 -0.2020  0.0063
  506TIP3    H123077   6.259   2.006   1.355  0.7663 -0.6514 -0.4147
  506TIP3    H223078   6.313   2.061   1.224  2.7904  0.3577  0.7959
  507TIP3   OH223079   4.279   1.583   6.055 -0.6438  0.0941 -0.1185
  507TIP3    H123080   4.222   1.547   6.124 -1.3636 -1.9330 -1.6669
  507TIP3    H223081   4.333   1.509   6.028  1.8595  1.6273  0.3324
  508TIP3   OH223082   5.540   3.658   8.251  0.3187 -0.1041  0.3202
  508TIP3    H123083   5.535   3.683   8.159 -0.8563 -1.0934  0.0817
  508TIP3    H223084   5.577   3.569   8.250  0.8221  0.0939  0.8447
  509TIP3   OH223085   4.629   1.649   8.215  0.2091  0.2583 -0.3558
  509TIP3    H123086   4.624   1.557   8.242  1.0335  0.3230  0.0264
  509TIP3    H223087   4.665   1.646   8.127 -0.4312  0.1761 -0.6184
  510TIP3   OH223088   0.475   2.843   7.890 -0.1747  0.0674 -0.0125
  510TIP3    H123089   0.528   2.764   7.898 -0.2502  0.0201  0.0235
  510TIP3    H223090   0.406   2.819   7.829  0.0622  0.2460 -0.3511
  511TIP3   OH223091   1.049   6.647   7.921  0.1822 -0.1663 -0.1429
  511TIP3    H123092   0.977   6.633   7.859  0.6103 -0.2431 -0.6251
  511TIP3    H223093   1.020   6.603   8.001 -0.2483 -0.3143 -0.3761
  512TIP3   OH223094   2.659   3.321   8.669 -0.0619 -0.0529  0.5218
  512TIP3    H123095   2.650   3.415   8.683  0.4360 -0.2390  2.3532
  512TIP3    H223096   2.738   3.312   8.616  0.8501  0.5022  1.7488
  513TIP3   OH223097   4.047   3.882   1.884  0.4120  0.0611  0.8060
  513TIP3    H123098   4.109   3.896   1.955 -0.1217  1.0536  1.0955
  513TIP3    H223099   3.965   3.856   1.927  0.6524 -1.4459  0.4163
  514TIP3   OH223100   2.423   2.062   1.438  0.2728  0.3428 -0.1736
  514TIP3    H123101   2.484   2.131   1.415  0.4725 -0.0447 -0.8084
  514TIP3    H223102   2.337   2.095   1.409  0.2552  0.6342  0.1942
  515TIP3   OH223103   2.122   4.042   1.651  0.1643 -0.0750 -0.2714
  515TIP3    H123104   2.202   4.090   1.632  0.4196  0.0237  0.9417
  515TIP3    H223105   2.149   3.971   1.710 -0.8479  0.9922  1.5911
  516TIP3   OH223106   4.896   2.846   6.878 -0.3770 -0.4908  0.2733
  516TIP3    H123107   4.829   2.780   6.857 -0.6736 -0.0498 -0.2047
  516TIP3    H223108   4.901   2.900   6.799 -0.0190 -0.0424  0.6004
  517TIP3   OH223109   3.619   0.603   7.713  0.4352 -0.4478  0.4176
  517TIP3    H123110   3.545   0.652   7.749  0.2374  0.2459 -0.8879
  517TIP3    H223111   3.614   0.617   7.619  0.8685 -2.3158  0.0677
  518TIP3   OH223112   2.909   4.707   0.632 -0.4366  0.1251  0.0970
  518TIP3    H123113   2.840   4.745   0.578  1.1870  0.6890 -1.6817
  518TIP3    H223114   2.955   4.647   0.574  2.0714  1.5609  0.4569
  519TIP3   OH223115   2.847   1.876   1.478  0.5110  0.0166  0.0033
  519TIP3    H123116   2.847   1.952   1.421 -1.4939 -0.1460 -0.2886
  519TIP3    H223117   2.754   1.856   1.492  0.9701 -2.1924  0.2950
  520TIP3   OH223118   4.704   6.741   7.922  0.3736 -0.6465  0.0606
  520TIP3    H123119   4.687   6.647   7.912  0.7044 -0.6402 -0.6259
  520TIP3    H223120   4.772   6.760   7.857 -2.7174  0.9338 -3.0673
  521TIP3   OH223121   4.669   0.611   7.668 -0.1235 -0.2661 -0.2301
  521TIP3    H123122   4.650   0.650   7.583 -0.2143  0.0721 -0.0562
  521TIP3    H223123   4.664   0.517   7.653  1.2840 -0.2522 -0.9368
  522TIP3   OH223124   5.375   5.270   8.703 -0.2578 -0.5505  0.4715
  522TIP3    H123125   5.438   5.318   8.757 -0.2911 -0.0157  0.0407
  522TIP3    H223126   5.309   5.335   8.680 -0.1369 -0.7259 -0.3803
  523TIP3   OH223127   1.942   4.593   0.518  0.8336  0.0461  0.0766
  523TIP3    H123128   2.012   4.536   0.551  0.2215  0.2055  1.7403
  523TIP3    H223129   1.898   4.624   0.597 -2.1511 -1.3035 -0.9318
  524TIP3   OH223130   1.618   0.623   0.167 -0.3147  0.1730 -0.4440
  524TIP3    H123131   1.536   0.623   0.116 -0.7824  0.1589  0.2916
  524TIP3    H223132   1.608   0.551   0.228  0.3861 -0.0139 -0.5467
  525TIP3   OH223133   6.724   5.267   7.106 -0.4626 -0.2493  0.0550
  525TIP3    H123134   6.791   5.336   7.112 -0.2292 -0.4160 -0.5350
  525TIP3    H223135   6.651   5.308   7.061  0.0817 -0.6700 -1.2584
  526TIP3   OH223136   3.052   4.989   0.534 -0.4794 -0.2519  0.5423
  526TIP3    H123137   3.013   5.058   0.588 -0.2320  0.0537  0.3309
  526TIP3    H223138   3.093   4.930   0.598 -0.6041 -0.1508  0.7180
  527TIP3   OH223139   2.571   5.461   1.737  0.0663 -0.3775  0.2513
  527TIP3    H123140   2.538   5.535   1.789 -0.0238 -1.1028  1.2680
  527TIP3    H223141   2.590   5.394   1.802  2.7149 -0.3241 -0.3727
  528TIP3   OH223142   0.038   6.286   0.452 -0.1687 -0.4121 -0.0307
  528TIP3    H123143  -0.038   6.236   0.483  1.4612 -1.3827  2.6888
  528TIP3    H223144   0.008   6.326   0.370 -3.7804 -0.2981  1.1675
  529TIP3   OH223145   4.624   2.283   8.391 -0.2715 -0.2969 -0.3741
  529TIP3    H123146   4.654   2.223   8.323 -1.0600 -0.4716 -0.5774
  529TIP3    H223147   4.691   2.351   8.395 -0.7851  0.3386 -2.1150
  530TIP3   OH223148   6.419   4.198   1.883 -0.4322  0.0977  0.2055
  530TIP3    H123149   6.357   4.171   1.951 -0.8650 -1.0399 -0.6063
  530TIP3    H223150   6.364   4.227   1.810 -0.1086 -2.1789 -1.0318
  531TIP3   OH223151   2.436   3.184   7.514  0.3660  0.1084 -0.2836
  531TIP3    H123152   2.348   3.168   7.479 -0.4186  1.5459  0.9003
  531TIP3    H223153   2.454   3.275   7.492  0.4464  0.6156  1.7005
  532TIP3   OH223154   2.002   4.701   6.369  0.2999 -0.2146  0.6782
  532TIP3    H123155   1.960   4.677   6.452 -1.0564  0.9028  0.3485
  532TIP3    H223156   2.090   4.729   6.394  0.1891 -0.6633  1.6298
  533TIP3   OH223157   5.603   0.713   1.746  0.7736 -0.7465 -0.0410
  533TIP3    H123158   5.627   0.654   1.675  0.2287  1.2004 -1.9521
  533TIP3    H223159   5.529   0.669   1.789 -0.2976 -1.0570 -2.0591
  534TIP3   OH223160   2.677   0.904   8.654  0.0050 -0.1601 -0.2068
  534TIP3    H123161   2.715   0.837   8.711 -2.5735 -1.0088  0.6487
  534TIP3    H223162   2.702   0.877   8.566  0.0231 -1.5934  0.2077
  535TIP3   OH223163   3.871   0.982   0.323  0.5982  0.1955 -0.7086
  535TIP3    H123164   3.921   1.060   0.301  0.2334  1.0932  1.3788
  535TIP3    H223165   3.786   1.015   0.353  0.1176 -1.0523 -0.6415
  536TIP3   OH223166   4.851   2.102   1.633  0.0638 -0.0618 -0.1737
  536TIP3    H123167   4.941   2.070   1.644 -0.3413 -1.6162 -1.0860
  536TIP3    H223168   4.796   2.028   1.660 -0.9557  0.8909  0.4322
  537TIP3   OH223169   1.843   4.336   8.390  0.2415 -0.1946  0.6420
  537TIP3    H123170   1.920   4.336   8.447  0.6738  0.6998  0.0688
  537TIP3    H223171   1.878   4.319   8.302 -0.0184  1.6413  0.1561
  538TIP3   OH223172   4.223   2.348   7.053  1.2039 -0.3376 -0.1142
  538TIP3    H123173   4.232   2.259   7.019  0.3144 -0.7742  0.7443
  538TIP3    H223174   4.143   2.382   7.013  0.9425 -0.3339  0.4007
  539TIP3   OH223175   5.839   4.341   8.348  0.3443 -0.1038  0.3975
  539TIP3    H123176   5.888   4.357   8.267  0.6049  1.5678  0.8390
  539TIP3    H223177   5.755   4.306   8.319  0.9166 -0.7789 -0.5100
  540TIP3   OH223178   3.454   0.061   0.942 -0.5263  0.1592 -0.1778
  540TIP3    H123179   3.516   0.076   1.013 -0.1355  0.5378 -0.5909
  540TIP3    H223180   3.370   0.047   0.986 -0.4150  1.0449  0.3373
  541TIP3   OH223181   0.390   4.842   1.974  0.1449 -0.0400 -0.5295
  541TIP3    H123182   0.362   4.752   1.959  1.0342 -0.5000  0.4935
  541TIP3    H223183   0.479   4.835   2.007  1.9742  1.3757 -4.4298
  542TIP3   OH223184   0.730   5.481   7.791  0.1431  0.1023  0.0331
  542TIP3    H123185   0.704   5.444   7.706 -0.1722 -0.2920  0.3011
  542TIP3    H223186   0.738   5.575   7.774  0.1826  0.0153 -0.4603
  543TIP3   OH223187   6.511   3.824   1.855  0.2464  0.2149 -0.2140
  543TIP3    H123188   6.504   3.913   1.821  0.0015  1.4021  2.6062
  543TIP3    H223189   6.420   3.798   1.872  0.3815 -0.1401 -0.0367
  544TIP3   OH223190   1.256   4.611   7.232  0.1295 -0.0109  0.0765
  544TIP3    H123191   1.299   4.526   7.228  0.0867  0.0006 -2.0974
  544TIP3    H223192   1.204   4.615   7.151 -1.7311  1.1315  1.2365
  545TIP3   OH223193   2.497   5.474   1.447 -0.5092  0.0460  0.3444
  545TIP3    H123194   2.562   5.431   1.392 -2.2194 -2.7137  0.3193
  545TIP3    H223195   2.530   5.460   1.536 -0.4670 -0.3034  0.2772
  546TIP3   OH223196   4.975   4.091   0.561  0.3993  0.2902 -0.2187
  546TIP3    H123197   5.047   4.154   0.565  0.5908  0.0888 -0.4221
  546TIP3    H223198   4.972   4.051   0.648 -0.1843  1.0792  0.1366
  547TIP3   OH223199   3.955   0.815   0.902 -0.1733  0.1094 -0.0248
  547TIP3    H123200   3.985   0.726   0.881 -1.7937 -0.1388 -1.4962
  547TIP3    H223201   4.003   0.838   0.981  0.2527 -2.0929  0.4294
  548TIP3   OH223202   0.751   5.271   1.494  0.1255 -0.2640 -0.6293
  548TIP3    H123203   0.767   5.291   1.402 -0.1381 -1.3919 -0.9424
  548TIP3    H223204   0.662   5.235   1.494  0.7991 -2.0175 -0.2374
  549TIP3   OH223205   1.346   0.696   6.823 -0.1167  0.4316 -0.0184
  549TIP3    H123206   1.321   0.727   6.910 -2.0320 -1.1462  0.0579
  549TIP3    H223207   1.300   0.754   6.762  1.7999  2.0095 -0.0915
  550TIP3   OH223208   5.199   1.026   7.663  0.2600  0.4749  0.2595
  550TIP3    H123209   5.263   1.097   7.656  0.9872 -0.3045 -1.7672
  550TIP3    H223210   5.199   1.003   7.756  1.6056  1.6725  0.6003
  551TIP3   OH223211   2.287   6.783   0.680  0.0936  0.5293 -0.0490
  551TIP3    H123212   2.203   6.799   0.725 -0.6515 -2.0939 -0.3345
  551TIP3    H223213   2.263   6.770   0.589  1.0423  1.3418 -0.4268
  552TIP3   OH223214   5.093   2.138   8.173  0.0880 -0.1958  0.3321
  552TIP3    H123215   5.096   2.176   8.086  1.2045 -0.3833  0.2724
  552TIP3    H223216   5.075   2.212   8.231 -1.2834 -0.1686 -0.0963
  553TIP3   OH223217   0.717   6.386   1.037  0.3861  0.3362 -0.1930
  553TIP3    H123218   0.788   6.323   1.055 -2.0483 -2.0898  1.7196
  553TIP3    H223219   0.742   6.425   0.953  3.6473 -0.8135  0.0703
  554TIP3   OH223220   5.169   1.782   1.718 -0.2953  0.4893  0.5413
  554TIP3    H123221   5.254   1.809   1.685 -0.7736  0.5699 -0.6967
  554TIP3    H223222   5.183   1.764   1.811  0.8226  1.5458  0.5978
  555TIP3   OH223223   2.514   4.315   6.391 -0.4221 -0.1081 -0.1684
  555TIP3    H123224   2.488   4.333   6.301  0.8053 -0.2599 -0.5670
  555TIP3    H223225   2.533   4.400   6.429  0.5433 -0.1568 -0.5286
  556TIP3   OH223226   2.772   0.393   7.915  0.2008  0.7369 -0.5068
  556TIP3    H123227   2.707   0.463   7.913 -0.9051 -0.2644 -2.5335
  556TIP3    H223228   2.830   0.411   7.841  0.7618  0.2737 -0.1952
  557TIP3   OH223229   4.579   6.475   8.046 -0.0150 -0.4168  0.3880
  557TIP3    H123230   4.538   6.443   7.965  0.5899 -0.2030 -0.0146
  557TIP3    H223231   4.671   6.452   8.037  0.5303  1.7027 -0.0987
  558TIP3   OH223232   3.601   2.501   1.117  0.0610  0.0201 -0.0716
  558TIP3    H123233   3.524   2.476   1.168 -0.2365 -1.7738 -1.3116
  558TIP3    H223234   3.620   2.590   1.144 -2.5941  0.6053  0.1049
  559TIP3   OH223235   3.970   3.450   8.643 -0.3012 -0.4778 -0.0319
  559TIP3    H123236   3.948   3.530   8.594  0.6195 -1.3768 -2.0132
  559TIP3    H223237   3.928   3.380   8.595 -0.9867 -1.2475  1.6204
  560TIP3   OH223238   6.508   2.165   1.470  0.5035  0.4428 -0.4121
  560TIP3    H123239   6.471   2.077   1.471  2.5332 -0.4722  0.1562
  560TIP3    H223240   6.448   2.216   1.415 -0.5966 -1.3373 -0.9544
  561TIP3   OH223241   1.058   1.206   1.701  0.7576  0.2905 -0.0420
  561TIP3    H123242   1.072   1.157   1.782 -0.7075 -2.0298 -1.0884
  561TIP3    H223243   1.004   1.149   1.647  1.2628  1.9483 -2.4944
  562TIP3   OH223244   2.148   3.702   7.847 -0.9841  0.1350  0.0764
  562TIP3    H123245   2.135   3.776   7.788 -0.9720  0.0137 -0.0798
  562TIP3    H223246   2.183   3.633   7.790 -2.4801 -0.5022 -0.0949
  563TIP3   OH223247   6.386   1.208   0.090 -0.3093  0.3668  0.1733
  563TIP3    H123248   6.333   1.136   0.055  0.4845 -1.2918  2.1888
  563TIP3    H223249   6.335   1.287   0.069 -1.7237 -0.8305 -1.1806
  564TIP3   OH223250   6.096   0.930   7.923 -0.0876  0.3771 -0.0701
  564TIP3    H123251   6.066   0.952   8.012 -0.2978  0.7590 -0.2338
  564TIP3    H223252   6.109   1.015   7.881 -0.3813  0.1958 -0.5348
  565TIP3   OH223253   3.353   0.449   7.539 -0.1546  0.4106  0.2382
  565TIP3    H123254   3.352   0.419   7.448  0.8376  0.1740  0.2870
  565TIP3    H223255   3.278   0.406   7.580  1.0983 -1.9485  0.2496
  566TIP3   OH223256   2.747   4.240   0.244  0.1903 -0.0397 -0.2743
  566TIP3    H123257   2.816   4.186   0.280 -1.0378 -1.9532 -0.6479
  566TIP3    H223258   2.718   4.295   0.317  3.0300  1.9272 -0.4811
  567TIP3   OH223259   2.316   2.399   7.794  0.2051 -0.3173 -0.3035
  567TIP3    H123260   2.386   2.344   7.760  0.2254  0.2931 -1.2811
  567TIP3    H223261   2.244   2.389   7.731 -0.4543 -0.6233  0.4697
  568TIP3   OH223262   4.127   3.520   1.352  0.1889 -0.4614  0.0431
  568TIP3    H123263   4.207   3.549   1.397 -0.7617  0.4857  1.1945
  568TIP3    H223264   4.126   3.571   1.271 -0.0340  0.7265  0.7631
  569TIP3   OH223265   1.170   6.570   8.670  0.1384 -0.2032  0.4076
  569TIP3    H123266   1.180   6.634   8.600 -1.9968  0.4126  0.5958
  569TIP3    H223267   1.244   6.510   8.659  1.6872  1.7503 -0.3235
  570TIP3   OH223268   5.522   2.299   1.311  0.2341 -0.0249 -0.2851
  570TIP3    H123269   5.468   2.253   1.375 -0.8281  2.2085  0.5487
  570TIP3    H223270   5.475   2.288   1.228 -0.9245  0.8586  0.2107
  571TIP3   OH223271   2.800   6.247   0.298  0.1736  0.5278  0.0448
  571TIP3    H123272   2.893   6.262   0.278 -0.1529  0.2044 -1.8756
  571TIP3    H223273   2.798   6.158   0.334  0.4803  0.0512 -1.0754
  572TIP3   OH223274   6.490   1.506   0.947  0.0603 -0.6332 -0.0596
  572TIP3    H123275   6.409   1.552   0.968  0.7214  0.8752 -0.6178
  572TIP3    H223276   6.507   1.451   1.023 -0.7968  0.0288  0.6323
  573TIP3   OH223277   5.346   2.241   1.758 -0.5450 -0.3999  0.0667
  573TIP3    H123278   5.427   2.289   1.778 -1.1604  0.8783 -0.4188
  573TIP3    H223279   5.278   2.288   1.807 -1.3724  0.0601 -1.4703
  574TIP3   OH223280   3.641   4.149   6.211  0.2934 -0.1782  0.7288
  574TIP3    H123281   3.655   4.067   6.162 -0.0866  0.3385 -0.2624
  574TIP3    H223282   3.559   4.135   6.258  0.3118 -0.4258  0.6900
  575TIP3   OH223283   5.758   3.709   0.935  0.1920  0.2133 -0.4002
  575TIP3    H123284   5.731   3.622   0.908 -2.0307  0.6251  0.2805
  575TIP3    H223285   5.753   3.762   0.856  0.0088  0.0466 -0.4991
  576TIP3   OH223286   5.473   6.512   8.419 -0.0457  0.0068  0.9658
  576TIP3    H123287   5.381   6.489   8.429  0.2204 -1.4355  0.3218
  576TIP3    H223288   5.477   6.564   8.339 -0.4469  1.1530  1.6571
  577TIP3   OH223289   1.700   5.528   0.406 -0.1064  0.0031 -0.1021
  577TIP3    H123290   1.707   5.582   0.485 -0.8408  0.3662 -0.2820
  577TIP3    H223291   1.788   5.493   0.393  0.2391  0.6942  0.3468
  578TIP3   OH223292   1.471   4.540   8.025 -0.1169 -0.4719  0.3734
  578TIP3    H123293   1.422   4.459   8.011  0.5685 -1.0905  1.3850
  578TIP3    H223294   1.444   4.571   8.111  0.5249 -0.2917  0.5188
  579TIP3   OH223295   5.274   2.994   8.013  0.0075 -0.5712 -0.4904
  579TIP3    H123296   5.340   2.975   7.946 -0.7706 -2.9111 -0.6748
  579TIP3    H223297   5.192   2.960   7.977 -0.5763 -1.2161  1.3263
  580TIP3   OH223298   5.476   2.595   7.953 -0.5168  0.1924  0.2159
  580TIP3    H123299   5.391   2.560   7.929 -0.6301 -0.0412  0.9447
  580TIP3    H223300   5.537   2.557   7.890 -1.2788  2.3954 -1.9956
  581TIP3   OH223301   2.191   3.736   8.332 -0.3421  0.0010  0.3406
  581TIP3    H123302   2.281   3.761   8.313 -0.0892 -0.4737  0.8906
  581TIP3    H223303   2.138   3.784   8.268  0.0714  2.3781  1.6736
  582TIP3   OH223304   4.484   5.785   0.465  0.6217  0.1792  0.1753
  582TIP3    H123305   4.389   5.783   0.467  0.6377  0.0886  0.9751
  582TIP3    H223306   4.511   5.693   0.464  0.7154  0.1953  0.9307
  583TIP3   OH223307   0.423   5.922   7.511  0.1345  0.5369 -0.7336
  583TIP3    H123308   0.335   5.936   7.545  0.2008  1.1314 -0.7866
  583TIP3    H223309   0.437   5.828   7.516  0.5009  0.6437  1.8162
  584TIP3   OH223310   5.745   5.493   0.296 -0.0859  0.1011 -0.4764
  584TIP3    H123311   5.737   5.426   0.365 -1.2043 -0.3510 -1.0176
  584TIP3    H223312   5.758   5.575   0.344  0.5193 -0.3837  0.2216
  585TIP3   OH223313   2.583   3.575   7.121  0.1465  0.0449 -0.1844
  585TIP3    H123314   2.493   3.566   7.091 -0.1824 -0.3495  0.8879
  585TIP3    H223315   2.580   3.645   7.187  0.3369 -0.9343  0.9037
  586TIP3   OH223316   3.314   3.585   1.664 -0.2389 -0.0441 -0.5624
  586TIP3    H123317   3.268   3.592   1.748 -0.6644 -0.2858 -0.7717
  586TIP3    H223318   3.317   3.491   1.647  2.3316 -0.2566  0.5318
  587TIP3   OH223319   3.496   0.281   8.000 -0.2049 -0.7685  0.1467
  587TIP3    H123320   3.452   0.361   7.973 -0.2816 -1.0786 -0.6744
  587TIP3    H223321   3.435   0.238   8.059 -0.8148 -0.9705 -0.6216
  588TIP3   OH223322   5.675   6.356   7.444  0.3575 -0.0862 -0.5772
  588TIP3    H123323   5.669   6.394   7.531  0.1733 -1.1859 -0.0957
  588TIP3    H223324   5.750   6.400   7.403  0.5479  0.3134  0.1957
  589TIP3   OH223325   6.423   5.644   1.771 -0.0439  0.2984 -0.0581
  589TIP3    H123326   6.369   5.700   1.714 -0.4303 -0.9916 -1.0175
  589TIP3    H223327   6.511   5.649   1.733 -0.2690 -0.4364 -0.7059
  590TIP3   OH223328   4.109   1.256   7.194 -0.4790  0.1881  0.2996
  590TIP3    H123329   4.071   1.227   7.276 -1.1565  1.7682  0.5876
  590TIP3    H223330   4.202   1.268   7.213 -0.4760 -0.2586  0.5828
  591TIP3   OH223331   0.109   4.297   7.466 -0.0682  0.3083  0.6528
  591TIP3    H123332   0.086   4.389   7.481 -0.0409  0.4065  0.1197
  591TIP3    H223333   0.202   4.300   7.443  0.1693  0.0475  1.5521
  592TIP3   OH223334   6.048   3.423   1.025 -0.1855 -0.0241 -0.6238
  592TIP3    H123335   6.047   3.513   1.059  0.3837  0.2934 -1.4238
  592TIP3    H223336   5.983   3.377   1.079 -0.3515  0.8161 -0.0780
  593TIP3   OH223337   0.292   1.790   8.622  0.4350  0.6790 -0.1996
  593TIP3    H123338   0.229   1.841   8.572  0.8277 -0.1520 -1.6159
  593TIP3    H223339   0.277   1.814   8.714 -1.5385  0.9091 -0.5610
  594TIP3   OH223340   6.710   0.470   0.533 -0.4335 -0.0534  0.5338
  594TIP3    H123341   6.659   0.536   0.486  0.6212 -0.2335 -0.9178
  594TIP3    H223342   6.785   0.518   0.568 -0.0690 -0.3230  0.1336
  595TIP3   OH223343   5.666   0.086   1.088 -0.3445  0.0287  0.0893
  595TIP3    H123344   5.730   0.087   1.159 -1.7402 -0.7568  1.4098
  595TIP3    H223345   5.719   0.080   1.008  1.2276 -1.5663  1.1738
  596TIP3   OH223346   4.681   1.786   1.201  0.1523  0.4033 -0.1716
  596TIP3    H123347   4.643   1.699   1.190  1.0833 -0.1108  0.4673
  596TIP3    H223348   4.694   1.794   1.295  0.8219  0.8953 -0.2988
  597TIP3   OH223349   0.379   1.180   1.617 -0.0181 -0.3146 -0.3522
  597TIP3    H123350   0.361   1.267   1.653 -4.6275 -1.1690 -0.0230
  597TIP3    H223351   0.381   1.122   1.693  1.7624 -0.7516 -0.6771
  598TIP3   OH223352   5.847   6.242   0.951 -0.1761  0.4423  0.2614
  598TIP3    H123353   5.814   6.235   1.041 -1.6771 -0.4704 -0.3116
  598TIP3    H223354   5.769   6.256   0.898  0.4175 -1.0551 -1.1102
  599TIP3   OH223355   2.194   6.293   8.557 -0.3475  0.0407  0.4747
  599TIP3    H123356   2.283   6.267   8.580 -0.8469 -0.6288  1.7797
  599TIP3    H223357   2.145   6.289   8.640 -1.3669  1.3897 -0.0091
  600TIP3   OH223358   0.095   4.850   7.073  0.0010 -0.7639 -0.1347
  600TIP3    H123359   0.150   4.869   6.997  0.2085 -2.6802 -0.4965
  600TIP3    H223360   0.017   4.808   7.037 -0.2873 -0.9146  0.6409
  601TIP3   OH223361   1.749   3.428   1.555  0.1813  0.1006 -0.1150
  601TIP3    H123362   1.663   3.406   1.590  0.6455  0.5218  1.3932
  601TIP3    H223363   1.731   3.480   1.477 -0.9055 -1.0555 -0.6782
  602TIP3   OH223364   6.138   5.978   0.575 -0.3433  0.1347  0.2683
  602TIP3    H123365   6.090   5.939   0.648  1.3574  1.5747  2.2540
  602TIP3    H223366   6.136   6.072   0.592  0.7678  0.4416 -1.1247
  603TIP3   OH223367   6.030   0.686   2.128  0.0158 -0.4246 -0.0292
  603TIP3    H123368   6.053   0.752   2.193 -1.8995 -0.8214  1.1465
  603TIP3    H223369   6.087   0.612   2.147  0.8047  0.1591 -0.0794
  604TIP3   OH223370   5.332   4.435   1.601  0.2460  0.0719  0.2991
  604TIP3    H123371   5.368   4.367   1.658  1.6071  0.5480  0.0339
  604TIP3    H223372   5.313   4.389   1.519 -0.0461 -0.2489  0.5431
  605TIP3   OH223373   4.783   3.429   7.643 -0.9793  0.0334  0.2734
  605TIP3    H123374   4.727   3.461   7.714  0.3592  1.8849  0.5680
  605TIP3    H223375   4.850   3.376   7.687 -1.6615 -1.0425  0.0637
  606TIP3   OH223376   3.538   3.504   7.536  0.1002  0.3738  0.0632
  606TIP3    H123377   3.515   3.540   7.450 -0.0278 -0.8969 -0.4604
  606TIP3    H223378   3.561   3.413   7.518 -0.0637  0.0467  1.4017
  607TIP3   OH223379   0.674   2.678   0.700 -1.3345  0.2781  0.0150
  607TIP3    H123380   0.721   2.602   0.734 -1.9919  0.3138  1.0555
  607TIP3    H223381   0.605   2.694   0.764 -1.7427  1.2284 -0.6362
  608TIP3   OH223382   5.281   6.390   0.423  0.2470 -0.4149 -0.2431
  608TIP3    H123383   5.284   6.301   0.458  0.4105 -0.4837 -0.4254
  608TIP3    H223384   5.309   6.446   0.495  1.9894 -0.6803 -0.6657
  609TIP3   OH223385   5.266   6.531   1.835  0.0570  0.1724  0.8709
  609TIP3    H123386   5.291   6.471   1.765 -1.6362 -0.5030  0.7951
  609TIP3    H223387   5.243   6.474   1.908  1.1232  0.8522  1.7664
  610TIP3   OH223388   5.892   2.848   7.993 -0.0504 -0.0139  0.0595
  610TIP3    H123389   5.813   2.794   7.988  0.4954 -0.7954 -0.3981
  610TIP3    H223390   5.867   2.932   7.955 -0.5496 -0.3849 -0.4413
  611TIP3   OH223391   2.895   0.915   0.601 -0.8615 -0.4732 -0.3195
  611TIP3    H123392   2.873   1.002   0.634  0.3790 -0.4488  0.5224
  611TIP3    H223393   2.974   0.928   0.549 -0.0120 -1.2344  0.7354
  612TIP3   OH223394   3.911   5.297   0.321  0.1262 -0.0180  0.4539
  612TIP3    H123395   3.978   5.236   0.292  0.5912 -0.0718  1.5943
  612TIP3    H223396   3.901   5.279   0.414 -0.7825  0.6513  0.4952
  613TIP3   OH223397   5.899   2.314   0.621  0.2410 -0.7820  0.2438
  613TIP3    H123398   5.960   2.387   0.612 -1.5748  0.7801 -0.0451
  613TIP3    H223399   5.940   2.256   0.685  1.6177  0.6198  0.6921
  614TIP3   OH223400   6.845   6.552   6.985  0.2387 -0.2526 -0.5665
  614TIP3    H123401   6.854   6.627   6.926  1.7096  0.6258  0.7180
  614TIP3    H223402   6.935   6.520   6.998 -0.1429 -0.9354  0.5501
  615TIP3   OH223403   3.498   6.195   6.604  0.0807 -0.2446 -0.0576
  615TIP3    H123404   3.515   6.152   6.520  0.6684  0.1747 -0.1627
  615TIP3    H223405   3.577   6.179   6.656 -0.8097 -1.6302  0.9181
  616TIP3   OH223406   3.185   5.080   7.768 -0.4404  0.0961  0.4225
  616TIP3    H123407   3.173   5.001   7.821 -1.1243 -0.8394 -1.0698
  616TIP3    H223408   3.097   5.103   7.740 -0.1125  0.7247 -0.1084
  617TIP3   OH223409   5.915   2.128   0.825  0.0457 -0.3737  0.4354
  617TIP3    H123410   5.939   2.119   0.917  2.3352  0.5154  0.0098
  617TIP3    H223411   5.933   2.042   0.787 -3.0622 -1.4588  1.1518
  618TIP3   OH223412   2.874   3.025   0.991  0.0661  0.2961  0.2592
  618TIP3    H123413   2.855   3.041   0.899 -0.3568  2.9809  0.7449
  618TIP3    H223414   2.855   3.108   1.035  0.3382 -0.8688  2.7683
  619TIP3   OH223415   1.350   2.873   1.509  0.4791  0.6722  0.2953
  619TIP3    H123416   1.373   2.853   1.600  1.1492  0.1777  0.0273
  619TIP3    H223417   1.352   2.969   1.504  0.6414  0.6921  0.7533
  620TIP3   OH223418   4.111   5.184   1.397  0.6346  0.2903  0.1716
  620TIP3    H123419   4.162   5.108   1.426 -2.2064 -1.6611  0.4370
  620TIP3    H223420   4.056   5.206   1.472 -0.2367  1.0966 -0.6773
  621TIP3   OH223421   3.697   6.804   7.536  0.3197 -0.6662  0.3410
  621TIP3    H123422   3.724   6.869   7.601  0.7407  0.0656 -0.5512
  621TIP3    H223423   3.755   6.729   7.550  0.2202 -0.6266  0.9844
  622TIP3   OH223424   0.064   1.604   2.079  0.1756  0.6291 -0.4036
  622TIP3    H123425   0.005   1.678   2.063 -1.9144 -0.6099  1.1605
  622TIP3    H223426   0.128   1.639   2.141 -2.0983  0.6373  2.0970
  623TIP3   OH223427   5.722   3.556   2.216  0.3305 -0.3605  0.4569
  623TIP3    H123428   5.647   3.609   2.242  0.0260 -1.1094  1.1639
  623TIP3    H223429   5.694   3.510   2.138  1.3836  2.2057 -1.5803
  624TIP3   OH223430   2.677   1.930   8.244  0.2400  0.3273 -0.3023
  624TIP3    H123431   2.730   1.908   8.320  0.6462 -0.4694 -0.8103
  624TIP3    H223432   2.604   1.869   8.247 -1.7688  2.6209  1.4693
  625TIP3   OH223433   5.302   2.801   7.580  0.0075  0.2059  0.0780
  625TIP3    H123434   5.235   2.856   7.537 -1.9964 -2.1721 -0.0838
  625TIP3    H223435   5.377   2.804   7.521 -0.9208  0.8589 -1.1218
  626TIP3   OH223436   4.444   4.948   0.335  0.2052 -0.7797  0.0012
  626TIP3    H123437   4.390   4.870   0.321 -1.7862 -0.0366  2.7421
  626TIP3    H223438   4.428   5.003   0.259 -2.5084 -0.8590  0.4307
  627TIP3   OH223439   3.590   4.791   0.763 -0.2702  0.0030  0.2809
  627TIP3    H123440   3.655   4.858   0.786  1.2345 -0.8290 -1.3103
  627TIP3    H223441   3.578   4.741   0.844 -0.2794  1.2529  1.0743
  628TIP3   OH223442   2.467   4.161   1.147 -0.3722 -0.5911 -0.0707
  628TIP3    H123443   2.495   4.084   1.196  0.4410 -0.4709 -0.3285
  628TIP3    H223444   2.547   4.213   1.137 -0.4416 -0.7418 -1.7727
  629TIP3   OH223445   3.720   3.840   8.428  0.2361 -0.6071  0.7806
  629TIP3    H123446   3.680   3.872   8.347  0.8313 -0.4402  0.5526
  629TIP3    H223447   3.664   3.767   8.455  1.0859 -1.9006 -0.7908
  630TIP3   OH223448   0.207   0.077   6.976  0.3046  0.0120 -0.0319
  630TIP3    H123449   0.112   0.062   6.970 -0.1567  2.7841 -1.2306
  630TIP3    H223450   0.246   0.004   6.929 -1.3871 -0.1091 -1.3425
  631TIP3   OH223451   6.437   3.489   1.934 -0.5750 -0.4097  0.2776
  631TIP3    H123452   6.515   3.455   1.977 -0.1273  0.3943  0.1220
  631TIP3    H223453   6.428   3.436   1.855  0.5974  0.3470 -0.3900
  632TIP3   OH223454   0.034   2.510   0.535  0.2818 -0.2914  0.0608
  632TIP3    H123455   0.040   2.436   0.474  1.2588  0.0402 -0.2761
  632TIP3    H223456   0.061   2.473   0.619 -0.2128 -0.5504  0.1058
  633TIP3   OH223457   5.820   1.250   7.894  0.0075 -0.1928  0.4404
  633TIP3    H123458   5.829   1.345   7.888  1.3440 -0.2661  0.9392
  633TIP3    H223459   5.791   1.234   7.983 -1.3552 -0.1978  0.0088
  634TIP3   OH223460   2.321   6.817   1.379  0.0923  0.1474  0.0458
  634TIP3    H123461   2.240   6.807   1.428  1.2219  2.2317  2.5476
  634TIP3    H223462   2.376   6.872   1.434  2.8504 -0.3265 -2.0230
  635TIP3   OH223463   2.500   3.769   7.302 -0.1867 -0.1191  0.2835
  635TIP3    H123464   2.459   3.840   7.254  0.1391 -0.3782 -0.3834
  635TIP3    H223465   2.429   3.733   7.356 -0.9428 -0.7864 -1.1104
  636TIP3   OH223466   6.620   1.130   8.028  0.1110 -0.9371 -0.2465
  636TIP3    H123467   6.635   1.188   8.103 -1.1347 -0.4802 -0.3187
  636TIP3    H223468   6.639   1.183   7.951 -1.1440 -0.5509 -0.3170
  637TIP3   OH223469   0.242   6.339   8.712 -0.1907 -0.0601 -0.2537
  637TIP3    H123470   0.288   6.343   8.628 -0.6596 -0.3977 -0.5320
  637TIP3    H223471   0.158   6.299   8.691 -1.0438  1.5215  0.0749
  638TIP3   OH223472   2.950   2.570   7.053 -0.2687  0.1939  0.2935
  638TIP3    H123473   2.903   2.506   6.999  0.8742 -0.0776 -0.4280
  638TIP3    H223474   2.924   2.550   7.143 -0.6172 -0.6973  0.0062
  639TIP3   OH223475   3.113   3.465   6.487  0.2845 -0.4256 -0.0559
  639TIP3    H123476   3.139   3.552   6.517 -0.4598  1.2950 -3.7863
  639TIP3    H223477   3.184   3.408   6.516  1.7181  1.7482  0.9937
  640TIP3   OH223478   3.523   4.427   8.303 -0.0635 -0.3877 -0.0947
  640TIP3    H123479   3.522   4.514   8.263 -0.4085  0.3473  1.4101
  640TIP3    H223480   3.508   4.444   8.396 -1.4725 -2.1646  0.0586
  641TIP3   OH223481   4.556   3.158   0.215  0.3776 -0.3427  0.6768
  641TIP3    H123482   4.487   3.110   0.262  0.3578 -0.3188  0.6722
  641TIP3    H223483   4.565   3.240   0.263 -0.2562  0.0582  0.1326
  642TIP3   OH223484   6.165   3.475   0.482  0.0523 -0.5465  0.1621
  642TIP3    H123485   6.106   3.448   0.553  0.3768 -0.5749  0.4264
  642TIP3    H223486   6.112   3.467   0.403 -0.5202  0.1138  0.4694
  643TIP3   OH223487   5.523   2.488   0.613 -0.5165 -0.1478  0.3835
  643TIP3    H123488   5.540   2.582   0.610  1.5444 -0.4918 -0.6962
  643TIP3    H223489   5.581   2.456   0.682 -0.1861 -0.7902 -0.1801
  644TIP3   OH223490   3.192   4.689   1.807 -0.3470 -0.0509  0.1931
  644TIP3    H123491   3.133   4.706   1.733 -1.2451  3.4039  1.4984
  644TIP3    H223492   3.274   4.663   1.766 -1.3357 -0.0772 -1.9338
  645TIP3   OH223493   4.332   3.064   7.510 -0.0521  0.2457 -0.1546
  645TIP3    H123494   4.253   3.111   7.483  0.0112  1.3883  1.4912
  645TIP3    H223495   4.399   3.090   7.447  0.3619  3.6388  1.4850
  646TIP3   OH223496   4.813   4.136   2.065 -0.3118 -0.0085  0.6145
  646TIP3    H123497   4.835   4.229   2.074  1.3517 -0.3855  0.9446
  646TIP3    H223498   4.894   4.091   2.091 -0.3258 -1.5098 -1.7029
  647TIP3   OH223499   6.765   1.446   1.255  0.1681 -0.6255  0.2942
  647TIP3    H123500   6.798   1.532   1.280 -0.1196 -0.3863 -0.1429
  647TIP3    H223501   6.840   1.387   1.269  0.1711 -0.4148  1.2033
  648TIP3   OH223502   3.591   1.365   0.543 -0.0359  0.1709 -0.1237
  648TIP3    H123503   3.583   1.275   0.513 -1.1473  0.0227  0.5670
  648TIP3    H223504   3.685   1.381   0.548  0.1881 -1.3393  0.9308
  649TIP3   OH223505   3.091   2.837   0.529  0.1827 -0.1365  0.1162
  649TIP3    H123506   3.156   2.829   0.459 -0.7724  2.4545 -1.2426
  649TIP3    H223507   3.110   2.922   0.570  0.0314 -1.1057  2.3250
  650TIP3   OH223508   6.664   4.653   7.574  0.3734  0.4936  0.4659
  650TIP3    H123509   6.677   4.746   7.593 -0.5650  0.7116  0.1066
  650TIP3    H223510   6.569   4.643   7.568  0.4241 -0.6446  1.2391
  651TIP3   OH223511   6.110   0.048   0.157  0.1833  0.0039 -0.3285
  651TIP3    H123512   6.118   0.143   0.148  1.4384  0.0590  1.0637
  651TIP3    H223513   6.200   0.016   0.155 -0.2106 -1.1385 -0.4811
  652TIP3   OH223514   0.840   4.088   7.300  0.2208  0.0033 -0.3633
  652TIP3    H123515   0.899   4.138   7.243 -0.7836 -0.3302 -1.7627
  652TIP3    H223516   0.882   4.003   7.310  0.8092  0.3442  0.0952
  653TIP3   OH223517   0.935   1.727   2.100 -0.5487 -0.6879 -0.1564
  653TIP3    H123518   0.931   1.731   2.005  0.3282  2.0280 -0.1677
  653TIP3    H223519   0.999   1.658   2.119  0.0945 -0.5114 -1.5867
  654TIP3   OH223520   5.191   0.165   0.888 -0.7580  0.1988  0.3801
  654TIP3    H123521   5.147   0.242   0.851  1.2085 -0.1624 -3.0771
  654TIP3    H223522   5.281   0.194   0.904 -0.8529 -0.4800  2.5513
  655TIP3   OH223523   5.445   6.629   8.171  0.3610  0.1254 -0.2641
  655TIP3    H123524   5.525   6.677   8.147  0.8624 -0.6993 -0.2788
  655TIP3    H223525   5.457   6.542   8.132 -0.4189 -0.0950 -0.0210
  656TIP3   OH223526   1.919   2.636   7.267  1.0620 -0.2007 -0.8397
  656TIP3    H123527   1.990   2.688   7.231  0.4120 -0.8902 -3.3527
  656TIP3    H223528   1.934   2.547   7.234 -0.3095 -0.6198 -0.4327
  657TIP3   OH223529   0.076   0.086   7.893  0.2593 -0.2489 -0.1606
  657TIP3    H123530   0.103   0.178   7.901  2.0014 -0.8310  1.8727
  657TIP3    H223531   0.064   0.057   7.984 -0.3544 -1.9973 -0.7616
  658TIP3   OH223532   6.240   6.242   7.160 -0.1701  0.7264  0.6743
  658TIP3    H123533   6.184   6.297   7.105 -0.0658 -0.3223 -0.5225
  658TIP3    H223534   6.329   6.275   7.145 -0.0016 -0.3077 -0.7456
  659TIP3   OH223535   5.187   3.493   8.464 -0.2916 -0.0589 -0.3457
  659TIP3    H123536   5.261   3.436   8.486 -0.2148  0.0115 -0.4161
  659TIP3    H223537   5.219   3.546   8.391 -0.6311 -0.4735 -0.8010
  660TIP3   OH223538   1.642   4.710   0.496  0.5727  0.5439  0.0431
  660TIP3    H123539   1.646   4.806   0.488  0.9169  0.5289  0.0070
  660TIP3    H223540   1.697   4.691   0.572 -0.4861  0.4682  0.8266
  661TIP3   OH223541   6.152   4.406   7.090 -0.0609  0.1802 -0.1253
  661TIP3    H123542   6.082   4.469   7.105  1.4333  1.8076  0.4635
  661TIP3    H223543   6.232   4.455   7.109  1.2854 -1.3746 -1.4614
  662TIP3   OH223544   0.164   1.987   2.492  0.1823 -0.9576 -0.2935
  662TIP3    H123545   0.091   1.944   2.537 -1.2223  1.0437 -0.5273
  662TIP3    H223546   0.242   1.953   2.535 -0.8013 -3.5721 -0.3517
  663TIP3   OH223547   0.826   4.211   7.535  0.0449 -0.1347 -0.0965
  663TIP3    H123548   0.805   4.153   7.462  0.8122  0.1610 -0.5699
  663TIP3    H223549   0.921   4.204   7.545 -0.0425 -0.1775  0.8886
  664TIP3   OH223550   2.545   3.692   6.519  0.5329 -0.0679  0.2984
  664TIP3    H123551   2.542   3.666   6.427  0.1795  0.2476  0.2188
  664TIP3    H223552   2.471   3.751   6.530  0.7157  0.0860  0.7312
  665TIP3   OH223553   3.789   1.368   7.405  0.1213 -0.7795  0.0117
  665TIP3    H123554   3.743   1.293   7.368  1.0897 -0.4358 -2.0289
  665TIP3    H223555   3.878   1.337   7.420  0.4130 -0.1813 -0.4228
  666TIP3   OH223556   6.219   5.474   2.589  0.3615  0.2716  0.4239
  666TIP3    H123557   6.127   5.449   2.582  0.6904 -0.5566 -2.9693
  666TIP3    H223558   6.262   5.397   2.626 -0.1567  0.2608  1.0154
  667TIP3   OH223559   2.880   3.531   6.361  0.5177  0.1563 -0.3462
  667TIP3    H123560   2.953   3.514   6.420  1.9689  1.1897 -1.7463
  667TIP3    H223561   2.834   3.448   6.354  0.0291  0.0970  2.5195
  668TIP3   OH223562   3.843   1.894   0.858 -0.0938  0.5722 -0.1362
  668TIP3    H123563   3.810   1.927   0.942  2.1727 -0.0658  1.0585
  668TIP3    H223564   3.848   1.972   0.802 -1.6273  0.9991  0.2642
  669TIP3   OH223565   1.369   5.978   7.862  0.0569 -0.2280  0.3016
  669TIP3    H123566   1.408   5.982   7.949  1.2220  0.5139 -0.2264
  669TIP3    H223567   1.415   6.045   7.812 -0.1265 -1.0681 -1.0603
  670TIP3   OH223568   0.325   1.043   6.868  0.1900 -0.0341  0.0574
  670TIP3    H123569   0.238   1.078   6.887 -0.4966 -2.0772  0.9393
  670TIP3    H223570   0.334   1.054   6.773 -1.0997  0.0707 -0.0782
  671TIP3   OH223571   4.380   3.031   6.835  0.2543  0.3295  0.1897
  671TIP3    H123572   4.472   3.006   6.841 -0.0528 -0.9343 -0.0811
  671TIP3    H223573   4.377   3.092   6.761  1.4073  3.2282  2.3574
  672TIP3   OH223574   4.270   5.690   8.309  0.2844 -0.1030 -0.0104
  672TIP3    H123575   4.204   5.639   8.262 -0.7165  2.0336 -1.0213
  672TIP3    H223576   4.247   5.678   8.402 -0.3109 -0.9400 -0.2493
  673TIP3   OH223577   6.544   0.127   8.010  0.0043 -0.2769 -0.8062
  673TIP3    H123578   6.520   0.052   8.065 -1.1528  0.8958  0.3535
  673TIP3    H223579   6.566   0.197   8.071  0.4704  0.5233 -1.8528
  674TIP3   OH223580   0.849   0.422   6.885 -0.2744 -0.2812 -0.2945
  674TIP3    H123581   0.938   0.449   6.905 -0.4720  0.6321 -0.6071
  674TIP3    H223582   0.857   0.367   6.807 -0.1244  1.0976 -1.2945
  675TIP3   OH223583   6.183   0.197   6.906  0.3683 -0.1388 -0.6807
  675TIP3    H123584   6.122   0.143   6.956  1.3743 -1.4523 -0.7982
  675TIP3    H223585   6.247   0.134   6.871  2.4166  1.2317  0.3446
  676TIP3   OH223586   0.255   1.098   1.357  0.3637  0.0324 -0.5058
  676TIP3    H123587   0.334   1.118   1.406  0.2925 -0.4938 -0.1731
  676TIP3    H223588   0.189   1.159   1.391  0.4386 -0.0148 -0.2741
  677TIP3   OH223589   4.272   0.389   8.642 -0.4289  0.1846 -0.0934
  677TIP3    H123590   4.340   0.347   8.590 -0.6430 -1.1622  0.6780
  677TIP3    H223591   4.244   0.464   8.589 -0.2493 -0.8230 -1.6524
  678TIP3   OH223592   2.791   5.914   7.600 -0.4245  0.1344  0.6755
  678TIP3    H123593   2.817   5.955   7.683  0.5752 -0.4491  0.6650
  678TIP3    H223594   2.701   5.886   7.616  0.4801 -2.0933  2.4575
  679TIP3   OH223595   3.853   2.562   0.743  0.6556 -0.2222 -0.6526
  679TIP3    H123596   3.929   2.505   0.727  0.7821 -0.0950 -0.5150
  679TIP3    H223597   3.891   2.644   0.772  0.4770 -0.0039 -1.0340
  680TIP3   OH223598   1.484   6.704   1.514 -0.2824 -0.0811  0.6530
  680TIP3    H123599   1.451   6.707   1.424  1.2287  2.2652  0.0865
  680TIP3    H223600   1.571   6.665   1.506 -0.8378 -1.5660  1.4142
  681TIP3   OH223601   4.450   2.815   7.149  0.1190 -0.4916 -0.0074
  681TIP3    H123602   4.401   2.739   7.182 -0.4973 -0.0467  0.1221
  681TIP3    H223603   4.388   2.888   7.155  0.2825 -0.2202 -1.3261
  682TIP3   OH223604   5.274   5.722   8.692 -0.0067 -0.0908 -0.5659
  682TIP3    H123605   5.273   5.815   8.716  0.6033 -0.0715 -0.5840
  682TIP3    H223606   5.289   5.676   8.774  0.1506 -0.1397 -0.6202
  683TIP3   OH223607   1.472   0.300   7.174  0.3303 -0.2606 -0.4281
  683TIP3    H123608   1.548   0.276   7.227  0.3545  0.2918 -0.2094
  683TIP3    H223609   1.417   0.351   7.232 -0.4382 -1.0509 -0.4519
  684TIP3   OH223610   5.255   5.029   8.607 -0.9702  0.0264  0.0646
  684TIP3    H123611   5.309   5.108   8.618 -0.5686 -0.0627 -1.1189
  684TIP3    H223612   5.231   5.004   8.696 -2.5991  2.4935  0.4056
  685TIP3   OH223613   5.738   5.630   1.390  0.2382  0.6182 -0.2318
  685TIP3    H123614   5.698   5.633   1.304 -2.6254  0.1027  0.9697
  685TIP3    H223615   5.733   5.720   1.422  0.7289  0.6909 -0.3540
  686TIP3   OH223616   0.368   1.873   0.827 -0.0417  0.0048  0.3471
  686TIP3    H123617   0.292   1.863   0.770  0.0101 -1.5515  0.5151
  686TIP3    H223618   0.331   1.901   0.911 -0.4946 -1.1476  0.5496
  687TIP3   OH223619   3.940   5.157   0.760 -0.1115 -0.1340 -0.2948
  687TIP3    H123620   3.971   5.112   0.682 -1.5811 -0.2913 -0.8326
  687TIP3    H223621   3.917   5.245   0.729  0.0527  0.0584  0.1287
  688TIP3   OH223622   1.973   0.377   1.827 -0.2636 -0.3663  0.0892
  688TIP3    H123623   2.053   0.419   1.796 -0.0417 -1.4086 -0.8053
  688TIP3    H223624   1.934   0.338   1.749  0.5407 -3.4838  1.0924
  689TIP3   OH223625   6.081   0.870   7.664  0.1345  0.1645  0.2125
  689TIP3    H123626   5.999   0.909   7.637  0.1530 -0.4462 -0.7531
  689TIP3    H223627   6.080   0.875   7.760 -1.4117 -0.6220  0.2611
  690TIP3   OH223628   0.366   2.366   1.096 -0.6138  0.5917 -0.5156
  690TIP3    H123629   0.448   2.385   1.051  0.9176 -2.0435  0.9355
  690TIP3    H223630   0.306   2.435   1.067  1.5488  1.5668 -3.0189
  691TIP3   OH223631   1.885   2.270   6.878 -0.1741  0.0880  0.3004
  691TIP3    H123632   1.812   2.332   6.882 -0.1152  0.4036 -2.1515
  691TIP3    H223633   1.850   2.195   6.830  1.0485  0.1646 -0.7500
  692TIP3   OH223634   0.114   3.058   0.292 -0.0521  0.1488  0.1542
  692TIP3    H123635   0.163   2.976   0.294 -1.1607 -0.5415 -0.0008
  692TIP3    H223636   0.152   3.107   0.218 -0.0407 -0.6449 -0.3741
  693TIP3   OH223637   0.180   0.176   7.245  0.0813 -0.0933  0.2836
  693TIP3    H123638   0.218   0.097   7.285  0.2670 -0.5766 -0.8201
  693TIP3    H223639   0.204   0.170   7.153  0.2378  1.3511  0.2111
  694TIP3   OH223640   1.685   4.257   6.174 -0.0574  0.2399  0.5378
  694TIP3    H123641   1.668   4.351   6.164  0.9103  0.4383  0.6211
  694TIP3    H223642   1.781   4.251   6.173 -0.1119 -0.6976  1.0250
  695TIP3   OH223643   5.125   6.040   7.519  0.2418 -0.0415  0.2853
  695TIP3    H123644   5.101   6.119   7.471 -0.1011 -0.5348 -0.3795
  695TIP3    H223645   5.152   5.978   7.451  0.3544 -0.5463  0.7822
  696TIP3   OH223646   6.054   5.135   8.095  0.1201 -0.8027  0.2402
  696TIP3    H123647   5.963   5.150   8.120  0.2943 -0.0720  0.4602
  696TIP3    H223648   6.099   5.120   8.178  0.6992  1.6280  0.4647
  697TIP3   OH223649   0.200   5.910   8.344 -0.3710 -0.2007 -0.3252
  697TIP3    H123650   0.194   5.921   8.439 -1.3533 -0.6476 -0.3274
  697TIP3    H223651   0.284   5.951   8.321 -0.2280  0.1187  0.6963
  698TIP3   OH223652   2.518   0.033   0.574 -0.3059 -0.3208  0.0055
  698TIP3    H123653   2.550  -0.044   0.527  0.2128  0.7656 -1.5054
  698TIP3    H223654   2.434   0.005   0.611 -0.7671 -1.2319 -1.6292
  699TIP3   OH223655   3.967   6.794   6.613 -0.4323 -0.0638 -0.3189
  699TIP3    H123656   4.012   6.846   6.680  1.1087  0.9138 -2.0345
  699TIP3    H223657   3.875   6.818   6.621 -0.1485  0.7187  0.8174
  700TIP3   OH223658   0.362   5.648   7.691 -0.6973  0.0684  0.1712
  700TIP3    H123659   0.276   5.606   7.696 -0.1669 -1.0863  0.0583
  700TIP3    H223660   0.393   5.651   7.781 -1.1136  1.0888  0.2957
  701TIP3   OH223661   3.314   6.474   1.328 -0.3344  0.0357 -0.2573
  701TIP3    H123662   3.325   6.382   1.303 -0.9410 -0.1535  0.1667
  701TIP3    H223663   3.322   6.474   1.423  2.1340  0.7776 -0.3997
  702TIP3   OH223664   0.699   4.078   6.429 -0.6403 -0.4317 -0.4913
  702TIP3    H123665   0.673   4.124   6.349 -0.0377  1.2439  0.2350
  702TIP3    H223666   0.617   4.043   6.465 -1.0954 -0.0399 -1.1352
  703TIP3   OH223667   1.567   0.486   7.510  0.6388  0.1274 -0.2757
  703TIP3    H123668   1.530   0.523   7.590  0.4083 -2.5657  0.9856
  703TIP3    H223669   1.491   0.455   7.461  0.8473  0.8644 -1.0943
  704TIP3   OH223670   6.519   3.081   1.092  0.1744  0.4348 -0.6272
  704TIP3    H123671   6.611   3.089   1.117 -0.4647 -0.7620  2.5712
  704TIP3    H223672   6.517   3.109   1.000  3.4894  1.6620 -0.4753
  705TIP3   OH223673   6.253   0.922   2.123  0.1993  0.3739 -0.0800
  705TIP3    H123674   6.183   0.985   2.108  1.2158  1.5628  0.0786
  705TIP3    H223675   6.260   0.917   2.219 -1.6925 -2.0811  0.0362
  706TIP3   OH223676   4.214   1.198   8.529  0.4174  0.0356 -0.4589
  706TIP3    H123677   4.149   1.143   8.572  0.6276 -0.3513 -0.6298
  706TIP3    H223678   4.292   1.190   8.584  0.1474  0.9822  0.0870
  707TIP3   OH223679   4.413   2.527   1.067 -0.0060  0.6875 -0.4268
  707TIP3    H123680   4.322   2.500   1.082  0.0269  0.6129 -0.3573
  707TIP3    H223681   4.461   2.444   1.062  0.2595  0.7394  0.8034
  708TIP3   OH223682   1.222   3.156   1.647 -0.3310 -0.1925  0.1269
  708TIP3    H123683   1.250   3.234   1.695  0.4170  1.3037 -2.5549
  708TIP3    H223684   1.247   3.083   1.704  1.5054  1.4067  1.5129
  709TIP3   OH223685   6.306   6.703   6.576  0.0645  0.5661 -0.0361
  709TIP3    H123686   6.384   6.707   6.520  0.9244 -1.9397  0.8075
  709TIP3    H223687   6.321   6.626   6.631 -1.1061  2.3918  3.0849
  710TIP3   OH223688   0.277   5.305   0.247  0.4876 -0.3611 -0.1473
  710TIP3    H123689   0.305   5.325   0.336  1.3366 -0.9419 -0.2676
  710TIP3    H223690   0.190   5.265   0.258 -0.9892  2.6547  0.1319
  711TIP3   OH223691   0.527   2.370   0.871 -0.0272  0.4084 -0.2465
  711TIP3    H123692   0.596   2.335   0.927 -0.1133  1.6115  0.6334
  711TIP3    H223693   0.565   2.367   0.783  0.6491 -0.1606  0.0544
  712TIP3   OH223694   1.957   1.730   7.163 -0.0210  0.6512  0.2128
  712TIP3    H123695   1.931   1.638   7.166 -0.3237  0.7382  0.3467
  712TIP3    H223696   1.995   1.742   7.076 -3.7525  1.3774 -1.5314
  713TIP3   OH223697   2.674   3.858   1.936 -0.3743  0.3646  0.0268
  713TIP3    H123698   2.735   3.785   1.942 -0.1486  0.4296 -1.3145
  713TIP3    H223699   2.604   3.827   1.879 -0.8334  0.8253  0.3285
  714TIP3   OH223700   6.480   1.740   7.247  0.5796  0.1519 -0.5856
  714TIP3    H123701   6.410   1.758   7.311  0.0258 -1.4911 -0.6998
  714TIP3    H223702   6.551   1.704   7.299 -0.5285 -2.9450 -0.9934
  715TIP3   OH223703   1.527   1.076   0.353 -0.2048  0.0536  0.1847
  715TIP3    H123704   1.529   1.010   0.423  1.1652  0.1575  0.2679
  715TIP3    H223705   1.536   1.159   0.399 -0.8201  0.2415 -0.0156
  716TIP3   OH223706   1.228   3.517   8.616  0.3861 -0.1202  0.2458
  716TIP3    H123707   1.229   3.467   8.534  2.1241 -0.2207  0.2867
  716TIP3    H223708   1.312   3.495   8.658 -0.5322 -0.2044  2.1408
  717TIP3   OH223709   3.335   0.312   1.422 -0.2260 -0.3077  0.0651
  717TIP3    H123710   3.362   0.243   1.483  0.3570  0.8032  1.0983
  717TIP3    H223711   3.250   0.341   1.455 -0.1359 -0.0359  0.0608
  718TIP3   OH223712   2.663   6.837   0.118  0.1287 -0.1729 -0.3261
  718TIP3    H123713   2.672   6.781   0.041 -0.5992  1.0696 -1.3619
  718TIP3    H223714   2.749   6.837   0.158  0.3947 -1.2396 -0.8536
  719TIP3   OH223715   0.881   3.234   1.674 -0.7405  0.3469  0.5850
  719TIP3    H123716   0.973   3.250   1.656 -0.8110  1.4056  1.0681
  719TIP3    H223717   0.878   3.213   1.767 -0.8935 -0.5537  0.3827
  720TIP3   OH223718   5.584   2.211   7.654  0.2783 -0.5212 -0.5380
  720TIP3    H123719   5.649   2.243   7.717 -1.3898  1.1843  0.3986
  720TIP3    H223720   5.618   2.241   7.569  0.9220 -0.0028 -0.1116
  721TIP3   OH223721   1.066   3.487   1.337  0.1518  0.0020  0.5156
  721TIP3    H123722   1.093   3.395   1.341 -2.7616 -1.1444 -1.8158
  721TIP3    H223723   1.142   3.533   1.301  1.3471 -1.6390  0.8014
  722TIP3   OH223724   0.886   6.241   6.226  0.1111 -0.0362  0.4964
  722TIP3    H123725   0.970   6.257   6.185  0.4116  2.1639  1.8002
  722TIP3    H223726   0.822   6.243   6.155  1.0802 -1.1720 -0.4248
  723TIP3   OH223727   5.049   1.681   6.503 -0.2349  0.3400 -0.9340
  723TIP3    H123728   4.982   1.746   6.484  0.8415  1.8392  0.2231
  723TIP3    H223729   5.114   1.692   6.433  0.1169  0.7561 -0.5441
  724TIP3   OH223730   3.667   2.578   1.982 -0.2043  0.2362  0.0478
  724TIP3    H123731   3.680   2.524   1.905  0.2543 -1.6803  1.3951
  724TIP3    H223732   3.622   2.521   2.044 -1.7728  2.1386  0.7663
  725TIP3   OH223733   4.780   6.731   2.000  0.5225 -0.1973  0.5304
  725TIP3    H123734   4.792   6.825   1.989 -0.5092 -0.0821  0.3038
  725TIP3    H223735   4.729   6.704   1.923 -3.5640 -0.0519  2.9096
  726TIP3   OH223736   6.500   2.891   7.802 -0.3178 -0.1452  0.0503
  726TIP3    H123737   6.481   2.855   7.888 -0.7710 -0.6525 -0.2592
  726TIP3    H223738   6.593   2.871   7.788 -0.5043 -1.0119 -0.0200
  727TIP3   OH223739   6.315   1.639   6.618  0.5929  0.0293 -0.6974
  727TIP3    H123740   6.289   1.584   6.545 -2.3027  1.3280 -0.7565
  727TIP3    H223741   6.364   1.710   6.578  0.1613  0.0441 -1.2048
  728TIP3   OH223742   4.879   4.940   8.606 -0.3803 -0.2529  0.1252
  728TIP3    H123743   4.857   4.854   8.642  1.2544 -1.7014 -2.0799
  728TIP3    H223744   4.940   4.921   8.535 -1.2444  2.6341 -1.5253
  729TIP3   OH223745   1.216   2.659   8.431  0.4158  0.2814  0.2595
  729TIP3    H123746   1.204   2.610   8.513 -0.4736  1.1031  0.6380
  729TIP3    H223747   1.209   2.751   8.457  2.6165  0.6742 -0.3493
  730TIP3   OH223748   3.956   4.194   1.026  0.0617  0.3757 -0.0582
  730TIP3    H123749   3.922   4.109   1.000  1.2950 -0.1920  0.1040
  730TIP3    H223750   3.887   4.256   1.001 -0.2858 -0.5154 -1.4328
  731TIP3   OH223751   2.396   6.216   6.793  0.9033  0.3063 -0.1097
  731TIP3    H123752   2.314   6.228   6.745  1.1131 -0.9907 -0.8561
  731TIP3    H223753   2.463   6.252   6.735  1.1710 -1.3645 -0.9160
  732TIP3   OH223754   3.725   1.776   0.097 -0.0203  0.0404  0.7971
  732TIP3    H123755   3.789   1.705   0.089  0.6933  0.5310  1.9271
  732TIP3    H223756   3.773   1.847   0.140 -0.4428  1.5578 -1.0667
  733TIP3   OH223757   2.779   0.140   8.000 -0.5040  0.2812 -0.6023
  733TIP3    H123758   2.842   0.145   8.072  1.5697 -2.0548 -2.1198
  733TIP3    H223759   2.780   0.229   7.962  0.5820  0.7517  0.4554
  734TIP3   OH223760   2.600   6.787   7.328 -0.3059 -0.6744  0.0475
  734TIP3    H123761   2.687   6.796   7.290  0.2005 -0.8958  1.1158
  734TIP3    H223762   2.598   6.851   7.399 -1.5518  0.3512 -0.8630
  735TIP3   OH223763   5.251   0.013   1.098  0.2289  0.0194  0.4038
  735TIP3    H123764   5.170  -0.026   1.131 -0.7175  1.3591 -0.2418
  735TIP3    H223765   5.227   0.047   1.011  2.2886 -2.2284 -1.1682
  736TIP3   OH223766   1.283   0.919   8.562  0.4707 -0.6611  0.4628
  736TIP3    H123767   1.262   0.869   8.483  0.9095  0.5592 -0.4538
  736TIP3    H223768   1.353   0.978   8.535 -0.9201  1.3969  1.0973
  737TIP3   OH223769   4.359   2.869   0.884  0.0983 -0.8800 -0.7240
  737TIP3    H123770   4.343   2.801   0.819  0.5711 -0.1497 -1.6454
  737TIP3    H223771   4.306   2.943   0.854  0.9426 -0.2652 -0.7493
  738TIP3   OH223772   0.765   1.183   1.757  0.0605 -0.4762  0.1235
  738TIP3    H123773   0.717   1.105   1.729 -0.8795  0.0835  0.1386
  738TIP3    H223774   0.800   1.160   1.843 -0.9757 -0.5838  0.5369
  739TIP3   OH223775   3.296   6.050   7.213 -0.2197  0.6869 -0.0228
  739TIP3    H123776   3.245   6.016   7.140 -1.8110  1.1118  0.8230
  739TIP3    H223777   3.247   6.022   7.291  0.3908  1.8404  0.8068
  740TIP3   OH223778   2.239   1.259   7.906  0.3860 -0.4725  0.2501
  740TIP3    H123779   2.217   1.313   7.982 -0.9567 -1.1082  0.3427
  740TIP3    H223780   2.260   1.322   7.837 -2.5238  0.3014 -0.0628
  741TIP3   OH223781   0.252   5.793   1.698 -0.0589  0.1045 -0.2299
  741TIP3    H123782   0.225   5.739   1.772  1.4629  1.9028  1.7526
  741TIP3    H223783   0.213   5.750   1.622 -0.6108 -2.5616  1.4305
  742TIP3   OH223784   0.572   6.214   2.071 -0.4000  0.0402 -0.4820
  742TIP3    H123785   0.624   6.153   2.124  0.2483  1.5794  0.7472
  742TIP3    H223786   0.530   6.271   2.135  1.9321  3.2275 -1.5249
  743TIP3   OH223787   0.644   4.947   6.937 -0.0587  0.3281  0.3322
  743TIP3    H123788   0.580   5.002   6.980 -0.6097 -0.0028 -0.0528
  743TIP3    H223789   0.680   5.001   6.867  0.1007  0.5223  0.5645
  744TIP3   OH223790   2.217   5.768   1.695 -0.9420 -0.1143 -0.1487
  744TIP3    H123791   2.134   5.813   1.709 -1.2205  0.2310 -2.4280
  744TIP3    H223792   2.193   5.687   1.651 -0.1391 -0.5211  0.1388
  745TIP3   OH223793   4.718   3.142   1.061  0.3091 -0.0819 -0.3413
  745TIP3    H123794   4.799   3.189   1.042  0.0080  1.1661  1.2584
  745TIP3    H223795   4.706   3.083   0.986  2.5854 -0.1802 -0.6801
  746TIP3   OH223796   5.199   4.324   2.531 -0.4327  0.3722  0.0940
  746TIP3    H123797   5.231   4.409   2.560  0.0867  0.3699 -0.4547
  746TIP3    H223798   5.214   4.266   2.605  2.1164  0.0578 -0.5822
  747TIP3   OH223799   3.607   4.106   2.462 -0.4195 -0.1844 -0.0633
  747TIP3    H123800   3.643   4.192   2.440 -1.2439  0.6768  1.6775
  747TIP3    H223801   3.683   4.051   2.480  0.0966  0.3871 -0.4821
  748TIP3   OH223802   2.589   6.820   1.048  0.3432 -0.8828  0.3034
  748TIP3    H123803   2.632   6.833   0.963  0.8731  0.9253  0.8014
  748TIP3    H223804   2.505   6.865   1.040  1.0898  0.7903  1.2221
  749TIP3   OH223805   3.559   4.276   0.878 -0.1765  0.0408 -0.2468
  749TIP3    H123806   3.622   4.273   0.949  1.4797 -0.8383 -1.6746
  749TIP3    H223807   3.499   4.204   0.895 -1.8533  1.8479  1.9826
  750TIP3   OH223808   4.460   2.886   8.327  0.5779  0.1581 -0.4013
  750TIP3    H123809   4.526   2.894   8.259  0.7618 -1.9041 -0.5292
  750TIP3    H223810   4.459   2.972   8.370  2.9382  0.4187 -0.7349
  751TIP3   OH223811   1.019   2.934   0.612  0.5030 -0.5164 -0.1813
  751TIP3    H123812   0.943   2.879   0.593  0.8199 -0.9486 -0.2228
  751TIP3    H223813   1.081   2.875   0.656  0.0466  0.3019  1.6547
  752TIP3   OH223814   2.555   2.778   1.248 -0.1766  0.1343 -0.2016
  752TIP3    H123815   2.476   2.832   1.249  0.7863  1.5833  0.1805
  752TIP3    H223816   2.556   2.739   1.160 -2.2125 -1.3652  0.3509
  753TIP3   OH223817   1.681   4.534   6.617 -0.2293 -0.0739 -0.0692
  753TIP3    H123818   1.651   4.615   6.657  0.5771 -0.6820  1.8839
  753TIP3    H223819   1.684   4.553   6.523 -0.6436  1.9495  0.2897
  754TIP3   OH223820   0.815   5.917   7.293  0.2848  0.1592  0.5240
  754TIP3    H123821   0.818   5.853   7.364  1.4208 -0.5828 -0.1507
  754TIP3    H223822   0.821   5.864   7.213  1.0855  1.0877 -0.0644
  755TIP3   OH223823   2.910   4.076   1.784 -0.1931 -0.6293  0.2608
  755TIP3    H123824   2.882   4.025   1.708 -0.2046  0.4136 -0.4679
  755TIP3    H223825   2.832   4.123   1.811  0.0580 -0.2059  0.2636
  756TIP3   OH223826   6.567   6.048   2.354  0.2316 -0.1233  0.1808
  756TIP3    H123827   6.662   6.044   2.354  0.3204  1.0330 -0.9913
  756TIP3    H223828   6.547   6.122   2.297 -1.3328  0.6906  1.7021
  757TIP3   OH223829   3.034   2.265   1.916 -0.4518 -0.5373  0.1613
  757TIP3    H123830   3.005   2.206   1.846 -1.2612 -0.5276  0.4810
  757TIP3    H223831   3.112   2.307   1.880 -1.4487  0.2617 -1.1797
  758TIP3   OH223832   0.230   3.632   6.647 -0.1919 -0.1955 -0.2233
  758TIP3    H123833   0.242   3.604   6.738 -0.4066 -0.0833 -0.1606
  758TIP3    H223834   0.318   3.657   6.618 -0.3782  1.4084  0.4941
  759TIP3   OH223835   2.444   4.081   1.799  1.0293  0.3265  0.0420
  759TIP3    H123836   2.481   3.994   1.784  2.0870  1.1007 -2.3937
  759TIP3    H223837   2.397   4.101   1.717 -0.1010  1.6319  0.9633
  760TIP3   OH223838   4.993   3.933   7.169 -0.3719 -0.0450 -0.5058
  760TIP3    H123839   4.978   4.012   7.220 -0.0389 -0.5144  0.3266
  760TIP3    H223840   5.063   3.957   7.108  0.8057 -0.1380  0.7711
  761TIP3   OH223841   4.664   5.103   1.384 -0.2477  0.2027  0.4387
  761TIP3    H123842   4.721   5.027   1.372  0.2757  0.7768 -0.9306
  761TIP3    H223843   4.600   5.075   1.449  1.8020 -0.3443  2.3532
  762TIP3   OH223844   0.671   0.032   7.271  0.3787  0.2708  0.9073
  762TIP3    H123845   0.622  -0.002   7.346 -0.5070 -0.9412 -0.1693
  762TIP3    H223846   0.719  -0.044   7.238  1.4955  1.0102  0.8014
  763TIP3   OH223847   4.496   2.406   8.627  0.0086 -0.3821 -0.5066
  763TIP3    H123848   4.568   2.344   8.617  0.6280  0.1326  0.6101
  763TIP3    H223849   4.429   2.375   8.565  1.4587 -0.4308 -2.1148
  764TIP3   OH223850   4.524   0.692   7.408 -0.2903  0.0172 -0.1203
  764TIP3    H123851   4.578   0.757   7.362  0.2805 -0.0501  0.4383
  764TIP3    H223852   4.545   0.609   7.365 -1.1448  0.2150 -0.9445
  765TIP3   OH223853   6.360   6.457   1.129 -0.2629 -0.5159  0.2530
  765TIP3    H123854   6.439   6.496   1.167 -0.0702 -1.1938  0.5640
  765TIP3    H223855   6.375   6.363   1.135 -1.1451 -0.6545  0.4095
  766TIP3   OH223856   3.121   5.798   7.597  0.0244  0.2351  0.3295
  766TIP3    H123857   3.029   5.799   7.623 -0.0211  0.4629  0.1690
  766TIP3    H223858   3.133   5.881   7.551  0.8295  1.1856  2.1509
  767TIP3   OH223859   2.640   0.606   7.810 -0.1300 -0.6603  0.2831
  767TIP3    H123860   2.668   0.673   7.748 -0.5322  0.2883  1.0878
  767TIP3    H223861   2.615   0.531   7.756 -0.4230  0.1192 -0.6839
  768TIP3   OH223862   2.326   1.893   8.483  0.2995  0.0760 -0.3329
  768TIP3    H123863   2.408   1.869   8.439  0.5252  1.3589 -0.6517
  768TIP3    H223864   2.293   1.968   8.432  0.5702  1.6298  1.6668
  769TIP3   OH223865   4.820   5.462   1.772  0.1387  0.7493  0.1751
  769TIP3    H123866   4.898   5.517   1.772  0.8686 -0.2517 -0.0142
  769TIP3    H223867   4.757   5.508   1.717 -0.1353  2.5378  1.8726
  770TIP3   OH223868   1.534   2.077   8.585 -0.2592 -0.2300 -0.2021
  770TIP3    H123869   1.474   2.002   8.579 -2.8104  1.6927 -0.7823
  770TIP3    H223870   1.556   2.097   8.494 -1.4940  1.0657 -0.2495
  771TIP3   OH223871   6.823   5.651   2.165 -0.4654 -0.2945  0.0374
  771TIP3    H123872   6.811   5.731   2.115 -0.6502  0.0264  0.5898
  771TIP3    H223873   6.815   5.678   2.256  1.4469 -0.5983  0.3273
  772TIP3   OH223874   2.989   1.920   6.812  0.2670  0.4759  0.3526
  772TIP3    H123875   2.900   1.900   6.839  0.2829  0.0602  0.1185
  772TIP3    H223876   2.994   2.015   6.812 -0.1353  0.4979  0.4992
  773TIP3   OH223877   4.478   0.670   8.158  0.3655 -0.1469 -0.7334
  773TIP3    H123878   4.554   0.641   8.209 -0.4737  0.8932  1.2379
  773TIP3    H223879   4.486   0.624   8.075  2.0985 -1.5673  0.1403
  774TIP3   OH223880   2.495   2.203   7.732 -0.0999  0.1550  0.2787
  774TIP3    H123881   2.523   2.192   7.641 -2.0725  1.5615 -0.5824
  774TIP3    H223882   2.571   2.238   7.778  1.0377 -0.9382 -0.7243
  775TIP3   OH223883   4.341   6.400   8.500  0.2322  0.2229 -0.2050
  775TIP3    H123884   4.263   6.452   8.520 -1.5537 -2.8316  1.5329
  775TIP3    H223885   4.311   6.336   8.435  1.4909 -0.5919 -0.0196
  776TIP3   OH223886   5.145   1.558   7.923  0.0236  0.1670 -0.6252
  776TIP3    H123887   5.136   1.473   7.967  0.9102  0.4881  0.2214
  776TIP3    H223888   5.082   1.614   7.968  1.3710  0.6642  0.7400
  777TIP3   OH223889   1.211   4.149   2.431  0.3017 -0.3716 -0.1275
  777TIP3    H123890   1.257   4.232   2.436 -0.1080 -0.1527  0.0902
  777TIP3    H223891   1.146   4.162   2.361 -0.5950 -0.0828  0.7413
  778TIP3   OH223892   6.786   0.355   0.308 -0.4878 -0.4364  0.2348
  778TIP3    H123893   6.714   0.357   0.245 -0.5960  0.4556  0.3740
  778TIP3    H223894   6.744   0.357   0.394 -0.3067 -0.2648  0.3214
  779TIP3   OH223895   3.344   0.704   7.659 -0.0374 -0.2455 -1.0547
  779TIP3    H123896   3.265   0.678   7.707  0.2978  1.1838  0.3481
  779TIP3    H223897   3.354   0.637   7.591 -0.7400 -2.1598  0.6458
  780TIP3   OH223898   6.586   4.081   0.349 -0.1955 -0.4791  0.1005
  780TIP3    H123899   6.496   4.049   0.355 -0.7930  0.6899 -1.8603
  780TIP3    H223900   6.612   4.098   0.440 -2.4248  0.4016  0.6250
  781TIP3   OH223901   5.202   3.655   7.650  0.0408 -0.2104 -0.3206
  781TIP3    H123902   5.140   3.636   7.721  2.1402 -1.4691  1.3055
  781TIP3    H223903   5.171   3.602   7.576 -0.6649 -1.0123  0.5245
  782TIP3   OH223904   3.558   5.389   7.214 -0.1468 -0.4008  0.1016
  782TIP3    H123905   3.483   5.407   7.158  0.7187 -0.1822 -1.0190
  782TIP3    H223906   3.616   5.464   7.202 -0.5307  0.3395  2.3769
  783TIP3   OH223907   4.781   1.427   8.413  0.3737  0.3155 -0.5650
  783TIP3    H123908   4.701   1.478   8.428  0.6010  0.6797 -0.5793
  783TIP3    H223909   4.845   1.464   8.473  0.3305 -0.4654 -0.0226
  784TIP3   OH223910   4.327   2.411   0.544  0.2771  0.0092 -0.3082
  784TIP3    H123911   4.391   2.392   0.613  0.6256 -0.0866 -0.6532
  784TIP3    H223912   4.345   2.345   0.476 -2.1026 -1.9676  0.8029
  785TIP3   OH223913   4.174   1.751   1.705 -0.3841 -0.3166  0.3355
  785TIP3    H123914   4.091   1.704   1.717 -1.1694  1.0833  0.5546
  785TIP3    H223915   4.198   1.780   1.792 -0.1042 -0.0039  0.1556
  786TIP3   OH223916   6.413   4.664   6.566 -0.1946  0.3242  0.3189
  786TIP3    H123917   6.451   4.739   6.611  1.2963 -0.5896  0.6401
  786TIP3    H223918   6.487   4.620   6.524 -0.9819 -1.1312  0.3771
  787TIP3   OH223919   5.760   2.255   7.417  0.3043 -0.3150 -0.0143
  787TIP3    H123920   5.807   2.293   7.491 -2.3250  1.3409  0.9184
  787TIP3    H223921   5.804   2.291   7.340  2.6351 -1.5122  0.6694
  788TIP3   OH223922   4.887   0.462   8.465 -0.1427 -0.3635  0.0992
  788TIP3    H123923   4.803   0.446   8.421 -0.6690 -0.1706  1.0007
  788TIP3    H223924   4.863   0.510   8.545  0.5851 -2.2126  1.5064
  789TIP3   OH223925   4.972   0.532   2.256  0.2408 -0.0982 -0.0710
  789TIP3    H123926   4.919   0.453   2.259  1.0503 -0.6577 -0.0956
  789TIP3    H223927   4.935   0.584   2.185 -1.2631  0.2677  0.9481
  790TIP3   OH223928   1.094   4.262   8.008 -0.7587 -0.5347 -0.2296
  790TIP3    H123929   1.184   4.295   8.002 -0.8731  0.2711  1.7048
  790TIP3    H223930   1.062   4.262   7.918  0.9287 -0.1237 -0.8663
  791TIP3   OH223931   4.084   1.900   2.515 -0.2275 -0.1440 -0.1492
  791TIP3    H123932   4.088   1.815   2.560 -0.4005 -0.0047  0.1329
  791TIP3    H223933   4.171   1.912   2.479  0.0676 -0.0176  0.5975
  792TIP3   OH223934   6.044   1.009   6.470  0.1683  0.1098  0.2926
  792TIP3    H123935   5.999   1.093   6.461 -0.1252 -0.0531  0.2089
  792TIP3    H223936   6.052   0.996   6.564 -0.0366  0.1024  0.3107
  793TIP3   OH223937   2.981   4.933   8.414 -0.0269 -0.5276  0.0600
  793TIP3    H123938   2.888   4.948   8.433 -0.3661  0.3798 -2.0318
  793TIP3    H223939   3.008   5.011   8.365  0.3696 -2.9009 -3.9941
  794TIP3   OH223940   1.995   3.892   0.466 -0.4248  1.0073  0.4371
  794TIP3    H123941   2.058   3.962   0.451  0.1126  0.2288 -1.2064
  794TIP3    H223942   1.917   3.919   0.418 -0.6033  0.9610  0.6950
  795TIP3   OH223943   1.814   1.015   7.113  0.4987 -0.7239 -0.7020
  795TIP3    H123944   1.725   0.991   7.136  0.8225 -0.9461  0.3497
  795TIP3    H223945   1.846   1.067   7.187  0.7678  0.6000 -1.6898
  796TIP3   OH223946   4.597   3.668   7.479 -0.9434  0.0556 -0.1824
  796TIP3    H123947   4.567   3.594   7.532  0.6209 -1.5058 -1.3570
  796TIP3    H223948   4.595   3.742   7.539 -0.0284 -1.4674  1.8811
  797TIP3   OH223949   4.397   4.198   0.790  0.5404  0.1651 -0.2353
  797TIP3    H123950   4.472   4.238   0.747  0.1417  0.2730 -0.8383
  797TIP3    H223951   4.395   4.238   0.877 -0.3265  2.1176 -1.0873
  798TIP3   OH223952   3.726   0.064   0.481  0.6052  0.6189 -0.1985
  798TIP3    H123953   3.712   0.033   0.571  1.1232  1.6166  0.2347
  798TIP3    H223954   3.748   0.157   0.490 -1.2601  1.2642 -1.4752
  799TIP3   OH223955   0.037   6.518   1.318 -0.1269  0.3908 -0.2762
  799TIP3    H123956   0.116   6.571   1.314  0.2226 -0.1430 -0.5198
  799TIP3    H223957   0.057   6.441   1.265 -0.8346  0.2864 -0.4022
  800TIP3   OH223958   0.459   4.256   0.656 -0.0108 -0.5649 -0.4581
  800TIP3    H123959   0.537   4.259   0.601  0.1365  0.6880 -0.2043
  800TIP3    H223960   0.386   4.270   0.595  0.2477  2.5512 -0.1990
  801TIP3   OH223961   5.978   2.346   1.656  0.4305  0.7267 -0.2280
  801TIP3    H123962   5.900   2.291   1.662 -0.1466  1.6161  0.9083
  801TIP3    H223963   6.050   2.284   1.639 -0.2886 -0.2935  0.3229
  802TIP3   OH223964   0.992   4.543   7.753 -0.4777  0.2688  0.1278
  802TIP3    H123965   0.985   4.567   7.661 -0.3789 -1.9126 -0.5003
  802TIP3    H223966   0.979   4.448   7.755 -2.0642  0.4151  2.5391
  803TIP3   OH223967   2.354   6.383   1.869  0.1125 -0.1399 -0.0966
  803TIP3    H123968   2.289   6.421   1.928 -0.7348  0.0840 -1.1478
  803TIP3    H223969   2.358   6.291   1.894 -0.4684 -0.1129  0.1110
  804TIP3   OH223970   2.001   2.006   7.006 -0.0257 -0.0308  0.4566
  804TIP3    H123971   2.074   2.007   6.944 -0.7425 -0.1221 -0.4052
  804TIP3    H223972   2.019   2.079   7.065 -0.7090  1.8816 -1.5282
  805TIP3   OH223973   2.277   1.751   1.239 -0.4291  0.0348  0.1888
  805TIP3    H123974   2.286   1.769   1.146 -1.5460 -3.1095 -0.6538
  805TIP3    H223975   2.195   1.795   1.265 -1.0140 -0.4787 -0.7499
  806TIP3   OH223976   0.148   5.001   1.055 -0.2481  0.4639 -0.6690
  806TIP3    H123977   0.235   5.039   1.060  0.3633 -1.0705  1.5532
  806TIP3    H223978   0.153   4.940   0.981  0.2030  1.1349 -1.2073
  807TIP3   OH223979   5.040   6.742   8.259 -0.3941  0.1506 -0.2585
  807TIP3    H123980   4.949   6.755   8.233 -0.3447 -1.1482 -1.1476
  807TIP3    H223981   5.090   6.748   8.178  0.0289 -1.5966 -0.1610
  808TIP3   OH223982   0.960   3.349   2.571  0.4241  0.4623  0.1913
  808TIP3    H123983   0.939   3.433   2.530  0.8205  0.3535 -0.2468
  808TIP3    H223984   0.979   3.291   2.497  3.0367  0.7494  0.5617
  809TIP3   OH223985   1.366   2.999   8.079 -0.1620  0.0444 -0.1536
  809TIP3    H123986   1.400   2.934   8.140 -0.3324  1.6203  1.7273
  809TIP3    H223987   1.444   3.042   8.044 -0.0850 -0.1095 -0.1687
  810TIP3   OH223988   2.366   6.836   7.182  0.3588  0.3670  0.3856
  810TIP3    H123989   2.388   6.913   7.129  0.1834 -0.5186 -1.0222
  810TIP3    H223990   2.444   6.822   7.237  1.0470  0.5820 -0.5191
  811TIP3   OH223991   6.310   4.469   2.010  0.1148 -0.0413 -0.1667
  811TIP3    H123992   6.261   4.543   2.048 -0.9832  0.7729 -2.8755
  811TIP3    H223993   6.402   4.493   2.021 -0.0677 -0.2981  2.6229
  812TIP3   OH223994   6.138   3.588   8.089 -0.4682 -0.5171  0.0255
  812TIP3    H123995   6.056   3.576   8.041  1.6728 -0.9769 -4.0442
  812TIP3    H223996   6.158   3.681   8.078 -0.3226 -0.4610  0.7617
  813TIP3   OH223997   3.869   0.738   0.505 -0.8202  0.3866  0.3854
  813TIP3    H123998   3.838   0.766   0.419 -0.6895 -2.0628 -0.5193
  813TIP3    H223999   3.928   0.665   0.488  0.0639  0.5096  2.5081
  814TIP3   OH224000   4.034   2.910   7.102 -0.8103 -0.3842  0.0751
  814TIP3    H124001   4.041   2.883   7.010 -2.0581  0.9311 -0.4412
  814TIP3    H224002   4.090   2.987   7.109  0.2759 -1.2124  0.7569
  815TIP3   OH224003   5.659   2.265   7.959 -0.2568 -0.4992 -0.0130
  815TIP3    H124004   5.587   2.217   8.001  0.1263 -0.4428  0.7250
  815TIP3    H224005   5.729   2.200   7.950  0.1763 -0.1467  0.7644
  816TIP3   OH224006   5.368   1.597   7.213  0.1135  0.0527 -0.5055
  816TIP3    H124007   5.322   1.680   7.202 -0.3249  0.0266  0.9226
  816TIP3    H224008   5.445   1.604   7.156  0.3605  1.6450 -0.0256
  817TIP3   OH224009   0.907   2.747   6.786 -0.3871  0.3911 -0.2994
  817TIP3    H124010   0.855   2.707   6.717  1.0293 -1.8279 -0.1870
  817TIP3    H224011   0.995   2.752   6.750  0.0706  0.6169  0.8006
  818TIP3   OH224012   1.252   1.588   7.089  0.1864  0.0751 -0.0738
  818TIP3    H124013   1.161   1.562   7.096  0.3550 -0.0943  2.0923
  818TIP3    H224014   1.289   1.530   7.022 -0.9633 -0.8057  0.0287
  819TIP3   OH224015   6.358   3.903   0.441 -0.1889  0.6563  0.1128
  819TIP3    H124016   6.272   3.862   0.445  0.3145 -0.4804 -0.2909
  819TIP3    H224017   6.414   3.847   0.494  0.7229  0.2700 -1.1984
  820TIP3   OH224018   1.366   3.639   7.294 -0.1918 -0.3853 -0.1494
  820TIP3    H124019   1.347   3.552   7.327 -1.3002  0.1197  0.5997
  820TIP3    H224020   1.437   3.626   7.231  0.5036 -1.6580  0.8495
  821TIP3   OH224021   0.234   0.421   0.816  0.3999  0.1493 -0.3825
  821TIP3    H124022   0.156   0.475   0.809 -0.1448 -0.3355  1.3672
  821TIP3    H224023   0.227   0.359   0.744 -1.0732 -0.1723  0.0109
  822TIP3   OH224024   3.382   5.349   8.239  0.2247  0.4259  0.4156
  822TIP3    H124025   3.395   5.438   8.270 -0.5601  0.9085 -0.5828
  822TIP3    H224026   3.320   5.357   8.167 -0.2865 -0.9923  0.6604
  823TIP3   OH224027   6.281   2.895   1.452  0.4442 -0.1377 -0.6665
  823TIP3    H124028   6.272   2.820   1.394  1.5779 -0.2369 -0.7315
  823TIP3    H224029   6.336   2.957   1.403 -0.4678  0.7471 -0.6147
  824TIP3   OH224030   0.087   3.741   0.750  0.2907 -0.1162  0.3094
  824TIP3    H124031   0.097   3.647   0.764 -2.2876 -0.6469 -0.9159
  824TIP3    H224032   0.084   3.751   0.655 -0.0048  1.1476  0.4379
  825TIP3   OH224033   0.971   5.578   6.250 -0.3739 -0.3553 -0.0050
  825TIP3    H124034   0.952   5.669   6.228 -1.2348 -0.5155  0.0267
  825TIP3    H224035   0.889   5.546   6.288  0.4354 -0.6561  1.5744
  826TIP3   OH224036   2.544   4.002   6.725  0.0519  0.6009  0.0771
  826TIP3    H124037   2.596   4.036   6.652 -0.2462  2.4626  0.6764
  826TIP3    H224038   2.453   4.017   6.698 -0.0891  0.2932  0.3779
  827TIP3   OH224039   0.210   6.641   1.014 -0.1679 -0.4547  0.4807
  827TIP3    H124040   0.240   6.567   1.066  0.5027  0.1944  1.0300
  827TIP3    H224041   0.119   6.654   1.041  0.2184 -0.0277  1.6119
  828TIP3   OH224042   0.691   6.557   7.404  0.4517 -0.2721 -0.3283
  828TIP3    H124043   0.686   6.464   7.382  0.4412 -0.3480 -0.0199
  828TIP3    H224044   0.778   6.584   7.377  0.1392 -0.1517 -1.2402
  829TIP3   OH224045   0.910   6.363   7.558  0.1079 -0.1518 -0.0371
  829TIP3    H124046   0.901   6.343   7.651  2.0151 -2.9876 -0.3068
  829TIP3    H224047   0.878   6.285   7.513  1.8752 -0.0684 -1.6024
  830TIP3   OH224048   6.031   2.527   7.614  0.2275  0.6379 -0.1240
  830TIP3    H124049   6.007   2.588   7.544  0.7018  0.0974 -0.7764
  830TIP3    H224050   6.118   2.555   7.641  0.4287  0.2748 -0.3969
  831TIP3   OH224051   4.746   4.465   0.087 -0.1283  0.3013  0.1462
  831TIP3    H124052   4.781   4.376   0.091 -0.1002  0.2507 -0.8429
  831TIP3    H224053   4.723   4.486   0.177  0.1446 -0.5963  0.4378
  832TIP3   OH224054   2.381   1.573   1.030  0.5093  0.2481 -0.1090
  832TIP3    H124055   2.385   1.604   0.940  0.8307  0.9692  0.1488
  832TIP3    H224056   2.288   1.555   1.045  0.3752  0.6895 -0.3954
  833TIP3   OH224057   2.587   4.311   7.068  0.0632  0.2643  0.6314
  833TIP3    H124058   2.599   4.250   7.140 -0.3318  0.7801  1.1429
  833TIP3    H224059   2.673   4.314   7.025 -0.3052 -1.8021 -0.3568
  834TIP3   OH224060   1.489   0.252   8.666 -0.0211 -0.1643  0.0558
  834TIP3    H124061   1.433   0.319   8.705  0.2058 -0.5274  1.0203
  834TIP3    H224062   1.577   0.274   8.696 -0.1522 -1.9505  1.9641
  835TIP3   OH224063   0.919   1.886   8.476 -0.4298  0.5781 -0.3095
  835TIP3    H124064   0.984   1.886   8.406 -0.3541 -1.2027 -0.2977
  835TIP3    H224065   0.971   1.877   8.557 -0.6396 -1.0328 -0.3125
  836TIP3   OH224066   4.786   1.367   7.119 -0.1882  0.5614 -0.3142
  836TIP3    H124067   4.775   1.446   7.067  1.8912  0.3482 -1.1666
  836TIP3    H224068   4.868   1.381   7.168 -1.2217  0.0616  1.6792
  837TIP3   OH224069   1.420   5.208   0.475  0.2336  0.1718 -0.0288
  837TIP3    H124070   1.401   5.297   0.507 -0.3746 -0.0520  0.2620
  837TIP3    H224071   1.383   5.151   0.542  1.7524 -0.3120  0.4206
  838TIP3   OH224072   4.136   5.060   0.336  0.0642 -0.5736 -0.4886
  838TIP3    H124073   4.224   5.044   0.371  0.2635 -1.6713 -1.4387
  838TIP3    H224074   4.078   5.048   0.410  0.6497 -0.6350 -0.0313
  839TIP3   OH224075   4.269   4.313   8.475 -0.7120  0.3171  0.0365
  839TIP3    H124076   4.196   4.259   8.443  0.3199  0.4412 -2.7723
  839TIP3    H224077   4.341   4.295   8.415  1.3031  0.9984  2.0918
  840TIP3   OH224078   1.392   1.296   8.012 -0.0046 -0.3292  0.2039
  840TIP3    H124079   1.463   1.236   7.989 -0.3011 -0.7452  0.3629
  840TIP3    H224080   1.337   1.246   8.072 -1.4589 -0.6891 -1.3428
  841TIP3   OH224081   4.727   2.498   1.566 -0.7050  0.0433  0.6380
  841TIP3    H124082   4.805   2.469   1.519 -1.2263  1.1657 -1.0386
  841TIP3    H224083   4.760   2.546   1.642  0.2179 -0.1164  0.3434
  842TIP3   OH224084   5.102   1.743   0.353  0.3160  0.0650  0.1649
  842TIP3    H124085   5.034   1.803   0.382 -1.3076 -2.0808  1.0349
  842TIP3    H224086   5.095   1.668   0.411  0.5520 -2.0802 -2.3803
  843TIP3   OH224087   2.820   0.679   8.412  0.0253  0.0398  0.6038
  843TIP3    H124088   2.861   0.663   8.497 -1.5925 -1.7249  1.1282
  843TIP3    H224089   2.867   0.623   8.351  0.1035  0.0111  0.6905
  844TIP3   OH224090   6.071   3.337   0.774 -0.3307 -0.0240  0.3857
  844TIP3    H124091   6.074   3.242   0.787  2.3929 -0.2162 -0.8994
  844TIP3    H224092   6.077   3.373   0.862  2.3290 -1.1303  0.7579
  845TIP3   OH224093   3.818   6.593   1.201 -0.0067 -0.2121  0.4696
  845TIP3    H124094   3.727   6.590   1.230  0.5255 -1.1733  2.2137
  845TIP3    H224095   3.836   6.503   1.172  0.5427 -0.1779  0.6938
  846TIP3   OH224096   1.966   5.898   1.595  0.5068  0.2252  0.1464
  846TIP3    H124097   1.993   5.968   1.655  1.9459 -0.8855  0.8546
  846TIP3    H224098   1.994   5.929   1.509 -0.4225  1.2675  0.1922
  847TIP3   OH224099   0.412   2.614   0.041  0.2022  0.2531  0.2476
  847TIP3    H124100   0.466   2.663   0.104  0.4448  0.6022 -0.2295
  847TIP3    H224101   0.446   2.525   0.044  2.3052  0.9057 -1.6507
  848TIP3   OH224102   6.244   4.325   1.734  0.0384 -0.0503  0.2212
  848TIP3    H124103   6.170   4.309   1.676  0.8254 -1.0987 -0.5467
  848TIP3    H224104   6.205   4.352   1.817 -1.1468  0.5839 -0.5173
  849TIP3   OH224105   0.328   4.378   7.307  0.4278 -0.5600 -0.0406
  849TIP3    H124106   0.422   4.397   7.300  0.7197 -2.2857 -1.3098
  849TIP3    H224107   0.300   4.362   7.217 -0.9633 -0.6756  0.3967
  850TIP3   OH224108   1.875   5.510   1.600 -0.0445  0.4531  0.2780
  850TIP3    H124109   1.822   5.589   1.609 -2.6006 -1.0880 -0.1667
  850TIP3    H224110   1.848   5.455   1.673 -1.3626 -1.5648 -1.6123
  851TIP3   OH224111   2.886   2.305   1.334 -0.0810 -0.0451 -0.0754
  851TIP3    H124112   2.795   2.283   1.351  0.0334 -2.0348 -1.6479
  851TIP3    H224113   2.917   2.345   1.415 -2.5450  1.5494  0.1880
  852TIP3   OH224114   4.442   3.981   1.064 -0.0514  0.2262 -0.5235
  852TIP3    H124115   4.374   3.917   1.084 -1.1167  1.5260  0.1417
  852TIP3    H224116   4.394   4.062   1.045  1.3279  1.4254  0.8852
  853TIP3   OH224117   4.590   0.201   0.813 -0.7965 -0.5321 -0.3808
  853TIP3    H124118   4.581   0.219   0.719  0.4710 -0.2250 -0.4580
  853TIP3    H224119   4.682   0.219   0.832 -0.8947 -1.2008  0.7990
  854TIP3   OH224120   1.526   1.364   7.042 -0.6188  0.3542  0.7467
  854TIP3    H124121   1.568   1.289   7.084 -0.4225  0.0821  0.0747
  854TIP3    H224122   1.432   1.347   7.052 -0.5833  0.5808  1.5693
  855TIP3   OH224123   3.015   4.922   7.574  0.5581 -0.3942 -0.6510
  855TIP3    H124124   3.106   4.894   7.576 -0.4854 -4.4074 -1.3227
  855TIP3    H224125   2.969   4.860   7.631 -1.9587  0.6330 -1.4134
  856TIP3   OH224126   2.877   1.190   2.313 -0.3509  0.0368 -0.0650
  856TIP3    H124127   2.962   1.154   2.339 -1.2335 -2.8255 -0.7088
  856TIP3    H224128   2.816   1.116   2.322 -2.5834  1.6642 -0.7144
  857TIP3   OH224129   3.125   4.355   0.313 -0.4119 -0.0188  0.6003
  857TIP3    H124130   3.087   4.268   0.303 -1.3932  0.4157  0.4185
  857TIP3    H224131   3.198   4.343   0.374 -0.6751 -0.9295  0.7418
  858TIP3   OH224132   1.569   2.182   7.035  0.2922  0.2363 -0.1270
  858TIP3    H124133   1.579   2.259   6.978  0.2559  0.2210 -0.1547
  858TIP3    H224134   1.475   2.178   7.053  0.3091  0.2645 -0.0326
  859TIP3   OH224135   4.835   5.082   0.118 -0.2367 -0.5493 -0.5396
  859TIP3    H124136   4.815   5.062   0.026  1.0238  0.7012 -1.1283
  859TIP3    H224137   4.892   5.159   0.113 -2.1837  1.1321  1.4170
  860TIP3   OH224138   6.326   0.326   8.022  0.1897 -0.8043 -0.3134
  860TIP3    H124139   6.315   0.307   7.929 -2.5622  0.0687 -0.2391
  860TIP3    H224140   6.323   0.422   8.028 -0.9575 -0.8829  0.7813
  861TIP3   OH224141   6.234   1.660   0.426  0.2351 -0.5070 -0.7068
  861TIP3    H124142   6.312   1.607   0.410  0.5396  0.1768 -1.5884
  861TIP3    H224143   6.204   1.633   0.513  1.8669 -0.2900 -0.0383
  862TIP3   OH224144   6.137   2.968   6.798  0.0280  0.6670  1.0499
  862TIP3    H124145   6.045   2.990   6.785 -0.0519  1.3575  2.5696
  862TIP3    H224146   6.184   3.029   6.742 -0.4608 -1.7513 -2.2518
  863TIP3   OH224147   2.561   5.705   8.312  0.1200 -0.0494  0.3641
  863TIP3    H124148   2.522   5.626   8.348  2.4235 -0.8935  1.1875
  863TIP3    H224149   2.535   5.774   8.373 -1.5369 -0.2123 -0.1165
  864TIP3   OH224150   3.148   3.265   1.206  0.2101 -0.3332  0.1458
  864TIP3    H124151   3.091   3.287   1.279  1.7543 -1.5727  1.8130
  864TIP3    H224152   3.089   3.243   1.134 -1.4503 -2.1888  1.9691
  865TIP3   OH224153   1.450   3.249   8.282 -0.3130 -0.1935  0.0135
  865TIP3    H124154   1.538   3.289   8.283 -0.5579  0.4384 -1.3431
  865TIP3    H224155   1.466   3.157   8.302  0.5642  0.0498  0.5454
  866TIP3   OH224156   6.753   4.333   8.137 -0.5148 -0.2596  0.0127
  866TIP3    H124157   6.812   4.408   8.130  0.3786 -0.8712  0.7880
  866TIP3    H224158   6.798   4.262   8.091 -0.4800 -0.8261  0.9060
  867TIP3   OH224159   1.248   5.179   8.423 -0.0183  0.5417  0.5113
  867TIP3    H124160   1.185   5.215   8.485 -0.0776 -1.9701  2.0556
  867TIP3    H224161   1.194   5.137   8.356 -0.0325 -0.7625  1.3095
  868TIP3   OH224162   2.858   2.284   7.312  0.3476 -0.3717  0.3244
  868TIP3    H124163   2.853   2.379   7.319 -1.8607 -0.5361  2.0592
  868TIP3    H224164   2.798   2.261   7.242 -0.5988 -0.5724  1.1814
  869TIP3   OH224165   3.944   2.873   1.746 -0.3925 -0.1563 -0.3700
  869TIP3    H124166   3.984   2.893   1.661  0.7715 -0.9643 -0.0468
  869TIP3    H224167   4.008   2.904   1.810 -0.7800 -0.4991  0.1940
  870TIP3   OH224168   5.750   1.753   2.322  0.1367 -0.3015  0.1297
  870TIP3    H124169   5.842   1.771   2.341  0.0788 -0.5540  0.6682
  870TIP3    H224170   5.715   1.835   2.289 -0.0431  0.4746  2.1792
  871TIP3   OH224171   4.589   4.824   8.271  0.1214  0.8427 -0.1172
  871TIP3    H124172   4.638   4.842   8.191  0.0458 -1.0449 -0.6360
  871TIP3    H224173   4.651   4.780   8.328 -0.9054 -1.6495 -0.8095
  872TIP3   OH224174   6.839   5.118   8.468  0.4838 -0.1838 -0.2442
  872TIP3    H124175   6.777   5.099   8.398 -0.5968  1.5911  0.1776
  872TIP3    H224176   6.806   5.068   8.543 -2.5781  3.2039  0.9784
  873TIP3   OH224177   5.765   3.850   0.706  0.4365  0.8066  0.2592
  873TIP3    H124178   5.754   3.850   0.611 -0.5761 -0.8019  0.3267
  873TIP3    H224179   5.810   3.932   0.726  1.1260  0.9343 -1.6533
  874TIP3   OH224180   6.529   5.809   0.880  0.1699  0.4680 -0.1622
  874TIP3    H124181   6.601   5.751   0.907 -0.6873  0.4083  2.3132
  874TIP3    H224182   6.560   5.850   0.799  2.9395  0.3548  0.7170
  875TIP3   OH224183   0.668   3.957   7.099  0.4008 -0.2010 -0.1580
  875TIP3    H124184   0.738   3.966   7.163  1.4215 -2.4454 -0.8549
  875TIP3    H224185   0.669   3.864   7.075 -2.4490 -0.2175 -0.6246
  876TIP3   OH224186   5.981   2.944   8.239  0.2326 -0.8874 -0.1544
  876TIP3    H124187   5.920   3.016   8.231  0.1847 -0.8178  0.7332
  876TIP3    H224188   5.984   2.905   8.152 -1.0326 -0.8627 -0.2269
  877TIP3   OH224189   0.431   0.322   7.120 -0.0493 -0.1761 -0.1369
  877TIP3    H124190   0.406   0.408   7.155 -0.0644 -0.4027  0.4062
  877TIP3    H224191   0.468   0.342   7.033  0.4267  0.4379  0.1945
  878TIP3   OH224192   6.841   5.771   6.464 -0.1216 -0.0391 -0.1393
  878TIP3    H124193   6.759   5.724   6.451 -0.6049  1.3469 -2.6864
  878TIP3    H224194   6.900   5.736   6.397  0.5196  0.7668 -0.0108
  879TIP3   OH224195   0.832   4.815   7.711 -0.0405 -0.2918 -0.7530
  879TIP3    H124196   0.776   4.759   7.657  0.4216 -0.8623 -0.6608
  879TIP3    H224197   0.887   4.861   7.648  0.4609 -0.9158 -0.7815
  880TIP3   OH224198   1.856   0.580   8.188  0.5997  0.0630  0.1523
  880TIP3    H124199   1.836   0.489   8.164  0.4839  0.3526 -0.8668
  880TIP3    H224200   1.919   0.572   8.259  0.9054 -0.8180 -0.2037
  881TIP3   OH224201   2.610   4.280   0.026 -0.9389 -0.2220  0.1480
  881TIP3    H124202   2.527   4.232   0.030 -0.7074 -0.6991 -0.5733
  881TIP3    H224203   2.649   4.267   0.112 -1.1111 -0.9187  0.1269
  882TIP3   OH224204   5.486   5.308   8.172 -0.4364 -0.3321  0.2403
  882TIP3    H124205   5.501   5.290   8.264 -0.0550  3.5110  1.1031
  882TIP3    H224206   5.556   5.368   8.147 -1.8431  0.5831 -1.8642
  883TIP3   OH224207   0.973   0.542   8.136 -0.6362  0.2347 -0.0027
  883TIP3    H124208   1.031   0.469   8.114 -1.1509 -0.5976  1.2662
  883TIP3    H224209   0.996   0.565   8.226 -1.5198  0.6359  0.1340
  884TIP3   OH224210   2.483   0.347   1.187 -0.4330  0.1594  0.4397
  884TIP3    H124211   2.471   0.304   1.102  0.3559 -0.3140  0.5629
  884TIP3    H224212   2.553   0.297   1.230 -0.6872  0.5164  1.2886
  885TIP3   OH224213   4.843   0.730   7.078 -0.5779 -0.0197 -0.0480
  885TIP3    H124214   4.820   0.644   7.113 -2.6424 -0.1768 -1.5910
  885TIP3    H224215   4.845   0.787   7.155  1.5820 -1.4993  1.1158
  886TIP3   OH224216   1.780   6.071   7.454 -0.0057 -0.3347 -0.3156
  886TIP3    H124217   1.745   5.986   7.425  2.2086 -0.8178 -1.8752
  886TIP3    H224218   1.775   6.126   7.376 -0.1197  0.5108  0.2879
  887TIP3   OH224219   4.730   2.006   2.097 -0.0584 -0.2245 -0.1343
  887TIP3    H124220   4.815   2.013   2.054 -0.5443  2.3702 -0.8013
  887TIP3    H224221   4.744   1.942   2.167  1.9684 -1.0956 -1.2430
  888TIP3   OH224222   0.748   5.498   8.193 -0.7359  0.0220  0.4346
  888TIP3    H124223   0.808   5.433   8.154 -3.0836 -0.4972 -2.6906
  888TIP3    H224224   0.792   5.526   8.273  2.4815 -2.1327 -0.3877
  889TIP3   OH224225   6.156   0.564   7.402 -0.1619 -0.1031 -0.3359
  889TIP3    H124226   6.158   0.470   7.388 -0.9604 -0.0951 -0.5767
  889TIP3    H224227   6.121   0.600   7.320  1.9312  0.5850 -0.9776
  890TIP3   OH224228   3.709   1.323   7.950 -0.4470 -0.5860  0.0226
  890TIP3    H124229   3.803   1.325   7.934 -0.5638  2.3369 -0.9896
  890TIP3    H224230   3.699   1.350   8.041 -0.2832 -0.2987 -0.0401
  891TIP3   OH224231   4.287   0.080   1.181  0.2896  0.5882  0.4362
  891TIP3    H124232   4.301   0.100   1.089  1.8333  2.9879  1.0914
  891TIP3    H224233   4.228   0.005   1.181 -0.0632  0.7607 -2.4795
  892TIP3   OH224234   2.814   5.182   6.010 -0.4054 -0.1444  0.1032
  892TIP3    H124235   2.866   5.184   6.090 -1.1109  0.1635  0.5630
  892TIP3    H224236   2.873   5.147   5.944 -0.2715 -1.8845  1.0933
  893TIP3   OH224237   3.123   6.733   6.396 -0.9789  0.0135  0.0300
  893TIP3    H124238   3.079   6.806   6.440 -1.3705 -0.0136 -0.3157
  893TIP3    H224239   3.186   6.701   6.460 -0.8939  0.5778  0.2303
  894TIP3   OH224240   0.451   0.503   1.219  0.4835  0.1209 -0.0165
  894TIP3    H124241   0.357   0.491   1.202  0.7567 -0.0636 -1.5873
  894TIP3    H224242   0.476   0.575   1.160  1.4430 -0.2110 -0.0237
  895TIP3   OH224243   3.398   4.783   7.000  0.0831  0.0124  0.2361
  895TIP3    H124244   3.356   4.697   7.000  0.2349 -0.0602  0.6235
  895TIP3    H224245   3.325   4.845   6.996 -0.1198 -0.0905  1.7633
  896TIP3   OH224246   2.289   3.571   7.072 -0.0637 -0.1848 -0.4961
  896TIP3    H124247   2.204   3.612   7.060  0.7248  1.7783  0.0756
  896TIP3    H224248   2.272   3.493   7.124 -1.2839  1.4789  1.7860
  897TIP3   OH224249   6.620   4.443   6.645 -0.1957  0.7734 -0.4622
  897TIP3    H124250   6.673   4.516   6.614 -0.6259  0.7595 -1.2501
  897TIP3    H224251   6.573   4.413   6.567  0.7059 -0.9741 -0.3969
  898TIP3   OH224252   1.754   3.754   6.788 -0.5829 -0.0554  0.7294
  898TIP3    H124253   1.672   3.769   6.836 -0.3900  0.6464  0.8530
  898TIP3    H224254   1.765   3.659   6.788 -2.2478 -0.2905 -0.7154
  899TIP3   OH224255   3.184   2.160   8.010  0.6443 -0.3800 -0.3875
  899TIP3    H124256   3.135   2.205   8.080 -0.2189 -0.8871 -0.6413
  899TIP3    H224257   3.167   2.212   7.932 -2.4416 -2.3552 -1.2406
  900TIP3   OH224258   2.166   5.108   7.624 -0.1143  0.7603  0.2907
  900TIP3    H124259   2.206   5.091   7.709 -0.7164  2.0688  0.8520
  900TIP3    H224260   2.113   5.030   7.607 -0.0038  0.4955  1.1163
  901TIP3   OH224261   1.886   1.533   0.705  0.6690 -0.2095  0.2913
  901TIP3    H124262   1.901   1.600   0.772 -0.8944  1.1526 -0.6657
  901TIP3    H224263   1.804   1.491   0.731  1.6578 -1.8511  0.9072
  902TIP3   OH224264   3.336   2.613   8.136 -0.7299 -0.5305 -0.2013
  902TIP3    H124265   3.325   2.550   8.207  0.2878  0.6850  1.1028
  902TIP3    H224266   3.393   2.569   8.073 -1.1755 -1.4234  0.0110
  903TIP3   OH224267   0.780   1.341   6.499 -0.2199 -1.3405  0.0532
  903TIP3    H124268   0.857   1.396   6.513 -0.7517 -0.5895  0.0916
  903TIP3    H224269   0.706   1.402   6.505 -0.8366 -2.1113  0.4009
  904TIP3   OH224270   4.115   3.234   1.673 -0.1068 -0.1723  0.1150
  904TIP3    H124271   4.201   3.255   1.638 -0.5189 -0.8005 -1.3471
  904TIP3    H224272   4.129   3.226   1.767  1.0804  1.3655  0.1078
  905TIP3   OH224273   6.562   0.874   7.463  0.4218  0.4519 -0.5788
  905TIP3    H124274   6.597   0.822   7.534 -2.0182  1.7045  1.7010
  905TIP3    H224275   6.488   0.823   7.430 -0.9947  1.6470  0.6142
  906TIP3   OH224276   1.299   1.047   7.388 -0.1370  0.5426 -0.2587
  906TIP3    H124277   1.341   1.107   7.450  1.4314 -0.6852 -0.0508
  906TIP3    H224278   1.215   1.087   7.369  0.0343  1.8035  1.3794
  907TIP3   OH224279   1.174   6.184   1.434 -0.3841  0.0163 -0.2548
  907TIP3    H124280   1.171   6.088   1.433 -0.6110 -0.0716  2.1590
  907TIP3    H224281   1.087   6.211   1.404  0.4039 -0.3838 -3.2549
  908TIP3   OH224282   6.590   3.698   2.080  0.1294  0.1538  0.2481
  908TIP3    H124283   6.585   3.757   2.005  0.7398  0.7841  0.6905
  908TIP3    H224284   6.559   3.614   2.047  1.1026  0.2226 -0.9224
  909TIP3   OH224285   3.987   2.402   6.929  0.0562  0.2745 -0.7024
  909TIP3    H124286   3.932   2.448   6.865  0.5621  0.2951 -1.1254
  909TIP3    H224287   3.929   2.335   6.966 -1.1017  2.0627  0.8824
  910TIP3   OH224288   4.191   4.118   0.616  0.4637 -0.4738  0.3170
  910TIP3    H124289   4.172   4.194   0.561 -0.0146  0.1568  1.3212
  910TIP3    H224290   4.274   4.140   0.659  1.1145 -1.1989 -0.5459
  911TIP3   OH224291   4.976   5.749   7.109  0.1516  0.3894  0.1699
  911TIP3    H124292   4.984   5.682   7.041  2.4723  2.2667 -1.5549
  911TIP3    H224293   4.884   5.775   7.107  0.1759  0.5066 -2.4410
  912TIP3   OH224294   0.894   4.301   2.550 -0.2314  0.2920  0.7541
  912TIP3    H124295   0.829   4.255   2.603  0.0600 -0.3831  0.5338
  912TIP3    H224296   0.957   4.234   2.524 -0.0414  0.7218  0.0470
  913TIP3   OH224297   6.778   2.759   8.038  0.4973 -0.2835  0.0362
  913TIP3    H124298   6.804   2.770   7.946  2.8210 -1.7615  0.4510
  913TIP3    H224299   6.822   2.680   8.066 -1.1450 -0.5255  2.1375
  914TIP3   OH224300   1.356   0.450   7.957 -0.0981  0.2755 -0.4998
  914TIP3    H124301   1.406   0.375   7.990  0.4533  0.3378 -1.1763
  914TIP3    H224302   1.272   0.444   8.003 -0.4053 -1.2777 -1.2009
  915TIP3   OH224303   5.200   0.930   7.915  0.2872  0.8157  0.4992
  915TIP3    H124304   5.187   0.836   7.927  2.1553  0.2908 -1.0845
  915TIP3    H224305   5.237   0.960   7.998  0.5588 -0.0445  0.6921
  916TIP3   OH224306   6.708   3.968   1.487  0.2061  0.3913  0.2396
  916TIP3    H124307   6.712   4.062   1.504  0.0458  0.2996  0.8041
  916TIP3    H224308   6.728   3.927   1.572  1.7181 -0.0953 -0.3256
  917TIP3   OH224309   3.036   3.197   7.088 -0.1842 -0.0380 -0.1756
  917TIP3    H124310   2.971   3.164   7.026 -1.0115  2.4635 -0.7658
  917TIP3    H224311   3.021   3.147   7.167 -1.3230 -1.0651 -1.0042
  918TIP3   OH224312   1.091   4.200   1.364  0.4325 -0.0143 -0.4973
  918TIP3    H124313   1.023   4.264   1.345  0.2788  0.1634  0.5754
  918TIP3    H224314   1.051   4.139   1.426  1.8341  1.3528  1.9324
  919TIP3   OH224315   1.110   4.638   0.501  0.0434  0.1361  0.4977
  919TIP3    H124316   1.201   4.619   0.480 -0.1450 -0.0078 -0.2374
  919TIP3    H224317   1.081   4.696   0.430 -0.4098  0.2441  0.7692
  920TIP3   OH224318   1.833   5.000   7.582  0.2796 -0.1222 -0.3433
  920TIP3    H124319   1.814   4.911   7.553  0.5949 -0.3290  0.0693
  920TIP3    H224320   1.875   4.989   7.667 -0.6347  0.4777  0.1973
  921TIP3   OH224321   3.058   3.553   1.138 -0.1866 -0.1863 -0.3399
  921TIP3    H124322   3.065   3.548   1.042 -1.0183 -0.7979 -0.3859
  921TIP3    H224323   3.127   3.614   1.164 -0.0367  0.0958 -1.3412
  922TIP3   OH224324   4.296   3.640   7.557  0.1700  0.2666 -0.2431
  922TIP3    H124325   4.240   3.681   7.623  1.5151  0.8818  0.5547
  922TIP3    H224326   4.306   3.549   7.586 -0.4637  0.1273 -0.4417
  923TIP3   OH224327   4.951   4.760   7.422  0.5047 -0.2105 -0.2498
  923TIP3    H124328   4.872   4.815   7.424  0.6113 -0.0797  0.4871
  923TIP3    H224329   5.018   4.817   7.383  0.5326  0.0785  0.2116
  924TIP3   OH224330   1.533   4.070   6.900  0.1576  0.0255 -0.2154
  924TIP3    H124331   1.517   3.977   6.916 -1.7938  0.2162 -0.7687
  924TIP3    H224332   1.558   4.106   6.985  0.7123 -0.9475  0.0481
  925TIP3   OH224333   6.620   3.107   1.808  0.5621  0.4928  0.3556
  925TIP3    H124334   6.691   3.062   1.761  1.2285  2.3497 -0.5223
  925TIP3    H224335   6.576   3.038   1.856  0.8056 -1.2999 -1.8250
  926TIP3   OH224336   2.570   5.971   7.156  0.1929 -0.5447 -0.2086
  926TIP3    H124337   2.503   5.965   7.224  1.2851 -1.9483  0.7919
  926TIP3    H224338   2.651   5.944   7.199  1.0055 -1.0522 -1.9640
  927TIP3   OH224339   1.614   1.723   7.441  0.4688 -0.1325  0.3397
  927TIP3    H124340   1.565   1.796   7.402  1.4592 -0.9952 -2.8817
  927TIP3    H224341   1.626   1.661   7.368 -0.4201 -3.6351  2.8956
  928TIP3   OH224342   6.742   0.169   1.330  0.4241  0.6943  0.0198
  928TIP3    H124343   6.707   0.257   1.343  1.0242  0.7595  1.3718
  928TIP3    H224344   6.835   0.177   1.351  0.7627  0.0139 -1.1595
  929TIP3   OH224345   3.669   5.872   1.252  0.3656  0.1645 -0.2867
  929TIP3    H124346   3.724   5.901   1.179 -0.2455 -0.1648 -0.8911
  929TIP3    H224347   3.584   5.853   1.212 -0.9948  2.9769  0.9600
  930TIP3   OH224348   1.019   1.163   1.341  0.3238 -0.4694 -0.4422
  930TIP3    H124349   0.970   1.096   1.388 -0.4514  1.0258  0.9926
  930TIP3    H224350   1.111   1.137   1.349  0.3999  0.4153  3.2838
  931TIP3   OH224351   5.541   0.615   0.593 -0.0915 -0.2681  0.3108
  931TIP3    H124352   5.524   0.653   0.507 -1.3171  2.5308  1.6898
  931TIP3    H224353   5.471   0.550   0.605 -0.7367  0.3159 -0.2366
  932TIP3   OH224354   6.511   5.267   2.005  0.5398 -0.1649 -0.2094
  932TIP3    H124355   6.581   5.212   1.970  0.8543  0.2962 -0.3100
  932TIP3    H224356   6.479   5.316   1.929  2.6393  2.4215  0.4426
  933TIP3   OH224357   6.502   4.305   1.492 -0.1462  0.1995 -0.1046
  933TIP3    H124358   6.490   4.298   1.397 -0.5786 -0.1962 -0.0247
  933TIP3    H224359   6.594   4.283   1.507  0.1123  0.9711 -0.5013
  934TIP3   OH224360   0.199   2.734   8.648  0.3039  0.0695 -0.8297
  934TIP3    H124361   0.141   2.723   8.723  1.6631  1.4728  0.4977
  934TIP3    H224362   0.284   2.704   8.679  0.5710 -0.8775 -2.3684
  935TIP3   OH224363   5.204   1.197   0.049 -0.2252  0.2995 -0.2546
  935TIP3    H124364   5.253   1.149   0.116 -0.8237  0.4429  0.2960
  935TIP3    H224365   5.166   1.272   0.096 -0.6270  0.4152 -0.7560
  936TIP3   OH224366   0.886   2.646   6.522 -0.3930  0.0512  0.7750
  936TIP3    H124367   0.873   2.691   6.438  1.7101  1.0073  0.8933
  936TIP3    H224368   0.912   2.557   6.498 -0.5368  0.1009  0.4290
  937TIP3   OH224369   2.278   6.075   0.070  0.1879 -0.1491  0.2024
  937TIP3    H124370   2.194   6.069   0.116 -0.5770  0.9191 -0.9911
  937TIP3    H224371   2.309   5.985   0.064 -0.5285 -0.4805  1.2593
  938TIP3   OH224372   1.423   5.544   7.994  0.1559 -0.0425  0.0580
  938TIP3    H124373   1.443   5.582   8.080 -0.9692  0.5237  0.0875
  938TIP3    H224374   1.356   5.478   8.012 -1.0041  0.9424 -0.5154
  939TIP3   OH224375   1.351   0.281   1.256 -0.0796  0.2675  0.1888
  939TIP3    H124376   1.376   0.356   1.311 -0.0499  1.3436 -1.2146
  939TIP3    H224377   1.269   0.250   1.293  0.4515  0.2984  1.4436
  940TIP3   OH224378   1.849   5.124   7.221  0.2635 -0.0488 -1.0045
  940TIP3    H124379   1.913   5.091   7.284 -0.6489  0.9195  0.4739
  940TIP3    H224380   1.881   5.211   7.197  0.2770 -0.1647 -1.4219
  941TIP3   OH224381   0.944   2.302   0.934 -0.0018  0.6018  0.0105
  941TIP3    H124382   0.950   2.279   0.842 -0.1422 -0.9740  0.3670
  941TIP3    H224383   1.035   2.304   0.965 -0.0351 -1.1129  0.3223
  942TIP3   OH224384   3.485   2.483   8.596 -0.0055 -0.3983  0.0297
  942TIP3    H124385   3.547   2.551   8.572  0.5090 -1.4732 -1.8839
  942TIP3    H224386   3.435   2.520   8.669  0.6150  1.7902 -0.5912
  943TIP3   OH224387   3.260   3.429   8.169  0.6722  0.3851 -0.6398
  943TIP3    H124388   3.286   3.517   8.140  1.5112  0.5869  0.6366
  943TIP3    H224389   3.182   3.409   8.117 -1.4373  3.1793  1.1286
  944TIP3   OH224390   1.306   3.122   0.166  0.0236  0.2178  0.0531
  944TIP3    H124391   1.362   3.109   0.243  0.5786  2.1780  0.0468
  944TIP3    H224392   1.217   3.125   0.202  0.0294 -1.4035  0.2618
  945TIP3   OH224393   1.019   5.282   6.861 -0.0972  0.4962  0.1353
  945TIP3    H124394   1.035   5.370   6.827  1.4583 -0.3220 -1.3770
  945TIP3    H224395   1.094   5.231   6.832 -0.3315 -1.0688  2.0724
  946TIP3   OH224396   0.255   6.483   7.013  0.2344 -0.0085  0.1274
  946TIP3    H124397   0.312   6.507   7.086  0.2160  0.8340 -0.1239
  946TIP3    H224398   0.242   6.388   7.023  0.4842  0.0401  1.0293
  947TIP3   OH224399   3.284   3.031   6.925  0.0620  0.0080  0.2901
  947TIP3    H124400   3.261   3.116   6.962  2.2658  0.7183  0.1650
  947TIP3    H224401   3.311   3.050   6.835  1.8641 -0.5750  0.6652
  948TIP3   OH224402   3.575   2.961   8.674 -0.2245 -0.3396  0.0644
  948TIP3    H124403   3.508   2.957   8.606  1.5237 -1.4547 -1.7003
  948TIP3    H224404   3.620   2.877   8.670  1.3796  0.4022  1.0840
  949TIP3   OH224405   6.841   5.369   8.440 -0.2560 -0.0654 -0.2795
  949TIP3    H124406   6.893   5.374   8.359  2.2778  0.3685  1.2564
  949TIP3    H224407   6.851   5.279   8.469 -0.0834  0.0999  0.1844
  950TIP3   OH224408   3.166   3.015   8.333 -0.1759  0.3707  0.2363
  950TIP3    H124409   3.118   2.988   8.256  1.6415  2.9538 -2.0103
  950TIP3    H224410   3.104   3.070   8.382 -0.7247  0.4218 -0.4989
  951TIP3   OH224411   3.585   6.529   8.598  0.2028  0.1855 -0.0494
  951TIP3    H124412   3.625   6.589   8.661  0.5462 -0.3273  0.2275
  951TIP3    H224413   3.634   6.544   8.517  1.0336 -0.5030  0.3128
  952TIP3   OH224414   3.496   5.779   8.010  0.2916 -0.2347  0.3323
  952TIP3    H124415   3.444   5.769   8.090  0.5380  1.2027  0.7074
  952TIP3    H224416   3.541   5.863   8.022  1.0078 -0.4221 -0.9403
  953TIP3   OH224417   3.612   0.016   8.668  0.3467  1.2360  0.3161
  953TIP3    H124418   3.550  -0.036   8.719  1.1376  0.9389  0.9987
  953TIP3    H224419   3.584   0.107   8.680 -2.5006  0.9919 -2.7638
  954TIP3   OH224420   2.635   5.339   8.632 -0.1736 -0.1867  0.0766
  954TIP3    H124421   2.632   5.305   8.721  1.1724 -0.8874 -0.1273
  954TIP3    H224422   2.640   5.434   8.643  2.9106 -0.3585  0.8729
  955TIP3   OH224423   5.894   6.274   0.534 -0.0638  0.2360 -0.0458
  955TIP3    H124424   5.822   6.211   0.524 -0.3658  0.1326  2.1959
  955TIP3    H224425   5.866   6.329   0.607  1.4987  1.1310 -0.0964
  956TIP3   OH224426   1.693   0.494   1.958  0.2704 -0.7112  0.1996
  956TIP3    H124427   1.706   0.512   1.865 -0.7657  0.2810  0.2268
  956TIP3    H224428   1.744   0.415   1.975  1.0510 -0.4916 -1.0458
  957TIP3   OH224429   1.934   0.619   0.070 -0.0835  0.1119  0.2263
  957TIP3    H124430   1.925   0.683   0.141 -0.3367 -0.2376  0.5177
  957TIP3    H224431   1.849   0.574   0.069 -0.0393  0.0355 -0.2240
  958TIP3   OH224432   0.053   4.456   2.489  0.6018  0.2858  0.0952
  958TIP3    H124433   0.111   4.532   2.501  0.5570  0.2117  0.7891
  958TIP3    H224434  -0.026   4.493   2.448  0.1046  0.8239  1.4818
  959TIP3   OH224435   2.787   2.927   7.509  0.6289  0.2359  0.3781
  959TIP3    H124436   2.809   2.850   7.457 -2.3222  0.6257 -1.6759
  959TIP3    H224437   2.742   2.891   7.586  1.4788 -0.1448  0.7200
  960TIP3   OH224438   0.166   0.158   0.327  0.2342 -0.1810 -0.1072
  960TIP3    H124439   0.207   0.182   0.243 -0.6434 -1.9494 -1.1103
  960TIP3    H224440   0.077   0.191   0.320 -0.5033 -2.1721 -0.8408
  961TIP3   OH224441   4.443   5.069   2.236  0.2415 -0.1379  0.4129
  961TIP3    H124442   4.474   5.158   2.250  1.8094 -0.7577  1.1411
  961TIP3    H224443   4.349   5.074   2.253  0.3163  1.3446  0.5641
  962TIP3   OH224444   1.909   2.455   2.062 -0.7103  0.1142  0.0399
  962TIP3    H124445   1.939   2.519   2.126  0.2350  0.4999 -0.7585
  962TIP3    H224446   1.842   2.404   2.108  0.1313  0.1962  1.4188
  963TIP3   OH224447   3.516   3.374   8.537 -0.4636 -0.0504  0.1288
  963TIP3    H124448   3.555   3.304   8.589  0.3112  0.7507  0.6320
  963TIP3    H224449   3.436   3.334   8.501  1.1620 -1.9911 -1.5938
  964TIP3   OH224450   5.408   0.585   1.883 -0.2700  0.1150 -0.2331
  964TIP3    H124451   5.375   0.509   1.930  1.3823 -1.2650 -1.2180
  964TIP3    H224452   5.347   0.597   1.810 -0.2306 -0.5941 -0.3816
  965TIP3   OH224453   2.039   6.069   2.177  0.4108 -0.3568 -0.1391
  965TIP3    H124454   2.013   6.140   2.118  0.4438  0.7578  1.1252
  965TIP3    H224455   1.996   6.091   2.260  1.4619 -1.1264  0.6280
  966TIP3   OH224456   5.520   4.919   1.827 -0.0348 -0.3641 -0.0565
  966TIP3    H124457   5.448   4.921   1.890 -0.1436 -1.9111 -0.0961
  966TIP3    H224458   5.547   4.827   1.823  0.5866 -0.1577 -1.5655
  967TIP3   OH224459   1.332   6.186   8.138 -0.0686 -0.0293  0.3102
  967TIP3    H124460   1.375   6.207   8.055 -0.2532  1.5505  0.5687
  967TIP3    H224461   1.387   6.119   8.178  0.4190 -0.2875 -0.7555
  968TIP3   OH224462   5.810   5.717   0.465 -0.4332  0.4123 -0.0181
  968TIP3    H124463   5.792   5.761   0.548  3.9948  0.0229  1.4186
  968TIP3    H224464   5.882   5.767   0.427  0.4093 -1.8397 -1.5755
  969TIP3   OH224465   4.198   5.374   0.087 -0.3621 -0.2519 -0.2551
  969TIP3    H124466   4.260   5.393   0.158  0.3817  1.7650 -1.3799
  969TIP3    H224467   4.248   5.321   0.025  0.2164  1.2503 -1.0919
  970TIP3   OH224468   1.773   4.522   8.628 -0.1364 -0.2134 -0.2204
  970TIP3    H124469   1.824   4.516   8.547 -0.0317  1.0996 -0.2704
  970TIP3    H224470   1.839   4.519   8.697  0.1374  2.2757 -0.3048
  971TIP3   OH224471   6.374   5.141   7.168 -0.3440 -0.2642  0.6349
  971TIP3    H124472   6.383   5.192   7.087  0.2063  0.2142  0.9877
  971TIP3    H224473   6.351   5.053   7.139 -0.4658 -0.0192 -0.0284
  972TIP3   OH224474   4.077   6.440   0.644 -0.1526 -0.0199 -0.1414
  972TIP3    H124475   4.014   6.369   0.628 -0.2589  0.4938 -2.2924
  972TIP3    H224476   4.148   6.398   0.694 -0.2174 -1.6686 -1.3487
  973TIP3   OH224477   4.835   2.540   7.584  0.4746 -0.0925 -0.2482
  973TIP3    H124478   4.878   2.564   7.503  1.9455 -0.5940  0.3433
  973TIP3    H224479   4.754   2.591   7.586  0.9519  0.7281 -1.4914
  974TIP3   OH224480   1.775   2.333   0.283 -0.0396  0.9104 -0.5206
  974TIP3    H124481   1.690   2.375   0.275  0.3521  2.0722  0.9729
  974TIP3    H224482   1.802   2.316   0.192 -1.6008  1.0261 -1.0274
  975TIP3   OH224483   6.718   6.576   0.101  0.6019 -0.3800 -0.5911
  975TIP3    H124484   6.812   6.573   0.081  1.0310 -0.4985  1.2968
  975TIP3    H224485   6.703   6.501   0.159 -0.5302  0.0045 -0.3676
  976TIP3   OH224486   5.230   4.002   7.002  0.1281 -0.0481  0.0272
  976TIP3    H124487   5.221   4.074   6.939  1.2423  1.4052  1.4352
  976TIP3    H224488   5.267   3.930   6.951 -1.9851 -0.0178 -1.6524
  977TIP3   OH224489   1.607   4.982   6.923 -0.2992 -0.4200  0.4939
  977TIP3    H124490   1.642   4.917   6.862 -0.1742 -2.2541  2.4060
  977TIP3    H224491   1.651   5.063   6.900  1.4516 -1.5567 -0.3811
  978TIP3   OH224492   6.061   6.265   0.155 -0.1709 -0.3681 -0.4762
  978TIP3    H124493   6.004   6.238   0.084 -0.4030  0.1755 -0.5019
  978TIP3    H224494   6.083   6.356   0.135  0.8382 -0.6110 -0.5578
  979TIP3   OH224495   5.345   4.884   1.571  0.8907 -0.1327  0.3182
  979TIP3    H124496   5.292   4.924   1.503  1.0062  0.7634  0.7384
  979TIP3    H224497   5.301   4.801   1.591  0.6575 -0.2294 -0.5742
  980TIP3   OH224498   4.945   4.027   6.820 -0.3523 -0.1634  0.5019
  980TIP3    H124499   4.967   3.934   6.815  0.3701 -0.0244  0.9075
  980TIP3    H224500   5.030   4.072   6.810 -0.8323  0.4890 -0.8990
  981TIP3   OH224501   5.873   4.579   7.686  0.5504  0.3052 -0.1951
  981TIP3    H124502   5.907   4.666   7.667 -0.2444  0.6534 -0.0602
  981TIP3    H224503   5.779   4.591   7.693  0.4297 -0.5729 -0.1981
  982TIP3   OH224504   2.756   4.273   7.690  0.1559  0.0141  0.7395
  982TIP3    H124505   2.784   4.343   7.630 -0.2293 -0.9870 -0.6386
  982TIP3    H224506   2.679   4.309   7.734  0.1806  0.5986  0.3219
  983TIP3   OH224507   6.243   3.692   7.295 -0.3333  0.3069 -0.1528
  983TIP3    H124508   6.237   3.787   7.309 -1.2623  0.3587 -0.8098
  983TIP3    H224509   6.227   3.655   7.382 -1.1819  0.7388 -0.1086
  984TIP3   OH224510   6.758   1.775   6.776 -0.0258  0.3512  0.5781
  984TIP3    H124511   6.724   1.864   6.770 -0.4347  0.2781  1.6360
  984TIP3    H224512   6.845   1.785   6.817  1.7450  0.6271 -2.8836
  985TIP3   OH224513   5.463   6.231   6.813  0.2848 -0.2261 -0.0824
  985TIP3    H124514   5.546   6.248   6.856  0.8527 -0.6140 -0.9786
  985TIP3    H224515   5.470   6.141   6.782 -1.8542 -1.5272  2.8308
  986TIP3   OH224516   2.141   3.313   0.629  0.5706 -0.1247 -0.2651
  986TIP3    H124517   2.155   3.221   0.611  1.6637  0.1761 -1.0200
  986TIP3    H224518   2.173   3.325   0.719  1.5246 -0.2556 -0.5771
  987TIP3   OH224519   0.620   0.366   1.417  0.0350  0.1985 -0.2671
  987TIP3    H124520   0.640   0.450   1.457  0.1450 -0.4867  1.1745
  987TIP3    H224521   0.567   0.388   1.340  1.4578  1.6737 -0.8861
  988TIP3   OH224522   0.531   5.493   0.063  0.6992 -0.3422  1.1249
  988TIP3    H124523   0.616   5.469   0.024  0.6300 -1.1036  1.4152
  988TIP3    H224524   0.552   5.562   0.125  0.8823  0.5401  0.1172
  989TIP3   OH224525   2.850   6.652   0.962 -0.3490  0.3960  0.0928
  989TIP3    H124526   2.922   6.709   0.934 -0.7371  1.4287  1.1147
  989TIP3    H224527   2.773   6.686   0.917 -0.5005  0.3948  0.3465
  990TIP3   OH224528   1.168   5.294   1.235 -0.0257 -0.0758  0.1889
  990TIP3    H124529   1.212   5.318   1.154 -0.8841 -0.4251 -0.4058
  990TIP3    H224530   1.177   5.370   1.292  1.0957 -0.0514 -0.0132
  991TIP3   OH224531   4.435   6.230   8.070 -0.4208  0.3425  0.2276
  991TIP3    H124532   4.351   6.277   8.072 -2.1965 -2.5604  0.7154
  991TIP3    H224533   4.441   6.195   7.981  0.9594  1.5975 -0.1913
  992TIP3   OH224534   2.311   0.555   7.460  0.6852  0.1616  0.2968
  992TIP3    H124535   2.377   0.563   7.392  0.8897 -2.5987  0.0514
  992TIP3    H224536   2.243   0.617   7.435  1.5938  0.5448 -1.3850
  993TIP3   OH224537   0.370   4.277   2.665 -0.0568  0.9672  0.1152
  993TIP3    H124538   0.322   4.318   2.736 -0.0502 -0.9209  1.2733
  993TIP3    H224539   0.461   4.300   2.681 -0.1172  1.0107  0.3967
  994TIP3   OH224540   6.762   5.157   1.553  0.5729  0.2208  0.6699
  994TIP3    H124541   6.708   5.208   1.493  1.3754  1.5486  1.0417
  994TIP3    H224542   6.711   5.078   1.571  0.3261 -0.2341 -1.7571
  995TIP3   OH224543   3.295   6.218   0.462 -0.3751  0.0186  0.0633
  995TIP3    H124544   3.238   6.152   0.502 -1.5408  1.1263  0.2938
  995TIP3    H224545   3.322   6.179   0.379  1.1141 -1.8276  1.3399
  996TIP3   OH224546   2.129   0.093   6.531  0.2454 -0.0631  0.7013
  996TIP3    H124547   2.183   0.017   6.555 -0.2535 -0.7243 -0.2243
  996TIP3    H224548   2.186   0.146   6.475 -0.0216 -0.7348 -0.2348
  997TIP3   OH224549   2.702   1.217   1.195  0.6888  0.6878  0.2939
  997TIP3    H124550   2.764   1.178   1.132  2.1931  0.7084  1.6885
  997TIP3    H224551   2.640   1.265   1.140  0.8629 -0.7663 -1.2723
  998TIP3   OH224552   0.118   5.799   7.810  0.1724  0.5685 -0.6832
  998TIP3    H124553   0.110   5.706   7.791 -0.6063  0.5312 -0.2173
  998TIP3    H224554   0.156   5.837   7.731 -0.0621 -0.0516 -1.0971
  999TIP3   OH224555   0.257   4.612   0.609  0.3540  0.3684  0.9231
  999TIP3    H124556   0.337   4.620   0.660  2.2878  2.3145 -2.1015
  999TIP3    H224557   0.273   4.536   0.552 -0.8754 -0.4960  1.6911
 1000TIP3   OH224558   1.879   4.334   6.413  0.5813 -0.2349  0.0825
 1000TIP3    H124559   1.907   4.248   6.379  0.9560  0.4363 -1.3798
 1000TIP3    H224560   1.911   4.397   6.349 -2.1114  0.7984 -0.3772
 1001TIP3   OH224561   1.913   2.838   8.667 -0.5962  0.7197  0.0307
 1001TIP3    H124562   1.978   2.770   8.652 -1.6467 -0.5899  1.1424
 1001TIP3    H224563   1.858   2.804   8.737  0.7581  4.0681  3.0542
 1002TIP3   OH224564   2.557   3.624   0.374 -0.1845 -1.0073  0.5153
 1002TIP3    H124565   2.590   3.535   0.362  0.1005 -0.8120 -0.2290
 1002TIP3    H224566   2.491   3.635   0.306 -0.3105 -0.6901  0.6847
 1003TIP3   OH224567   3.576   1.563   8.084  0.0576 -0.4004 -0.5221
 1003TIP3    H124568   3.537   1.515   8.157  0.9017 -2.0592 -1.0899
 1003TIP3    H224569   3.501   1.597   8.035 -0.5607 -0.7042  0.1965
 1004TIP3   OH224570   3.936   5.161   7.362 -0.3161  1.0113 -0.3211
 1004TIP3    H124571   3.928   5.207   7.278  1.1273 -1.8511 -2.2137
 1004TIP3    H224572   4.003   5.209   7.410 -0.9825  2.5685 -0.9013
 1005TIP3   OH224573   6.224   4.573   8.486  0.2168 -0.0954 -0.2144
 1005TIP3    H124574   6.143   4.600   8.528  0.3911  0.3893 -0.1836
 1005TIP3    H224575   6.218   4.478   8.481 -0.5792 -0.0254 -0.6716
 1006TIP3   OH224576   3.611   0.940   8.140 -0.3568 -0.2823  0.6802
 1006TIP3    H124577   3.584   1.018   8.189  2.3284  0.9417  0.4302
 1006TIP3    H224578   3.601   0.868   8.202 -1.1677  0.5450  1.5423
 1007TIP3   OH224579   0.469   5.933   6.963 -0.1652  0.4309 -0.1013
 1007TIP3    H124580   0.474   5.850   7.011 -0.6797  0.4560  0.0054
 1007TIP3    H224581   0.550   5.936   6.912 -0.2654 -0.2612 -0.3133
 1008TIP3   OH224582   0.243   2.641   0.707 -0.2447  0.4318  0.2129
 1008TIP3    H124583   0.228   2.564   0.652  0.3191  0.4018  0.1000
 1008TIP3    H224584   0.338   2.653   0.707  0.1129 -1.2023  3.3482
 1009TIP3   OH224585   4.014   5.392   8.468  0.3457  0.1348 -0.1971
 1009TIP3    H124586   4.000   5.455   8.539 -0.6625 -2.4742  2.0779
 1009TIP3    H224587   4.096   5.348   8.491  0.6102  0.0222 -1.3090
 1010TIP3   OH224588   0.802   1.324   1.285 -0.0558 -0.7779  0.3536
 1010TIP3    H124589   0.746   1.256   1.247 -0.9651 -0.4189  1.0292
 1010TIP3    H224590   0.878   1.277   1.317 -0.5025 -1.4293  0.4757
 1011TIP3   OH224591   1.185   1.396   2.053  0.0245 -0.1454  0.3617
 1011TIP3    H124592   1.170   1.302   2.044 -0.5432  0.0311 -0.6623
 1011TIP3    H224593   1.280   1.405   2.054  0.0833 -0.7347  0.5263
 1012TIP3   OH224594   2.612   3.576   8.088 -0.2223  0.7071 -0.4114
 1012TIP3    H124595   2.675   3.607   8.153 -0.6141  0.2191  0.2081
 1012TIP3    H224596   2.613   3.481   8.096 -1.6120  0.7205  0.1666
 1013TIP3   OH224597   6.584   4.985   1.682 -0.0158 -0.6838 -0.2167
 1013TIP3    H124598   6.610   4.934   1.758 -0.8795  0.6324  1.0065
 1013TIP3    H224599   6.582   5.076   1.713 -0.1437 -0.0839 -1.8712
 1014TIP3   OH224600   1.005   0.703   0.557 -0.0205  0.1033  0.5152
 1014TIP3    H124601   1.000   0.789   0.598 -0.7265 -0.7205  2.3088
 1014TIP3    H224602   0.916   0.686   0.527  0.1771  0.1102 -0.0744
 1015TIP3   OH224603   6.457   5.670   8.623  0.3443 -0.8702  0.1053
 1015TIP3    H124604   6.545   5.647   8.592  0.2307 -0.7420 -0.3218
 1015TIP3    H224605   6.460   5.654   8.717  1.4807  1.0924  0.4718
 1016TIP3   OH224606   5.880   0.195   8.348  0.2505  0.3360 -0.0439
 1016TIP3    H124607   5.785   0.188   8.344  0.1843  0.6483  0.7236
 1016TIP3    H224608   5.912   0.145   8.273 -0.5008 -0.2294  0.0064
 1017TIP3   OH224609   1.817   1.199   6.266  0.3662 -0.2686  0.2665
 1017TIP3    H124610   1.903   1.242   6.266  0.6328 -0.7506  1.5307
 1017TIP3    H224611   1.826   1.129   6.201  0.6596  0.1877 -0.1904
 1018TIP3   OH224612   6.555   2.690   0.637  0.3858  0.0175 -0.0915
 1018TIP3    H124613   6.549   2.625   0.708  0.7579 -0.6886 -0.6888
 1018TIP3    H224614   6.589   2.768   0.680  1.2089 -0.5902  0.4094
 1019TIP3   OH224615   3.826   4.304   1.327  0.1081  0.1425 -0.6247
 1019TIP3    H124616   3.777   4.230   1.289  1.3644 -1.9813  1.5666
 1019TIP3    H224617   3.802   4.304   1.419  3.2723 -0.3034  0.3202
 1020TIP3   OH224618   2.958   6.148   6.349 -0.1049  0.6039  0.0296
 1020TIP3    H124619   2.923   6.073   6.301  2.1267 -0.3839 -0.1874
 1020TIP3    H224620   2.886   6.178   6.403 -0.3458 -3.7234  2.5941
 1021TIP3   OH224621   3.766   6.333   1.816 -0.1723  0.3630  0.4192
 1021TIP3    H124622   3.787   6.383   1.895 -1.2678 -1.6421  2.0931
 1021TIP3    H224623   3.821   6.255   1.822 -0.7320 -0.1177 -0.4839
 1022TIP3   OH224624   2.498   5.490   7.388 -0.0419 -0.0655  0.3644
 1022TIP3    H124625   2.417   5.516   7.344  1.3436  0.8357 -1.8709
 1022TIP3    H224626   2.498   5.538   7.470 -0.3134  2.5608 -1.0707
 1023TIP3   OH224627   5.605   5.878   2.184 -0.3468 -0.1258  0.8981
 1023TIP3    H124628   5.618   5.935   2.108  0.2503 -1.0693  0.2702
 1023TIP3    H224629   5.544   5.811   2.154 -1.3407  0.3614  1.7458
 1024TIP3   OH224630   3.846   3.203   1.628  0.5723  0.3820  0.0504
 1024TIP3    H124631   3.821   3.135   1.565 -0.6008 -0.5236  1.4351
 1024TIP3    H224632   3.937   3.183   1.650  0.6411  0.0384 -0.5207
 1025TIP3   OH224633   2.216   4.779   7.203  0.1783  0.0407  0.1895
 1025TIP3    H124634   2.289   4.807   7.259 -0.0306 -0.6204  0.7940
 1025TIP3    H224635   2.157   4.732   7.261 -0.6497  0.3996 -0.3389
 1026TIP3   OH224636   5.066   0.061   6.575  0.0733  0.2780  0.1052
 1026TIP3    H124637   5.035   0.152   6.575  1.4763  0.7833  0.6058
 1026TIP3    H224638   5.054   0.032   6.484  0.3534  1.2352 -0.2518
 1027TIP3   OH224639   2.032   0.910   6.541  0.7166  0.4137  0.8089
 1027TIP3    H124640   2.075   0.853   6.477 -0.5421  2.0759 -1.7000
 1027TIP3    H224641   2.102   0.967   6.573  1.0390  0.9672 -0.7737
 1028TIP3   OH224642   2.104   5.406   7.378  0.5173 -0.6836 -0.0505
 1028TIP3    H124643   2.165   5.338   7.406  0.5170 -0.0399  1.6562
 1028TIP3    H224644   2.018   5.370   7.397  0.4060 -1.0511 -1.1887
 1029TIP3   OH224645   4.269   2.119   0.460  0.1675  0.5129  0.3959
 1029TIP3    H124646   4.211   2.177   0.411 -1.3517 -0.4994  0.9138
 1029TIP3    H224647   4.210   2.061   0.507  1.4965 -2.9449 -1.7810
 1030TIP3   OH224648   4.908   0.570   0.594 -0.2284  0.0338 -0.0592
 1030TIP3    H124649   4.984   0.627   0.587 -0.2001 -0.0633 -0.5381
 1030TIP3    H224650   4.943   0.481   0.583 -0.0721 -0.1990  1.9515
 1031TIP3   OH224651   2.755   4.638   1.103  0.2706  0.5649  0.6214
 1031TIP3    H124652   2.777   4.731   1.106  0.4684  0.6587 -1.7665
 1031TIP3    H224653   2.795   4.606   1.022  0.7300 -1.7729  1.6751
 1032TIP3   OH224654   2.058   4.597   8.111  0.1753 -1.0137  0.3322
 1032TIP3    H124655   2.141   4.602   8.064 -0.5285 -1.5734 -1.0240
 1032TIP3    H224656   2.034   4.688   8.126  1.0391 -0.8471  0.7494
 1033TIP3   OH224657   0.225   2.544   7.984  0.5356  0.2455 -0.2639
 1033TIP3    H124658   0.149   2.488   7.998  0.9456 -0.0375  1.0124
 1033TIP3    H224659   0.255   2.522   7.896  0.3370 -1.1295 -0.0155
 1034TIP3   OH224660   4.242   1.481   0.208 -0.2914  0.2253  0.2074
 1034TIP3    H124661   4.249   1.576   0.214  0.6744  0.2078 -0.4723
 1034TIP3    H224662   4.208   1.464   0.121 -0.7315 -0.0545  0.4272
 1035TIP3   OH224663   1.170   3.658   0.463  0.5168 -0.1735 -0.5421
 1035TIP3    H124664   1.191   3.580   0.412  0.4258  0.1436 -1.0747
 1035TIP3    H224665   1.075   3.657   0.471  0.5907 -0.6411  0.3031
 1036TIP3   OH224666   6.816   3.688   1.859 -0.0358  0.0969 -0.1341
 1036TIP3    H124667   6.860   3.627   1.918 -0.2175 -0.8444 -0.9397
 1036TIP3    H224668   6.800   3.637   1.779 -1.2605  0.8529 -0.4010
 1037TIP3   OH224669   4.542   0.958   8.475  0.7781  0.1909  0.0506
 1037TIP3    H124670   4.590   1.038   8.494  0.5256  0.2744  0.3511
 1037TIP3    H224671   4.604   0.887   8.495  1.4376  0.3200 -1.4374
 1038TIP3   OH224672   2.422   0.394   7.675 -0.5717  0.1510 -0.3864
 1038TIP3    H124673   2.475   0.314   7.685 -0.3498  0.4542  1.2896
 1038TIP3    H224674   2.423   0.412   7.581 -0.5741 -1.7719 -0.8052
 1039TIP3   OH224675   3.865   0.969   0.697 -0.2728  0.6093 -0.2874
 1039TIP3    H124676   3.891   0.913   0.624 -1.5474 -0.6077  0.1551
 1039TIP3    H224677   3.890   0.919   0.775 -1.1617  0.7840  0.1148
 1040TIP3   OH224678   4.532   4.418   1.929 -0.2377 -0.5512  0.1976
 1040TIP3    H124679   4.547   4.331   1.892 -0.7329 -0.7301  0.4127
 1040TIP3    H224680   4.447   4.411   1.973 -0.0078 -0.1273  0.7145
 1041TIP3   OH224681   5.198   2.153   5.939  0.3989  0.9349 -0.4846
 1041TIP3    H124682   5.119   2.178   5.891  1.3728  0.8131 -2.2018
 1041TIP3    H224683   5.168   2.087   6.001 -0.6497 -0.0521 -1.9855
 1042TIP3   OH224684   1.269   3.236   0.579 -1.4118 -0.0553 -0.2958
 1042TIP3    H124685   1.174   3.244   0.577 -1.5078 -0.6377  0.9917
 1042TIP3    H224686   1.289   3.202   0.666  0.0756  1.2593 -0.0657
 1043TIP3   OH224687   1.338   2.253   6.190  0.6474  0.1220 -0.4342
 1043TIP3    H124688   1.376   2.324   6.138 -2.7816  1.5058 -1.3300
 1043TIP3    H224689   1.287   2.297   6.257  2.0243 -1.6544  1.9137
 1044TIP3   OH224690   5.354   6.600   7.653  0.8270  0.1144 -0.4342
 1044TIP3    H124691   5.338   6.528   7.714 -0.0047 -0.0569 -0.8441
 1044TIP3    H224692   5.295   6.670   7.682  0.8099  0.2231 -0.7267
 1045TIP3   OH224693   0.854   3.514   0.185  0.6334 -0.0390  0.7753
 1045TIP3    H124694   0.870   3.541   0.094 -1.8960  1.3366  0.6577
 1045TIP3    H224695   0.838   3.420   0.178  1.2824 -0.1072 -0.0632
 1046TIP3   OH224696   3.671   3.727   0.003 -0.7021 -0.3112  0.2014
 1046TIP3    H124697   3.757   3.694  -0.021 -1.0766 -3.0654  2.2104
 1046TIP3    H224698   3.615   3.703  -0.071  0.3188  2.6289 -1.7239
 1047TIP3   OH224699   0.137   3.143   7.390  0.0456  0.1657  0.4081
 1047TIP3    H124700   0.099   3.109   7.471 -2.6515  2.0696  0.0811
 1047TIP3    H224701   0.116   3.078   7.323 -0.3401 -0.0193  0.7077
 1048TIP3   OH224702   4.382   4.063   7.561 -0.1608 -0.1610 -0.3611
 1048TIP3    H124703   4.369   4.139   7.618 -1.3896 -0.6273  0.0182
 1048TIP3    H224704   4.339   4.087   7.479 -0.6116 -0.4514 -0.2176
 1049TIP3   OH224705   0.170   3.904   7.328 -0.2547  0.2276 -0.5772
 1049TIP3    H124706   0.131   3.821   7.300  1.1433 -0.7980  0.3921
 1049TIP3    H224707   0.227   3.930   7.255 -0.0049 -0.1291 -0.5089
 1050TIP3   OH224708   5.233   5.623   7.366 -0.3105  0.0298 -0.6650
 1050TIP3    H124709   5.186   5.697   7.404  0.8241  0.6035 -0.3327
 1050TIP3    H224710   5.226   5.635   7.271  1.2684  1.5266 -0.6391
 1051TIP3   OH224711   2.495   5.001   0.642 -0.2752  0.1146 -0.2142
 1051TIP3    H124712   2.458   5.010   0.554 -0.4981  2.4701  0.0595
 1051TIP3    H224713   2.571   4.943   0.631 -0.7569 -0.2440 -1.8047
 1052TIP3   OH224714   0.991   5.167   1.934  0.6390 -0.3887  0.6104
 1052TIP3    H124715   0.956   5.111   1.865  1.7050 -0.3571  0.0206
 1052TIP3    H224716   0.920   5.230   1.952  0.1395 -0.7480 -0.0470
 1053TIP3   OH224717   5.454   3.232   7.724 -0.1113 -0.7334 -0.2473
 1053TIP3    H124718   5.406   3.149   7.733  0.6197 -1.0397  1.0164
 1053TIP3    H224719   5.500   3.243   7.808 -0.8599  1.3828 -0.0470
 1054TIP3   OH224720   0.633   3.682   0.290  0.2129 -0.5326 -0.4805
 1054TIP3    H124721   0.684   3.739   0.234  1.0204 -0.0194  0.7396
 1054TIP3    H224722   0.678   3.598   0.286  0.3719 -0.4484 -0.4560
 1055TIP3   OH224723   0.566   3.886   6.800 -0.0286 -0.4917 -0.5175
 1055TIP3    H124724   0.545   3.863   6.710 -1.8695  0.1763 -0.2921
 1055TIP3    H224725   0.499   3.842   6.852 -0.1022  0.6508  0.3736
 1056TIP3   OH224726   5.106   4.036   1.396  0.4063 -0.0692 -0.0068
 1056TIP3    H124727   5.167   3.986   1.450  0.2684  1.1016  1.2975
 1056TIP3    H224728   5.131   4.015   1.306  1.1944 -1.4303  0.4926
 1057TIP3   OH224729   1.143   1.365   7.647 -0.0057  0.0073  0.3262
 1057TIP3    H124730   1.202   1.433   7.615 -0.8588 -0.0508 -1.4947
 1057TIP3    H224731   1.139   1.379   7.742  0.8493  1.6633  0.1513
 1058TIP3   OH224732   6.193   0.335   7.793 -0.2272  0.3665 -0.0167
 1058TIP3    H124733   6.099   0.322   7.801 -0.5698  1.6305 -1.3739
 1058TIP3    H224734   6.202   0.423   7.756  1.4271 -0.0930 -0.8470
 1059TIP3   OH224735   4.127   1.185   0.423 -0.2584 -0.3611  0.2373
 1059TIP3    H124736   4.208   1.236   0.436 -0.0406 -0.5694 -0.3082
 1059TIP3    H224737   4.153   1.095   0.439 -0.3893 -0.4260  0.0795
 1060TIP3   OH224738   2.621   2.666   1.008 -0.1940 -0.3395 -0.0929
 1060TIP3    H124739   2.631   2.758   0.983 -1.1476 -0.1823  0.0680
 1060TIP3    H224740   2.704   2.643   1.050 -0.4107  0.8141  1.0117
 1061TIP3   OH224741   4.771   6.790   0.705  0.0293  0.2404  0.3502
 1061TIP3    H124742   4.700   6.819   0.648  0.7519 -1.5256 -1.6116
 1061TIP3    H224743   4.846   6.783   0.646  1.7118  1.4686  2.2422
 1062TIP3   OH224744   5.839   4.886   7.931  0.4625  0.1825 -0.1132
 1062TIP3    H124745   5.802   4.824   7.995  0.0197  1.5897  1.0513
 1062TIP3    H224746   5.797   4.969   7.951  0.4553  0.7239 -2.1708
 1063TIP3   OH224747   0.853   3.150   7.916  0.1193 -0.0709 -0.3360
 1063TIP3    H124748   0.824   3.222   7.973  1.1587  0.1955 -0.1156
 1063TIP3    H224749   0.925   3.109   7.964 -0.5361 -1.3442 -0.4137
 1064TIP3   OH224750   4.843   2.726   2.026 -0.2365 -0.0320  0.2612
 1064TIP3    H124751   4.776   2.671   2.065 -0.6385  1.4802  1.8404
 1064TIP3    H224752   4.920   2.714   2.081  0.8347 -1.6916 -1.4912
 1065TIP3   OH224753   0.559   6.805   6.563  0.6554  0.1262 -0.3568
 1065TIP3    H124754   0.467   6.829   6.571  1.1385  2.4071 -1.0531
 1065TIP3    H224755   0.565   6.762   6.478  0.3779  0.7501 -0.6957
 1066TIP3   OH224756   1.604   4.978   8.103  0.3272 -0.8373 -0.1812
 1066TIP3    H124757   1.618   4.954   8.195 -2.3543  0.1364  0.5686
 1066TIP3    H224758   1.589   4.895   8.058  4.3555 -1.6500 -0.4600
 1067TIP3   OH224759   6.650   5.874   6.895 -0.7835 -0.0065  0.0538
 1067TIP3    H124760   6.685   5.802   6.844 -0.6193  1.3908 -1.9163
 1067TIP3    H224761   6.672   5.852   6.986  1.0323 -1.4529 -0.6687
 1068TIP3   OH224762   3.517   6.615   7.806 -0.6237 -0.0075 -0.5052
 1068TIP3    H124763   3.546   6.523   7.802 -1.4445 -0.2632 -0.6439
 1068TIP3    H224764   3.467   6.628   7.725 -1.4938  0.2167  0.0560
 1069TIP3   OH224765   1.208   3.388   2.286  0.4528 -0.4818  0.4337
 1069TIP3    H124766   1.122   3.344   2.292 -1.0961  1.6252 -2.9253
 1069TIP3    H224767   1.195   3.472   2.328  0.4978  0.2492 -0.9637
 1070TIP3   OH224768   6.712   1.896   1.760  0.1756 -0.2696  0.2210
 1070TIP3    H124769   6.684   1.833   1.826 -1.3936  1.3352  1.1873
 1070TIP3    H224770   6.662   1.872   1.682  0.9594 -1.3073  0.0281
 1071TIP3   OH224771   6.626   4.158   6.423  0.3438  0.8893  0.3895
 1071TIP3    H124772   6.590   4.205   6.348 -0.3028 -0.7817 -0.3833
 1071TIP3    H224773   6.721   4.162   6.410  0.2915  1.7075  0.1845
 1072TIP3   OH224774   2.903   3.972   1.493 -0.3306  1.0172  0.5325
 1072TIP3    H124775   2.856   4.001   1.415 -0.6120  0.6908  0.5811
 1072TIP3    H224776   2.893   3.877   1.494  3.1011  0.4658 -1.3103
 1073TIP3   OH224777   1.287   2.239   8.629  0.4792  0.4924  0.1802
 1073TIP3    H124778   1.248   2.196   8.705 -0.7562  2.8318  0.9697
 1073TIP3    H224779   1.379   2.211   8.630  0.2951 -0.1879  2.0488
 1074TIP3   OH224780   0.966   4.998   1.112  0.0824  0.4631 -0.6952
 1074TIP3    H124781   0.909   5.041   1.049 -0.0287  0.6240 -0.4848
 1074TIP3    H224782   0.922   5.009   1.196  0.3715  0.5001 -0.5470
 1075TIP3   OH224783   5.478   2.836   7.381  0.4089 -0.1647  0.5000
 1075TIP3    H124784   5.444   2.886   7.307 -1.4479 -1.8093  0.1738
 1075TIP3    H224785   5.541   2.896   7.423  0.9524  1.1006 -1.9081
 1076TIP3   OH224786   5.744   6.842   8.574  0.0269  0.1802  0.0936
 1076TIP3    H124787   5.656   6.806   8.587 -0.7384  2.2493  1.1717
 1076TIP3    H224788   5.730   6.936   8.565  2.0170  0.3894 -1.3933
 1077TIP3   OH224789   0.964   6.299   8.386 -0.0277  0.1258 -0.1869
 1077TIP3    H124790   0.985   6.213   8.350  0.0235  1.1315 -2.7739
 1077TIP3    H224791   1.034   6.356   8.353 -1.4599  1.6444 -0.7031
 1078TIP3   OH224792   4.741   1.318   7.970 -0.1979 -0.0930  0.4976
 1078TIP3    H124793   4.723   1.230   8.002  2.3641 -0.2516  1.7764
 1078TIP3    H224794   4.778   1.305   7.882 -0.6344 -0.2053  0.3281
 1079TIP3   OH224795   6.173   4.964   0.162 -0.0160  0.0644  0.1245
 1079TIP3    H124796   6.221   5.016   0.227 -0.5290  0.6726  0.0272
 1079TIP3    H224797   6.102   4.923   0.213 -0.1079  0.1277  0.0484
 1080TIP3   OH224798   6.036   1.885   0.449  0.1809  0.1733 -0.2647
 1080TIP3    H124799   6.092   1.962   0.448 -1.5884  1.7873  3.6287
 1080TIP3    H224800   6.096   1.811   0.449  2.0755  1.6280 -0.8866
 1081TIP3   OH224801   2.797   5.975   0.415 -0.7766  0.0503  0.1204
 1081TIP3    H124802   2.714   5.953   0.373 -0.6230 -1.1444  0.4205
 1081TIP3    H224803   2.844   5.892   0.423  0.0717  0.5663  0.7660
 1082TIP3   OH224804   5.294   1.848   8.414 -0.6059 -0.6029 -0.0637
 1082TIP3    H124805   5.229   1.917   8.429 -1.1156 -0.7778 -1.3981
 1082TIP3    H224806   5.293   1.833   8.320  0.1652 -1.7968  0.0932
 1083TIP3   OH224807   0.642   1.557   1.352 -0.3546 -0.5083 -0.1590
 1083TIP3    H124808   0.732   1.527   1.339 -0.8632 -1.1302 -2.9559
 1083TIP3    H224809   0.651   1.637   1.404  2.0898  0.7378 -2.2358
 1084TIP3   OH224810   3.198   4.585   6.898  0.2159  0.4771 -0.1254
 1084TIP3    H124811   3.204   4.501   6.854  1.9856  0.6880 -0.3576
 1084TIP3    H224812   3.213   4.650   6.828 -0.8733  0.9931  0.0940
 1085TIP3   OH224813   1.908   5.350   0.826  0.2316 -0.0852 -0.5353
 1085TIP3    H124814   1.885   5.279   0.765  0.4100 -0.8652  0.2803
 1085TIP3    H224815   1.826   5.399   0.837 -0.0803 -0.5848 -0.5698
 1086TIP3   OH224816   1.366   1.103   0.875  0.0999  0.5327  0.1974
 1086TIP3    H124817   1.385   1.031   0.815  0.8586 -0.0961  1.1560
 1086TIP3    H224818   1.399   1.181   0.830  1.7322 -0.0831  0.2868
 1087TIP3   OH224819   0.419   4.172   0.365 -0.3422  0.6261  0.1245
 1087TIP3    H124820   0.419   4.078   0.382 -0.0379  0.6148  0.0622
 1087TIP3    H224821   0.481   4.183   0.293  0.1648  0.9656  0.6101
 1088TIP3   OH224822   0.276   2.701   8.195  0.5573 -0.3980  0.4357
 1088TIP3    H124823   0.188   2.691   8.232  0.3011  0.2178  0.0159
 1088TIP3    H224824   0.277   2.643   8.120 -0.6796  1.9625 -1.5716
 1089TIP3   OH224825   3.364   6.475   8.289 -0.2649 -0.0155  0.0082
 1089TIP3    H124826   3.438   6.470   8.349 -0.4035  0.3462  0.2169
 1089TIP3    H224827   3.403   6.473   8.202 -0.1942 -2.7655  0.0364
 1090TIP3   OH224828   2.955   2.418   8.032  0.6170  0.5434 -0.0960
 1090TIP3    H124829   2.956   2.369   8.114  0.5525  1.1031  0.2442
 1090TIP3    H224830   2.965   2.510   8.059 -0.2082  0.8115 -0.6477
 1091TIP3   OH224831   3.784   4.298   8.533 -0.2114  0.5054  0.6759
 1091TIP3    H124832   3.708   4.251   8.566  0.0313  0.5059  1.2484
 1091TIP3    H224833   3.833   4.233   8.483 -0.3751  0.4050  0.6455
 1092TIP3   OH224834   2.437   0.599   1.078  0.0802 -0.2645  0.0960
 1092TIP3    H124835   2.464   0.523   1.130 -1.7254  0.5173  2.3669
 1092TIP3    H224836   2.466   0.675   1.129 -1.8803  0.5479  0.0982
 1093TIP3   OH224837   4.687   4.292   7.002 -0.8673 -0.2848  0.0396
 1093TIP3    H124838   4.643   4.334   6.928  0.5838 -0.0507 -0.7454
 1093TIP3    H224839   4.705   4.203   6.972  1.1104  0.2541 -0.5735
 1094TIP3   OH224840   2.240   4.330   1.851 -0.3821 -0.1947  0.2216
 1094TIP3    H124841   2.299   4.386   1.800  0.9784 -1.2029  0.6407
 1094TIP3    H224842   2.153   4.366   1.835  0.3777  1.6366 -0.0449
 1095TIP3   OH224843   2.698   6.442   7.411 -0.6225 -0.6953  0.6636
 1095TIP3    H124844   2.725   6.462   7.501  1.0620 -0.8683  0.2229
 1095TIP3    H224845   2.738   6.510   7.358 -1.1899 -0.8893 -0.0242
 1096TIP3   OH224846   3.347   0.041   1.265 -0.2658  0.2913  0.0105
 1096TIP3    H124847   3.288   0.028   1.191  0.8575 -1.1685 -0.6790
 1096TIP3    H224848   3.350   0.136   1.277  0.0403  0.6325 -2.2771
 1097TIP3   OH224849   6.834   5.802   7.080 -0.6031  0.4065  0.2942
 1097TIP3    H124850   6.883   5.865   7.133  2.3894 -1.9007  0.5557
 1097TIP3    H224851   6.822   5.727   7.137 -2.9063  0.1539 -0.4165
 1098TIP3   OH224852   1.178   2.138   0.136  0.2151 -0.0800  0.2365
 1098TIP3    H124853   1.194   2.086   0.215 -0.5825 -1.5040 -0.4942
 1098TIP3    H224854   1.129   2.215   0.167  0.0039 -0.5700  1.1469
 1099TIP3   OH224855   6.428   2.989   7.109  0.3090 -0.2942 -0.4669
 1099TIP3    H124856   6.470   2.958   7.189  1.0396  2.3326  0.2441
 1099TIP3    H224857   6.493   3.045   7.067 -0.9867  0.4787 -1.5480
 1100TIP3   OH224858   5.370   0.145   0.649  0.4192 -0.2530  1.0470
 1100TIP3    H124859   5.335   0.056   0.645  0.3611 -0.1972 -0.2803
 1100TIP3    H224860   5.417   0.148   0.732 -1.4649 -0.7909  2.1930
 1101TIP3   OH224861   2.602   0.901   8.338 -0.0228 -0.3420 -0.0704
 1101TIP3    H124862   2.531   0.877   8.278  0.1636  0.7769 -0.7697
 1101TIP3    H224863   2.672   0.839   8.320 -1.0430 -1.9216  1.1229
 1102TIP3   OH224864   2.024   0.482   7.594  0.3228  0.0136 -0.3977
 1102TIP3    H124865   1.976   0.418   7.542  1.4026 -0.1483 -1.2328
 1102TIP3    H224866   2.069   0.536   7.530  1.5022 -0.0427  0.3574
 1103TIP3   OH224867   2.323   5.682   7.777 -0.1603  0.0019  0.3378
 1103TIP3    H124868   2.387   5.675   7.848 -0.1597  1.2669  0.4859
 1103TIP3    H224869   2.243   5.714   7.819 -0.7699 -1.1302  0.0765
 1104TIP3   OH224870   6.406   6.711   7.493 -0.2681 -0.0311 -0.1266
 1104TIP3    H124871   6.391   6.765   7.571  0.9007  1.1180 -0.6625
 1104TIP3    H224872   6.358   6.757   7.424  0.8831  0.4439 -0.6268
 1105TIP3   OH224873   2.516   1.701   6.971 -0.8957 -0.2721  0.0701
 1105TIP3    H124874   2.455   1.760   6.925  0.9217  2.2020  0.6400
 1105TIP3    H224875   2.488   1.705   7.063 -1.0214 -0.6664  0.0511
 1106TIP3   OH224876   2.952   0.961   2.119  0.3848  0.0688  0.5466
 1106TIP3    H124877   2.900   0.937   2.195 -2.2438 -0.2475 -1.2034
 1106TIP3    H224878   2.958   0.879   2.068 -0.7290  0.9239 -1.0688
 1107TIP3   OH224879   4.470   0.829   0.925 -0.1590  0.2113 -0.3917
 1107TIP3    H124880   4.479   0.881   1.006  1.2978  0.5274 -0.7354
 1107TIP3    H224881   4.375   0.816   0.916 -0.3368 -0.2289  1.6052
 1108TIP3   OH224882   4.629   2.597   2.115  0.4580 -0.4929 -0.7368
 1108TIP3    H124883   4.586   2.678   2.143  1.1217 -0.5114  0.3964
 1108TIP3    H224884   4.572   2.527   2.147  0.2728 -0.4880 -1.0536
 1109TIP3   OH224885   0.011   0.705   8.267  0.0130 -0.0993 -0.1624
 1109TIP3    H124886  -0.007   0.797   8.251 -0.7551 -0.1086  0.5324
 1109TIP3    H224887  -0.071   0.660   8.242  0.5452 -0.6474 -0.9585
 1110TIP3   OH224888   2.192   4.394   7.165 -0.3100  0.3056  0.2527
 1110TIP3    H124889   2.214   4.428   7.252  0.1793  0.5673  0.0335
 1110TIP3    H224890   2.140   4.316   7.182  1.0946 -0.5552  0.8191
 1111TIP3   OH224891   6.761   4.688   0.216  0.0260  0.4046  0.0895
 1111TIP3    H124892   6.840   4.698   0.268  0.4339  0.9783 -0.6184
 1111TIP3    H224893   6.700   4.641   0.273  1.1851 -0.8765  0.3179
 1112TIP3   OH224894   6.169   1.408   8.271 -0.0222 -0.3087 -0.1064
 1112TIP3    H124895   6.219   1.367   8.200 -0.5389  1.1054 -1.3418
 1112TIP3    H224896   6.177   1.347   8.344  0.9814 -1.5614 -1.2057
 1113TIP3   OH224897   1.351   4.403   0.698 -0.6523 -0.3336 -0.0367
 1113TIP3    H124898   1.391   4.450   0.771 -1.6320 -0.9188  0.9036
 1113TIP3    H224899   1.389   4.315   0.703 -1.9200 -0.8645  0.8015
 1114TIP3   OH224900   4.982   1.964   0.502  0.0246  0.5642 -0.0332
 1114TIP3    H124901   5.006   2.022   0.429 -1.1518 -1.3682 -2.1065
 1114TIP3    H224902   4.889   1.981   0.517  0.5520  1.9729  2.1279
 1115TIP3   OH224903   6.223   5.531   7.990 -0.5411 -0.3360  0.1516
 1115TIP3    H124904   6.263   5.618   7.981 -0.9269 -0.1254  0.4406
 1115TIP3    H224905   6.298   5.471   7.997 -0.1842 -0.3626 -2.6188
 1116TIP3   OH224906   2.891   1.635   8.314  0.3409  0.8035  0.2933
 1116TIP3    H124907   2.982   1.634   8.345  0.3492  2.7990  0.5272
 1116TIP3    H224908   2.862   1.544   8.319  3.1549 -0.3936 -2.4380
 1117TIP3   OH224909   3.261   4.856   0.696  0.3021 -0.3994 -0.3554
 1117TIP3    H124910   3.352   4.827   0.702  0.4491  0.0735 -0.2883
 1117TIP3    H224911   3.240   4.886   0.784 -0.3040 -1.6354 -0.0614
 1118TIP3   OH224912   0.854   3.476   0.670  0.3677  0.2038 -0.7282
 1118TIP3    H124913   0.858   3.570   0.688 -0.4130  0.0357  0.4534
 1118TIP3    H224914   0.776   3.465   0.616 -0.6531  0.0493  0.7046
 1119TIP3   OH224915   0.589   0.370   6.600 -0.0195 -0.1080 -0.0900
 1119TIP3    H124916   0.567   0.340   6.512 -1.0438 -0.0853  0.1424
 1119TIP3    H224917   0.634   0.454   6.587  0.9557 -0.6967 -0.6393
 1120TIP3   OH224918   6.140   2.401   7.214  0.4198 -0.3307  0.4759
 1120TIP3    H124919   6.160   2.334   7.279  1.3394 -0.4194  0.1177
 1120TIP3    H224920   6.146   2.484   7.262 -2.5800 -0.5437  1.3824
 1121TIP3   OH224921   4.451   6.692   8.182  0.0403 -0.0331 -0.7991
 1121TIP3    H124922   4.450   6.659   8.272 -3.4142  0.9417 -0.3228
 1121TIP3    H224923   4.478   6.617   8.129  0.3566 -1.1529  0.8718
 1122TIP3   OH224924   3.104   5.910   7.060 -0.0275  0.4093 -0.0465
 1122TIP3    H124925   3.049   5.989   7.065 -0.1065  0.4429 -1.2388
 1122TIP3    H224926   3.078   5.868   6.978  0.6740 -0.3740  0.1255
 1123TIP3   OH224927   0.120   4.303   0.340 -0.8333 -0.4577 -0.4524
 1123TIP3    H124928   0.202   4.348   0.356 -1.3417 -0.3223  2.2808
 1123TIP3    H224929   0.142   4.210   0.344 -0.5475 -0.4314 -1.3923
 1124TIP3   OH224930   4.425   6.459   7.036 -0.2152 -0.2584 -0.1588
 1124TIP3    H124931   4.473   6.501   6.965 -0.5711  0.6366  0.1182
 1124TIP3    H224932   4.492   6.433   7.099  0.0434 -0.4785 -0.5280
 1125TIP3   OH224933   6.621   6.484   1.268 -0.2686  0.2894 -0.0372
 1125TIP3    H124934   6.712   6.509   1.283 -0.9740  2.1225  1.6433
 1125TIP3    H224935   6.610   6.402   1.316  0.0703  0.9886  1.2836
 1126TIP3   OH224936   3.862   4.541   7.028 -0.5614 -0.7443 -0.4419
 1126TIP3    H124937   3.865   4.519   7.121  0.4505  1.5101  0.1140
 1126TIP3    H224938   3.954   4.547   7.002 -0.8154  0.6258 -1.0700
 1127TIP3   OH224939   6.552   5.465   0.351 -0.3241  0.1737 -0.2005
 1127TIP3    H124940   6.525   5.445   0.440 -0.1966 -0.2957 -0.2668
 1127TIP3    H224941   6.529   5.387   0.301  0.3692  0.1088 -0.4200
 1128TIP3   OH224942   6.343   6.733   8.431  0.3534 -0.3487  0.1760
 1128TIP3    H124943   6.320   6.783   8.510  0.5258 -0.8175  0.5225
 1128TIP3    H224944   6.302   6.648   8.444 -0.3699 -0.1433 -0.6474
 1129TIP3   OH224945   1.632   6.142   2.123  0.1872  0.2078 -0.1340
 1129TIP3    H124946   1.584   6.190   2.191 -2.1393 -1.1635 -0.7022
 1129TIP3    H224947   1.572   6.138   2.049  1.2567 -1.4388 -0.9838
 1130TIP3   OH224948   1.325   1.690   8.318 -0.5199  0.2880  0.4312
 1130TIP3    H124949   1.268   1.646   8.382 -1.5911 -0.6460 -1.0843
 1130TIP3    H224950   1.409   1.644   8.325 -1.7062 -2.4105 -1.3511
 1131TIP3   OH224951   4.702   5.723   1.736 -0.2566 -0.5586 -0.6605
 1131TIP3    H124952   4.782   5.772   1.756 -0.9659  0.4602 -0.2940
 1131TIP3    H224953   4.637   5.790   1.715 -1.1818 -1.3483 -0.3749
 1132TIP3   OH224954   6.336   6.506   0.262  0.1139  0.1705  0.1962
 1132TIP3    H124955   6.342   6.601   0.254  0.6043  0.1199 -0.0354
 1132TIP3    H224956   6.244   6.490   0.284 -0.5814  0.5571 -2.0940
 1133TIP3   OH224957   3.230   1.308   8.375 -1.0265  0.3958 -0.6217
 1133TIP3    H124958   3.159   1.295   8.312 -1.2610  1.3972 -0.5930
 1133TIP3    H224959   3.270   1.391   8.348 -0.0662 -0.0037 -0.4487
 1134TIP3   OH224960   5.827   6.561   1.082 -0.1824  0.4687  0.1029
 1134TIP3    H124961   5.900   6.511   1.118 -2.0340 -0.8345  2.2965
 1134TIP3    H224962   5.842   6.561   0.988  0.4940 -3.4182  0.0499
 1135TIP3   OH224963   1.650   5.782   7.442 -0.5666  0.4240  0.2618
 1135TIP3    H124964   1.567   5.744   7.469 -0.2989  1.0630  2.1037
 1135TIP3    H224965   1.714   5.750   7.506  0.0910  2.0598  0.4869
 1136TIP3   OH224966   0.609   3.220   8.657 -0.5769  0.4082  0.1054
 1136TIP3    H124967   0.637   3.238   8.747 -0.5785 -1.5574  0.5414
 1136TIP3    H224968   0.514   3.230   8.659 -0.5187  0.9382  0.1832
 1137TIP3   OH224969   2.302   3.023   0.569 -0.3726  0.0340  0.1146
 1137TIP3    H124970   2.291   3.003   0.662 -1.0660  0.0281  0.0383
 1137TIP3    H224971   2.396   3.012   0.553 -0.5195 -2.0883  0.3347
 1138TIP3   OH224972   2.087   0.275   8.232  0.4836  0.3285 -0.1799
 1138TIP3    H124973   2.155   0.336   8.202  2.4344 -1.6151  0.0098
 1138TIP3    H224974   2.124   0.234   8.310 -0.3487 -1.7125 -0.7859
 1139TIP3   OH224975   5.310   2.737   6.866 -0.0139  0.0872  0.0084
 1139TIP3    H124976   5.358   2.816   6.888  2.1702 -1.5499  1.4927
 1139TIP3    H224977   5.363   2.693   6.799 -0.9759 -0.3523 -0.4985
 1140TIP3   OH224978   0.064   3.200   1.609  0.3709  0.3383 -0.3093
 1140TIP3    H124979  -0.011   3.145   1.587  0.0922  0.4162  0.4249
 1140TIP3    H224980   0.139   3.139   1.609  0.3804  0.3328 -1.4221
 1141TIP3   OH224981   5.287   1.000   8.162 -0.1707 -0.6154  0.7011
 1141TIP3    H124982   5.278   0.976   8.254  0.1712  0.1161  0.9240
 1141TIP3    H224983   5.229   1.075   8.150 -0.5691 -0.9843  0.1997
 1142TIP3   OH224984   3.210   5.093   1.651 -0.6543 -0.5089 -0.3708
 1142TIP3    H124985   3.116   5.103   1.667 -0.4785 -0.1522  0.5127
 1142TIP3    H224986   3.245   5.061   1.733  0.1267  0.2237 -0.4004
 1143TIP3   OH224987   1.048   4.369   6.909  0.7045 -0.8459  0.0773
 1143TIP3    H124988   1.136   4.390   6.879  0.9571 -2.7515 -0.6342
 1143TIP3    H224989   0.990   4.407   6.842  1.0025 -0.3977  0.0639
 1144TIP3   OH224990   1.658   0.464   0.692 -0.2464 -0.0531 -0.1406
 1144TIP3    H124991   1.613   0.424   0.766  0.0833 -1.1485 -0.5071
 1144TIP3    H224992   1.742   0.494   0.727 -0.2361 -0.2512  0.0047
 1145TIP3   OH224993   0.256   1.501   1.805  0.0295  0.4055 -0.3975
 1145TIP3    H124994   0.193   1.528   1.871  0.9452 -0.2060  0.7491
 1145TIP3    H224995   0.203   1.459   1.737 -0.6751 -1.7824  1.3911
 1146TIP3   OH224996   6.205   3.524   2.098 -0.1082 -0.3966 -0.6050
 1146TIP3    H124997   6.280   3.505   2.042  0.2160  0.8284 -0.6153
 1146TIP3    H224998   6.243   3.552   2.181 -0.5784 -1.0795 -0.1408
 1147TIP3   OH224999   1.482   4.831   1.327  0.1576  0.0767  0.6851
 1147TIP3    H125000   1.531   4.849   1.407  0.4963  0.6722  0.3498
 1147TIP3    H225001   1.397   4.872   1.341  0.3578  0.5312  0.5798
 1148TIP3   OH225002   4.080   6.787   1.806 -0.1712  0.5153  0.7976
 1148TIP3    H125003   4.091   6.758   1.897 -1.6663  1.8665  1.4572
 1148TIP3    H225004   4.036   6.714   1.762  1.2075 -0.4358  0.9455
 1149TIP3   OH225005   0.870   6.087   6.537  1.0366  0.2506  0.0119
 1149TIP3    H125006   0.779   6.099   6.513  0.3797 -0.6860  1.8180
 1149TIP3    H225007   0.916   6.160   6.496 -0.3926  0.3947 -1.4550
 1150TIP3   OH225008   2.630   1.337   0.186 -0.6309  0.2420 -0.3319
 1150TIP3    H125009   2.556   1.286   0.155  0.5136 -0.8888 -1.3031
 1150TIP3    H225010   2.707   1.286   0.161  0.4959  1.5492  0.3243
 1151TIP3   OH225011   0.395   4.618   7.577 -0.4802 -0.4408 -0.3480
 1151TIP3    H125012   0.303   4.594   7.584 -0.4967 -0.5583 -0.9752
 1151TIP3    H225013   0.406   4.648   7.487 -0.2892  1.1933  0.1760
 1152TIP3   OH225014   4.701   2.964   1.979 -0.1086  0.0023 -0.2308
 1152TIP3    H125015   4.752   2.883   1.972 -2.9127 -2.1428  1.6259
 1152TIP3    H225016   4.668   2.979   1.891  1.1584 -0.3474 -0.7852
 1153TIP3   OH225017   4.137   0.961   7.368 -1.1137  0.0252  0.1760
 1153TIP3    H125018   4.202   1.013   7.416  0.6148 -2.5034  0.8447
 1153TIP3    H225019   4.090   0.913   7.437 -0.2785 -1.8019 -0.4505
 1154TIP3   OH225020   6.430   5.263   1.508 -0.1685 -0.5696 -0.3196
 1154TIP3    H125021   6.419   5.168   1.503  0.8604 -0.7157 -0.1558
 1154TIP3    H225022   6.377   5.297   1.437  1.4423 -1.4561 -2.0288
 1155TIP3   OH225023   2.591   4.736   7.109  0.3808 -0.1665  0.1286
 1155TIP3    H125024   2.582   4.641   7.112  2.0775 -0.4788 -2.0937
 1155TIP3    H225025   2.503   4.768   7.089  0.2755 -1.5255 -1.8688
 1156TIP3   OH225026   0.029   5.759   1.514  0.3478 -0.1792  0.0210
 1156TIP3    H125027  -0.054   5.765   1.560 -0.7080 -0.9269 -1.6589
 1156TIP3    H225028   0.029   5.671   1.476  0.3626  0.9096 -2.7271
 1157TIP3   OH225029   6.149   4.193   8.075  1.1725  0.1077  0.1975
 1157TIP3    H125030   6.081   4.243   8.120  0.1967 -1.3763  0.4426
 1157TIP3    H225031   6.170   4.247   7.998 -0.4080  0.5363  0.0137
 1158TIP3   OH225032   4.141   2.771   2.193  0.1834  0.0392  0.3539
 1158TIP3    H125033   4.217   2.715   2.182 -0.0578 -0.5911  1.7550
 1158TIP3    H225034   4.067   2.717   2.165  0.0497 -0.0122  0.8079
 1159TIP3   OH225035   5.411   3.833   8.536 -0.4931 -0.3701 -0.1789
 1159TIP3    H125036   5.350   3.764   8.563 -1.3582  0.1904 -0.6792
 1159TIP3    H225037   5.378   3.864   8.453  0.2817  0.1979 -0.2887
 1160TIP3   OH225038   1.820   1.953   7.247 -0.2868  0.1956 -0.3294
 1160TIP3    H125039   1.877   2.025   7.221  0.9660 -0.3479  0.8134
 1160TIP3    H225040   1.862   1.874   7.213  0.2929 -0.3239  1.4596
 1161TIP3   OH225041   4.248   3.764   7.809 -0.1196  0.0204  0.1260
 1161TIP3    H125042   4.212   3.705   7.875 -1.0693 -1.9567 -2.0308
 1161TIP3    H225043   4.316   3.812   7.855 -0.9822 -0.9755  2.6223
 1162TIP3   OH225044   5.416   1.345   8.542  0.4435 -0.1098  0.0319
 1162TIP3    H125045   5.367   1.289   8.603  1.0728 -0.5462  0.1476
 1162TIP3    H225046   5.463   1.406   8.599  0.9913 -0.4848 -0.0091
 1163TIP3   OH225047   1.149   5.988   7.569  0.3155 -0.4886  0.4025
 1163TIP3    H125048   1.076   5.930   7.591  0.0392 -0.6068 -0.7927
 1163TIP3    H225049   1.227   5.938   7.592  0.0593 -1.0242  0.1086
 1164TIP3   OH225050   6.429   1.628   7.904  0.3970  0.0144  0.8660
 1164TIP3    H125051   6.360   1.567   7.876  1.6983 -1.1257  0.0356
 1164TIP3    H225052   6.414   1.638   7.998 -0.6708 -0.5150  0.7710
 1165TIP3   OH225053   3.700   2.696   0.002 -0.5666  0.1311 -0.0776
 1165TIP3    H125054   3.770   2.637  -0.026 -1.5935 -2.9337  3.0923
 1165TIP3    H225055   3.731   2.731   0.086 -1.8031  0.7170  0.1633
 1166TIP3   OH225056   5.224   1.456   1.278 -0.3457 -0.6674 -0.1684
 1166TIP3    H125057   5.129   1.461   1.287 -0.3765 -2.1912  0.8030
 1166TIP3    H225058   5.257   1.459   1.368  0.5401 -0.0220 -0.5014
 1167TIP3   OH225059   6.464   2.257   8.294 -0.3074 -0.1731  0.1477
 1167TIP3    H125060   6.473   2.317   8.368 -0.6017  0.6903 -0.4932
 1167TIP3    H225061   6.487   2.310   8.218 -0.6892 -0.8495 -0.4495
 1168TIP3   OH225062   3.895   5.032   8.329 -0.4421 -0.4516  0.0344
 1168TIP3    H125063   3.866   4.972   8.398  0.1719 -1.9573 -0.9512
 1168TIP3    H225064   3.954   4.979   8.275 -0.8003  0.7039 -1.5702
 1169TIP3   OH225065   4.119   6.800   0.509 -0.2597  0.1539 -0.1130
 1169TIP3    H125066   4.045   6.747   0.481 -0.7018  0.8952 -0.3725
 1169TIP3    H225067   4.195   6.743   0.498 -0.6271 -0.1507 -1.1816
 1170TIP3   OH225068   5.815   3.966   8.545  0.1336 -0.3463  0.2920
 1170TIP3    H125069   5.834   3.966   8.451  1.2644 -0.9994  0.5104
 1170TIP3    H225070   5.823   3.874   8.571 -1.2985 -0.3531  0.8216
 1171TIP3   OH225071   3.318   6.383   6.722 -0.7576  0.2980  0.0805
 1171TIP3    H125072   3.399   6.336   6.701  1.2279  4.0932 -1.6645
 1171TIP3    H225073   3.299   6.358   6.812  2.9070 -0.0873  0.9049
 1172TIP3   OH225074   5.443   5.113   0.687 -0.5795  0.2498  0.4309
 1172TIP3    H125075   5.446   5.035   0.743  0.0901  0.7491  1.1132
 1172TIP3    H225076   5.534   5.125   0.658 -0.7902  0.4314 -0.1683
 1173TIP3   OH225077   3.523   1.891   0.791 -0.0497  0.0183  0.0208
 1173TIP3    H125078   3.527   1.980   0.826  1.5321  0.8457 -1.9958
 1173TIP3    H225079   3.612   1.874   0.759 -0.2021 -2.4676  0.6648
 1174TIP3   OH225080   5.257   6.771   0.353 -0.9319  0.9241  0.5648
 1174TIP3    H125081   5.335   6.813   0.389 -0.9584  0.9061  0.6431
 1174TIP3    H225082   5.224   6.716   0.425  0.0333 -0.5120 -0.0434
 1175TIP3   OH225083   4.342   6.216   7.816 -0.3378 -0.5383 -0.1689
 1175TIP3    H125084   4.282   6.281   7.852  0.4661 -0.5988  1.3882
 1175TIP3    H225085   4.286   6.140   7.798 -1.1625  0.2984 -1.3540
 1176TIP3   OH225086   1.150   3.705   0.177 -0.4367  0.0410 -0.5555
 1176TIP3    H125087   1.228   3.686   0.125 -0.3433 -0.1112 -0.3647
 1176TIP3    H225088   1.123   3.619   0.211 -0.4183  0.1560 -0.2458
 1177TIP3   OH225089   6.352   1.215   7.817 -0.5324  0.0276  0.4439
 1177TIP3    H125090   6.403   1.247   7.742  1.7742 -1.1338  1.4211
 1177TIP3    H225091   6.262   1.213   7.785  0.3309 -0.1848 -2.2271
 1178TIP3   OH225092   5.742   3.873   0.433 -0.2442  0.1321 -0.1857
 1178TIP3    H125093   5.750   3.795   0.378  0.8271  0.6781 -0.8366
 1178TIP3    H225094   5.715   3.942   0.372 -1.2361  0.2727  0.3943
 1179TIP3   OH225095   1.016   0.929   0.858  0.1256  0.1387 -0.1063
 1179TIP3    H125096   1.031   0.986   0.782  1.3683  0.2254  0.1751
 1179TIP3    H225097   0.997   0.989   0.930  0.4303  0.1436 -0.0289
 1180TIP3   OH225098   2.279   3.773   1.152 -0.1338 -0.3800 -0.5804
 1180TIP3    H125099   2.367   3.751   1.123  0.9332  0.0797  2.0401
 1180TIP3    H225100   2.225   3.700   1.122  1.6667 -2.1246  0.1874
 1181TIP3   OH225101   4.492   3.872   8.413 -0.2984 -0.0345  0.1650
 1181TIP3    H125102   4.412   3.923   8.424 -1.6749 -2.2213  0.9139
 1181TIP3    H225103   4.524   3.859   8.502  1.4962  1.5823 -0.1588
 1182TIP3   OH225104   6.575   3.067   0.825  0.3838  0.2579  0.5763
 1182TIP3    H125105   6.641   3.008   0.787  0.0694  0.3098 -0.0678
 1182TIP3    H225106   6.603   3.154   0.797  0.0320  0.2766  0.2706
 1183TIP3   OH225107   4.650   0.347   7.547  0.6083 -0.5399  0.2903
 1183TIP3    H125108   4.602   0.276   7.590  0.9437 -0.6500  0.4890
 1183TIP3    H225109   4.614   0.350   7.458  1.1737 -1.5413  0.0059
 1184TIP3   OH225110   5.861   2.417   7.219 -0.3275  0.0630 -0.1888
 1184TIP3    H125111   5.954   2.400   7.234  0.2755  3.5430  0.7490
 1184TIP3    H225112   5.859   2.465   7.136 -1.2718  0.2043 -0.0897
 1185TIP3   OH225113   1.086   5.110   8.142  0.3514 -0.0874 -0.4729
 1185TIP3    H125114   0.991   5.104   8.145  0.3281  0.5287  0.7970
 1185TIP3    H225115   1.109   5.089   8.052 -1.2997  3.4726 -1.9398
 1186TIP3   OH225116   5.013   5.998   0.693  0.7472 -0.2020 -0.4171
 1186TIP3    H125117   5.047   5.919   0.736 -1.2402  0.4675  2.7307
 1186TIP3    H225118   4.921   5.978   0.676  0.5258  0.9803 -0.7009
 1187TIP3   OH225119   5.135   5.639   8.426  0.2937  0.2812  0.5381
 1187TIP3    H125120   5.198   5.700   8.466 -0.4868  1.2973  0.2750
 1187TIP3    H225121   5.184   5.598   8.354  0.3969  1.8078 -0.3128
 1188TIP3   OH225122   4.583   6.703   7.228  0.0901 -0.2278  0.0661
 1188TIP3    H125123   4.542   6.750   7.156  0.1146 -1.0234 -0.4877
 1188TIP3    H225124   4.654   6.654   7.187 -0.5425 -1.5062  0.4481
 1189TIP3   OH225125   5.859   2.883   7.641  0.2378 -0.2084  0.6163
 1189TIP3    H125126   5.904   2.839   7.569  0.7672 -3.0775  2.4904
 1189TIP3    H225127   5.927   2.897   7.707 -0.1529  2.6565  0.5368
 1190TIP3   OH225128   5.166   1.325   6.703 -0.3533  0.0635  0.2431
 1190TIP3    H125129   5.085   1.334   6.754  0.3660 -1.6715  1.7819
 1190TIP3    H225130   5.136   1.319   6.612 -1.9937 -0.8572  0.7993
 1191TIP3   OH225131   3.803   0.620   8.437 -0.0663  1.4587  0.1421
 1191TIP3    H125132   3.874   0.644   8.377  1.4101  1.3590  1.7451
 1191TIP3    H225133   3.787   0.700   8.488 -1.2336  1.5208 -0.2958
 1192TIP3   OH225134   3.728   0.414   0.225 -0.5788  0.0581 -0.0394
 1192TIP3    H125135   3.804   0.413   0.283 -0.2719  0.0187 -0.4376
 1192TIP3    H225136   3.657   0.449   0.279 -0.1802  0.4916  0.2147
 1193TIP3   OH225137   0.812   4.412   0.136 -0.3175  0.7766 -0.1811
 1193TIP3    H125138   0.877   4.366   0.084 -1.0218  0.6639 -0.9912
 1193TIP3    H225139   0.766   4.344   0.184  0.0261  0.8345  0.2265
 1194TIP3   OH225140   3.947   1.224   0.198 -0.4735  0.3473  0.2899
 1194TIP3    H125141   3.874   1.287   0.197 -1.2508 -0.4959  1.4737
 1194TIP3    H225142   4.000   1.251   0.273 -1.1753 -0.7822  1.2149
 1195TIP3   OH225143   1.972   5.121   6.585  0.4625  0.4297  0.5069
 1195TIP3    H125144   2.007   5.181   6.520  0.9153 -0.7292 -0.3493
 1195TIP3    H225145   2.029   5.133   6.661  1.2760  0.2618 -0.0566
 1196TIP3   OH225146   3.275   6.330   2.147 -0.9716 -0.7534 -0.7326
 1196TIP3    H125147   3.263   6.348   2.241 -0.7111  0.0459 -0.8491
 1196TIP3    H225148   3.186   6.332   2.111 -0.9605  0.2955 -0.7321
 1197TIP3   OH225149   3.357   0.522   8.480  0.6742 -0.0373 -0.2127
 1197TIP3    H125150   3.450   0.505   8.493  0.9903  0.6706 -1.3574
 1197TIP3    H225151   3.343   0.611   8.513  0.0898 -0.6320  1.2211
 1198TIP3   OH225152   2.877   0.606   6.962  0.2716 -0.3651 -0.2669
 1198TIP3    H125153   2.876   0.700   6.981  0.0012 -0.2178 -0.9865
 1198TIP3    H225154   2.875   0.601   6.866 -1.1597 -1.1094 -0.2311
 1199TIP3   OH225155   1.163   4.063   0.904 -0.0632  0.4088  0.2265
 1199TIP3    H125156   1.105   3.988   0.899 -0.1333  0.5194 -0.6731
 1199TIP3    H225157   1.191   4.065   0.996  0.5197 -1.1319  0.1021
 1200TIP3   OH225158   2.786   5.199   7.934  0.8940  0.3901  0.5276
 1200TIP3    H125159   2.875   5.186   7.902  1.1522 -0.9818  1.6600
 1200TIP3    H225160   2.760   5.114   7.969 -1.6957  0.1368 -1.6488
 1201TIP3   OH225161   2.634   2.192   0.740 -0.2668  0.3317  0.3890
 1201TIP3    H125162   2.562   2.225   0.685  1.2192  2.0817 -0.6531
 1201TIP3    H225163   2.653   2.265   0.800 -1.8599 -1.5355  3.4010
 1202TIP3   OH225164   4.763   5.720   0.184 -0.6595 -0.2337  0.4868
 1202TIP3    H125165   4.781   5.804   0.226  1.1616 -0.9208  1.2110
 1202TIP3    H225166   4.733   5.663   0.256 -3.6191  0.1983 -0.2893
 1203TIP3   OH225167   3.861   6.602   0.670  0.4405 -0.1490 -0.0244
 1203TIP3    H125168   3.878   6.679   0.724 -0.3300  0.6840 -0.9449
 1203TIP3    H225169   3.948   6.568   0.649  0.7727  0.1057  0.8701
 1204TIP3   OH225170   4.377   4.726   8.432  0.0347  0.1049 -0.0752
 1204TIP3    H125171   4.424   4.655   8.477  0.4935  1.2238  1.2671
 1204TIP3    H225172   4.441   4.761   8.370 -0.5545 -1.3508 -1.5816
 1205TIP3   OH225173   5.689   1.736   0.844  0.3047  0.0801  0.0071
 1205TIP3    H125174   5.747   1.765   0.774 -0.1804 -0.3912 -0.6010
 1205TIP3    H225175   5.627   1.677   0.801  0.3443 -0.6636  0.9426
 1206TIP3   OH225176   0.146   2.755   7.188  0.3495  0.2436 -0.1774
 1206TIP3    H125177   0.097   2.794   7.115  1.7565  3.3228  0.3708
 1206TIP3    H225178   0.093   2.774   7.265  1.4463  2.0254  0.1990
 1207TIP3   OH225179   4.511   2.526   6.978 -0.1314 -0.2062 -0.2657
 1207TIP3    H125180   4.570   2.477   6.921 -0.8268  0.8278 -1.9505
 1207TIP3    H225181   4.425   2.488   6.962 -0.9344  2.3261 -2.6817
 1208TIP3   OH225182   1.507   6.271   2.317 -0.2430 -0.1718 -0.1698
 1208TIP3    H125183   1.489   6.349   2.369 -1.7624 -0.2404 -0.5265
 1208TIP3    H225184   1.565   6.217   2.371 -0.7617  0.3332  0.9005
 1209TIP3   OH225185   2.856   6.330   7.696 -0.0677 -0.6687  0.1847
 1209TIP3    H125186   2.927   6.378   7.654 -0.5988 -1.6594 -2.0246
 1209TIP3    H225187   2.823   6.389   7.764  0.9793  0.9963 -0.7021
 1210TIP3   OH225188   1.506   6.296   7.952 -0.0626 -0.2715  0.1306
 1210TIP3    H125189   1.506   6.376   7.899 -0.6854  0.4525  1.1924
 1210TIP3    H225190   1.571   6.240   7.909  1.8112  1.5321  0.4378
 1211TIP3   OH225191   0.395   1.336   0.775  0.0070 -0.1433  0.4594
 1211TIP3    H125192   0.483   1.311   0.749 -0.1613 -2.0579  1.4715
 1211TIP3    H225193   0.338   1.276   0.726 -0.6923  0.6974  0.2307
 1212TIP3   OH225194   1.227   2.807   0.235  0.1445 -0.1075  0.1249
 1212TIP3    H125195   1.239   2.872   0.304  0.5479  1.1608 -1.0884
 1212TIP3    H225196   1.189   2.731   0.279 -0.2862  0.9246  1.5900
 1213TIP3   OH225197   2.697   4.244   1.837  0.3792  0.3984 -0.4763
 1213TIP3    H125198   2.626   4.205   1.788  0.1265  1.2432 -0.8020
 1213TIP3    H225199   2.660   4.261   1.924  0.1333  0.9488 -0.6820
 1214TIP3   OH225200   6.805   2.338   0.155  0.2657 -0.0640  0.0109
 1214TIP3    H125201   6.731   2.299   0.202  0.7984 -1.4725 -0.2724
 1214TIP3    H225202   6.854   2.263   0.121  0.3837  0.9026 -2.0659
 1215TIP3   OH225203   1.966   5.499   0.510  0.8601  0.0371 -0.2315
 1215TIP3    H125204   2.030   5.533   0.448  0.8815  0.3754 -0.0311
 1215TIP3    H225205   1.964   5.565   0.580  2.9187 -1.6420  1.5514
 1216TIP3   OH225206   4.324   5.091   0.536  0.4773  0.0206  0.3417
 1216TIP3    H125207   4.393   5.093   0.470 -0.7294  1.6601 -0.9450
 1216TIP3    H225208   4.325   5.180   0.573 -1.3348  0.2785 -0.1620
 1217TIP3   OH225209   0.851   5.245   6.533 -0.0299 -0.7943  0.0007
 1217TIP3    H125210   0.818   5.237   6.443  0.2253  0.3706 -0.2100
 1217TIP3    H225211   0.945   5.260   6.522 -0.0783 -0.1347  0.4412
 1218TIP3   OH225212   4.585   6.746   6.682 -0.0275  0.7364 -0.7367
 1218TIP3    H125213   4.586   6.841   6.690  0.2643  0.6192  0.7524
 1218TIP3    H225214   4.509   6.728   6.625 -0.2678  1.8238 -0.7820
 1219TIP3   OH225215   1.167   3.388   1.825 -0.3900  0.1702 -0.1674
 1219TIP3    H125216   1.110   3.345   1.889 -0.3036  1.1186  0.5790
 1219TIP3    H225217   1.126   3.473   1.810 -0.3875 -0.0312 -1.3658
 1220TIP3   OH225218   0.344   1.793   1.729  0.1233 -0.5814 -0.0435
 1220TIP3    H125219   0.298   1.835   1.657  0.3455 -0.1993  0.0342
 1220TIP3    H225220   0.312   1.838   1.808  0.8624 -0.0870 -0.0142
 1221TIP3   OH225221   0.040   6.451   1.620  0.1422 -0.1431  0.5042
 1221TIP3    H125222   0.074   6.455   1.531  1.5239 -0.5254  0.9856
 1221TIP3    H225223  -0.042   6.501   1.618  0.9764  1.2144 -0.6011
 1222TIP3   OH225224   5.611   6.236   0.461 -0.3595 -0.2467 -0.1845
 1222TIP3    H125225   5.538   6.190   0.503  0.5499  0.3413  2.2280
 1222TIP3    H225226   5.620   6.317   0.511  2.2422 -0.5295 -0.0651
 1223TIP3   OH225227   0.037   1.851   6.220 -0.1348 -0.5087 -0.4444
 1223TIP3    H125228   0.060   1.932   6.267  0.0846 -0.9648  0.2455
 1223TIP3    H225229  -0.057   1.842   6.234 -0.1372 -0.4473 -0.4159
 1224TIP3   OH225230   4.608   4.647   1.432 -0.7007  0.0117 -0.6051
 1224TIP3    H125231   4.663   4.710   1.386  0.6101  0.6150  1.6199
 1224TIP3    H225232   4.635   4.561   1.397  1.2349  0.3412 -0.0521
 1225TIP3   OH225233   6.008   3.781   1.582 -0.1652 -0.4905 -0.6440
 1225TIP3    H125234   6.023   3.707   1.641  1.2620 -0.7097 -1.2300
 1225TIP3    H225235   6.082   3.840   1.599  0.1317 -0.4401 -2.0148
 1226TIP3   OH225236   4.854   2.271   8.719  0.3910  0.1278 -0.5253
 1226TIP3    H125237   4.933   2.216   8.711 -0.4303 -0.8478 -3.0405
 1226TIP3    H225238   4.845   2.286   8.813  3.2676 -0.1648 -0.0963
 1227TIP3   OH225239   4.242   0.603   1.511  0.2484 -0.2766 -0.3159
 1227TIP3    H125240   4.213   0.566   1.594  2.4444 -0.1162  0.5926
 1227TIP3    H225241   4.273   0.691   1.533 -0.3152  0.2522 -1.5490
 1228TIP3   OH225242   1.531   3.845   0.236  0.4291 -0.1285 -0.0024
 1228TIP3    H125243   1.595   3.883   0.175 -0.2388  0.5294 -0.3042
 1228TIP3    H225244   1.462   3.811   0.180  0.8391 -1.5115  0.2800
 1229TIP3   OH225245   3.915   0.675   7.118  0.0815  0.7316 -0.4396
 1229TIP3    H125246   3.881   0.629   7.042 -0.8604  1.4731 -0.4834
 1229TIP3    H225247   4.008   0.687   7.099 -0.1103  0.7836 -1.4150
 1230TIP3   OH225248   6.609   6.191   0.005  0.1252 -0.1105 -0.1679
 1230TIP3    H125249   6.603   6.172  -0.088  0.1809  1.5315 -0.5447
 1230TIP3    H225250   6.525   6.231   0.026 -0.3716 -1.6007  0.7945
 1231TIP3   OH225251   6.506   6.728   1.367  0.8461  0.0971 -0.4271
 1231TIP3    H125252   6.548   6.678   1.298 -0.3600 -1.1662 -0.2852
 1231TIP3    H225253   6.421   6.754   1.330 -0.2926 -1.5226  0.8974
 1232TIP3   OH225254   0.767   6.830   8.277  0.3453 -0.2950 -0.4010
 1232TIP3    H125255   0.839   6.833   8.214  0.7660 -0.0541  0.0864
 1232TIP3    H225256   0.747   6.737   8.288  0.3858 -0.3468 -0.7527
 1233TIP3   OH225257   2.169   5.329   6.707  0.0132  0.2731  0.1185
 1233TIP3    H125258   2.127   5.334   6.621 -0.1551 -0.2997  0.1647
 1233TIP3    H225259   2.227   5.406   6.710  0.7422 -0.2201 -0.8797
 1234TIP3   OH225260   1.266   1.668   1.244 -0.2541 -0.2204  0.0159
 1234TIP3    H125261   1.268   1.641   1.336 -0.5979 -1.1971 -0.2421
 1234TIP3    H225262   1.264   1.585   1.195 -2.2710  0.2376 -0.8026
 1235TIP3   OH225263   5.727   1.498   1.615 -0.4913 -0.5428  0.3631
 1235TIP3    H125264   5.659   1.563   1.597 -0.4282 -1.2960 -3.6509
 1235TIP3    H225265   5.785   1.503   1.538  1.2599 -3.1891  1.3907
 1236TIP3   OH225266   4.834   3.552   7.404 -0.3707 -0.0802  0.0200
 1236TIP3    H125267   4.832   3.491   7.478 -0.5315  1.0654  0.9874
 1236TIP3    H225268   4.760   3.611   7.419 -0.7304 -0.1276 -1.3467
 1237TIP3   OH225269   1.225   3.012   2.079 -0.2671  0.1643 -0.2646
 1237TIP3    H125270   1.260   2.958   2.150  0.9409  2.7880  1.3066
 1237TIP3    H225271   1.283   3.089   2.077 -0.9484  0.7233 -3.3878
 1238TIP3   OH225272   6.429   0.058   0.506  0.2198 -0.5242 -0.3047
 1238TIP3    H125273   6.503   0.081   0.563 -0.6773 -1.0164  1.1164
 1238TIP3    H225274   6.356   0.109   0.540 -0.2599 -0.5208 -1.2986
 1239TIP3   OH225275   4.631   4.538   8.319  0.3354  0.3543 -0.2378
 1239TIP3    H125276   4.700   4.478   8.289 -0.9514 -1.1799 -0.2843
 1239TIP3    H225277   4.613   4.511   8.409 -1.3065 -0.3791 -0.7494
 1240TIP3   OH225278   5.901   2.976   6.693 -0.1535 -0.3497 -0.1889
 1240TIP3    H125279   5.842   3.051   6.689 -0.0380 -0.2323  0.2358
 1240TIP3    H225280   5.843   2.900   6.698 -0.3066 -0.1664  1.6201
 1241TIP3   OH225281   0.295   4.353   1.258  0.2840  0.1440  0.1863
 1241TIP3    H125282   0.280   4.288   1.189 -0.9180 -1.5301  1.9326
 1241TIP3    H225283   0.256   4.434   1.224  0.2680 -0.4790 -1.3375
 1242TIP3   OH225284   6.465   6.619   8.679  0.1139  0.0587  0.0523
 1242TIP3    H125285   6.531   6.600   8.747  0.1368 -2.3427 -0.5416
 1242TIP3    H225286   6.499   6.576   8.601 -2.1265 -1.2782 -0.2741
 1243TIP3   OH225287   1.654   2.603   1.859  0.2446 -0.0555  0.8016
 1243TIP3    H125288   1.658   2.517   1.901 -1.2364 -0.1862  0.7293
 1243TIP3    H225289   1.710   2.658   1.913 -0.1943 -0.6529  1.8973
 1244TIP3   OH225290   3.938   1.158   6.977 -0.4638 -0.2375  0.4766
 1244TIP3    H125291   3.983   1.201   7.050  0.0419  1.9110 -1.0055
 1244TIP3    H225292   3.850   1.195   6.979 -0.7393 -0.8920  0.5526
 1245TIP3   OH225293   2.090   1.708   6.918 -0.2117  0.0870 -0.2560
 1245TIP3    H125294   2.054   1.725   6.831 -0.1133 -0.3609 -0.3874
 1245TIP3    H225295   2.180   1.741   6.913  0.5045 -1.8422 -1.0168
 1246TIP3   OH225296   6.421   6.179   0.351  0.1435 -0.1529 -0.2348
 1246TIP3    H125297   6.423   6.083   0.358  0.0976 -0.0872  0.9166
 1246TIP3    H225298   6.329   6.201   0.366  0.4638  0.1746  1.3783
 1247TIP3   OH225299   3.424   0.964   1.784  0.3772  0.2368 -0.4272
 1247TIP3    H125300   3.400   0.972   1.877  0.2840 -1.4326 -0.2864
 1247TIP3    H225301   3.516   0.991   1.781  0.2952  0.5959  0.0954
 1248TIP3   OH225302   5.823   0.682   7.262  0.4235 -0.0116  0.1731
 1248TIP3    H125303   5.882   0.664   7.189  3.1122 -0.1616  2.2336
 1248TIP3    H225304   5.851   0.622   7.331 -1.0450  1.1095  1.8318
 1249TIP3   OH225305   0.113   5.502   1.678  0.0750  0.1831  0.4390
 1249TIP3    H125306   0.020   5.492   1.700 -0.8889  3.1866 -1.6237
 1249TIP3    H225307   0.117   5.477   1.585  1.3238  0.2051  0.4788
 1250TIP3   OH225308   3.686   4.658   2.365  0.3386 -0.1362 -0.4104
 1250TIP3    H125309   3.774   4.649   2.328  0.4729 -0.5243  0.0011
 1250TIP3    H225310   3.679   4.751   2.386  0.7159 -0.1340 -0.2829
 1251TIP3   OH225311   3.638   0.015   0.730 -0.3188  0.0027  0.0388
 1251TIP3    H125312   3.605  -0.069   0.763 -0.4031 -0.0768 -0.2459
 1251TIP3    H225313   3.593   0.080   0.784 -3.9254  0.1032 -2.7296
 1252TIP3   OH225314   4.241   6.664   6.772 -0.5916 -0.4353 -0.3103
 1252TIP3    H125315   4.271   6.697   6.688  1.0467 -1.2269 -0.0840
 1252TIP3    H225316   4.256   6.569   6.767  0.5115 -0.3839  1.2039
 1253TIP3   OH225317   2.330   6.250   8.057  0.4516 -0.3034 -0.2957
 1253TIP3    H125318   2.382   6.174   8.081  1.5756  0.8271  1.0652
 1253TIP3    H225319   2.255   6.248   8.116  0.9889  0.1455  0.4210
 1254TIP3   OH225320   5.505   1.960   0.483 -0.6672  0.3785 -0.0732
 1254TIP3    H125321   5.504   2.055   0.476 -0.1563  0.3075 -1.5724
 1254TIP3    H225322   5.597   1.936   0.470 -0.8115 -0.3228  0.1655
 1255TIP3   OH225323   1.824   0.546   7.231 -0.5257 -0.0780  0.8117
 1255TIP3    H125324   1.865   0.567   7.147 -0.8527 -0.8296  0.4570
 1255TIP3    H225325   1.839   0.452   7.242 -3.3316 -0.7155 -0.0179
 1256TIP3   OH225326   1.301   1.394   0.400  0.6219 -0.1840  0.4139
 1256TIP3    H125327   1.335   1.374   0.487  1.0687 -0.9786  0.0582
 1256TIP3    H225328   1.219   1.441   0.417  1.0568  0.2933  1.2598
 1257TIP3   OH225329   0.655   0.936   1.680  0.3997 -0.3115 -0.1222
 1257TIP3    H125330   0.563   0.948   1.703  1.0367  0.2971  2.3700
 1257TIP3    H225331   0.682   0.860   1.731  2.0433  1.4261  1.7503
 1258TIP3   OH225332   2.364   4.130   8.408  0.5154 -0.1558 -0.5236
 1258TIP3    H125333   2.382   4.220   8.380  0.1753  0.2504  0.5176
 1258TIP3    H225334   2.365   4.080   8.327  0.5726  0.8067 -1.1424
 1259TIP3   OH225335   3.281   0.811   8.157  0.3376 -0.0645 -0.7443
 1259TIP3    H125336   3.249   0.727   8.192 -0.7342  0.4363 -0.5063
 1259TIP3    H225337   3.333   0.848   8.229  0.8428 -0.5244 -0.8608
 1260TIP3   OH225338   4.204   2.607   7.458  0.6277  0.0136  0.6376
 1260TIP3    H125339   4.243   2.608   7.370  1.8401 -1.5018  1.0972
 1260TIP3    H225340   4.115   2.639   7.445  0.5927 -0.6925 -1.2519
 1261TIP3   OH225341   3.698   1.163   2.126 -0.2015 -0.0039 -0.4362
 1261TIP3    H125342   3.693   1.104   2.202  0.6191 -0.2952 -0.5969
 1261TIP3    H225343   3.790   1.188   2.122 -0.4837  1.0525 -0.5627
 1262TIP3   OH225344   2.441   3.945   8.161  0.2407  0.0885 -0.0266
 1262TIP3    H125345   2.514   3.915   8.107  1.7411 -1.2898  2.5613
 1262TIP3    H225346   2.383   3.869   8.168 -1.1494  0.9566 -1.4704
 1263TIP3   OH225347   2.019   5.094   8.486 -0.0405  0.0701  0.2105
 1263TIP3    H125348   2.102   5.118   8.443  0.9318 -2.2936  0.5846
 1263TIP3    H225349   1.954   5.098   8.417  0.1840  2.6560  0.0530
 1264TIP3   OH225350   5.438   4.474   2.274 -0.3147  0.2083  0.2791
 1264TIP3    H125351   5.517   4.504   2.318 -0.8306 -1.3772  2.4761
 1264TIP3    H225352   5.462   4.390   2.236 -0.5009  0.4970 -0.4848
 1265TIP3   OH225353   1.549   0.131   7.419 -0.3416 -0.2205 -0.6015
 1265TIP3    H125354   1.459   0.161   7.406 -0.0717  0.9090  0.0639
 1265TIP3    H225355   1.549   0.090   7.505 -0.1371  0.1056 -0.4457
 1266TIP3   OH225356   3.339   2.772   1.490 -0.7145 -0.1889 -0.1447
 1266TIP3    H125357   3.350   2.778   1.585 -1.0453  1.1336 -0.1688
 1266TIP3    H225358   3.255   2.814   1.473 -1.2788 -1.5823 -0.9034
 1267TIP3   OH225359   6.509   5.924   0.142 -0.0426 -0.1608  0.5116
 1267TIP3    H125360   6.559   6.000   0.114 -0.7980  0.6479  1.2837
 1267TIP3    H225361   6.422   5.959   0.164 -0.5755 -1.3258  0.3686
 1268TIP3   OH225362   5.824   4.967   7.575 -0.6093  0.0623 -0.1461
 1268TIP3    H125363   5.806   4.984   7.483  0.2004  0.2739 -0.2695
 1268TIP3    H225364   5.749   5.003   7.622 -0.1964  1.5712 -0.5898
 1269TIP3   OH225365   5.384   6.553   1.570 -0.2578 -0.1098  0.6824
 1269TIP3    H125366   5.372   6.636   1.616  1.7139 -1.0864  3.1684
 1269TIP3    H225367   5.431   6.577   1.490 -2.5385  1.4600 -0.3019
 1270TIP3   OH225368   2.280   2.312   8.516  0.0532  0.2791  0.3965
 1270TIP3    H125369   2.258   2.280   8.603  0.6584 -0.3624  0.3140
 1270TIP3    H225370   2.297   2.234   8.465 -1.9488  0.5325 -0.7780
 1271TIP3   OH225371   2.421   3.595   0.119  0.0118 -0.5802  0.0524
 1271TIP3    H125372   2.372   3.534   0.064  0.5469 -1.2908  0.3557
 1271TIP3    H225373   2.511   3.588   0.089  0.6006 -2.0961  1.9446
 1272TIP3   OH225374   5.992   4.592   1.784 -0.1570  0.6581 -0.3450
 1272TIP3    H125375   6.053   4.567   1.714 -0.0272  1.0105 -0.3578
 1272TIP3    H225376   5.976   4.685   1.770  0.9974  1.0917  0.9412
 1273TIP3   OH225377   2.512   2.595   8.398  0.1816 -0.3802 -0.0847
 1273TIP3    H125378   2.448   2.544   8.348  0.6119  0.6404 -1.7735
 1273TIP3    H225379   2.594   2.584   8.350  0.8821 -0.2451  1.0462
 1274TIP3   OH225380   0.394   1.690   6.630  0.0302 -0.3554  0.1469
 1274TIP3    H125381   0.412   1.775   6.590 -0.9912 -0.0561  0.2960
 1274TIP3    H225382   0.327   1.650   6.574 -0.3093 -0.5773  0.7010
 1275TIP3   OH225383   3.539   6.677   1.291  0.0420 -0.2771  0.3441
 1275TIP3    H125384   3.472   6.614   1.319  0.3272 -1.1302 -0.8047
 1275TIP3    H225385   3.489   6.750   1.254 -0.3259 -1.7641 -2.3475
 1276TIP3   OH225386   1.454   4.013   0.466 -0.9081  0.3862 -0.4061
 1276TIP3    H125387   1.387   3.977   0.407 -0.4203 -3.3773  1.0260
 1276TIP3    H225388   1.537   3.983   0.428 -0.4973 -0.5164  1.1323
 1277TIP3   OH225389   6.175   5.594   7.722 -0.5540  0.5604  0.2464
 1277TIP3    H125390   6.157   5.560   7.810  0.9679  2.1665  1.2602
 1277TIP3    H225391   6.176   5.689   7.733 -1.4103  0.8589 -1.7662
 1278TIP3   OH225392   4.881   1.681   1.970 -0.8375  0.5554 -0.1766
 1278TIP3    H125393   4.809   1.641   2.019 -0.1874  0.3291  0.6141
 1278TIP3    H225394   4.898   1.763   2.015 -0.1517  0.2892  0.0554
 1279TIP3   OH225395   0.346   2.420   1.535  0.4719  0.0626  0.1510
 1279TIP3    H125396   0.271   2.368   1.505  1.7593 -1.3964 -0.6365
 1279TIP3    H225397   0.341   2.414   1.631  0.0157 -0.6430  0.0916
 1280TIP3   OH225398   6.209   4.728   0.816 -0.0635 -0.0090  0.0585
 1280TIP3    H125399   6.224   4.822   0.822 -1.2432  0.1864  0.1853
 1280TIP3    H225400   6.258   4.691   0.890 -0.5123  0.6299  0.6873
 1281TIP3   OH225401   6.738   0.780   1.345  0.6142 -0.5340 -0.2473
 1281TIP3    H125402   6.736   0.762   1.439 -2.5908  1.1522  0.1665
 1281TIP3    H225403   6.786   0.863   1.338 -1.1985  0.6223  0.2980
 1282TIP3   OH225404   5.759   5.386   7.622  0.1279 -0.2940  0.3142
 1282TIP3    H125405   5.754   5.378   7.527 -0.7775 -3.2581  0.4977
 1282TIP3    H225406   5.821   5.318   7.649 -1.3615 -1.1085  1.9377
 1283TIP3   OH225407   6.259   3.635   8.681  0.5716  0.1760 -0.2191
 1283TIP3    H125408   6.258   3.548   8.642  0.3959  0.7192 -1.4715
 1283TIP3    H225409   6.351   3.654   8.697  0.5605 -0.5298  0.7669
 1284TIP3   OH225410   5.676   2.902   8.476  0.1842 -0.2944  0.4962
 1284TIP3    H125411   5.705   2.945   8.556  2.0996 -0.2381 -0.1945
 1284TIP3    H225412   5.752   2.853   8.445 -0.7303 -0.9069 -0.9227
 1285TIP3   OH225413   5.745   1.788   0.374 -0.0519 -0.0551  0.2336
 1285TIP3    H125414   5.748   1.773   0.279  1.6690 -1.5939  0.4677
 1285TIP3    H225415   5.836   1.803   0.399 -0.1827 -1.6506  1.8950
 1286TIP3   OH225416   3.535   2.305   1.317  0.4248  0.4380  0.1031
 1286TIP3    H125417   3.620   2.290   1.358  0.9441  0.5674 -0.9162
 1286TIP3    H225418   3.484   2.351   1.385  0.1019 -2.3174  1.8692
 1287TIP3   OH225419   0.128   5.903   8.608  0.3549 -0.2730 -1.1094
 1287TIP3    H125420   0.112   5.996   8.622 -0.7594 -0.5364 -0.4376
 1287TIP3    H225421   0.057   5.859   8.656  1.7611 -1.5144 -0.0461
 1288TIP3   OH225422   0.733   4.519   1.863 -0.5967 -0.1769  0.2202
 1288TIP3    H125423   0.741   4.521   1.768  2.0649 -0.3774  0.3710
 1288TIP3    H225424   0.727   4.426   1.885 -2.0511 -0.1034  0.2485
 1289TIP3   OH225425   5.285   1.197   1.658 -0.0093  0.0589  0.2541
 1289TIP3    H125426   5.334   1.223   1.735 -1.1475  0.7132  0.7895
 1289TIP3    H225427   5.258   1.106   1.676 -1.0927  0.5230  1.0898
 1290TIP3   OH225428   5.317   2.257   8.447  0.0438  0.4994  0.0583
 1290TIP3    H125429   5.376   2.228   8.377 -1.0194  0.4443 -0.8485
 1290TIP3    H225430   5.247   2.303   8.401 -0.3578  1.0142  1.1552
 1291TIP3   OH225431   0.184   6.261   7.226 -0.4066  0.0447 -0.4734
 1291TIP3    H125432   0.245   6.284   7.296 -1.5675 -0.9354  0.8996
 1291TIP3    H225433   0.099   6.290   7.258 -0.9905 -0.5948 -1.4128
 1292TIP3   OH225434   3.018   2.821   7.390  0.4400  0.7724  0.3856
 1292TIP3    H125435   3.076   2.888   7.354  1.2787  1.0158  2.1074
 1292TIP3    H225436   3.023   2.833   7.485 -3.9454  2.0576  0.6455
 1293TIP3   OH225437   2.100   4.745   0.188 -0.6468 -0.3017 -0.4478
 1293TIP3    H125438   2.127   4.788   0.107  0.3152 -0.8174 -0.4070
 1293TIP3    H225439   2.041   4.675   0.159 -0.4458 -0.3731 -0.6822
 1294TIP3   OH225440   5.771   2.460   0.400 -0.1449 -0.3639 -0.7596
 1294TIP3    H125441   5.790   2.407   0.478  1.2697 -1.4857 -1.8218
 1294TIP3    H225442   5.754   2.547   0.435 -2.9390 -1.4902  1.0867
 1295TIP3   OH225443   5.219   1.451   1.547  0.2202  0.3056 -0.0718
 1295TIP3    H125444   5.254   1.368   1.578  1.7202 -0.4777 -3.4310
 1295TIP3    H225445   5.197   1.499   1.626  1.9224 -2.1840  2.0575
 1296TIP3   OH225446   5.507   4.460   1.884 -0.4138 -0.1851 -0.0891
 1296TIP3    H125447   5.573   4.413   1.832  0.0809  0.4298 -0.0331
 1296TIP3    H225448   5.556   4.531   1.926 -1.4396  1.5696 -1.6602
 1297TIP3   OH225449   3.489   0.909   7.264 -0.2698 -0.3209 -0.2336
 1297TIP3    H125450   3.442   0.973   7.211  1.0043  0.7532 -0.1179
 1297TIP3    H225451   3.579   0.912   7.232  0.1437 -0.9547  0.8022
 1298TIP3   OH225452   1.059   2.001   0.983  0.0629  0.3036  0.5380
 1298TIP3    H125453   1.068   1.908   1.006  0.3170 -0.9441 -3.6963
 1298TIP3    H225454   0.976   2.028   1.024 -0.6275 -2.1461  0.9274
 1299TIP3   OH225455   0.333   5.456   7.442 -0.1581  0.3102 -0.1670
 1299TIP3    H125456   0.332   5.405   7.523 -3.0304 -0.0655 -0.3058
 1299TIP3    H225457   0.414   5.431   7.398 -0.1078 -1.9814  1.0868
 1300TIP3   OH225458   2.482   5.559   2.358  0.0977 -0.0060  0.4197
 1300TIP3    H125459   2.528   5.619   2.300  2.1020 -0.9205  1.0037
 1300TIP3    H225460   2.471   5.608   2.440 -0.4043  0.3749  0.1283
 1301TIP3   OH225461   1.212   5.117   6.778 -0.0906 -0.1197  0.2328
 1301TIP3    H125462   1.228   5.061   6.854  1.5958  0.4284  0.3249
 1301TIP3    H225463   1.284   5.098   6.719 -0.3260  0.8677 -0.3931
 1302TIP3   OH225464   4.913   6.051   1.585  0.7260  0.5318  0.0969
 1302TIP3    H125465   4.957   6.088   1.661  1.2647  1.2706 -0.5558
 1302TIP3    H225466   4.967   6.078   1.511 -1.4006  2.4063 -0.8733
 1303TIP3   OH225467   6.386   5.324   7.368 -0.5092 -0.7201  0.0488
 1303TIP3    H125468   6.353   5.265   7.300 -0.5239  0.0513 -0.6355
 1303TIP3    H225469   6.470   5.286   7.394  0.0329 -0.4435 -1.2137
 1304TIP3   OH225470   5.538   6.657   8.636 -0.3793 -0.0056 -0.0914
 1304TIP3    H125471   5.516   6.599   8.563 -1.1366 -0.5410  0.5409
 1304TIP3    H225472   5.605   6.609   8.685 -1.8926 -0.9643  1.1336
 1305TIP3   OH225473   5.016   4.083   1.129 -0.2912 -0.2969  0.7010
 1305TIP3    H125474   5.042   4.122   1.046 -0.6913  0.8648  1.0945
 1305TIP3    H225475   4.975   4.000   1.106  2.3289 -1.4530 -0.0325
 1306TIP3   OH225476   1.629   4.228   7.691  0.0701  0.0204 -0.6035
 1306TIP3    H125477   1.573   4.291   7.644  0.9639  1.9781  0.8155
 1306TIP3    H225478   1.569   4.182   7.749 -0.1751  2.4142  1.2350
 1307TIP3   OH225479   5.961   2.855   2.570 -0.0654 -0.4959  0.3434
 1307TIP3    H125480   5.924   2.768   2.587 -0.2466 -0.2411  1.3593
 1307TIP3    H225481   5.931   2.908   2.644  2.1593 -0.2181  1.1346
 1308TIP3   OH225482   6.620   2.048   8.385 -0.1321 -0.0811 -0.0557
 1308TIP3    H125483   6.635   2.075   8.476  0.8581  0.0267 -0.2389
 1308TIP3    H225484   6.569   2.120   8.347 -1.1555 -0.4432  0.5823
 1309TIP3   OH225485   3.995   5.826   1.829 -0.0257 -0.1775 -0.4650
 1309TIP3    H125486   3.998   5.783   1.914  0.2328  0.3445 -0.2078
 1309TIP3    H225487   3.971   5.916   1.848 -0.7894 -0.2528 -1.0233
 1310TIP3   OH225488   3.811   4.329   8.231 -0.0322 -0.3998 -0.5353
 1310TIP3    H125489   3.753   4.348   8.305 -0.5360  1.1770 -1.2726
 1310TIP3    H225490   3.779   4.246   8.196 -1.0390 -0.1837 -0.1648
 1311TIP3   OH225491   6.572   3.277   8.397 -0.0873  0.0503  0.3091
 1311TIP3    H125492   6.535   3.338   8.333 -0.2145 -0.2108  0.1313
 1311TIP3    H225493   6.608   3.205   8.344  1.1289  0.5368  0.4503
 1312TIP3   OH225494   4.353   1.266   1.497 -0.4473  0.3166 -0.0624
 1312TIP3    H125495   4.331   1.338   1.557  0.4850  0.7563 -0.2215
 1312TIP3    H225496   4.321   1.187   1.540 -0.6626  0.7351  0.5532
 1313TIP3   OH225497   0.466   6.311   1.146  0.0685 -0.5586  0.2290
 1313TIP3    H125498   0.406   6.330   1.075 -1.7644  0.1374  1.8656
 1313TIP3    H225499   0.550   6.346   1.118 -0.6922  0.0146 -1.4079
 1314TIP3   OH225500   6.544   1.656   1.313 -0.0035  0.1622  0.0473
 1314TIP3    H125501   6.593   1.588   1.268  0.0215  0.6689 -0.7200
 1314TIP3    H225502   6.559   1.735   1.260  0.2087  0.8265  1.0725
 1315TIP3   OH225503   1.616   5.655   6.926  0.7779 -0.3333 -0.3313
 1315TIP3    H125504   1.648   5.695   7.007  0.3248  0.3960 -0.5046
 1315TIP3    H225505   1.590   5.729   6.871  0.0084 -0.8664 -0.6977
 1316TIP3   OH225506   6.157   2.870   7.735 -0.1367 -0.1633 -0.2087
 1316TIP3    H125507   6.197   2.789   7.704  0.6531 -0.2098  0.8825
 1316TIP3    H225508   6.166   2.867   7.830  3.2002  2.7784 -0.2116
 1317TIP3   OH225509   5.334   5.597   7.930  0.0200 -0.4278  0.3792
 1317TIP3    H125510   5.284   5.603   7.849 -0.5642 -0.1977  0.7556
 1317TIP3    H225511   5.415   5.553   7.904  0.1221  0.2094 -0.4595
 1318TIP3   OH225512   5.397   6.007   7.702  0.0170  0.6572  0.0018
 1318TIP3    H125513   5.451   5.977   7.629  0.1390  1.8989 -0.4531
 1318TIP3    H225514   5.348   5.930   7.730  0.1006  0.1156 -1.2863
 1319TIP3   OH225515   1.629   3.514   0.150 -0.0509  0.0576 -0.2381
 1319TIP3    H125516   1.690   3.501   0.078 -0.7735  1.4310 -1.1303
 1319TIP3    H225517   1.550   3.467   0.123  0.0424 -0.3684  0.1947
 1320TIP3   OH225518   2.010   4.819   0.914 -0.2562 -1.1938 -0.4592
 1320TIP3    H125519   1.963   4.815   0.997 -1.4554 -0.0229 -1.0403
 1320TIP3    H225520   2.100   4.842   0.938 -0.6744 -0.5202  0.5003
 1321TIP3   OH225521   3.466   3.532   2.097 -0.1770  0.1390 -0.0044
 1321TIP3    H125522   3.379   3.565   2.121 -0.2886  0.5734 -0.9742
 1321TIP3    H225523   3.447   3.461   2.035  0.1762  1.7238 -2.0451
 1322TIP3   OH225524   5.561   3.456   0.902  0.2193  0.0132  0.3164
 1322TIP3    H125525   5.540   3.489   0.815 -1.4275 -0.7341  0.3865
 1322TIP3    H225526   5.498   3.499   0.960  0.2459 -0.6929  0.8912
 1323TIP3   OH225527   6.571   0.027   6.696  0.3585 -0.3318 -0.5199
 1323TIP3    H125528   6.570  -0.033   6.769  1.1766  0.6685  0.3498
 1323TIP3    H225529   6.597  -0.026   6.621  0.3341 -1.1898  0.0706
 1324TIP3   OH225530   3.463   4.453   8.582 -0.1843  0.0742  0.1213
 1324TIP3    H125531   3.500   4.377   8.625 -2.5738 -2.7255 -2.3403
 1324TIP3    H225532   3.380   4.470   8.628  0.4709  1.4909  0.8544
 1325TIP3   OH225533   4.035   3.502   6.187 -0.1883 -0.5128  0.1920
 1325TIP3    H125534   4.054   3.425   6.240 -0.0055  0.8637  2.2768
 1325TIP3    H225535   4.087   3.572   6.228  0.0656  0.6183 -1.9378
 1326TIP3   OH225536   2.687   5.629   8.621  0.1510  0.0117 -0.1126
 1326TIP3    H125537   2.607   5.681   8.626  0.3245  0.6079 -2.5635
 1326TIP3    H225538   2.726   5.638   8.708 -2.4921 -0.4613  1.2110
 1327TIP3   OH225539   3.477   1.594   1.651  0.3004  0.1310  0.1708
 1327TIP3    H125540   3.478   1.570   1.744 -1.1441  1.7737  0.6717
 1327TIP3    H225541   3.387   1.622   1.634  0.7609  0.7585 -1.4863
 1328TIP3   OH225542   5.645   4.136   8.267 -0.0576  0.0678  0.2168
 1328TIP3    H125543   5.720   4.084   8.240  0.4025  1.2086 -0.7761
 1328TIP3    H225544   5.612   4.092   8.346  0.7122 -1.3121 -0.2117
 1329TIP3   OH225545   5.978   1.542   0.996  0.0567  0.4937 -0.1217
 1329TIP3    H125546   5.900   1.565   1.047 -0.6556  1.3878 -1.5241
 1329TIP3    H225547   5.955   1.459   0.954  0.3866  0.0814  0.5201
 1330TIP3   OH225548   0.394   6.117   0.360 -0.1768 -0.2082  0.0279
 1330TIP3    H125549   0.406   6.130   0.265  1.1516  1.4387  0.3610
 1330TIP3    H225550   0.328   6.049   0.367 -2.6679  1.7861 -2.1209
 1331TIP3   OH225551   2.758   2.581   8.268  0.5556 -0.0495  0.3005
 1331TIP3    H125552   2.835   2.631   8.240  1.1529 -0.6143  0.8828
 1331TIP3    H225553   2.789   2.530   8.343 -0.6711  0.4785  1.1957
 1332TIP3   OH225554   0.929   2.691   0.379  0.2620  0.1104  0.0296
 1332TIP3    H125555   0.875   2.762   0.413 -0.2466 -0.3888  0.2842
 1332TIP3    H225556   0.911   2.690   0.285  1.1581  1.0602 -0.1657
 1333TIP3   OH225557   3.054   5.827   6.741 -0.1186  0.7450 -0.0620
 1333TIP3    H125558   2.989   5.856   6.677  0.1518  1.1636 -0.1497
 1333TIP3    H225559   3.137   5.827   6.693 -0.3077 -1.8130 -0.5791
 1334TIP3   OH225560   1.584   4.513   6.095  0.1755 -0.2625 -0.1534
 1334TIP3    H125561   1.495   4.547   6.083 -0.3787 -1.3061  0.7780
 1334TIP3    H225562   1.641   4.585   6.067 -0.9444 -0.0933 -2.1879
 1335TIP3   OH225563   0.114   3.852   8.135 -0.0177  0.3628 -0.5915
 1335TIP3    H125564   0.148   3.938   8.107  0.4452  0.4750  0.2845
 1335TIP3    H225565   0.028   3.871   8.172  0.0644  0.4469 -0.4420
 1336TIP3   OH225566   2.783   0.023   0.468 -0.4013  0.7269 -0.6750
 1336TIP3    H125567   2.872   0.011   0.434  0.6541  2.4383  1.2664
 1336TIP3    H225568   2.743  -0.063   0.461  2.2688 -0.7455  0.7103
 1337TIP3   OH225569   2.101   0.600   0.540 -0.7329  0.2286 -0.2722
 1337TIP3    H125570   2.123   0.509   0.523 -1.3733  0.2277 -1.1818
 1337TIP3    H225571   2.133   0.617   0.629 -1.1921 -1.0653  0.1657
 1338TIP3   OH225572   1.462   6.174   1.144  0.0648 -0.3483 -0.0050
 1338TIP3    H125573   1.483   6.133   1.228  0.2978 -0.5022 -0.1375
 1338TIP3    H225574   1.438   6.101   1.087 -2.3724 -0.0865  0.5633
 1339TIP3   OH225575   0.690   4.899   1.541  0.1576  0.0429 -0.1344
 1339TIP3    H125576   0.746   4.961   1.588 -0.4813  0.2456  0.3877
 1339TIP3    H225577   0.604   4.910   1.581 -0.2484 -0.2911 -0.8868
 1340TIP3   OH225578   0.962   2.217   1.375  0.0068  0.1713  0.1683
 1340TIP3    H125579   0.895   2.284   1.384 -0.0207  0.1230  0.3285
 1340TIP3    H225580   0.932   2.161   1.304 -1.5422 -1.5065  2.0195
 1341TIP3   OH225581   2.597   0.796   1.242 -0.2827  0.1007  0.0026
 1341TIP3    H125582   2.652   0.839   1.308  0.9119 -1.3258 -0.0039
 1341TIP3    H225583   2.621   0.839   1.160 -0.5462  0.7457  0.2581
 1342TIP3   OH225584   2.389   3.429   7.397  0.0819  0.3244 -0.6731
 1342TIP3    H125585   2.323   3.387   7.340 -1.0269 -0.3208  1.0168
 1342TIP3    H225586   2.393   3.519   7.365  0.1294 -0.2175 -2.3149
 1343TIP3   OH225587   6.572   5.033   2.273 -0.2008  0.0513 -0.7914
 1343TIP3    H125588   6.666   5.039   2.292 -0.2591 -2.7951  1.1031
 1343TIP3    H225589   6.543   5.124   2.266  2.4105  1.0626  0.1576
 1344TIP3   OH225590   1.521   6.465   6.109 -0.0556 -0.1523  0.6720
 1344TIP3    H125591   1.476   6.389   6.145 -2.7213  1.7993  1.8494
 1344TIP3    H225592   1.453   6.512   6.060  1.2769  1.8433  0.6180
 1345TIP3   OH225593   6.021   5.897   0.307  0.0999  0.2236 -0.5201
 1345TIP3    H125594   6.031   5.939   0.392  1.0499 -0.8539 -0.0726
 1345TIP3    H225595   5.945   5.939   0.268 -1.6415 -0.6805  1.7066
 1346TIP3   OH225596   6.137   0.265   8.294 -0.2632 -0.5661 -0.3282
 1346TIP3    H125597   6.045   0.263   8.320 -0.3197 -0.6240 -0.5300
 1346TIP3    H225598   6.140   0.321   8.217  0.3100  1.8241  1.3282
 1347TIP3   OH225599   5.775   1.212   8.161 -0.2454  0.5170 -0.2525
 1347TIP3    H125600   5.730   1.265   8.227 -1.1971 -0.0055 -0.4812
 1347TIP3    H225601   5.747   1.123   8.178  1.4150  0.0352  0.1767
 1348TIP3   OH225602   6.097   1.961   2.624 -0.5150 -0.1451 -0.0067
 1348TIP3    H125603   6.068   2.034   2.569  2.3698  0.0197 -1.4711
 1348TIP3    H225604   6.114   1.890   2.563 -1.6895 -1.5783  1.2449
 1349TIP3   OH225605   4.829   3.946   7.559  0.1903 -0.2871  0.2446
 1349TIP3    H125606   4.922   3.940   7.537  0.3183 -2.6327  1.0732
 1349TIP3    H225607   4.783   3.929   7.477  0.5157  0.1976 -0.0341
 1350TIP3   OH225608   1.357   0.737   0.929  0.4914  0.2433 -0.3252
 1350TIP3    H125609   1.450   0.716   0.921  0.6753  1.4640 -1.9341
 1350TIP3    H225610   1.336   0.784   0.848 -1.4936  0.1433  0.0732
 1351TIP3   OH225611   3.599   6.792   8.219  0.0064 -0.0348  0.4048
 1351TIP3    H125612   3.674   6.851   8.224  0.9655 -1.2577  1.1261
 1351TIP3    H225613   3.635   6.705   8.239 -1.1037 -1.1198 -1.9498
 1352TIP3   OH225614   1.201   5.358   0.217 -0.1271  0.3636 -0.3084
 1352TIP3    H125615   1.179   5.314   0.135 -1.2674  1.0914 -0.4129
 1352TIP3    H225616   1.294   5.339   0.230  0.3278  1.0164 -2.2589
 1353TIP3   OH225617   2.806   5.473   1.941 -0.8109 -0.2612 -0.1604
 1353TIP3    H125618   2.807   5.392   1.992 -1.7062  0.1827  0.5886
 1353TIP3    H225619   2.782   5.540   2.004  0.9162  0.7751 -0.5283
 1354TIP3   OH225620   6.601   3.766   1.308  0.7143 -0.3152  0.2605
 1354TIP3    H125621   6.646   3.791   1.227  1.2063 -0.0202  0.6210
 1354TIP3    H225622   6.633   3.827   1.373 -1.3059  0.8538  0.2301
 1355TIP3   OH225623   1.158   0.908   7.742 -0.3682 -0.3563 -0.0602
 1355TIP3    H125624   1.214   0.831   7.738  1.7715  0.9871  1.5937
 1355TIP3    H225625   1.140   0.931   7.651  2.0436 -0.7008 -0.6834
 1356TIP3   OH225626   1.598   5.248   0.719  0.0454 -0.0373 -0.5909
 1356TIP3    H125627   1.506   5.258   0.693  0.1502  0.5397 -0.7572
 1356TIP3    H225628   1.648   5.281   0.644  0.3445  2.3560  0.5772
 1357TIP3   OH225629   0.305   1.950   1.399 -0.2928  0.4381 -0.3890
 1357TIP3    H125630   0.316   1.856   1.386  2.3105  0.6159  0.0466
 1357TIP3    H225631   0.248   1.957   1.476 -0.6653 -0.7720 -0.5429
 1358TIP3   OH225632   4.669   3.392   0.335  0.1968 -0.2617 -0.1949
 1358TIP3    H125633   4.704   3.340   0.407  1.4315  0.4106 -0.2808
 1358TIP3    H225634   4.746   3.433   0.295 -0.2767 -1.6094 -2.7174
 1359TIP3   OH225635   5.802   2.353   6.652  0.3861 -0.2878 -0.6028
 1359TIP3    H125636   5.839   2.402   6.725  0.8312 -0.6995 -0.5447
 1359TIP3    H225637   5.739   2.413   6.612 -2.4535 -1.1296  2.1561
 1360TIP3   OH225638   5.461   0.863   6.736 -0.2201 -0.1715  0.2388
 1360TIP3    H125639   5.459   0.849   6.641  0.6987 -0.1196  0.2103
 1360TIP3    H225640   5.474   0.775   6.772 -1.4427 -0.3186  0.3691
 1361TIP3   OH225641   1.849   1.763   7.594  0.1076  0.2008 -0.0754
 1361TIP3    H125642   1.789   1.754   7.520  0.3692 -0.5542 -0.2009
 1361TIP3    H225643   1.915   1.695   7.580  1.2674  1.2918 -0.2017
 1362TIP3   OH225644   4.645   4.450   1.094  0.4452  0.0083  0.0456
 1362TIP3    H125645   4.726   4.472   1.048  0.3601  2.6094  0.9804
 1362TIP3    H225646   4.598   4.533   1.102 -2.7946 -1.5340 -1.2342
 1363TIP3   OH225647   4.407   6.523   0.983 -0.4000 -0.2442  0.4006
 1363TIP3    H125648   4.455   6.594   0.941 -0.2796 -0.5817 -0.0494
 1363TIP3    H225649   4.472   6.456   0.999 -0.9865 -1.5657 -2.0892
 1364TIP3   OH225650   3.471   1.978   1.900 -0.3907 -0.1880 -0.2563
 1364TIP3    H125651   3.457   1.948   1.810 -0.1557 -0.6455 -0.1447
 1364TIP3    H225652   3.400   1.937   1.950 -0.1266 -0.4903 -0.1210
 1365TIP3   OH225653   6.410   6.781   1.001 -0.2333 -0.3821  0.1502
 1365TIP3    H125654   6.371   6.806   1.085  2.2674 -0.9995  1.6116
 1365TIP3    H225655   6.501   6.812   1.007 -0.3356  0.8745 -2.9767
 1366TIP3   OH225656   2.550   4.582   0.023 -0.8339 -0.8837  0.3938
 1366TIP3    H125657   2.584   4.495   0.042 -2.1278 -1.1131  1.8740
 1366TIP3    H225658   2.569   4.633   0.102 -1.0803 -0.1246 -0.0203
 1367TIP3   OH225659   2.550   5.254   1.942 -0.3325 -0.0569 -0.5938
 1367TIP3    H125660   2.641   5.234   1.964 -0.7115 -1.3944 -0.1376
 1367TIP3    H225661   2.512   5.169   1.921 -1.9409  0.2236  0.9930
 1368TIP3   OH225662   0.640   2.222   7.193  0.2801  0.0318  0.1695
 1368TIP3    H125663   0.709   2.218   7.127  3.4658  1.6547  3.0913
 1368TIP3    H225664   0.579   2.153   7.168  0.4914  1.3334 -5.0665
 1369TIP3   OH225665   5.588   1.877   8.161 -0.4354 -0.3240  0.3550
 1369TIP3    H125666   5.549   1.937   8.225 -0.7976  0.3084 -0.4428
 1369TIP3    H225667   5.522   1.810   8.147 -0.9186  0.2979 -0.3831
 1370TIP3   OH225668   6.545   3.894   8.469 -0.3913  0.8077  0.2718
 1370TIP3    H125669   6.532   3.980   8.510 -0.5279  0.0367  1.9039
 1370TIP3    H225670   6.580   3.839   8.539  1.6651  0.0381 -1.2603
 1371TIP3   OH225671   3.779   1.680   1.291 -0.2622 -0.2229 -0.4176
 1371TIP3    H125672   3.684   1.680   1.302 -0.1183  0.6390  1.2459
 1371TIP3    H225673   3.795   1.619   1.219 -2.0597 -0.4538 -0.6722
 1372TIP3   OH225674   1.944   5.219   0.529 -0.0855  0.2118 -0.3043
 1372TIP3    H125675   1.958   5.311   0.506 -2.2704  1.2546  2.0692
 1372TIP3    H225676   1.850   5.205   0.516  0.4410 -2.2130 -2.1010
 1373TIP3   OH225677   1.328   1.888   1.630  0.6138  0.6903 -0.2247
 1373TIP3    H125678   1.410   1.925   1.662  1.5239 -1.6199  0.3183
 1373TIP3    H225679   1.327   1.910   1.536  2.4925 -0.2560 -0.5185
 1374TIP3   OH225680   2.779   4.156   2.350  0.9497  0.2346  0.0431
 1374TIP3    H125681   2.759   4.125   2.262 -0.2822 -0.5071  0.5633
 1374TIP3    H225682   2.806   4.247   2.338 -2.2537  1.1935 -0.8423
 1375TIP3   OH225683   6.621   6.449   8.241 -0.1369 -0.4720 -0.1687
 1375TIP3    H125684   6.661   6.533   8.217 -0.4574 -0.7762 -1.9369
 1375TIP3    H225685   6.679   6.383   8.202  0.2527 -1.1214  1.4177
 1376TIP3   OH225686   5.117   3.919   7.454  0.2028  0.2901 -0.8122
 1376TIP3    H125687   5.191   3.980   7.452  1.0784 -0.6482  0.5780
 1376TIP3    H225688   5.129   3.871   7.536 -2.4833  0.7167 -0.0956
 1377TIP3   OH225689   1.578   0.564   6.754  0.0689  0.7363  0.4059
 1377TIP3    H125690   1.597   0.613   6.674  0.1402  1.4330  0.8440
 1377TIP3    H225691   1.484   0.578   6.769 -0.1180 -0.0654 -0.0011
 1378TIP3   OH225692   0.978   4.246   7.763  0.3697 -0.2886  0.4138
 1378TIP3    H125693   0.887   4.218   7.761  0.2429 -0.0836  1.8010
 1378TIP3    H225694   1.019   4.201   7.690 -1.0236  0.2988 -0.7871
 1379TIP3   OH225695   2.760   3.799   8.265 -0.2773  0.2601 -0.0711
 1379TIP3    H125696   2.785   3.829   8.352  0.0118  0.3339 -0.1776
 1379TIP3    H225697   2.738   3.879   8.217 -1.4004  0.1420  0.2267
 1380TIP3   OH225698   1.510   5.702   7.802 -1.0477 -0.1323  0.0766
 1380TIP3    H125699   1.466   5.634   7.852 -1.2639 -1.2692 -1.5716
 1380TIP3    H225700   1.444   5.771   7.791 -0.7608  0.4926  1.9371
 1381TIP3   OH225701   6.632   6.222   0.536  0.1895 -1.0385 -0.0471
 1381TIP3    H125702   6.551   6.219   0.485 -0.2590 -0.4826  0.6181
 1381TIP3    H225703   6.604   6.210   0.627  0.5114  1.7042  0.4991
 1382TIP3   OH225704   1.192   2.366   0.438  0.3967 -0.2017 -0.2261
 1382TIP3    H125705   1.190   2.310   0.515 -1.4645  1.5620  1.1246
 1382TIP3    H225706   1.111   2.346   0.390  0.0988  0.7531 -0.1416
 1383TIP3   OH225707   5.758   0.195   0.378  0.1121 -0.4353  0.3862
 1383TIP3    H125708   5.747   0.274   0.431  1.1207  0.8626 -1.2088
 1383TIP3    H225709   5.829   0.147   0.421  0.1029 -0.0222  0.8736
 1384TIP3   OH225710   1.563   0.802   0.481 -0.5307 -0.2267 -0.2483
 1384TIP3    H125711   1.626   0.734   0.502  0.9663  0.7858 -1.2583
 1384TIP3    H225712   1.574   0.817   0.388  0.6316  2.7249  0.2567
 1385TIP3   OH225713   6.518   4.465   6.384 -0.3802 -0.3721  0.2430
 1385TIP3    H125714   6.428   4.496   6.390 -0.2859 -0.2904  1.5664
 1385TIP3    H225715   6.520   4.412   6.304 -0.8142  2.0629 -1.4961
 1386TIP3   OH225716   6.079   5.842   7.767  0.3699 -0.1692 -0.7214
 1386TIP3    H125717   6.101   5.927   7.728 -3.0419  0.3271 -1.9010
 1386TIP3    H225718   6.042   5.864   7.853  2.8943 -0.8868  0.6831
 1387TIP3   OH225719   2.994   2.071   0.398  0.4749  0.2031  0.2478
 1387TIP3    H125720   2.931   2.138   0.426  0.8875  0.9167 -0.5038
 1387TIP3    H225721   2.963   1.991   0.441 -0.3188  0.7610  0.7610
 1388TIP3   OH225722   2.689   6.695   8.583  0.9488 -0.2625 -0.2428
 1388TIP3    H125723   2.761   6.653   8.537  1.3183  0.7626 -0.6346
 1388TIP3    H225724   2.674   6.777   8.535 -1.0134 -0.8090 -0.6815
 1389TIP3   OH225725   4.110   4.372   6.466 -0.5808  0.5327  0.1574
 1389TIP3    H125726   4.079   4.283   6.450  2.0400 -0.4265 -0.0452
 1389TIP3    H225727   4.083   4.422   6.389  2.8950 -1.5494 -2.7152
 1390TIP3   OH225728   4.411   4.286   1.042 -0.0019  0.2160  0.3271
 1390TIP3    H125729   4.480   4.348   1.064  0.6855  0.6934 -2.7992
 1390TIP3    H225730   4.330   4.336   1.049  0.3833  0.9380 -0.2506
 1391TIP3   OH225731   4.994   5.589   8.030 -0.5541  0.0971  0.3646
 1391TIP3    H125732   4.928   5.613   8.095 -0.6746 -0.8384  0.5876
 1391TIP3    H225733   5.074   5.630   8.062 -0.9935  1.1852  0.1304
 1392TIP3   OH225734   3.106   2.907   1.668 -0.5130 -0.0368  0.1249
 1392TIP3    H125735   3.038   2.973   1.683 -0.6732 -0.2449  0.3073
 1392TIP3    H225736   3.185   2.959   1.651 -0.3902  0.2180  1.3782
 1393TIP3   OH225737   6.161   5.713   7.330 -0.1255 -0.4977 -0.2016
 1393TIP3    H125738   6.091   5.730   7.393  2.2166  1.8978  2.0839
 1393TIP3    H225739   6.219   5.651   7.375 -0.0880 -1.3825 -1.4490
 1394TIP3   OH225740   6.340   2.073   6.962  0.8829 -0.3669 -0.2925
 1394TIP3    H125741   6.340   2.003   6.897 -0.2145  1.7689 -2.7561
 1394TIP3    H225742   6.388   2.145   6.921 -1.9919  1.9742  0.0860
 1395TIP3   OH225743   5.471   5.978   0.253  0.3703  0.2636  0.6271
 1395TIP3    H125744   5.437   5.933   0.331  0.1814 -0.4844  0.1305
 1395TIP3    H225745   5.430   6.064   0.255 -1.7690 -0.6728 -0.0463
 1396TIP3   OH225746   6.802   1.220   0.947 -0.9842  0.1602 -0.2689
 1396TIP3    H125747   6.775   1.235   1.037  0.6122  1.2613  0.0801
 1396TIP3    H225748   6.804   1.124   0.938  1.4212 -0.0933  1.7616
 1397TIP3   OH225749   0.748   3.442   8.463  0.0684  0.4573  0.1499
 1397TIP3    H125750   0.834   3.402   8.471 -0.2187 -0.6205 -1.6258
 1397TIP3    H225751   0.686   3.369   8.465 -0.4827  0.6798 -2.8938
 1398TIP3   OH225752   2.383   1.476   0.002 -0.0769  0.5273  0.2344
 1398TIP3    H125753   2.435   1.409  -0.043 -1.6567 -0.2824 -0.4614
 1398TIP3    H225754   2.442   1.511   0.068  1.6264  0.2154 -1.0306
 1399TIP3   OH225755   5.191   3.702   8.644 -0.2232 -0.2651  0.1408
 1399TIP3    H125756   5.162   3.632   8.585  1.7783 -1.7353  0.8033
 1399TIP3    H225757   5.205   3.659   8.728  1.2123  0.8891  0.5374
 1400TIP3   OH225758   4.443   5.736   1.526  0.0097 -0.0372  0.5082
 1400TIP3    H125759   4.478   5.771   1.444  1.4220 -1.0415  0.6632
 1400TIP3    H225760   4.396   5.656   1.500 -0.8708  0.4600  0.5081
 1401TIP3   OH225761   6.544   1.497   0.686  0.5275  0.0037  0.5169
 1401TIP3    H125762   6.620   1.439   0.684  0.1184 -0.5002 -0.6796
 1401TIP3    H225763   6.511   1.489   0.776 -0.4239 -2.8136  0.0134
 1402TIP3   OH225764   1.754   6.142   8.223 -0.0051  0.0137 -0.1313
 1402TIP3    H125765   1.774   6.224   8.178 -0.4828  0.9409  1.2757
 1402TIP3    H225766   1.758   6.164   8.316 -3.1006 -0.7778  0.3005
 1403TIP3   OH225767   5.062   2.178   7.905 -0.0277  0.0849  0.3520
 1403TIP3    H125768   5.011   2.254   7.876 -0.4562  0.2322  1.4158
 1403TIP3    H225769   5.103   2.144   7.826  0.2678  1.4989 -0.1310
 1404TIP3   OH225770   2.976   6.645   6.690  0.2883  0.1100 -0.4395
 1404TIP3    H125771   3.067   6.650   6.717 -0.4676  0.9572  2.3311
 1404TIP3    H225772   2.970   6.566   6.636  2.3486 -0.8197  0.6131
 1405TIP3   OH225773   5.948   5.770   7.500  0.4418  0.1529 -0.1191
 1405TIP3    H125774   5.893   5.846   7.519 -0.1794 -0.2629 -0.2383
 1405TIP3    H225775   6.018   5.774   7.566 -0.6134 -0.1989  1.0742
 1406TIP3   OH225776   4.306   3.657   0.346  0.6661 -0.4731 -0.1851
 1406TIP3    H125777   4.228   3.695   0.305 -0.3211 -2.2874 -0.0669
 1406TIP3    H225778   4.319   3.710   0.425 -1.5591 -1.2017  0.7623
 1407TIP3   OH225779   1.901   6.794   6.602  0.0126  0.1251  0.2262
 1407TIP3    H125780   1.978   6.845   6.575  0.1180 -1.0423 -1.9583
 1407TIP3    H225781   1.864   6.762   6.519 -1.4765 -1.2700  1.3717
 1408TIP3   OH225782   0.623   1.651   7.908 -0.1319 -0.2165 -0.3486
 1408TIP3    H125783   0.656   1.635   7.996  0.9265 -0.5955 -0.8027
 1408TIP3    H225784   0.701   1.657   7.853 -0.6805  1.5226 -1.0402
 1409TIP3   OH225785   0.595   3.806   1.332 -0.8113  0.6935  0.0215
 1409TIP3    H125786   0.602   3.793   1.426  0.7731 -1.3002 -0.2915
 1409TIP3    H225787   0.665   3.868   1.311  1.1708 -1.5194 -0.2142
 1410TIP3   OH225788   2.351   2.036   0.657  0.2242 -0.5960  0.3679
 1410TIP3    H125789   2.308   2.097   0.596  1.5684  0.3483  0.3140
 1410TIP3    H225790   2.311   2.055   0.742  0.6683  0.4502  0.3657
 1411TIP3   OH225791   2.258   2.034   0.915  0.6145 -0.2420 -0.6973
 1411TIP3    H125792   2.338   2.005   0.959 -0.8042 -2.6768  0.5012
 1411TIP3    H225793   2.189   1.980   0.953 -1.7161  2.0851 -1.3171
 1412TIP3   OH225794   3.249   1.247   7.955 -0.2353  0.4940  0.0111
 1412TIP3    H125795   3.253   1.152   7.947 -1.0724  0.4126  0.5177
 1412TIP3    H225796   3.341   1.275   7.956  0.0252 -0.3623  0.4741
 1413TIP3   OH225797   3.671   4.137   1.090  0.6433  0.4085 -0.1988
 1413TIP3    H125798   3.724   4.068   1.050  1.9216  0.6645  0.9634
 1413TIP3    H225799   3.598   4.092   1.131  1.1805 -0.2048  0.0921
 1414TIP3   OH225800   1.394   2.814   0.622 -0.5731 -0.1073  1.0378
 1414TIP3    H125801   1.442   2.878   0.569 -1.1372 -0.0700  0.5656
 1414TIP3    H225802   1.362   2.750   0.558 -0.6954 -0.4284  1.4177
 1415TIP3   OH225803   2.485   3.155   2.374 -0.3302  0.0329 -0.0019
 1415TIP3    H125804   2.395   3.149   2.406 -0.9921 -1.4534 -1.9395
 1415TIP3    H225805   2.525   3.071   2.399  0.0264  0.0547 -0.4844
 1416TIP3   OH225806   5.760   2.856   6.306 -0.4725 -0.0662 -0.7075
 1416TIP3    H125807   5.690   2.849   6.372 -0.5863  2.6987 -0.4442
 1416TIP3    H225808   5.725   2.915   6.240  0.7888 -0.4548 -1.7717
 1417TIP3   OH225809   2.337   4.141   0.692  0.0166  0.5076  0.5695
 1417TIP3    H125810   2.368   4.084   0.762 -2.5262  0.0653  1.4321
 1417TIP3    H225811   2.363   4.229   0.720  1.7754  0.0585  0.4619
 1418TIP3   OH225812   5.296   4.650   6.847 -0.0561  0.1891  0.7635
 1418TIP3    H125813   5.302   4.554   6.841 -0.1734  0.2890 -1.5287
 1418TIP3    H225814   5.202   4.668   6.841 -0.1045  0.4355  2.0097
 1419TIP3   OH225815   0.514   4.075   8.720  0.2531 -0.1165  0.5411
 1419TIP3    H125816   0.493   4.129   8.643  2.5420 -1.8460 -1.4655
 1419TIP3    H225817   0.434   4.025   8.737 -0.1735 -0.0434 -1.0571
 1420TIP3   OH225818   3.463   0.235   0.584  0.3825 -0.4116  0.3041
 1420TIP3    H125819   3.553   0.206   0.574  0.4978  0.3078 -1.0476
 1420TIP3    H225820   3.455   0.260   0.676  1.8332  0.3692  0.2394
 1421TIP3   OH225821   1.113   1.025   6.759 -0.1736  0.1165  0.1020
 1421TIP3    H125822   1.024   1.038   6.725 -0.1563  1.6782  0.5882
 1421TIP3    H225823   1.108   1.055   6.850  0.2418 -2.2098  0.9696
 1422TIP3   OH225824   6.285   4.667   2.448 -0.3808 -0.1490  0.0282
 1422TIP3    H125825   6.235   4.636   2.524 -1.3930  1.7547  0.2014
 1422TIP3    H225826   6.340   4.737   2.483  1.0190 -0.9024 -0.5624
 1423TIP3   OH225827   3.413   3.942   1.671 -0.4893 -0.5804 -0.0633
 1423TIP3    H125828   3.441   3.935   1.580 -0.8624  0.9524 -0.3316
 1423TIP3    H225829   3.324   3.907   1.671  0.3450 -2.8675  0.2409
 1424TIP3   OH225830   2.090   1.952   1.286  0.5426 -0.0642 -0.1587
 1424TIP3    H125831   2.119   2.043   1.289  1.7459 -0.4358 -0.2021
 1424TIP3    H225832   1.995   1.958   1.282  0.6255  1.2012 -0.7277
 1425TIP3   OH225833   2.785   5.408   0.767 -0.2663 -0.0090  0.0458
 1425TIP3    H125834   2.821   5.321   0.750  1.5806  0.9612 -1.3522
 1425TIP3    H225835   2.805   5.426   0.858  4.5336  1.1076 -0.9737
 1426TIP3   OH225836   2.931   2.750   8.112  0.5439 -0.2113 -0.0171
 1426TIP3    H125837   2.888   2.832   8.134 -1.2557 -1.2479  0.5274
 1426TIP3    H225838   3.023   2.774   8.100  0.3134  1.6395  1.4108
 1427TIP3   OH225839   1.818   2.620   1.561  0.1428  0.0662 -0.4144
 1427TIP3    H125840   1.879   2.557   1.600 -1.2393 -0.6869  0.6266
 1427TIP3    H225841   1.839   2.703   1.603  1.1319  0.0487 -0.8472
 1428TIP3   OH225842   5.802   3.927   7.788  0.4336  0.3643 -0.1261
 1428TIP3    H125843   5.811   3.992   7.857  0.7138  0.6407 -0.4158
 1428TIP3    H225844   5.713   3.893   7.798  0.5441  0.2597  0.4866
 1429TIP3   OH225845   4.128   1.668   0.991 -0.0493  0.2105  0.2122
 1429TIP3    H125846   4.207   1.635   0.949 -1.3433 -0.1529 -2.0906
 1429TIP3    H225847   4.132   1.763   0.981  0.4835  0.2660  0.8820
 1430TIP3   OH225848   0.602   6.416   0.454 -1.3972  0.0046  0.4269
 1430TIP3    H125849   0.665   6.484   0.431  0.9938 -1.3790  2.3082
 1430TIP3    H225850   0.536   6.419   0.385  0.1796  2.2357 -1.1122
 1431TIP3   OH225851   4.347   3.466   7.296  0.4703 -0.4039  0.1144
 1431TIP3    H125852   4.386   3.547   7.261  1.6970 -0.7469  0.6394
 1431TIP3    H225853   4.260   3.493   7.325  1.1208  0.9184  0.9453
 1432TIP3   OH225854   1.529   2.096   6.291 -0.1449  0.3951  0.3998
 1432TIP3    H125855   1.479   2.095   6.372 -2.4261  0.8331 -0.9108
 1432TIP3    H225856   1.481   2.157   6.234  0.5958 -0.8847 -1.7294
 1433TIP3   OH225857   3.185   2.815   8.018 -0.0127 -0.1978  0.0771
 1433TIP3    H125858   3.231   2.806   7.934 -1.0721  0.1934 -0.5666
 1433TIP3    H225859   3.232   2.757   8.077  0.9645 -0.2232 -0.7022
 1434TIP3   OH225860   3.348   3.086   1.702  0.3438  0.2583  0.3041
 1434TIP3    H125861   3.328   3.046   1.787 -0.4759 -1.5628 -0.6876
 1434TIP3    H225862   3.444   3.088   1.698  0.3968 -0.8882  0.7298
 1435TIP3   OH225863   3.319   5.231   0.584 -0.0710  0.0758 -0.0185
 1435TIP3    H125864   3.296   5.168   0.516 -0.6564  1.0851 -0.7804
 1435TIP3    H225865   3.240   5.239   0.637  0.1958 -0.2715  0.4351
 1436TIP3   OH225866   2.062   2.551   0.026 -0.5825  0.2658 -0.8764
 1436TIP3    H125867   1.986   2.583   0.075  0.4667  2.3451 -0.5149
 1436TIP3    H225868   2.059   2.456   0.039 -2.0973  0.4553  0.6405
 1437TIP3   OH225869   5.472   3.581   1.726 -0.5189 -0.6500  0.7341
 1437TIP3    H125870   5.386   3.622   1.732  0.4318  1.4604  0.9105
 1437TIP3    H225871   5.470   3.512   1.793 -1.6663  0.1478  1.5799
 1438TIP3   OH225872   6.057   5.479   1.523  0.3083 -0.4755  0.6523
 1438TIP3    H125873   6.003   5.453   1.449 -0.3255 -2.6922  1.7921
 1438TIP3    H225874   6.065   5.574   1.515  1.5532 -0.7499 -3.0360
 1439TIP3   OH225875   5.678   6.061   6.363 -0.1508  0.1829 -0.6998
 1439TIP3    H125876   5.662   6.130   6.427  2.0173 -0.9795  1.2361
 1439TIP3    H225877   5.611   5.995   6.382  0.9673 -0.5300  1.0611
 1440TIP3   OH225878   0.579   0.497   6.918  0.3499 -0.3496  0.2589
 1440TIP3    H125879   0.569   0.556   6.844 -0.9345  1.5851  1.8734
 1440TIP3    H225880   0.665   0.457   6.906  0.9167  1.2202 -1.3176
 1441TIP3   OH225881   3.815   6.638   0.397 -0.0442  0.3572 -0.0416
 1441TIP3    H125882   3.803   6.733   0.387  0.1939  0.5492  1.4190
 1441TIP3    H225883   3.823   6.624   0.491 -0.2018 -1.1400 -0.2272
 1442TIP3   OH225884   1.947   2.933   7.783  0.3970  0.2539  0.5279
 1442TIP3    H125885   1.911   3.017   7.811  0.1299  1.3561 -2.7204
 1442TIP3    H225886   2.033   2.954   7.748  0.1329 -0.7195 -0.7812
 1443TIP3   OH225887   1.763   0.571   1.230 -0.4230 -0.2917  0.1533
 1443TIP3    H125888   1.770   0.664   1.248 -0.3827 -0.3773  0.5831
 1443TIP3    H225889   1.681   0.562   1.180 -0.5046 -0.0473  0.2428
 1444TIP3   OH225890   4.061   3.116   7.745 -0.0106 -0.1166 -0.1836
 1444TIP3    H125891   4.051   3.100   7.651  1.4345  0.1336 -0.4090
 1444TIP3    H225892   3.998   3.185   7.764 -0.5219 -0.3656 -0.9103
 1445TIP3   OH225893   5.131   2.821   8.331 -0.8572  0.1069 -0.3402
 1445TIP3    H125894   5.208   2.801   8.385  0.0798  0.0707 -1.6443
 1445TIP3    H225895   5.148   2.909   8.297 -0.0938 -0.8532 -2.6846
 1446TIP3   OH225896   4.251   5.616   8.008  0.2357 -0.0990  0.4994
 1446TIP3    H125897   4.171   5.611   8.059 -0.1232 -0.5122 -0.0890
 1446TIP3    H225898   4.292   5.530   8.017 -0.1684 -0.4027 -0.4314
 1447TIP3   OH225899   2.624   2.441   7.381 -0.2925 -0.0334 -0.2040
 1447TIP3    H125900   2.692   2.416   7.443 -0.1581  0.8408  0.0181
 1447TIP3    H225901   2.641   2.388   7.303 -0.7079 -1.4310  0.6324
 1448TIP3   OH225902   4.035   5.417   7.615 -0.6115 -0.1787 -0.2925
 1448TIP3    H125903   3.955   5.468   7.608 -0.4512  0.1257  0.0192
 1448TIP3    H225904   4.105   5.483   7.620 -0.2845 -0.4482 -1.2291
 1449TIP3   OH225905   3.232   0.563   8.231  0.3485  0.2680  0.0361
 1449TIP3    H125906   3.268   0.558   8.320  0.2405  0.8172  0.1139
 1449TIP3    H225907   3.300   0.524   8.176 -0.4371 -2.0106  0.5608
 1450TIP3   OH225908   2.325   3.386   7.887 -0.0424 -0.3774  0.1905
 1450TIP3    H125909   2.312   3.294   7.912  0.1567 -0.2232  0.8804
 1450TIP3    H225910   2.419   3.394   7.873 -0.3487 -0.9942 -2.8175
 1451TIP3   OH225911   6.236   4.649   1.610 -0.3469 -0.1991 -0.4416
 1451TIP3    H125912   6.175   4.713   1.572 -1.4622 -0.4169  0.9043
 1451TIP3    H225913   6.280   4.697   1.681 -0.2958 -0.5759 -0.2144
 1452TIP3   OH225914   1.842   1.944   7.878  0.2627 -0.0877  0.3745
 1452TIP3    H125915   1.856   2.001   7.803 -1.2068  0.6346  0.6222
 1452TIP3    H225916   1.760   1.899   7.859 -0.3754  0.4548  1.7442
 1453TIP3   OH225917   3.878   3.053   2.355 -0.3300  0.3058 -0.0869
 1453TIP3    H125918   3.912   3.107   2.283  0.7466  0.2026  0.3394
 1453TIP3    H225919   3.788   3.085   2.368 -0.4607  0.4842 -1.3138
 1454TIP3   OH225920   0.768   4.552   2.470 -0.0487  0.1160  0.3537
 1454TIP3    H125921   0.836   4.489   2.494  0.0975  1.1490  2.9612
 1454TIP3    H225922   0.787   4.575   2.379  1.0937 -2.0317 -0.0079
 1455TIP3   OH225923   1.058   5.600   8.615 -0.3079  0.0424  0.4356
 1455TIP3    H125924   1.027   5.647   8.692 -0.2403 -1.1038  1.1923
 1455TIP3    H225925   1.025   5.650   8.541 -3.0190 -0.4622  1.1911
 1456TIP3   OH225926   4.278   3.879   7.048  0.0227  0.0004 -0.1859
 1456TIP3    H125927   4.358   3.855   7.001 -0.1436  1.3820 -1.2352
 1456TIP3    H225928   4.227   3.798   7.052  1.9494 -1.2241  1.5712
 1457TIP3   OH225929   3.294   1.009   0.392  0.0262  0.3123  0.3392
 1457TIP3    H125930   3.226   1.032   0.455 -0.4566 -1.0435  0.3495
 1457TIP3    H225931   3.337   0.932   0.430  0.6779  0.3433 -0.3095
 1458TIP3   OH225932   6.407   5.641   6.904  0.1316 -0.3079  0.2198
 1458TIP3    H125933   6.355   5.631   6.825  0.1973 -0.4537  0.1956
 1458TIP3    H225934   6.473   5.572   6.899 -0.5204 -0.9976  0.9155
 1459TIP3   OH225935   1.461   1.367   2.022 -0.0541  0.3147 -0.3273
 1459TIP3    H125936   1.413   1.315   1.958  1.2982  1.0382 -2.0082
 1459TIP3    H225937   1.534   1.311   2.048 -0.2292  0.2744  0.0794
 1460TIP3   OH225938   4.775   4.302   8.138  0.2862  0.3267 -0.2300
 1460TIP3    H125939   4.771   4.225   8.194 -0.7773 -0.3019 -1.1524
 1460TIP3    H225940   4.869   4.322   8.132  0.7088 -1.6134 -0.9352
 1461TIP3   OH225941   6.343   6.169   6.349 -0.0646 -1.0840 -0.1823
 1461TIP3    H125942   6.264   6.145   6.397 -1.4658  1.9509 -0.7217
 1461TIP3    H225943   6.411   6.174   6.416 -1.5948  1.3777  1.3252
 1462TIP3   OH225944   2.855   0.236   1.676  0.0897 -0.0146 -0.6129
 1462TIP3    H125945   2.910   0.228   1.754 -0.5574 -1.6456 -0.2747
 1462TIP3    H225946   2.782   0.291   1.703 -1.8746 -3.1122  1.0846
 1463TIP3   OH225947   4.464   1.867   1.589 -0.6033  0.5793 -0.9330
 1463TIP3    H125948   4.456   1.868   1.684  2.2334  0.8160 -0.6311
 1463TIP3    H225949   4.401   1.800   1.561 -1.8820  0.8678  1.0147
 1464TIP3   OH225950   1.184   5.488   1.430  0.2008  0.0255  0.6419
 1464TIP3    H125951   1.146   5.414   1.477 -0.3570 -0.3494 -0.3667
 1464TIP3    H225952   1.117   5.557   1.434 -0.3002 -0.3618 -0.4462
 1465TIP3   OH225953   2.561   4.352   1.421  0.0857  0.4107  0.0343
 1465TIP3    H125954   2.579   4.382   1.510 -0.2527  1.5247 -0.2605
 1465TIP3    H225955   2.648   4.347   1.380  0.2283  0.0366  0.3684
 1466TIP3   OH225956   2.741   2.080   1.967 -0.0371 -0.0134 -0.3685
 1466TIP3    H125957   2.726   2.146   2.035  2.7629 -0.4931  0.8911
 1466TIP3    H225958   2.836   2.065   1.970 -0.2065 -2.0622 -2.5502
 1467TIP3   OH225959   3.139   2.762   6.550 -0.4358  0.6727  0.1964
 1467TIP3    H125960   3.233   2.782   6.548 -0.7063  2.1072  0.9407
 1467TIP3    H225961   3.133   2.674   6.512  1.4550 -0.4053  2.1521
 1468TIP3   OH225962   4.670   4.076   6.844  0.5072  0.6254  0.5390
 1468TIP3    H125963   4.651   4.000   6.899  0.6383 -0.0307 -0.3062
 1468TIP3    H225964   4.766   4.074   6.833  0.3280 -0.3119 -1.1831
 1469TIP3   OH225965   4.173   4.386   1.009 -0.2055  0.1504  0.4379
 1469TIP3    H125966   4.129   4.423   1.086  2.8549  0.4558  2.2042
 1469TIP3    H225967   4.108   4.328   0.970 -2.7544  1.9325  1.7177
 1470TIP3   OH225968   0.321   5.470   1.147  0.0043 -0.1959  0.1609
 1470TIP3    H125969   0.232   5.441   1.132 -0.8333  2.2069  0.0469
 1470TIP3    H225970   0.342   5.524   1.071  1.7274 -1.0515 -0.0156
 1471TIP3   OH225971   4.643   2.985   7.369 -0.2953 -0.0776 -0.1258
 1471TIP3    H125972   4.628   3.050   7.301 -0.3488  1.4531  1.2758
 1471TIP3    H225973   4.592   2.909   7.342 -2.0165  1.2285 -0.7649
 1472TIP3   OH225974   1.776   2.320   0.944 -0.1627 -0.2594 -0.5608
 1472TIP3    H125975   1.795   2.235   0.905  2.3802  0.3515 -0.8737
 1472TIP3    H225976   1.750   2.301   1.034  0.8011 -1.3534 -0.4993
 1473TIP3   OH225977   3.096   4.249   8.598 -0.3436  0.0273  0.1550
 1473TIP3    H125978   3.117   4.319   8.660  1.1066 -0.6808  0.5091
 1473TIP3    H225979   3.108   4.289   8.512 -2.3352  1.0036  0.2696
 1474TIP3   OH225980   6.312   5.904   8.280 -0.3939 -0.1025 -0.4791
 1474TIP3    H125981   6.228   5.947   8.297 -1.1175 -1.9231  0.8730
 1474TIP3    H225982   6.316   5.896   8.185  0.5911  4.3323 -1.0232
 1475TIP3   OH225983   4.804   4.699   1.646  0.0680 -0.5862  0.1198
 1475TIP3    H125984   4.827   4.613   1.612  0.2605 -0.6950  0.5263
 1475TIP3    H225985   4.750   4.681   1.724 -0.2848 -0.3391 -0.0605
 1476TIP3   OH225986   2.769   1.309   7.848 -0.7389  0.6266 -0.2912
 1476TIP3    H125987   2.860   1.317   7.820  0.5097 -2.2562  2.3382
 1476TIP3    H225988   2.725   1.268   7.774  0.4759  0.6664 -1.0691
 1477TIP3   OH225989   4.478   5.731   0.110 -0.1971  0.1679 -0.0876
 1477TIP3    H125990   4.469   5.712   0.203  1.1865  1.5093  0.3480
 1477TIP3    H225991   4.569   5.709   0.090 -0.4505 -0.0026 -1.1084
 1478TIP3   OH225992   1.543   2.752   6.211  0.1753  0.2308  0.0463
 1478TIP3    H125993   1.512   2.842   6.205 -0.2909  0.1760  1.3595
 1478TIP3    H225994   1.481   2.709   6.270  2.4506  0.0080  2.4573
 1479TIP3   OH225995   0.628   5.423   6.910  0.0894  0.2891  0.3753
 1479TIP3    H125996   0.548   5.473   6.924 -0.3953  0.0008 -1.1392
 1479TIP3    H225997   0.647   5.433   6.816  0.9152 -0.9639  0.3748
 1480TIP3   OH225998   0.701   3.839   8.661  0.1615 -0.0421 -0.2992
 1480TIP3    H125999   0.665   3.922   8.691  0.8611  0.5606 -1.0696
 1480TIP3    H226000   0.794   3.843   8.687  0.1812 -0.6216 -0.2697
 1481TIP3   OH226001   0.176   5.630   7.244 -0.1185 -0.6203  0.2332
 1481TIP3    H126002   0.176   5.541   7.209 -1.0945 -1.5197  2.3730
 1481TIP3    H226003   0.232   5.626   7.321 -0.3040  0.5925  0.4576
 1482TIP3   OH226004   1.620   2.991   2.693  0.1498 -0.3075  0.3110
 1482TIP3    H126005   1.569   2.913   2.671  1.6366 -0.8127 -1.5598
 1482TIP3    H226006   1.562   3.064   2.673 -0.1664 -0.8851 -0.9564
 1483TIP3   OH226007   2.566   0.934   0.912  0.2421  0.5790 -0.0589
 1483TIP3    H126008   2.652   0.905   0.884  0.1330  1.9254 -1.9472
 1483TIP3    H226009   2.507   0.863   0.886  0.3740  1.0852 -1.8249
 1484TIP3   OH226010   6.692   5.847   1.708  0.1567 -0.1287 -0.1383
 1484TIP3    H126011   6.706   5.827   1.800  0.8884 -1.2131 -0.4692
 1484TIP3    H226012   6.729   5.935   1.697 -0.7068  0.3679  0.7658
 1485TIP3   OH226013   3.066   2.280   8.558  0.7452  0.3432  0.5548
 1485TIP3    H126014   2.980   2.244   8.538  0.4269  1.5264 -0.3257
 1485TIP3    H226015   3.048   2.357   8.612  1.3971 -0.5370  2.1094
 1486TIP3   OH226016   4.732   6.278   7.003  0.5064 -0.3208 -0.5217
 1486TIP3    H126017   4.662   6.213   6.998  0.7530 -0.5523 -0.9711
 1486TIP3    H226018   4.800   6.235   7.055  0.2586 -0.0380  0.0480
 1487TIP3   OH226019   5.101   4.629   7.845  0.4966 -0.2553 -0.3788
 1487TIP3    H126020   5.143   4.564   7.901  1.0538  0.1127 -0.3728
 1487TIP3    H226021   5.058   4.689   7.906  2.0505  0.8065 -0.2738
 1488TIP3   OH226022   0.881   1.971   2.240 -0.2149 -0.4310  0.0580
 1488TIP3    H126023   0.798   2.001   2.203  0.5164  1.1350 -0.3692
 1488TIP3    H226024   0.900   1.890   2.193 -1.0744 -0.3638 -0.4299
 1489TIP3   OH226025   6.465   5.086   1.200 -0.7086 -0.1774  0.3613
 1489TIP3    H126026   6.408   5.043   1.137 -1.1965  0.1628  0.5619
 1489TIP3    H226027   6.438   5.052   1.285  0.1477 -0.8595  0.3711
 1490TIP3   OH226028   2.420   1.176   8.114  0.9262  0.3132  0.4453
 1490TIP3    H126029   2.374   1.188   8.031  0.2400 -1.8897  0.4244
 1490TIP3    H226030   2.513   1.170   8.089  0.8267  0.6936 -0.0353
 1491TIP3   OH226031   5.497   5.294   8.454 -0.4773 -0.0808 -0.6107
 1491TIP3    H126032   5.477   5.282   8.547  0.4010 -1.3786 -0.5603
 1491TIP3    H226033   5.475   5.385   8.436 -3.3537 -0.5223  0.1705
 1492TIP3   OH226034   1.939   0.017   7.257  0.1589  0.6732 -0.3331
 1492TIP3    H126035   1.998   0.024   7.183 -0.2651 -2.2717 -1.0481
 1492TIP3    H226036   1.996   0.024   7.334  1.3233 -0.9242 -0.9986
 1493TIP3   OH226037   0.103   5.538   7.758 -0.4509 -0.0607 -0.4852
 1493TIP3    H126038   0.014   5.515   7.731  0.3805 -0.9245 -2.6888
 1493TIP3    H226039   0.156   5.464   7.730  0.6058 -1.2076  3.8269
 1494TIP3   OH226040   1.137   0.736   7.099 -0.3242  0.4839  0.2123
 1494TIP3    H126041   1.128   0.820   7.054 -1.6751  0.1808 -0.1039
 1494TIP3    H226042   1.188   0.757   7.177 -0.4617  1.5624  0.0323
 1495TIP3   OH226043   3.383   4.190   1.227  0.3934 -0.0347 -0.1350
 1495TIP3    H126044   3.396   4.275   1.269  0.8626 -0.1043 -0.1316
 1495TIP3    H226045   3.402   4.206   1.134 -0.1010 -0.0055 -0.2359
 1496TIP3   OH226046   2.565   4.571   6.493  0.8310  0.3322 -0.0045
 1496TIP3    H126047   2.501   4.600   6.558  0.1561  0.5680 -0.7437
 1496TIP3    H226048   2.647   4.611   6.519 -0.1932  3.8032 -1.4596
 1497TIP3   OH226049   0.372   5.536   6.952 -0.3793 -0.1019 -0.2748
 1497TIP3    H126050   0.315   5.459   6.951  0.9881 -1.1572 -1.9018
 1497TIP3    H226051   0.316   5.608   6.923 -0.9845 -1.0529 -1.5724
 1498TIP3   OH226052   1.866   1.440   0.019 -0.2422 -0.5117  0.1634
 1498TIP3    H126053   1.789   1.495   0.031  0.8644  1.1798 -0.0923
 1498TIP3    H226054   1.938   1.502   0.007  1.0911 -2.0330 -0.0701
 1499TIP3   OH226055   5.721   1.244   1.303 -0.1233 -0.1023  0.5320
 1499TIP3    H126056   5.670   1.225   1.382  0.1423 -0.1478  0.6940
 1499TIP3    H226057   5.804   1.199   1.317 -0.9442 -2.1846 -0.8327
 1500TIP3   OH226058   4.707   1.866   1.456  0.6314  0.2888  0.5864
 1500TIP3    H126059   4.628   1.867   1.511  0.9209 -0.3302  1.0284
 1500TIP3    H226060   4.777   1.841   1.517  1.2847  1.4419  0.3466
 1501TIP3   OH226061   2.514   1.305   8.569 -0.0475 -0.0647 -0.0764
 1501TIP3    H126062   2.509   1.320   8.475  1.7571  1.2114 -0.0007
 1501TIP3    H226063   2.575   1.231   8.579  0.0334  0.0242  0.1039
 1502TIP3   OH226064   4.623   2.829   1.020  0.3477 -0.5787 -0.5152
 1502TIP3    H126065   4.673   2.859   0.944  0.0486 -2.3504 -1.4461
 1502TIP3    H226066   4.534   2.857   1.002  0.5136  0.2250 -0.1314
 1503TIP3   OH226067   0.158   5.062   1.503  0.1362 -0.4668  0.9711
 1503TIP3    H126068   0.219   5.130   1.473 -1.0745 -0.4327 -1.5906
 1503TIP3    H226069   0.072   5.103   1.501 -0.3515 -1.3864  1.7697
 1504TIP3   OH226070   2.411   4.510   7.071  0.1415 -0.1122 -0.4409
 1504TIP3    H126071   2.337   4.456   7.098  0.5105 -0.6573 -0.4951
 1504TIP3    H226072   2.487   4.452   7.080  0.3939  0.0007 -1.7240
 1505TIP3   OH226073   5.375   1.863   2.383 -0.1432 -0.7008 -0.3146
 1505TIP3    H126074   5.398   1.940   2.331  0.5842  0.6863  1.9352
 1505TIP3    H226075   5.283   1.876   2.405 -0.6412 -1.6174 -1.6910
 1506TIP3   OH226076   2.111   2.940   7.159  0.5151 -0.2849 -0.1316
 1506TIP3    H126077   2.024   2.978   7.147  1.2771  1.2486 -1.1400
 1506TIP3    H226078   2.109   2.858   7.110 -0.8002 -1.0306  1.0946
 1507TIP3   OH226079   3.112   2.907   0.204  0.1019 -0.3931 -0.0379
 1507TIP3    H126080   3.176   2.835   0.206 -1.1122 -1.6401 -2.2635
 1507TIP3    H226081   3.028   2.865   0.223 -0.3763  0.8450  0.7319
 1508TIP3   OH226082   4.586   0.229   1.794 -0.0027 -0.5961  0.2534
 1508TIP3    H126083   4.585   0.306   1.736  0.7411 -1.2415 -0.6449
 1508TIP3    H226084   4.505   0.182   1.773  0.0925 -0.6427 -0.0124
 1509TIP3   OH226085   3.131   0.157   0.208 -0.7350 -0.4485  0.1075
 1509TIP3    H126086   3.079   0.212   0.150  2.2267  0.8042 -1.5469
 1509TIP3    H226087   3.148   0.211   0.285 -0.4465 -0.2384 -0.1067
 1510TIP3   OH226088   3.135   5.745   0.016  0.2316  0.0345 -0.0890
 1510TIP3    H126089   3.146   5.658  -0.023 -1.6410 -0.4377  0.3406
 1510TIP3    H226090   3.182   5.804  -0.043  1.9440 -1.3110 -0.1342
 1511TIP3   OH226091   1.881   4.107   6.911 -0.1767 -0.0597 -0.3169
 1511TIP3    H126092   1.800   4.098   6.961 -0.6119  0.1676 -0.9735
 1511TIP3    H226093   1.852   4.129   6.822  0.4917 -2.1329 -1.1102
 1512TIP3   OH226094   2.107   6.624   6.415  0.8354 -0.1039  0.3972
 1512TIP3    H126095   2.132   6.652   6.327  0.4000 -1.1349 -0.0692
 1512TIP3    H226096   2.177   6.656   6.472  0.9298  0.9024 -0.2558
 1513TIP3   OH226097   4.576   5.308   0.141 -0.1463 -0.4166 -0.2665
 1513TIP3    H126098   4.548   5.363   0.068  0.1736 -0.7391 -0.6373
 1513TIP3    H226099   4.610   5.228   0.099 -0.6233 -0.9040  0.2573
 1514TIP3   OH226100   4.402   5.384   8.036  0.2182  0.4894 -0.2053
 1514TIP3    H126101   4.469   5.399   8.104 -1.4165 -0.4406  1.7300
 1514TIP3    H226102   4.435   5.308   7.987  1.5137  1.2806 -0.6199
 1515TIP3   OH226103   4.913   3.633   1.391 -0.0849 -0.0903 -0.4967
 1515TIP3    H126104   4.848   3.703   1.390 -1.3362 -1.2095 -1.2354
 1515TIP3    H226105   4.987   3.670   1.439 -1.4670  1.0457  0.8701
 1516TIP3   OH226106   0.055   4.521   8.539 -0.3761 -0.0767  0.4075
 1516TIP3    H126107  -0.005   4.594   8.551  0.1855  0.4351  0.1693
 1516TIP3    H226108   0.062   4.481   8.625 -0.4292  0.3653  0.6203
 1517TIP3   OH226109   4.171   2.206   1.762  0.0934  0.3428 -0.2742
 1517TIP3    H126110   4.129   2.135   1.715 -1.3091 -0.1990  1.6672
 1517TIP3    H226111   4.216   2.164   1.835  1.9845  1.1755 -0.8805
 1518TIP3   OH226112   0.649   3.373   0.882 -0.3312 -0.0776  0.2103
 1518TIP3    H126113   0.671   3.425   0.959  0.0055 -1.0582  0.8087
 1518TIP3    H226114   0.721   3.310   0.875 -1.0656 -0.9181 -0.0555
 1519TIP3   OH226115   5.706   3.408   8.490  0.1900  0.0783  0.4090
 1519TIP3    H126116   5.642   3.418   8.562  0.1085 -1.2932  0.5394
 1519TIP3    H226117   5.652   3.391   8.413  0.3118  0.9570  0.1182
 1520TIP3   OH226118   5.085   5.073   7.021  0.1066  0.3749  0.5849
 1520TIP3    H126119   5.036   5.155   7.026 -2.3334 -1.0187  1.1489
 1520TIP3    H226120   5.071   5.042   6.932  2.5824  1.3677 -0.2464
 1521TIP3   OH226121   2.062   6.613   7.756 -0.3496  0.0895 -0.0761
 1521TIP3    H126122   2.119   6.545   7.792 -0.0508  0.2912 -0.1634
 1521TIP3    H226123   2.121   6.687   7.739 -0.6623  0.3517 -0.0293
 1522TIP3   OH226124   1.253   3.845   1.438 -0.5560 -0.5511  0.6863
 1522TIP3    H126125   1.266   3.893   1.520  1.1823 -0.2001  0.2498
 1522TIP3    H226126   1.160   3.823   1.437 -1.0720  1.3340  1.7195
 1523TIP3   OH226127   2.876   6.451   0.709 -0.2900  0.1202  0.1513
 1523TIP3    H126128   2.951   6.488   0.756  0.4555 -1.3373  0.1423
 1523TIP3    H226129   2.914   6.387   0.649 -1.6760 -2.2467  1.6623
 1524TIP3   OH226130   3.092   3.729   8.517 -0.1164  0.0435  0.3295
 1524TIP3    H126131   3.063   3.775   8.439  0.8588 -1.5936 -1.1044
 1524TIP3    H226132   3.019   3.734   8.578 -1.2182  0.6918 -1.0038
 1525TIP3   OH226133   5.271   2.815   0.545 -0.4320  0.2321  0.0573
 1525TIP3    H126134   5.239   2.786   0.459 -1.6369  3.8131 -0.8819
 1525TIP3    H226135   5.260   2.738   0.602  1.3508 -2.6210 -3.0769
 1526TIP3   OH226136   1.255   6.653   0.819  0.9211  0.5998 -0.2985
 1526TIP3    H126137   1.176   6.659   0.874  1.5784  1.0057  0.6319
 1526TIP3    H226138   1.319   6.709   0.863  2.6906 -1.9844  0.6270
 1527TIP3   OH226139   6.761   5.201   1.850  0.1983  0.3223  0.0375
 1527TIP3    H126140   6.780   5.204   1.756  1.1955 -0.0743  0.2110
 1527TIP3    H226141   6.829   5.144   1.887  0.4222  1.2619  1.1399
 1528TIP3   OH226142   0.987   5.707   0.781  0.2112  0.0346 -0.5185
 1528TIP3    H126143   0.941   5.755   0.712 -2.1292 -1.6346 -0.2426
 1528TIP3    H226144   0.969   5.755   0.861  1.7720  1.1922 -0.8048
 1529TIP3   OH226145   2.009   0.899   1.019  0.3581  0.2055  0.1277
 1529TIP3    H126146   2.084   0.906   1.079 -0.1704 -1.3080  1.0321
 1529TIP3    H226147   1.940   0.858   1.072 -0.7554  0.5796 -0.9928
 1530TIP3   OH226148   0.588   2.142   0.371 -0.3430  0.0664  0.4416
 1530TIP3    H126149   0.509   2.156   0.319 -1.7206 -0.8023  2.1881
 1530TIP3    H226150   0.636   2.224   0.365 -1.9724  1.0457  0.2714
 1531TIP3   OH226151   2.241   1.041   8.289 -0.0497  0.4359  0.4272
 1531TIP3    H126152   2.238   1.118   8.345 -0.4227  0.1555  0.8037
 1531TIP3    H226153   2.314   1.057   8.230  1.2325  0.1175  1.8771
 1532TIP3   OH226154   6.260   4.746   2.147 -0.3042 -0.0536  0.4588
 1532TIP3    H126155   6.290   4.834   2.124 -1.9538  0.7878  1.2931
 1532TIP3    H226156   6.303   4.726   2.230 -0.1951  0.1233  0.4449
 1533TIP3   OH226157   6.097   6.449   6.649  0.2911 -0.0941 -0.5071
 1533TIP3    H126158   6.092   6.369   6.597 -1.2428 -1.1020  1.0789
 1533TIP3    H226159   6.190   6.471   6.650  0.4529 -0.1892 -3.3097
 1534TIP3   OH226160   0.292   6.354   0.934  0.2055 -0.3145 -0.4561
 1534TIP3    H126161   0.222   6.331   0.873  1.2995 -1.2231 -1.4241
 1534TIP3    H226162   0.366   6.377   0.878  0.8435  0.1460  0.5445
 1535TIP3   OH226163   5.578   2.996   0.865 -0.2555  0.0821 -0.6340
 1535TIP3    H126164   5.651   3.051   0.837 -1.2630  0.6912 -2.1638
 1535TIP3    H226165   5.510   3.057   0.893 -1.2127 -0.3683 -1.8989
 1536TIP3   OH226166   0.096   0.006   0.722 -0.0047  0.1717  0.5373
 1536TIP3    H126167   0.137  -0.079   0.733  0.1700  0.1943  0.0992
 1536TIP3    H226168   0.002  -0.013   0.726  0.0333 -0.0377  0.4781
 1537TIP3   OH226169   0.495   6.755   8.375  0.4788 -0.6371 -0.2745
 1537TIP3    H126170   0.506   6.842   8.413  0.3238  0.2300 -2.1141
 1537TIP3    H226171   0.447   6.706   8.441 -0.0333  0.8692  0.5207
 1538TIP3   OH226172   4.831   2.986   1.273  0.7689  0.0370  0.0767
 1538TIP3    H126173   4.862   2.990   1.183  2.8024  0.0210  0.7436
 1538TIP3    H226174   4.751   3.040   1.273  0.9426  0.3336 -1.6370
 1539TIP3   OH226175   0.593   2.737   7.274  0.3084  0.1913  0.1839
 1539TIP3    H126176   0.658   2.685   7.226  0.4293 -0.6376  1.2256
 1539TIP3    H226177   0.634   2.823   7.286  0.9833 -0.1577  0.3627
 1540TIP3   OH226178   5.125   5.826   0.425 -0.5080 -0.4879 -0.0926
 1540TIP3    H126179   5.063   5.800   0.494 -2.0723 -0.2729 -1.3636
 1540TIP3    H226180   5.073   5.881   0.366  0.4899 -1.5181 -2.0062
 1541TIP3   OH226181   4.076   2.955   1.979  0.0898  0.1942  0.2430
 1541TIP3    H126182   4.137   3.027   1.989  0.7517 -0.0501 -1.6131
 1541TIP3    H226183   4.113   2.884   2.031  0.8399  0.3687 -0.0499
 1542TIP3   OH226184   1.556   1.717   1.196 -0.3252 -0.5054 -0.1577
 1542TIP3    H126185   1.461   1.718   1.214 -0.2362  1.9929  0.6173
 1542TIP3    H226186   1.589   1.646   1.250 -2.0429 -3.5260 -2.7516
 1543TIP3   OH226187   1.829   2.039   0.928  0.6321 -0.6966 -0.1665
 1543TIP3    H126188   1.914   1.994   0.920  0.4805 -1.1526  0.7175
 1543TIP3    H226189   1.782   1.990   0.995  0.1667  0.3439  0.2810
 1544TIP3   OH226190   0.396   5.278   8.519  0.0624 -0.0682 -0.0215
 1544TIP3    H126191   0.438   5.192   8.527  0.1512 -0.1560 -1.3175
 1544TIP3    H226192   0.378   5.288   8.426 -0.5518  1.0448  0.1972
 1545TIP3   OH226193   3.359   3.187   0.128  0.0099  0.4128  0.3175
 1545TIP3    H126194   3.420   3.253   0.161 -0.2095  0.9333 -0.2981
 1545TIP3    H226195   3.410   3.106   0.126  0.6413  0.8084 -0.0358
 1546TIP3   OH226196   3.342   6.530   1.607  0.0925  0.2938 -0.3997
 1546TIP3    H126197   3.309   6.619   1.620  0.2686  0.2485  0.3676
 1546TIP3    H226198   3.292   6.476   1.667  0.4596 -0.0241 -0.3754
 1547TIP3   OH226199   1.085   5.551   6.765 -0.0014  0.4178  0.2210
 1547TIP3    H126200   1.174   5.585   6.772 -0.1183  0.5030  1.9021
 1547TIP3    H226201   1.065   5.553   6.672  2.7492 -2.2425 -0.5942
 1548TIP3   OH226202   6.707   6.097   1.129  0.3083 -0.1566 -0.1814
 1548TIP3    H126203   6.692   6.006   1.153  1.2296 -0.1455  0.5089
 1548TIP3    H226204   6.744   6.093   1.041  0.0116 -0.4240 -0.2956
 1549TIP3   OH226205   1.797   5.132   0.203 -0.0370  0.2207  0.0262
 1549TIP3    H126206   1.813   5.037   0.201 -0.3516  0.1422  1.0051
 1549TIP3    H226207   1.797   5.157   0.111  0.7208 -0.6176 -0.2281
 1550TIP3   OH226208   6.401   4.258   7.361  0.6757 -0.2529 -0.4358
 1550TIP3    H126209   6.373   4.346   7.337 -0.1613 -0.5237 -0.4916
 1550TIP3    H226210   6.462   4.271   7.434 -1.9641  0.2537  1.8630
 1551TIP3   OH226211   3.589   3.952   1.870  0.3530 -0.5699  0.3527
 1551TIP3    H126212   3.619   3.862   1.877 -0.7573 -0.9333  0.5491
 1551TIP3    H226213   3.526   3.952   1.798  0.4900  0.0919  0.2194
 1552TIP3   OH226214   3.348   1.603   2.173  0.5563  0.8360  0.2222
 1552TIP3    H126215   3.371   1.662   2.245  1.7584  0.3590  0.2534
 1552TIP3    H226216   3.431   1.563   2.148 -0.2896 -1.1907  0.4961
 1553TIP3   OH226217   2.206   5.695   8.565  0.9210  0.2782 -0.0981
 1553TIP3    H126218   2.197   5.600   8.563  0.0163  0.3308  0.6989
 1553TIP3    H226219   2.258   5.712   8.644  0.8846  0.4535 -0.1110
 1554TIP3   OH226220   2.715   4.387   0.887 -0.0263  0.0105  0.1029
 1554TIP3    H126221   2.743   4.296   0.902 -0.5296 -0.1653  0.0109
 1554TIP3    H226222   2.796   4.435   0.874  0.2108 -0.8780 -2.3493
 1555TIP3   OH226223   4.192   6.713   0.922  0.2799  0.4235 -0.4957
 1555TIP3    H126224   4.267   6.655   0.928  0.6305  0.9224  0.1311
 1555TIP3    H226225   4.116   6.655   0.920  0.7025 -0.1106 -1.8590
 1556TIP3   OH226226   4.048   2.671   7.739 -0.4959  0.4397 -0.2073
 1556TIP3    H126227   4.116   2.727   7.777  0.3270 -0.3384 -0.4982
 1556TIP3    H226228   4.012   2.722   7.667  1.4681 -0.0651 -1.6128
 1557TIP3   OH226229   5.455   4.551   0.173  0.4078  0.7132 -0.0098
 1557TIP3    H126230   5.475   4.583   0.085  1.0289 -0.4485 -0.2987
 1557TIP3    H226231   5.540   4.545   0.217  0.3568 -0.8036 -0.0668
 1558TIP3   OH226232   3.829   3.263   8.455 -0.1723  0.4126  0.2404
 1558TIP3    H126233   3.793   3.317   8.385 -0.2958  2.0268  1.4708
 1558TIP3    H226234   3.759   3.203   8.477 -0.5708  0.6992 -0.2162
 1559TIP3   OH226235   0.893   6.280   0.185 -0.1839 -0.3085 -0.8159
 1559TIP3    H126236   0.939   6.207   0.142  0.6576  0.0081 -0.4854
 1559TIP3    H226237   0.940   6.292   0.268 -1.7087 -0.8345  0.1630
 1560TIP3   OH226238   0.768   0.369   8.690  0.4491  0.1494 -0.6958
 1560TIP3    H126239   0.816   0.329   8.617  1.4189  1.3786 -0.7675
 1560TIP3    H226240   0.710   0.433   8.648  0.9963  0.8487 -0.4127
 1561TIP3   OH226241   3.184   2.250   0.668 -0.2238  0.5897 -0.0943
 1561TIP3    H126242   3.214   2.319   0.726  0.2804 -0.3795  0.8194
 1561TIP3    H226243   3.119   2.293   0.611  1.4769  2.2635 -0.8620
 1562TIP3   OH226244   1.076   5.329   8.636  0.1348 -0.0625 -0.1033
 1562TIP3    H126245   0.993   5.305   8.594 -0.8852 -0.7521  2.1734
 1562TIP3    H226246   1.078   5.425   8.630 -1.1786  0.0238  0.3640
 1563TIP3   OH226247   2.061   0.757   6.302  0.0206  0.2826  0.2285
 1563TIP3    H126248   2.095   0.831   6.253 -0.1632  0.2203  0.0039
 1563TIP3    H226249   2.032   0.695   6.235 -2.1044  1.0437  0.3809
 1564TIP3   OH226250   0.678   4.696   0.637  0.1272 -0.2916  0.3408
 1564TIP3    H126251   0.610   4.645   0.679  0.4741  0.2773  1.6587
 1564TIP3    H226252   0.751   4.694   0.698  0.8992  0.0305 -0.5391
 1565TIP3   OH226253   3.973   3.875   8.215 -0.0216  0.1543  0.0012
 1565TIP3    H126254   3.901   3.827   8.175 -1.5751  0.8240  1.8332
 1565TIP3    H226255   4.025   3.809   8.260  0.3670 -0.2921 -1.0683
 1566TIP3   OH226256   0.979   0.830   1.929 -0.1255  0.0970  0.4120
 1566TIP3    H126257   1.012   0.918   1.909 -0.1988 -0.0498 -0.3894
 1566TIP3    H226258   0.988   0.822   2.024  0.2384  0.8269  0.4462
 1567TIP3   OH226259   2.179   6.275   1.600  0.2487  0.1172  0.4954
 1567TIP3    H126260   2.242   6.325   1.652  0.0678  0.0308  0.8036
 1567TIP3    H226261   2.174   6.322   1.517  1.5375 -0.4808  0.0498
 1568TIP3   OH226262   1.663   0.814   8.627  0.1425  0.1600  0.1302
 1568TIP3    H126263   1.654   0.719   8.616  1.2184  0.1923 -1.5196
 1568TIP3    H226264   1.646   0.830   8.719  0.8343 -1.7741  0.6417
 1569TIP3   OH226265   6.535   0.247   7.339 -0.6372 -0.3509  0.1831
 1569TIP3    H126266   6.452   0.223   7.298 -1.1997  3.0841 -1.0451
 1569TIP3    H226267   6.588   0.282   7.268 -0.3738  2.7260  1.7196
 1570TIP3   OH226268   6.679   1.841   7.695  0.2002 -0.4065 -0.8155
 1570TIP3    H126269   6.755   1.894   7.671  0.9294 -0.8238  0.4666
 1570TIP3    H226270   6.702   1.804   7.780 -0.9364 -1.5519 -0.9844
 1571TIP3   OH226271   0.612   2.401   8.081 -0.6126 -0.6494 -0.4773
 1571TIP3    H126272   0.544   2.344   8.116 -2.0279  1.2443  0.0501
 1571TIP3    H226273   0.644   2.355   8.004 -0.1042 -3.1450  1.0984
 1572TIP3   OH226274   2.381   6.236   0.440  0.2838 -0.1804 -0.2952
 1572TIP3    H126275   2.440   6.292   0.390 -0.1173 -0.3146 -0.9332
 1572TIP3    H226276   2.317   6.296   0.478  1.7574  0.1889  1.8226
 1573TIP3   OH226277   4.843   1.547   7.491  0.0428 -0.0278  0.2129
 1573TIP3    H126278   4.900   1.618   7.461  0.5301 -0.3052  0.4749
 1573TIP3    H226279   4.870   1.471   7.440 -0.3642 -0.0710  0.0560
 1574TIP3   OH226280   4.059   1.084   8.023 -0.3584  0.0227 -0.3819
 1574TIP3    H126281   3.986   1.060   8.080 -0.5258 -1.3191 -1.1276
 1574TIP3    H226282   4.086   1.171   8.054 -1.1986 -0.1706  0.9590
 1575TIP3   OH226283   1.014   1.618   0.709  0.2508  0.1787 -0.2023
 1575TIP3    H126284   0.939   1.648   0.658 -0.1363 -1.7266 -0.8313
 1575TIP3    H226285   1.057   1.698   0.738 -0.0199  1.3608 -2.7811
 1576TIP3   OH226286   3.437   5.290   1.664 -0.0839  0.1956  0.3748
 1576TIP3    H126287   3.351   5.259   1.637  0.0098  0.3091 -0.0590
 1576TIP3    H226288   3.420   5.351   1.736 -0.3636  0.2314  0.2788
 1577TIP3   OH226289   1.291   5.372   7.567 -0.5685  0.6698  0.4318
 1577TIP3    H126290   1.275   5.448   7.623  1.1883  0.1227  1.7727
 1577TIP3    H226291   1.382   5.381   7.539  0.3132 -1.7456  2.1063
 1578TIP3   OH226292   1.970   4.889   0.656  0.5105  0.3336 -0.1895
 1578TIP3    H126293   1.988   4.849   0.741  1.1416  0.7147 -0.1373
 1578TIP3    H226294   1.891   4.942   0.670  0.3847  0.0792  0.0545
 1579TIP3   OH226295   0.765   5.086   0.941  0.1414 -0.1091  0.1901
 1579TIP3    H126296   0.706   5.010   0.943 -1.0088  0.7626  0.6986
 1579TIP3    H226297   0.706   5.161   0.945  1.3570  0.7978  1.9506
 1580TIP3   OH226298   4.547   2.706   0.557 -0.1991 -0.3544 -0.2233
 1580TIP3    H126299   4.577   2.651   0.484  2.5498 -0.1636  0.6566
 1580TIP3    H226300   4.587   2.791   0.540 -0.1463 -0.1068  1.0827
 1581TIP3   OH226301   1.188   0.699   1.276  0.2639 -0.2188  0.0458
 1581TIP3    H126302   1.173   0.642   1.200  2.0694 -0.0070 -0.5112
 1581TIP3    H226303   1.201   0.786   1.238  1.3449 -0.1413  0.5638
 1582TIP3   OH226304   6.319   1.924   1.535 -0.4295 -0.0082 -0.5351
 1582TIP3    H126305   6.340   1.853   1.596  0.4634  0.4336 -0.3156
 1582TIP3    H226306   6.287   1.995   1.592  0.4926  0.4375 -0.5601
 1583TIP3   OH226307   6.592   0.718   8.183  0.2402 -0.2074 -0.3009
 1583TIP3    H126308   6.626   0.783   8.121 -1.3691  0.7430 -0.2494
 1583TIP3    H226309   6.515   0.682   8.140 -1.2000  0.8253  1.2770
 1584TIP3   OH226310   4.151   0.400   1.155 -0.2717  0.6766 -0.0078
 1584TIP3    H126311   4.220   0.346   1.192  0.0624  1.3744  0.3980
 1584TIP3    H226312   4.083   0.338   1.128  0.7344 -0.0601 -0.9103
 1585TIP3   OH226313   0.807   2.018   2.494 -0.3441 -0.3573 -0.5892
 1585TIP3    H126314   0.715   2.031   2.472 -0.3983  2.4820  0.8599
 1585TIP3    H226315   0.847   1.990   2.412 -1.8032  2.5185 -2.4583
 1586TIP3   OH226316   4.862   3.120   8.149  0.4420  0.2126 -1.2611
 1586TIP3    H126317   4.824   3.034   8.129 -0.3960  0.2042  0.1876
 1586TIP3    H226318   4.899   3.110   8.237 -0.7493  1.6371 -0.5527
 1587TIP3   OH226319   2.040   3.997   1.055 -0.3202 -0.1498  0.3558
 1587TIP3    H126320   2.066   3.907   1.073 -1.8395 -0.8598 -0.7203
 1587TIP3    H226321   2.046   4.005   0.959 -3.3994 -0.2511  0.0463
 1588TIP3   OH226322   4.441   5.634   6.669 -0.0475 -0.1618  0.0408
 1588TIP3    H126323   4.450   5.539   6.667 -0.9239 -0.2569  0.2808
 1588TIP3    H226324   4.530   5.666   6.688  0.6764 -0.8164 -2.0183
 1589TIP3   OH226325   1.954   4.739   7.153  0.3479 -0.3442 -0.3390
 1589TIP3    H126326   2.037   4.769   7.115  0.9963 -2.0451 -0.3455
 1589TIP3    H226327   1.906   4.820   7.172  3.2496  0.9345  2.5476
 1590TIP3   OH226328   1.600   0.894   6.560 -0.1572 -0.2723 -0.3871
 1590TIP3    H126329   1.655   0.883   6.483 -0.1081  1.6628 -0.6960
 1590TIP3    H226330   1.514   0.864   6.533 -0.0850  0.1757 -1.1469
 1591TIP3   OH226331   5.750   4.531   8.510  0.2854 -0.1258 -0.6431
 1591TIP3    H126332   5.782   4.468   8.445  2.6260  0.5508 -0.2562
 1591TIP3    H226333   5.785   4.615   8.482  0.1927  0.4061  0.7398
 1592TIP3   OH226334   2.672   4.072   6.476  0.0293 -0.2174 -0.2578
 1592TIP3    H126335   2.681   4.002   6.411  0.2279  0.8522 -1.4101
 1592TIP3    H226336   2.630   4.143   6.429  1.7258  1.2118  0.2749
 1593TIP3   OH226337   6.601   5.457   7.985 -0.1238  0.1487 -0.0975
 1593TIP3    H126338   6.565   5.533   8.031  0.0869  1.4793 -1.9945
 1593TIP3    H226339   6.660   5.416   8.049 -2.2135  0.0056  1.8520
 1594TIP3   OH226340   4.449   1.167   8.019  0.3361 -0.1276 -0.0639
 1594TIP3    H126341   4.436   1.107   8.093 -2.7215 -1.2805 -1.3789
 1594TIP3    H226342   4.539   1.153   7.992  0.7074 -1.6518  1.7666
 1595TIP3   OH226343   3.958   2.395   1.839 -0.9387 -0.0396  0.5401
 1595TIP3    H126344   4.033   2.347   1.802 -0.2844  1.7402 -0.5805
 1595TIP3    H226345   3.969   2.386   1.934  1.4141  1.0846  0.4684
 1596TIP3   OH226346   4.329   0.198   0.931 -0.1960  0.3146  0.8063
 1596TIP3    H126347   4.409   0.234   0.892  1.0112 -1.9780  1.0271
 1596TIP3    H226348   4.283   0.159   0.858  0.6098 -1.3606  1.1452
 1597TIP3   OH226349   4.109   3.537   6.834  0.2451  0.6712  0.1458
 1597TIP3    H126350   4.151   3.543   6.748 -0.0550  0.3921 -0.0232
 1597TIP3    H226351   4.140   3.455   6.871  1.8179  1.6364  1.0953
 1598TIP3   OH226352   6.402   0.407   8.313 -0.4564  0.4215 -0.7329
 1598TIP3    H126353   6.401   0.383   8.220 -0.1318  2.1421 -1.2053
 1598TIP3    H226354   6.318   0.451   8.327 -1.2534 -1.3032  0.2383
 1599TIP3   OH226355   6.395   0.672   0.490 -0.0255 -0.5152 -0.1457
 1599TIP3    H126356   6.480   0.672   0.445  0.6813 -1.5540  1.1285
 1599TIP3    H226357   6.398   0.595   0.547 -2.7625 -1.9824 -1.7846
 1600TIP3   OH226358   4.839   3.791   0.210 -0.1789 -0.0727 -0.3334
 1600TIP3    H126359   4.839   3.696   0.200  0.2414 -0.1264  0.1548
 1600TIP3    H226360   4.907   3.809   0.274 -0.8370  0.4920  0.2304
 1601TIP3   OH226361   4.108   1.443   8.675 -0.2072  0.5496 -0.1418
 1601TIP3    H126362   4.100   1.358   8.630 -0.6192  0.4108  0.1786
 1601TIP3    H226363   4.134   1.504   8.606  0.6825  0.0560 -0.2645
 1602TIP3   OH226364   3.924   1.888   7.775  0.1452  0.1011  0.0406
 1602TIP3    H126365   3.933   1.795   7.798  0.7261  0.0373 -0.4242
 1602TIP3    H226366   3.835   1.911   7.803  0.3246 -0.3477  1.0057
 1603TIP3   OH226367   4.218   4.620   1.929  0.2768 -0.1698 -0.4041
 1603TIP3    H126368   4.162   4.559   1.977  0.6592  0.1708  0.4871
 1603TIP3    H226369   4.202   4.705   1.970  1.1499 -0.0021 -0.4083
 1604TIP3   OH226370   4.578   5.600   8.490  0.6828 -0.4763  0.4282
 1604TIP3    H126371   4.588   5.695   8.478  0.1515 -0.4927 -0.1242
 1604TIP3    H226372   4.667   5.570   8.509  1.1149 -0.0806 -0.8682
 1605TIP3   OH226373   6.562   3.329   2.718 -0.0970  0.0371 -0.1370
 1605TIP3    H126374   6.573   3.239   2.749  1.3147  0.0118 -0.6288
 1605TIP3    H226375   6.617   3.334   2.641 -2.3985  0.5211 -1.8575
 1606TIP3   OH226376   0.281   4.325   0.050  0.1524  0.0105 -0.2607
 1606TIP3    H126377   0.220   4.365   0.111  1.1317 -0.6092  1.1850
 1606TIP3    H226378   0.280   4.232   0.072  2.2321  0.0948  0.4244
 1607TIP3   OH226379   4.698   4.073   8.414 -0.2670 -0.0028 -0.2967
 1607TIP3    H126380   4.782   4.055   8.373 -0.7299  1.1690 -1.8617
 1607TIP3    H226381   4.648   3.991   8.404  0.4016 -0.4414 -0.0694
 1608TIP3   OH226382   5.138   1.232   8.106  0.5003  0.3436  0.5037
 1608TIP3    H126383   5.126   1.192   8.020 -1.6621 -0.2250  1.0058
 1608TIP3    H226384   5.093   1.316   8.101  2.3595  1.4089  0.4230
 1609TIP3   OH226385   2.067   6.222   0.481 -0.6962 -0.4450 -0.3758
 1609TIP3    H126386   2.124   6.296   0.459 -0.9424 -0.3832 -0.8087
 1609TIP3    H226387   2.023   6.249   0.562 -1.7749  0.4464 -1.2279
 1610TIP3   OH226388   6.642   5.326   1.355 -0.6311  0.6238 -0.3006
 1610TIP3    H126389   6.574   5.327   1.423  0.7518 -0.4656  1.1903
 1610TIP3    H226390   6.609   5.265   1.289 -0.7759 -0.5494  0.8096
 1611TIP3   OH226391   2.780   1.236   6.882 -0.0985  0.3039  0.4582
 1611TIP3    H126392   2.788   1.235   6.787  0.2205  1.4621  0.4529
 1611TIP3    H226393   2.727   1.314   6.901 -3.2243 -1.7752  1.0650
 1612TIP3   OH226394   3.157   0.597   0.090  0.0496 -0.4395  0.0474
 1612TIP3    H126395   3.118   0.563   0.170 -0.3435 -2.6685 -0.9961
 1612TIP3    H226396   3.242   0.553   0.084 -0.7394 -1.9051 -1.6778
 1613TIP3   OH226397   4.543   1.899   6.977  0.5507 -0.0636 -0.4884
 1613TIP3    H126398   4.550   1.851   6.895 -1.1585 -1.8097  0.3096
 1613TIP3    H226399   4.456   1.877   7.011  1.4444  0.0359  2.1025
 1614TIP3   OH226400   6.433   6.307   7.671  0.0232  0.4265 -0.5735
 1614TIP3    H126401   6.375   6.342   7.739  1.0773 -1.7104  1.5870
 1614TIP3    H226402   6.376   6.297   7.594 -2.4494 -1.1785  1.3099
 1615TIP3   OH226403   4.911   2.610   1.774  0.5074  0.0594 -0.1694
 1615TIP3    H126404   4.869   2.611   1.860 -0.1699 -0.2803 -0.4903
 1615TIP3    H226405   4.963   2.691   1.771 -0.3984  0.6598  0.1029
 1616TIP3   OH226406   6.381   4.438   0.240 -0.4069  0.2905 -0.0582
 1616TIP3    H126407   6.298   4.394   0.223 -0.8159  0.7333  0.7189
 1616TIP3    H226408   6.432   4.426   0.160 -1.7820  1.2910 -1.1222
 1617TIP3   OH226409   1.937   0.201   0.138 -0.4572  0.2170  0.5033
 1617TIP3    H126410   1.978   0.129   0.090 -1.2376  0.2183 -0.1674
 1617TIP3    H226411   2.011   0.255   0.168  0.0740 -0.2688  0.0811
 1618TIP3   OH226412   5.199   2.040   1.355 -0.1899 -0.3516 -0.0708
 1618TIP3    H126413   5.262   2.087   1.411 -0.3418 -1.3705  0.9981
 1618TIP3    H226414   5.118   2.039   1.406 -0.3649 -1.2148 -0.3504
 1619TIP3   OH226415   0.601   5.686   1.348  0.1677 -0.3416 -0.0849
 1619TIP3    H126416   0.562   5.773   1.350  0.3753 -0.1393 -2.1804
 1619TIP3    H226417   0.656   5.682   1.426 -0.4945  1.0705  0.4892
 1620TIP3   OH226418   4.947   6.765   8.527  0.5632  0.3359  0.0675
 1620TIP3    H126419   4.883   6.694   8.534 -1.2920  1.9667  0.2714
 1620TIP3    H226420   4.967   6.769   8.433  1.8512 -1.3754  0.2156
 1621TIP3   OH226421   0.185   5.337   7.086 -0.5625  0.2055 -0.2056
 1621TIP3    H126422   0.150   5.308   7.170  0.0164 -0.4928 -0.1940
 1621TIP3    H226423   0.191   5.256   7.034  0.8974  0.3157 -0.2458
 1622TIP3   OH226424   5.446   3.810   2.146  0.2719  0.2095 -0.3119
 1622TIP3    H126425   5.504   3.773   2.079  0.7601 -1.0014  0.7363
 1622TIP3    H226426   5.451   3.748   2.218 -0.6730  1.2085  0.6412
 1623TIP3   OH226427   6.302   0.664   1.637  0.0364  0.3148 -0.1752
 1623TIP3    H126428   6.221   0.613   1.648  0.7447 -0.8126 -0.0702
 1623TIP3    H226429   6.318   0.702   1.723 -1.5711  2.4272 -0.7245
 1624TIP3   OH226430   2.236   0.153   1.710 -0.1844 -0.3780  0.0562
 1624TIP3    H126431   2.244   0.160   1.805 -1.0350  0.6192  0.0784
 1624TIP3    H226432   2.325   0.133   1.679  0.0206 -1.0651  1.0826
 1625TIP3   OH226433   0.959   5.838   0.517 -0.1676  0.1205 -0.6550
 1625TIP3    H126434   0.872   5.828   0.480 -0.5974 -0.5170  0.4994
 1625TIP3    H226435   1.001   5.753   0.504  0.2085  0.3518 -0.9948
 1626TIP3   OH226436   1.802   0.846   0.738 -0.1783 -0.4924  0.3646
 1626TIP3    H126437   1.809   0.789   0.662  0.0484 -0.6399  0.4919
 1626TIP3    H226438   1.822   0.933   0.705  2.7392 -0.9171  0.7382
 1627TIP3   OH226439   3.976   3.180   2.122  0.5374 -0.1067 -0.1227
 1627TIP3    H126440   3.968   3.106   2.061  2.0090 -1.0935  0.7946
 1627TIP3    H226441   4.031   3.243   2.076 -0.8354  0.5029 -0.9638
 1628TIP3   OH226442   5.569   5.471   7.822 -0.1700 -0.3756 -0.2406
 1628TIP3    H126443   5.641   5.434   7.873  0.4963  1.2572  0.0802
 1628TIP3    H226444   5.609   5.493   7.737 -0.6379 -0.7283 -0.5571
 1629TIP3   OH226445   4.610   1.196   6.998 -0.1104  0.3140 -0.4094
 1629TIP3    H126446   4.657   1.117   6.972 -1.1196 -0.6306  0.5030
 1629TIP3    H226447   4.678   1.262   7.011  0.8698 -0.7304 -0.0479
 1630TIP3   OH226448   2.017   2.369   1.514  0.5021 -0.2124  0.1878
 1630TIP3    H126449   1.957   2.403   1.448  1.4267 -1.0726 -1.1444
 1630TIP3    H226450   1.963   2.356   1.592 -0.5362  1.1651 -0.2739
 1631TIP3   OH226451   1.861   2.262   0.007 -0.2900  0.2245  0.2326
 1631TIP3    H126452   1.951   2.282   0.032 -0.1765  0.7861 -0.6100
 1631TIP3    H226453   1.864   2.171  -0.022 -0.2228 -0.1117  1.2492
 1632TIP3   OH226454   5.125   5.545   1.211 -0.5550  0.1169  0.0185
 1632TIP3    H126455   5.186   5.593   1.267 -1.6545 -0.5271  1.8660
 1632TIP3    H226456   5.180   5.487   1.158  0.7134  2.4575 -1.4061
 1633TIP3   OH226457   5.869   6.633   8.482 -0.4218 -0.5088 -0.4620
 1633TIP3    H126458   5.835   6.704   8.536  0.0137 -0.4289 -0.2944
 1633TIP3    H226459   5.874   6.558   8.541  2.3530  0.1622  0.3029
 1634TIP3   OH226460   2.230   3.481   7.652  0.3921  0.0303 -0.3147
 1634TIP3    H126461   2.272   3.432   7.582 -1.1052  0.1109 -1.3302
 1634TIP3    H226462   2.228   3.421   7.726  2.1132 -0.0129 -0.2630
 1635TIP3   OH226463   0.447   0.739   7.396  0.1956 -0.3797 -0.1214
 1635TIP3    H126464   0.526   0.695   7.428  1.7512  1.6941 -0.9219
 1635TIP3    H226465   0.397   0.670   7.352  1.9801 -1.5707 -0.3479
 1636TIP3   OH226466   0.390   6.656   8.594  0.2789 -0.0994 -0.0448
 1636TIP3    H126467   0.399   6.561   8.601  1.9892  0.1055  1.1045
 1636TIP3    H226468   0.295   6.670   8.588  0.0388 -1.9037 -1.3484
 1637TIP3   OH226469   5.788   1.789   7.120 -0.1277 -0.5536  0.3563
 1637TIP3    H126470   5.774   1.881   7.139  0.4070  0.0066 -1.7396
 1637TIP3    H226471   5.750   1.776   7.033  1.2857 -1.9043 -0.1041
 1638TIP3   OH226472   0.311   2.957   0.625 -0.0147  0.5128  0.4545
 1638TIP3    H126473   0.399   2.921   0.612 -0.2118 -0.1968  1.0185
 1638TIP3    H226474   0.315   3.044   0.585  0.7982  0.2998  0.0405
 1639TIP3   OH226475   5.078   1.472   0.733  0.2380 -0.3900 -0.3574
 1639TIP3    H126476   5.049   1.563   0.734 -0.0104 -0.4444  1.3623
 1639TIP3    H226477   5.076   1.447   0.641  0.6311  1.4289 -0.9041
 1640TIP3   OH226478   6.728   3.987   2.584 -0.1434 -0.3589  0.5378
 1640TIP3    H126479   6.774   4.053   2.532 -0.2623 -1.2481 -0.7727
 1640TIP3    H226480   6.780   3.907   2.573 -2.0039 -1.4467 -1.1520
 1641TIP3   OH226481   3.493   4.804   0.394 -0.4088 -0.0667  0.3347
 1641TIP3    H126482   3.449   4.789   0.310  0.3189  0.4896 -0.1617
 1641TIP3    H226483   3.469   4.893   0.419 -1.9372 -0.7730  1.5544
 1642TIP3   OH226484   4.201   3.048   6.443  0.3417 -0.4052  0.2296
 1642TIP3    H126485   4.291   3.061   6.472  0.4453 -0.6520  0.0256
 1642TIP3    H226486   4.196   3.094   6.359 -0.0568  0.6113  0.8005
 1643TIP3   OH226487   6.456   4.091   8.113 -0.0254 -0.0907  0.5404
 1643TIP3    H126488   6.494   4.067   8.029 -0.4359  1.1412 -0.0137
 1643TIP3    H226489   6.380   4.034   8.122  0.5969 -0.9370  0.5732
 1644TIP3   OH226490   4.367   0.050   1.728  0.1122  0.0253  0.5357
 1644TIP3    H126491   4.363   0.005   1.644  0.1115 -0.3186  0.7185
 1644TIP3    H226492   4.287   0.025   1.773 -0.8431  1.7500 -0.1161
 1645TIP3   OH226493   5.994   2.707   8.633 -0.2227 -0.4956 -0.2961
 1645TIP3    H126494   6.001   2.705   8.538 -1.6345 -1.7574 -0.4078
 1645TIP3    H226495   5.958   2.622   8.656 -3.6964  1.1697  1.0059
 1646TIP3   OH226496   5.585   2.961   1.577  0.1793  0.4107  0.0268
 1646TIP3    H126497   5.510   2.902   1.581  1.2617 -1.0200 -0.0641
 1646TIP3    H226498   5.629   2.940   1.495  1.2331  0.5009  0.5376
 1647TIP3   OH226499   4.246   0.572   7.635  0.0585 -0.2102 -0.1492
 1647TIP3    H126500   4.276   0.662   7.621 -1.1517  0.2679  0.2498
 1647TIP3    H226501   4.151   0.579   7.644  0.0328 -1.4228  0.7474
 1648TIP3   OH226502   2.936   1.560   7.469 -0.5577  0.5850  0.0579
 1648TIP3    H126503   2.991   1.482   7.469 -1.6592 -0.2183 -0.5490
 1648TIP3    H226504   2.957   1.604   7.552  0.8434  0.2146 -0.0753
 1649TIP3   OH226505   3.937   0.013   7.197  0.9535 -0.0958  0.2658
 1649TIP3    H126506   4.029   0.037   7.188  1.1223 -1.3218 -1.7564
 1649TIP3    H226507   3.890   0.080   7.147  1.0410 -1.1463 -1.2953
 1650TIP3   OH226508   2.785   1.163   8.687  0.3045 -0.2082 -0.3983
 1650TIP3    H126509   2.721   1.092   8.681  2.0886 -1.8137 -1.6246
 1650TIP3    H226510   2.794   1.196   8.598  0.5649  0.6007 -0.0901
 1651TIP3   OH226511   0.921   4.404   1.367 -0.5231  0.5427  0.1959
 1651TIP3    H126512   0.979   4.439   1.434 -0.2740  1.6577 -0.5679
 1651TIP3    H226513   0.834   4.435   1.392 -0.6291 -0.2015  0.7471
 1652TIP3   OH226514   1.587   4.673   0.072  0.2723 -0.2757  0.7092
 1652TIP3    H126515   1.617   4.638  -0.012  0.8550  1.0402  0.3486
 1652TIP3    H226516   1.626   4.614   0.137  1.4837 -0.1566  0.1276
 1653TIP3   OH226517   3.339   5.496   1.055  0.0983 -0.9671 -0.3435
 1653TIP3    H126518   3.423   5.450   1.058  0.0441 -1.0198  1.4373
 1653TIP3    H226519   3.351   5.572   1.113 -1.1946 -1.2351  0.3180
 1654TIP3   OH226520   6.489   6.399   7.172  0.2579  0.2398 -0.6820
 1654TIP3    H126521   6.557   6.339   7.144  0.1941  0.4259 -1.2619
 1654TIP3    H226522   6.502   6.409   7.266  1.0591  0.3138 -0.7945
 1655TIP3   OH226523   3.506   6.205   0.681 -0.0401 -0.2966 -0.7332
 1655TIP3    H126524   3.576   6.268   0.666 -0.6235  0.2064 -1.4473
 1655TIP3    H226525   3.439   6.228   0.617 -1.0610 -0.4781  0.2376
 1656TIP3   OH226526   4.919   2.533   7.087 -0.3949  0.0988 -0.6630
 1656TIP3    H126527   5.008   2.526   7.053 -0.9702  2.8559 -3.1771
 1656TIP3    H226528   4.865   2.487   7.022 -0.9352 -0.7203  0.3367
 1657TIP3   OH226529   4.847   3.946   1.405  0.2438 -0.7347  0.1012
 1657TIP3    H126530   4.894   3.918   1.483  1.2518  0.2378 -0.1364
 1657TIP3    H226531   4.914   3.985   1.348 -0.3828 -1.8195 -1.4588
 1658TIP3   OH226532   6.448   2.741   8.411  0.1212 -0.3670  0.2984
 1658TIP3    H126533   6.454   2.750   8.506  1.5263 -0.0538  0.1937
 1658TIP3    H226534   6.369   2.688   8.398 -0.7257  0.5273  1.5673
 1659TIP3   OH226535   0.334   0.051   8.170 -0.0913 -0.2897 -0.2969
 1659TIP3    H126536   0.418   0.033   8.128 -0.1002 -3.3343  0.8116
 1659TIP3    H226537   0.325  -0.015   8.238 -3.1168  0.3046  0.0488
 1660TIP3   OH226538   1.465   3.399   1.145  0.1329 -0.0241 -0.7326
 1660TIP3    H126539   1.424   3.475   1.186 -2.8133 -1.4222 -0.7524
 1660TIP3    H226540   1.552   3.429   1.119  0.5970  2.2025  2.6278
 1661TIP3   OH226541   3.224   6.788   1.637 -0.2480  0.2417 -0.3986
 1661TIP3    H126542   3.214   6.883   1.643 -1.6571  0.0527  0.7963
 1661TIP3    H226543   3.167   6.762   1.565 -1.4326  0.1295  0.5422
 1662TIP3   OH226544   4.216   5.216   8.498 -0.1388  0.0007  0.2983
 1662TIP3    H126545   4.291   5.253   8.545 -0.4105  0.3726  0.4433
 1662TIP3    H226546   4.238   5.124   8.486  0.3006  0.0881  0.4212
 1663TIP3   OH226547   1.814   4.216   1.110  0.5540  0.0332 -0.4164
 1663TIP3    H126548   1.852   4.281   1.169  1.0793  0.8070 -1.5618
 1663TIP3    H226549   1.883   4.150   1.100  0.1250 -0.5651  0.5307
 1664TIP3   OH226550   0.121   6.327   1.989 -0.0029  1.3475 -0.0965
 1664TIP3    H126551   0.177   6.392   2.032  0.2167  0.3044  1.2318
 1664TIP3    H226552   0.139   6.245   2.034 -0.3022  0.3433 -1.7288
 1665TIP3   OH226553   6.653   4.016   7.873 -0.4653 -0.2716 -0.2867
 1665TIP3    H126554   6.621   4.036   7.785 -3.3527  3.0494  1.2731
 1665TIP3    H226555   6.710   4.090   7.895 -1.5959  0.1456  1.3905
 1666TIP3   OH226556   4.318   0.801   8.489 -0.5700 -0.5580 -0.5283
 1666TIP3    H126557   4.395   0.854   8.508 -0.1176 -1.4007  0.0514
 1666TIP3    H226558   4.281   0.840   8.409 -1.2771  1.7236  0.8291
 1667TIP3   OH226559   6.508   2.835   1.649 -0.0518  0.9475 -0.0468
 1667TIP3    H126560   6.483   2.888   1.725 -1.3758  1.4875 -0.8253
 1667TIP3    H226561   6.425   2.811   1.608  0.4826 -1.9513  0.3774
 1668TIP3   OH226562   6.533   3.856   6.827  0.1838 -0.7573 -0.1381
 1668TIP3    H126563   6.491   3.935   6.860  1.0305 -0.1980 -0.3671
 1668TIP3    H226564   6.541   3.870   6.733  1.0056 -0.7916 -0.0792
 1669TIP3   OH226565   0.458   3.948   0.970  0.7473 -0.8318  0.0772
 1669TIP3    H126566   0.375   3.939   0.923  1.5781  0.1119 -1.6782
 1669TIP3    H226567   0.498   3.862   0.965  0.2570 -1.0743  0.2118
 1670TIP3   OH226568   5.887   3.308   6.876 -0.2186 -0.4024  0.4284
 1670TIP3    H126569   5.844   3.258   6.807  1.0412 -1.2352  0.2099
 1670TIP3    H226570   5.877   3.399   6.850 -0.9430 -0.6308 -0.1296
 1671TIP3   OH226571   1.544   2.373   1.614 -0.3869  0.2204 -0.0409
 1671TIP3    H126572   1.459   2.331   1.629 -0.1826 -0.4870 -0.7569
 1671TIP3    H226573   1.539   2.405   1.524 -1.0505  3.0161  0.9117
 1672TIP3   OH226574   3.555   3.883   8.214  0.2230  0.2740 -0.2069
 1672TIP3    H126575   3.577   3.796   8.181  2.2495  0.1830  1.2221
 1672TIP3    H226576   3.461   3.878   8.235  0.4991 -1.8496  0.7047
 1673TIP3   OH226577   1.583   3.874   1.612  0.0573  0.8360 -0.0368
 1673TIP3    H126578   1.657   3.830   1.653  1.2514  3.0001  0.3042
 1673TIP3    H226579   1.517   3.881   1.681 -0.2249 -0.5065 -0.1516
 1674TIP3   OH226580   0.359   0.764   0.104  0.0413  0.7493  0.0576
 1674TIP3    H126581   0.420   0.786   0.174 -1.8462  1.2434  1.5994
 1674TIP3    H226582   0.298   0.701   0.143 -1.1011  1.0985 -1.0889
 1675TIP3   OH226583   5.999   5.443   6.164  0.0601 -0.4575 -0.0521
 1675TIP3    H126584   5.913   5.484   6.171  0.3216  0.0710  0.1053
 1675TIP3    H226585   5.984   5.365   6.110 -0.9354 -1.5776  1.7160
 1676TIP3   OH226586   6.388   5.558   7.535 -0.3758  0.1009 -0.4235
 1676TIP3    H126587   6.387   5.482   7.477  0.3813  0.0568 -0.3878
 1676TIP3    H226588   6.313   5.544   7.593  0.8774 -1.6723  0.9051
 1677TIP3   OH226589   4.127   4.555   6.949  0.0009 -0.3367 -0.5184
 1677TIP3    H126590   4.213   4.595   6.933  1.5195 -3.0058  0.2596
 1677TIP3    H226591   4.109   4.503   6.871 -0.1087 -1.0589 -0.0231
 1678TIP3   OH226592   1.296   4.214   8.391 -0.0351 -0.0138 -0.4081
 1678TIP3    H126593   1.386   4.241   8.375 -0.6177  2.0801 -0.3717
 1678TIP3    H226594   1.287   4.131   8.344  1.1959  0.9754 -2.4863
 1679TIP3   OH226595   1.799   4.180   8.636  0.1789 -0.1318  0.0176
 1679TIP3    H126596   1.832   4.268   8.655 -0.5759  0.4116 -1.1073
 1679TIP3    H226597   1.704   4.189   8.637  0.0543 -1.2266  1.1485
 1680TIP3   OH226598   4.889   3.305   7.241 -0.4472  0.5355 -0.2685
 1680TIP3    H126599   4.949   3.339   7.175 -1.9456 -0.5377 -2.3014
 1680TIP3    H226600   4.864   3.382   7.293  1.9333  1.1483  0.0935
 1681TIP3   OH226601   4.614   4.362   1.370  0.4325 -0.5098 -0.4685
 1681TIP3    H126602   4.659   4.280   1.352 -2.1914 -2.3109  0.6011
 1681TIP3    H226603   4.593   4.398   1.284 -1.4685 -2.8385 -1.0764
 1682TIP3   OH226604   0.307   2.970   8.153  0.5358 -0.3672 -0.3987
 1682TIP3    H126605   0.227   2.966   8.206 -0.4908  2.0131 -1.5884
 1682TIP3    H226606   0.317   2.881   8.119 -1.7123 -0.7434 -0.2887
 1683TIP3   OH226607   0.313   2.195   0.253  0.3417 -1.1793  0.3949
 1683TIP3    H126608   0.287   2.113   0.211 -0.6620 -0.5582 -0.2353
 1683TIP3    H226609   0.239   2.217   0.310  0.8793 -1.0361  1.0430
 1684TIP3   OH226610   5.764   3.950   1.503  0.1396 -0.3468 -0.3234
 1684TIP3    H126611   5.724   3.872   1.542 -0.8690 -0.2279 -1.0878
 1684TIP3    H226612   5.858   3.931   1.504  0.1347 -0.5212  1.7589
 1685TIP3   OH226613   0.217   2.480   7.395 -0.3185  0.1680  0.0155
 1685TIP3    H126614   0.148   2.418   7.373 -1.1284  0.4373  1.6486
 1685TIP3    H226615   0.171   2.562   7.412  0.8802  2.1801 -4.7547
 1686TIP3   OH226616   5.819   4.413   1.910 -0.3290 -0.1600  0.4439
 1686TIP3    H126617   5.844   4.493   1.864 -0.3328 -0.3689  0.0757
 1686TIP3    H226618   5.902   4.374   1.937 -0.3439  0.1522  0.9347
 1687TIP3   OH226619   4.336   0.488   6.939  0.6482  0.8368 -0.5226
 1687TIP3    H126620   4.407   0.514   6.998  0.9897 -0.0288 -0.5342
 1687TIP3    H226621   4.327   0.561   6.878  1.6258  0.9019 -0.6038
 1688TIP3   OH226622   2.262   6.533   1.074 -0.1406 -0.2600  0.7938
 1688TIP3    H126623   2.173   6.519   1.041 -0.5799  1.8489  0.9298
 1688TIP3    H226624   2.312   6.561   0.998  0.1278 -0.3621  0.9326
 1689TIP3   OH226625   1.723   5.805   0.170  0.0675  0.8043 -0.5725
 1689TIP3    H126626   1.808   5.778   0.136 -0.4238 -0.6197 -0.7643
 1689TIP3    H226627   1.736   5.814   0.264  0.3143  0.0579 -0.5276
 1690TIP3   OH226628   1.671   1.916   2.522 -0.1061  0.0225 -0.1291
 1690TIP3    H126629   1.661   1.933   2.616 -0.6869 -1.0016  0.0012
 1690TIP3    H226630   1.757   1.951   2.501  0.1530  0.0071  0.8473
 1691TIP3   OH226631   2.750   0.357   0.266 -0.7030 -0.0122 -0.0247
 1691TIP3    H126632   2.724   0.447   0.245  0.2676  0.0617 -0.9595
 1691TIP3    H226633   2.843   0.364   0.291 -0.7956 -0.6681  0.5394
 1692TIP3   OH226634   3.403   3.066   8.232 -0.1610 -0.5721 -0.2035
 1692TIP3    H126635   3.324   3.052   8.284 -0.8038  1.5600 -0.5086
 1692TIP3    H226636   3.395   3.008   8.157 -1.4628 -0.3710 -0.2319
 1693TIP3   OH226637   3.499   3.319   8.197 -0.4111  0.7070 -0.2296
 1693TIP3    H126638   3.417   3.365   8.181 -0.4706  0.3957 -0.8250
 1693TIP3    H226639   3.473   3.232   8.225 -0.2809  0.1885 -1.6842
 1694TIP3   OH226640   5.189   2.353   1.286 -0.2465  0.0609 -0.4192
 1694TIP3    H126641   5.130   2.366   1.211 -0.6483 -1.1007 -0.3158
 1694TIP3    H226642   5.266   2.311   1.248  1.1886  2.7677 -0.8040
 1695TIP3   OH226643   1.788   6.020   1.127 -0.8917  0.1469 -0.8438
 1695TIP3    H126644   1.863   5.984   1.173  0.5980  0.6006 -2.7582
 1695TIP3    H226645   1.717   5.957   1.142  0.1434 -0.7924  0.2243
 1696TIP3   OH226646   5.905   2.002   8.558 -0.2296  0.7853 -0.6816
 1696TIP3    H126647   5.813   2.008   8.535 -0.3182  0.8131 -0.3212
 1696TIP3    H226648   5.940   2.090   8.542 -0.6771  1.2800  0.9386
 1697TIP3   OH226649   2.669   4.820   7.356  0.2714 -0.0309 -0.3404
 1697TIP3    H126650   2.656   4.801   7.263  0.0386  0.5556 -0.4347
 1697TIP3    H226651   2.640   4.741   7.401 -1.3553  0.3264 -0.6814
 1698TIP3   OH226652   2.853   5.958   8.433  0.3527  0.2812  0.2678
 1698TIP3    H126653   2.857   5.974   8.527  1.0903 -1.0549  0.4888
 1698TIP3    H226654   2.914   5.885   8.418  0.0859  0.3268 -1.2084
 1699TIP3   OH226655   2.604   6.609   0.517 -0.0080  0.0425 -0.1648
 1699TIP3    H126656   2.625   6.558   0.595  0.0867 -0.3807 -0.4674
 1699TIP3    H226657   2.588   6.544   0.449  0.0593  0.4145 -0.5390
 1700TIP3   OH226658   4.281   5.305   0.941 -0.1628 -0.2482 -0.6582
 1700TIP3    H126659   4.286   5.328   1.034 -0.3034  0.5470 -0.8332
 1700TIP3    H226660   4.372   5.295   0.914 -0.1166 -0.3850 -0.4567
 1701TIP3   OH226661   2.389   0.715   8.331  0.2803 -0.1130  1.0008
 1701TIP3    H126662   2.322   0.698   8.265  0.7148 -1.3521  0.8517
 1701TIP3    H226663   2.356   0.790   8.380  0.6141  1.7902 -1.5048
 1702TIP3   OH226664   2.804   1.713   2.033  0.0142 -0.3497  0.0267
 1702TIP3    H126665   2.754   1.733   2.112  0.5011 -0.6307  0.4168
 1702TIP3    H226666   2.893   1.695   2.065 -0.0906 -1.8172 -0.4142
 1703TIP3   OH226667   5.894   1.780   8.225 -0.0332  0.3672  0.1933
 1703TIP3    H126668   5.908   1.686   8.231  2.9610  0.6305 -0.9884
 1703TIP3    H226669   5.802   1.792   8.248  0.2675 -2.4330  3.8667
 1704TIP3   OH226670   3.255   6.170   8.492 -0.2747 -0.2838  0.5765
 1704TIP3    H126671   3.335   6.209   8.527  0.9581 -0.4194 -1.8890
 1704TIP3    H226672   3.275   6.151   8.401 -3.0827 -0.4768 -0.1044
 1705TIP3   OH226673   1.500   4.516   7.291 -0.1499  0.3192 -0.5584
 1705TIP3    H126674   1.450   4.583   7.339  0.7817  0.6322 -0.0090
 1705TIP3    H226675   1.546   4.564   7.223  0.4017  0.2255 -0.2590
 1706TIP3   OH226676   2.716   0.203   7.001  0.1305 -0.2620  0.6125
 1706TIP3    H126677   2.629   0.213   7.038  0.3794 -1.0249  1.4323
 1706TIP3    H226678   2.717   0.263   6.926 -1.1034 -0.2759  0.5631
 1707TIP3   OH226679   3.436   2.067   8.046 -0.2689  0.0705  0.1879
 1707TIP3    H126680   3.470   2.102   8.128 -1.1729  0.6408  0.3398
 1707TIP3    H226681   3.348   2.105   8.038 -1.0053 -1.5433 -0.0171
 1708TIP3   OH226682   3.752   4.149   1.959  0.2253  0.4297  0.5451
 1708TIP3    H126683   3.689   4.088   1.920  0.7662  0.3662 -0.2464
 1708TIP3    H226684   3.751   4.126   2.052 -0.9460  0.4600  0.5601
 1709TIP3   OH226685   5.299   3.928   1.558 -0.5166 -0.0564  0.0341
 1709TIP3    H126686   5.360   3.988   1.601 -1.0095 -0.9351  2.0501
 1709TIP3    H226687   5.354   3.860   1.520 -0.1758 -0.3749  1.0767
 1710TIP3   OH226688   2.143   1.220   0.836  0.1939  0.2868 -0.4284
 1710TIP3    H126689   2.205   1.161   0.877 -1.4143  0.1947  2.0499
 1710TIP3    H226690   2.076   1.163   0.797 -1.6249  0.3028  2.3888
 1711TIP3   OH226691   6.266   6.294   7.441 -0.3723 -0.1849  0.0034
 1711TIP3    H126692   6.180   6.272   7.406  0.1921  1.5174 -2.7443
 1711TIP3    H226693   6.326   6.234   7.397  0.0475 -0.2555  0.6542
 1712TIP3   OH226694   5.877   0.096   1.282  0.0420 -0.1850  0.1177
 1712TIP3    H126695   5.857   0.189   1.271 -1.4949 -0.3926  0.9752
 1712TIP3    H226696   5.882   0.083   1.377  0.6121 -0.9101 -0.0012
 1713TIP3   OH226697   2.629   5.671   0.420 -0.3333  0.2071 -0.2311
 1713TIP3    H126698   2.576   5.685   0.498  1.3875  0.0682  1.0015
 1713TIP3    H226699   2.699   5.613   0.448  0.8836  0.9195 -1.6442
 1714TIP3   OH226700   5.573   4.915   0.465  0.5182 -0.1738  0.7994
 1714TIP3    H126701   5.504   4.958   0.415  0.8026  0.0439  0.5953
 1714TIP3    H226702   5.526   4.863   0.530  0.1575 -0.1304  0.5764
 1715TIP3   OH226703   1.569   5.923   6.814 -0.5276  0.5857 -0.3328
 1715TIP3    H126704   1.587   5.987   6.883 -1.4436 -0.0678  0.5331
 1715TIP3    H226705   1.623   5.952   6.740  1.8481  0.3402  1.1894
 1716TIP3   OH226706   1.827   6.762   0.566 -0.3561 -0.0746 -1.0175
 1716TIP3    H126707   1.792   6.754   0.477 -0.7487 -2.4745 -0.7102
 1716TIP3    H226708   1.908   6.711   0.564  0.1281  0.6417 -0.2200
 1717TIP3   OH226709   0.012   3.687   8.380 -0.3811  0.0253 -0.7620
 1717TIP3    H126710   0.026   3.759   8.440 -2.3522 -0.6701  0.6403
 1717TIP3    H226711  -0.072   3.706   8.337 -0.6154 -1.0944 -0.8502
 1718TIP3   OH226712   3.915   6.328   8.381 -0.6293  0.1796  0.6017
 1718TIP3    H126713   3.986   6.313   8.318  0.2172  0.9992  1.3267
 1718TIP3    H226714   3.919   6.253   8.440 -0.5990  0.0503  0.4378
 1719TIP3   OH226715   5.893   3.951   8.259 -0.1117  0.7277 -0.2882
 1719TIP3    H126716   5.978   3.957   8.303 -0.1273  0.5352 -0.2302
 1719TIP3    H226717   5.899   3.870   8.207 -0.4281  0.4634  0.0790
 1720TIP3   OH226718   0.269   6.219   1.562 -0.1300 -0.4961  0.9794
 1720TIP3    H126719   0.327   6.168   1.507 -0.9553  0.2264 -0.6585
 1720TIP3    H226720   0.181   6.190   1.538 -0.6342  1.6444 -0.0770
 1721TIP3   OH226721   0.459   3.434   0.175  0.4658 -0.5576 -0.1346
 1721TIP3    H126722   0.539   3.383   0.190  0.8129  0.0580  0.1827
 1721TIP3    H226723   0.471   3.474   0.089  1.5661  1.3791  0.8479
 1722TIP3   OH226724   3.176   4.572   1.014  0.1275  0.3709  0.0948
 1722TIP3    H126725   3.259   4.559   0.969 -0.2078 -0.5257 -0.2867
 1722TIP3    H226726   3.180   4.662   1.045  0.6255  0.8200 -1.1954
 1723TIP3   OH226727   1.884   1.069   8.134 -0.0260  0.4937 -0.6475
 1723TIP3    H126728   1.924   1.062   8.221 -1.3892  0.4956  0.0094
 1723TIP3    H226729   1.855   0.979   8.115 -1.2684  0.8026 -0.3113
 1724TIP3   OH226730   6.684   1.256   8.274  0.2543  0.0607  0.4047
 1724TIP3    H126731   6.731   1.340   8.277  1.0532 -0.3893  2.9971
 1724TIP3    H226732   6.603   1.272   8.322  0.3248 -0.5851  0.7490
 1725TIP3   OH226733   2.584   5.240   7.425  0.0606 -0.4909  0.2655
 1725TIP3    H126734   2.632   5.244   7.342  0.7515 -0.5978  0.6535
 1725TIP3    H226735   2.552   5.329   7.438 -0.2913 -0.5343 -0.2508
 1726TIP3   OH226736   5.485   5.357   0.812  0.0171 -0.0722  0.6814
 1726TIP3    H126737   5.515   5.283   0.864 -1.4456 -1.0489  0.2022
 1726TIP3    H226738   5.443   5.317   0.736 -0.1100  1.2790  0.0128
 1727TIP3   OH226739   3.322   3.414   6.847  0.4289  0.3363 -0.1171
 1727TIP3    H126740   3.230   3.399   6.870  1.0013 -1.1511  1.3579
 1727TIP3    H226741   3.325   3.506   6.821 -0.8610  1.4524  3.1646
 1728TIP3   OH226742   4.149   2.943   2.390 -0.1501  0.2284  0.3887
 1728TIP3    H126743   4.075   3.000   2.369  0.4820  0.6219 -0.8846
 1728TIP3    H226744   4.175   2.905   2.306  2.3760  1.6870  0.4029
 1729TIP3   OH226745   3.978   6.570   8.193 -0.0054  0.3028  0.3662
 1729TIP3    H126746   4.042   6.610   8.135 -1.3759 -0.2807 -1.6619
 1729TIP3    H226747   4.011   6.482   8.209 -0.5172 -0.2063 -1.1674
 1730TIP3   OH226748   3.841   4.891   2.165 -0.4368  0.3668 -0.6272
 1730TIP3    H126749   3.880   4.929   2.244 -2.9302 -1.6558  1.7964
 1730TIP3    H226750   3.892   4.812   2.149 -1.7831 -0.9204  1.0090
 1731TIP3   OH226751   2.420   0.727   0.056  0.2678  0.0798  0.5112
 1731TIP3    H126752   2.440   0.766  -0.029  0.7031  0.3106  0.7194
 1731TIP3    H226753   2.342   0.674   0.040 -0.3863  1.0823  0.2308
 1732TIP3   OH226754   3.557   2.446   2.202  0.3882 -0.2693 -0.2659
 1732TIP3    H126755   3.507   2.410   2.129  0.3885 -1.6661  0.3855
 1732TIP3    H226756   3.587   2.369   2.250  0.3584  0.6218  1.2274
 1733TIP3   OH226757   6.226   1.270   8.493  0.4428  0.2575 -0.0296
 1733TIP3    H126758   6.230   1.304   8.582  0.9098 -0.0582  0.0756
 1733TIP3    H226759   6.295   1.203   8.490 -0.5647 -0.8074 -0.1702
 1734TIP3   OH226760   5.002   0.169   1.277  0.1719  0.2769  0.2237
 1734TIP3    H126761   5.073   0.208   1.327  1.2116  1.2676 -1.8965
 1734TIP3    H226762   4.934   0.151   1.342  2.5339 -1.3326  2.4479
 1735TIP3   OH226763   5.061   1.894   2.155 -0.1248 -0.5016  0.3763
 1735TIP3    H126764   5.003   1.853   2.220 -1.9761 -0.0222 -0.9039
 1735TIP3    H226765   5.038   1.987   2.158 -0.4314 -0.5064 -1.1124
 1736TIP3   OH226766   4.650   6.311   0.980  0.3237  0.4567 -0.5292
 1736TIP3    H126767   4.719   6.367   0.944 -0.0683  0.4586 -1.2806
 1736TIP3    H226768   4.669   6.308   1.074  1.4219  0.3648 -0.7388
 1737TIP3   OH226769   3.998   0.603   7.400 -0.1194  0.0698 -0.4814
 1737TIP3    H126770   4.085   0.596   7.361  0.3163 -0.7792  0.5856
 1737TIP3    H226771   3.954   0.671   7.349  1.2211  0.6293 -0.9303
 1738TIP3   OH226772   6.116   6.573   8.381  0.5815  0.0938 -0.1050
 1738TIP3    H126773   6.030   6.604   8.407  0.2023 -0.6741 -0.3952
 1738TIP3    H226774   6.109   6.557   8.287  1.5376  1.5894 -0.4617
 1739TIP3   OH226775   6.039   6.397   1.082  0.4438 -0.2335 -0.3226
 1739TIP3    H126776   5.992   6.322   1.045 -1.1989  1.1233 -1.1236
 1739TIP3    H226777   6.128   6.388   1.050 -0.1246 -0.9676 -1.7631
 1740TIP3   OH226778   1.465   1.443   1.520  0.2605 -0.2540  0.1834
 1740TIP3    H126779   1.514   1.476   1.595 -0.0278 -0.7111  0.5796
 1740TIP3    H226780   1.414   1.370   1.555  0.4312 -0.7286 -0.5503
 1741TIP3   OH226781   5.257   0.688   2.260  0.0821  0.5232  0.1034
 1741TIP3    H126782   5.219   0.775   2.258  0.1464  0.6425  2.0361
 1741TIP3    H226783   5.188   0.630   2.228 -0.5746  1.1110  0.4256
 1742TIP3   OH226784   0.699   1.134   1.102 -0.0285 -0.0894 -0.0556
 1742TIP3    H126785   0.765   1.163   1.039 -0.3289 -2.5389 -1.6433
 1742TIP3    H226786   0.617   1.169   1.067 -0.1450 -1.1156 -0.8422
 1743TIP3   OH226787   6.834   1.145   0.545 -0.3068 -0.4360  0.0558
 1743TIP3    H126788   6.754   1.116   0.588  0.5564 -1.3420  1.0937
 1743TIP3    H226789   6.841   1.090   0.467 -0.9486  0.0011 -0.3215
 1744TIP3   OH226790   2.534   0.008   1.635  0.4795 -0.2812 -0.1046
 1744TIP3    H126791   2.486  -0.069   1.666  0.8506 -0.0705  1.0483
 1744TIP3    H226792   2.625  -0.020   1.631  0.5310 -0.0886 -0.3159
 1745TIP3   OH226793   4.598   4.702   1.850  0.2832  0.1674  0.2498
 1745TIP3    H126794   4.550   4.765   1.903 -1.0500  1.3883 -2.2217
 1745TIP3    H226795   4.556   4.618   1.868 -0.4166  0.6240  0.7960
 1746TIP3   OH226796   4.409   1.491   6.377 -0.3651  0.4246  0.5917
 1746TIP3    H126797   4.413   1.577   6.418 -0.9276 -0.0656  1.7127
 1746TIP3    H226798   4.475   1.439   6.423  0.1488  0.3187 -0.2491
 1747TIP3   OH226799   2.650   4.443   6.059  0.2840  0.2763 -0.2379
 1747TIP3    H126800   2.729   4.438   6.113  0.6935 -0.0726 -0.8532
 1747TIP3    H226801   2.654   4.528   6.016  0.1149  0.4278  0.0470
 1748TIP3   OH226802   2.624   6.466   0.792  0.4632 -0.0679 -0.0212
 1748TIP3    H126803   2.612   6.404   0.864 -1.4025 -0.1886 -0.3704
 1748TIP3    H226804   2.719   6.476   0.784  0.8383 -2.6478  0.2414
 1749TIP3   OH226805   3.987   6.317   7.237 -0.6593 -0.1025 -0.2503
 1749TIP3    H126806   4.065   6.278   7.196 -0.7776 -1.0206  0.3660
 1749TIP3    H226807   4.015   6.406   7.261  0.8809 -1.0325  1.7361
 1750TIP3   OH226808   3.014   3.963   6.954 -0.2502  0.0237 -0.2302
 1750TIP3    H126809   3.041   3.875   6.978 -0.5853 -0.6703 -2.2219
 1750TIP3    H226810   3.096   4.013   6.950  0.0734 -0.4932 -0.1952
 1751TIP3   OH226811   6.038   5.746   1.419 -0.2123 -0.5780 -0.1332
 1751TIP3    H126812   5.942   5.749   1.416 -0.2887 -1.1973  1.0567
 1751TIP3    H226813   6.062   5.818   1.477  0.1429  0.4168 -1.4715
 1752TIP3   OH226814   2.500   6.425   8.191  0.0275  0.6676 -0.0904
 1752TIP3    H126815   2.470   6.453   8.277  0.6577  1.0509  0.0080
 1752TIP3    H226816   2.429   6.370   8.158  0.4417 -0.8040  1.3344
 1753TIP3   OH226817   0.131   1.392   1.586 -0.2428  0.3086  0.7518
 1753TIP3    H126818   0.083   1.335   1.526  0.0430 -1.0542  1.7794
 1753TIP3    H226819   0.077   1.471   1.593 -2.1366 -0.9910  1.5189
 1754TIP3   OH226820   3.541   6.012   6.388 -0.2724 -0.1045 -0.0193
 1754TIP3    H126821   3.470   6.023   6.325 -0.3932  2.0550  0.4402
 1754TIP3    H226822   3.552   5.917   6.394 -0.9296 -0.4062 -2.4886
 1755TIP3   OH226823   1.730   5.889   2.196  0.3059 -0.0120  0.0015
 1755TIP3    H126824   1.818   5.898   2.232  0.8896  0.6046 -1.5110
 1755TIP3    H226825   1.709   5.976   2.162 -1.1404  0.0124  0.8616
 1756TIP3   OH226826   3.848   3.582   7.213  0.2192  0.4006  0.5568
 1756TIP3    H126827   3.809   3.636   7.281 -2.4900  0.2646 -0.7718
 1756TIP3    H226828   3.785   3.510   7.201  1.7015 -0.7613 -0.6009
 1757TIP3   OH226829   4.976   1.369   7.316 -0.0137 -0.0520  0.5388
 1757TIP3    H126830   5.061   1.361   7.359  0.5627  0.4068 -0.4849
 1757TIP3    H226831   4.952   1.279   7.295  0.6161 -0.1294  0.1089
 1758TIP3   OH226832   2.794   4.235   7.380  0.8615  0.3091  0.3025
 1758TIP3    H126833   2.801   4.176   7.455  1.2217 -0.2252 -0.1469
 1758TIP3    H226834   2.714   4.209   7.335  1.0538  0.1182  0.0679
 1759TIP3   OH226835   3.183   6.595   2.363 -0.0039  0.3111  0.0890
 1759TIP3    H126836   3.100   6.547   2.358 -0.1790  0.5681  0.5018
 1759TIP3    H226837   3.236   6.544   2.424 -0.5894  1.2139  1.4094
 1760TIP3   OH226838   0.533   0.285   7.359 -0.1626  0.4180 -0.5577
 1760TIP3    H126839   0.622   0.319   7.350  0.1870 -0.2842  0.0911
 1760TIP3    H226840   0.498   0.286   7.270  1.0668 -0.8210 -1.1004
 1761TIP3   OH226841   5.715   5.570   8.679 -0.8192 -0.3397  0.4115
 1761TIP3    H126842   5.693   5.535   8.765  1.9666  0.2636  1.4837
 1761TIP3    H226843   5.647   5.635   8.662 -1.1874 -0.1239  2.4116
 1762TIP3   OH226844   1.238   3.448   7.081  0.8829  0.8500 -0.1789
 1762TIP3    H126845   1.266   3.356   7.074  1.7080  0.8779  2.0786
 1762TIP3    H226846   1.194   3.466   6.997  1.5142 -1.3118 -1.0395
 1763TIP3   OH226847   3.162   5.747   7.922  0.3106  0.8084  0.1348
 1763TIP3    H126848   3.070   5.728   7.907 -0.0831  3.2131 -0.7993
 1763TIP3    H226849   3.179   5.829   7.875  3.1717 -0.0334 -0.5281
 1764TIP3   OH226850   2.236   1.967   1.650 -0.0631 -0.2827 -0.4728
 1764TIP3    H126851   2.258   2.018   1.728  0.2239 -0.5868 -0.3554
 1764TIP3    H226852   2.296   1.999   1.582 -1.4226  1.1798 -1.0502
 1765TIP3   OH226853   6.004   2.434   6.199 -0.4376  0.5332  0.5098
 1765TIP3    H126854   6.014   2.419   6.293  0.1370  3.1358  0.9385
 1765TIP3    H226855   5.987   2.347   6.162  0.4927 -0.7222  2.8545
 1766TIP3   OH226856   3.943   0.393   7.195 -0.0659  0.1235  0.1166
 1766TIP3    H126857   3.916   0.476   7.233  0.7770  0.1068  0.7652
 1766TIP3    H226858   3.972   0.340   7.269 -1.0260 -0.9328 -0.2220
 1767TIP3   OH226859   1.377   4.789   0.264  0.1312  0.4159  0.4619
 1767TIP3    H126860   1.378   4.737   0.345 -1.4569  0.6547  0.6780
 1767TIP3    H226861   1.444   4.749   0.209  0.7868 -0.1694  1.6463
 1768TIP3   OH226862   1.804   2.197   1.216  0.6119  0.4990 -0.0300
 1768TIP3    H126863   1.749   2.194   1.294  0.4663 -0.3927 -0.1531
 1768TIP3    H226864   1.787   2.114   1.171  0.1970  1.2798 -1.3568
 1769TIP3   OH226865   6.562   0.305   6.317  0.3771  0.4219  0.3250
 1769TIP3    H126866   6.569   0.388   6.364 -0.0728  0.8126 -0.2743
 1769TIP3    H226867   6.491   0.259   6.361  0.3877  0.5091  0.4354
 1770TIP3   OH226868   3.089   4.384   8.318 -0.2265 -0.5440  0.1214
 1770TIP3    H126869   3.026   4.421   8.255  0.9708  0.0029 -0.7874
 1770TIP3    H226870   3.140   4.460   8.347  1.1904 -1.2114 -0.5269
 1771TIP3   OH226871   4.288   5.374   0.670  0.8350 -0.3174 -0.2506
 1771TIP3    H126872   4.286   5.323   0.751  1.0498 -1.7714 -1.1328
 1771TIP3    H226873   4.220   5.440   0.681  0.4718 -0.8640  0.8769
 1772TIP3   OH226874   4.899   6.369   6.825 -0.7124 -0.5619  0.1303
 1772TIP3    H126875   4.827   6.331   6.876 -1.3575  0.5049  0.0455
 1772TIP3    H226876   4.975   6.365   6.884 -0.9928 -1.1058  0.4584
 1773TIP3   OH226877   5.255   2.347   6.794 -0.1865  0.1231  0.6258
 1773TIP3    H126878   5.186   2.283   6.783 -0.1937 -0.0247  1.4535
 1773TIP3    H226879   5.216   2.430   6.766 -0.1118 -0.2397 -0.6367
 1774TIP3   OH226880   4.423   5.374   8.573  0.4403  0.1945 -0.3448
 1774TIP3    H126881   4.460   5.459   8.550  0.9060  0.0411 -0.1792
 1774TIP3    H226882   4.492   5.311   8.552  0.8268  0.0353  1.2603
 1775TIP3   OH226883   3.627   3.832   7.651  0.4326  0.0121  0.2526
 1775TIP3    H126884   3.600   3.900   7.712  1.1368 -0.7078  1.3935
 1775TIP3    H226885   3.547   3.811   7.602 -0.6738 -0.7684  2.2772
 1776TIP3   OH226886   3.512   4.743   8.483  0.4393  0.3228  0.0398
 1776TIP3    H126887   3.485   4.783   8.400 -0.0997  0.0643  0.0864
 1776TIP3    H226888   3.462   4.791   8.549 -0.6288 -0.7495  0.0604
 1777TIP3   OH226889   3.795   0.308   2.688 -0.0543  1.0554  0.1596
 1777TIP3    H126890   3.769   0.399   2.676 -1.2334  0.6848 -0.2602
 1777TIP3    H226891   3.736   0.258   2.632 -0.6765 -0.1212  1.7573
 1778TIP3   OH226892   0.260   6.779   1.475 -0.2925  0.8185  0.2859
 1778TIP3    H126893   0.237   6.861   1.431  0.4628 -0.3691 -2.5196
 1778TIP3    H226894   0.282   6.719   1.404 -2.0673 -2.2612  2.1067
 1779TIP3   OH226895   3.406   5.586   8.364  0.6730 -0.0046 -0.7181
 1779TIP3    H126896   3.500   5.594   8.379  1.0484 -0.2374 -2.7139
 1779TIP3    H226897   3.379   5.674   8.337  0.1507  0.2403  0.5240
 1780TIP3   OH226898   5.303   3.036   1.754 -0.6457 -0.1673 -0.4239
 1780TIP3    H126899   5.389   2.999   1.774 -0.7177 -0.5218 -0.7601
 1780TIP3    H226900   5.242   2.986   1.809 -0.7984 -0.8854 -1.2295
 1781TIP3   OH226901   1.807   3.109   0.575 -0.2260  0.3108 -0.1508
 1781TIP3    H126902   1.872   3.105   0.505 -0.5379  2.4226 -0.6119
 1781TIP3    H226903   1.839   3.048   0.641  0.9292 -0.5048 -1.4138
 1782TIP3   OH226904   1.745   0.622   6.382 -0.4407 -0.2804  0.4476
 1782TIP3    H126905   1.766   0.642   6.473  1.2958  0.0282  0.0101
 1782TIP3    H226906   1.780   0.695   6.332 -1.3767 -0.4475 -0.4953
 1783TIP3   OH226907   3.672   3.816   1.197 -0.1317  0.3972 -0.1853
 1783TIP3    H126908   3.758   3.857   1.207 -0.6670  1.2522  1.1436
 1783TIP3    H226909   3.691   3.723   1.186  0.9192  0.2693  2.1419
 1784TIP3   OH226910   0.141   2.065   2.239 -0.1959  0.0593 -0.4696
 1784TIP3    H126911   0.236   2.055   2.228 -0.1222  0.0171  0.1459
 1784TIP3    H226912   0.125   2.042   2.331 -0.4366  2.5030  0.1944
 1785TIP3   OH226913   2.302   2.294   7.407 -0.4378 -0.3287 -0.0663
 1785TIP3    H126914   2.249   2.292   7.486  0.7601  1.6979  0.8662
 1785TIP3    H226915   2.388   2.262   7.435  0.0246  0.5023 -0.5040
 1786TIP3   OH226916   6.303   4.388   2.359  0.3924  0.1929 -0.4597
 1786TIP3    H126917   6.254   4.469   2.347  1.1044  0.9324  1.3214
 1786TIP3    H226918   6.247   4.335   2.416  0.8809  0.3104  0.1278
 1787TIP3   OH226919   2.645   4.211   0.607 -0.8536  0.3884 -0.7638
 1787TIP3    H126920   2.644   4.237   0.699 -0.7712  0.4174 -0.7708
 1787TIP3    H226921   2.706   4.273   0.566  0.5934 -0.7790 -0.4852
 1788TIP3   OH226922   2.454   0.211   0.325  0.7154  0.2417 -0.4762
 1788TIP3    H126923   2.459   0.255   0.240  0.5874 -1.2055 -1.2700
 1788TIP3    H226924   2.416   0.126   0.305  1.9172 -0.6464  0.8491
 1789TIP3   OH226925   6.730   4.945   0.896  1.1051 -0.0238 -0.5582
 1789TIP3    H126926   6.785   4.867   0.902  1.8025  0.5651  2.6241
 1789TIP3    H226927   6.775   5.010   0.951 -1.6947  1.1253  0.5751
 1790TIP3   OH226928   4.055   4.932   1.196  0.0868  0.2320  0.0635
 1790TIP3    H126929   4.051   5.005   1.133  0.5362 -0.3430 -0.6443
 1790TIP3    H226930   4.028   4.971   1.279 -1.5648  0.7831 -0.6829
 1791TIP3   OH226931   1.238   2.743   0.813  0.0546  0.1093 -0.7578
 1791TIP3    H126932   1.296   2.769   0.742 -1.2948  1.4073 -1.4206
 1791TIP3    H226933   1.291   2.683   0.866  1.8648  0.9670 -1.5237
 1792TIP3   OH226934   3.456   4.547   7.374 -0.2408 -0.0447  0.4742
 1792TIP3    H126935   3.468   4.597   7.293 -0.0108 -0.5942  0.1626
 1792TIP3    H226936   3.404   4.471   7.347 -0.1251 -0.2534  0.8376
 1793TIP3   OH226937   3.853   6.471   2.019  0.3680  0.3331 -0.2993
 1793TIP3    H126938   3.939   6.459   1.979  0.2951  1.1193 -0.7071
 1793TIP3    H226939   3.850   6.564   2.042 -0.2974  0.2698 -0.1174
 1794TIP3   OH226940   0.256   5.035   8.055  0.2368 -0.0613 -0.2259
 1794TIP3    H126941   0.304   5.078   7.984 -0.7806  1.6141  0.0460
 1794TIP3    H226942   0.323   5.018   8.122  1.0092 -0.7027 -1.1435
 1795TIP3   OH226943   5.656   6.712   1.642 -0.0981 -0.2330 -0.2138
 1795TIP3    H126944   5.742   6.755   1.649 -0.2055  1.0497 -4.3466
 1795TIP3    H226945   5.673   6.632   1.593 -1.0070 -1.1280  0.8814
 1796TIP3   OH226946   2.015   2.076   6.672  0.0477 -0.5945 -0.0361
 1796TIP3    H126947   2.098   2.078   6.720 -0.9889  2.9659  2.0262
 1796TIP3    H226948   2.021   2.150   6.612 -2.2482  1.0358  1.5782
 1797TIP3   OH226949   2.189   2.679   1.096 -0.3994  0.0503 -0.3568
 1797TIP3    H126950   2.128   2.745   1.128 -0.6690 -0.6717  0.6742
 1797TIP3    H226951   2.207   2.705   1.006 -1.9012  0.5207 -0.5536
 1798TIP3   OH226952   6.193   1.326   0.734 -0.5007 -0.5598 -0.5084
 1798TIP3    H126953   6.183   1.253   0.674  0.1827 -1.2347  0.1858
 1798TIP3    H226954   6.144   1.300   0.813  0.0329 -0.4228 -0.1282
 1799TIP3   OH226955   4.519   0.067   8.077 -0.3303 -0.3797  0.1197
 1799TIP3    H126956   4.485  -0.013   8.119  1.4770 -1.2410  0.0150
 1799TIP3    H226957   4.579   0.035   8.011 -1.5445  1.0343 -1.7622
 1800TIP3   OH226958   0.084   0.857   8.662  0.6852 -0.2250  0.2046
 1800TIP3    H126959   0.001   0.826   8.627  0.6283  1.2898 -1.0901
 1800TIP3    H226960   0.125   0.903   8.589  1.4839  1.2890  1.5491
 1801TIP3   OH226961   3.916   1.578   0.100 -0.1060 -0.4961 -0.2751
 1801TIP3    H126962   3.970   1.527   0.039 -0.3144 -0.4641 -0.4865
 1801TIP3    H226963   3.888   1.515   0.166 -1.4108 -0.9477 -1.2261
 1802TIP3   OH226964   5.536   5.419   2.199  0.1341  0.4864 -0.4976
 1802TIP3    H126965   5.515   5.508   2.171  0.7275  1.4011  1.7204
 1802TIP3    H226966   5.483   5.407   2.278  0.4802 -0.9397 -0.4640
 1803TIP3   OH226967   6.065   3.079   0.805  0.1870  0.4873  0.2449
 1803TIP3    H126968   6.120   3.043   0.736  0.7709  0.3789  0.7566
 1803TIP3    H226969   6.008   3.006   0.829  0.4039  0.3349  0.3022
 1804TIP3   OH226970   5.322   0.256   8.578  0.0476  0.2903  0.3196
 1804TIP3    H126971   5.299   0.195   8.509  0.0350  1.5220 -0.8087
 1804TIP3    H226972   5.265   0.332   8.564  1.7554  1.6232  0.0918
 1805TIP3   OH226973   5.251   3.732   1.792 -0.3118 -0.1819  0.1887
 1805TIP3    H126974   5.281   3.797   1.728 -1.9324 -0.5276 -1.0043
 1805TIP3    H226975   5.230   3.783   1.870  3.0033  0.0890  1.0295
 1806TIP3   OH226976   4.524   3.991   7.238 -0.0715 -0.8711 -0.1124
 1806TIP3    H126977   4.610   3.960   7.266 -0.2653  0.0120  1.5555
 1806TIP3    H226978   4.524   4.084   7.257 -1.6120 -0.9597  0.5076
 1807TIP3   OH226979   3.597   0.984   0.767  0.7031  0.1437 -0.0695
 1807TIP3    H126980   3.602   0.908   0.709  0.7717 -0.7509  1.0724
 1807TIP3    H226981   3.687   1.015   0.774  0.5564  0.9025 -1.2385
 1808TIP3   OH226982   2.378   4.411   6.104 -0.2373 -0.2393 -0.4862
 1808TIP3    H126983   2.466   4.416   6.065 -0.1231 -1.8731 -0.5037
 1808TIP3    H226984   2.372   4.489   6.159  1.2596 -0.1317 -0.4291
 1809TIP3   OH226985   4.124   5.337   7.270 -0.2997 -0.7748  0.3260
 1809TIP3    H126986   4.035   5.351   7.239 -0.5390 -3.6688 -0.5772
 1809TIP3    H226987   4.170   5.297   7.196  1.7428  0.4635  0.8310
 1810TIP3   OH226988   3.725   2.855   0.659 -0.3939  0.9502  0.3583
 1810TIP3    H126989   3.749   2.820   0.573 -0.8161  1.9335 -0.1831
 1810TIP3    H226990   3.795   2.918   0.679  0.3041 -0.0876  1.2683
 1811TIP3   OH226991   3.115   4.590   7.136 -0.6693 -0.4195 -0.4288
 1811TIP3    H126992   3.149   4.576   7.048 -0.4730 -3.6933  0.0541
 1811TIP3    H226993   3.128   4.507   7.181 -0.4908  1.1843  2.8394
 1812TIP3   OH226994   6.100   4.263   2.487 -0.1850  0.3381 -0.3789
 1812TIP3    H126995   6.097   4.184   2.540 -1.0138  0.2231 -0.5804
 1812TIP3    H226996   6.008   4.292   2.482 -0.1696  0.2210 -1.9161
 1813TIP3   OH226997   1.808   3.790   2.563 -0.2800  0.3257  0.1553
 1813TIP3    H126998   1.746   3.787   2.491  1.4654  0.1247 -1.4287
 1813TIP3    H226999   1.779   3.722   2.623  0.1958 -2.0900 -2.1464
 1814TIP3   OH227000   2.884   0.739   7.989  0.2349  0.7275  0.2012
 1814TIP3    H127001   2.795   0.708   7.971  0.2110  0.5151  0.6773
 1814TIP3    H227002   2.873   0.833   8.005  0.4148  1.1941 -2.0408
 1815TIP3   OH227003   6.352   6.383   8.213  0.1169  0.6558  0.1075
 1815TIP3    H127004   6.422   6.435   8.254 -0.6833  2.5119 -0.7731
 1815TIP3    H227005   6.309   6.339   8.286 -1.2035  3.7802  1.3986
 1816TIP3   OH227006   0.775   4.021   1.314 -0.5582  0.1214 -0.1971
 1816TIP3    H127007   0.716   4.090   1.283 -2.3714 -1.5000 -0.5442
 1816TIP3    H227008   0.812   4.056   1.395 -0.8769  1.7456 -0.6995
 1817TIP3   OH227009   4.669   3.017   6.323  0.2440 -0.3879 -0.2404
 1817TIP3    H127010   4.741   2.958   6.302  0.3679 -0.3130 -0.0248
 1817TIP3    H227011   4.710   3.091   6.368  0.0381 -0.3247 -0.1545
 1818TIP3   OH227012   2.694   2.315   7.868  0.5352  0.1001 -0.5423
 1818TIP3    H127013   2.730   2.379   7.929  0.3334  0.5921 -0.9267
 1818TIP3    H227014   2.709   2.230   7.910 -0.0784  0.4554  0.4287
 1819TIP3   OH227015   0.318   5.228   1.781  0.3865 -0.3241 -0.5725
 1819TIP3    H127016   0.341   5.320   1.788  1.2479 -0.5918  0.3265
 1819TIP3    H227017   0.305   5.199   1.871  0.5134 -1.1782 -0.8190
 1820TIP3   OH227018   3.047   0.100   8.546 -0.5461  0.3554 -0.4162
 1820TIP3    H127019   3.121   0.160   8.551  0.4623 -0.8260 -0.5650
 1820TIP3    H227020   2.981   0.139   8.603  0.7347  0.7312  0.8775
 1821TIP3   OH227021   5.404   0.192   7.163 -0.1452 -0.1879  0.1636
 1821TIP3    H127022   5.445   0.276   7.183  0.2833 -0.1078 -1.0217
 1821TIP3    H227023   5.373   0.200   7.073 -1.9989 -0.5638  0.7366
 1822TIP3   OH227024   2.809   5.911   7.263 -0.6990  0.2305  0.3334
 1822TIP3    H127025   2.837   5.886   7.351  0.7822  0.3219 -0.0901
 1822TIP3    H227026   2.833   5.836   7.209  0.5227  1.0884 -0.3572
 1823TIP3   OH227027   1.258   0.896   0.414  0.7212 -0.4667 -0.2998
 1823TIP3    H127028   1.219   0.984   0.408  1.7040  0.0689  0.7089
 1823TIP3    H227029   1.299   0.882   0.329 -1.6719 -1.0948 -1.4466
 1824TIP3   OH227030   3.969   3.721   0.559 -0.9157  0.4941 -0.1695
 1824TIP3    H127031   3.979   3.814   0.539 -0.1031  0.5025  0.2471
 1824TIP3    H227032   3.936   3.719   0.648  0.3561  0.3693  0.3127
 1825TIP3   OH227033   5.564   0.461   8.037  0.4821  0.0112 -0.1375
 1825TIP3    H127034   5.545   0.540   7.986 -0.8124  0.4095  0.9154
 1825TIP3    H227035   5.645   0.481   8.083  2.5175 -0.8854 -3.0239
 1826TIP3   OH227036   5.292   2.413   7.856  0.0909 -0.1416 -0.2915
 1826TIP3    H127037   5.295   2.341   7.793 -0.8714  0.4488 -1.0512
 1826TIP3    H227038   5.199   2.418   7.880  0.4103 -0.2277  1.0468
 1827TIP3   OH227039   3.405   3.527   7.265  0.2174  0.5010 -0.1203
 1827TIP3    H127040   3.395   3.567   7.178  0.6749  0.5848 -0.1369
 1827TIP3    H227041   3.318   3.534   7.305 -0.0359  0.3275 -0.6303
 1828TIP3   OH227042   2.781   5.751   1.513  0.7283 -0.1694 -0.2161
 1828TIP3    H127043   2.785   5.656   1.526 -0.7732 -0.3208 -0.6177
 1828TIP3    H227044   2.855   5.786   1.564  1.1826 -1.5280  0.0981
 1829TIP3   OH227045   3.083   3.149   0.105 -0.0771  0.2598  0.5995
 1829TIP3    H127046   3.172   3.181   0.124  0.1648  1.6168 -2.2906
 1829TIP3    H227047   3.090   3.053   0.112  2.2308  0.1656 -1.4687
 1830TIP3   OH227048   6.500   2.313   7.384  0.2840 -0.4817 -0.0495
 1830TIP3    H127049   6.591   2.287   7.395 -0.6215 -3.7483  0.8966
 1830TIP3    H227050   6.463   2.247   7.325 -0.9641  2.2287 -2.5523
 1831TIP3   OH227051   1.805   3.953   1.288 -0.0264  0.3897 -0.0074
 1831TIP3    H127052   1.750   3.875   1.286 -0.8948  0.8266  2.6561
 1831TIP3    H227053   1.894   3.920   1.282 -0.3450 -0.8954  1.6836
 1832TIP3   OH227054   2.021   6.662   0.247 -0.1135  0.0596 -0.2362
 1832TIP3    H127055   1.932   6.690   0.267  0.0884 -0.3889  1.4403
 1832TIP3    H227056   2.022   6.650   0.152 -2.0430 -0.5836 -0.2182
 1833TIP3   OH227057   6.725   3.015   6.551  0.2960 -0.1724  0.6814
 1833TIP3    H127058   6.700   3.094   6.503  2.0112  0.0372  0.0972
 1833TIP3    H227059   6.696   2.943   6.495  1.0097  0.0642 -0.0073
 1834TIP3   OH227060   2.486   0.904   7.962  0.1539 -0.2590  0.2432
 1834TIP3    H127061   2.497   0.958   7.884  0.0292  1.3577  1.2947
 1834TIP3    H227062   2.396   0.872   7.957  0.1551 -0.1813 -0.2790
 1835TIP3   OH227063   6.573   3.920   6.551  0.0659  0.2566 -0.1408
 1835TIP3    H127064   6.573   3.999   6.497 -0.6804  1.9122  2.1121
 1835TIP3    H227065   6.666   3.897   6.558  0.4856  2.0054  0.5672
 1836TIP3   OH227066   0.632   3.385   1.319  0.2388 -0.1681 -0.1960
 1836TIP3    H127067   0.718   3.411   1.285 -0.2379 -0.7175 -1.8898
 1836TIP3    H227068   0.594   3.332   1.250 -2.1747  1.4544 -0.2210
 1837TIP3   OH227069   3.110   0.035   6.941 -0.4357 -0.5757 -0.3490
 1837TIP3    H127070   3.121  -0.057   6.962 -0.1918 -0.5839 -0.5106
 1837TIP3    H227071   3.193   0.061   6.899 -0.7394 -0.4478 -0.8838
 1838TIP3   OH227072   6.043   2.873   6.256  0.3994 -0.7437 -0.0172
 1838TIP3    H127073   5.951   2.849   6.260 -0.2426  0.9660 -2.3604
 1838TIP3    H227074   6.087   2.796   6.221 -0.4869 -0.9384 -0.7445
 1839TIP3   OH227075   4.574   2.806   6.602  0.5411 -0.7092  0.3402
 1839TIP3    H127076   4.593   2.766   6.517  0.4466 -2.3603  1.0564
 1839TIP3    H227077   4.597   2.898   6.591  2.2574 -1.2341 -0.9296
 1840TIP3   OH227078   6.623   5.859   1.195  0.0918 -0.0692 -0.0978
 1840TIP3    H127079   6.594   5.775   1.160  0.5898 -0.0008 -0.6963
 1840TIP3    H227080   6.587   5.862   1.284  1.6890 -1.8261  0.7059
 1841TIP3   OH227081   2.908   5.927   8.058  0.1356  0.4995  0.4504
 1841TIP3    H127082   2.977   5.966   8.004  1.6817 -1.7033  0.7247
 1841TIP3    H227083   2.919   5.969   8.144  0.9088  0.4318  0.3921
 1842TIP3   OH227084   1.420   1.335   0.151 -0.0547  0.3317  0.1793
 1842TIP3    H127085   1.390   1.366   0.237 -0.2475  1.0649 -0.1429
 1842TIP3    H227086   1.470   1.256   0.171 -2.3933 -1.1135  0.7226
 1843TIP3   OH227087   4.956   5.850   8.456  0.3474  0.2042 -0.2221
 1843TIP3    H127088   4.969   5.755   8.453  2.0252  0.4335 -1.2068
 1843TIP3    H227089   4.914   5.871   8.372 -0.7020  0.2671  0.3009
 1844TIP3   OH227090   5.939   2.181   6.102 -0.1797  0.2462  0.2092
 1844TIP3    H127091   5.914   2.155   6.191 -1.1859  0.0458 -0.1158
 1844TIP3    H227092   5.903   2.112   6.046 -1.4236  1.4477 -0.5313
 1845TIP3   OH227093   1.861   5.059   8.248  0.4025  0.0869 -0.0508
 1845TIP3    H127094   1.789   4.998   8.266  2.3534 -2.6535 -0.9823
 1845TIP3    H227095   1.828   5.114   8.176 -1.1214 -0.3686  0.2675
 1846TIP3   OH227096   5.208   2.593   8.216  0.3110  0.4558 -0.8045
 1846TIP3    H127097   5.166   2.668   8.258  2.6948  3.0655 -2.7115
 1846TIP3    H227098   5.156   2.576   8.139  0.4735  1.0422 -1.0489
 1847TIP3   OH227099   2.070   4.865   8.196 -0.1791  0.0311  0.0743
 1847TIP3    H127100   2.145   4.906   8.153  0.6673 -0.1839  1.2827
 1847TIP3    H227101   2.004   4.934   8.200  0.3196  0.5278 -0.1139
 1848TIP3   OH227102   2.038   2.887   1.158 -0.2069  0.5094  0.4070
 1848TIP3    H127103   2.034   2.907   1.251  0.0051 -2.2383  1.0822
 1848TIP3    H227104   1.947   2.893   1.128 -0.2917  1.2606  0.7906
 1849TIP3   OH227105   5.670   6.203   0.147 -0.5778 -0.3009  0.0427
 1849TIP3    H127106   5.646   6.230   0.235 -0.5886  1.3098 -0.4287
 1849TIP3    H227107   5.596   6.150   0.117 -0.6939 -0.6284  0.8867
 1850TIP3   OH227108   4.993   5.985   1.307  0.1509 -0.1174  0.0429
 1850TIP3    H127109   4.946   6.023   1.233 -2.3772 -1.9419  0.5989
 1850TIP3    H227110   4.960   5.896   1.314  0.3410 -0.0659  3.2971
 1851TIP3   OH227111   3.507   1.643   1.254  0.4853  0.4233  0.6955
 1851TIP3    H127112   3.480   1.637   1.163  1.4010 -0.0287  0.4402
 1851TIP3    H227113   3.427   1.665   1.302 -0.5533 -1.7812  0.1029
 1852TIP3   OH227114   1.071   1.900   8.716 -0.0623  0.0093  0.0533
 1852TIP3    H127115   1.126   1.964   8.762  1.1827  0.1755 -1.6079
 1852TIP3    H227116   1.123   1.820   8.713 -0.6069 -0.3499 -0.0780
 1853TIP3   OH227117   5.572   3.209   1.674 -0.0790 -0.1862 -0.1325
 1853TIP3    H127118   5.620   3.221   1.756  0.0200 -0.5029 -0.1418
 1853TIP3    H227119   5.587   3.117   1.651 -0.6563 -0.2835 -0.1527
 1854TIP3   OH227120   0.899   5.177   2.211 -0.2073  0.3159 -0.1730
 1854TIP3    H127121   0.819   5.134   2.240  0.3215 -0.2423  0.4748
 1854TIP3    H227122   0.945   5.111   2.159  0.8821 -0.1394  1.3085
 1855TIP3   OH227123   5.377   3.233   8.101  0.8116 -0.0787 -0.3672
 1855TIP3    H127124   5.350   3.157   8.049 -0.4778  1.7294 -2.4856
 1855TIP3    H227125   5.440   3.279   8.046  0.5454  1.1008  0.2806
 1856TIP3   OH227126   2.793   5.585   2.206 -0.1791 -0.2070  0.3470
 1856TIP3    H127127   2.867   5.642   2.228 -0.3497  0.2570 -0.2708
 1856TIP3    H227128   2.716   5.642   2.209 -0.0483  0.4089 -3.2152
 1857TIP3   OH227129   0.438   3.162   1.825 -0.1870 -0.4674  0.4743
 1857TIP3    H127130   0.517   3.110   1.838 -0.7697 -1.1489  1.3977
 1857TIP3    H227131   0.385   3.109   1.765  0.4318  0.4269 -0.9124
 1858TIP3   OH227132   3.187   1.803   6.696  0.1387 -0.2242 -0.1606
 1858TIP3    H127133   3.159   1.837   6.611 -0.1130 -0.4382 -0.1649
 1858TIP3    H227134   3.118   1.831   6.757 -0.4629 -1.3526 -0.2956
 1859TIP3   OH227135   1.343   4.606   1.379 -0.1609 -0.0347 -0.2807
 1859TIP3    H127136   1.406   4.675   1.358  0.4598  0.3479  2.4593
 1859TIP3    H227137   1.334   4.557   1.297  2.8452  0.5849 -1.1348
 1860TIP3   OH227138   4.089   2.008   8.444 -0.8204 -0.3943 -0.1274
 1860TIP3    H127139   4.015   2.033   8.389 -1.6923 -0.8542  0.8099
 1860TIP3    H227140   4.141   1.949   8.390 -0.4382  0.9126 -1.2414
 1861TIP3   OH227141   5.542   1.189   1.077  0.5216 -0.6190 -0.2463
 1861TIP3    H127142   5.614   1.150   1.027  0.6273  1.2524 -1.6813
 1861TIP3    H227143   5.585   1.235   1.148  0.6776 -0.3456 -0.5132
 1862TIP3   OH227144   1.655   1.501   1.717  0.6305 -0.4896 -0.6369
 1862TIP3    H127145   1.639   1.578   1.771  0.3767 -1.0021  0.0342
 1862TIP3    H227146   1.749   1.504   1.699  0.6505 -0.1157 -0.4829
 1863TIP3   OH227147   6.414   1.740   7.622 -0.7461 -0.2077 -0.2755
 1863TIP3    H127148   6.459   1.757   7.704  0.4321 -2.1352 -0.4619
 1863TIP3    H227149   6.322   1.731   7.646 -0.7570  1.4176  0.4631
 1864TIP3   OH227150   0.415   4.639   1.067 -0.2451  0.6205  0.5131
 1864TIP3    H127151   0.481   4.597   1.122 -0.2379 -1.2656 -0.8299
 1864TIP3    H227152   0.331   4.614   1.105 -0.2282 -0.2461  0.0148
 1865TIP3   OH227153   2.980   0.049   8.263 -0.1084 -0.8770 -0.2878
 1865TIP3    H127154   3.033   0.041   8.342 -1.3766 -2.3901  0.4802
 1865TIP3    H227155   2.953   0.141   8.261  1.5115 -0.3756 -0.0434
 1866TIP3   OH227156   2.934   5.144   0.293  0.1638  0.1751 -0.0194
 1866TIP3    H127157   2.940   5.084   0.367 -1.6233  1.1150  0.9483
 1866TIP3    H227158   2.962   5.229   0.328  0.5677  0.3680 -0.7831
 1867TIP3   OH227159   0.698   5.803   8.243 -0.2074  0.9359  0.1473
 1867TIP3    H127160   0.740   5.765   8.166 -0.7398  0.6598 -0.0175
 1867TIP3    H227161   0.614   5.756   8.249 -0.3018  1.1767  0.7091
 1868TIP3   OH227162   5.548   2.589   8.711 -0.2101 -0.3223  0.1912
 1868TIP3    H127163   5.509   2.675   8.698  2.9829  1.2204 -0.1672
 1868TIP3    H227164   5.628   2.591   8.657 -1.5642 -4.7644 -2.5108
 1869TIP3   OH227165   3.066   3.630   7.724 -0.0403 -0.5176 -0.3836
 1869TIP3    H127166   3.076   3.679   7.806 -2.4412 -0.8867  0.2240
 1869TIP3    H227167   3.114   3.549   7.738  1.5941  0.4347 -0.3049
 1870TIP3   OH227168   0.221   3.096   1.046 -0.2695 -0.1034 -0.3990
 1870TIP3    H127169   0.196   3.082   1.138  0.6552  0.8851  0.0334
 1870TIP3    H227170   0.251   3.187   1.043 -1.5188  0.2945 -1.9897
 1871TIP3   OH227171   0.192   0.633   7.545  0.1323 -0.4156  0.0988
 1871TIP3    H127172   0.213   0.551   7.500  0.7236 -1.0550  1.4906
 1871TIP3    H227173   0.097   0.642   7.533  0.0627 -1.2780 -0.1110
 1872TIP3   OH227174   6.067   6.329   6.931 -0.6958  0.4806  0.2189
 1872TIP3    H127175   5.991   6.369   6.972 -1.0583 -0.9221  0.9631
 1872TIP3    H227176   6.098   6.395   6.869 -1.8197  1.5235  0.7269
 1873TIP3   OH227177   0.431   6.408   8.495 -0.1097 -0.3506 -0.5795
 1873TIP3    H127178   0.415   6.437   8.405 -0.6051  2.1097  0.2300
 1873TIP3    H227179   0.525   6.395   8.499  0.2947  2.0699 -0.8234
 1874TIP3   OH227180   3.577   1.746   8.605 -0.1738 -0.1236  0.3702
 1874TIP3    H127181   3.492   1.777   8.638  0.7443  1.2336  1.5857
 1874TIP3    H227182   3.642   1.797   8.654  1.3950 -1.9753  0.3368
 1875TIP3   OH227183   6.061   3.571   1.751 -1.0513  0.1383  0.5183
 1875TIP3    H127184   6.134   3.539   1.699 -1.5100  0.3172 -0.2580
 1875TIP3    H227185   6.048   3.505   1.819 -0.1778  0.1070  0.6585
 1876TIP3   OH227186   0.512   4.183   7.161 -0.0550 -0.0469  0.1372
 1876TIP3    H127187   0.560   4.106   7.129 -0.2880 -0.0514 -0.2076
 1876TIP3    H227188   0.573   4.226   7.222  1.0585  0.8694 -1.5425
 1877TIP3   OH227189   1.559   0.589   7.110  0.4027  0.1000  0.1841
 1877TIP3    H127190   1.488   0.547   7.158  1.5047 -0.3995  1.4452
 1877TIP3    H227191   1.616   0.517   7.083  1.5331  0.6349  1.0631
 1878TIP3   OH227192   0.252   5.785   0.271 -0.5156  0.1159 -0.2103
 1878TIP3    H127193   0.216   5.707   0.314  1.4026 -0.6384  0.1277
 1878TIP3    H227194   0.223   5.858   0.326 -2.8281 -0.2176 -0.8464
 1879TIP3   OH227195   1.221   6.005   6.950 -0.0660 -0.2126  0.1082
 1879TIP3    H127196   1.278   5.944   6.904 -1.1287 -0.3138 -1.1503
 1879TIP3    H227197   1.256   6.009   7.039  2.0579 -0.0092 -0.6868
 1880TIP3   OH227198   3.307   4.597   8.003 -0.0962 -0.0442 -0.6886
 1880TIP3    H127199   3.301   4.642   8.088  2.3188  0.1266 -0.5431
 1880TIP3    H227200   3.278   4.508   8.021  1.7872 -0.4347  0.7515
 1881TIP3   OH227201   6.321   3.840   1.345  0.0358  0.1174  0.7718
 1881TIP3    H127202   6.412   3.839   1.315  0.0187 -0.1732  0.7314
 1881TIP3    H227203   6.295   3.748   1.346 -0.2241  0.1923  0.8875
 1882TIP3   OH227204   6.273   0.832   0.199  0.3922  0.1076  0.2166
 1882TIP3    H127205   6.249   0.905   0.256 -2.2597  0.3071 -1.0065
 1882TIP3    H227206   6.225   0.757   0.235 -0.2571 -0.0523 -0.9397
 1883TIP3   OH227207   6.264   1.016   1.356  0.7063 -0.2862 -0.0340
 1883TIP3    H127208   6.319   0.949   1.397  1.5617 -0.2109 -0.9931
 1883TIP3    H227209   6.237   0.977   1.272  0.9038  0.4070 -0.4335
 1884TIP3   OH227210   6.588   4.369   8.657  0.0951  0.3917 -0.1163
 1884TIP3    H127211   6.671   4.363   8.704 -0.1511  1.0241  0.4072
 1884TIP3    H227212   6.612   4.367   8.565  0.4983 -2.6514 -0.0717
 1885TIP3   OH227213   3.331   3.527   0.907 -0.3568  0.1855 -0.0351
 1885TIP3    H127214   3.362   3.517   0.997  2.7013  0.4839 -0.9469
 1885TIP3    H227215   3.365   3.450   0.861 -2.8559 -0.5829 -0.7818
 1886TIP3   OH227216   2.461   6.030   8.117  0.1411 -0.2034  0.4821
 1886TIP3    H127217   2.472   5.996   8.206  0.7949 -0.6896  0.2270
 1886TIP3    H227218   2.539   6.000   8.071  0.8606  1.8162  0.2867
 1887TIP3   OH227219   1.237   1.816   2.038 -0.3719  0.4772 -0.3564
 1887TIP3    H127220   1.207   1.831   2.127 -2.1098 -0.1962 -0.7819
 1887TIP3    H227221   1.259   1.723   2.035  0.2567  0.6221 -0.4879
 1888TIP3   OH227222   4.378   4.162   1.476 -0.5790  0.2258 -0.2571
 1888TIP3    H127223   4.297   4.204   1.504  1.0624  2.6447  1.2650
 1888TIP3    H227224   4.392   4.193   1.387 -0.6432  0.8861 -0.0365
 1889TIP3   OH227225   1.421   5.627   8.378 -0.3606 -0.8938 -0.4417
 1889TIP3    H127226   1.361   5.615   8.451 -1.1451  0.3837 -0.8364
 1889TIP3    H227227   1.434   5.539   8.343 -0.5674 -1.4220  0.7597
 1890TIP3   OH227228   0.732   0.445   0.219 -0.1917  0.1011 -0.3014
 1890TIP3    H127229   0.775   0.367   0.255 -0.7319 -0.8202 -1.5811
 1890TIP3    H227230   0.730   0.429   0.125 -1.5268  1.0601 -0.4533
 1891TIP3   OH227231   0.588   5.427   1.290 -0.7213 -0.1904  0.9319
 1891TIP3    H127232   0.603   5.508   1.338  0.7801 -0.0288  0.2605
 1891TIP3    H227233   0.494   5.425   1.274 -0.5776  2.6593 -1.0725
 1892TIP3   OH227234   0.668   3.446   0.437  0.3029 -0.1200  0.3547
 1892TIP3    H127235   0.593   3.461   0.495  0.4431 -1.1534  0.8163
 1892TIP3    H227236   0.643   3.370   0.384 -0.3119  1.4775 -1.8184
 1893TIP3   OH227237   1.291   3.925   2.282 -0.0965  0.2961  1.0121
 1893TIP3    H127238   1.321   3.954   2.196  0.2048  1.9821  1.6384
 1893TIP3    H227239   1.292   4.005   2.335 -1.8633 -0.3866  2.1432
 1894TIP3   OH227240   3.267   5.896   8.549  0.2394  0.1610 -0.1660
 1894TIP3    H127241   3.274   5.989   8.569 -0.9299  0.6168 -1.6484
 1894TIP3    H227242   3.356   5.870   8.523  0.6190  0.7945  0.4793
 1895TIP3   OH227243   6.133   2.046   2.128  0.1637 -0.1220  0.1740
 1895TIP3    H127244   6.047   2.007   2.146 -0.2173  1.8250  3.4483
 1895TIP3    H227245   6.163   2.003   2.048 -4.1294 -0.4364 -1.5429
 1896TIP3   OH227246   0.601   6.403   6.924  0.2448 -0.2049  0.3430
 1896TIP3    H127247   0.670   6.460   6.890  0.9878 -0.3714  1.5203
 1896TIP3    H227248   0.569   6.448   7.002  0.0679 -0.8566  0.6522
 1897TIP3   OH227249   5.748   5.996   0.347  0.2610 -0.2565  0.9667
 1897TIP3    H127250   5.680   5.956   0.294  1.0648 -0.1617 -0.1706
 1897TIP3    H227251   5.705   6.068   0.393 -0.4016 -0.2234  0.2990
 1898TIP3   OH227252   1.644   2.541   8.020 -0.2852 -0.2309  0.5922
 1898TIP3    H127253   1.567   2.581   7.980  0.8010  0.9129 -0.4606
 1898TIP3    H227254   1.624   2.536   8.113 -1.6970 -0.1442  0.3065
 1899TIP3   OH227255   1.393   1.734   0.490 -0.2879 -0.5270 -0.1796
 1899TIP3    H127256   1.388   1.642   0.465  1.4234 -0.4622 -0.8729
 1899TIP3    H227257   1.436   1.734   0.576 -0.9421 -0.4104  0.1524
 1900TIP3   OH227258   3.279   1.114   7.533  0.0029 -0.2590 -0.1100
 1900TIP3    H127259   3.332   1.074   7.602 -2.7630  0.1346  2.4310
 1900TIP3    H227260   3.243   1.039   7.485 -0.2935 -0.6347  0.6875
 1901TIP3   OH227261   2.036   6.394   0.931  0.5732 -0.6459  0.0716
 1901TIP3    H127262   1.970   6.351   0.984 -0.4404 -1.3625 -1.6911
 1901TIP3    H227263   2.020   6.487   0.943 -2.4002 -0.7298 -2.1072
 1902TIP3   OH227264   3.619   4.582   6.883  0.2707 -0.2009  0.5981
 1902TIP3    H127265   3.697   4.534   6.909  0.7399  0.3262  0.1906
 1902TIP3    H227266   3.556   4.515   6.859 -0.0016 -0.7082  2.5255
 1903TIP3   OH227267   5.362   4.437   7.085 -0.5123 -0.3645 -0.2830
 1903TIP3    H127268   5.432   4.374   7.070  1.0342  1.4084 -0.9588
 1903TIP3    H227269   5.311   4.436   7.005 -0.4312 -0.6880 -0.3319
 1904TIP3   OH227270   4.959   0.921   7.574 -0.4418 -0.7337 -0.4943
 1904TIP3    H127271   4.962   0.867   7.653 -0.0534 -1.3026 -0.8884
 1904TIP3    H227272   5.046   0.962   7.569 -0.5038 -0.6082 -0.5672
 1905TIP3   OH227273   0.809   3.922   7.953  0.4004 -0.0915 -0.3485
 1905TIP3    H127274   0.850   3.908   7.867 -0.5230 -0.1141 -0.8045
 1905TIP3    H227275   0.747   3.850   7.962 -0.2368  0.4668 -0.1272
 1906TIP3   OH227276   0.407   0.019   1.182  0.2073 -0.3800 -0.2581
 1906TIP3    H127277   0.377   0.087   1.243  2.0109  0.0045  0.2537
 1906TIP3    H227278   0.351   0.030   1.104 -0.0605  1.1756  0.1244
 1907TIP3   OH227279   3.895   5.767   2.746 -0.3938  0.0530 -0.2147
 1907TIP3    H127280   3.873   5.708   2.819  0.4402  0.4242  0.3542
 1907TIP3    H227281   3.923   5.709   2.676  0.2739 -0.2550  0.2921
 1908TIP3   OH227282   4.722   4.957   0.737 -0.4523  0.0738 -0.0209
 1908TIP3    H127283   4.710   4.878   0.685 -0.4487  0.0219  0.0566
 1908TIP3    H227284   4.723   5.028   0.673  3.7828 -0.2766 -0.6654
 1909TIP3   OH227285   0.200   4.108   0.588 -0.4993  0.5301 -0.0199
 1909TIP3    H127286   0.224   4.016   0.582  0.1693  0.5843  1.4946
 1909TIP3    H227287   0.106   4.110   0.573 -0.3211 -0.2142 -1.4583
 1910TIP3   OH227288   4.191   4.989   1.898  0.3732 -0.5330  0.0214
 1910TIP3    H127289   4.192   4.948   1.984  0.3587 -1.9076 -0.6051
 1910TIP3    H227290   4.101   4.979   1.867  0.3943 -0.1062 -0.1849
 1911TIP3   OH227291   3.308   2.782   7.742 -0.3186  0.3450  0.7537
 1911TIP3    H127292   3.402   2.796   7.746 -0.3207  2.0807 -2.0303
 1911TIP3    H227293   3.298   2.689   7.724  0.9332  0.2921  0.2368
 1912TIP3   OH227294   4.657   0.125   1.496 -0.1012  0.1147  0.3307
 1912TIP3    H127295   4.678   0.071   1.572 -1.7922  0.8957  1.3994
 1912TIP3    H227296   4.697   0.210   1.515  0.7577 -0.1167 -0.3742
 1913TIP3   OH227297   4.748   2.561   6.625 -0.6179  0.6389 -0.2438
 1913TIP3    H127298   4.814   2.628   6.639  0.0195 -0.5479  3.4160
 1913TIP3    H227299   4.667   2.609   6.609  0.6872  2.1210 -3.4346
 1914TIP3   OH227300   0.140   1.470   8.539 -0.3161 -0.5706  0.1485
 1914TIP3    H127301   0.194   1.507   8.608  1.8774 -0.1724 -1.6553
 1914TIP3    H227302   0.079   1.539   8.516 -0.0908 -0.1785  0.7178
 1915TIP3   OH227303   4.565   2.529   8.103  0.4697  0.1511  0.7897
 1915TIP3    H127304   4.541   2.571   8.185  1.5209 -0.0589  1.2194
 1915TIP3    H227305   4.624   2.591   8.060 -1.3716  1.0194 -0.6300
 1916TIP3   OH227306   2.892   4.087   7.825  0.0335 -0.5654 -0.7729
 1916TIP3    H127307   2.979   4.125   7.825 -0.0524 -0.2888  1.2006
 1916TIP3    H227308   2.838   4.150   7.777  0.3720  0.6582  0.3974
 1917TIP3   OH227309   6.473   2.246   6.825  0.4311 -1.0685  0.2864
 1917TIP3    H127310   6.565   2.260   6.806  0.0448  1.2010 -0.1622
 1917TIP3    H227311   6.427   2.282   6.749 -0.9228  1.4836  2.1810
 1918TIP3   OH227312   6.232   5.023   0.881  0.1093 -0.3176 -0.3588
 1918TIP3    H127313   6.236   5.117   0.893 -0.2613 -0.4412  0.9154
 1918TIP3    H227314   6.324   4.994   0.883  0.2529  0.0450 -1.2125
 1919TIP3   OH227315   3.497   0.696   1.042  0.3254  0.8479 -0.2189
 1919TIP3    H127316   3.483   0.790   1.039 -1.3050  0.7050  1.1438
 1919TIP3    H227317   3.449   0.667   1.120 -1.2355 -1.4217 -1.9041
 1920TIP3   OH227318   2.732   6.592   7.755  0.3418 -0.0204  0.0433
 1920TIP3    H127319   2.794   6.655   7.717  0.4817 -0.0454  0.2257
 1920TIP3    H227320   2.726   6.619   7.847  0.2534 -0.1561  0.0762
 1921TIP3   OH227321   1.946   3.387   1.206 -0.0189  0.5713  0.4745
 1921TIP3    H127322   1.912   3.463   1.254 -0.6758  1.1464 -0.8570
 1921TIP3    H227323   1.894   3.313   1.240 -1.7626  1.2468 -0.6003
 1922TIP3   OH227324   3.106   5.307   0.733  0.2807 -1.1071 -0.2581
 1922TIP3    H127325   3.111   5.384   0.676 -1.8462 -0.0429  0.8557
 1922TIP3    H227326   3.014   5.280   0.729  0.3331 -1.7591  1.6838
 1923TIP3   OH227327   6.369   0.340   0.330  0.4983 -0.0222  0.6365
 1923TIP3    H127328   6.383   0.371   0.420 -0.5652 -1.0386  1.1873
 1923TIP3    H227329   6.280   0.304   0.332 -0.3564  1.7689 -1.3627
 1924TIP3   OH227330   5.610   3.301   7.952  0.2065 -0.0212 -0.2254
 1924TIP3    H127331   5.609   3.360   8.027 -1.4119  0.3331 -0.4771
 1924TIP3    H227332   5.697   3.311   7.914  0.0070  2.1799 -0.2162
 1925TIP3   OH227333   4.587   3.024   1.722  0.1423 -0.0534 -0.4090
 1925TIP3    H127334   4.596   3.064   1.636  0.0445 -0.5934 -0.6771
 1925TIP3    H227335   4.527   2.951   1.708 -0.4708  0.3073  0.2728
 1926TIP3   OH227336   0.360   0.472   0.543  0.9383 -0.2637 -0.6807
 1926TIP3    H127337   0.282   0.419   0.560  1.5964 -0.9319  0.3986
 1926TIP3    H227338   0.383   0.454   0.452  0.2130 -0.5548 -0.8121
 1927TIP3   OH227339   4.002   2.747   7.319 -0.1218  0.8220 -0.4999
 1927TIP3    H127340   3.983   2.786   7.404 -0.6198  0.9646 -0.6737
 1927TIP3    H227341   3.993   2.818   7.257  0.2393  0.7173 -0.6753
 1928TIP3   OH227342   3.961   5.672   2.112  0.6755  0.1106  0.4044
 1928TIP3    H127343   4.051   5.640   2.118  0.0218 -1.7188  1.2555
 1928TIP3    H227344   3.947   5.721   2.193  0.2465 -1.5607  1.3971
 1929TIP3   OH227345   3.316   4.036   7.358  0.1598  0.1696  0.5207
 1929TIP3    H127346   3.331   4.119   7.403  1.7001  1.6278 -2.3882
 1929TIP3    H227347   3.236   4.049   7.307  0.1387 -0.3184  0.4207
 1930TIP3   OH227348   1.369   0.058   7.046 -0.5627  0.2378  0.3417
 1930TIP3    H127349   1.294   0.097   7.000 -0.2026  0.3353 -0.1787
 1930TIP3    H227350   1.418   0.133   7.079 -0.2779  0.2036  0.0011
 1931TIP3   OH227351   3.624   2.604   0.610  0.3744  0.2212  0.0554
 1931TIP3    H127352   3.698   2.558   0.650  2.6659  2.0821 -1.7418
 1931TIP3    H227353   3.625   2.690   0.652 -0.4486  0.4324 -0.3537
 1932TIP3   OH227354   3.133   2.852   7.047  0.5048  0.3597 -0.0590
 1932TIP3    H127355   3.119   2.908   7.123 -0.2558  0.1546 -0.0492
 1932TIP3    H227356   3.195   2.902   6.993  1.0547  0.5040  0.6818
 1933TIP3   OH227357   6.787   5.296   0.478  0.1246 -0.2878 -0.3047
 1933TIP3    H127358   6.758   5.284   0.387  2.6879  2.0980 -1.5845
 1933TIP3    H227359   6.718   5.349   0.518 -1.1023 -1.4812 -0.7608
 1934TIP3   OH227360   5.437   1.827   1.103  0.4180 -0.1884  0.8333
 1934TIP3    H127361   5.424   1.740   1.065 -0.6574  0.4228 -0.2320
 1934TIP3    H227362   5.351   1.867   1.103  0.6668  0.4321  2.5076
 1935TIP3   OH227363   1.152   3.284   6.410  0.0457 -0.0383  0.0603
 1935TIP3    H127364   1.239   3.257   6.438 -0.7131 -0.9713  1.6082
 1935TIP3    H227365   1.153   3.379   6.417  0.9685 -0.0327 -0.0405
 1936TIP3   OH227366   3.293   2.743   0.366  0.2436 -0.3901  0.2063
 1936TIP3    H127367   3.354   2.744   0.293  0.7847 -1.2212  0.6214
 1936TIP3    H227368   3.316   2.664   0.415 -1.2381 -0.7949  0.3136
 1937TIP3   OH227369   0.818   5.723   7.089 -0.6591  0.1646  0.1025
 1937TIP3    H127370   0.866   5.642   7.106  0.6580  0.7211 -0.8515
 1937TIP3    H227371   0.851   5.753   7.005 -2.9083  0.4203 -0.7535
 1938TIP3   OH227372   3.656   0.888   8.509  0.1046  0.5905 -0.0574
 1938TIP3    H127373   3.563   0.876   8.528 -0.1120  2.3416  0.1311
 1938TIP3    H227374   3.663   0.881   8.414 -0.1134 -0.0510 -0.0358
 1939TIP3   OH227375   2.002   0.949   8.362 -0.1612 -0.5805  0.1447
 1939TIP3    H127376   2.085   0.985   8.331 -0.8640  1.1717  0.1638
 1939TIP3    H227377   2.020   0.919   8.451  0.7796 -1.5534 -0.3487
 1940TIP3   OH227378   3.344   0.985   8.369 -0.0700  0.0548  0.3087
 1940TIP3    H127379   3.365   1.064   8.419 -0.0806  1.4074 -1.7116
 1940TIP3    H227380   3.263   1.007   8.322  0.2943 -0.9014 -0.8140
 1941TIP3   OH227381   2.077   2.442   0.662  0.0365 -0.2195 -0.6976
 1941TIP3    H127382   2.014   2.464   0.731  0.1150  1.1489 -1.0345
 1941TIP3    H227383   2.108   2.355   0.685  1.2338  0.7819  1.8847
 1942TIP3   OH227384   4.534   3.479   6.835  0.0773  0.0466  0.5103
 1942TIP3    H127385   4.473   3.448   6.902  0.5311  1.3105  1.5521
 1942TIP3    H227386   4.621   3.459   6.870  0.2937 -0.9005 -0.5331
 1943TIP3   OH227387   3.221   0.711   2.150  0.4982 -0.0102 -0.3909
 1943TIP3    H127388   3.133   0.733   2.180  1.0532  1.2460  0.4138
 1943TIP3    H227389   3.266   0.679   2.229  1.4987  1.8075 -0.1754
 1944TIP3   OH227390   5.487   0.172   0.904  0.9298  0.1716 -0.6945
 1944TIP3    H127391   5.556   0.230   0.872  0.5994  0.5826 -0.6756
 1944TIP3    H227392   5.527   0.122   0.975  1.1031  0.6659 -0.4437
 1945TIP3   OH227393   6.014   4.169   1.652  0.0913  0.2457 -0.0691
 1945TIP3    H127394   5.924   4.162   1.619 -0.9516 -1.5741  2.8190
 1945TIP3    H227395   6.044   4.079   1.659  2.1093  0.8215 -0.7317
 1946TIP3   OH227396   1.068   3.799   0.925  0.4482 -0.1373  0.1258
 1946TIP3    H127397   1.063   3.709   0.894 -0.1406  0.1109 -0.5163
 1946TIP3    H227398   1.001   3.805   0.993  1.3132 -0.5067  1.0407
 1947TIP3   OH227399   5.098   2.582   6.738 -0.1526 -0.6163 -0.5162
 1947TIP3    H127400   5.152   2.633   6.798 -0.7328 -2.3313  1.5618
 1947TIP3    H227401   5.028   2.641   6.711  0.6073  0.4445 -0.2066
 1948TIP3   OH227402   2.909   5.086   1.520 -0.5345 -0.2298 -0.1803
 1948TIP3    H127403   2.898   5.165   1.573 -1.5780 -0.0332 -0.6482
 1948TIP3    H227404   2.926   5.119   1.431  0.2393 -0.5444 -0.1545
 1949TIP3   OH227405   6.751   0.277   7.668  0.0295 -0.8367 -0.3861
 1949TIP3    H127406   6.740   0.322   7.752 -1.0704  0.9827 -1.4263
 1949TIP3    H227407   6.687   0.320   7.610  2.7243  0.0174 -2.9605
 1950TIP3   OH227408   6.188   2.260   7.431  0.0769 -0.3672 -0.5268
 1950TIP3    H127409   6.144   2.198   7.489 -1.0103  1.4801  0.7343
 1950TIP3    H227410   6.239   2.315   7.489 -0.7055  1.2861 -1.3323
 1951TIP3   OH227411   2.824   1.955   7.208 -0.5400 -0.0332 -0.2407
 1951TIP3    H127412   2.756   1.892   7.233  0.2584 -1.1448 -0.8096
 1951TIP3    H227413   2.778   2.039   7.201 -1.7409 -0.6671 -0.0943
 1952TIP3   OH227414   2.413   2.547   7.472 -0.4947  0.3756  0.5798
 1952TIP3    H127415   2.497   2.517   7.437 -0.8068  1.7117 -1.4780
 1952TIP3    H227416   2.350   2.482   7.443 -0.8168  1.6769 -1.8873
 1953TIP3   OH227417   0.918   6.477   8.704  0.0066  0.4863 -0.3626
 1953TIP3    H127418   1.007   6.514   8.708 -0.1420  0.9238 -0.9462
 1953TIP3    H227419   0.922   6.400   8.761  1.9010 -1.8384 -3.3294
 1954TIP3   OH227420   2.259   4.490   1.056  0.1635 -0.8213  0.0347
 1954TIP3    H127421   2.236   4.468   1.146  0.4023 -0.4631  0.1899
 1954TIP3    H227422   2.352   4.515   1.061 -0.3124  1.1239  0.0653
 1955TIP3   OH227423   2.093   3.590   6.186 -0.1402  0.0330  0.4123
 1955TIP3    H127424   2.086   3.572   6.280  1.3899  0.7853  0.7113
 1955TIP3    H227425   2.182   3.622   6.175  0.0308 -0.9716 -1.4771
 1956TIP3   OH227426   1.603   4.655   7.059 -0.2839 -0.0285 -0.2241
 1956TIP3    H127427   1.635   4.687   6.974 -0.9855  0.9543 -0.1334
 1956TIP3    H227428   1.633   4.720   7.122 -1.1222  0.0773  0.0696
 1957TIP3   OH227429   0.491   2.927   1.483  0.2282 -0.4716  0.4052
 1957TIP3    H127430   0.434   2.968   1.548  0.1919 -0.7647  0.5643
 1957TIP3    H227431   0.572   2.978   1.485 -0.5769  0.9058 -0.9344
 1958TIP3   OH227432   1.065   4.357   8.336  0.2668  0.1540 -0.2228
 1958TIP3    H127433   1.019   4.279   8.305  0.7844  0.3265 -1.5097
 1958TIP3    H227434   1.147   4.324   8.373  0.1528  0.0359 -0.0741
 1959TIP3   OH227435   3.034   6.396   7.078 -0.0871  0.1135 -0.6578
 1959TIP3    H127436   3.107   6.353   7.034  0.1405 -0.4241  0.2105
 1959TIP3    H227437   3.068   6.418   7.165 -0.9586 -0.1601 -0.2380
 1960TIP3   OH227438   1.418   5.953   8.284 -0.5424 -0.2639  0.3812
 1960TIP3    H127439   1.483   5.955   8.214 -0.0491  1.4261  0.8358
 1960TIP3    H227440   1.435   5.870   8.329 -0.4716 -1.0903 -1.1030
 1961TIP3   OH227441   6.683   4.762   6.932 -1.1819  0.4705 -0.1943
 1961TIP3    H127442   6.727   4.680   6.956 -1.4616  0.4151  0.1362
 1961TIP3    H227443   6.591   4.746   6.951 -1.3616  0.5541 -0.9790
 1962TIP3   OH227444   6.506   2.967   8.269  0.2666  0.4157  0.4089
 1962TIP3    H127445   6.486   2.895   8.329 -1.6379  0.6271  0.0890
 1962TIP3    H227446   6.422   3.013   8.258  1.2134  2.0902 -0.1768
 1963TIP3   OH227447   3.033   1.746   8.113  0.1436 -0.2362  0.5418
 1963TIP3    H127448   3.102   1.689   8.078 -0.7848 -0.7919 -0.4260
 1963TIP3    H227449   2.987   1.692   8.176 -1.2784 -0.8975 -0.9934
 1964TIP3   OH227450   0.817   1.763   7.025 -0.6442 -0.6877  0.1184
 1964TIP3    H127451   0.834   1.828   6.957  0.4318 -2.9146 -1.8690
 1964TIP3    H227452   0.873   1.791   7.098  0.0462  0.4448 -0.7917
 1965TIP3   OH227453   0.077   2.156   1.033 -0.0241 -0.3477 -0.0171
 1965TIP3    H127454   0.054   2.225   1.095 -0.9408  1.7101 -2.4538
 1965TIP3    H227455   0.147   2.194   0.980  1.4534 -2.4224  0.3403
 1966TIP3   OH227456   2.935   3.430   8.543 -0.7706  0.5991  0.4074
 1966TIP3    H127457   2.889   3.466   8.618 -0.4592  1.6273  0.1150
 1966TIP3    H227458   3.014   3.484   8.535 -0.5200  0.1389 -0.3128
 1967TIP3   OH227459   5.563   4.218   2.213 -0.0024  0.7333 -0.1024
 1967TIP3    H127460   5.596   4.241   2.300  0.0727  0.5326 -0.0773
 1967TIP3    H227461   5.494   4.154   2.229  0.3084  0.3693 -0.2165
 1968TIP3   OH227462   6.167   3.400   6.720  0.2663 -0.1543 -0.1423
 1968TIP3    H127463   6.193   3.467   6.784  2.5079 -2.9785  2.2185
 1968TIP3    H227464   6.072   3.394   6.729  0.2350  1.4069  0.9499
 1969TIP3   OH227465   4.039   6.766   1.205 -0.1724  0.0548 -0.1508
 1969TIP3    H127466   3.958   6.716   1.199 -0.5520  0.7290 -1.0921
 1969TIP3    H227467   4.010   6.858   1.203  0.5027  0.3253  1.4842
 1970TIP3   OH227468   5.413   1.207   7.695 -0.0737 -0.1634 -0.2005
 1970TIP3    H127469   5.475   1.139   7.722  2.6248  1.2595 -2.2311
 1970TIP3    H227470   5.455   1.289   7.723 -0.2749  0.9336 -2.8174
 1971TIP3   OH227471   5.384   2.652   8.438  0.5029  0.0166  0.4806
 1971TIP3    H127472   5.479   2.643   8.441  0.5119 -1.0501 -1.6069
 1971TIP3    H227473   5.360   2.622   8.351 -1.9927 -1.9223  1.7151
 1972TIP3   OH227474   0.902   2.680   0.081  1.0256  0.0985 -0.4176
 1972TIP3    H127475   0.858   2.765   0.091 -1.7331 -1.4649  2.0779
 1972TIP3    H227476   0.858   2.639   0.007  0.1174 -0.3498  0.3447
 1973TIP3   OH227477   2.994   1.686   7.734  0.0310  0.2073 -0.3230
 1973TIP3    H127478   2.945   1.636   7.799  1.1745  0.3605  0.6891
 1973TIP3    H227479   2.999   1.774   7.770  1.5881  0.0445 -0.0746
 1974TIP3   OH227480   2.229   0.068   1.133 -0.2211 -0.1393  0.4513
 1974TIP3    H127481   2.274   0.017   1.199 -0.2856 -0.9804 -0.1413
 1974TIP3    H227482   2.296   0.084   1.066 -0.1176  0.8229  0.7655
 1975TIP3   OH227483   5.675   0.862   8.248 -0.3225  0.4920 -0.2927
 1975TIP3    H127484   5.660   0.875   8.342  0.1806 -0.3060 -0.0963
 1975TIP3    H227485   5.770   0.862   8.239 -0.3522 -0.3070 -0.6696
 1976TIP3   OH227486   0.941   4.512   8.130 -0.6466  0.1926  0.0466
 1976TIP3    H127487   0.978   4.495   8.216 -0.8358  0.6387  0.2195
 1976TIP3    H227488   0.866   4.453   8.123 -0.4221 -0.0934  0.0440
 1977TIP3   OH227489   6.607   3.344   2.336 -0.3960  0.2343  0.3111
 1977TIP3    H127490   6.549   3.274   2.366 -2.0269  1.5043  0.2486
 1977TIP3    H227491   6.668   3.357   2.408  0.2655 -1.5691  0.1261
 1978TIP3   OH227492   3.077   5.388   0.275 -0.3512 -0.4837  0.4169
 1978TIP3    H127493   3.139   5.317   0.259 -0.1297 -0.3308  0.5865
 1978TIP3    H227494   3.125   5.449   0.331 -0.7058 -0.4304  0.6635
 1979TIP3   OH227495   2.180   1.433   8.137 -0.4852  0.4019 -0.1056
 1979TIP3    H127496   2.093   1.460   8.107  0.5197  4.4128 -0.0783
 1979TIP3    H227497   2.167   1.407   8.229 -1.7998 -0.2004 -0.4464
 1980TIP3   OH227498   0.935   2.478   8.400  0.0580 -0.2548  0.4194
 1980TIP3    H127499   0.962   2.391   8.371 -2.1000 -0.9929  0.3763
 1980TIP3    H227500   1.016   2.528   8.409  1.2096 -1.6228 -1.5991
 1981TIP3   OH227501   6.802   5.636   0.609  0.1384  0.4506  0.1781
 1981TIP3    H127502   6.864   5.639   0.682  1.1424 -1.6436 -0.5136
 1981TIP3    H227503   6.858   5.631   0.531 -0.8255 -2.1783 -0.4273
 1982TIP3   OH227504   4.717   0.464   7.978  0.2696 -0.1028 -0.2618
 1982TIP3    H127505   4.766   0.388   7.947 -0.8034 -0.5175 -1.0119
 1982TIP3    H227506   4.678   0.436   8.060  0.7240 -0.0037 -0.0109
 1983TIP3   OH227507   6.630   3.676   8.231  0.0083 -0.0787  0.1730
 1983TIP3    H127508   6.539   3.678   8.262  0.2769  3.5419  1.2692
 1983TIP3    H227509   6.626   3.714   8.143  0.4606  0.5827  0.4238
 1984TIP3   OH227510   3.820   3.743   1.608 -0.2182 -0.3504 -0.4379
 1984TIP3    H127511   3.746   3.692   1.573 -0.0251 -0.2439 -0.9992
 1984TIP3    H227512   3.894   3.683   1.602 -0.2041 -0.3659 -0.1134
 1985TIP3   OH227513   5.029   6.134   1.002 -0.2654  0.2301 -0.2272
 1985TIP3    H127514   5.007   6.179   0.920 -2.2862  1.0654  0.7123
 1985TIP3    H227515   4.948   6.090   1.028  0.8262 -1.4641  0.4714
 1986TIP3   OH227516   6.596   4.335   7.612 -0.4943  0.1630  0.2898
 1986TIP3    H127517   6.553   4.420   7.600 -2.3466 -0.8740 -0.7327
 1986TIP3    H227518   6.620   4.334   7.705 -0.7509  1.6484  0.4036
 1987TIP3   OH227519   2.186   5.133   1.080 -0.5661  0.1526  0.1632
 1987TIP3    H127520   2.166   5.118   0.988 -1.3013  0.1819  0.3074
 1987TIP3    H227521   2.174   5.227   1.092 -0.7158  0.1129  0.3398
 1988TIP3   OH227522   6.706   2.319   7.112 -0.4015 -0.3311  0.3184
 1988TIP3    H127523   6.638   2.253   7.108 -0.4230 -0.3678  1.2035
 1988TIP3    H227524   6.704   2.361   7.026 -0.7861 -1.0755 -0.0374
 1989TIP3   OH227525   6.237   0.991   0.893 -0.6390  0.3372  0.5099
 1989TIP3    H127526   6.210   0.947   0.974 -0.1699 -0.0144  0.4814
 1989TIP3    H227527   6.322   1.030   0.914  0.3571 -1.2825 -0.3171
 1990TIP3   OH227528   2.277   1.768   7.807  0.2114 -0.3022 -0.0174
 1990TIP3    H127529   2.267   1.863   7.798  0.5033 -0.2339  0.3530
 1990TIP3    H227530   2.242   1.748   7.894  0.7787 -0.4360  0.1858
 1991TIP3   OH227531   2.848   5.942   6.594 -0.6758 -0.7215 -0.0609
 1991TIP3    H127532   2.821   5.988   6.673 -0.6884 -2.5702  1.0639
 1991TIP3    H227533   2.766   5.904   6.560 -0.5611 -0.4956 -0.6090
 1992TIP3   OH227534   3.299   2.960   0.851 -0.2158  0.4921  0.6953
 1992TIP3    H127535   3.349   2.988   0.928  1.5850  0.6981 -0.4748
 1992TIP3    H227536   3.309   2.865   0.849 -0.5611  0.4509  0.9074
 1993TIP3   OH227537   0.390   3.427   0.973  0.0965  0.2402 -0.2925
 1993TIP3    H127538   0.419   3.483   1.044  0.2535  1.0238 -0.9690
 1993TIP3    H227539   0.470   3.396   0.932  0.0201 -0.7850  0.2973
 1994TIP3   OH227540   1.605   0.123   6.812  0.1620  0.2814 -0.2254
 1994TIP3    H127541   1.521   0.165   6.831  0.0133  0.2655 -0.8419
 1994TIP3    H227542   1.595   0.087   6.724  0.6260 -0.2001 -0.0882
 1995TIP3   OH227543   2.946   0.863   7.118 -0.4362 -0.7454  0.2960
 1995TIP3    H127544   2.970   0.940   7.170  1.7208 -0.3231 -1.1460
 1995TIP3    H227545   2.929   0.899   7.030  0.5699 -1.8671 -0.3874
 1996TIP3   OH227546   5.543   0.848   1.982  0.2410 -0.2765  0.0115
 1996TIP3    H127547   5.533   0.781   1.914 -0.8934  0.4775 -0.5911
 1996TIP3    H227548   5.614   0.815   2.037  0.6446 -1.2959 -1.0704
 1997TIP3   OH227549   0.482   0.756   1.048 -0.5389 -0.2154 -0.1803
 1997TIP3    H127550   0.412   0.818   1.029 -1.7690 -0.4797  2.9832
 1997TIP3    H227551   0.555   0.810   1.080 -1.1349 -0.2489  1.2978
 1998TIP3   OH227552   1.925   2.138   6.121  0.3144  0.2521  0.1226
 1998TIP3    H127553   1.856   2.073   6.111 -1.2176  1.3179  2.6964
 1998TIP3    H227554   1.988   2.097   6.180  0.9419  0.0118 -0.6889
 1999TIP3   OH227555   0.629   1.599   0.120  0.4275 -0.4188 -0.3675
 1999TIP3    H127556   0.692   1.636   0.183 -0.4123 -0.5092  0.5594
 1999TIP3    H227557   0.632   1.659   0.045  1.8636 -0.6175 -0.4915
 2000TIP3   OH227558   5.533   2.146   7.283  0.1282  0.0963  0.8263
 2000TIP3    H127559   5.565   2.083   7.218  0.2878 -0.8147  1.7777
 2000TIP3    H227560   5.613   2.178   7.326  0.0761  1.1877  0.1568
 2001TIP3   OH227561   6.787   3.380   2.559 -0.0492 -0.1287  0.0274
 2001TIP3    H127562   6.847   3.305   2.552 -1.1570 -1.0977  0.5826
 2001TIP3    H227563   6.845   3.455   2.572  1.1128 -0.8302 -0.8069
 2002TIP3   OH227564   1.377   0.617   0.019 -0.1959 -0.0711  0.1141
 2002TIP3    H127565   1.300   0.561   0.030 -0.5407  0.2916 -0.4168
 2002TIP3    H227566   1.411   0.594  -0.067  1.8281 -2.0888  1.3511
 2003TIP3   OH227567   1.586   5.860   0.752 -0.1457 -0.3652 -0.2668
 2003TIP3    H127568   1.547   5.773   0.742 -0.0239 -0.2141 -2.2553
 2003TIP3    H227569   1.666   5.844   0.803 -0.0941 -1.4196 -0.6546
 2004TIP3   OH227570   3.888   0.021   8.575  0.1995  0.0557 -0.4248
 2004TIP3    H127571   3.797   0.034   8.603 -0.3656  1.0190 -2.5309
 2004TIP3    H227572   3.937   0.090   8.619 -0.6155  1.3848 -1.5239
 2005TIP3   OH227573   3.518   4.380   1.449  0.0619 -0.1861 -0.2034
 2005TIP3    H127574   3.542   4.318   1.518 -1.2024  0.2307  0.6533
 2005TIP3    H227575   3.590   4.442   1.446  0.7272 -0.9382 -0.1633
 2006TIP3   OH227576   0.690   1.807   8.323 -0.6548  0.1574  0.2443
 2006TIP3    H127577   0.724   1.751   8.253 -1.3600  0.3232 -0.2424
 2006TIP3    H227578   0.767   1.828   8.376 -0.2440 -0.6184 -0.0183
 2007TIP3   OH227579   0.570   5.748   7.225 -0.2092  0.3275 -0.1404
 2007TIP3    H127580   0.650   5.754   7.173  0.0948  0.4890  0.3378
 2007TIP3    H227581   0.593   5.691   7.298 -1.0276 -0.9962 -0.8827
 2008TIP3   OH227582   3.469   2.929   8.008  0.3324 -0.1981  0.6796
 2008TIP3    H127583   3.503   2.880   8.083 -0.5860 -0.1069  1.1602
 2008TIP3    H227584   3.501   2.880   7.932  1.4287 -0.1940  1.1067
 2009TIP3   OH227585   4.205   0.626   0.895 -0.2006 -0.0752 -0.0396
 2009TIP3    H127586   4.117   0.598   0.871 -0.6829  0.9475  0.4799
 2009TIP3    H227587   4.217   0.595   0.985 -0.2346  0.2508  0.0769
 2010TIP3   OH227588   4.667   3.123   7.811  0.2841  0.0062 -0.2840
 2010TIP3    H127589   4.633   3.054   7.754  1.0740  0.6076 -1.5374
 2010TIP3    H227590   4.757   3.137   7.781  0.3802  1.0656  0.4289
 2011TIP3   OH227591   1.911   6.168   6.498  0.5770  0.5557  0.2243
 2011TIP3    H127592   1.944   6.179   6.409  0.1802 -1.9869 -0.3120
 2011TIP3    H227593   1.816   6.158   6.488  0.6862 -1.3988  0.6709
 2012TIP3   OH227594   0.170   0.283   0.569  0.0917 -0.2067 -0.0826
 2012TIP3    H127595   0.187   0.225   0.496  0.3461  1.3661 -1.3264
 2012TIP3    H227596   0.081   0.261   0.597  0.0395 -0.9080 -0.7672
 2013TIP3   OH227597   5.870   2.503   6.881 -0.1963  0.1091  0.6012
 2013TIP3    H127598   5.963   2.479   6.881  0.3269  1.9739  0.5538
 2013TIP3    H227599   5.869   2.596   6.860 -2.2134 -0.2637 -1.4418
 2014TIP3   OH227600   0.676   2.633   6.315 -0.0039 -0.7118  0.5264
 2014TIP3    H127601   0.643   2.651   6.403 -0.9347 -0.9799  0.2462
 2014TIP3    H227602   0.733   2.707   6.295  0.7688 -0.9772  1.6101
 2015TIP3   OH227603   1.869   0.364   8.439 -0.4227 -0.1980 -0.1585
 2015TIP3    H127604   1.816   0.405   8.372 -1.0595 -1.8803 -0.7443
 2015TIP3    H227605   1.932   0.431   8.465 -2.5550  1.7083  0.2775
 2016TIP3   OH227606   6.284   6.504   0.877 -0.0054 -0.0379  0.1809
 2016TIP3    H127607   6.332   6.573   0.831  0.5654  0.1356  1.0231
 2016TIP3    H227608   6.333   6.490   0.958 -1.0554 -0.2568  0.7951
 2017TIP3   OH227609   4.376   3.642   8.337 -0.4927  0.0651 -0.0030
 2017TIP3    H127610   4.421   3.725   8.352 -0.8190  0.1671  0.4655
 2017TIP3    H227611   4.433   3.594   8.278  0.7169 -0.1904  1.3106
 2018TIP3   OH227612   4.052   3.165   7.467 -0.1910 -0.2520 -0.2489
 2018TIP3    H127613   4.015   3.250   7.493  0.6219 -0.0189  0.1957
 2018TIP3    H227614   4.019   3.151   7.378  0.9502  1.3392 -1.0001
 2019TIP3   OH227615   1.684   5.846   1.883  0.2719  0.5319 -0.3164
 2019TIP3    H127616   1.754   5.903   1.914  1.6676 -1.6310  0.8327
 2019TIP3    H227617   1.617   5.851   1.952  0.6777  0.3253  0.1020
 2020TIP3   OH227618   2.339   5.526   6.661 -0.6474 -0.3927 -0.1183
 2020TIP3    H127619   2.379   5.604   6.701 -1.0792 -0.0331 -0.3795
 2020TIP3    H227620   2.351   5.539   6.567 -2.5492  0.3829 -0.2962
 2021TIP3   OH227621   4.952   6.252   7.368 -0.5939 -0.6762 -0.2864
 2021TIP3    H127622   5.023   6.289   7.317  1.2568 -1.3797  1.6453
 2021TIP3    H227623   4.898   6.206   7.304  2.2157 -2.4858 -1.5250
 2022TIP3   OH227624   0.147   0.573   1.301  0.3564 -0.0616  0.2072
 2022TIP3    H127625   0.180   0.663   1.300 -0.9549  0.4318 -0.1565
 2022TIP3    H227626   0.054   0.581   1.278 -0.4789 -1.2197  2.8374
 2023TIP3   OH227627   4.695   0.877   0.035 -0.1867  0.0483  0.4793
 2023TIP3    H127628   4.648   0.819   0.094 -0.7212 -0.4782 -0.4403
 2023TIP3    H227629   4.702   0.828  -0.047 -0.3674  1.1516 -0.2157
 2024TIP3   OH227630   1.564   4.275   8.327 -0.8632  0.5024  0.4467
 2024TIP3    H127631   1.551   4.365   8.300  0.7497  0.0206 -2.2507
 2024TIP3    H227632   1.655   4.272   8.357 -0.7572 -0.3355  0.0579
 2025TIP3   OH227633   2.450   0.503   8.510  0.2052 -0.7183 -0.6023
 2025TIP3    H127634   2.380   0.438   8.498  0.9327 -1.5551 -0.4185
 2025TIP3    H227635   2.425   0.575   8.452 -1.1237 -0.7271 -0.0784
 2026TIP3   OH227636   6.833   6.118   0.889 -0.0996 -0.0705 -0.4735
 2026TIP3    H127637   6.781   6.151   0.816 -1.4508 -0.2239  0.3692
 2026TIP3    H227638   6.913   6.084   0.849  0.4330  2.2760 -1.5959
 2027TIP3   OH227639   1.992   6.541   0.658 -0.6193 -0.1712  0.2437
 2027TIP3    H127640   1.939   6.461   0.660 -2.0339  0.7250 -0.0946
 2027TIP3    H227641   1.983   6.577   0.746  0.7859 -0.8374  0.6881
 2028TIP3   OH227642   6.289   5.586   2.345 -0.1924 -0.2269 -0.2854
 2028TIP3    H127643   6.285   5.563   2.437 -1.4399  0.4555 -0.1493
 2028TIP3    H227644   6.331   5.673   2.344 -1.2012  0.2732 -0.2472
 2029TIP3   OH227645   3.400   0.477   0.070  0.1081  0.4049  0.0776
 2029TIP3    H127646   3.481   0.471   0.020  0.0755 -1.8960  0.1761
 2029TIP3    H227647   3.422   0.445   0.157 -0.9000 -0.4036  0.0623
 2030TIP3   OH227648   2.515   5.614   7.959  0.3785  0.4912 -0.1508
 2030TIP3    H127649   2.481   5.580   8.042  0.1138 -1.7505 -1.1120
 2030TIP3    H227650   2.602   5.575   7.951  0.5807  1.0434 -0.7277
 2031TIP3   OH227651   1.637   2.329   1.878 -0.1401  0.6734  0.5667
 2031TIP3    H127652   1.627   2.364   1.789 -0.6320  1.3168  0.8703
 2031TIP3    H227653   1.558   2.277   1.892  1.7081 -2.9173 -0.8752
 2032TIP3   OH227654   5.584   6.013   0.706 -0.1441 -1.1448 -0.3677
 2032TIP3    H127655   5.521   5.954   0.664 -0.7139  0.5237 -2.0502
 2032TIP3    H227656   5.668   5.968   0.699 -0.7532 -2.3006 -0.4488
 2033TIP3   OH227657   0.556   3.216   1.124  0.1288  0.1467 -0.1862
 2033TIP3    H127658   0.517   3.179   1.045 -0.8867  0.0990  0.3172
 2033TIP3    H227659   0.593   3.141   1.171 -0.5970 -0.0373  0.1036
 2034TIP3   OH227660   5.361   1.740   7.919 -0.4075 -0.2835 -0.1339
 2034TIP3    H127661   5.396   1.704   8.001  0.3671 -0.7875 -0.6701
 2034TIP3    H227662   5.292   1.678   7.894 -0.2565 -0.4428 -0.1581
 2035TIP3   OH227663   4.647   4.314   8.558 -0.6106 -0.0894  0.1864
 2035TIP3    H127664   4.708   4.322   8.631 -1.4719 -1.3031  1.0714
 2035TIP3    H227665   4.676   4.236   8.510  0.7508  1.4159 -1.5978
 2036TIP3   OH227666   5.004   2.599   1.302  0.0796  0.4095 -0.3630
 2036TIP3    H127667   4.951   2.581   1.224 -2.7740  0.2615  1.4609
 2036TIP3    H227668   5.010   2.694   1.305  0.4752  0.4070 -0.9137
 2037TIP3   OH227669   6.325   4.161   6.091  0.7083  0.8890 -0.4635
 2037TIP3    H127670   6.322   4.227   6.022  0.0680  1.2250 -0.1200
 2037TIP3    H227671   6.234   4.133   6.101  1.0600 -0.5951 -1.1288
 2038TIP3   OH227672   5.672   2.721   2.355 -0.2383 -0.0241 -0.3734
 2038TIP3    H127673   5.618   2.655   2.398  0.2117 -0.7723 -0.9220
 2038TIP3    H227674   5.624   2.742   2.275 -1.2450  1.6164  0.6140
 2039TIP3   OH227675   1.023   5.231   7.145  0.2684 -0.0469 -0.4677
 2039TIP3    H127676   1.012   5.136   7.143  1.8520 -0.2506 -0.5829
 2039TIP3    H227677   1.070   5.252   7.064  0.6185  0.7252 -0.0794
 2040TIP3   OH227678   1.042   5.186   0.887  0.5746 -0.0131  0.1955
 2040TIP3    H127679   1.111   5.141   0.936 -2.2926 -1.7818  2.9969
 2040TIP3    H227680   1.001   5.118   0.834 -1.1878  0.0897  1.3183
 2041TIP3   OH227681   2.521   4.061   0.378  0.2776 -0.3434 -0.3111
 2041TIP3    H127682   2.552   4.124   0.443 -1.1709 -0.5398  0.6080
 2041TIP3    H227683   2.494   3.985   0.428 -0.9215 -0.4803 -1.1161
 2042TIP3   OH227684   2.608   0.471   0.515  0.6224  0.3217  0.7778
 2042TIP3    H127685   2.549   0.535   0.555 -0.5994 -1.1234  1.3697
 2042TIP3    H227686   2.608   0.494   0.422 -2.7041 -0.9293  0.3340
 2043TIP3   OH227687   0.540   5.116   1.314  0.0090 -0.0275 -0.3567
 2043TIP3    H127688   0.493   5.140   1.234 -1.3642 -0.7045  0.2197
 2043TIP3    H227689   0.498   5.166   1.383  1.9382  1.4382 -0.1609
 2044TIP3   OH227690   0.663   3.272   7.505 -0.5885  0.0453 -0.2558
 2044TIP3    H127691   0.610   3.193   7.492 -0.7558  0.1858 -0.4350
 2044TIP3    H227692   0.632   3.309   7.587 -0.9358  0.2542 -0.4756
 2045TIP3   OH227693   4.619   5.031   1.812 -0.2346 -0.0814 -0.4840
 2045TIP3    H127694   4.572   4.968   1.867 -0.6375  1.3179  0.8511
 2045TIP3    H227695   4.593   5.009   1.723  0.0238 -2.0940 -0.1121
 2046TIP3   OH227696   2.426   1.619   1.447 -0.1713  0.0146 -0.7221
 2046TIP3    H127697   2.386   1.581   1.526  2.3432  0.0528  0.6712
 2046TIP3    H227698   2.352   1.648   1.394 -2.0129 -1.6902  0.7645
 2047TIP3   OH227699   1.464   6.745   0.602 -0.8274  0.1848 -0.3525
 2047TIP3    H127700   1.448   6.670   0.544  0.3376  0.6896 -1.3987
 2047TIP3    H227701   1.527   6.712   0.666 -0.6423  0.1290 -0.5574
 2048TIP3   OH227702   3.730   0.980   1.421  0.0323 -0.0566 -0.5317
 2048TIP3    H127703   3.751   1.038   1.348  0.3901 -0.0014 -0.3886
 2048TIP3    H227704   3.772   1.020   1.497  0.3244 -0.5278 -0.4386
 2049TIP3   OH227705   6.347   5.253   8.437 -0.2385 -0.1043  0.3818
 2049TIP3    H127706   6.293   5.177   8.414 -0.3570  0.3772 -1.0381
 2049TIP3    H227707   6.289   5.328   8.423  0.9233  0.4657 -1.7930
 2050TIP3   OH227708   3.421   6.063   6.836 -0.0897 -0.6035 -0.0984
 2050TIP3    H127709   3.429   6.112   6.755  1.7562  1.3305  1.1466
 2050TIP3    H227710   3.493   5.999   6.833  0.6426  0.1706  0.4153
 2051TIP3   OH227711   6.720   2.604   1.311 -0.5034 -0.0645  0.3376
 2051TIP3    H127712   6.703   2.551   1.389 -1.6808 -0.7509 -0.3503
 2051TIP3    H227713   6.633   2.631   1.281 -0.1334 -0.4274 -1.1463
 2052TIP3   OH227714   0.186   1.931   7.881 -0.1383  0.3922 -0.0427
 2052TIP3    H127715   0.275   1.932   7.916 -0.1516 -0.9525  0.0783
 2052TIP3    H227716   0.194   1.971   7.794  0.7299 -0.4612 -0.3657
 2053TIP3   OH227717   0.739   1.950   7.956 -0.3597  0.4065  0.4710
 2053TIP3    H127718   0.821   1.936   7.908 -1.7351 -0.2131 -1.8754
 2053TIP3    H227719   0.706   2.034   7.923 -0.9600  0.3623  0.9399
 2054TIP3   OH227720   4.209   3.383   8.283 -0.1425  0.4508 -0.2896
 2054TIP3    H127721   4.225   3.401   8.375  0.7998 -1.1280 -0.1163
 2054TIP3    H227722   4.294   3.359   8.247 -0.2296  2.3714 -1.9277
 2055TIP3   OH227723   5.824   5.961   8.121  0.5142  0.1778  0.2831
 2055TIP3    H127724   5.747   6.005   8.156  2.1349  3.0102  0.5773
 2055TIP3    H227725   5.843   6.006   8.039  2.0045 -0.2754  0.3469
 2056TIP3   OH227726   4.587   3.894   0.812  0.1320  0.4906  0.4922
 2056TIP3    H127727   4.629   3.860   0.891  0.1964 -1.0849 -0.1828
 2056TIP3    H227728   4.506   3.935   0.843  0.6152  0.7482  1.4608
 2057TIP3   OH227729   6.342   5.627   0.797 -0.0560 -0.0396  0.3654
 2057TIP3    H127730   6.417   5.680   0.826  0.0271  0.3484 -0.5111
 2057TIP3    H227731   6.352   5.544   0.842  1.0640 -0.0887  0.0586
 2058TIP3   OH227732   2.034   3.848   8.067 -0.3790 -0.3145  0.2550
 2058TIP3    H127733   2.068   3.813   7.984 -0.1923  0.5098 -0.0236
 2058TIP3    H227734   2.039   3.943   8.057 -0.2156 -0.2073  1.2779
 2059TIP3   OH227735   2.204   0.460   7.808 -0.1973  0.0375  0.1078
 2059TIP3    H127736   2.275   0.424   7.755  0.3620  1.2042  0.0395
 2059TIP3    H227737   2.132   0.473   7.746  0.4068  1.2626 -0.3696
 2060TIP3   OH227738   1.287   2.319   0.806  0.0202  1.2139 -0.5443
 2060TIP3    H127739   1.339   2.362   0.738  1.0060 -0.8852 -1.2323
 2060TIP3    H227740   1.227   2.262   0.757  0.5872 -0.1589  0.2994
 2061TIP3   OH227741   1.166   2.809   6.710  0.0323 -0.5503 -0.5264
 2061TIP3    H127742   1.120   2.892   6.700  2.0704  0.9103  1.1974
 2061TIP3    H227743   1.256   2.834   6.731  0.8212 -3.2177 -0.3329
 2062TIP3   OH227744   2.712   4.941   1.326  0.1326  1.1324 -0.2403
 2062TIP3    H127745   2.627   4.906   1.297  0.3595  0.3820 -0.0211
 2062TIP3    H227746   2.689   5.010   1.388 -0.3208  0.9569 -0.2057
 2063TIP3   OH227747   2.476   1.364   8.304 -0.3266  0.2244  0.8348
 2063TIP3    H127748   2.424   1.296   8.262  1.8473 -1.6244  0.9476
 2063TIP3    H227749   2.429   1.446   8.285 -3.4550 -1.2921  1.3110
 2064TIP3   OH227750   4.206   0.326   7.232 -0.2607  0.2947 -0.0732
 2064TIP3    H127751   4.237   0.415   7.251  0.2550  0.1154 -0.0467
 2064TIP3    H227752   4.146   0.337   7.159  1.3954  0.4407 -1.4689
 2065TIP3   OH227753   3.877   6.331   1.139  0.0571 -0.2619  0.7034
 2065TIP3    H127754   3.812   6.272   1.177 -0.4085  1.1125  2.1411
 2065TIP3    H227755   3.956   6.277   1.132 -1.0587 -1.8115 -0.6171
 2066TIP3   OH227756   3.715   0.990   2.346 -0.1540  0.0294  0.0552
 2066TIP3    H127757   3.735   0.998   2.439 -1.1473  0.9589  0.2054
 2066TIP3    H227758   3.660   0.913   2.340 -0.0866 -0.0342  0.2382
 2067TIP3   OH227759   5.933   4.197   7.606 -0.0026 -0.0117  0.5157
 2067TIP3    H127760   5.865   4.139   7.571  0.8803 -0.4478 -0.5248
 2067TIP3    H227761   5.949   4.261   7.536  1.5777 -0.7084  0.1991
 2068TIP3   OH227762   1.449   1.746   0.942 -0.2766 -0.4746 -0.2606
 2068TIP3    H127763   1.500   1.715   1.017 -0.9687 -0.9346  0.0237
 2068TIP3    H227764   1.417   1.832   0.968 -1.4147 -1.0856  0.4099
 2069TIP3   OH227765   0.855   1.241   0.898 -0.0002 -0.0539 -0.5814
 2069TIP3    H127766   0.790   1.286   0.843 -0.0686  1.1687  0.4496
 2069TIP3    H227767   0.939   1.280   0.873 -0.1344  1.1909  0.7801
 2070TIP3   OH227768   2.373   0.559   6.958 -0.3356  0.0358  0.1206
 2070TIP3    H127769   2.281   0.533   6.953 -0.3130 -0.1111  0.4672
 2070TIP3    H227770   2.389   0.607   6.876 -0.1284 -1.8156 -0.9893
 2071TIP3   OH227771   5.090   2.340   1.007 -0.1398 -0.1415 -0.2653
 2071TIP3    H127772   5.070   2.266   0.950  1.5536 -0.5911 -0.3351
 2071TIP3    H227773   5.022   2.404   0.989 -0.0881 -0.5863 -2.2390
 2072TIP3   OH227774   4.700   3.964   1.857  0.2904  0.2857 -1.1761
 2072TIP3    H127775   4.773   3.904   1.872  0.7302  1.1891  0.5834
 2072TIP3    H227776   4.703   4.025   1.931 -3.3244 -0.7035  0.0111
 2073TIP3   OH227777   1.865   5.812   6.808 -0.2450 -0.4176  0.4741
 2073TIP3    H127778   1.802   5.743   6.787 -0.8680  0.5388 -0.9668
 2073TIP3    H227779   1.816   5.875   6.861  0.3704 -1.1226  1.9358
 2074TIP3   OH227780   4.799   6.010   1.077  0.1980  0.1827 -0.0481
 2074TIP3    H127781   4.741   6.026   1.152  0.6457  2.5800 -0.1294
 2074TIP3    H227782   4.744   5.963   1.015 -1.3380  1.3254  0.3707
 2075TIP3   OH227783   5.570   4.747   0.867  0.4390  0.3399  0.5104
 2075TIP3    H127784   5.644   4.799   0.835  2.2689 -2.0838  0.5688
 2075TIP3    H227785   5.512   4.740   0.791  0.4160  1.9053  0.3377
 2076TIP3   OH227786   6.584   5.915   7.554 -0.1799  0.4379 -0.3727
 2076TIP3    H127787   6.563   5.958   7.471 -1.8168  0.1164 -0.1629
 2076TIP3    H227788   6.537   5.967   7.620  1.1311  0.7142  0.3788
 2077TIP3   OH227789   0.163   5.965   0.465  0.1048 -0.1623 -0.3413
 2077TIP3    H127790   0.070   5.987   0.454  0.1788 -0.6331 -2.2570
 2077TIP3    H227791   0.182   5.986   0.557 -1.8476  0.0710  0.0494
 2078TIP3   OH227792   3.817   0.872   7.917 -0.3456 -0.2512 -0.2159
 2078TIP3    H127793   3.908   0.875   7.885  0.0900 -1.2454  0.8541
 2078TIP3    H227794   3.807   0.783   7.951 -2.2004 -0.6484 -1.6199
 2079TIP3   OH227795   3.109   0.628   7.498  0.5334 -0.1903 -0.6300
 2079TIP3    H127796   3.050   0.627   7.423 -1.0499  0.9248  0.5192
 2079TIP3    H227797   3.141   0.538   7.505 -2.2750 -1.2638 -0.4190
 2080TIP3   OH227798   1.122   6.535   7.467 -0.1197  0.1629  0.1447
 2080TIP3    H127799   1.217   6.543   7.459 -0.2068  1.1953 -0.0602
 2080TIP3    H227800   1.104   6.442   7.457  0.8349  0.0143 -0.2376
 2081TIP3   OH227801   4.262   2.455   1.582  0.1138 -0.0586 -0.2636
 2081TIP3    H127802   4.345   2.453   1.534  0.0173  0.3211 -0.4467
 2081TIP3    H227803   4.219   2.373   1.557  0.0543  0.1418 -0.8546
 2082TIP3   OH227804   4.717   3.257   0.550  0.4013 -0.0223 -0.1954
 2082TIP3    H127805   4.791   3.281   0.606 -0.9971  2.0880  0.8947
 2082TIP3    H227806   4.643   3.246   0.611 -0.8223  0.7399 -1.4766
 2083TIP3   OH227807   3.049   3.175   8.499 -0.4893  0.8896 -0.0280
 2083TIP3    H127808   3.126   3.199   8.550  0.0420  0.2899 -0.5320
 2083TIP3    H227809   3.010   3.259   8.474  1.0663  1.2641 -1.3706
 2084TIP3   OH227810   4.942   5.608   0.021  0.3240  0.3509  0.2617
 2084TIP3    H127811   4.874   5.608   0.088  0.3204 -1.8501  0.3459
 2084TIP3    H227812   4.971   5.699   0.015 -2.6852  1.3842  0.1132
 2085TIP3   OH227813   0.397   6.221   6.966 -0.2182 -0.0643  0.5611
 2085TIP3    H127814   0.348   6.243   6.887 -0.7820 -0.1085  0.8905
 2085TIP3    H227815   0.479   6.270   6.958 -0.8211  0.9919  0.5646
 2086TIP3   OH227816   3.936   2.715   1.255 -0.0600  0.1035  0.1712
 2086TIP3    H127817   4.026   2.734   1.227  0.2969 -3.1787 -1.5275
 2086TIP3    H227818   3.882   2.768   1.197  0.8150  0.2107 -0.5899
 2087TIP3   OH227819   3.200   3.887   1.449 -0.4265 -0.1289  0.0765
 2087TIP3    H127820   3.143   3.872   1.524 -0.5380  1.6550  0.3872
 2087TIP3    H227821   3.216   3.982   1.450  2.5670 -0.5574  0.0246
 2088TIP3   OH227822   5.815   4.236   1.450 -0.6148 -0.0896  0.0195
 2088TIP3    H127823   5.775   4.159   1.407  0.3899  0.5597 -2.2595
 2088TIP3    H227824   5.747   4.270   1.507 -1.6908 -1.6729 -0.2593
 2089TIP3   OH227825   2.878   5.323   2.255  0.2881 -0.7251  0.8445
 2089TIP3    H127826   2.840   5.411   2.251  3.0934  0.5832  0.4273
 2089TIP3    H227827   2.844   5.279   2.178 -1.0925  0.0051  0.9969
 2090TIP3   OH227828   6.705   1.575   7.096 -0.1718  0.7991  0.5071
 2090TIP3    H127829   6.788   1.607   7.131 -0.4765  0.2472  1.8179
 2090TIP3    H227830   6.728   1.493   7.052  0.4586  2.2396 -2.0414
 2091TIP3   OH227831   5.129   5.893   7.284  0.5338 -0.2089 -0.4605
 2091TIP3    H127832   5.099   5.817   7.234  0.4927  0.5629 -1.6514
 2091TIP3    H227833   5.111   5.968   7.227  3.4737  0.4339 -0.6980
 2092TIP3   OH227834   4.220   0.209   7.663 -0.6326  0.7297  0.5621
 2092TIP3    H127835   4.141   0.201   7.609 -0.8103  1.6068  0.6805
 2092TIP3    H227836   4.268   0.282   7.623  0.0617  0.2732  0.5586
 2093TIP3   OH227837   0.293   0.432   1.906  0.0097 -0.5718  0.3994
 2093TIP3    H127838   0.280   0.338   1.893 -0.6266 -0.3603 -0.6144
 2093TIP3    H227839   0.351   0.437   1.982 -0.7167 -1.7470  1.0770
 2094TIP3   OH227840   4.248   6.137   8.335 -0.2771  0.4565 -0.0317
 2094TIP3    H127841   4.157   6.152   8.311 -1.1612 -1.7122  1.6113
 2094TIP3    H227842   4.278   6.071   8.274  0.1883  1.0966 -0.5066
 2095TIP3   OH227843   4.043   4.406   0.715 -0.0468 -0.4372  0.6805
 2095TIP3    H127844   4.129   4.422   0.753 -1.1613  1.6900  2.5472
 2095TIP3    H227845   4.061   4.373   0.627  2.6372 -1.0852  1.3742
 2096TIP3   OH227846   0.031   1.128   7.777 -0.1677 -0.1333  0.5789
 2096TIP3    H127847   0.077   1.127   7.693 -2.6145 -1.5159 -0.8731
 2096TIP3    H227848   0.093   1.090   7.839  1.0914 -0.7736 -0.9947
 2097TIP3   OH227849   0.865   1.143   0.008  0.0727 -0.5107  0.1352
 2097TIP3    H127850   0.831   1.197   0.080  0.5015  0.0900 -0.0983
 2097TIP3    H227851   0.787   1.117  -0.040 -0.1857 -0.5375  0.5569
 2098TIP3   OH227852   3.495   1.654   0.205 -0.5256  0.6906 -0.1662
 2098TIP3    H127853   3.463   1.604   0.130 -1.5888 -0.9539  1.3046
 2098TIP3    H227854   3.580   1.687   0.177 -1.9162  2.3264 -2.9964
 2099TIP3   OH227855   1.624   1.231   1.763 -0.3616 -0.6701 -0.5253
 2099TIP3    H127856   1.632   1.326   1.757 -0.2662 -0.6827 -0.5977
 2099TIP3    H227857   1.548   1.217   1.819 -0.4863 -0.5503 -0.6615
 2100TIP3   OH227858   6.649   6.009   6.225 -0.0982  0.2766 -0.2093
 2100TIP3    H127859   6.662   6.095   6.264 -1.7972  0.6776 -0.4671
 2100TIP3    H227860   6.728   5.993   6.173  1.1650  0.7461  1.4922
 2101TIP3   OH227861   3.496   5.412   0.208 -0.0566  0.5365  0.2678
 2101TIP3    H127862   3.470   5.485   0.265  0.7045 -0.7011  2.3426
 2101TIP3    H227863   3.414   5.374   0.178 -0.5687  0.2806  1.8779
 2102TIP3   OH227864   5.531   5.892   0.996  0.2608 -0.2498  0.8290
 2102TIP3    H127865   5.475   5.816   0.976 -1.5731  0.9784  1.0390
 2102TIP3    H227866   5.517   5.952   0.922  2.6636 -0.5718  0.0280
 2103TIP3   OH227867   0.833   6.666   7.189  0.0019  0.8205 -0.4371
 2103TIP3    H127868   0.902   6.719   7.151 -0.1283  0.8650 -0.6142
 2103TIP3    H227869   0.867   6.576   7.185  1.5184  1.1387  2.6277
 2104TIP3   OH227870   2.919   0.946   7.471 -0.2682 -0.1826  0.0089
 2104TIP3    H127871   2.988   0.946   7.404  0.0996  0.6023  0.3746
 2104TIP3    H227872   2.956   0.896   7.544 -0.9971 -1.7918 -0.6691
 2105TIP3   OH227873   5.653   3.707   8.495 -0.2241  0.2877 -0.4556
 2105TIP3    H127874   5.583   3.757   8.537  0.2004 -0.3538  1.1125
 2105TIP3    H227875   5.612   3.667   8.418 -1.2688  0.8557 -0.2007
 2106TIP3   OH227876   6.055   2.065   8.333  0.0242  0.0215 -0.2625
 2106TIP3    H127877   5.998   2.003   8.378 -1.4770  1.3179 -0.2514
 2106TIP3    H227878   6.104   2.109   8.404 -0.5969  0.4151 -0.0658
 2107TIP3   OH227879   4.928   6.647   0.223  0.2736 -0.0641  0.5022
 2107TIP3    H127880   4.938   6.673   0.315 -0.5082 -2.0242  1.1843
 2107TIP3    H227881   4.844   6.602   0.219 -0.8797  2.0286 -1.7162
 2108TIP3   OH227882   0.807   0.634   0.390 -0.0328  0.2007  0.2458
 2108TIP3    H127883   0.799   0.556   0.335  1.3934  0.0109  0.2801
 2108TIP3    H227884   0.852   0.698   0.336  1.8070 -0.1411  1.2655
 2109TIP3   OH227885   1.634   4.552   6.356 -0.5714  0.5829 -0.0729
 2109TIP3    H127886   1.634   4.540   6.261 -2.3487  0.3486 -0.0786
 2109TIP3    H227887   1.542   4.555   6.380 -0.1596  0.4647  1.6870
 2110TIP3   OH227888   5.774   6.175   6.648 -0.0823  0.5202  0.5193
 2110TIP3    H127889   5.749   6.234   6.718 -1.4739 -0.2543  0.7231
 2110TIP3    H227890   5.768   6.228   6.568 -1.0453  0.7378  0.7256
 2111TIP3   OH227891   0.749   5.671   0.412 -0.4661 -0.4131 -0.0977
 2111TIP3    H127892   0.765   5.578   0.395  3.5363  0.4248 -2.2776
 2111TIP3    H227893   0.687   5.698   0.345 -2.0521 -1.5433  0.8650
 2112TIP3   OH227894   1.891   0.341   2.065  0.4152  0.6381  0.1919
 2112TIP3    H127895   1.935   0.357   1.982 -0.5063 -0.2474 -0.4856
 2112TIP3    H227896   1.916   0.252   2.088 -0.7460  0.2351 -0.0469
 2113TIP3   OH227897   6.180   1.538   7.812  0.1662 -0.0690 -0.3948
 2113TIP3    H127898   6.182   1.490   7.729 -1.6500 -0.0556 -0.4910
 2113TIP3    H227899   6.105   1.501   7.859 -1.3020  2.6145 -0.4496
 2114TIP3   OH227900   3.401   2.298   7.477  0.3821 -0.8362 -0.0029
 2114TIP3    H127901   3.403   2.219   7.423 -0.6295 -1.3493  0.6800
 2114TIP3    H227902   3.398   2.266   7.567 -5.0591 -0.3419  0.3306
 2115TIP3   OH227903   2.180   3.198   6.544 -0.0183  0.5552  0.3943
 2115TIP3    H127904   2.240   3.268   6.570  1.2061 -0.0671 -0.6363
 2115TIP3    H227905   2.163   3.215   6.451 -0.8246  0.2705  0.4807
 2116TIP3   OH227906   3.492   6.214   1.595 -0.0715 -0.4154  0.2640
 2116TIP3    H127907   3.558   6.152   1.566  1.9680  1.4125  0.7479
 2116TIP3    H227908   3.512   6.230   1.688  0.0943  1.6356 -0.0753
 2117TIP3   OH227909   3.376   2.519   0.472  0.1749  0.2726  0.1815
 2117TIP3    H127910   3.470   2.526   0.491  0.0846 -1.1800  1.3509
 2117TIP3    H227911   3.339   2.481   0.552 -1.1997 -0.4042 -0.7518
 2118TIP3   OH227912   6.224   2.014   0.740  0.4816  1.0543  0.4689
 2118TIP3    H127913   6.236   1.973   0.826  2.7231  0.4643 -0.0514
 2118TIP3    H227914   6.193   2.102   0.759  1.1078  0.9917  1.8953
 2119TIP3   OH227915   0.129   4.017   2.282 -0.2983 -0.5112  0.0949
 2119TIP3    H127916   0.177   3.952   2.333 -1.4244 -0.7870  0.8282
 2119TIP3    H227917   0.191   4.043   2.213  0.1306 -2.4642 -0.3285
 2120TIP3   OH227918   1.937   5.426   0.007 -0.2649 -0.7770 -0.0049
 2120TIP3    H127919   1.959   5.334   0.015  0.3164 -0.8882 -2.2675
 2120TIP3    H227920   1.860   5.427  -0.051  0.4580  0.1898 -0.9874
 2121TIP3   OH227921   1.415   4.800   2.290  0.0333 -0.4937 -0.1689
 2121TIP3    H127922   1.478   4.834   2.354  0.7087 -1.9886  0.0096
 2121TIP3    H227923   1.426   4.705   2.295 -1.8511 -0.7650 -0.5465
 2122TIP3   OH227924   3.543   3.061   0.761  0.0214  0.1119 -0.0440
 2122TIP3    H127925   3.607   2.991   0.748  0.3105  0.2343  0.6918
 2122TIP3    H227926   3.458   3.020   0.745  0.3000  0.1396 -1.8647
 2123TIP3   OH227927   0.524   0.216   0.048 -0.2077 -0.0678  0.2875
 2123TIP3    H127928   0.533   0.154   0.120  1.4844 -0.0949  0.0921
 2123TIP3    H227929   0.555   0.169  -0.029 -2.3225 -0.1592 -0.5872
 2124TIP3   OH227930   5.396   0.854   7.173  0.0213  0.2020  0.6709
 2124TIP3    H127931   5.453   0.780   7.155 -0.6571 -0.2126  0.1767
 2124TIP3    H227932   5.426   0.923   7.114 -1.9118 -1.0068 -1.9149
 2125TIP3   OH227933   3.059   4.308   0.693  0.2801  0.6620  0.5360
 2125TIP3    H127934   3.062   4.299   0.789  0.3135 -0.5065  0.4339
 2125TIP3    H227935   3.103   4.392   0.676  2.3427 -0.1653  1.3943
 2126TIP3   OH227936   0.968   3.229   1.059 -0.3585 -0.2509  0.2534
 2126TIP3    H127937   0.917   3.212   0.980 -0.8351 -0.0479  0.5110
 2126TIP3    H227938   0.930   3.309   1.095  0.5459  0.2537  0.1286
 2127TIP3   OH227939   1.407   2.121   0.327  0.0352 -0.0046  0.5824
 2127TIP3    H127940   1.431   2.075   0.248 -0.0999  2.5103 -1.0527
 2127TIP3    H227941   1.331   2.074   0.361  0.0374 -1.0687 -0.8392
 2128TIP3   OH227942   1.472   1.143   8.552  0.4417 -0.3047 -0.7591
 2128TIP3    H127943   1.478   1.142   8.648  1.6834  0.8864 -0.7904
 2128TIP3    H227944   1.560   1.122   8.521  1.3037  3.6066 -1.5140
 2129TIP3   OH227945   2.856   3.026   1.632  0.0307  0.3799 -0.1913
 2129TIP3    H127946   2.848   2.950   1.574 -0.2452  0.3589 -0.1234
 2129TIP3    H227947   2.802   3.093   1.592  0.2665  0.5402 -0.2451
 2130TIP3   OH227948   3.435   1.297   2.124  0.0451 -0.3056  0.4308
 2130TIP3    H127949   3.388   1.289   2.207 -1.9009 -1.3869 -0.6937
 2130TIP3    H227950   3.504   1.231   2.130  1.9157  1.6394  2.3078
 2131TIP3   OH227951   3.633   6.832   7.929 -0.1417  0.0308 -1.0267
 2131TIP3    H127952   3.596   6.774   7.862 -0.1002 -0.8266 -0.3319
 2131TIP3    H227953   3.575   6.821   8.004 -0.2989  1.1333 -0.9744
 2132TIP3   OH227954   4.619   0.069   1.096  0.5334 -0.1610  0.0893
 2132TIP3    H127955   4.567   0.144   1.123  0.9602 -0.4646  1.8644
 2132TIP3    H227956   4.577   0.039   1.015 -0.2523  1.3543 -0.0969
 2133TIP3   OH227957   5.467   6.779   7.458 -0.0036  0.1854 -0.1540
 2133TIP3    H127958   5.381   6.800   7.421 -1.1543 -3.4258  0.0621
 2133TIP3    H227959   5.449   6.710   7.521  2.6537  1.9906  2.9056
 2134TIP3   OH227960   1.573   0.061   8.147  0.1443 -0.4337 -0.1529
 2134TIP3    H127961   1.660   0.039   8.114 -1.5922 -4.5338 -2.8689
 2134TIP3    H227962   1.578   0.047   8.241  2.7324  1.1269  0.0391
 2135TIP3   OH227963   6.547   1.918   0.764  0.3460  0.0906  0.7529
 2135TIP3    H127964   6.468   1.955   0.803  0.5806  3.1844 -1.3566
 2135TIP3    H227965   6.620   1.964   0.807  1.1555 -2.6318  2.5875
 2136TIP3   OH227966   1.832   0.824   8.022  0.2668 -0.2010  0.6307
 2136TIP3    H127967   1.745   0.811   7.986  0.9084 -1.2533 -0.6412
 2136TIP3    H227968   1.846   0.748   8.079  0.2768  0.0706  0.9923
 2137TIP3   OH227969   4.107   5.568   0.761  0.1587 -0.6911 -0.0417
 2137TIP3    H127970   4.073   5.557   0.850 -0.8419 -1.0370 -0.4488
 2137TIP3    H227971   4.116   5.662   0.750  3.1715 -0.6787  1.4430
 2138TIP3   OH227972   4.828   0.146   1.903 -0.0321 -0.0487  0.2098
 2138TIP3    H127973   4.738   0.178   1.900 -0.7985 -2.1077  0.1246
 2138TIP3    H227974   4.878   0.209   1.851 -1.4766  0.8984 -0.0739
 2139TIP3   OH227975   1.528   5.552   6.411  0.1291 -0.3985  0.3243
 2139TIP3    H127976   1.499   5.463   6.391  0.7045 -0.4355 -0.4209
 2139TIP3    H227977   1.606   5.564   6.357  0.3257  0.3957  0.7710
 2140TIP3   OH227978   4.609   1.440   0.188  0.4980 -0.1644 -0.5552
 2140TIP3    H127979   4.596   1.405   0.099 -0.1805 -2.2462  0.3071
 2140TIP3    H227980   4.579   1.371   0.246  0.8439  1.1859  1.3401
 2141TIP3   OH227981   3.743   5.604   0.768 -0.6565  0.2671  0.0037
 2141TIP3    H127982   3.692   5.632   0.844  1.4391 -0.0545  1.6213
 2141TIP3    H227983   3.765   5.685   0.722  2.1827  1.1195  2.5587
 2142TIP3   OH227984   6.397   0.146   7.596 -0.0864  0.8464  0.6614
 2142TIP3    H127985   6.457   0.196   7.542  1.0197  1.6114  2.4950
 2142TIP3    H227986   6.311   0.183   7.579  0.1122  0.5514 -1.0975
 2143TIP3   OH227987   1.313   4.658   1.811  0.4797  0.0789  0.4869
 2143TIP3    H127988   1.408   4.646   1.822  0.2429 -0.2063  2.4343
 2143TIP3    H227989   1.286   4.583   1.758  0.8888 -1.5975  2.5259
 2144TIP3   OH227990   0.161   1.441   0.160 -0.0727  0.3396  0.1729
 2144TIP3    H127991   0.089   1.454   0.222 -0.3861  1.1951 -0.3457
 2144TIP3    H227992   0.235   1.488   0.199 -0.3302  1.0659 -0.1839
 2145TIP3   OH227993   0.521   1.664   0.725 -0.2648  0.1690  0.1815
 2145TIP3    H127994   0.465   1.727   0.769  0.5264  1.0090  0.0080
 2145TIP3    H227995   0.605   1.671   0.770  0.9560  1.9621 -2.1743
 2146TIP3   OH227996   4.675   2.077   6.826  0.1478  0.2302 -0.1042
 2146TIP3    H127997   4.615   2.051   6.896  1.4309 -0.5509  0.7467
 2146TIP3    H227998   4.647   2.025   6.750 -1.2677  1.0983 -0.2201
 2147TIP3   OH227999   2.229   0.279   0.730  0.2092  0.3477  0.0853
 2147TIP3    H128000   2.235   0.363   0.775  0.2698  0.5269 -0.2501
 2147TIP3    H228001   2.229   0.302   0.637  1.5815 -0.1012 -0.0430
 2148TIP3   OH228002   5.005   0.982   2.010  0.2063  0.1360  0.1574
 2148TIP3    H128003   4.988   1.024   2.094  1.4448 -0.5930  0.8167
 2148TIP3    H228004   5.100   0.988   1.999  0.2190 -0.9796 -0.5312
 2149TIP3   OH228005   5.193   6.372   2.092  0.1051 -0.0658  0.2987
 2149TIP3    H128006   5.106   6.365   2.130  1.0305 -2.4032  2.2347
 2149TIP3    H228007   5.238   6.437   2.146  0.5111 -1.2720  1.4876
 2150TIP3   OH228008   1.502   6.397   7.189 -0.0444  0.3017  0.2300
 2150TIP3    H128009   1.519   6.448   7.110  3.8731  1.9079  1.8510
 2150TIP3    H228010   1.433   6.445   7.234  1.4020  2.5325  0.2225
 2151TIP3   OH228011   6.154   5.059   8.343  0.1075 -0.2838  0.1273
 2151TIP3    H128012   6.103   5.023   8.415 -1.6320  0.8594 -0.4599
 2151TIP3    H228013   6.212   4.988   8.316 -0.4336 -1.2911  1.5206
 2152TIP3   OH228014   2.366   4.585   1.401 -0.4037  0.2686 -0.2392
 2152TIP3    H128015   2.434   4.518   1.393  0.7619  1.0659  2.2404
 2152TIP3    H228016   2.285   4.538   1.379  0.6431 -1.2778 -1.0401
 2153TIP3   OH228017   0.246   5.769   6.896 -0.1852  0.4560  0.0522
 2153TIP3    H128018   0.169   5.762   6.953  0.9217  0.3341  1.5880
 2153TIP3    H228019   0.288   5.851   6.922  0.5639  0.1972 -0.3180
 2154TIP3   OH228020   1.178   3.525   8.106 -0.4094  0.2828 -0.0103
 2154TIP3    H128021   1.209   3.538   8.016  0.2433 -1.2998 -0.0474
 2154TIP3    H228022   1.091   3.565   8.107 -0.5540  0.0622 -1.4418
 2155TIP3   OH228023   5.893   3.552   6.751 -0.0796 -0.6005 -0.2120
 2155TIP3    H128024   5.908   3.626   6.811 -0.0686 -1.4065  0.8028
 2155TIP3    H228025   5.886   3.593   6.665  0.2692  0.5578  0.2823
 2156TIP3   OH228026   4.924   6.374   6.558 -0.1058 -0.1763 -0.4380
 2156TIP3    H128027   4.919   6.375   6.654  0.7722  0.1849 -0.3839
 2156TIP3    H228028   4.856   6.435   6.529  0.2947  0.4924  0.0011
 2157TIP3   OH228029   2.229   1.896   8.067 -0.0911  0.4477 -0.3501
 2157TIP3    H128030   2.259   1.981   8.098  0.2856  0.6166 -1.1458
 2157TIP3    H228031   2.133   1.901   8.073 -0.0542  0.7907 -0.0462
 2158TIP3   OH228032   5.082   5.100   8.133  0.0797  0.3557  0.3513
 2158TIP3    H128033   5.102   5.143   8.216 -0.9782 -1.6791  1.7716
 2158TIP3    H228034   4.991   5.071   8.143  0.1718 -0.5745 -1.2298
 2159TIP3   OH228035   0.184   1.439   0.531 -0.0112 -0.5569 -0.3519
 2159TIP3    H128036   0.244   1.485   0.589  0.0379  0.4768 -1.1839
 2159TIP3    H228037   0.195   1.347   0.553 -0.9696 -0.1310  2.1631
 2160TIP3   OH228038   6.449   3.623   1.632 -0.1358 -0.0323  0.0748
 2160TIP3    H128039   6.508   3.579   1.570  1.5929 -0.1099  1.6670
 2160TIP3    H228040   6.484   3.599   1.718 -0.5591  2.5606  1.0433
 2161TIP3   OH228041   2.184   2.288   1.773 -0.1476 -0.2528 -0.0512
 2161TIP3    H128042   2.165   2.282   1.867 -0.0263 -1.0069 -0.0751
 2161TIP3    H228043   2.098   2.291   1.731 -0.2015 -0.4080  0.0492
 2162TIP3   OH228044   2.662   0.958   6.317  0.2990 -0.4459  0.0457
 2162TIP3    H128045   2.713   1.022   6.367 -0.3920  0.2610 -0.1298
 2162TIP3    H228046   2.659   0.993   6.228 -0.4838 -0.4699  0.0515
 2163TIP3   OH228047   0.695   1.130   0.289 -0.0813  0.2354 -0.1116
 2163TIP3    H128048   0.648   1.184   0.227 -0.5918  1.3031  1.1466
 2163TIP3    H228049   0.626   1.083   0.337  0.2033  0.6493  0.7167
 2164TIP3   OH228050   6.592   6.653   6.858  0.4586  0.6318 -0.4677
 2164TIP3    H128051   6.668   6.603   6.888 -0.3103 -0.1150  0.2707
 2164TIP3    H228052   6.531   6.651   6.931 -0.1777  1.4509 -0.9553
 2165TIP3   OH228053   4.130   2.578   6.125 -0.1354  0.5815  0.0153
 2165TIP3    H128054   4.071   2.622   6.186  1.0863  0.5806  1.2577
 2165TIP3    H228055   4.218   2.605   6.153  0.5162 -0.5130 -0.8815
 2166TIP3   OH228056   3.737   3.563   1.238 -0.3223 -0.4934 -0.5050
 2166TIP3    H128057   3.723   3.555   1.333 -0.0203  1.6012 -0.2364
 2166TIP3    H228058   3.812   3.507   1.220  0.2232 -0.1725  0.6753
 2167TIP3   OH228059   2.694   5.187   0.155  0.3532  0.0521 -0.3187
 2167TIP3    H128060   2.658   5.099   0.145 -0.1562  0.5272 -4.2180
 2167TIP3    H228061   2.770   5.176   0.211 -0.4094 -2.6343  0.3238
 2168TIP3   OH228062   3.540   1.353   7.749 -0.2367 -0.3093 -0.0004
 2168TIP3    H128063   3.609   1.403   7.792  1.4162 -1.5278 -1.1116
 2168TIP3    H228064   3.566   1.261   7.761 -1.7900 -0.8083 -0.2724
 2169TIP3   OH228065   0.245   0.749   6.972 -0.1423 -0.2817 -0.8986
 2169TIP3    H128066   0.163   0.737   6.926 -0.8172 -1.6309  0.5716
 2169TIP3    H228067   0.236   0.835   7.014 -1.4146 -0.9891  0.3623
 2170TIP3   OH228068   6.579   4.996   7.683  0.9687  0.3283 -0.4743
 2170TIP3    H128069   6.528   4.976   7.605 -0.1004  1.6545 -0.1590
 2170TIP3    H228070   6.664   5.025   7.650  1.8883 -2.6244 -0.9847
 2171TIP3   OH228071   2.302   5.201   7.407  0.2155  0.0891 -0.2802
 2171TIP3    H128072   2.394   5.214   7.429  0.2713  2.7052 -1.7552
 2171TIP3    H228073   2.261   5.178   7.491  1.9750  0.1771  0.6536
 2172TIP3   OH228074   2.487   0.425   8.234 -0.2462  0.8562  0.4081
 2172TIP3    H128075   2.495   0.520   8.225 -0.0375  0.7659 -0.4590
 2172TIP3    H228076   2.405   0.403   8.189 -1.0639  0.7799  1.8623
 2173TIP3   OH228077   3.693   5.678   8.678 -0.0622  0.1724  0.2091
 2173TIP3    H128078   3.738   5.613   8.732  0.0304 -1.9816 -2.2640
 2173TIP3    H228079   3.601   5.671   8.704 -0.0771 -1.1199 -0.0920
 2174TIP3   OH228080   2.376   3.504   6.666  0.1019  0.2538 -0.4696
 2174TIP3    H128081   2.428   3.571   6.622 -0.3066  0.2377 -0.9797
 2174TIP3    H228082   2.424   3.487   6.748 -0.1422  1.6532 -0.0080
 2175TIP3   OH228083   5.479   4.053   0.681 -0.1156  0.1476  0.0274
 2175TIP3    H128084   5.402   4.031   0.734  0.0528  1.0934  0.7019
 2175TIP3    H228085   5.554   4.033   0.738  0.0701  1.1855  0.1687
 2176TIP3   OH228086   0.985   5.809   0.203  0.2717 -0.4059 -0.3662
 2176TIP3    H128087   1.061   5.782   0.255  1.0619  0.4665 -1.0243
 2176TIP3    H228088   1.023   5.849   0.125 -0.8186  1.8405  0.1821
 2177TIP3   OH228089   2.736   1.463   1.639 -0.3159  0.6115  0.1123
 2177TIP3    H128090   2.781   1.472   1.555 -1.1974 -1.4916 -0.6668
 2177TIP3    H228091   2.646   1.488   1.620 -0.1289  2.0426  0.9638
 2178TIP3   OH228092   5.731   3.625   7.763 -0.0252 -0.1926  0.6477
 2178TIP3    H128093   5.638   3.616   7.745 -0.1199  2.2533 -0.5964
 2178TIP3    H228094   5.764   3.678   7.690  2.1175 -0.1002  1.6064
 2179TIP3   OH228095   3.846   5.292   7.156 -0.6023  0.7499  0.0792
 2179TIP3    H128096   3.751   5.280   7.150 -0.4680  0.1386 -1.0940
 2179TIP3    H228097   3.879   5.259   7.073  0.5920  1.5493  0.2280
 2180TIP3   OH228098   3.372   2.833   7.451  0.5803 -0.6697 -0.2239
 2180TIP3    H128099   3.312   2.760   7.461  0.2617 -0.2510  1.1023
 2180TIP3    H228100   3.326   2.896   7.396 -0.1198 -0.4497  0.6000
 2181TIP3   OH228101   6.134   3.087   2.532 -0.1689  0.0621 -0.1654
 2181TIP3    H128102   6.079   3.009   2.528 -0.7736  0.4186  0.7650
 2181TIP3    H228103   6.185   3.077   2.613 -1.3543  1.3109  0.7903
 2182TIP3   OH228104   5.993   1.620   7.336  0.0386 -0.0012 -0.4169
 2182TIP3    H128105   6.065   1.646   7.393  1.5120 -0.9879 -1.7355
 2182TIP3    H228106   5.920   1.601   7.395  1.1118  0.2151  1.0119
 2183TIP3   OH228107   1.164   4.852   1.646  0.1901 -0.2056 -0.2244
 2183TIP3    H128108   1.216   4.781   1.684  0.4428 -0.0447 -0.2691
 2183TIP3    H228109   1.218   4.930   1.656  0.9974 -0.4080 -2.4023
 2184TIP3   OH228110   6.079   6.005   7.205  0.7204  0.0264 -0.6486
 2184TIP3    H128111   6.142   6.076   7.192  0.8284  0.3972  1.5536
 2184TIP3    H228112   6.124   5.942   7.262 -1.0460  0.6242  1.5386
 2185TIP3   OH228113   3.025   0.398   8.490  0.1323  0.6221  0.0451
 2185TIP3    H128114   3.110   0.354   8.495  0.0077  0.3915  0.2110
 2185TIP3    H228115   2.970   0.337   8.440 -0.0498  0.5741  0.3011
 2186TIP3   OH228116   4.755   6.788   1.325 -0.2752 -0.3614 -0.4812
 2186TIP3    H128117   4.702   6.785   1.246 -1.4333  2.0038  0.1035
 2186TIP3    H228118   4.719   6.862   1.375  1.1941 -1.0118  1.6833
 2187TIP3   OH228119   4.661   3.045   6.892  0.2168  0.5739 -0.9418
 2187TIP3    H128120   4.674   3.068   6.800  1.3830  0.9879 -0.6856
 2187TIP3    H228121   4.703   2.959   6.902  0.9821  0.9798 -0.5813
 2188TIP3   OH228122   1.913   6.056   0.330  0.3508 -0.4193 -0.2621
 2188TIP3    H128123   1.865   6.102   0.261  1.8637  0.0393 -1.0405
 2188TIP3    H228124   1.965   6.124   0.373 -0.4124 -0.7307  1.2331
 2189TIP3   OH228125   1.570   0.414   8.317  0.4516  0.0878  0.1137
 2189TIP3    H128126   1.481   0.426   8.285  0.4712  2.8221  0.8508
 2189TIP3    H228127   1.611   0.356   8.253 -1.6837 -0.8832 -0.4781
 2190TIP3   OH228128   3.846   6.780   0.927  0.1605 -0.3647  0.2722
 2190TIP3    H128129   3.876   6.697   0.965  0.4377 -0.3102  0.1804
 2190TIP3    H228130   3.756   6.764   0.901  0.2962 -0.7216  0.0166
 2191TIP3   OH228131   0.994   5.328   2.411 -0.0803 -0.3996  0.2628
 2191TIP3    H128132   1.031   5.293   2.492 -0.4470 -1.1206  0.1251
 2191TIP3    H228133   0.981   5.251   2.355 -1.3302 -0.1205  0.1260
 2192TIP3   OH228134   3.574   6.608   0.801 -0.3392 -0.3589  0.3728
 2192TIP3    H128135   3.590   6.563   0.884  3.3573  0.6918  0.4194
 2192TIP3    H228136   3.605   6.546   0.735  1.4530  0.6312  0.2112
 2193TIP3   OH228137   4.825   4.494   2.431  0.1593 -0.2628  0.4222
 2193TIP3    H128138   4.897   4.552   2.456 -0.0173  0.2163 -0.1472
 2193TIP3    H228139   4.819   4.503   2.336 -1.8616  1.1525  0.6271
 2194TIP3   OH228140   4.140   4.274   1.510 -0.0629 -0.2971 -0.2406
 2194TIP3    H128141   4.127   4.206   1.576  0.9394  0.4571  0.7754
 2194TIP3    H228142   4.071   4.338   1.528  0.0004 -0.2533 -0.1575
 2195TIP3   OH228143   4.996   1.144   7.908 -0.7473 -0.5156 -0.2871
 2195TIP3    H128144   4.996   1.057   7.868 -0.1159 -0.0108 -1.4453
 2195TIP3    H228145   4.961   1.201   7.840  0.7653  0.4453 -0.2851
 2196TIP3   OH228146   4.963   4.223   8.499 -0.5629 -0.3239  0.7932
 2196TIP3    H128147   4.920   4.186   8.576 -0.9517 -0.8711  0.3242
 2196TIP3    H228148   5.056   4.203   8.512 -0.8501 -2.4468  0.0669
 2197TIP3   OH228149   2.385   0.919   8.515  0.3611 -0.4396  0.2820
 2197TIP3    H128150   2.339   1.001   8.495 -0.3788 -0.5806  1.2970
 2197TIP3    H228151   2.476   0.944   8.526  0.3978 -0.0003 -0.8682
 2198TIP3   OH228152   1.832   4.007   8.245 -0.5019  0.1506 -0.0809
 2198TIP3    H128153   1.831   4.081   8.184  1.1279 -0.7454 -1.3021
 2198TIP3    H228154   1.827   3.929   8.189 -1.2370 -0.6898  1.1043
 2199TIP3   OH228155   5.223   1.393   0.467  0.6476  0.1013 -0.1012
 2199TIP3    H128156   5.160   1.406   0.396 -0.5339 -0.2244  0.8600
 2199TIP3    H228157   5.228   1.478   0.510  2.8837  0.8803 -1.7260
 2200TIP3   OH228158   1.178   1.526   0.914  0.7849 -0.5318  0.7760
 2200TIP3    H128159   1.148   1.567   0.833  0.8688 -1.1145  0.4513
 2200TIP3    H228160   1.127   1.570   0.983 -2.3212 -2.7554  0.1489
 2201TIP3   OH228161   6.112   6.175   7.991  0.5213  0.0231 -0.2520
 2201TIP3    H128162   6.102   6.080   7.992 -0.4355  0.0424 -2.4565
 2201TIP3    H228163   6.206   6.190   7.980  1.1154 -0.5313  3.0513
 2202TIP3   OH228164   6.248   3.144   6.624 -0.0395 -0.2048  0.3031
 2202TIP3    H128165   6.199   3.219   6.658  1.5522  0.5675  0.9850
 2202TIP3    H228166   6.233   3.146   6.529  0.1158  1.0776  0.2953
 2203TIP3   OH228167   1.079   0.691   1.535  0.1061 -0.2595  0.3200
 2203TIP3    H128168   1.118   0.673   1.449 -0.3381 -1.8735  0.4141
 2203TIP3    H228169   1.021   0.616   1.551 -0.9433  0.7389  1.3887
 2204TIP3   OH228170   6.798   2.283   2.296 -0.0868  1.0078 -0.5380
 2204TIP3    H128171   6.795   2.245   2.209 -2.2924 -2.0569  0.6799
 2204TIP3    H228172   6.708   2.313   2.313 -0.5804 -1.3435  1.6835
 2205TIP3   OH228173   3.265   3.682   8.075 -0.0612 -0.0190  0.7175
 2205TIP3    H128174   3.232   3.754   8.130 -1.0168  0.1014  0.0056
 2205TIP3    H228175   3.287   3.724   7.992  2.7691  0.0774  1.3932
 2206TIP3   OH228176   0.802   3.150   0.853 -0.0625 -0.1746 -0.3158
 2206TIP3    H128177   0.776   3.143   0.761 -1.2819 -0.4321  0.0347
 2206TIP3    H228178   0.827   3.062   0.878 -1.9359 -0.6045  0.2067
 2207TIP3   OH228179   1.421   3.698   0.027 -0.1401 -0.5344 -0.7204
 2207TIP3    H128180   1.432   3.726  -0.064  1.0028  0.0501 -0.4293
 2207TIP3    H228181   1.506   3.660   0.050 -0.2508 -0.2098  0.2503
 2208TIP3   OH228182   5.167   0.470   6.917  0.6251 -0.0460 -0.6962
 2208TIP3    H128183   5.244   0.482   6.861 -0.5465  0.0299 -2.3592
 2208TIP3    H228184   5.096   0.513   6.870 -0.5010 -0.3311  0.6824
 2209TIP3   OH228185   3.107   5.551   0.589  0.2853 -0.2644  0.8920
 2209TIP3    H128186   3.192   5.541   0.633  0.0782  1.7207  1.8379
 2209TIP3    H228187   3.122   5.620   0.525 -0.5699 -0.0197  0.9500
 2210TIP3   OH228188   6.768   6.301   7.326  0.8043 -0.2375  0.0677
 2210TIP3    H128189   6.699   6.342   7.377  0.9761 -1.4799  1.3441
 2210TIP3    H228190   6.722   6.239   7.269  0.8255 -0.8064  0.6623
 2211TIP3   OH228191   1.645   5.772   1.183 -0.2018  0.1774  0.1167
 2211TIP3    H128192   1.582   5.757   1.254 -3.1363 -0.1029 -2.3664
 2211TIP3    H228193   1.703   5.696   1.187 -1.4628 -0.7889  1.0511
 2212TIP3   OH228194   6.141   2.557   6.538  0.0373  0.7154  0.4436
 2212TIP3    H128195   6.099   2.642   6.527  0.1423  0.9065  1.4558
 2212TIP3    H228196   6.069   2.493   6.531  0.1211  0.7743 -1.5397
 2213TIP3   OH228197   4.439   0.468   7.950  0.2189 -0.1246  0.0219
 2213TIP3    H128198   4.376   0.528   7.911 -0.4442 -0.8729 -0.0774
 2213TIP3    H228199   4.511   0.464   7.887 -1.3299 -2.1876 -1.7495
 2214TIP3   OH228200   2.214   2.865   6.351 -0.3319  0.0871 -0.3612
 2214TIP3    H128201   2.139   2.871   6.292 -0.7288  2.2442  0.2813
 2214TIP3    H228202   2.179   2.888   6.437  0.3780 -2.3463  0.6537
 2215TIP3   OH228203   5.419   4.738   2.262 -0.0011 -0.2122 -0.1887
 2215TIP3    H128204   5.349   4.773   2.317 -0.9807 -2.0689 -0.1844
 2215TIP3    H228205   5.431   4.648   2.292  1.1724 -0.4855 -1.3712
 2216TIP3   OH228206   3.171   0.941   1.715  0.3367  0.0760 -0.2715
 2216TIP3    H128207   3.264   0.955   1.729  0.2337  0.4116  0.1006
 2216TIP3    H228208   3.130   1.022   1.745 -0.1782 -0.5506  0.7790
 2217TIP3   OH228209   4.518   3.668   6.640 -0.0858 -0.1726 -0.0183
 2217TIP3    H128210   4.441   3.632   6.596 -0.3156 -0.1451  0.3604
 2217TIP3    H228211   4.514   3.634   6.729  0.7219 -0.7451 -0.1878
 2218TIP3   OH228212   3.849   6.643   0.020  0.0238 -0.2153 -0.4852
 2218TIP3    H128213   3.854   6.694  -0.061 -2.8755 -0.3932 -0.8753
 2218TIP3    H228214   3.824   6.707   0.087  1.5385 -0.2330  0.1251
 2219TIP3   OH228215   2.864   4.370   8.037  0.6728  0.0911 -0.1736
 2219TIP3    H128216   2.787   4.350   8.089 -0.5471  1.1942 -1.4800
 2219TIP3    H228217   2.859   4.464   8.020  3.4056  0.6153  1.3683
 2220TIP3   OH228218   5.715   3.900   1.231  0.1248 -0.1317  0.0858
 2220TIP3    H128219   5.736   3.898   1.325  1.1602  1.6130 -0.0630
 2220TIP3    H228220   5.768   3.972   1.196 -1.5751  0.4159 -1.5110
 2221TIP3   OH228221   6.049   3.539   7.629 -0.5004 -0.7593  0.0354
 2221TIP3    H128222   6.014   3.453   7.648 -0.0666 -1.5313 -2.2851
 2221TIP3    H228223   6.142   3.524   7.610 -0.0749  0.4468  1.0271
 2222TIP3   OH228224   0.107   4.978   1.894 -0.0092  0.2395 -0.2362
 2222TIP3    H128225   0.191   5.019   1.918 -0.0698 -0.5857  1.5382
 2222TIP3    H228226   0.093   4.912   1.961 -0.5458 -1.8301 -2.2800
 2223TIP3   OH228227   6.263   0.709   8.006 -0.6472  0.3321  0.5948
 2223TIP3    H128228   6.203   0.740   7.938 -0.4226  3.1984  1.5614
 2223TIP3    H228229   6.212   0.715   8.087 -0.2101 -0.8920  0.9835
 2224TIP3   OH228230   1.255   4.585   6.815  0.6082 -0.4857  0.1571
 2224TIP3    H128231   1.220   4.527   6.746 -2.5205  2.3855 -0.9406
 2224TIP3    H228232   1.298   4.656   6.767 -0.6639  1.0051  1.1260
 2225TIP3   OH228233   4.874   6.136   7.643 -0.0448 -0.5505 -0.3397
 2225TIP3    H128234   4.780   6.116   7.651  0.0665 -0.8010  0.4049
 2225TIP3    H228235   4.891   6.129   7.549 -0.3607 -2.4710 -0.3075
 2226TIP3   OH228236   3.378   1.406   0.073 -0.1455 -0.1477 -0.2907
 2226TIP3    H128237   3.379   1.310   0.069  0.6806 -0.1340 -4.1445
 2226TIP3    H228238   3.289   1.430   0.049 -0.5096  0.0910  1.2318
 2227TIP3   OH228239   3.078   5.809   8.379 -0.0673  0.2632 -0.3810
 2227TIP3    H128240   3.117   5.777   8.297 -0.7329 -0.4784 -0.4146
 2227TIP3    H228241   3.152   5.846   8.427  0.4238  0.2292 -1.0839
 2228TIP3   OH228242   1.695   2.100   7.553 -0.2625 -0.1743  0.0173
 2228TIP3    H128243   1.785   2.070   7.546 -0.1675 -0.1763  1.0339
 2228TIP3    H228244   1.675   2.138   7.468  0.9524  0.5013  0.0192
 2229TIP3   OH228245   0.543   5.718   0.209 -0.0570 -0.5032  0.6808
 2229TIP3    H128246   0.582   5.805   0.200 -0.0019 -0.6688 -0.9736
 2229TIP3    H228247   0.450   5.731   0.189 -0.0453 -0.8307  0.4129
 2230TIP3   OH228248   2.820   3.065   0.353 -0.0671 -0.1880  0.6117
 2230TIP3    H128249   2.882   3.117   0.404 -0.2324  1.6380 -0.9631
 2230TIP3    H228250   2.843   2.974   0.373  1.0290  0.4534  2.4964
 2231TIP3   OH228251   1.951   4.061   7.367  0.0458  0.2177 -0.0183
 2231TIP3    H128252   1.920   4.007   7.439 -1.7095 -1.6512 -2.0101
 2231TIP3    H228253   1.879   4.122   7.349  0.7123  1.0826  0.1399
 2232TIP3   OH228254   0.351   5.677   0.946  0.2967 -0.0095 -0.1353
 2232TIP3    H128255   0.360   5.772   0.956  1.1447  0.1656 -2.2103
 2232TIP3    H228256   0.409   5.654   0.874 -1.2151 -1.8637 -0.8408
 2233TIP3   OH228257   3.729   5.627   8.078  0.0851 -0.2951 -0.3384
 2233TIP3    H128258   3.733   5.549   8.022 -1.7029  0.5218 -1.7254
 2233TIP3    H228259   3.658   5.680   8.040 -0.3293  0.9304  1.9641
 2234TIP3   OH228260   5.186   0.186   7.693  0.4872 -0.6189  0.7395
 2234TIP3    H128261   5.099   0.215   7.663  0.5232 -2.5879 -1.6223
 2234TIP3    H228262   5.171   0.097   7.726  1.2472 -0.0674  2.7356
 2235TIP3   OH228263   1.597   5.045   1.135 -0.0261 -0.2869 -0.1792
 2235TIP3    H128264   1.645   5.085   1.208  0.9208  2.3191 -2.0866
 2235TIP3    H228265   1.545   4.976   1.176  0.6954  0.8211  2.9012
 2236TIP3   OH228266   5.159   6.473   8.435 -0.3600 -0.1962 -0.2819
 2236TIP3    H128267   5.128   6.387   8.464 -0.2642 -0.4101 -0.7970
 2236TIP3    H228268   5.094   6.535   8.468  0.6920 -0.2001  2.0235
 2237TIP3   OH228269   1.296   0.237   7.405  0.7189  0.3514  0.0565
 2237TIP3    H128270   1.257   0.311   7.451  0.2133  0.0445  0.1321
 2237TIP3    H228271   1.250   0.235   7.321 -1.0467 -1.3511  0.9862
 2238TIP3   OH228272   1.620   1.152   2.147 -0.6126 -0.6790 -0.6524
 2238TIP3    H128273   1.536   1.107   2.154 -0.1609 -1.2774  1.6203
 2238TIP3    H228274   1.680   1.100   2.200  0.7537  0.7250 -0.7493
 2239TIP3   OH228275   6.404   2.346   7.638 -0.0369 -0.5189  0.1381
 2239TIP3    H128276   6.445   2.335   7.552  0.9335  2.4870  0.0913
 2239TIP3    H228277   6.419   2.263   7.682  1.9679 -1.1908 -1.6051
 2240TIP3   OH228278   1.437   6.676   7.165  0.1569  0.2181 -0.3864
 2240TIP3    H128279   1.407   6.755   7.120 -0.3064 -0.0444 -0.5376
 2240TIP3    H228280   1.519   6.703   7.207 -0.4428  1.0206  0.2884
 2241TIP3   OH228281   5.346   3.991   1.242  0.0089 -0.0062  0.4244
 2241TIP3    H128282   5.379   3.920   1.297 -1.6783  0.2730  1.8808
 2241TIP3    H228283   5.423   4.045   1.223  1.2595 -1.9996 -0.4413
 2242TIP3   OH228284   2.119   1.573   0.007 -0.0246 -0.3397 -0.2906
 2242TIP3    H128285   2.208   1.537   0.002 -0.2091 -0.7210 -0.9780
 2242TIP3    H228286   2.086   1.544   0.092  0.7389  0.3615  0.2587
 2243TIP3   OH228287   0.578   6.433   7.734 -0.7338 -0.7187 -0.3443
 2243TIP3    H128288   0.625   6.443   7.651  3.2653  1.8466  1.8901
 2243TIP3    H228289   0.631   6.371   7.785 -1.2059  0.2455  1.4198
 2244TIP3   OH228290   6.361   2.351   0.337  0.3791  0.2224  0.1811
 2244TIP3    H128291   6.392   2.271   0.296  1.3117  0.7433 -0.1663
 2244TIP3    H228292   6.273   2.365   0.302  1.0317  0.4854 -1.4102
 2245TIP3   OH228293   6.598   5.732   1.996  0.2575 -0.2822 -0.3800
 2245TIP3    H128294   6.654   5.806   2.019  0.7344 -0.8694  0.4204
 2245TIP3    H228295   6.514   5.772   1.974 -0.3616  0.3956  2.7339
 2246TIP3   OH228296   1.968   3.632   2.051  0.3990  0.4640 -0.3266
 2246TIP3    H128297   1.877   3.649   2.072  0.3905 -0.6965  0.7569
 2246TIP3    H228298   2.017   3.678   2.119  0.5018 -0.8520  0.5223
 2247TIP3   OH228299   4.919   6.149   6.406 -0.6126  0.7615  0.1676
 2247TIP3    H128300   4.927   6.230   6.456 -1.9177 -0.6995  2.9594
 2247TIP3    H228301   4.840   6.162   6.353  0.3871  2.0640 -1.0850
 2248TIP3   OH228302   4.649   2.737   6.882  0.5443  0.4314  0.3845
 2248TIP3    H128303   4.602   2.754   6.801  1.1577 -0.0095 -0.0798
 2248TIP3    H228304   4.594   2.675   6.929  0.3934  0.3497  0.1043
 2249TIP3   OH228305   3.424   5.780   1.664 -0.7371  0.1644 -0.1576
 2249TIP3    H128306   3.492   5.725   1.625 -0.3667 -0.2271  0.9974
 2249TIP3    H228307   3.471   5.841   1.721 -1.2106  1.1825 -0.8197
 2250TIP3   OH228308   5.516   3.975   7.731  0.1364  0.7515  0.2624
 2250TIP3    H128309   5.502   4.051   7.788 -1.2648  1.3111 -0.7656
 2250TIP3    H228310   5.568   4.009   7.658  0.1066  0.5458  0.1449
 2251TIP3   OH228311   1.383   1.323   6.147  0.7459  0.2024 -0.2507
 2251TIP3    H128312   1.401   1.326   6.053 -0.1354 -2.0614 -0.5449
 2251TIP3    H228313   1.465   1.292   6.186  1.8132  3.0509  0.0651
 2252TIP3   OH228314   5.719   5.921   7.590  0.2188  0.1332 -0.2269
 2252TIP3    H128315   5.653   5.852   7.590 -1.1246  1.3467  0.5813
 2252TIP3    H228316   5.700   5.973   7.512  0.5965  0.1481 -0.3105
 2253TIP3   OH228317   4.098   2.496   0.072  0.2271 -0.0585 -0.5559
 2253TIP3    H128318   4.002   2.500   0.071  0.2276  0.3029  0.2123
 2253TIP3    H228319   4.125   2.572   0.020  0.1022 -0.6363 -1.4932
 2254TIP3   OH228320   0.912   4.559   7.486  0.9123 -0.1458 -0.1666
 2254TIP3    H128321   0.833   4.603   7.519 -0.1376 -0.9275 -1.5159
 2254TIP3    H228322   0.904   4.566   7.391  3.3905  1.2773 -0.3379
 2255TIP3   OH228323   3.897   1.242   0.548 -0.1196 -0.2444  0.1875
 2255TIP3    H128324   3.989   1.216   0.553 -0.1624 -0.1875  2.0287
 2255TIP3    H228325   3.848   1.165   0.576 -0.4424  0.6100  2.1486
 2256TIP3   OH228326   0.032   2.050   7.113 -0.1531  0.1100  0.2511
 2256TIP3    H128327   0.075   1.969   7.138 -0.3725 -0.0052  0.2641
 2256TIP3    H228328  -0.061   2.033   7.130 -0.0728  0.8488  1.6136
 2257TIP3   OH228329   1.843   5.877   8.287  0.1598  0.1186 -0.2012
 2257TIP3    H128330   1.930   5.851   8.255  0.0704  1.0068 -1.2527
 2257TIP3    H228331   1.841   5.972   8.273 -0.3258  0.3846  1.4706
 2258TIP3   OH228332   6.145   1.107   0.605 -0.1355 -0.1688  0.1327
 2258TIP3    H128333   6.212   1.052   0.645 -0.1864 -0.0888  0.3268
 2258TIP3    H228334   6.157   1.094   0.511 -1.2421 -1.8367  0.1858
 2259TIP3   OH228335   2.124   0.807   7.745 -0.8275  0.4596 -0.0826
 2259TIP3    H128336   2.205   0.775   7.785  0.1360  0.4346 -1.9440
 2259TIP3    H228337   2.093   0.876   7.804 -0.5629 -0.8759  1.7004
 2260TIP3   OH228338   0.699   5.447   1.706  0.0718  0.0688 -0.1337
 2260TIP3    H128339   0.705   5.413   1.617  1.1089  2.1879 -0.9506
 2260TIP3    H228340   0.609   5.478   1.715  0.3357  1.1828 -1.0307
 2261TIP3   OH228341   3.981   4.981   0.545 -0.0522 -0.4895  0.1143
 2261TIP3    H128342   3.899   4.971   0.594 -0.8052 -0.7763 -1.1558
 2261TIP3    H228343   4.027   4.898   0.559 -0.4544 -0.7365  0.0039
 2262TIP3   OH228344   0.044   2.253   7.331  0.7936  0.3419 -0.5873
 2262TIP3    H128345  -0.006   2.256   7.249 -0.2553 -2.4198 -0.1617
 2262TIP3    H228346   0.109   2.184   7.316 -0.7232 -1.6949  1.4822
 2263TIP3   OH228347   5.623   0.548   1.519 -0.3932 -0.3011 -0.2899
 2263TIP3    H128348   5.528   0.534   1.512 -0.4160  0.4168 -1.6844
 2263TIP3    H228349   5.660   0.461   1.516 -0.9811 -0.5566 -0.3089
 2264TIP3   OH228350   5.724   1.047   0.917 -0.8617 -0.0205 -0.1115
 2264TIP3    H128351   5.689   0.958   0.917 -0.6948 -0.0887  0.6672
 2264TIP3    H228352   5.794   1.044   0.852  0.1451 -0.8766  0.9632
 2265TIP3   OH228353   5.159   4.142   2.318 -0.0178 -0.4123 -0.5647
 2265TIP3    H128354   5.065   4.134   2.335  0.4305 -1.6889  1.7464
 2265TIP3    H228355   5.185   4.221   2.364  0.5950 -1.9944  1.9841
 2266TIP3   OH228356   1.393   3.380   0.107 -0.2014 -0.2853 -0.3101
 2266TIP3    H128357   1.374   3.287   0.094  2.1542 -0.9164  0.3789
 2266TIP3    H228358   1.315   3.414   0.151 -1.4169 -1.7279 -1.2351
 2267TIP3   OH228359   5.893   6.092   1.329  0.4336  0.5652  0.2848
 2267TIP3    H128360   5.827   6.095   1.260 -1.2923  3.4436  1.8363
 2267TIP3    H228361   5.975   6.072   1.284 -1.1277 -1.3513 -1.9929
 2268TIP3   OH228362   0.486   5.892   2.187 -0.0637 -0.0474  0.4413
 2268TIP3    H128363   0.496   5.802   2.156 -2.3241  0.2903 -1.5631
 2268TIP3    H228364   0.574   5.920   2.211  0.6255 -2.9348  1.6842
 2269TIP3   OH228365   0.835   0.566   1.213 -0.2200 -0.2582 -0.5010
 2269TIP3    H128366   0.873   0.653   1.226 -0.8049  0.0139 -0.5468
 2269TIP3    H228367   0.876   0.511   1.280  1.7042 -0.4623 -1.7866
 2270TIP3   OH228368   4.676   3.918   0.530  0.1402  0.0808 -0.2912
 2270TIP3    H128369   4.675   3.939   0.624 -0.6396 -0.6394 -0.1287
 2270TIP3    H228370   4.678   4.003   0.487  0.7872  0.4193  0.3756
 2271TIP3   OH228371   3.746   1.896   0.349 -0.3344 -0.6253  0.3343
 2271TIP3    H128372   3.733   1.804   0.374 -0.0631 -0.6150  0.5268
 2271TIP3    H228373   3.693   1.945   0.411  1.7390 -0.4886  2.1463
 2272TIP3   OH228374   4.532   4.589   0.552 -0.6640 -0.3155 -0.0407
 2272TIP3    H128375   4.450   4.597   0.601 -0.2357  0.6313  0.5619
 2272TIP3    H228376   4.600   4.598   0.618 -0.0665  1.3648 -0.8263
 2273TIP3   OH228377   2.664   3.428   1.346  0.0078 -0.0706  0.1828
 2273TIP3    H128378   2.661   3.446   1.252 -1.7482 -1.3271 -0.0411
 2273TIP3    H228379   2.735   3.483   1.378  1.2019 -0.2174 -2.0031
 2274TIP3   OH228380   2.251   0.386   6.710  0.1252  0.3162 -0.4381
 2274TIP3    H128381   2.300   0.387   6.628 -1.4900  0.4095 -1.4401
 2274TIP3    H228382   2.255   0.295   6.739  0.7794  0.3001 -0.5675
 2275TIP3   OH228383   1.520   1.806   1.876  0.4946  0.0606 -0.3659
 2275TIP3    H128384   1.461   1.741   1.838  0.4024  0.1879 -0.4415
 2275TIP3    H228385   1.504   1.801   1.971 -0.8609  1.2460 -0.4808
 2276TIP3   OH228386   1.824   0.364   6.953  0.0491 -0.5440 -0.0063
 2276TIP3    H128387   1.813   0.300   6.882 -1.5307  1.2911 -1.5429
 2276TIP3    H228388   1.890   0.425   6.921  0.8108 -0.8017  1.0137
 2277TIP3   OH228389   1.971   3.211   8.570  0.0154 -0.1099  0.1959
 2277TIP3    H128390   1.963   3.289   8.514  0.4620 -0.1430  0.0773
 2277TIP3    H228391   2.065   3.192   8.570 -0.2041 -1.3033 -0.6817
 2278TIP3   OH228392   6.045   3.682   0.719 -0.6805 -0.2828 -0.1480
 2278TIP3    H128393   6.094   3.728   0.788 -0.1600 -0.3426 -0.4697
 2278TIP3    H228394   5.958   3.670   0.756 -0.6916  0.5506  0.1249
 2279TIP3   OH228395   5.609   6.494   0.603  0.0370 -0.0767  0.1585
 2279TIP3    H128396   5.671   6.540   0.660 -1.2860  1.1674  0.6535
 2279TIP3    H228397   5.532   6.479   0.659 -0.9559  0.3866 -1.0252
 2280TIP3   OH228398   4.749   0.520   7.280  0.2342  0.0533  0.6130
 2280TIP3    H128399   4.837   0.494   7.304 -0.2441 -1.8544  0.4809
 2280TIP3    H228400   4.696   0.442   7.296 -0.7990 -0.0726 -2.7734
 2281TIP3   OH228401   1.844   0.067   1.418 -0.4715  0.3930 -0.2920
 2281TIP3    H128402   1.924   0.065   1.366 -1.3041  0.3038 -1.6142
 2281TIP3    H228403   1.808   0.155   1.403 -1.0122  0.1709 -0.3142
 2282TIP3   OH228404   6.093   6.590   7.109 -0.0404 -0.1359  0.1514
 2282TIP3    H128405   6.012   6.539   7.117 -0.6132  0.7395  0.1038
 2282TIP3    H228406   6.124   6.600   7.199  0.7291 -1.5724  0.0642
 2283TIP3   OH228407   1.253   2.935   7.732 -0.1519 -0.3773 -0.2982
 2283TIP3    H128408   1.200   2.947   7.811 -0.1720  0.1121 -0.3834
 2283TIP3    H228409   1.338   2.907   7.764 -0.0480  0.1751 -0.0764
 2284TIP3   OH228410   5.737   3.472   1.694  0.1625  0.1253  0.2504
 2284TIP3    H128411   5.738   3.459   1.789  1.2334  0.1885  0.2499
 2284TIP3    H228412   5.661   3.529   1.680  0.0397  0.1884  1.0720
 2285TIP3   OH228413   0.141   4.672   8.305 -0.0983 -0.2476 -0.5748
 2285TIP3    H128414   0.155   4.754   8.352 -1.5062 -0.0145 -0.5202
 2285TIP3    H228415   0.118   4.609   8.373  2.2032 -1.0391 -0.4649
 2286TIP3   OH228416   1.124   5.580   0.396 -0.4148  0.2363  0.5306
 2286TIP3    H128417   1.116   5.485   0.390  0.3826 -0.0146  2.5992
 2286TIP3    H228418   1.206   5.601   0.351 -0.7690  0.0022 -0.2346
 2287TIP3   OH228419   1.320   4.876   7.250  0.3906 -0.8635  0.1506
 2287TIP3    H128420   1.297   4.785   7.229  0.8568 -1.3895  1.8306
 2287TIP3    H228421   1.363   4.871   7.335 -1.8951  1.2192  1.5638
 2288TIP3   OH228422   3.483   1.377   1.461 -1.2146 -0.1734 -0.1982
 2288TIP3    H128423   3.498   1.471   1.466  0.1373 -0.3992  0.2065
 2288TIP3    H228424   3.541   1.347   1.391 -0.6337 -0.8920  0.5786
 2289TIP3   OH228425   6.307   1.229   7.078 -0.0232 -0.0064 -0.4652
 2289TIP3    H128426   6.272   1.194   7.159 -0.3421  2.2226  0.4343
 2289TIP3    H228427   6.390   1.271   7.104  0.1095  0.3147 -1.3622
 2290TIP3   OH228428   4.949   1.886   1.130 -0.1070 -0.1546  0.2629
 2290TIP3    H128429   4.860   1.861   1.155 -0.0381 -1.6142 -0.7920
 2290TIP3    H228430   5.006   1.824   1.176  0.2646 -0.1542 -0.1763
 2291TIP3   OH228431   4.256   1.732   0.452  0.4593  0.0426 -0.8569
 2291TIP3    H128432   4.232   1.801   0.515  0.6247 -0.7783  0.1426
 2291TIP3    H228433   4.223   1.764   0.368 -1.3656  0.3810 -0.0640
 2292TIP3   OH228434   6.570   0.428   7.552  0.0133 -0.0661 -0.1789
 2292TIP3    H128435   6.560   0.519   7.524 -1.0435 -0.2592 -0.4579
 2292TIP3    H228436   6.554   0.377   7.472 -0.8119 -0.5420  0.2849
 2293TIP3   OH228437   0.970   3.095   6.308  0.1223 -0.8078 -0.2453
 2293TIP3    H128438   0.915   3.166   6.344 -1.1781 -1.7085 -0.3803
 2293TIP3    H228439   1.059   3.130   6.312 -0.1468 -0.1887  2.2421
 2294TIP3   OH228440   6.158   2.184   8.113  0.3796 -0.4678  0.3874
 2294TIP3    H128441   6.130   2.118   8.177  1.0721 -0.4981  0.6749
 2294TIP3    H228442   6.253   2.188   8.125  0.3314  0.6487  0.4303
 2295TIP3   OH228443   2.708   6.318   8.402 -0.1423  0.1839  0.3296
 2295TIP3    H128444   2.703   6.223   8.399 -1.2488  0.2258  0.5242
 2295TIP3    H228445   2.620   6.348   8.378  0.1781  1.1571  0.3125
 2296TIP3   OH228446   2.958   6.653   8.132 -0.2003  0.1797 -0.3081
 2296TIP3    H128447   2.890   6.682   8.072 -0.8093  1.3890  0.9205
 2296TIP3    H228448   2.984   6.733   8.180  2.6532 -0.0384 -1.2764
 2297TIP3   OH228449   1.026   2.420   6.492 -0.1886  0.2023 -0.0898
 2297TIP3    H128450   1.011   2.346   6.550 -0.7884  0.1959 -0.2498
 2297TIP3    H228451   1.119   2.414   6.469  0.0529  0.2166  0.8744
 2298TIP3   OH228452   4.266   2.144   6.867  0.2735 -0.0295  0.9518
 2298TIP3    H128453   4.338   2.197   6.833 -0.2451  0.6967  0.9413
 2298TIP3    H228454   4.198   2.151   6.800  1.0540 -2.7856 -0.2726
 2299TIP3   OH228455   3.519   5.836   8.486  0.0671  0.0728 -0.2122
 2299TIP3    H128456   3.565   5.919   8.497  1.0047 -0.1960 -1.7767
 2299TIP3    H228457   3.588   5.772   8.470 -0.6676  0.0874 -5.4571
 2300TIP3   OH228458   5.780   3.445   8.143 -0.0329 -0.5001 -0.6639
 2300TIP3    H128459   5.835   3.465   8.067 -0.1095 -1.0857 -0.8853
 2300TIP3    H228460   5.814   3.500   8.213  0.1816 -0.1149 -1.0661
 2301TIP3   OH228461   3.612   1.994   6.514  0.3803  0.5754  0.3234
 2301TIP3    H128462   3.539   2.056   6.504  0.6574  1.0354  1.1082
 2301TIP3    H228463   3.588   1.940   6.589  1.1330  1.1419  0.9836
 2302TIP3   OH228464   5.533   3.506   7.364  0.2467  0.3444 -0.1301
 2302TIP3    H128465   5.610   3.563   7.366 -0.6023  1.5148  0.4498
 2302TIP3    H228466   5.562   3.425   7.406  0.7080  1.3841  1.6675
 2303TIP3   OH228467   3.034   3.855   8.290 -0.1828 -0.2658 -1.0361
 2303TIP3    H128468   3.010   3.947   8.293 -1.6144 -0.6476  0.4149
 2303TIP3    H228469   2.954   3.810   8.262  0.5162 -1.0859 -1.8059
 2304TIP3   OH228470   0.009   2.946   8.578  0.4665  0.1895 -0.0588
 2304TIP3    H128471   0.022   2.959   8.484  0.6308  2.3097  0.2027
 2304TIP3    H228472   0.089   2.904   8.608  0.5522 -0.2020 -0.7902
 2305TIP3   OH228473   0.313   2.997   8.704  0.2535 -0.1509  0.0181
 2305TIP3    H128474   0.308   3.088   8.732 -0.0448 -0.0465 -0.3793
 2305TIP3    H228475   0.293   2.999   8.611 -0.8247 -0.7411  0.2209
 2306TIP3   OH228476   5.738   5.439   1.598  0.4529 -0.6062 -0.2878
 2306TIP3    H128477   5.653   5.478   1.619  1.1072  1.7081 -1.6335
 2306TIP3    H228478   5.787   5.509   1.557  2.4442 -2.3726 -1.0900
 2307TIP3   OH228479   5.197   2.027   7.045 -0.7560 -0.5963 -0.0964
 2307TIP3    H128480   5.138   2.091   7.003  1.7785  2.3373  0.4447
 2307TIP3    H228481   5.228   1.972   6.973  0.2740  1.6185 -1.4520
 2308TIP3   OH228482   5.894   4.859   1.781  0.0161 -0.2522 -0.6835
 2308TIP3    H128483   5.831   4.917   1.738 -2.3663 -0.7760  1.8317
 2308TIP3    H228484   5.946   4.917   1.837 -2.2865 -0.3657  1.7392
 2309TIP3   OH228485   3.599   3.204   7.958 -0.3982  0.1543 -0.4636
 2309TIP3    H128486   3.571   3.116   7.983  0.0331  0.0943 -0.1810
 2309TIP3    H228487   3.585   3.257   8.036  1.9745 -0.2586  0.3212
 2310TIP3   OH228488   5.683   1.636   1.074  0.0741  0.4243 -0.4433
 2310TIP3    H128489   5.674   1.644   0.979  1.5420 -0.3080 -0.6726
 2310TIP3    H228490   5.598   1.601   1.103 -0.7119  1.4979 -1.3449
 2311TIP3   OH228491   1.064   3.228   8.118  0.3253 -0.1402  0.4304
 2311TIP3    H128492   1.139   3.169   8.122  0.4142 -0.0424  0.2325
 2311TIP3    H228493   1.103   3.315   8.115  0.2454 -0.1323 -0.9860
 2312TIP3   OH228494   3.793   5.409   7.931  0.0316  0.4496  0.0593
 2312TIP3    H128495   3.793   5.331   7.987  1.4674  0.4782  0.1351
 2312TIP3    H228496   3.860   5.390   7.864  0.5628  1.6984  0.2135
 2313TIP3   OH228497   3.687   5.406   2.678  0.4283 -0.1782  0.1665
 2313TIP3    H128498   3.671   5.478   2.616  1.0033  0.5909  0.8834
 2313TIP3    H228499   3.739   5.446   2.748 -0.2310 -1.0173  1.1683
 2314TIP3   OH228500   2.419   5.200   0.800  0.4139 -0.8599  0.0573
 2314TIP3    H128501   2.474   5.140   0.749  0.0934 -0.0209 -1.3272
 2314TIP3    H228502   2.331   5.187   0.765  0.1337 -0.4756  0.6105
 2315TIP3   OH228503   6.205   0.437   1.812  0.4804  0.0692  0.4905
 2315TIP3    H128504   6.133   0.458   1.751 -0.8885 -2.5563  1.0737
 2315TIP3    H228505   6.178   0.475   1.895  0.8852  1.0039  0.2131
 2316TIP3   OH228506   0.548   4.960   7.472  0.2776  1.0164  0.1668
 2316TIP3    H128507   0.562   4.955   7.378  0.0878 -0.3342  0.1928
 2316TIP3    H228508   0.465   5.007   7.481 -0.4858 -0.1772 -0.4173
 2317TIP3   OH228509   5.120   0.979   1.056 -0.3510  0.4059  0.1264
 2317TIP3    H128510   5.157   0.960   0.970  0.5356 -0.2806  0.6372
 2317TIP3    H228511   5.168   1.057   1.086 -0.2266  0.2830  0.2496
 2318TIP3   OH228512   5.031   6.424   0.513  0.2017 -0.1399 -0.2448
 2318TIP3    H128513   5.113   6.410   0.466  0.4599 -2.6719  0.7820
 2318TIP3    H228514   4.972   6.357   0.479 -1.1382  1.0031 -0.2467
 2319TIP3   OH228515   1.018   4.284   1.848  0.3125 -0.1635 -0.3305
 2319TIP3    H128516   0.927   4.255   1.858  0.3121 -0.0777 -0.0989
 2319TIP3    H228517   1.068   4.229   1.907  0.3882 -0.0933 -0.3284
 2320TIP3   OH228518   2.231   6.704   0.424  0.3039 -0.5277 -0.7904
 2320TIP3    H128519   2.312   6.710   0.373 -0.6612  0.3465 -2.2689
 2320TIP3    H228520   2.163   6.683   0.360 -0.8293 -0.1374  0.2460
 2321TIP3   OH228521   4.421   3.200   7.268 -0.2559  0.3271 -0.4442
 2321TIP3    H128522   4.403   3.290   7.293  1.6634  0.1670  1.8599
 2321TIP3    H228523   4.511   3.201   7.236 -0.2504 -0.7529 -0.5075
 2322TIP3   OH228524   4.780   1.435   6.761  0.2403 -0.8378 -0.1835
 2322TIP3    H128525   4.732   1.491   6.822  3.8990  2.3518  0.0924
 2322TIP3    H228526   4.827   1.373   6.817  1.3171  0.1730  0.0481
 2323TIP3   OH228527   2.328   6.651   7.446 -0.2002  0.4370 -0.2564
 2323TIP3    H128528   2.378   6.654   7.527  1.2508  0.5789 -1.1236
 2323TIP3    H228529   2.391   6.671   7.377 -0.6970 -2.5132 -1.7573
 2324TIP3   OH228530   6.702   2.926   0.052 -0.4909  0.2591 -0.7793
 2324TIP3    H128531   6.760   2.872   0.105 -0.4931  0.2191 -0.8173
 2324TIP3    H228532   6.749   2.937  -0.031  0.7997  2.6004  0.1422
 2325TIP3   OH228533   1.614   3.672   7.135  0.0709 -0.6412 -0.1246
 2325TIP3    H128534   1.686   3.722   7.173 -0.8001 -0.9186  1.9895
 2325TIP3    H228535   1.611   3.701   7.044  1.1575  1.3276  0.4116
 2326TIP3   OH228536   4.472   6.413   0.606 -0.0132 -0.4676 -0.6215
 2326TIP3    H128537   4.489   6.328   0.648  2.3004  1.2799  2.4508
 2326TIP3    H228538   4.392   6.444   0.646  1.0529  0.2664  1.0346
 2327TIP3   OH228539   4.574   1.813   8.566 -0.3319 -0.2565  0.1472
 2327TIP3    H128540   4.519   1.738   8.544 -0.3385  0.0793 -1.0310
 2327TIP3    H228541   4.642   1.776   8.622 -1.2830 -0.8212  0.9530
 2328TIP3   OH228542   6.208   2.937   7.426  0.1074  0.0581  0.8349
 2328TIP3    H128543   6.227   2.957   7.517  2.4385  0.8525  0.2514
 2328TIP3    H228544   6.203   3.022   7.382 -0.8146 -0.3165  0.1766
 2329TIP3   OH228545   4.278   3.101   1.133  0.1701 -0.5051  0.1588
 2329TIP3    H128546   4.276   3.113   1.228  0.2007 -0.8069  0.1981
 2329TIP3    H228547   4.194   3.135   1.103 -0.5357 -1.9071  0.4734
 2330TIP3   OH228548   3.371   5.514   7.090 -0.1471  0.3253 -0.3033
 2330TIP3    H128549   3.327   5.572   7.151  0.4195 -0.8933  1.3235
 2330TIP3    H228550   3.305   5.450   7.065 -0.4107  0.8867 -1.1069
 2331TIP3   OH228551   5.540   6.729   7.829 -0.0803  0.6062 -0.9086
 2331TIP3    H128552   5.512   6.817   7.803  0.8499  0.8589 -1.1128
 2331TIP3    H228553   5.494   6.670   7.770 -1.5388  0.8680 -0.0858
 2332TIP3   OH228554   2.585   0.024   7.708 -0.4110 -0.1849  0.1009
 2332TIP3    H128555   2.542   0.084   7.648  0.2144  0.1130 -0.0601
 2332TIP3    H228556   2.545   0.041   7.793 -2.5640 -1.8291 -0.4997
 2333TIP3   OH228557   0.235   0.318   8.177 -0.0349 -0.0712 -0.4088
 2333TIP3    H128558   0.174   0.327   8.104  0.4565 -1.5898 -1.0324
 2333TIP3    H228559   0.284   0.239   8.158  1.2288  0.3958  0.7608
 2334TIP3   OH228560   4.533   2.249   7.399  0.1707  0.1730 -0.3147
 2334TIP3    H128561   4.473   2.290   7.462 -0.6122 -0.8617 -0.3570
 2334TIP3    H228562   4.477   2.220   7.327  0.7644 -0.4851 -0.5285
 2335TIP3   OH228563   4.776   6.508   8.272  0.6043 -0.0670 -0.1550
 2335TIP3    H128564   4.761   6.421   8.236  1.9752 -0.5126  0.2592
 2335TIP3    H228565   4.816   6.557   8.200  2.4231 -0.6579  0.3970
 2336TIP3   OH228566   5.686   2.574   7.665 -0.3206  0.1837 -0.9089
 2336TIP3    H128567   5.654   2.567   7.575  0.4037 -0.9860 -1.1019
 2336TIP3    H228568   5.759   2.512   7.669 -0.6898 -0.1854  0.6423
 2337TIP3   OH228569   4.698   0.721   0.485 -0.9110  0.5876 -0.2984
 2337TIP3    H128570   4.682   0.764   0.569 -0.2511 -0.7428  0.5399
 2337TIP3    H228571   4.748   0.643   0.507 -1.3563 -0.1810 -1.8612
 2338TIP3   OH228572   2.265   0.290   0.024  0.6673 -0.0176  0.1205
 2338TIP3    H128573   2.220   0.216  -0.017 -0.1623 -0.2465  1.4068
 2338TIP3    H228574   2.356   0.263   0.029  0.7137 -0.1748 -1.1089
 2339TIP3   OH228575   5.978   6.407   7.801  0.9180  1.0561 -0.0143
 2339TIP3    H128576   6.073   6.408   7.813  0.8525 -0.7335  0.9356
 2339TIP3    H228577   5.944   6.366   7.880 -0.5329  0.0888 -1.0924
 2340TIP3   OH228578   4.495   5.800   7.808 -0.1591  0.1398  0.2404
 2340TIP3    H128579   4.544   5.747   7.871  0.3706  2.7773  2.1869
 2340TIP3    H228580   4.430   5.846   7.861  0.5183  2.7132 -1.0356
 2341TIP3   OH228581   0.282   3.941   7.596  0.2247  0.2592 -0.2883
 2341TIP3    H128582   0.322   4.028   7.591 -1.1737  0.9426  0.1002
 2341TIP3    H228583   0.231   3.933   7.516  0.8902 -0.5159 -0.6632
 2342TIP3   OH228584   2.365   4.112   1.528 -0.4029  0.1759 -0.4770
 2342TIP3    H128585   2.370   4.066   1.444 -0.8982 -0.0392 -0.3931
 2342TIP3    H228586   2.388   4.202   1.507  0.7069 -0.1237 -0.6222
 2343TIP3   OH228587   3.158   4.551   0.641 -0.2810 -0.0745  0.7824
 2343TIP3    H128588   3.230   4.613   0.645 -1.7271  1.7240  0.2334
 2343TIP3    H228589   3.141   4.540   0.548 -0.5880 -0.6392  0.9012
 2344TIP3   OH228590   3.607   2.767   1.161  0.4217 -0.5355 -0.4049
 2344TIP3    H128591   3.661   2.845   1.148 -0.0351 -0.0483  0.5034
 2344TIP3    H228592   3.542   2.794   1.226 -0.2606 -1.4311 -0.7038
 2345TIP3   OH228593   4.540   0.265   0.022 -0.0464  0.2037  0.6300
 2345TIP3    H128594   4.603   0.198   0.049  0.5214  0.1244 -0.7687
 2345TIP3    H228595   4.455   0.221   0.024  0.1022 -0.0617  1.3035
 2346TIP3   OH228596   4.325   4.239   0.235 -0.0683 -0.7700 -0.0286
 2346TIP3    H128597   4.375   4.172   0.281  0.3123 -0.3317  0.2062
 2346TIP3    H228598   4.355   4.234   0.144 -0.3469 -1.1997 -0.0977
 2347TIP3   OH228599   3.533   0.399   8.289  0.1869 -0.4064  0.1230
 2347TIP3    H128600   3.543   0.329   8.353  1.6909 -0.6036 -0.2779
 2347TIP3    H228601   3.587   0.372   8.215  0.8655  1.1936 -0.0161
 2348TIP3   OH228602   5.373   3.520   7.132  0.1078 -0.3774 -0.8010
 2348TIP3    H128603   5.425   3.505   7.210 -2.1589 -2.1461  0.4933
 2348TIP3    H228604   5.296   3.567   7.163 -0.0343  0.4442 -2.3102
 2349TIP3   OH228605   0.095   3.646   7.239  0.2178 -0.0635 -0.3598
 2349TIP3    H128606   0.073   3.557   7.266 -0.9249  0.1137 -0.6575
 2349TIP3    H228607   0.080   3.647   7.144  1.2661  0.1630 -0.5386
 2350TIP3   OH228608   5.759   5.424   8.077 -0.1389  0.0510 -0.2645
 2350TIP3    H128609   5.771   5.516   8.057 -0.1476 -0.1126 -1.0771
 2350TIP3    H228610   5.846   5.393   8.103  0.2561 -0.0836 -1.6457
 2351TIP3   OH228611   4.774   5.926   7.897  0.0982  0.1604 -0.3119
 2351TIP3    H128612   4.778   5.848   7.843  0.6388 -0.0115 -0.0320
 2351TIP3    H228613   4.860   5.966   7.888 -0.2542  0.8635 -0.6504
 2352TIP3   OH228614   0.093   1.125   7.527  0.3130 -0.0717  0.1021
 2352TIP3    H128615   0.150   1.049   7.533 -0.5165 -0.6330  1.1145
 2352TIP3    H228616   0.085   1.142   7.433  2.2810  0.1421 -0.0593
 2353TIP3   OH228617   2.203   2.831   8.062 -0.0338 -0.3226 -0.1047
 2353TIP3    H128618   2.273   2.851   8.124  0.2092 -0.3557 -0.3669
 2353TIP3    H228619   2.240   2.763   8.005 -0.8416 -1.5657  0.7868
 2354TIP3   OH228620   6.420   3.965   0.099  0.2181  0.0849  0.1059
 2354TIP3    H128621   6.451   3.875   0.102  1.8388  0.5375 -1.3599
 2354TIP3    H228622   6.380   3.980   0.184 -2.1972 -2.7092 -0.3669
 2355TIP3   OH228623   0.343   4.403   8.393  0.0531 -0.5517  0.0260
 2355TIP3    H128624   0.257   4.373   8.422  0.0532 -1.7344 -1.0875
 2355TIP3    H228625   0.405   4.343   8.434  0.3615  0.2223  0.7278
 2356TIP3   OH228626   4.914   2.247   7.167  0.1383 -0.2900 -0.5872
 2356TIP3    H128627   4.851   2.317   7.177  1.7762  1.1243  0.4547
 2356TIP3    H228628   4.909   2.222   7.075  0.3560  2.0432 -1.2766
 2357TIP3   OH228629   3.150   3.420   7.252  0.7529  0.0328 -0.3322
 2357TIP3    H128630   3.152   3.365   7.330  2.3316  0.1280 -0.2671
 2357TIP3    H228631   3.093   3.372   7.191 -1.2569  0.4071  1.1358
 2358TIP3   OH228632   1.703   5.249   6.867 -0.2425  0.2848 -0.2137
 2358TIP3    H128633   1.726   5.283   6.780  1.3157 -0.2810 -0.0547
 2358TIP3    H228634   1.682   5.327   6.918 -0.4650  0.6847 -0.8919
 2359TIP3   OH228635   4.437   2.857   8.642 -0.2229  0.1943 -0.0910
 2359TIP3    H128636   4.499   2.786   8.655 -0.2490  0.1387 -0.2604
 2359TIP3    H228637   4.422   2.893   8.729  1.0806  1.0775 -0.2028
 2360TIP3   OH228638   2.022   0.126   2.164 -0.6278 -0.4821  0.2393
 2360TIP3    H128639   2.091   0.086   2.218 -1.5935 -0.2167  1.7297
 2360TIP3    H228640   1.956   0.058   2.157 -1.0626 -0.0869  0.4630
 2361TIP3   OH228641   0.180   3.953   0.876 -0.3802  0.5698  0.0335
 2361TIP3    H128642   0.165   3.900   0.798  0.7517 -1.8541  1.3663
 2361TIP3    H228643   0.095   3.959   0.918 -0.8409  1.2408 -0.9563
 2362TIP3   OH228644   5.235   4.827   7.713  0.1183  0.0816 -0.0202
 2362TIP3    H128645   5.197   4.745   7.744  0.1059 -0.5466 -1.5874
 2362TIP3    H228646   5.264   4.807   7.624 -2.1190  2.3926 -1.4167
 2363TIP3   OH228647   1.927   3.013   7.444 -0.1439  0.0007 -0.1313
 2363TIP3    H128648   1.841   2.975   7.425  0.0983  0.0339 -1.3832
 2363TIP3    H228649   1.985   2.937   7.449 -0.3089 -0.0579  1.1761
 2364TIP3   OH228650   3.636   2.474   7.434  0.4117  0.7017  0.0795
 2364TIP3    H128651   3.645   2.494   7.527 -0.5238  0.7806  0.1628
 2364TIP3    H228652   3.606   2.383   7.433 -0.7611  1.0745 -0.0889
 2365TIP3   OH228653   2.785   0.425   1.074  0.5199 -0.6294 -0.6568
 2365TIP3    H128654   2.848   0.356   1.094  0.4263 -0.4237  0.3649
 2365TIP3    H228655   2.838   0.504   1.067  0.5758 -0.7252 -1.4444
 2366TIP3   OH228656   5.490   4.065   1.687 -0.3966  0.5686 -0.0352
 2366TIP3    H128657   5.462   4.098   1.773  0.9810  0.8657  0.3218
 2366TIP3    H228658   5.541   3.987   1.707 -1.5615 -0.3963 -0.7244
 2367TIP3   OH228659   5.606   1.824   7.350 -0.4879 -0.3280 -0.0859
 2367TIP3    H128660   5.537   1.852   7.290 -0.5174  2.2255  1.0182
 2367TIP3    H228661   5.685   1.822   7.297 -0.9415 -0.5812 -0.7591
 2368TIP3   OH228662   0.828   5.237   6.242  0.3106  0.7045  0.0066
 2368TIP3    H128663   0.782   5.298   6.184  0.3284 -0.1498 -0.9470
 2368TIP3    H228664   0.815   5.151   6.201  0.5173  0.1063  1.1686
 2369TIP3   OH228665   2.354   1.065   0.549  0.0686 -0.1859 -0.1205
 2369TIP3    H128666   2.290   0.998   0.525  0.8384 -0.9668 -0.0582
 2369TIP3    H228667   2.433   1.016   0.569  0.9557  0.8100 -1.0479
 2370TIP3   OH228668   3.556   4.661   8.164  0.0248  0.0785 -0.4702
 2370TIP3    H128669   3.511   4.741   8.193  0.7219 -0.2811  1.7340
 2370TIP3    H228670   3.599   4.687   8.082 -0.5131  1.6995 -0.2824
 2371TIP3   OH228671   2.866   5.465   0.113 -0.5986  0.2340 -0.8850
 2371TIP3    H128672   2.798   5.452   0.180 -0.2763 -0.2184 -0.6414
 2371TIP3    H228673   2.947   5.439   0.156 -0.5129 -0.9949 -1.7562
 2372TIP3   OH228674   2.577   2.690   2.593 -0.2244 -0.5055  0.0603
 2372TIP3    H128675   2.608   2.600   2.579 -0.0813 -0.3064 -0.9697
 2372TIP3    H228676   2.483   2.681   2.607 -0.1779 -0.8386  0.1703
 2373TIP3   OH228677   0.997   3.629   1.884 -0.0674  0.0772 -0.1115
 2373TIP3    H128678   0.941   3.642   1.807 -0.9766  0.0772  0.5342
 2373TIP3    H228679   0.936   3.615   1.956  0.7859 -1.6146  0.3260
 2374TIP3   OH228680   5.405   4.799   0.645  0.3524  0.2364 -0.1544
 2374TIP3    H128681   5.352   4.743   0.588 -0.2173 -0.7422  1.2619
 2374TIP3    H228682   5.347   4.819   0.719  2.0459 -1.2985  1.7156
 2375TIP3   OH228683   2.626   4.628   7.569  0.6320  0.2630 -0.4645
 2375TIP3    H128684   2.670   4.647   7.652 -1.3456 -0.9145  0.9395
 2375TIP3    H228685   2.551   4.574   7.594 -0.0506 -0.0851 -3.0405
 2376TIP3   OH228686   5.267   1.876   7.269 -0.3064 -0.3715  0.1184
 2376TIP3    H128687   5.226   1.916   7.193 -1.9422 -0.9391  0.6463
 2376TIP3    H228688   5.251   1.938   7.340  1.0007  0.0454  0.0639
 2377TIP3   OH228689   4.407   4.223   8.680  0.0656 -0.0468 -0.4322
 2377TIP3    H128690   4.330   4.262   8.638  0.4872 -0.0845 -1.2582
 2377TIP3    H228691   4.480   4.245   8.623  1.2359  2.6029  1.8809
 2378TIP3   OH228692   3.539   3.628   8.039  0.0489 -0.3183 -0.0699
 2378TIP3    H128693   3.458   3.627   8.090  0.7983 -2.3113  1.2318
 2378TIP3    H228694   3.514   3.594   7.953 -0.8723  1.2364 -0.4565
 2379TIP3   OH228695   5.576   4.923   1.121 -0.0287 -0.4094 -0.2380
 2379TIP3    H128696   5.590   4.962   1.207  2.7309 -1.2430 -0.2149
 2379TIP3    H228697   5.493   4.877   1.129 -0.1647  0.0941  1.7538
 2380TIP3   OH228698   0.721   6.114   7.079 -0.4592 -0.1009  0.8216
 2380TIP3    H128699   0.679   6.053   7.140 -0.3639 -0.6895  0.3188
 2380TIP3    H228700   0.680   6.095   6.994  1.4919 -1.4447  0.0851
 2381TIP3   OH228701   6.777   0.107   7.036 -0.5215 -0.0926 -0.2711
 2381TIP3    H128702   6.688   0.141   7.044 -0.6113 -0.3037 -0.3726
 2381TIP3    H228703   6.809   0.101   7.126 -0.4476  0.4068 -0.2588
 2382TIP3   OH228704   3.030   0.283   1.171  0.3382 -0.0691  0.4957
 2382TIP3    H128705   2.998   0.199   1.202 -1.8372  0.5855  0.1752
 2382TIP3    H228706   3.021   0.342   1.245  0.1587  0.2759  0.2053
 2383TIP3   OH228707   2.083   3.302   6.988  0.7301  0.0841 -0.0958
 2383TIP3    H128708   2.064   3.225   6.935  1.5754  0.3116 -0.7356
 2383TIP3    H228709   2.040   3.374   6.943  0.9584  0.1849 -0.1517
 2384TIP3   OH228710   2.988   2.092   0.107 -0.9368  0.2089  0.1877
 2384TIP3    H128711   3.039   2.148   0.048  0.0621 -0.8507  0.0042
 2384TIP3    H228712   3.038   2.093   0.189  0.0167 -1.6601 -0.3042
 2385TIP3   OH228713   4.715   4.783   0.453  0.3908 -0.0400 -0.1635
 2385TIP3    H128714   4.725   4.803   0.360 -3.2236  1.0694 -0.4752
 2385TIP3    H228715   4.629   4.742   0.460 -0.8096  2.5474  2.9542
 2386TIP3   OH228716   6.523   4.563   1.691  0.3216  0.0896  0.6232
 2386TIP3    H128717   6.576   4.609   1.626 -0.1955 -0.2782 -0.0688
 2386TIP3    H228718   6.484   4.632   1.745  0.7244  0.3942  0.5328
 2387TIP3   OH228719   1.678   4.270   1.893  0.5744  0.1892  0.2027
 2387TIP3    H128720   1.634   4.208   1.951  1.0062 -0.9639 -0.6578
 2387TIP3    H228721   1.724   4.330   1.953 -0.0042 -0.2035  1.0630
 2388TIP3   OH228722   5.890   6.297   8.050 -0.4346 -0.7473 -0.3323
 2388TIP3    H128723   5.905   6.321   8.142 -0.4569 -0.4136 -0.4163
 2388TIP3    H228724   5.972   6.254   8.024  1.0274  2.2784 -1.1946
 2389TIP3   OH228725   0.636   2.836   2.099 -0.6657  0.8874  0.2944
 2389TIP3    H128726   0.690   2.789   2.163  1.6232 -0.5112 -2.4186
 2389TIP3    H228727   0.560   2.779   2.086 -0.1011  0.1245  0.2561
 2390TIP3   OH228728   3.113   3.994   1.064 -0.0708  0.1446  0.3599
 2390TIP3    H128729   3.082   4.054   1.132 -0.1245 -0.0525  0.5119
 2390TIP3    H228730   3.172   4.047   1.011 -0.9018  0.6071 -0.1208
 2391TIP3   OH228731   4.989   1.720   7.320 -0.4356  0.0769  0.2727
 2391TIP3    H128732   4.942   1.760   7.246 -0.1435 -2.3644 -1.3693
 2391TIP3    H228733   5.066   1.774   7.332 -1.4810  1.6701  0.1430
 2392TIP3   OH228734   3.899   0.223   1.977 -0.3558 -0.1273 -0.0894
 2392TIP3    H128735   3.994   0.235   1.980 -0.4508  1.4185 -1.7136
 2392TIP3    H228736   3.877   0.183   2.061  1.5452  0.9250  0.9602
 2393TIP3   OH228737   4.232   5.626   7.682  0.1390 -0.4483 -0.2017
 2393TIP3    H128738   4.238   5.710   7.637 -0.2565 -0.7510 -0.8522
 2393TIP3    H228739   4.232   5.648   7.775  0.4013  0.2415 -0.3599
 2394TIP3   OH228740   0.161   0.385   8.602  0.2811  0.6373  0.2975
 2394TIP3    H128741   0.073   0.402   8.637  0.2926 -1.0030  1.2353
 2394TIP3    H228742   0.196   0.472   8.584 -1.1842  1.3814  0.7861
 2395TIP3   OH228743   3.167   0.649   6.568 -0.0648  0.0160  0.2225
 2395TIP3    H128744   3.164   0.745   6.561  1.0173  0.0871  0.5370
 2395TIP3    H228745   3.203   0.620   6.484  0.3463 -0.0600  0.4247
 2396TIP3   OH228746   1.929   2.092   1.605 -0.3607 -0.0686  0.3574
 2396TIP3    H128747   1.855   2.080   1.545 -1.0865 -1.5544  1.4907
 2396TIP3    H228748   2.002   2.116   1.548 -0.9708 -1.6310 -1.1679
 2397TIP3   OH228749   3.308   4.168   0.931  0.1149 -0.1131  0.9668
 2397TIP3    H128750   3.266   4.105   0.873 -0.7846 -1.0255  2.5310
 2397TIP3    H228751   3.245   4.239   0.939  1.2946  1.2812 -1.1197
 2398TIP3   OH228752   1.043   6.082   2.079  0.5970 -0.2519  0.6178
 2398TIP3    H128753   1.002   5.996   2.070  1.3285 -0.7936  2.1074
 2398TIP3    H228754   0.977   6.136   2.123  0.4736 -0.3153  0.5101
 2399TIP3   OH228755   0.205   3.401   0.554  0.3295 -0.1385 -0.0085
 2399TIP3    H128756   0.224   3.470   0.490  2.9423 -1.9907 -1.4317
 2399TIP3    H228757   0.137   3.347   0.512  2.0290 -1.3442 -1.3735
 2400TIP3   OH228758   5.773   5.001   8.557  0.1716 -0.0205 -0.1790
 2400TIP3    H128759   5.830   4.937   8.516  1.1462  0.4576  0.3922
 2400TIP3    H228760   5.692   4.953   8.576 -0.1951 -0.3358 -2.2952
 2401TIP3   OH228761   4.445   3.930   6.696 -0.0289 -0.3642 -0.0663
 2401TIP3    H128762   4.531   3.972   6.701  0.2178 -0.9593  1.0662
 2401TIP3    H228763   4.463   3.838   6.681 -0.4130 -0.6511  1.1128
 2402TIP3   OH228764   0.270   0.829   1.370  0.1179 -0.2793 -0.0120
 2402TIP3    H128765   0.358   0.805   1.401  0.6506  2.4312  0.8022
 2402TIP3    H228766   0.285   0.896   1.304 -1.3228 -0.1199 -0.1980
 2403TIP3   OH228767   1.968   4.485   0.983 -0.3808 -0.4363 -0.4333
 2403TIP3    H128768   1.992   4.425   0.912  0.2993  1.0273 -1.4810
 2403TIP3    H228769   2.051   4.513   1.020 -0.6993 -0.3269  0.2031
 2404TIP3   OH228770   2.396   1.614   7.396 -0.4958  0.2718  0.3490
 2404TIP3    H128771   2.382   1.548   7.328 -0.0387 -0.5536  1.0384
 2404TIP3    H228772   2.466   1.578   7.450  0.9620  2.0945 -0.2204
 2405TIP3   OH228773   3.317   3.184   8.577 -0.5454  0.5445  0.1666
 2405TIP3    H128774   3.338   3.092   8.565 -1.0115  0.5254 -0.5089
 2405TIP3    H228775   3.322   3.197   8.672  1.1255  0.2219  0.1636
 2406TIP3   OH228776   5.218   6.788   1.417 -0.4208  0.4446 -0.3016
 2406TIP3    H128777   5.219   6.871   1.464  0.3487 -0.2682  0.9989
 2406TIP3    H228778   5.296   6.791   1.362  0.9274 -0.3172  1.4666
 2407TIP3   OH228779   5.146   0.825   7.015 -0.3868  0.0924  0.5664
 2407TIP3    H128780   5.076   0.778   7.059 -0.3158 -0.9295 -0.3297
 2407TIP3    H228781   5.218   0.826   7.078  0.5819 -3.4991 -0.2044
 2408TIP3   OH228782   4.840   6.629   6.615 -0.7432 -0.1479 -0.1933
 2408TIP3    H128783   4.913   6.681   6.651 -0.3214  0.2185 -1.5288
 2408TIP3    H228784   4.764   6.660   6.663 -0.3216  0.9166 -0.1785
 2409TIP3   OH228785   3.122   1.374   8.631  0.5668  0.0089 -0.2852
 2409TIP3    H128786   3.143   1.467   8.640  0.2091  0.1408 -0.7402
 2409TIP3    H228787   3.154   1.351   8.544 -0.8767  0.1460 -0.8783
 2410TIP3   OH228788   4.516   1.573   1.151  0.7285  0.1907 -0.1549
 2410TIP3    H128789   4.442   1.598   1.206  0.5644  1.0845 -0.7457
 2410TIP3    H228790   4.485   1.497   1.101  0.8245 -0.5201  0.8516
 2411TIP3   OH228791   1.972   6.674   0.893  0.5419 -0.0082  0.1137
 2411TIP3    H128792   1.979   6.765   0.863 -1.3892  0.3089  0.4449
 2411TIP3    H228793   1.916   6.679   0.970  0.0612 -1.5239 -0.0979
 2412TIP3   OH228794   5.506   2.596   1.805 -0.7815  0.2882  0.0809
 2412TIP3    H128795   5.584   2.647   1.783 -1.3029  0.3156 -1.8867
 2412TIP3    H228796   5.540   2.512   1.837  0.0382  0.8584  0.7667
 2413TIP3   OH228797   2.041   1.208   1.168 -0.5978  0.1908 -0.5491
 2413TIP3    H128798   1.999   1.271   1.226  1.6288  0.8059  0.4897
 2413TIP3    H228799   2.013   1.122   1.201 -2.0912  0.5672 -0.7644
 2414TIP3   OH228800   3.365   5.460   2.431 -0.4760  0.1344 -0.0213
 2414TIP3    H128801   3.408   5.533   2.386 -1.6142  1.1766  0.5347
 2414TIP3    H228802   3.283   5.447   2.382 -0.0311 -1.1616 -0.4597
 2415TIP3   OH228803   5.612   0.213   7.506 -0.0395  0.4098  0.2459
 2415TIP3    H128804   5.560   0.287   7.539  0.2374  0.0861  1.4467
 2415TIP3    H228805   5.559   0.136   7.524  0.9452  0.0456  1.7564
 2416TIP3   OH228806   3.329   6.336   0.902  0.0609  0.1379 -0.1083
 2416TIP3    H128807   3.277   6.350   0.823  0.5450  1.7383 -0.1699
 2416TIP3    H228808   3.299   6.252   0.935 -1.0163  0.0095 -1.3313
 2417TIP3   OH228809   1.156   0.798   6.057  0.7565  0.2181 -0.8022
 2417TIP3    H128810   1.200   0.782   5.973  1.1203  0.7001 -0.7045
 2417TIP3    H228811   1.212   0.861   6.102  2.6092 -2.7953  1.4398
 2418TIP3   OH228812   6.154   6.589   8.114  0.1267 -0.5336  0.2460
 2418TIP3    H128813   6.231   6.557   8.160 -0.2205  0.6780  1.7626
 2418TIP3    H228814   6.168   6.566   8.023  1.4957 -1.7983  0.7484
 2419TIP3   OH228815   0.887   2.026   1.196  0.7012 -0.0481  0.2017
 2419TIP3    H128816   0.816   1.972   1.161  0.1425  0.4013  0.6388
 2419TIP3    H228817   0.948   1.963   1.234  1.2454 -0.5480 -1.4044
 2420TIP3   OH228818   6.301   2.641   7.672 -0.1104  0.4866 -0.9281
 2420TIP3    H128819   6.310   2.564   7.727  1.4486 -0.0797 -1.9152
 2420TIP3    H228820   6.355   2.623   7.596  0.1985  2.5117 -1.2502
 2421TIP3   OH228821   4.440   3.748   1.795 -0.1043  0.8451 -0.0133
 2421TIP3    H128822   4.429   3.828   1.846 -1.8137  0.9978 -0.5483
 2421TIP3    H228823   4.353   3.730   1.759  0.3412 -1.0152 -0.2757
 2422TIP3   OH228824   1.493   5.495   1.478  0.0416  0.0234  0.0312
 2422TIP3    H128825   1.399   5.486   1.493  0.3294  0.9493  3.0580
 2422TIP3    H228826   1.534   5.441   1.545  1.7489 -1.4003 -2.0329
 2423TIP3   OH228827   6.225   1.049   8.661  0.0603  0.0145  0.4633
 2423TIP3    H128828   6.172   1.094   8.594 -0.8813  0.0826  1.2273
 2423TIP3    H228829   6.256   0.970   8.617 -0.9747 -0.1998  0.0770
 2424TIP3   OH228830   2.166   2.698   0.834 -0.2645 -0.0100  0.0362
 2424TIP3    H128831   2.128   2.781   0.806 -1.2817  0.0636  1.5714
 2424TIP3    H228832   2.095   2.651   0.877  0.8438 -0.7654  1.1209
 2425TIP3   OH228833   5.078   6.389   7.027 -0.0867 -0.3448  0.0185
 2425TIP3    H128834   5.165   6.409   6.992  0.7250 -3.9000 -0.3841
 2425TIP3    H228835   5.094   6.330   7.101 -2.0928 -2.8650 -1.3734
 2426TIP3   OH228836   3.565   2.207   1.759 -0.1460 -0.2537 -0.1326
 2426TIP3    H128837   3.521   2.247   1.835  0.5440 -0.4902  0.4032
 2426TIP3    H228838   3.551   2.113   1.771  1.5427 -0.4469  0.7497
 2427TIP3   OH228839   2.038   1.249   0.188 -0.0204  0.4594 -0.5893
 2427TIP3    H128840   2.098   1.285   0.253  0.8500 -3.0872  0.7986
 2427TIP3    H228841   1.960   1.305   0.194  2.1350  3.6891 -0.7041
 2428TIP3   OH228842   4.956   1.249   8.533 -0.3793 -0.5104 -0.1489
 2428TIP3    H128843   4.908   1.224   8.454  0.3542 -0.5106 -0.6099
 2428TIP3    H228844   4.938   1.179   8.596 -0.7548 -0.6465 -0.4053
 2429TIP3   OH228845   3.975   1.594   6.977 -0.8983  0.7821 -0.4420
 2429TIP3    H128846   3.955   1.594   6.883  1.0948 -0.6748 -0.9149
 2429TIP3    H228847   3.893   1.564   7.018 -1.4159  0.2246 -1.8102
 2430TIP3   OH228848   0.658   4.777   1.812 -0.0918 -0.5950 -0.0580
 2430TIP3    H128849   0.649   4.692   1.855  1.6037  0.0779  1.7592
 2430TIP3    H228850   0.698   4.834   1.877  1.8061  0.7605 -2.2264
 2431TIP3   OH228851   2.621   0.619   2.387 -0.4593 -0.1689 -0.3259
 2431TIP3    H128852   2.578   0.688   2.335  2.8008  0.6406 -2.2402
 2431TIP3    H228853   2.582   0.538   2.355 -0.2330  0.4793 -2.4060
 2432TIP3   OH228854   2.949   1.069   0.326  0.1836 -0.2684  0.1245
 2432TIP3    H128855   3.019   1.126   0.295  1.8155 -1.3723  1.5227
 2432TIP3    H228856   2.897   1.124   0.384  0.8545  0.1892  0.3048
 2433TIP3   OH228857   3.520   3.856   2.226  0.4999  0.2734  0.3051
 2433TIP3    H128858   3.461   3.799   2.176  0.8955 -0.2121  0.3847
 2433TIP3    H228859   3.499   3.944   2.197  0.7763 -0.0074 -0.7738
 2434TIP3   OH228860   3.687   2.325   7.131 -0.0075 -0.0872 -0.5324
 2434TIP3    H128861   3.769   2.351   7.173 -0.6155 -1.2246  1.4739
 2434TIP3    H228862   3.710   2.248   7.079  0.1630 -0.4784  0.1241
 2435TIP3   OH228863   3.274   5.761   8.178 -0.1522 -0.0404 -0.2332
 2435TIP3    H128864   3.253   5.714   8.097  1.6461  0.0317 -0.7901
 2435TIP3    H228865   3.251   5.852   8.159  1.1041  0.1370 -1.0338
 2436TIP3   OH228866   6.101   4.423   0.274 -0.2919  0.3653 -0.5749
 2436TIP3    H128867   6.093   4.341   0.323  4.9786 -0.0210  0.2163
 2436TIP3    H228868   6.059   4.489   0.330 -0.8973 -1.1848  0.8569
 2437TIP3   OH228869   0.735   5.001   7.253  0.1956 -0.0530 -0.4100
 2437TIP3    H128870   0.669   5.040   7.195  0.3981 -0.6231 -1.0371
 2437TIP3    H228871   0.792   4.952   7.194 -1.1502 -2.8923  0.5116
 2438TIP3   OH228872   6.789   5.161   7.993 -0.2441 -0.1171  0.0950
 2438TIP3    H128873   6.696   5.145   8.009 -0.3373  0.3361  0.0019
 2438TIP3    H228874   6.834   5.096   8.047 -0.6210 -0.7304 -0.3167
 2439TIP3   OH228875   3.637   3.421   7.144  0.5515  0.5046 -0.1062
 2439TIP3    H128876   3.551   3.456   7.167  0.3405  0.5277 -0.8922
 2439TIP3    H228877   3.621   3.371   7.063  0.9730 -0.8135  0.5923
 2440TIP3   OH228878   4.739   1.667   0.027 -0.2768  0.4724  0.4739
 2440TIP3    H128879   4.665   1.610   0.049  0.1868 -0.2219  0.2867
 2440TIP3    H228880   4.775   1.693   0.112 -0.8246  0.9416  0.5679
 2441TIP3   OH228881   3.344   4.433   0.451 -0.1779 -0.2685 -0.6827
 2441TIP3    H128882   3.366   4.486   0.528  0.7314 -0.0321 -1.0933
 2441TIP3    H228883   3.409   4.458   0.385  0.0495 -1.6356 -1.0135
 2442TIP3   OH228884   1.239   2.295   1.462 -0.1440  0.1240 -0.2777
 2442TIP3    H128885   1.159   2.284   1.411  1.2046 -1.4684 -2.2276
 2442TIP3    H228886   1.303   2.328   1.399  1.2222 -0.5100  0.7195
 2443TIP3   OH228887   6.165   4.100   7.712 -0.2214  0.4291  0.1228
 2443TIP3    H128888   6.081   4.135   7.682 -0.8822 -1.7205 -0.7264
 2443TIP3    H228889   6.144   4.013   7.746  1.5352  0.2225  0.8014
 2444TIP3   OH228890   4.192   6.525   1.672  0.5461 -0.5036 -0.0316
 2444TIP3    H128891   4.099   6.524   1.696  0.4878 -0.4366 -0.2525
 2444TIP3    H228892   4.195   6.574   1.590  0.5316 -2.0797 -1.0129
 2445TIP3   OH228893   6.124   6.745   0.434  0.3265  0.6102 -0.5610
 2445TIP3    H128894   6.109   6.656   0.404 -1.4425  0.6983 -0.0607
 2445TIP3    H228895   6.116   6.799   0.355  1.7304  0.3287 -0.9230
 2446TIP3   OH228896   2.123   3.175   6.268 -0.2059  0.1185  0.4520
 2446TIP3    H128897   2.100   3.086   6.243  1.0964 -0.8529  2.4013
 2446TIP3    H228898   2.157   3.215   6.188 -0.4710 -1.2519 -0.3751
 2447TIP3   OH228899   1.796   1.220   0.967 -0.1630 -0.3157 -0.4608
 2447TIP3    H128900   1.818   1.127   0.957  1.9165 -0.0838  1.2001
 2447TIP3    H228901   1.857   1.252   1.034 -2.7620  1.6082  1.1648
 2448TIP3   OH228902   0.471   6.275   6.227 -0.1268 -0.0909  0.1121
 2448TIP3    H128903   0.551   6.311   6.266 -0.2310 -0.6902  0.8974
 2448TIP3    H228904   0.490   6.183   6.213 -0.0616  0.1191 -1.3889
 2449TIP3   OH228905   3.766   5.287   8.361  0.6320 -0.2463  0.0031
 2449TIP3    H128906   3.837   5.325   8.413  1.0188 -1.3398  0.3173
 2449TIP3    H228907   3.805   5.208   8.322  0.5910  0.9154 -2.5694
 2450TIP3   OH228908   1.103   4.558   1.537  0.1614 -0.0548  0.6646
 2450TIP3    H128909   1.139   4.520   1.617  0.1574  1.9075  1.6457
 2450TIP3    H228910   1.180   4.589   1.489  0.3204 -2.6821 -0.9684
 2451TIP3   OH228911   2.339   5.092   7.144 -0.2892  0.0418 -0.9517
 2451TIP3    H128912   2.326   5.125   7.233 -0.8580  0.9829 -1.3681
 2451TIP3    H228913   2.417   5.138   7.113  0.1814 -0.6264 -0.7978
 2452TIP3   OH228914   3.920   3.932   1.201  0.3808  0.4299  0.0086
 2452TIP3    H128915   3.987   3.999   1.214  2.6275 -1.5025 -0.7065
 2452TIP3    H228916   3.914   3.922   1.106 -1.5117  1.0680  0.0310
 2453TIP3   OH228917   6.397   1.620   8.182 -0.5122  0.1310 -0.4764
 2453TIP3    H128918   6.321   1.661   8.223 -0.3256  0.9568 -0.9452
 2453TIP3    H228919   6.428   1.558   8.248 -1.6929 -0.3561 -0.3554
 2454TIP3   OH228920   5.225   2.720   1.797 -0.2375  0.6746  0.1998
 2454TIP3    H128921   5.318   2.712   1.820 -0.3724  0.6247  0.7324
 2454TIP3    H228922   5.216   2.666   1.718 -0.6536 -2.9470  2.4587
 2455TIP3   OH228923   3.225   5.127   2.092  0.0349 -0.0250 -0.2187
 2455TIP3    H128924   3.143   5.094   2.127 -0.3236  0.4364 -0.6103
 2455TIP3    H228925   3.215   5.119   1.997  0.5056 -0.1132 -0.2629
 2456TIP3   OH228926   2.406   0.073   7.904  0.3187 -0.1031 -0.9836
 2456TIP3    H128927   2.311   0.084   7.900 -0.0402 -2.3705 -0.1838
 2456TIP3    H228928   2.423   0.045   7.994  1.9247  1.3182 -0.7852
 2457TIP3   OH228929   4.856   1.470   6.496  0.1142 -0.1629 -0.0309
 2457TIP3    H128930   4.906   1.550   6.516 -1.2538  0.8035 -0.3014
 2457TIP3    H228931   4.818   1.445   6.580  0.4915 -0.4931  0.0409
 2458TIP3   OH228932   3.335   2.475   1.466  0.0243  0.2045  0.3669
 2458TIP3    H128933   3.365   2.564   1.484 -2.9703  0.7725  3.6184
 2458TIP3    H228934   3.243   2.485   1.440  0.2253 -1.8789 -1.4913
 2459TIP3   OH228935   5.072   6.772   0.836  0.4191  0.2967  0.1752
 2459TIP3    H128936   4.990   6.774   0.884  1.5860 -0.4510  2.3549
 2459TIP3    H228937   5.112   6.858   0.853  0.6566  0.1845  0.1924
 2460TIP3   OH228938   6.002   1.776   2.371  0.2026 -0.1467 -0.4797
 2460TIP3    H128939   6.027   1.696   2.417 -1.5507 -0.2398  0.4199
 2460TIP3    H228940   6.084   1.811   2.336  1.2249 -1.4806  0.4825
 2461TIP3   OH228941   0.245   2.383   1.803  0.2198  0.2391  0.2839
 2461TIP3    H128942   0.188   2.451   1.767  0.6377  2.1488  2.9640
 2461TIP3    H228943   0.215   2.371   1.893  1.1922 -2.0343  0.3748
 2462TIP3   OH228944   2.930   1.185   8.062  0.1469  0.2276 -0.1771
 2462TIP3    H128945   2.903   1.224   7.979  2.6190  0.8375 -0.7958
 2462TIP3    H228946   2.874   1.108   8.073 -0.9407  0.7438 -1.8682
 2463TIP3   OH228947   1.632   1.774   6.617  0.3315 -0.0130 -0.2309
 2463TIP3    H128948   1.608   1.693   6.572  1.9050 -0.8013  0.2510
 2463TIP3    H228949   1.680   1.825   6.552  0.4650 -0.0541 -0.1660
 2464TIP3   OH228950   5.681   3.262   7.437 -0.3252 -0.6817 -0.0215
 2464TIP3    H128951   5.656   3.170   7.422 -0.8481 -0.3603 -1.2336
 2464TIP3    H228952   5.737   3.284   7.362 -1.1742  0.3291 -0.3839
 2465TIP3   OH228953   1.787   4.918   6.655  0.2876  0.4380  0.0569
 2465TIP3    H128954   1.840   4.998   6.646  1.1490 -0.0340  0.7256
 2465TIP3    H228955   1.737   4.912   6.574  0.4375  1.4978 -0.1244
 2466TIP3   OH228956   5.513   1.457   7.760  0.3301 -0.2420 -0.2838
 2466TIP3    H128957   5.588   1.508   7.792 -0.6444  0.1340  1.5529
 2466TIP3    H228958   5.461   1.439   7.838 -1.4795 -0.5402 -1.4883
 2467TIP3   OH228959   4.605   1.108   7.264 -0.3754 -0.2761 -0.0496
 2467TIP3    H128960   4.513   1.129   7.246 -0.3119  0.5058  0.4920
 2467TIP3    H228961   4.652   1.137   7.186 -0.4798  0.2047  0.0615
 2468TIP3   OH228962   0.963   5.567   1.754  0.3333  0.3932 -0.5404
 2468TIP3    H128963   0.877   5.535   1.781  0.2100 -0.7298 -2.1193
 2468TIP3    H228964   0.952   5.662   1.745 -0.4618  0.3793  0.1891
 2469TIP3   OH228965   4.351   3.830   0.566  0.4616  0.2025 -0.0637
 2469TIP3    H128966   4.396   3.880   0.498 -1.2059  2.0637  0.1152
 2469TIP3    H228967   4.316   3.896   0.626 -0.3971 -1.2675  1.1348
 2470TIP3   OH228968   6.541   4.221   2.377 -0.1736  0.2192 -0.0689
 2470TIP3    H128969   6.460   4.273   2.373 -0.1863  0.1511 -1.0255
 2470TIP3    H228970   6.603   4.271   2.324 -0.2916 -0.8944 -1.3246
 2471TIP3   OH228971   2.969   2.630   2.253  0.0563 -0.1205 -0.3734
 2471TIP3    H128972   2.956   2.719   2.284  0.2916  0.1951 -1.1650
 2471TIP3    H228973   2.949   2.575   2.329  1.7225  0.6577  0.6720
 2472TIP3   OH228974   6.678   4.881   1.284 -0.7103  0.2612 -0.2608
 2472TIP3    H128975   6.655   4.799   1.240 -1.5874 -0.5354  1.5540
 2472TIP3    H228976   6.759   4.861   1.331 -0.5481  0.6580 -0.3713
 2473TIP3   OH228977   2.963   1.789   0.260  0.4182 -0.1598 -0.2475
 2473TIP3    H128978   2.920   1.784   0.345 -0.3832  1.7537 -0.4946
 2473TIP3    H228979   3.046   1.834   0.278  0.6484 -0.5336 -0.3548
 2474TIP3   OH228980   1.858   0.069   6.876 -1.5782 -0.3425 -0.1226
 2474TIP3    H128981   1.890   0.046   6.788  0.0837 -0.9313  0.5998
 2474TIP3    H228982   1.765   0.084   6.864 -1.2469  0.4096 -2.1562
 2475TIP3   OH228983   0.414   1.505   1.533  0.5047 -0.1233 -0.3750
 2475TIP3    H128984   0.464   1.464   1.463  1.7244 -1.2093  1.0514
 2475TIP3    H228985   0.333   1.453   1.538  0.2309  0.2087 -1.2100
 2476TIP3   OH228986   3.801   1.340   8.302 -1.1146  0.4179 -0.0966
 2476TIP3    H128987   3.886   1.305   8.328 -0.8174  0.4113 -1.0256
 2476TIP3    H228988   3.820   1.429   8.271 -1.4668  0.4824 -0.1300
 2477TIP3   OH228989   6.451   4.015   7.221  0.0627  0.2915 -0.0266
 2477TIP3    H128990   6.418   4.022   7.131  2.8689  1.0058 -1.1061
 2477TIP3    H228991   6.415   4.092   7.266  0.1068  0.9401 -1.0754
 2478TIP3   OH228992   4.174   4.005   8.084 -0.3064  0.5407 -0.1280
 2478TIP3    H128993   4.233   3.936   8.055 -2.6334 -1.2756 -0.8800
 2478TIP3    H228994   4.100   3.959   8.123 -0.9527  2.7155  1.4426
 2479TIP3   OH228995   5.209   6.287   1.143  0.3091 -0.0633  0.1061
 2479TIP3    H128996   5.175   6.335   1.218  1.4842  1.0271 -0.0316
 2479TIP3    H228997   5.131   6.247   1.103 -0.3030 -0.9349  2.0432
 2480TIP3   OH228998   0.332   0.218   1.374 -0.2156 -0.4727  0.1111
 2480TIP3    H128999   0.401   0.284   1.378  0.4126 -0.9943 -1.3230
 2480TIP3    H229000   0.270   0.243   1.443  1.5742 -0.2038  1.6995
 2481TIP3   OH229001   1.670   3.390   1.994  0.1080  0.1429 -0.0675
 2481TIP3    H129002   1.734   3.371   1.925 -1.1797  1.5794 -1.7668
 2481TIP3    H229003   1.711   3.460   2.045  0.6077 -0.1451 -0.0608
 2482TIP3   OH229004   4.052   4.738   1.620 -0.1974 -0.0717  0.3624
 2482TIP3    H129005   4.056   4.800   1.693  0.2927  0.0722  0.2177
 2482TIP3    H229006   4.004   4.784   1.551 -1.3434 -0.4946  0.8645
 2483TIP3   OH229007   3.812   4.814   6.884 -0.6115  0.9068  0.1264
 2483TIP3    H129008   3.795   4.727   6.921  2.9372  0.5775  1.3248
 2483TIP3    H229009   3.725   4.846   6.859 -2.1454 -2.7030  0.1723
 2484TIP3   OH229010   1.246   2.512   0.208  0.2272  0.3066  0.0498
 2484TIP3    H129011   1.251   2.474   0.296 -0.3093 -0.0542 -0.0727
 2484TIP3    H229012   1.157   2.494   0.179  0.2833  0.7680 -0.4159
 2485TIP3   OH229013   0.105   4.576   7.594 -0.2339  0.4558  0.9487
 2485TIP3    H129014   0.108   4.634   7.518  3.0545  2.2160  2.1958
 2485TIP3    H229015   0.028   4.605   7.644 -2.2358 -0.5036 -1.3727
 2486TIP3   OH229016   1.369   4.185   1.427  0.4887  0.2775  0.1918
 2486TIP3    H129017   1.364   4.142   1.512  2.2215 -1.3674 -0.4794
 2486TIP3    H229018   1.278   4.209   1.407 -0.0648 -0.1323  2.0760
 2487TIP3   OH229019   6.791   5.385   6.835  0.5148  0.1493 -0.1438
 2487TIP3    H129020   6.753   5.297   6.833  0.0428  0.3504 -0.3935
 2487TIP3    H229021   6.850   5.385   6.910 -0.4610  0.0186  0.6492
 2488TIP3   OH229022   0.934   4.140   8.174  0.1943 -0.2054  0.6798
 2488TIP3    H129023   0.984   4.180   8.104 -0.1826  0.5003  0.8069
 2488TIP3    H229024   0.891   4.064   8.133  0.9027 -0.4816  0.4406
 2489TIP3   OH229025   1.466   4.765   8.552 -0.0790 -0.2254  0.6993
 2489TIP3    H129026   1.448   4.758   8.646 -0.2783  0.2149  0.6920
 2489TIP3    H229027   1.453   4.857   8.532  2.1588  0.1327  0.6902
 2490TIP3   OH229028   6.695   6.535   7.672 -0.1386  0.2602 -0.0529
 2490TIP3    H129029   6.678   6.446   7.700  1.5832 -0.0494  0.1308
 2490TIP3    H229030   6.656   6.590   7.740 -0.2789 -0.3780  0.3888
 2491TIP3   OH229031   0.096   5.790   8.112  0.6175 -0.2070 -0.2096
 2491TIP3    H129032   0.134   5.843   8.182 -0.5318  1.4965 -0.8026
 2491TIP3    H229033   0.136   5.824   8.032 -1.2501  0.8997 -0.7423
 2492TIP3   OH229034   5.126   2.195   0.086 -0.2373  0.1076 -0.0001
 2492TIP3    H129035   5.185   2.271   0.089  1.2470 -0.8836 -1.8728
 2492TIP3    H229036   5.153   2.141   0.161  1.0045 -0.1238 -0.5801
 2493TIP3   OH229037   0.902   4.049   0.263  0.2527  0.1709 -0.0601
 2493TIP3    H129038   0.943   4.004   0.337 -1.5198 -0.7461  0.4325
 2493TIP3    H229039   0.919   3.993   0.187  1.0597  0.5048 -0.1316
 2494TIP3   OH229040   2.522   1.125   6.640 -0.2278 -0.4993 -0.4120
 2494TIP3    H129041   2.596   1.117   6.580 -0.4867  0.8355 -0.9552
 2494TIP3    H229042   2.515   1.219   6.657 -0.3592 -0.8107  1.4989
 2495TIP3   OH229043   6.308   1.249   2.124  0.1184 -0.2264 -0.4960
 2495TIP3    H129044   6.213   1.239   2.123 -0.1230  1.6332 -0.8064
 2495TIP3    H229045   6.340   1.179   2.180 -1.6994  0.7605  1.9322
 2496TIP3   OH229046   4.604   5.582   7.968  0.2920 -0.0095  0.6902
 2496TIP3    H129047   4.516   5.556   7.995  0.2924  1.0760  1.8337
 2496TIP3    H229048   4.647   5.609   8.049  0.9723  1.4779 -0.1263
 2497TIP3   OH229049   2.293   2.252   2.291 -0.4450  0.1342 -0.1895
 2497TIP3    H129050   2.285   2.329   2.235 -0.9611 -0.8145 -1.4634
 2497TIP3    H229051   2.234   2.269   2.364 -0.9222  0.7506 -0.7043
 2498TIP3   OH229052   3.076   6.255   0.215 -0.0224  0.4386  0.4513
 2498TIP3    H129053   3.067   6.202   0.136 -1.1299  3.0940 -1.3645
 2498TIP3    H229054   3.169   6.252   0.236  0.5713  0.7419 -1.8451
 2499TIP3   OH229055   1.108   0.142   7.781 -0.1267 -0.2616  0.4505
 2499TIP3    H129056   1.052   0.212   7.747 -1.6673 -0.5739  2.1528
 2499TIP3    H229057   1.127   0.087   7.704 -1.3355  0.4228 -0.3826
 2500TIP3   OH229058   6.005   0.524   0.621 -0.0095 -0.1874 -0.0433
 2500TIP3    H129059   6.080   0.536   0.679  0.6851 -1.2215 -0.6911
 2500TIP3    H229060   5.972   0.613   0.605 -1.0460  0.0678  2.9270
 2501TIP3   OH229061   0.924   3.647   8.112 -0.4146 -0.2105  0.6253
 2501TIP3    H129062   0.870   3.652   8.033  0.2189  0.0764  0.2022
 2501TIP3    H229063   0.863   3.666   8.183 -0.4015  2.9152 -0.0427
 2502TIP3   OH229064   1.239   4.508   1.126  0.1667  0.4703 -0.0875
 2502TIP3    H129065   1.299   4.541   1.059  1.6931 -0.6064  0.6837
 2502TIP3    H229066   1.233   4.414   1.108  2.9082 -0.4176  2.8991
 2503TIP3   OH229067   1.016   2.915   1.108 -0.0306  0.0573  0.1411
 2503TIP3    H129068   0.976   2.877   1.029 -2.5530 -0.5039  1.5832
 2503TIP3    H229069   0.998   3.009   1.101 -0.6229 -0.0428  0.2139
 2504TIP3   OH229070   6.143   4.022   1.421  0.2131 -0.0971 -0.1111
 2504TIP3    H129071   6.209   3.953   1.419  0.5176  0.1355  1.0516
 2504TIP3    H229072   6.158   4.067   1.504 -1.4437 -0.0742  0.2091
 2505TIP3   OH229073   6.691   6.313   0.248 -0.6390 -0.2436  0.3112
 2505TIP3    H129074   6.627   6.286   0.314 -3.8029 -0.6103 -2.5932
 2505TIP3    H229075   6.663   6.269   0.168  1.2545  2.2723 -1.9473
 2506TIP3   OH229076   6.507   1.377   8.428  0.3223  0.3291 -0.3042
 2506TIP3    H129077   6.414   1.394   8.437  0.4094  1.0936 -0.7345
 2506TIP3    H229078   6.550   1.457   8.459  0.7940  0.3634 -0.9963
 2507TIP3   OH229079   2.946   6.550   0.144 -0.1801  0.2326  0.0871
 2507TIP3    H129080   2.989   6.477   0.188 -2.3754 -0.5967  0.9869
 2507TIP3    H229081   2.974   6.544   0.053  0.1001 -1.4229  0.2581
 2508TIP3   OH229082   2.649   0.632   0.266 -0.5287  0.0116  0.0991
 2508TIP3    H129083   2.718   0.677   0.314 -1.9847 -0.5182  2.8755
 2508TIP3    H229084   2.600   0.702   0.223  0.3884  0.5612 -0.0737
 2509TIP3   OH229085   1.730   5.871   0.467  0.1063  0.4064  0.2578
 2509TIP3    H129086   1.780   5.942   0.426 -0.0379  2.6798  3.5627
 2509TIP3    H229087   1.793   5.829   0.526 -0.1117 -1.6022 -0.8571
 2510TIP3   OH229088   4.179   4.937   7.039 -0.3268 -0.0408 -0.0101
 2510TIP3    H129089   4.175   4.941   7.134  0.0421 -2.6469  0.1990
 2510TIP3    H229090   4.272   4.928   7.019 -0.5341 -1.8539 -0.3888
 2511TIP3   OH229091   0.696   4.254   0.531  0.3257 -0.3071 -0.2814
 2511TIP3    H129092   0.652   4.305   0.463  2.5124 -0.1784 -1.7041
 2511TIP3    H229093   0.788   4.277   0.522  0.8465 -1.3424  1.8584
 2512TIP3   OH229094   5.280   4.068   8.007  0.4153  0.2242  0.2620
 2512TIP3    H129095   5.346   4.119   7.959  0.2778 -0.5082 -0.7342
 2512TIP3    H229096   5.198   4.114   7.991  0.6904  1.3332  1.7814
 2513TIP3   OH229097   5.863   6.451   7.293  0.1688  0.1692 -0.2595
 2513TIP3    H129098   5.941   6.502   7.316 -1.8630  3.4002  0.0917
 2513TIP3    H229099   5.849   6.468   7.200 -1.3280  1.5250  0.1798
 2514TIP3   OH229100   2.382   3.708   8.073 -0.7379  0.0980 -0.1969
 2514TIP3    H129101   2.454   3.649   8.095  1.2725  2.8625  1.2867
 2514TIP3    H229102   2.375   3.703   7.977  3.8765  2.1353 -0.9089
 2515TIP3   OH229103   1.989   6.016   8.592  0.1957  0.8088  0.1445
 2515TIP3    H129104   2.070   5.992   8.548 -0.3749  0.8243 -0.9384
 2515TIP3    H229105   1.943   5.933   8.607  0.9771  0.6433  1.9809
 2516TIP3   OH229106   1.061   1.624   2.521  0.2196  0.8116 -0.0756
 2516TIP3    H129107   1.056   1.530   2.543 -0.2541  0.6992 -0.6450
 2516TIP3    H229108   1.108   1.627   2.438 -2.3505  0.8079 -1.6296
 2517TIP3   OH229109   5.321   2.465   0.932  0.1153 -0.1670  0.1962
 2517TIP3    H129110   5.270   2.392   0.968  0.2590 -0.0242  0.7078
 2517TIP3    H229111   5.309   2.535   0.996  1.2129 -0.2323  0.4983
 2518TIP3   OH229112   1.003   0.737   7.452  0.0321 -0.1570 -0.4165
 2518TIP3    H129113   0.985   0.647   7.479  0.6613  0.0374  0.6817
 2518TIP3    H229114   0.935   0.789   7.494 -0.3585 -0.1164 -1.0882
 2519TIP3   OH229115   5.363   6.113   1.281  0.2297 -0.0240 -0.2392
 2519TIP3    H129116   5.426   6.179   1.311  0.2270 -0.4507  0.7432
 2519TIP3    H229117   5.315   6.156   1.211  1.7209  0.2596 -1.1304
 2520TIP3   OH229118   6.604   6.566   1.550 -0.2118 -0.5293 -0.0477
 2520TIP3    H129119   6.579   6.579   1.458 -0.5325  0.1989  0.1360
 2520TIP3    H229120   6.529   6.520   1.588 -0.5234  0.0842  0.0878
 2521TIP3   OH229121   1.794   3.612   1.295 -0.4328  0.3914 -0.0269
 2521TIP3    H129122   1.721   3.607   1.356 -0.0425 -2.7030  0.3592
 2521TIP3    H229123   1.755   3.604   1.209 -0.9321  4.2087 -0.3103
 2522TIP3   OH229124   4.003   4.957   6.739  0.2176  0.4334  0.2942
 2522TIP3    H129125   3.914   4.950   6.703  0.1192  0.7919  0.4601
 2522TIP3    H229126   4.048   4.879   6.707  0.2672  0.9478 -0.9707
 2523TIP3   OH229127   6.829   4.686   0.914 -0.0418  0.0527 -0.6604
 2523TIP3    H129128   6.857   4.597   0.893 -1.7189 -0.4791 -0.8408
 2523TIP3    H229129   6.773   4.675   0.991 -0.0879  0.9869 -0.5553
 2524TIP3   OH229130   3.124   1.137   2.401  0.2212  0.6879 -0.4871
 2524TIP3    H129131   3.186   1.209   2.407  0.8580  0.1699 -0.7654
 2524TIP3    H229132   3.144   1.081   2.475 -0.3058  0.8132 -0.2426
 2525TIP3   OH229133   2.740   6.409   1.047 -0.2678  0.3064 -0.5309
 2525TIP3    H129134   2.687   6.467   1.102 -0.2266 -0.7700  0.6935
 2525TIP3    H229135   2.797   6.469   0.997 -1.2162  1.3704 -0.3835
 2526TIP3   OH229136   6.098   3.567   0.220 -0.5435  0.1667  0.8228
 2526TIP3    H129137   6.056   3.494   0.174 -1.3387  1.3922 -0.4360
 2526TIP3    H229138   6.137   3.621   0.151 -1.1962  1.6910  1.6044
 2527TIP3   OH229139   6.538   4.594   0.393  0.3296  0.0486  0.6842
 2527TIP3    H129140   6.484   4.663   0.431  0.5327 -0.9800  3.0682
 2527TIP3    H229141   6.480   4.548   0.332 -0.6436  0.6276  1.1547
 2528TIP3   OH229142   2.870   0.609   6.428  0.2931  0.1777  0.4155
 2528TIP3    H129143   2.918   0.691   6.439  0.4438 -0.0448  1.5067
 2528TIP3    H229144   2.937   0.545   6.402  0.6294 -0.1332  1.9378
 2529TIP3   OH229145   5.706   5.232   1.933  0.0622  0.2058 -0.0824
 2529TIP3    H129146   5.634   5.258   1.876  0.2310  0.7425 -0.0612
 2529TIP3    H229147   5.775   5.295   1.913  0.1774  0.3020  0.6124
 2530TIP3   OH229148   3.243   3.962   0.482 -0.0576  0.0759 -0.4304
 2530TIP3    H129149   3.322   3.921   0.519  0.5868  0.1321 -1.6852
 2530TIP3    H229150   3.273   4.048   0.452 -0.3838 -0.2202 -1.6582
 2531TIP3   OH229151   0.737   0.036   2.212  0.0691  0.3568 -0.1320
 2531TIP3    H129152   0.760   0.036   2.119 -1.8718 -3.4587 -0.8205
 2531TIP3    H229153   0.811  -0.006   2.255 -0.2927 -0.6541 -0.4671
 2532TIP3   OH229154   3.935   0.894   8.639 -0.7495  0.0013 -0.3740
 2532TIP3    H129155   4.021   0.935   8.648 -0.5503  0.0263 -2.0143
 2532TIP3    H229156   3.875   0.967   8.624 -0.9476 -0.0706  0.0550
 2533TIP3   OH229157   4.211   2.899   8.105 -0.1074  0.3134 -0.4642
 2533TIP3    H129158   4.285   2.868   8.158  1.3364  1.7990 -1.4826
 2533TIP3    H229159   4.140   2.838   8.124  1.0509 -0.5546  1.3832
 2534TIP3   OH229160   2.306   2.948   8.307 -0.3216  1.1246  0.0827
 2534TIP3    H129161   2.224   2.941   8.356  0.5637  1.6336  1.7332
 2534TIP3    H229162   2.356   3.014   8.355 -0.2096  3.3178 -2.7818
 2535TIP3   OH229163   5.454   1.812   8.627  0.1006  0.3670  0.0347
 2535TIP3    H129164   5.396   1.831   8.553  1.6803  1.8473 -0.8934
 2535TIP3    H229165   5.419   1.865   8.699 -1.4117 -1.0405  0.4033
 2536TIP3   OH229166   0.863   0.706   8.708 -0.1178 -0.0734  0.5338
 2536TIP3    H129167   0.791   0.670   8.656 -0.2585  1.0575 -0.0986
 2536TIP3    H229168   0.841   0.684   8.799 -0.9081 -0.3413  0.2846
 2537TIP3   OH229169   1.373   1.573   1.847  0.1421 -0.2253 -0.0277
 2537TIP3    H129170   1.316   1.512   1.799  0.9814 -0.3467 -0.8915
 2537TIP3    H229171   1.424   1.516   1.905 -0.6308 -0.1119  0.7800
 2538TIP3   OH229172   4.765   2.414   6.889  0.4711 -0.4138 -0.1928
 2538TIP3    H129173   4.805   2.340   6.843 -0.0700 -0.5139 -0.5169
 2538TIP3    H229174   4.765   2.485   6.826  0.2926 -0.3637 -0.1366
 2539TIP3   OH229175   2.612   6.335   1.772 -0.2673 -0.3477  0.4796
 2539TIP3    H129176   2.540   6.398   1.780 -0.6004 -0.7954  1.1393
 2539TIP3    H229177   2.591   6.286   1.693  0.8201  1.3666 -0.9279
 2540TIP3   OH229178   3.725   5.204   1.749 -0.4786  0.7021 -0.0735
 2540TIP3    H129179   3.690   5.288   1.721 -1.2752  0.4760  0.2226
 2540TIP3    H229180   3.661   5.170   1.811  0.6648  0.6390  1.1002
 2541TIP3   OH229181   2.428   1.118   7.016 -0.2664 -0.4439  0.2874
 2541TIP3    H129182   2.368   1.064   6.964  1.6335 -1.4217 -1.0129
 2541TIP3    H229183   2.467   1.056   7.078 -0.2403  0.0848  0.8079
 2542TIP3   OH229184   6.207   2.311   0.780 -0.6090 -0.1717  0.4102
 2542TIP3    H129185   6.143   2.378   0.804  1.8248  1.7122  2.3138
 2542TIP3    H229186   6.261   2.353   0.712 -0.5135 -1.1389 -0.1250
 2543TIP3   OH229187   1.009   3.917   1.799  0.3630  0.6552 -0.0400
 2543TIP3    H129188   1.061   3.840   1.820  0.6802  0.7540 -0.4429
 2543TIP3    H229189   0.954   3.931   1.875 -1.2216 -1.1973 -0.7820
 2544TIP3   OH229190   6.769   6.667   1.860 -0.1157 -0.3001 -0.5186
 2544TIP3    H129191   6.852   6.652   1.906 -0.1229 -0.0992 -0.4370
 2544TIP3    H229192   6.702   6.644   1.924 -0.1255 -0.1162 -0.4633
 2545TIP3   OH229193   1.972   2.564   6.820  0.6073 -0.3053  0.0705
 2545TIP3    H129194   2.042   2.532   6.762  1.1379 -0.8968  1.0204
 2545TIP3    H229195   1.892   2.532   6.779  0.9125  0.0071 -0.7985
 2546TIP3   OH229196   3.510   4.568   1.155  0.0754 -0.8125 -0.4295
 2546TIP3    H129197   3.469   4.530   1.233 -0.0468 -0.1030 -0.1466
 2546TIP3    H229198   3.437   4.593   1.099 -0.0423  2.3767  0.9582
 2547TIP3   OH229199   4.490   3.923   1.519  0.2833 -0.1683  0.1965
 2547TIP3    H129200   4.434   3.998   1.504 -0.7990 -0.7699  1.0316
 2547TIP3    H229201   4.565   3.958   1.568  0.4779  0.5844 -0.6249
 2548TIP3   OH229202   2.912   4.609   0.883  0.0812 -0.2232  0.0209
 2548TIP3    H129203   2.914   4.653   0.798 -0.6390 -3.0709 -1.5985
 2548TIP3    H229204   2.993   4.557   0.885  0.7530  0.8228  1.7194
 2549TIP3   OH229205   3.786   1.768   2.457  0.6038  0.0222  0.0631
 2549TIP3    H129206   3.750   1.855   2.437  1.2125  0.3123  0.1875
 2549TIP3    H229207   3.732   1.736   2.529  1.7548  1.2706  1.5686
 2550TIP3   OH229208   5.225   4.303   0.003 -0.3939 -0.5838 -0.0101
 2550TIP3    H129209   5.203   4.212  -0.019 -0.8393 -0.4419 -0.1687
 2550TIP3    H229210   5.310   4.319  -0.038 -0.4303 -0.8513 -0.1880
 2551TIP3   OH229211   6.010   3.139   0.467 -0.4948  0.1950 -0.5101
 2551TIP3    H129212   5.979   3.216   0.420  0.8101  0.9587 -0.1672
 2551TIP3    H229213   6.034   3.172   0.554  0.7829 -0.4281 -0.6016
 2552TIP3   OH229214   1.283   6.023   0.172  0.2010  0.7169 -0.4376
 2552TIP3    H129215   1.245   6.051   0.255  0.4134  0.1048 -0.1322
 2552TIP3    H229216   1.344   5.953   0.195 -0.1282  0.1766 -1.1721
 2553TIP3   OH229217   2.782   2.918   0.123  0.3564 -0.2489  0.3523
 2553TIP3    H129218   2.826   2.956   0.047 -0.6527 -0.1206 -0.1746
 2553TIP3    H229219   2.793   2.983   0.192 -2.3560  1.6412 -0.8473
 2554TIP3   OH229220   6.252   1.138   7.316 -0.7479 -0.3136 -0.3274
 2554TIP3    H129221   6.316   1.194   7.359  0.6430 -0.2159 -2.4161
 2554TIP3    H229222   6.279   1.049   7.339 -0.6213 -0.2427 -0.2018
 2555TIP3   OH229223   1.420   1.814   8.623 -0.3055  0.2695 -0.2376
 2555TIP3    H129224   1.345   1.757   8.638 -0.1068 -0.3073 -1.3667
 2555TIP3    H229225   1.473   1.768   8.559  1.1050  0.5984  0.6482
 2556TIP3   OH229226   4.893   4.911   1.461  0.1616 -0.8070 -0.2755
 2556TIP3    H129227   4.905   4.863   1.379 -0.1146  0.2150 -0.9381
 2556TIP3    H229228   4.862   4.846   1.524 -0.2704 -1.4650 -1.1604
 2557TIP3   OH229229   1.829   6.284   1.040 -0.6965  0.0701 -0.2664
 2557TIP3    H129230   1.741   6.305   1.009 -1.1012 -0.4751  0.4810
 2557TIP3    H229231   1.829   6.189   1.050  0.3051 -0.0422 -1.2095
 2558TIP3   OH229232   3.368   0.521   7.952 -0.6607 -0.0201 -0.4022
 2558TIP3    H129233   3.283   0.560   7.931 -1.3903 -0.9610  0.6893
 2558TIP3    H229234   3.429   0.594   7.945 -1.8295  1.1141  0.5564
 2559TIP3   OH229235   6.110   5.330   7.609  0.2447 -0.4958 -0.4973
 2559TIP3    H129236   6.044   5.308   7.675 -0.1848  0.3317 -0.6385
 2559TIP3    H229237   6.163   5.399   7.649 -0.2250  0.2484 -1.1300
 2560TIP3   OH229238   5.812   0.337   1.532  0.0139 -0.1615 -0.0712
 2560TIP3    H129239   5.885   0.383   1.574  0.2309  0.5508 -1.1881
 2560TIP3    H229240   5.835   0.244   1.541  0.1141 -0.0260  1.2427
 2561TIP3   OH229241   4.178   3.286   1.955 -0.5625  0.1226 -0.2784
 2561TIP3    H129242   4.248   3.291   2.019 -1.5827 -1.3586  1.0184
 2561TIP3    H229243   4.161   3.377   1.930  0.4642  0.6421  0.8692
 2562TIP3   OH229244   4.984   6.367   1.862 -0.6993 -0.0292 -0.6594
 2562TIP3    H129245   5.036   6.303   1.813 -0.1274  0.9476 -1.3777
 2562TIP3    H229246   4.923   6.314   1.914  0.9143 -1.1979  0.1019
 2563TIP3   OH229247   0.734   4.916   8.546  0.0297  0.6064  0.1317
 2563TIP3    H129248   0.726   4.837   8.599 -0.0685 -1.4910 -2.8085
 2563TIP3    H229249   0.760   4.885   8.460  1.3417  3.9384 -0.8237
 2564TIP3   OH229250   6.422   3.741   7.056 -0.0555  0.2771  0.5369
 2564TIP3    H129251   6.425   3.805   7.127 -1.3596 -0.0463  0.9014
 2564TIP3    H229252   6.422   3.656   7.100  0.6727  0.0398  0.0893
 2565TIP3   OH229253   4.638   3.318   8.235  0.4679  0.2612 -0.2618
 2565TIP3    H129254   4.560   3.265   8.249 -2.0263  3.1588 -1.9602
 2565TIP3    H229255   4.679   3.280   8.158 -0.1898 -0.3175 -0.3373
 2566TIP3   OH229256   3.621   6.033   0.512  0.4364  0.3396 -0.1743
 2566TIP3    H129257   3.574   6.090   0.573  0.7786  0.9936 -0.5094
 2566TIP3    H229258   3.650   6.091   0.442 -0.2457 -0.4584 -1.1483
 2567TIP3   OH229259   0.795   2.564   0.912 -0.5050 -0.6354  0.2551
 2567TIP3    H129260   0.818   2.497   0.976 -0.3551  1.3014  2.3482
 2567TIP3    H229261   0.877   2.584   0.867 -0.2204 -0.7679  0.7105
 2568TIP3   OH229262   1.488   3.427   1.612 -0.5773  0.1291 -0.9272
 2568TIP3    H129263   1.418   3.477   1.654  0.3045  0.3728  0.2890
 2568TIP3    H229264   1.497   3.468   1.526  0.8169  2.8286  0.3954
 2569TIP3   OH229265   1.005   5.812   6.903  0.7863  0.2840  0.3649
 2569TIP3    H129266   1.004   5.719   6.880  1.1550  0.2044  0.6607
 2569TIP3    H229267   1.095   5.840   6.886  0.8468  0.4273  0.9143
 2570TIP3   OH229268   1.132   0.926   8.165  0.3297  0.3567 -0.7969
 2570TIP3    H129269   1.216   0.880   8.159 -0.2076 -0.6367 -0.8612
 2570TIP3    H229270   1.080   0.873   8.226 -0.8383  0.0052 -2.0599
 2571TIP3   OH229271   0.435   0.490   0.049 -0.7346 -0.8474  0.0568
 2571TIP3    H129272   0.463   0.409   0.006  0.1618 -0.5782  0.1107
 2571TIP3    H229273   0.417   0.550  -0.023  1.8402 -0.0334 -0.0244
 2572TIP3   OH229274   6.137   4.442   1.141  0.6419 -0.5422 -0.0940
 2572TIP3    H129275   6.209   4.502   1.124  0.4166  0.9888  3.5004
 2572TIP3    H229276   6.180   4.357   1.154  1.8676  0.2841  1.7105
 2573TIP3   OH229277   0.031   3.995   0.281  0.1113 -0.3345 -0.4669
 2573TIP3    H129278  -0.012   3.911   0.263 -1.8447  0.5453 -0.1951
 2573TIP3    H229279   0.092   3.976   0.352  1.3441 -1.9579 -1.8660
 2574TIP3   OH229280   4.500   3.125   1.302  0.2785 -0.4059 -0.1973
 2574TIP3    H129281   4.485   3.138   1.209 -2.1461  1.4985  0.3710
 2574TIP3    H229282   4.491   3.030   1.315  1.5140 -0.8181 -1.9616
 2575TIP3   OH229283   6.323   5.239   7.963  0.0168  0.4243 -0.1348
 2575TIP3    H129284   6.340   5.187   7.885  0.1450  0.9332 -0.4445
 2575TIP3    H229285   6.239   5.205   7.996 -0.8002  1.2247 -1.3334
 2576TIP3   OH229286   5.566   2.263   8.691 -0.2677  0.0114  0.7284
 2576TIP3    H129287   5.528   2.214   8.618  0.2349  1.6017 -0.6397
 2576TIP3    H229288   5.634   2.317   8.652 -1.3908  2.5202  1.9764
 2577TIP3   OH229289   6.267   4.554   6.769  0.1773 -0.6152 -0.0636
 2577TIP3    H129290   6.238   4.465   6.752  0.6204 -0.8904  0.5768
 2577TIP3    H229291   6.309   4.582   6.688 -0.0754 -0.9425 -0.3091
 2578TIP3   OH229292   4.135   2.601   0.442  0.0593  0.0977 -0.0106
 2578TIP3    H129293   4.079   2.578   0.367 -1.0081 -1.8945  1.3093
 2578TIP3    H229294   4.171   2.517   0.471  0.3775  0.8093  1.7517
 2579TIP3   OH229295   0.091   2.290   0.385  0.1682 -0.1143 -0.0963
 2579TIP3    H129296   0.023   2.313   0.322  0.5299 -1.1397 -0.8826
 2579TIP3    H229297   0.054   2.217   0.434  0.5987 -0.5021 -0.3470
 2580TIP3   OH229298   1.062   5.000   0.676  0.1177 -0.1277  0.5230
 2580TIP3    H129299   1.018   5.011   0.592 -0.5037  1.3523  0.9974
 2580TIP3    H229300   1.023   4.922   0.714 -0.0327 -0.4653 -0.3043
 2581TIP3   OH229301   1.842   0.075   2.497 -0.1282  0.5897 -0.5358
 2581TIP3    H129302   1.772   0.033   2.547  0.0683  2.7040  1.6899
 2581TIP3    H229303   1.803   0.092   2.411 -1.1241 -1.4439 -0.5329
 2582TIP3   OH229304   3.448   4.673   1.661  0.2016  0.1799  0.2139
 2582TIP3    H129305   3.521   4.651   1.603 -0.2494 -0.6448 -0.0513
 2582TIP3    H229306   3.432   4.766   1.644  1.7136  0.5876  0.8830
 2583TIP3   OH229307   2.249   2.922   7.759 -0.0355  0.6065  0.2074
 2583TIP3    H129308   2.343   2.932   7.749 -0.1594  2.8754  0.8161
 2583TIP3    H229309   2.238   2.860   7.831  0.9806  0.4275  0.2136
 2584TIP3   OH229310   2.449   3.877   0.574 -0.0146  0.9866  1.0159
 2584TIP3    H129311   2.479   3.803   0.627 -0.0152  1.0863  1.1569
 2584TIP3    H229312   2.354   3.878   0.586 -0.0305  0.9185  0.8942
 2585TIP3   OH229313   0.150   2.308   2.070 -0.2584 -0.2725  0.0113
 2585TIP3    H129314   0.189   2.282   2.153  1.2380 -1.8058 -1.1085
 2585TIP3    H229315   0.134   2.226   2.024 -2.0549  0.4833 -0.8169
 2586TIP3   OH229316   2.893   5.675   6.493  0.0100 -0.4480 -0.5473
 2586TIP3    H129317   2.804   5.681   6.458 -0.1121  0.0998 -0.1629
 2586TIP3    H229318   2.913   5.764   6.521  0.4312 -0.7004 -0.0325
 2587TIP3   OH229319   6.832   3.495   0.280 -0.3458  0.1607  0.4162
 2587TIP3    H129320   6.774   3.569   0.266  2.7209  2.5232 -0.8697
 2587TIP3    H229321   6.916   3.523   0.244  0.5889 -4.6743 -2.0119
 2588TIP3   OH229322   0.180   0.845   1.901  0.4778 -0.1195  0.7793
 2588TIP3    H129323   0.154   0.763   1.942 -0.8867  0.7496  1.7218
 2588TIP3    H229324   0.100   0.878   1.860  1.2148  0.3207 -0.3671
 2589TIP3   OH229325   4.276   5.735   1.120 -0.3127 -0.1633 -0.4377
 2589TIP3    H129326   4.339   5.664   1.131  0.6374  0.4740 -1.4993
 2589TIP3    H229327   4.250   5.758   1.209  1.8197  0.2921  0.1288
 2590TIP3   OH229328   0.934   5.540   0.153  0.0090  0.3490  0.1223
 2590TIP3    H129329   1.017   5.563   0.194 -0.6484  1.3073  0.9495
 2590TIP3    H229330   0.880   5.618   0.163 -0.4284  0.3747 -1.9346
 2591TIP3   OH229331   3.191   0.684   7.213 -0.2035  0.1927 -0.0970
 2591TIP3    H129332   3.154   0.727   7.136  0.6189 -0.1613 -0.7076
 2591TIP3    H229333   3.167   0.592   7.203 -0.6398  0.2507  0.4062
 2592TIP3   OH229334   3.367   1.735   0.432 -0.4680 -0.1213  0.5426
 2592TIP3    H129335   3.446   1.739   0.378 -0.7040  1.0837  0.2527
 2592TIP3    H229336   3.305   1.684   0.380 -1.2058  2.2609 -1.0765
 2593TIP3   OH229337   1.199   3.364   8.364  0.0719  0.2011 -0.1516
 2593TIP3    H129338   1.278   3.320   8.332  0.4514  0.4565  0.4117
 2593TIP3    H229339   1.193   3.443   8.311  1.8778  1.6976  1.7104
 2594TIP3   OH229340   2.298   2.471   2.098 -0.0013  0.1988 -0.3321
 2594TIP3    H129341   2.392   2.479   2.083 -0.0875 -0.1881 -1.1466
 2594TIP3    H229342   2.272   2.557   2.131  0.6124  0.3531 -0.2285
 2595TIP3   OH229343   1.709   4.852   8.345 -0.3641 -0.1369 -0.3699
 2595TIP3    H129344   1.636   4.864   8.405  0.6236 -1.0836  1.0910
 2595TIP3    H229345   1.784   4.836   8.402  0.7470 -0.4177 -1.8540
 2596TIP3   OH229346   1.257   4.019   8.023  0.2103 -0.3803 -0.5013
 2596TIP3    H129347   1.213   4.104   8.029  1.6413  0.6016 -2.5241
 2596TIP3    H229348   1.234   3.986   7.935  1.0397 -1.2762 -0.4028
 2597TIP3   OH229349   4.627   1.922   6.607 -0.4270  0.5170  0.7830
 2597TIP3    H129350   4.581   1.985   6.552 -0.9495 -0.6528 -0.1523
 2597TIP3    H229351   4.711   1.907   6.564 -1.1290 -0.9548 -0.1524
 2598TIP3   OH229352   4.631   0.506   8.666  0.3932  0.1804  0.2001
 2598TIP3    H129353   4.596   0.555   8.741 -2.0365 -0.5410 -0.3800
 2598TIP3    H229354   4.611   0.415   8.685 -1.9740  0.1049 -2.0534
 2599TIP3   OH229355   5.179   5.135   2.315 -0.4196 -0.3776 -0.4158
 2599TIP3    H129356   5.270   5.154   2.294 -0.4253 -0.8463 -0.8745
 2599TIP3    H229357   5.176   5.041   2.330 -0.7099 -0.2699  0.2359
 2600TIP3   OH229358   0.897   1.119   1.999 -0.3018 -0.1102 -0.5232
 2600TIP3    H129359   0.987   1.147   1.986 -0.4015  1.6517  1.9101
 2600TIP3    H229360   0.890   1.102   2.093 -2.3294 -0.9269 -0.7621
 2601TIP3   OH229361   5.244   3.897   7.752 -0.4294  0.1967 -0.1534
 2601TIP3    H129362   5.229   3.805   7.734 -1.3876  0.5725 -1.4045
 2601TIP3    H229363   5.339   3.908   7.742 -0.0544 -0.9535  1.6609
 2602TIP3   OH229364   1.058   2.740   7.650 -0.0841  0.4500  0.2300
 2602TIP3    H129365   0.987   2.774   7.705  0.2930 -0.2136  1.1490
 2602TIP3    H229366   1.125   2.808   7.652  1.1110 -0.6570  2.9094
 2603TIP3   OH229367   1.632   6.604   0.845 -0.6466  0.2928  0.1108
 2603TIP3    H129368   1.590   6.522   0.871  0.0250 -0.0203  0.2034
 2603TIP3    H229369   1.721   6.599   0.879  0.1604  0.0218 -1.8744
 2604TIP3   OH229370   1.065   6.107   1.756  0.3933  0.2262  0.2443
 2604TIP3    H129371   1.131   6.148   1.811  2.3877  0.3633 -2.0822
 2604TIP3    H229372   1.035   6.178   1.698  2.0912 -0.8836 -2.1688
 2605TIP3   OH229373   2.897   0.601   0.535 -0.5989 -0.3317  0.3111
 2605TIP3    H129374   2.884   0.693   0.513 -0.7391 -0.2823  0.5887
 2605TIP3    H229375   2.810   0.571   0.563 -0.7436 -0.7766 -0.5832
 2606TIP3   OH229376   3.728   3.311   1.857  0.5360  0.2335  0.0970
 2606TIP3    H129377   3.733   3.281   1.766 -1.2772 -1.5656  0.5041
 2606TIP3    H229378   3.752   3.233   1.908 -0.8712  0.4863  1.1771
 2607TIP3   OH229379   1.800   5.104   7.968  0.6967  0.4941 -0.6075
 2607TIP3    H129380   1.838   5.029   7.922  0.5708  1.1866 -1.9067
 2607TIP3    H229381   1.718   5.071   8.004  0.9227 -0.1469 -0.6723
 2608TIP3   OH229382   6.676   1.457   0.008 -0.2968 -0.3512 -0.0575
 2608TIP3    H129383   6.595   1.479  -0.038  0.8306  0.0642 -1.9925
 2608TIP3    H229384   6.654   1.461   0.101 -1.8625  2.3350 -0.4514
 2609TIP3   OH229385   6.172   1.800   8.274 -0.1758 -0.2188 -0.3422
 2609TIP3    H129386   6.080   1.800   8.249 -0.4347  1.3110  0.4926
 2609TIP3    H229387   6.218   1.833   8.197 -0.6999  2.0641  0.2414
 2610TIP3   OH229388   2.927   0.064   6.728  0.4443 -0.1266 -0.5122
 2610TIP3    H129389   2.955  -0.024   6.704 -2.0881 -0.9997 -0.5284
 2610TIP3    H229390   2.908   0.059   6.822  2.4143  1.0900  0.0447
 2611TIP3   OH229391   1.723   1.805   8.705 -0.1830  0.4369 -0.1159
 2611TIP3    H129392   1.707   1.783   8.614 -1.2044  0.8364 -0.0518
 2611TIP3    H229393   1.669   1.743   8.754  1.0825 -0.3874  0.2576
 2612TIP3   OH229394   4.378   1.319   7.272  0.2272  0.1115  0.2899
 2612TIP3    H129395   4.405   1.391   7.330 -0.8194 -0.3153  1.3345
 2612TIP3    H229396   4.435   1.328   7.196  1.0180  1.2475  0.9780
 2613TIP3   OH229397   3.359   3.866   0.024  0.3140  0.2518 -0.1677
 2613TIP3    H129398   3.421   3.902  -0.039  0.6815  0.6418  0.4014
 2613TIP3    H229399   3.345   3.776  -0.005 -0.1214  0.6541 -1.2405
 2614TIP3   OH229400   4.233   3.363   8.595 -0.1188  0.0097  0.8799
 2614TIP3    H129401   4.152   3.409   8.618 -0.2685 -0.2623  0.9024
 2614TIP3    H229402   4.206   3.272   8.582  0.0496  0.0579  0.1461
 2615TIP3   OH229403   6.560   5.494   2.163  0.1042 -0.0193 -0.4122
 2615TIP3    H129404   6.614   5.562   2.122 -0.6226  0.3207 -0.8300
 2615TIP3    H229405   6.589   5.413   2.122  0.8304  0.0548 -0.0672
 2616TIP3   OH229406   5.749   5.175   1.627 -0.2674  0.1262  0.0318
 2616TIP3    H129407   5.820   5.132   1.580 -0.8377  0.3775 -1.0721
 2616TIP3    H229408   5.762   5.269   1.610  0.1056  0.3060  1.2075
 2617TIP3   OH229409   6.506   3.801   0.719 -0.0096 -0.3118 -0.4500
 2617TIP3    H129410   6.588   3.808   0.768 -0.0301  1.7914 -0.6407
 2617TIP3    H229411   6.459   3.729   0.761  0.4850  0.6364  1.8732
 2618TIP3   OH229412   6.236   2.456   8.132  0.2626 -0.6772  0.4709
 2618TIP3    H129413   6.173   2.510   8.085 -1.5102 -0.9600  2.4138
 2618TIP3    H229414   6.198   2.368   8.132  0.1670 -0.6735  2.4304
 2619TIP3   OH229415   6.848   4.036   7.538 -0.0119 -0.1692  0.0565
 2619TIP3    H129416   6.905   3.968   7.501 -1.4057 -1.8162  0.7723
 2619TIP3    H229417   6.901   4.115   7.537  2.4999 -1.7054  1.1625
 2620TIP3   OH229418   2.440   0.227   7.068 -0.0814  0.1390 -0.4422
 2620TIP3    H129419   2.366   0.276   7.106 -0.1630 -0.1371 -0.2447
 2620TIP3    H229420   2.462   0.275   6.988 -0.9347 -0.1831 -0.8821
 2621TIP3   OH229421   4.726   5.323   8.131 -0.5092  0.3159  0.0464
 2621TIP3    H129422   4.670   5.362   8.199  0.2977  1.8423 -0.1317
 2621TIP3    H229423   4.770   5.397   8.091  2.9057 -0.8618  1.2621
 2622TIP3   OH229424   4.174   0.641   1.258 -0.4635  0.3651  0.0868
 2622TIP3    H129425   4.224   0.616   1.335 -3.8259 -0.8659  2.0963
 2622TIP3    H229426   4.157   0.558   1.212  0.6315  0.9592 -1.4809
 2623TIP3   OH229427   5.055   4.401   8.161 -1.0140  0.3131  0.2956
 2623TIP3    H129428   5.124   4.435   8.104 -1.4214  0.9050  0.1459
 2623TIP3    H229429   5.098   4.334   8.214 -0.4061  0.4378 -0.0343
 2624TIP3   OH229430   4.966   0.222   0.572  0.2972  0.5416  0.0704
 2624TIP3    H129431   5.017   0.199   0.495  0.6872  0.6558  0.2894
 2624TIP3    H229432   4.875   0.217   0.544  0.4392  0.5890 -0.3980
 2625TIP3   OH229433   5.429   3.183   0.990 -0.4241 -0.0028 -0.2391
 2625TIP3    H129434   5.514   3.212   1.023 -0.2956 -0.8409  0.1990
 2625TIP3    H229435   5.374   3.262   0.992 -0.1362  0.1880  1.0673
 2626TIP3   OH229436   2.371   3.436   8.365 -0.1103  0.3511 -0.1526
 2626TIP3    H129437   2.302   3.441   8.431  0.2174 -0.8201  0.3145
 2626TIP3    H229438   2.409   3.523   8.363 -3.4203  1.9421 -2.4991
 2627TIP3   OH229439   1.727   3.329   8.292 -0.2565  0.0867 -0.9482
 2627TIP3    H129440   1.798   3.388   8.316 -0.3959  1.1232 -2.9022
 2627TIP3    H229441   1.718   3.340   8.198 -2.3156 -0.8116 -0.8957
 2628TIP3   OH229442   1.419   1.330   0.651  0.8160  0.4009 -0.6017
 2628TIP3    H129443   1.493   1.365   0.601  1.6308  0.3357  0.5167
 2628TIP3    H229444   1.395   1.402   0.709  2.4190 -0.7337  1.6342
 2629TIP3   OH229445   3.834   1.182   7.719 -0.1530 -0.1777  0.2839
 2629TIP3    H129446   3.792   1.123   7.781  0.5108 -1.9183 -0.8644
 2629TIP3    H229447   3.828   1.138   7.634  3.0779 -0.0822 -0.1166
 2630TIP3   OH229448   6.198   2.977   0.306 -0.0639  0.3117 -0.4758
 2630TIP3    H129449   6.154   3.037   0.366 -0.2287  0.1950 -0.4802
 2630TIP3    H229450   6.287   3.012   0.299 -0.6000  1.4932 -1.7618
 2631TIP3   OH229451   0.133   3.371   7.776 -0.6934  0.0787  0.1205
 2631TIP3    H129452   0.213   3.346   7.730  0.2510 -0.0298  1.7492
 2631TIP3    H229453   0.111   3.457   7.740  0.4787  0.3625  0.0493
 2632TIP3   OH229454   6.265   3.465   6.298  0.3538  0.3675 -0.1577
 2632TIP3    H129455   6.170   3.472   6.311 -0.0933 -0.5336 -2.5346
 2632TIP3    H229456   6.302   3.493   6.382 -2.0037  0.4089  0.9580
 2633TIP3   OH229457   2.247   6.443   0.526 -0.3298 -0.1178 -0.0082
 2633TIP3    H129458   2.166   6.461   0.575 -1.5845 -0.7032 -1.7819
 2633TIP3    H229459   2.275   6.528   0.493 -0.0573  0.1248  0.8248
 2634TIP3   OH229460   5.286   6.164   8.332  0.1146  0.0612  0.0747
 2634TIP3    H129461   5.199   6.202   8.326  0.3273  0.6382  0.5894
 2634TIP3    H229462   5.270   6.070   8.347 -0.4077 -0.4143 -2.9087
 2635TIP3   OH229463   5.225   3.761   7.216  0.3031 -0.3152 -0.9071
 2635TIP3    H129464   5.147   3.797   7.256 -0.0386 -1.7029 -0.2646
 2635TIP3    H229465   5.290   3.831   7.223 -0.5737  0.4823 -0.5227
 2636TIP3   OH229466   0.358   1.852   7.439 -0.4093 -0.6080 -0.4535
 2636TIP3    H129467   0.304   1.825   7.514 -1.1827  1.1845 -0.3104
 2636TIP3    H229468   0.434   1.896   7.479 -1.2374  1.1019 -0.6828
 2637TIP3   OH229469   2.419   3.184   0.075  0.1878 -0.2503 -0.1088
 2637TIP3    H129470   2.500   3.231   0.054 -0.0497  0.2517  0.0840
 2637TIP3    H229471   2.350   3.249   0.065  0.0765  0.1725  2.5783
 2638TIP3   OH229472   3.960   2.358   8.412 -0.3501  0.0596  0.1710
 2638TIP3    H129473   4.021   2.328   8.344  0.0533  0.7846  0.1968
 2638TIP3    H229474   3.880   2.309   8.396 -0.2553  0.1942 -0.8208
 2639TIP3   OH229475   5.837   0.364   1.236  0.1888 -0.5144 -0.3334
 2639TIP3    H129476   5.883   0.437   1.194  2.4302 -2.4294 -1.4073
 2639TIP3    H229477   5.846   0.381   1.330  2.8298 -0.5847 -0.5068
 2640TIP3   OH229478   4.101   5.704   8.542  0.1561 -0.3415 -0.1902
 2640TIP3    H129479   4.024   5.702   8.485  0.6072  0.9121 -0.8775
 2640TIP3    H229480   4.074   5.654   8.619 -1.7894  1.0636  0.1357
 2641TIP3   OH229481   6.066   2.174   2.400 -0.1182  0.2576 -0.4917
 2641TIP3    H129482   6.115   2.112   2.346 -1.0629 -0.1362 -0.9144
 2641TIP3    H229483   6.132   2.238   2.428  0.7490 -0.5804 -0.5551
 2642TIP3   OH229484   0.915   0.383   6.581 -0.6472 -0.2631 -0.0325
 2642TIP3    H129485   0.864   0.454   6.541 -1.9454 -0.4592  1.1647
 2642TIP3    H229486   0.868   0.303   6.555 -0.1984 -0.5517  0.0441
 2643TIP3   OH229487   4.028   2.817   1.496 -0.2959 -0.0185  0.1394
 2643TIP3    H129488   3.999   2.766   1.421  0.9475  1.1924 -1.2190
 2643TIP3    H229489   4.110   2.776   1.522  0.4404  0.9345 -0.6300
 2644TIP3   OH229490   4.201   6.470   6.359  0.3607  0.0771  0.4439
 2644TIP3    H129491   4.197   6.376   6.339  0.5745  0.5093 -1.8172
 2644TIP3    H229492   4.294   6.486   6.376  0.1447 -0.3381  2.3556
 2645TIP3   OH229493   6.436   6.054   2.025 -0.0280  0.5318  0.3626
 2645TIP3    H129494   6.525   6.076   2.050  0.6497 -1.2841 -0.2558
 2645TIP3    H229495   6.414   6.116   1.956  0.4033  1.5575  1.1202
 2646TIP3   OH229496   0.064   2.695   7.458 -0.2171 -0.1330 -0.4394
 2646TIP3    H129497  -0.023   2.684   7.421 -0.4934  1.9960 -0.5438
 2646TIP3    H229498   0.048   2.721   7.549  0.1999  2.1899 -0.9835
 2647TIP3   OH229499   4.339   4.336   7.489  0.1023  0.3765 -0.2401
 2647TIP3    H129500   4.244   4.347   7.495 -0.4053 -3.2101  0.2758
 2647TIP3    H229501   4.373   4.382   7.566 -1.4014  0.3119  0.5108
 2648TIP3   OH229502   3.429   4.910   8.281  0.0460 -0.2787 -0.4268
 2648TIP3    H129503   3.372   4.950   8.216  1.2394 -0.4101 -1.5748
 2648TIP3    H229504   3.472   4.984   8.324 -0.4336 -0.2081 -0.0619
 2649TIP3   OH229505   4.170   2.799   1.190 -0.2807 -0.0868 -0.2492
 2649TIP3    H129506   4.152   2.890   1.167  1.0900  1.5200  4.1021
 2649TIP3    H229507   4.265   2.791   1.188 -0.1972 -0.4412  2.1707
 2650TIP3   OH229508   4.615   6.084   1.274  0.5166  0.4303 -0.3688
 2650TIP3    H129509   4.523   6.065   1.256 -0.0081  2.5360 -0.1635
 2650TIP3    H229510   4.628   6.056   1.365 -0.5181  1.9182  0.2823
 2651TIP3   OH229511   2.506   2.940   0.186  0.3880  0.4283  0.4906
 2651TIP3    H129512   2.588   2.949   0.137 -0.3321 -1.8242 -1.3038
 2651TIP3    H229513   2.457   3.020   0.165  1.2231  0.7515 -0.2980
 2652TIP3   OH229514   2.776   5.551   6.821 -0.0571  0.0247 -0.0709
 2652TIP3    H129515   2.752   5.642   6.834 -0.7487 -0.3337  1.3880
 2652TIP3    H229516   2.851   5.537   6.879 -0.4180 -0.5074  0.2800
 2653TIP3   OH229517   1.876   2.910   7.009  0.3499 -0.7696  0.3526
 2653TIP3    H129518   1.833   2.942   6.929 -0.4338 -0.8102  0.7437
 2653TIP3    H229519   1.893   2.817   6.991  0.3630 -0.7302  0.1571
 2654TIP3   OH229520   6.503   2.763   8.072 -0.8177  0.1912 -0.4231
 2654TIP3    H129521   6.534   2.795   8.157 -2.2725  1.8396 -0.4729
 2654TIP3    H229522   6.583   2.747   8.022  0.0510 -0.3804  1.0690
 2655TIP3   OH229523   0.489   4.670   6.973  0.3464  0.4516  0.6271
 2655TIP3    H129524   0.492   4.645   6.880  1.6552 -4.3146  1.6765
 2655TIP3    H229525   0.562   4.731   6.984  0.3350  0.9014 -1.3872
 2656TIP3   OH229526   4.456   3.252   1.846 -0.0433  0.3567  0.7690
 2656TIP3    H129527   4.429   3.231   1.935  1.1078 -2.4566  0.5437
 2656TIP3    H229528   4.471   3.168   1.803  0.0310  1.6073 -1.9358
 2657TIP3   OH229529   3.663   1.170   7.235  0.2987  0.7352  0.1690
 2657TIP3    H129530   3.588   1.204   7.282 -0.2814  2.5159 -1.8677
 2657TIP3    H229531   3.657   1.210   7.148  3.6287  0.9748 -0.0707
 2658TIP3   OH229532   6.296   5.522   0.545  0.6695 -0.2707 -0.2033
 2658TIP3    H129533   6.258   5.586   0.484 -0.1047  0.1018  0.6458
 2658TIP3    H229534   6.331   5.576   0.616 -0.0467 -0.7823  0.5523
 2659TIP3   OH229535   6.362   3.519   6.542 -0.1848  0.2288 -0.0792
 2659TIP3    H129536   6.276   3.489   6.570 -0.5191 -1.5877 -2.6673
 2659TIP3    H229537   6.422   3.485   6.608 -1.0994 -2.0743 -0.3314
 2660TIP3   OH229538   2.069   3.779   0.101 -0.6023 -0.1866  0.6190
 2660TIP3    H129539   2.072   3.728   0.020 -1.4794  0.5657  0.0816
 2660TIP3    H229540   2.153   3.824   0.105 -0.2819 -0.7644  0.4982
 2661TIP3   OH229541   1.565   1.612   2.108  0.4228  0.6016  0.0801
 2661TIP3    H129542   1.524   1.526   2.100  0.1849  0.7283 -0.0550
 2661TIP3    H229543   1.653   1.600   2.072  0.9695  0.0056  1.5397
 2662TIP3   OH229544   4.942   1.652   8.581  0.1906 -0.1308 -0.8612
 2662TIP3    H129545   4.949   1.747   8.565  1.8943 -0.1052 -0.1024
 2662TIP3    H229546   4.870   1.644   8.643  1.3211  0.9103  0.6811
 2663TIP3   OH229547   0.501   4.677   7.803 -0.1247 -0.6496 -0.6687
 2663TIP3    H129548   0.425   4.718   7.844  0.1327 -0.4388 -0.3987
 2663TIP3    H229549   0.472   4.655   7.715  0.0192  0.9901 -1.1591
 2664TIP3   OH229550   1.034   3.163   0.172 -0.1005 -0.1724 -0.0169
 2664TIP3    H129551   1.035   3.077   0.129 -1.8314  0.0029 -0.4746
 2664TIP3    H229552   0.946   3.170   0.209  0.4330  0.8930  1.1019
 2665TIP3   OH229553   6.436   3.701   0.214  0.4543  0.6268 -0.5988
 2665TIP3    H129554   6.446   3.632   0.279  2.1274  2.2814  1.0491
 2665TIP3    H229555   6.362   3.753   0.245  0.6861  0.9032 -0.5033
 2666TIP3   OH229556   5.553   1.705   1.612  0.4534 -0.0576  0.3305
 2666TIP3    H129557   5.561   1.785   1.664 -2.3950 -1.5307  3.4079
 2666TIP3    H229558   5.486   1.725   1.546  1.2678  0.6581 -0.3015
 2667TIP3   OH229559   6.041   2.541   0.871  0.0301  0.1769 -0.0317
 2667TIP3    H129560   6.038   2.556   0.776 -0.8028 -0.1087 -0.0621
 2667TIP3    H229561   5.950   2.553   0.900  0.5677  2.0567  1.0390
 2668TIP3   OH229562   3.910   4.951   7.174  0.2490  0.5529 -0.3585
 2668TIP3    H129563   3.833   4.902   7.203  0.5563 -0.7120 -1.5624
 2668TIP3    H229564   3.940   4.998   7.252 -0.6325 -0.4257  0.5947
 2669TIP3   OH229565   0.633   4.377   1.612 -0.2906 -0.0447  0.9833
 2669TIP3    H129566   0.540   4.389   1.592 -0.3092 -0.7608  0.6325
 2669TIP3    H229567   0.667   4.326   1.538  0.5502  0.8595  0.7220
 2670TIP3   OH229568   3.833   3.399   2.236  0.3342 -0.5462 -0.3764
 2670TIP3    H129569   3.883   3.467   2.191  0.4026 -0.8699 -0.8022
 2670TIP3    H229570   3.847   3.320   2.183  0.3445 -0.9162  0.1698
 2671TIP3   OH229571   4.064   2.217   7.692  0.1215 -0.0874  0.0814
 2671TIP3    H129572   4.129   2.173   7.747  0.0369  0.9283  1.0464
 2671TIP3    H229573   4.055   2.161   7.615  1.8694 -0.4358  0.0933
 2672TIP3   OH229574   1.965   6.367   7.351 -0.2614 -0.4784  0.3978
 2672TIP3    H129575   1.916   6.446   7.375  0.5859  0.3010 -0.3870
 2672TIP3    H229576   2.051   6.379   7.391  0.4664 -0.1516 -1.1986
 2673TIP3   OH229577   1.018   1.088   1.089  0.3338 -0.3376 -0.0292
 2673TIP3    H129578   1.005   1.125   1.175  0.2740  1.2036 -0.6741
 2673TIP3    H229579   0.973   1.148   1.029 -1.1618 -2.2851 -1.0061
 2674TIP3   OH229580   5.151   1.094   1.414 -0.2362  0.6872  0.5068
 2674TIP3    H129581   5.205   1.149   1.471  2.5074 -0.3691 -0.8607
 2674TIP3    H229582   5.180   1.116   1.325 -1.8486 -0.2077 -0.2800
 2675TIP3   OH229583   5.656   2.803   7.797  0.1958 -0.0180 -0.0168
 2675TIP3    H129584   5.655   2.712   7.766 -0.2064  0.1173 -0.4064
 2675TIP3    H229585   5.729   2.843   7.750  0.1018 -0.0294 -0.1743
 2676TIP3   OH229586   2.451   1.032   2.123  0.3391  0.8259  0.2519
 2676TIP3    H129587   2.491   1.074   2.047  0.3933  1.1789  0.4748
 2676TIP3    H229588   2.364   1.072   2.130  0.1710  0.4919  0.1287
 2677TIP3   OH229589   2.661   3.008   8.391  0.4611  0.1184  0.5503
 2677TIP3    H129590   2.601   3.075   8.424 -1.6669 -0.4931 -1.7732
 2677TIP3    H229591   2.630   2.926   8.429  0.7940 -0.0150  0.5387
 2678TIP3   OH229592   2.050   2.983   0.843 -0.1456 -0.5437  0.2153
 2678TIP3    H129593   2.038   3.004   0.936  1.7765 -0.5977  0.5276
 2678TIP3    H229594   1.962   2.977   0.808 -0.9318 -0.8977  2.1223
 2679TIP3   OH229595   2.848   5.992   8.715  0.1954  0.1250  0.0804
 2679TIP3    H129596   2.861   5.906   8.755  0.4415  0.4284  0.6616
 2679TIP3    H229597   2.935   6.033   8.718  0.6561 -0.5287 -2.4050
 2680TIP3   OH229598   6.741   4.269   2.197 -0.0726  0.2470 -0.3036
 2680TIP3    H129599   6.699   4.222   2.125  0.2312  0.8555 -0.8943
 2680TIP3    H229600   6.800   4.205   2.237  1.6380  0.5401 -2.1766
 2681TIP3   OH229601   1.829   6.844   8.103 -0.1712  0.1540 -0.0829
 2681TIP3    H129602   1.893   6.825   8.172  0.2569 -1.4696 -0.8979
 2681TIP3    H229603   1.824   6.764   8.051 -2.9605  0.1818 -0.0028
 2682TIP3   OH229604   0.561   3.434   7.728  0.6448  0.5394  0.1013
 2682TIP3    H129605   0.510   3.514   7.719 -0.5653  0.1595  2.7364
 2682TIP3    H229606   0.652   3.462   7.721  0.2042  1.6537 -1.8955
 2683TIP3   OH229607   2.670   4.376   8.212 -0.2055 -0.0778 -0.1069
 2683TIP3    H129608   2.588   4.326   8.205 -0.8401  1.0240 -0.9609
 2683TIP3    H229609   2.682   4.390   8.306 -0.7605 -0.6422  0.0512
 2684TIP3   OH229610   4.081   4.458   7.951  0.2882 -0.2955 -0.5460
 2684TIP3    H129611   4.112   4.431   8.037  1.8440 -1.1725 -1.3569
 2684TIP3    H229612   4.010   4.397   7.930 -0.1705 -0.0073  0.1398
 2685TIP3   OH229613   2.804   2.284   0.163  0.3107  0.2159  0.2724
 2685TIP3    H129614   2.890   2.242   0.162 -0.3341 -1.1709  0.1333
 2685TIP3    H229615   2.762   2.252   0.243 -0.8078 -0.7435 -0.6536
 2686TIP3   OH229616   5.557   4.680   6.958 -0.8671 -0.2649 -0.7070
 2686TIP3    H129617   5.545   4.686   7.053 -0.9731 -1.9026 -0.5839
 2686TIP3    H229618   5.483   4.626   6.929 -2.2171  2.1443 -2.0844
 2687TIP3   OH229619   4.698   4.077   1.596 -0.3802 -1.0079 -0.1203
 2687TIP3    H129620   4.718   4.034   1.679  1.9361  0.8043  0.3676
 2687TIP3    H229621   4.752   4.031   1.532 -0.2887 -0.8626 -0.1504
 2688TIP3   OH229622   0.795   2.564   7.174  0.2219  0.2011  0.1442
 2688TIP3    H129623   0.862   2.619   7.132 -0.0320  0.4143  0.0156
 2688TIP3    H229624   0.764   2.508   7.103  0.1029  0.2587  0.1510
 2689TIP3   OH229625   5.778   2.144   6.370  0.2244 -0.2488 -0.2396
 2689TIP3    H129626   5.700   2.157   6.424 -0.0433  0.5444 -0.7959
 2689TIP3    H229627   5.833   2.085   6.421 -0.9209 -1.1626 -0.0300
 2690TIP3   OH229628   4.089   3.478   7.352  0.4027  0.2999 -0.7277
 2690TIP3    H129629   4.055   3.477   7.441 -0.5239 -0.1279 -1.0686
 2690TIP3    H229630   4.011   3.467   7.297  1.1737 -1.8138 -1.5105
 2691TIP3   OH229631   5.930   0.579   1.119  0.0295 -0.3270 -1.0719
 2691TIP3    H129632   5.916   0.601   1.027  0.9903 -1.7848 -1.5815
 2691TIP3    H229633   5.995   0.643   1.149 -0.5866  0.4110 -1.2704
 2692TIP3   OH229634   3.035   2.494   1.468 -0.1095 -0.0756 -0.2542
 2692TIP3    H129635   3.040   2.578   1.424  2.4829 -0.3286 -0.5862
 2692TIP3    H229636   3.000   2.514   1.555 -2.0609  0.9018 -1.2140
 2693TIP3   OH229637   4.859   1.119   1.186 -0.1351 -0.0294  0.1582
 2693TIP3    H129638   4.832   1.170   1.110 -1.4819 -0.7151  0.1561
 2693TIP3    H229639   4.955   1.128   1.188 -0.0849  0.1220 -1.5245
 2694TIP3   OH229640   0.850   5.275   0.173 -0.3950  0.0353  0.2473
 2694TIP3    H129641   0.904   5.350   0.148 -2.8884  1.6531 -0.6178
 2694TIP3    H229642   0.887   5.201   0.124  1.8476  0.7334  0.7814
 2695TIP3   OH229643   1.256   4.062   1.147 -0.6514  0.6131 -0.3086
 2695TIP3    H129644   1.241   4.088   1.237  1.3308  2.9107 -0.5366
 2695TIP3    H229645   1.320   3.991   1.153  0.5875  1.7250  0.0987
 2696TIP3   OH229646   2.231   1.770   0.285 -0.1381 -0.0483 -0.1213
 2696TIP3    H129647   2.164   1.838   0.280 -2.0333 -1.8852 -1.6667
 2696TIP3    H229648   2.296   1.795   0.219 -1.0985 -0.0112 -1.0663
 2697TIP3   OH229649   4.946   0.578   1.116 -0.3236  0.6038  0.0887
 2697TIP3    H129650   4.888   0.502   1.109 -0.6673  0.8095  0.6250
 2697TIP3    H229651   5.032   0.542   1.133 -0.4562  0.3301  0.1715
 2698TIP3   OH229652   0.908   2.060   8.148  0.7102 -0.2755 -0.0399
 2698TIP3    H129653   0.831   2.022   8.106  1.1708 -0.4700 -0.7202
 2698TIP3    H229654   0.948   1.987   8.195  0.1668 -0.0467  0.7881
 2699TIP3   OH229655   0.486   1.160   7.082  0.2267 -0.1914  0.3191
 2699TIP3    H129656   0.424   1.129   7.016  1.0960 -1.0614 -0.1151
 2699TIP3    H229657   0.463   1.111   7.161 -0.3326  0.2974  0.4656
 2700TIP3   OH229658   4.266   2.750   1.590 -0.3480  0.4612  0.9367
 2700TIP3    H129659   4.357   2.772   1.611  0.0053 -0.2139  0.1693
 2700TIP3    H229660   4.269   2.659   1.561 -1.0546  0.8082 -0.3174
 2701TIP3   OH229661   3.866   3.947   0.933 -0.6791  0.2570  0.6246
 2701TIP3    H129662   3.891   3.855   0.922 -2.2714 -0.1435 -0.0331
 2701TIP3    H229663   3.836   3.973   0.846 -2.1246  0.7819  1.2521
 2702TIP3   OH229664   5.848   3.781   6.896  0.3394 -0.0260  0.0599
 2702TIP3    H129665   5.797   3.825   6.828 -1.2337 -0.0513  1.1610
 2702TIP3    H229666   5.862   3.848   6.963  0.9963 -0.2658  0.1701
 2703TIP3   OH229667   5.127   5.421   0.928 -0.1497 -0.5309  1.0239
 2703TIP3    H129668   5.048   5.398   0.978  0.0576 -1.4861  0.9280
 2703TIP3    H229669   5.130   5.357   0.856  0.0279  0.2913  0.2864
 2704TIP3   OH229670   2.293   5.071   1.573 -0.1570 -0.1003  0.5279
 2704TIP3    H129671   2.328   5.051   1.486  1.4907  0.6502  0.9705
 2704TIP3    H229672   2.248   4.991   1.600 -1.2204 -0.1531 -1.2364
 2705TIP3   OH229673   3.179   0.846   0.901 -0.0654  0.0755 -0.3202
 2705TIP3    H129674   3.272   0.858   0.920 -0.3191 -0.8115  1.7079
 2705TIP3    H229675   3.134   0.905   0.962 -0.8883 -1.5936  0.7568
 2706TIP3   OH229676   3.482   0.778   7.939 -0.4367  0.3842 -0.0951
 2706TIP3    H129677   3.470   0.766   8.034 -0.0409  1.2796  0.0757
 2706TIP3    H229678   3.541   0.853   7.932 -1.6674  1.2943 -1.0947
 2707TIP3   OH229679   5.248   3.833   0.768  0.0700 -0.1123 -0.2614
 2707TIP3    H129680   5.162   3.793   0.762  0.2733 -0.8395  1.1431
 2707TIP3    H229681   5.276   3.818   0.859  2.2091 -1.0385 -0.9962
 2708TIP3   OH229682   6.775   1.002   8.282 -0.6262  1.0403 -0.3052
 2708TIP3    H129683   6.745   1.092   8.288 -2.1706  0.5259 -0.0348
 2708TIP3    H229684   6.709   0.951   8.329  1.5286  0.0190  1.8296
 2709TIP3   OH229685   5.186   1.623   6.834 -0.2284  0.3538  0.0347
 2709TIP3    H129686   5.141   1.571   6.901 -0.2203 -3.9209 -2.8523
 2709TIP3    H229687   5.122   1.690   6.809 -1.2624  0.3390  2.3686
 2710TIP3   OH229688   3.895   0.723   2.373 -0.0308  0.0860  0.1172
 2710TIP3    H129689   3.801   0.710   2.380  0.1017 -1.0031  0.0196
 2710TIP3    H229690   3.931   0.678   2.449  0.5597 -1.5226 -1.0584
 2711TIP3   OH229691   3.693   0.734   7.417  0.3704  0.1190 -0.2709
 2711TIP3    H129692   3.712   0.806   7.477  2.1483 -0.5925  0.0853
 2711TIP3    H229693   3.661   0.777   7.337 -0.1996  1.1837  0.5033
 2712TIP3   OH229694   6.691   3.256   7.903 -0.3302 -0.0336 -0.2927
 2712TIP3    H129695   6.739   3.330   7.866 -0.7095  1.2158  1.5397
 2712TIP3    H229696   6.758   3.191   7.923  0.5075  1.1785  1.0691
 2713TIP3   OH229697   5.655   2.016   8.488  0.3375  0.2294  0.4350
 2713TIP3    H129698   5.622   2.074   8.420 -1.5545  0.7484  1.7285
 2713TIP3    H229699   5.577   1.979   8.529  1.4358 -2.8609  0.0431
 2714TIP3   OH229700   1.596   6.498   6.426 -0.3249 -0.1780 -0.3663
 2714TIP3    H129701   1.649   6.577   6.423  0.2131 -0.5750 -2.1876
 2714TIP3    H229702   1.506   6.529   6.428 -0.1063  0.4681 -0.3268
 2715TIP3   OH229703   1.721   2.432   8.508  0.8210 -0.2710  0.5311
 2715TIP3    H129704   1.766   2.377   8.571  1.7478 -0.4342 -0.2570
 2715TIP3    H229705   1.776   2.430   8.430  0.8772  1.7443  0.4586
 2716TIP3   OH229706   5.009   1.323   6.311  0.4016  0.2343 -0.1003
 2716TIP3    H129707   5.063   1.386   6.263  3.8681 -2.6081 -0.3058
 2716TIP3    H229708   4.953   1.378   6.367  1.9558  3.4896 -1.4708
 2717TIP3   OH229709   3.468   5.710   0.622 -0.3815  0.5942 -0.0259
 2717TIP3    H129710   3.419   5.681   0.698 -2.4030  3.5888 -0.0181
 2717TIP3    H229711   3.534   5.770   0.657  0.1858  0.2604 -0.4820
 2718TIP3   OH229712   3.520   5.380   1.429  0.2620 -0.4768 -0.1161
 2718TIP3    H129713   3.468   5.358   1.506 -0.3658  2.4278  0.4389
 2718TIP3    H229714   3.497   5.471   1.410  1.4758 -0.6394 -2.8980
 2719TIP3   OH229715   4.975   6.363   1.352  0.0651  0.3339  0.2511
 2719TIP3    H129716   5.049   6.341   1.408 -0.7118 -1.5304  0.6136
 2719TIP3    H229717   4.985   6.457   1.336  1.9186  0.3410  1.1140
 2720TIP3   OH229718   3.150   6.055   0.649 -1.0335 -0.0927  0.1789
 2720TIP3    H129719   3.194   6.080   0.730 -1.1455 -1.1007  0.5677
 2720TIP3    H229720   3.153   5.959   0.648  0.3454 -0.1054 -1.7838
 2721TIP3   OH229721   2.758   1.981   0.050 -0.4151 -0.3326  0.3095
 2721TIP3    H129722   2.782   1.889   0.065  0.5361  0.0312  1.1047
 2721TIP3    H229723   2.838   2.030   0.071 -1.1522  0.7427  0.6502
 2722TIP3   OH229724   3.255   3.698   2.161  0.0885 -0.0734  0.2346
 2722TIP3    H129725   3.269   3.788   2.131  1.7600 -0.3809  0.0330
 2722TIP3    H229726   3.222   3.707   2.251 -1.0221  0.7455 -0.2282
 2723TIP3   OH229727   2.563   2.920   0.862  0.2326 -0.1350  0.9913
 2723TIP3    H129728   2.481   2.967   0.878 -1.1663 -1.6983 -1.0238
 2723TIP3    H229729   2.624   2.987   0.831 -0.4560  0.9422  1.8783
 2724TIP3   OH229730   4.651   0.964   1.301 -0.0590 -0.0303 -0.0812
 2724TIP3    H129731   4.715   0.892   1.298  0.0797  0.1067 -1.8102
 2724TIP3    H229732   4.701   1.040   1.273 -0.9457  0.0888 -1.4184
 2725TIP3   OH229733   1.538   6.539   7.814  0.1671 -0.0041  0.2465
 2725TIP3    H129734   1.481   6.596   7.864 -1.4071 -1.0353 -0.2752
 2725TIP3    H229735   1.557   6.588   7.734  0.4828  0.5612  0.6585
 2726TIP3   OH229736   2.683   5.988   7.931  0.3457  0.9136 -0.5793
 2726TIP3    H129737   2.700   6.082   7.939  1.3409  0.6364  0.9024
 2726TIP3    H229738   2.762   5.946   7.964  0.4090 -0.4791 -2.3692
 2727TIP3   OH229739   3.261   5.011   1.357  0.2036 -0.2705 -0.1847
 2727TIP3    H129740   3.295   5.085   1.308 -1.4963 -0.4485 -1.7269
 2727TIP3    H229741   3.222   5.049   1.435  2.6088  0.0486  0.9676
 2728TIP3   OH229742   0.830   6.266   0.620 -0.7103  0.2108 -0.3916
 2728TIP3    H129743   0.786   6.342   0.658 -1.6091  0.3169 -1.5782
 2728TIP3    H229744   0.763   6.222   0.568  0.3615 -0.1172 -1.5653
 2729TIP3   OH229745   6.095   4.622   7.302  0.4272 -0.8380  0.0565
 2729TIP3    H129746   6.101   4.693   7.366  0.5265  1.2083 -2.1078
 2729TIP3    H229747   6.186   4.594   7.289  0.6109 -0.0248 -0.4763
 2730TIP3   OH229748   1.566   4.395   1.212  0.6016  0.2936 -0.0738
 2730TIP3    H129749   1.542   4.376   1.303  2.0841 -1.2661  0.0470
 2730TIP3    H229750   1.508   4.341   1.160  0.0067  0.9034 -0.0590
 2731TIP3   OH229751   1.641   1.351   0.407  0.0631  0.1697  0.0679
 2731TIP3    H129752   1.708   1.412   0.437  1.2215 -1.4805  1.0114
 2731TIP3    H229753   1.684   1.300   0.339 -0.0897 -1.1244  0.9038
 2732TIP3   OH229754   1.985   1.691   7.949  0.6597  0.1372  0.5086
 2732TIP3    H129755   1.969   1.645   8.031 -0.3635 -2.0633 -0.8241
 2732TIP3    H229756   1.935   1.772   7.956 -1.1091 -0.9611  1.2855
 2733TIP3   OH229757   0.167   0.977   7.125  0.5364 -0.3730  0.1612
 2733TIP3    H129758   0.199   1.025   7.201 -1.4336 -0.5786  1.1921
 2733TIP3    H229759   0.162   1.042   7.055  0.0213  0.4112  0.9142
 2734TIP3   OH229760   1.785   5.782   8.547  0.5960  0.2917 -0.9688
 2734TIP3    H129761   1.818   5.810   8.462 -0.1599  0.2277 -1.2932
 2734TIP3    H229762   1.801   5.688   8.549 -1.0589 -0.0532 -1.8461
 2735TIP3   OH229763   5.751   2.564   6.230  0.0890  0.5889 -0.2633
 2735TIP3    H129764   5.824   2.517   6.190  0.4507 -0.5209  1.5971
 2735TIP3    H229765   5.780   2.655   6.234  1.7182  0.0489  1.1287
 2736TIP3   OH229766   2.003   3.148   1.726 -0.2267  0.2237  0.0843
 2736TIP3    H129767   1.953   3.228   1.743 -0.8407  0.1359 -1.1322
 2736TIP3    H229768   1.936   3.081   1.710  0.2742 -0.2290 -0.1524
 2737TIP3   OH229769   0.945   4.970   0.437  0.0794 -0.6791 -0.6315
 2737TIP3    H129770   0.990   4.899   0.392 -1.0008 -0.2654 -2.4650
 2737TIP3    H229771   0.853   4.959   0.413 -0.2545  0.7210 -0.0802
 2738TIP3   OH229772   5.550   5.979   6.747 -0.0259  0.3167  0.7062
 2738TIP3    H129773   5.527   5.887   6.761  1.4840  0.0899  1.9594
 2738TIP3    H229774   5.550   5.991   6.652  1.6651 -1.5179  0.4214
 2739TIP3   OH229775   5.125   5.212   0.739 -0.4607 -0.3615 -1.0698
 2739TIP3    H129776   5.068   5.149   0.785 -1.3051  0.7113 -0.5873
 2739TIP3    H229777   5.203   5.162   0.716 -0.3394 -1.1580  0.8713
 2740TIP3   OH229778   6.155   6.027   1.254  0.0027  0.1131 -0.2416
 2740TIP3    H129779   6.239   6.056   1.291 -0.1484  0.2426  0.0014
 2740TIP3    H229780   6.178   5.956   1.195  0.3737  0.6630 -0.7800
 2741TIP3   OH229781   1.203   6.521   7.065 -0.1246 -0.1145  0.0079
 2741TIP3    H129782   1.165   6.482   7.143 -1.3611  0.7599 -0.1285
 2741TIP3    H229783   1.275   6.576   7.099  0.9296 -1.6059  0.2820
 2742TIP3   OH229784   0.537   0.898   7.696  0.2115  0.0019 -0.4175
 2742TIP3    H129785   0.515   0.843   7.771 -2.8459 -0.4363 -1.4826
 2742TIP3    H229786   0.521   0.988   7.727 -1.5208 -0.2061 -0.6021
 2743TIP3   OH229787   4.129   6.811   0.215 -0.4886  0.2112  0.0458
 2743TIP3    H129788   4.140   6.760   0.295 -0.1976  3.0763  2.0119
 2743TIP3    H229789   4.034   6.817   0.203 -0.5470  0.1467  0.4656
 2744TIP3   OH229790   0.602   4.892   7.936  0.2403  0.2033 -0.5459
 2744TIP3    H129791   0.561   4.822   7.887  0.4534 -1.0175  0.9655
 2744TIP3    H229792   0.681   4.913   7.886  0.4469 -0.9966 -0.7410
 2745TIP3   OH229793   4.446   6.766   6.978 -0.3956  0.2044  0.5237
 2745TIP3    H129794   4.364   6.771   6.929 -0.0295  1.0903 -0.0214
 2745TIP3    H229795   4.490   6.689   6.944  0.0064  1.0016 -0.8112
 2746TIP3   OH229796   0.015   2.685   0.134  0.3654  0.4116 -0.5489
 2746TIP3    H129797   0.051   2.674   0.222 -0.3879 -0.0618 -0.2870
 2746TIP3    H229798  -0.076   2.657   0.143  0.2670  0.4380 -1.4630
 2747TIP3   OH229799   4.386   3.451   7.960 -0.2733  0.0785  0.0604
 2747TIP3    H129800   4.472   3.456   7.919 -0.2634 -0.2688  0.0410
 2747TIP3    H229801   4.355   3.362   7.943 -0.4288  0.0469  0.4747
 2748TIP3   OH229802   2.627   0.799   7.169  0.0598 -0.1278 -0.6806
 2748TIP3    H129803   2.672   0.862   7.225  3.7763 -1.5852 -1.7144
 2748TIP3    H229804   2.635   0.836   7.081  0.3984 -1.0266 -1.0385
 2749TIP3   OH229805   5.936   2.605   1.611 -0.2154 -0.3341  0.1818
 2749TIP3    H129806   5.879   2.608   1.534  1.7578 -1.6528 -1.4495
 2749TIP3    H229807   5.961   2.513   1.619  0.0737 -0.1246  2.0874
 2750TIP3   OH229808   5.847   2.336   7.689 -0.0373  0.5478 -0.2953
 2750TIP3    H129809   5.904   2.259   7.686 -0.1844  0.0916  3.6300
 2750TIP3    H229810   5.906   2.410   7.669  1.0740 -0.2233  0.0401
 2751TIP3   OH229811   0.517   4.864   6.597 -0.2600 -0.0730  0.1855
 2751TIP3    H129812   0.505   4.781   6.643 -1.4505 -0.9852 -1.6362
 2751TIP3    H229813   0.481   4.930   6.656 -0.9174 -1.0792  0.9377
 2752TIP3   OH229814   3.561   5.974   1.882 -0.3053  0.1723 -0.4011
 2752TIP3    H129815   3.522   5.911   1.942 -1.1903 -1.0027 -2.1433
 2752TIP3    H229816   3.533   6.059   1.916  1.6688 -0.2104  2.5173
 2753TIP3   OH229817   4.799   2.374   8.039  0.2920  0.4530 -0.0143
 2753TIP3    H129818   4.738   2.383   8.113  1.5978 -0.1862  1.1930
 2753TIP3    H229819   4.757   2.309   7.982  0.1425 -0.5297  1.1573
 2754TIP3   OH229820   3.345   4.915   8.675 -0.4302  0.8220 -0.7375
 2754TIP3    H129821   3.416   4.979   8.679  0.3404 -0.0517 -0.0303
 2754TIP3    H229822   3.268   4.967   8.652  0.4734  1.7445 -1.8044
 2755TIP3   OH229823   4.795   4.136   7.859  0.0548  0.4392 -0.3514
 2755TIP3    H129824   4.789   4.049   7.898 -0.8016 -0.6785 -2.7926
 2755TIP3    H229825   4.709   4.176   7.876  0.3477  0.7341  0.5125
 2756TIP3   OH229826   4.501   0.696   1.955 -0.3274  0.4454  0.5147
 2756TIP3    H129827   4.534   0.614   1.991  0.6001  0.2326 -0.7700
 2756TIP3    H229828   4.410   0.678   1.931 -0.1424 -0.1955  0.2912
 2757TIP3   OH229829   0.600   1.531   0.474 -0.4421 -0.7784 -0.2438
 2757TIP3    H129830   0.564   1.577   0.549 -1.9128 -2.9913  0.5235
 2757TIP3    H229831   0.531   1.536   0.408  0.0914 -0.4197 -0.7829
 2758TIP3   OH229832   1.084   4.791   0.274  0.3751 -0.0512  0.3248
 2758TIP3    H129833   1.168   4.813   0.233  0.2828 -0.2219  0.0374
 2758TIP3    H229834   1.034   4.749   0.204 -0.4411  1.2188  0.1010
 2759TIP3   OH229835   3.384   0.167   6.677 -0.3488  0.1242 -0.6183
 2759TIP3    H129836   3.398   0.138   6.767 -0.4951  0.8650 -0.3544
 2759TIP3    H229837   3.429   0.101   6.624 -0.0001 -0.1494  0.0051
 2760TIP3   OH229838   3.774   1.028   7.459  0.1908 -0.0367  0.3444
 2760TIP3    H129839   3.772   1.025   7.364 -0.3333 -1.7490  0.3908
 2760TIP3    H229840   3.689   1.065   7.483  0.8066  1.5883  0.1453
 2761TIP3   OH229841   0.311   4.176   1.825 -0.4514  0.1033  0.0644
 2761TIP3    H129842   0.263   4.115   1.770  1.7400 -0.1943 -1.6972
 2761TIP3    H229843   0.305   4.260   1.779  0.0349  0.2274  0.2154
 2762TIP3   OH229844   6.688   3.019   1.540  0.3575  0.5606 -0.1049
 2762TIP3    H129845   6.603   2.981   1.561 -1.2815  3.0877 -1.5671
 2762TIP3    H229846   6.738   2.946   1.502 -1.4585 -0.8117 -0.0091
 2763TIP3   OH229847   1.198   4.946   0.979 -0.0084  0.7589 -0.3551
 2763TIP3    H129848   1.129   4.967   1.043 -0.1741 -1.5723  0.3051
 2763TIP3    H229849   1.180   4.856   0.952  3.1477 -0.2163  0.3587
 2764TIP3   OH229850   4.821   4.653   8.616  0.2391 -0.0015  0.1583
 2764TIP3    H129851   4.841   4.601   8.539  0.8238  1.0087 -0.3914
 2764TIP3    H229852   4.758   4.600   8.666 -0.1835 -0.6446 -1.0316
 2765TIP3   OH229853   0.881   5.847   8.683  0.1309 -0.1291 -0.4373
 2765TIP3    H129854   0.879   5.943   8.677 -1.3892 -0.0653  0.5077
 2765TIP3    H229855   0.790   5.820   8.667  0.4572 -1.3837 -0.2687
 2766TIP3   OH229856   2.412   3.988   0.925 -0.4908 -0.3760 -0.1834
 2766TIP3    H129857   2.436   3.905   0.967 -2.9444 -1.2215 -0.3063
 2766TIP3    H229858   2.365   4.036   0.993 -0.8796  0.0146 -0.7272
 2767TIP3   OH229859   6.618   4.884   7.395  0.2298  0.7729  0.1508
 2767TIP3    H129860   6.658   4.965   7.363  1.1030  0.1081 -0.4950
 2767TIP3    H229861   6.569   4.850   7.320 -3.1710  2.4707  1.4017
 2768TIP3   OH229862   6.575   1.137   1.485 -0.7065 -0.2355 -0.3608
 2768TIP3    H129863   6.486   1.160   1.461 -0.7957 -1.0263 -0.7856
 2768TIP3    H229864   6.573   1.043   1.499 -0.4753  0.0397  1.9315
 2769TIP3   OH229865   0.127   4.677   2.011  0.0280 -0.0265 -0.0224
 2769TIP3    H129866   0.103   4.747   2.073 -0.6562  0.3305 -0.6648
 2769TIP3    H229867   0.110   4.596   2.058  2.1309  0.1929  1.2332
 2770TIP3   OH229868   5.823   0.674   1.395 -0.0753  0.0088  0.0024
 2770TIP3    H129869   5.738   0.641   1.424  0.3672 -0.6507  0.5991
 2770TIP3    H229870   5.809   0.700   1.305 -0.8474 -0.3464  0.0064
 2771TIP3   OH229871   2.763   6.080   6.878 -0.1772 -0.0152 -0.0178
 2771TIP3    H129872   2.680   6.040   6.906 -0.4090  1.0593  0.9226
 2771TIP3    H229873   2.820   6.071   6.955 -0.0040  0.7945 -0.0447
 2772TIP3   OH229874   4.174   2.521   8.106 -0.0916 -0.3155  0.7055
 2772TIP3    H129875   4.147   2.432   8.127 -1.5105  0.1876  1.1749
 2772TIP3    H229876   4.198   2.518   8.013 -0.4757 -1.1151  0.6266
 2773TIP3   OH229877   2.556   2.294   8.166 -0.3900 -0.1714  0.1563
 2773TIP3    H129878   2.612   2.231   8.120 -0.7341 -1.0185  0.8562
 2773TIP3    H229879   2.583   2.287   8.258  0.1978  1.3918  0.1312
 2774TIP3   OH229880   0.969   0.657   0.878  0.0786  0.1821  0.1083
 2774TIP3    H129881   1.032   0.625   0.813  1.7636 -0.8564  2.1699
 2774TIP3    H229882   0.985   0.751   0.883 -0.9255  0.5148 -1.7879
 2775TIP3   OH229883   4.250   2.546   2.086  0.0892  0.5702  0.4500
 2775TIP3    H129884   4.218   2.586   2.006 -0.4790 -1.1264 -0.2213
 2775TIP3    H229885   4.200   2.465   2.094  1.1170  0.0241  1.7800
 2776TIP3   OH229886   0.569   1.102   1.403 -0.3033 -0.2068  0.9129
 2776TIP3    H129887   0.550   1.111   1.497  2.3753 -1.4195  1.6412
 2776TIP3    H229888   0.595   1.011   1.392  1.6672  0.4654 -0.5445
 2777TIP3   OH229889   1.179   6.795   8.493  0.1833  0.1864 -0.1390
 2777TIP3    H129890   1.114   6.839   8.547  0.5107  0.8355 -0.2601
 2777TIP3    H229891   1.253   6.856   8.490  0.1627  0.1633 -1.3335
 2778TIP3   OH229892   0.023   6.176   8.636 -0.6282  0.3564 -0.4044
 2778TIP3    H129893  -0.063   6.167   8.678 -0.9001  0.4217 -0.9415
 2778TIP3    H229894   0.006   6.229   8.558 -0.1004  0.3612 -0.5163
 2779TIP3   OH229895   0.671   3.746   0.987 -0.5031  0.7736 -1.1870
 2779TIP3    H129896   0.669   3.692   1.066 -0.0813 -0.9319 -2.2883
 2779TIP3    H229897   0.727   3.821   1.011 -1.2393  0.8449  0.4327
 2780TIP3   OH229898   1.754   6.750   1.107  0.1097  0.2125 -0.2952
 2780TIP3    H129899   1.722   6.668   1.143  0.1078  0.9758  1.5666
 2780TIP3    H229900   1.837   6.765   1.153  0.0168  1.3296 -0.4626
 2781TIP3   OH229901   5.583   5.391   0.115  0.0373  0.4971 -0.6270
 2781TIP3    H129902   5.632   5.314   0.086 -0.8195 -0.5362  0.5370
 2781TIP3    H229903   5.639   5.430   0.182 -0.3165 -0.1905  0.0889
 2782TIP3   OH229904   4.348   4.362   8.087  0.4197 -0.0454  0.0037
 2782TIP3    H129905   4.340   4.454   8.112  0.1745 -0.0939  0.1098
 2782TIP3    H229906   4.288   4.316   8.146  1.5325 -0.4392  0.8885
 2783TIP3   OH229907   1.524   2.414   8.236  0.4207  0.0241  0.0326
 2783TIP3    H129908   1.543   2.422   8.330  0.4275 -1.2238  0.1656
 2783TIP3    H229909   1.433   2.439   8.228  0.5066  0.4372  0.3270
 2784TIP3   OH229910   4.861   4.776   8.305 -0.0936 -0.4992 -0.0468
 2784TIP3    H129911   4.938   4.786   8.360  0.0345 -0.7599 -0.1768
 2784TIP3    H229912   4.844   4.682   8.303  0.9170 -0.6770 -1.8112
 2785TIP3   OH229913   1.407   2.385   7.293  0.2246  0.1631 -0.0495
 2785TIP3    H129914   1.397   2.347   7.380 -0.6623 -1.4078 -0.7953
 2785TIP3    H229915   1.500   2.372   7.272  1.0093  2.5611  1.4866
 2786TIP3   OH229916   5.490   2.828   8.099 -0.0053  0.5491  0.7168
 2786TIP3    H129917   5.498   2.754   8.039  0.2264  1.9597 -1.0642
 2786TIP3    H229918   5.402   2.862   8.085  0.6409  1.9494 -0.1519
 2787TIP3   OH229919   5.279   0.203   6.914  0.1684  0.4123 -0.1166
 2787TIP3    H129920   5.213   0.264   6.945  1.9072  0.9679  2.8269
 2787TIP3    H229921   5.359   0.255   6.906  1.3322 -1.1138  0.9723
 2788TIP3   OH229922   5.021   4.687   0.094 -0.8039 -0.1262  0.5844
 2788TIP3    H129923   5.072   4.609   0.115  0.3187  0.8017  1.4847
 2788TIP3    H229924   4.966   4.661   0.020  1.5776 -0.9878 -1.0170
 2789TIP3   OH229925   4.911   5.950   8.187  0.0347  0.2026 -0.5307
 2789TIP3    H129926   4.822   5.958   8.153 -0.7813 -2.3781  0.7434
 2789TIP3    H229927   4.965   5.933   8.110 -1.3660 -2.8580 -0.9849
 2790TIP3   OH229928   0.404   2.169   7.875  0.0258  0.2308  0.0227
 2790TIP3    H129929   0.380   2.177   7.968 -0.2906  1.5328 -0.1474
 2790TIP3    H229930   0.499   2.181   7.874 -0.1968  2.4027  0.0037
 2791TIP3   OH229931   0.530   3.513   8.267  0.0501 -0.6830  0.0090
 2791TIP3    H129932   0.435   3.519   8.258 -0.0774 -0.0815  1.4683
 2791TIP3    H229933   0.548   3.419   8.265 -0.6339 -0.8250  0.1550
 2792TIP3   OH229934   5.537   1.052   6.272 -0.9538  0.7326 -0.2028
 2792TIP3    H129935   5.559   1.081   6.184 -0.0602 -1.2850 -0.6852
 2792TIP3    H229936   5.605   1.090   6.328  0.9145 -1.2387 -0.9874
 2793TIP3   OH229937   2.698   6.124   0.672 -0.0831 -0.2681 -0.4325
 2793TIP3    H129938   2.706   6.064   0.598 -0.3498  1.3022 -1.8207
 2793TIP3    H229939   2.626   6.183   0.646 -1.1308 -0.5206  1.7298
 2794TIP3   OH229940   1.439   5.615   0.813 -0.1838  0.0517 -0.0288
 2794TIP3    H129941   1.353   5.576   0.799 -1.3335  1.5578  2.3786
 2794TIP3    H229942   1.458   5.600   0.905  2.0668 -0.0153 -0.4340
 2795TIP3   OH229943   5.507   3.334   8.318  0.4318  0.3902 -0.2852
 2795TIP3    H129944   5.441   3.339   8.248  0.3974  2.0303 -0.1880
 2795TIP3    H229945   5.517   3.241   8.335 -0.6975  0.0275 -1.4086
 2796TIP3   OH229946   2.080   5.533   8.206  0.0379  0.8207 -0.2547
 2796TIP3    H129947   2.042   5.473   8.142  1.2582  0.6785 -0.8868
 2796TIP3    H229948   2.070   5.488   8.290  2.1981 -1.0040 -0.8703
 2797TIP3   OH229949   4.066   4.765   8.189 -0.1519 -0.8926 -0.6216
 2797TIP3    H129950   3.976   4.731   8.181 -0.9475  0.7790  0.6121
 2797TIP3    H229951   4.122   4.689   8.174 -1.7946 -2.9838  2.7776
 2798TIP3   OH229952   5.756   0.139   7.288  0.0144  0.6123  0.0014
 2798TIP3    H129953   5.726   0.188   7.211  0.0751 -0.4465 -0.7218
 2798TIP3    H229954   5.697   0.166   7.358 -0.3953  1.1791 -0.5527
 2799TIP3   OH229955   0.986   2.636   0.760 -0.3448 -0.2999  0.2702
 2799TIP3    H129956   0.992   2.586   0.678 -0.5420  0.6186 -0.3147
 2799TIP3    H229957   1.076   2.660   0.781 -0.4056  0.5365 -0.3675
 2800TIP3   OH229958   5.116   4.159   7.821  0.0799 -1.1034  0.5617
 2800TIP3    H129959   5.144   4.078   7.777 -0.3896 -0.8872 -0.1515
 2800TIP3    H229960   5.024   4.144   7.843 -0.6578 -0.0191 -1.4583
 2801TIP3   OH229961   2.882   5.731   0.142  0.1804 -0.3768  0.0902
 2801TIP3    H129962   2.860   5.638   0.143  0.8688 -0.5490  0.0457
 2801TIP3    H229963   2.975   5.733   0.118  0.9453  0.1612  2.7957
 2802TIP3   OH229964   1.697   3.376   8.034  0.2277  0.2588  0.2815
 2802TIP3    H129965   1.710   3.443   7.966  1.5500 -0.7775 -0.5342
 2802TIP3    H229966   1.608   3.344   8.019 -0.3696  1.7025  0.5876
 2803TIP3   OH229967   3.865   2.465   7.289 -0.6035 -0.2092  0.4146
 2803TIP3    H129968   3.910   2.550   7.288 -2.6749  0.9812 -0.9622
 2803TIP3    H229969   3.804   2.471   7.362 -0.2210 -0.8601  0.7983
 2804TIP3   OH229970   6.376   4.231   7.808  0.3055  0.4753  0.2805
 2804TIP3    H129971   6.297   4.178   7.801  0.2261  0.4597  1.2619
 2804TIP3    H229972   6.346   4.318   7.832  0.5252  0.7039 -0.2433
 2805TIP3   OH229973   3.445   0.744   7.034 -0.2015  0.4120  0.4878
 2805TIP3    H129974   3.428   0.773   7.124 -1.6446  0.5544  0.1958
 2805TIP3    H229975   3.371   0.778   6.983  1.0071  1.0638 -0.9291
 2806TIP3   OH229976   5.714   5.029   7.316 -0.3599  0.4441  0.1134
 2806TIP3    H129977   5.737   5.121   7.306 -0.9286  0.8377  2.1081
 2806TIP3    H229978   5.790   4.982   7.282  0.2761  1.6462 -0.1823
 2807TIP3   OH229979   2.710   6.279   8.005 -0.4048 -0.9382 -0.1377
 2807TIP3    H129980   2.682   6.320   8.087 -2.0870 -0.0282 -1.0941
 2807TIP3    H229981   2.804   6.297   8.000 -0.5519  0.2810  0.8736
 2808TIP3   OH229982   4.494   3.842   7.679  0.3842  0.0344 -0.1060
 2808TIP3    H129983   4.484   3.920   7.625  0.2566 -0.9024 -1.4938
 2808TIP3    H229984   4.408   3.800   7.677  1.1909 -1.6737 -1.8834
 2809TIP3   OH229985   4.911   4.352   1.256 -0.5938  0.2786 -0.2158
 2809TIP3    H129986   4.926   4.270   1.209  1.1739  0.9358 -0.8850
 2809TIP3    H229987   4.820   4.373   1.239 -1.0031 -1.3777 -0.2807
 2810TIP3   OH229988   0.280   3.488   8.595  0.2501 -0.1810  0.1591
 2810TIP3    H129989   0.285   3.483   8.500  0.7944 -1.9833  0.2433
 2810TIP3    H229990   0.209   3.428   8.619  1.7026 -1.6230  0.9954
 2811TIP3   OH229991   0.382   5.290   6.716 -0.4125  0.3804 -0.0311
 2811TIP3    H129992   0.474   5.315   6.700  0.0923  0.0545  2.0844
 2811TIP3    H229993   0.339   5.303   6.631  1.6078  0.4117 -1.1269
 2812TIP3   OH229994   5.685   2.462   1.158 -0.1966 -0.6785  0.1458
 2812TIP3    H129995   5.606   2.426   1.198 -0.1861 -0.4288  0.3995
 2812TIP3    H229996   5.744   2.387   1.147  0.4657 -0.5204  2.1484
 2813TIP3   OH229997   4.323   1.083   1.947  0.2397 -0.6234 -0.0085
 2813TIP3    H129998   4.407   1.128   1.933 -0.0584 -0.1943 -0.4615
 2813TIP3    H229999   4.273   1.144   2.002 -0.6785  0.2505 -1.7430
 2814TIP3   OH230000   2.060   0.629   7.364  0.1544 -0.0892 -0.1447
 2814TIP3    H130001   1.965   0.619   7.370  0.1715 -1.2422 -1.4239
 2814TIP3    H230002   2.074   0.674   7.280  0.7500 -0.1848 -0.0975
 2815TIP3   OH230003   4.054   3.723   0.292  0.3552 -0.3347  0.3197
 2815TIP3    H130004   4.033   3.709   0.385 -0.9955 -0.2425  0.0498
 2815TIP3    H230005   4.068   3.635   0.258 -0.5725 -0.4988  0.3159
 2816TIP3   OH230006   4.947   3.379   0.743 -0.0426  0.1379 -0.2311
 2816TIP3    H130007   4.956   3.432   0.664 -0.9620  0.8770  0.1386
 2816TIP3    H230008   4.990   3.429   0.811  0.3176 -0.2648 -0.1592
 2817TIP3   OH230009   1.760   3.915   8.588  0.0557  0.3184 -0.0251
 2817TIP3    H130010   1.760   3.874   8.674 -0.6359  1.7810  0.7100
 2817TIP3    H230011   1.806   3.998   8.601 -0.0525  0.5643 -1.0781
 2818TIP3   OH230012   2.979   4.190   2.067  0.4125  0.1591 -0.5154
 2818TIP3    H130013   2.960   4.107   2.023 -1.6159  0.3688 -0.1351
 2818TIP3    H230014   3.008   4.248   1.997 -1.4695  0.0945 -1.4006
 2819TIP3   OH230015   3.905   5.206   1.136  0.3718  0.5040 -0.2318
 2819TIP3    H130016   3.967   5.170   1.072 -0.0031 -1.7484  0.5743
 2819TIP3    H230017   3.853   5.269   1.086 -0.9697 -2.2984 -2.6801
 2820TIP3   OH230018   0.612   0.188   8.172 -0.0000 -0.0498  0.0658
 2820TIP3    H130019   0.674   0.197   8.100  0.0533  0.4999  0.1758
 2820TIP3    H230020   0.634   0.104   8.212 -0.6733 -0.8281 -1.1523
 2821TIP3   OH230021   3.553   3.536   0.530  0.5436 -0.1066 -0.4046
 2821TIP3    H130022   3.596   3.615   0.563  1.4271 -0.1935 -1.3067
 2821TIP3    H230023   3.521   3.491   0.609  3.6604 -0.9333  0.5377
 2822TIP3   OH230024   3.671   4.008   6.485  0.0000 -0.2054 -0.1565
 2822TIP3    H130025   3.754   4.030   6.526  0.4207 -1.9059 -0.0445
 2822TIP3    H230026   3.687   4.017   6.391  0.3960 -0.8218 -0.1476
 2823TIP3   OH230027   1.936   3.625   0.365  0.1486 -0.1529 -0.0185
 2823TIP3    H130028   1.959   3.702   0.417 -0.3497  0.7067 -1.0338
 2823TIP3    H230029   2.020   3.594   0.330  0.5395 -0.9771  1.5804
 2824TIP3   OH230030   5.939   0.884   8.285 -0.1845 -0.9082 -0.2186
 2824TIP3    H130031   6.004   0.814   8.295  1.6579  0.8127  0.6782
 2824TIP3    H230032   5.986   0.954   8.240 -1.6098  0.1848 -0.0851
 2825TIP3   OH230033   4.700   2.951   8.494 -0.2533 -0.0791 -0.2573
 2825TIP3    H130034   4.655   2.881   8.542  1.9459 -2.6847 -1.7108
 2825TIP3    H230035   4.664   3.032   8.531 -2.3944 -1.9099  2.0796
 2826TIP3   OH230036   0.881   6.169   1.097  0.3044 -0.8209  0.8301
 2826TIP3    H130037   0.931   6.172   1.015 -1.0018  0.8746  0.0320
 2826TIP3    H230038   0.864   6.076   1.111 -0.3377 -1.1100 -1.4364
 2827TIP3   OH230039   5.950   5.105   7.196  0.1737 -0.7286  0.0852
 2827TIP3    H130040   5.954   5.033   7.133 -0.1038  0.0125 -0.8134
 2827TIP3    H230041   5.878   5.160   7.164  0.5201  0.0537  0.6190
 2828TIP3   OH230042   0.797   5.109   8.229  0.2545 -0.5803  0.1625
 2828TIP3    H130043   0.755   5.116   8.315  1.1167  0.4768  0.5200
 2828TIP3    H230044   0.752   5.174   8.175  0.6887 -0.2071  0.2418
 2829TIP3   OH230045   0.282   0.510   7.784 -0.1092  0.3267  0.4757
 2829TIP3    H130046   0.270   0.578   7.850 -0.0374  1.4492 -0.6488
 2829TIP3    H230047   0.242   0.545   7.705  1.3248 -0.2623 -0.5537
 2830TIP3   OH230048   1.112   5.200   6.526  0.0757 -0.0715 -0.4259
 2830TIP3    H130049   1.133   5.124   6.472  1.0822  0.8079 -1.3256
 2830TIP3    H230050   1.142   5.176   6.614  2.2716  0.0156 -1.0944
 2831TIP3   OH230051   3.803   2.302   7.633  0.3270 -0.0017  0.0276
 2831TIP3    H130052   3.772   2.243   7.564  0.5266 -1.1527  0.9035
 2831TIP3    H230053   3.895   2.279   7.644  0.4633  0.6283  0.2378
 2832TIP3   OH230054   4.574   4.826   2.254 -0.0901 -0.0165  0.4601
 2832TIP3    H130055   4.538   4.915   2.257  1.3146  0.5437  1.1786
 2832TIP3    H230056   4.517   4.775   2.311  0.1097  0.8060  1.4085
 2833TIP3   OH230057   1.669   4.031   0.904 -0.5717 -0.2841 -0.0769
 2833TIP3    H130058   1.699   4.072   0.985  0.3002  0.2044 -0.6349
 2833TIP3    H230059   1.575   4.017   0.918 -0.6195  0.6520  0.6573
 2834TIP3   OH230060   1.552   3.627   0.689  0.2074  0.3380  0.6730
 2834TIP3    H130061   1.560   3.615   0.594  0.2384 -2.5166  0.9302
 2834TIP3    H230062   1.459   3.638   0.705  0.1308  0.1590  0.3506
 2835TIP3   OH230063   3.019   0.415   0.366  0.3251  0.3359  0.2597
 2835TIP3    H130064   2.980   0.486   0.416 -0.1139  0.1183  0.2294
 2835TIP3    H230065   3.073   0.368   0.429 -0.3488 -0.0334  0.5720
 2836TIP3   OH230066   0.939   2.960   2.269  0.0756  0.0953  0.1077
 2836TIP3    H130067   0.852   2.923   2.285 -0.0772  0.0527 -0.7505
 2836TIP3    H230068   0.984   2.894   2.217  0.2609  0.5462 -0.3103
 2837TIP3   OH230069   4.805   3.315   8.444  0.5875  0.0371  0.0055
 2837TIP3    H130070   4.748   3.285   8.373 -0.0139  1.5220 -0.1928
 2837TIP3    H230071   4.774   3.269   8.522 -0.2691  0.0976 -0.2867
 2838TIP3   OH230072   5.742   1.755   0.091  0.5638 -0.3291  0.1146
 2838TIP3    H130073   5.652   1.749   0.058  0.2379 -0.4272  0.9878
 2838TIP3    H230074   5.774   1.838   0.058 -0.6011  0.7389  1.5372
 2839TIP3   OH230075   6.613   1.798   8.034  0.4857 -0.6104  0.0373
 2839TIP3    H130076   6.549   1.835   8.094  1.0908 -1.5101  1.2807
 2839TIP3    H230077   6.566   1.729   7.987  1.0145 -2.8530  2.5645
 2840TIP3   OH230078   5.079   2.986   7.762 -0.2871  0.0972  0.1104
 2840TIP3    H130079   5.072   2.965   7.669 -0.3455  0.4057  0.0429
 2840TIP3    H230080   5.023   3.062   7.773 -0.9575 -0.4553  0.5715
 2841TIP3   OH230081   1.721   3.787   1.886 -0.2522 -0.4538 -0.4011
 2841TIP3    H130082   1.629   3.790   1.858 -0.8731  1.4639  1.6392
 2841TIP3    H230083   1.721   3.728   1.961  0.2987 -0.7741 -0.6446
 2842TIP3   OH230084   0.482   0.078   0.311 -0.0168 -0.5494  0.4164
 2842TIP3    H130085   0.393   0.100   0.339  0.7257  3.2077  0.3569
 2842TIP3    H230086   0.537   0.100   0.386  1.0209 -1.7316  0.0420
 2843TIP3   OH230087   2.605   1.812   0.376  0.2291  0.5321 -0.3494
 2843TIP3    H130088   2.689   1.846   0.343  1.0662 -0.0483  1.0797
 2843TIP3    H230089   2.630   1.741   0.436 -1.3559 -0.7645 -1.1305
 2844TIP3   OH230090   1.637   6.585   7.547 -0.4170 -0.0539 -0.1986
 2844TIP3    H130091   1.713   6.640   7.565 -0.8917  0.9258 -1.1207
 2844TIP3    H230092   1.664   6.531   7.473 -0.7322  0.5354 -0.7469
 2845TIP3   OH230093   5.028   0.142   8.725 -0.3309  0.8569 -0.2276
 2845TIP3    H130094   4.999   0.067   8.674 -0.4516  1.3878 -0.9687
 2845TIP3    H230095   5.111   0.168   8.685  1.2187 -0.6367  1.8701
 2846TIP3   OH230096   6.132   5.111   7.439 -0.2897 -0.1738  0.2000
 2846TIP3    H130097   6.106   5.135   7.349  2.9215  2.8091 -0.1315
 2846TIP3    H230098   6.097   5.182   7.493  1.3802  0.3941  0.6055
 2847TIP3   OH230099   4.080   3.228   6.742 -0.0594  0.0478  0.5995
 2847TIP3    H130100   4.048   3.253   6.655 -0.6742 -2.2767  0.0872
 2847TIP3    H230101   4.172   3.205   6.728 -0.5491 -1.8226  0.1769
 2848TIP3   OH230102   6.592   2.612   7.071  0.4188  0.1743  0.3683
 2848TIP3    H130103   6.663   2.580   7.016 -0.6943 -0.3528 -0.8221
 2848TIP3    H230104   6.527   2.541   7.070  0.5342 -0.0612  2.7606
 2849TIP3   OH230105   5.728   3.224   0.828 -0.7298 -0.2288  0.0677
 2849TIP3    H130106   5.703   3.230   0.736 -1.1321  1.2295  0.2457
 2849TIP3    H230107   5.715   3.313   0.863  0.8414 -0.3646  1.1586
 2850TIP3   OH230108   4.988   6.655   1.334  0.2576  0.3552 -0.0553
 2850TIP3    H130109   4.912   6.713   1.332  0.0733  0.1278  0.2693
 2850TIP3    H230110   5.052   6.700   1.390 -1.0322 -1.1208  2.8201
 2851TIP3   OH230111   1.315   6.714   6.154 -0.0097 -0.3782 -0.9305
 2851TIP3    H130112   1.227   6.746   6.132  0.2909  0.2782 -1.1961
 2851TIP3    H230113   1.331   6.645   6.090  0.1932  0.4048 -1.7511
 2852TIP3   OH230114   0.808   5.509   0.634 -0.3325  1.0751 -0.3210
 2852TIP3    H130115   0.805   5.415   0.615  1.1045  1.1133 -0.8748
 2852TIP3    H230116   0.783   5.551   0.552 -2.2093  1.2038  0.2679
 2853TIP3   OH230117   0.602   6.840   8.630  0.0156  0.2182  0.5199
 2853TIP3    H130118   0.651   6.797   8.700 -1.9900 -0.6703  1.4677
 2853TIP3    H230119   0.525   6.785   8.618 -1.4115  2.2063  0.0208
 2854TIP3   OH230120   1.387   0.322   0.282  0.0662 -0.3971 -0.5111
 2854TIP3    H130121   1.482   0.326   0.287  0.0839 -1.0836 -0.1398
 2854TIP3    H230122   1.367   0.228   0.290 -0.5631 -0.4127 -1.9010
 2855TIP3   OH230123   2.294   3.129   8.053  0.2736 -0.3445 -0.1625
 2855TIP3    H130124   2.228   3.074   8.012 -0.3508  0.1568  0.1429
 2855TIP3    H230125   2.331   3.075   8.123 -0.3347 -0.3890  0.1339
 2856TIP3   OH230126   3.597   1.066   7.905  0.3098  0.2815 -0.1512
 2856TIP3    H130127   3.630   1.015   7.979  1.9435  0.0009 -1.0092
 2856TIP3    H230128   3.634   1.154   7.918  0.9694  0.1141 -0.8426
 2857TIP3   OH230129   6.203   2.105   0.485 -0.6122  0.5567  0.6035
 2857TIP3    H130130   6.290   2.110   0.445 -0.5535  2.9926  0.9256
 2857TIP3    H230131   6.219   2.099   0.579 -0.7935  0.4171  0.6276
 2858TIP3   OH230132   1.439   1.594   0.720 -0.2353  0.0687  0.1871
 2858TIP3    H130133   1.424   1.642   0.802  0.3487 -0.5796  0.6873
 2858TIP3    H230134   1.533   1.577   0.720 -0.1645  0.4267 -0.8366
 2859TIP3   OH230135   3.755   0.825   1.175 -0.2694 -0.1533  0.1006
 2859TIP3    H130136   3.677   0.805   1.123  0.0894 -1.3506 -0.0243
 2859TIP3    H230137   3.822   0.849   1.111 -0.4955  0.7488  0.1982
 2860TIP3   OH230138   4.895   3.348   1.420  0.1087  0.2737  0.3321
 2860TIP3    H130139   4.901   3.441   1.398 -1.0452  0.2331 -0.2566
 2860TIP3    H230140   4.936   3.303   1.346  1.1848  0.3140  0.8821
 2861TIP3   OH230141   4.908   1.692   0.897  0.6294  0.1904  0.4811
 2861TIP3    H130142   4.974   1.679   0.965  0.5695  1.3976  0.8029
 2861TIP3    H230143   4.830   1.721   0.944  0.2114 -0.1313  0.0007
 2862TIP3   OH230144   3.206   1.492   8.040  0.0833 -0.3361  0.2442
 2862TIP3    H130145   3.208   1.397   8.030  1.4971 -0.6163  2.5776
 2862TIP3    H230146   3.283   1.523   7.992  0.5526 -0.5429  0.8569
 2863TIP3   OH230147   3.682   4.931   1.732  0.3115 -0.4333  0.1829
 2863TIP3    H130148   3.652   4.965   1.816 -0.8760 -0.5220 -0.1932
 2863TIP3    H230149   3.606   4.937   1.674  0.5635 -2.0929 -0.3831
 2864TIP3   OH230150   1.070   6.792   5.974 -0.1892 -0.4959  0.0947
 2864TIP3    H130151   1.092   6.862   5.912  0.6898 -0.7506  0.1063
 2864TIP3    H230152   0.976   6.779   5.963 -0.6534  1.6088  1.0478
 2865TIP3   OH230153   2.752   0.603   7.495  0.7798  0.0481 -0.3076
 2865TIP3    H130154   2.788   0.632   7.412 -0.3827  0.0258 -0.8313
 2865TIP3    H230155   2.719   0.683   7.537  1.5399  0.0906  0.2361
 2866TIP3   OH230156   6.633   1.654   7.470  0.3351 -0.1872  0.3672
 2866TIP3    H130157   6.549   1.650   7.516  0.4547  0.2774  0.6282
 2866TIP3    H230158   6.692   1.695   7.532  0.8781 -0.9328  0.3601
 2867TIP3   OH230159   6.554   5.200   8.122  0.4379 -0.0443  0.0025
 2867TIP3    H130160   6.557   5.286   8.162 -2.8210  0.2189 -0.0015
 2867TIP3    H230161   6.469   5.198   8.077  0.8893 -2.8551 -0.9265
 2868TIP3   OH230162   3.177   0.487   1.056  0.3864 -0.5252 -0.1419
 2868TIP3    H130163   3.245   0.489   1.124 -0.7699  0.1249  1.0363
 2868TIP3    H230164   3.127   0.408   1.073 -0.3061 -0.0230  0.1649
 2869TIP3   OH230165   6.117   6.655   7.625 -0.0235  0.1980  0.2574
 2869TIP3    H130166   6.117   6.575   7.677  1.6718 -0.5371 -0.7881
 2869TIP3    H230167   6.159   6.720   7.681 -2.3618  0.7322  1.5302
 2870TIP3   OH230168   6.394   5.888   0.454  0.0326  0.4802  0.6786
 2870TIP3    H130169   6.319   5.924   0.501 -0.6361  0.5445 -0.4282
 2870TIP3    H230170   6.451   5.853   0.524  0.1351  2.5551  1.6958
 2871TIP3   OH230171   1.348   5.686   6.543  0.3837  0.5071  0.2401
 2871TIP3    H130172   1.423   5.646   6.500  0.1713  0.1407  0.2055
 2871TIP3    H230173   1.279   5.620   6.537 -1.0438  2.0480 -2.8370
 2872TIP3   OH230174   3.594   3.330   0.791  0.5683 -0.2684  0.0050
 2872TIP3    H130175   3.601   3.236   0.775  0.3558 -0.1359 -0.8993
 2872TIP3    H230176   3.634   3.343   0.877  0.1365 -1.2604  0.3688
 2873TIP3   OH230177   2.712   4.680   8.277  0.3174 -0.2764  0.3169
 2873TIP3    H130178   2.635   4.640   8.316  0.3900 -0.5356  0.1971
 2873TIP3    H230179   2.725   4.761   8.326 -0.0948 -0.1760  0.2649
 2874TIP3   OH230180   4.338   3.255   1.499  0.2066 -0.0963  0.7403
 2874TIP3    H130181   4.408   3.221   1.444  1.1402 -1.5202  2.6634
 2874TIP3    H230182   4.384   3.310   1.564 -0.7038  0.6019  0.8075
 2875TIP3   OH230183   3.062   6.609   1.889 -0.3829 -0.0205  0.9099
 2875TIP3    H130184   3.044   6.642   1.801  1.5733 -0.7426  0.1927
 2875TIP3    H230185   2.983   6.559   1.912 -0.5868 -0.5633 -0.8098
 2876TIP3   OH230186   1.609   2.422   7.492  0.0992  0.2098 -0.3458
 2876TIP3    H130187   1.649   2.384   7.570 -2.8292 -2.9682 -0.1508
 2876TIP3    H230188   1.646   2.372   7.419  0.6991  1.2264 -0.7632
 2877TIP3   OH230189   0.447   0.240   6.112  0.2024 -0.0217  0.7734
 2877TIP3    H130190   0.497   0.321   6.127 -1.4835  0.7842  2.4618
 2877TIP3    H230191   0.357   0.270   6.101 -0.1678 -1.5533 -0.6867
 2878TIP3   OH230192   6.077   1.191   7.800 -0.1034  0.7490  0.2037
 2878TIP3    H130193   5.989   1.215   7.827 -0.1885  2.0155 -1.0918
 2878TIP3    H230194   6.069   1.169   7.708  1.0012  1.3777 -0.0686
 2879TIP3   OH230195   0.961   1.538   0.036 -0.5195 -0.0539 -0.4757
 2879TIP3    H130196   1.043   1.496   0.011  0.4125  0.9533  0.7440
 2879TIP3    H230197   0.903   1.523  -0.038  0.2705 -2.0787 -0.7374
 2880TIP3   OH230198   0.887   2.666   2.551 -0.2282 -0.0522 -0.0211
 2880TIP3    H130199   0.929   2.734   2.603 -1.4021  0.1805  0.6458
 2880TIP3    H230200   0.950   2.593   2.553 -0.0527  0.1006  1.3835
 2881TIP3   OH230201   5.332   5.172   1.145  0.1572 -0.4666  0.8014
 2881TIP3    H130202   5.320   5.263   1.172  0.7603 -0.4181  0.9149
 2881TIP3    H230203   5.248   5.148   1.106 -0.3299 -0.1583  1.6124
 2882TIP3   OH230204   1.320   1.208   1.599 -0.2128 -0.0500  0.1406
 2882TIP3    H130205   1.226   1.214   1.613 -0.0941  1.3104  0.5674
 2882TIP3    H230206   1.357   1.204   1.688  0.1690  0.4020  0.0065
 2883TIP3   OH230207   3.735   0.915   7.176  0.2908  0.0252  0.1913
 2883TIP3    H130208   3.798   0.860   7.129 -1.5415 -0.5145 -1.7832
 2883TIP3    H230209   3.754   1.004   7.146  0.6949 -0.0209  0.3059
 2884TIP3   OH230210   3.497   5.651   1.409 -0.2804  0.1361 -0.4455
 2884TIP3    H130211   3.495   5.734   1.362 -0.1410  0.9674  0.9654
 2884TIP3    H230212   3.405   5.633   1.430 -0.3977 -0.4878 -1.4235
 2885TIP3   OH230213   0.590   3.130   2.361  0.2362  0.0963  0.2707
 2885TIP3    H130214   0.592   3.049   2.411 -0.4303  0.2021  0.4782
 2885TIP3    H230215   0.497   3.151   2.351  0.3822  0.5633 -0.2226
 2886TIP3   OH230216   1.603   5.148   7.615 -0.2116  0.1999  0.1466
 2886TIP3    H130217   1.680   5.091   7.622  0.1702  0.7950  0.8828
 2886TIP3    H230218   1.610   5.187   7.527 -0.7043 -1.1898 -0.5381
 2887TIP3   OH230219   2.415   5.329   2.242 -0.1278 -0.6713  0.3182
 2887TIP3    H130220   2.458   5.401   2.289  1.1948 -0.5053 -1.0860
 2887TIP3    H230221   2.420   5.255   2.303  0.0397 -0.0273  1.1081
 2888TIP3   OH230222   2.610   3.409   2.398 -0.1279 -0.0583  0.1884
 2888TIP3    H130223   2.660   3.423   2.479 -0.3634 -1.3530  0.5878
 2888TIP3    H230224   2.572   3.322   2.409 -0.3857 -0.1400 -1.2143
 2889TIP3   OH230225   6.368   6.280   7.966  0.1413  0.0558  0.0153
 2889TIP3    H130226   6.365   6.310   8.057 -0.7972 -1.3061  0.4553
 2889TIP3    H230227   6.431   6.208   7.966  1.1436  0.8960 -0.7074
 2890TIP3   OH230228   5.559   6.525   1.167 -0.0510  0.6414  0.1455
 2890TIP3    H130229   5.535   6.606   1.210  0.7760 -0.1872  2.3291
 2890TIP3    H230230   5.654   6.533   1.152 -0.0457  0.2646 -0.0309
 2891TIP3   OH230231   0.472   0.834   8.588  0.0169 -0.4971  0.2164
 2891TIP3    H130232   0.423   0.825   8.669 -1.2439 -3.7858 -0.7472
 2891TIP3    H230233   0.405   0.847   8.520  0.8964  0.0438 -0.5790
 2892TIP3   OH230234   6.131   3.917   0.240 -0.4407 -0.2846 -0.1570
 2892TIP3    H130235   6.038   3.920   0.216 -1.2814  2.3293  2.7277
 2892TIP3    H230236   6.135   3.852   0.311  0.4938 -2.1204 -1.7861
 2893TIP3   OH230237   6.795   0.534   0.855  0.2096 -0.4221 -0.7087
 2893TIP3    H130238   6.791   0.577   0.940 -0.3456 -0.5314 -0.6808
 2893TIP3    H230239   6.790   0.605   0.791  2.7029 -0.1149 -0.6804
 2894TIP3   OH230240   4.124   1.999   1.568  0.4225 -0.6287 -0.2565
 2894TIP3    H130241   4.145   1.912   1.601  2.5329  1.1340  3.6362
 2894TIP3    H230242   4.028   2.001   1.564  0.2317 -2.3823  1.9527
 2895TIP3   OH230243   3.439   3.995   8.517  0.2941  0.2188  0.5247
 2895TIP3    H130244   3.486   4.018   8.437  2.2414 -2.2462  0.8292
 2895TIP3    H230245   3.353   3.966   8.487  0.7030  0.1240 -0.5976
 2896TIP3   OH230246   2.720   2.108   6.659  0.4141  0.1131 -0.0616
 2896TIP3    H130247   2.805   2.152   6.655  0.3715  0.2067  0.0616
 2896TIP3    H230248   2.737   2.020   6.626  0.6490 -0.0106  0.3834
 2897TIP3   OH230249   2.760   3.974   7.504 -0.5249  0.0844 -0.4176
 2897TIP3    H130250   2.682   3.972   7.559  0.1493  0.2067  0.5590
 2897TIP3    H230251   2.821   3.912   7.545  0.3527  0.8948 -0.4612
 2898TIP3   OH230252   3.068   5.413   1.600 -0.1728 -0.3944 -0.6785
 2898TIP3    H130253   3.082   5.431   1.693 -0.3459  0.6916 -0.8455
 2898TIP3    H230254   2.976   5.388   1.595 -0.5125  0.7791 -0.7048
 2899TIP3   OH230255   3.478   4.622   0.607 -0.5333  0.2287  0.1288
 2899TIP3    H130256   3.479   4.679   0.530  2.4096 -1.1090 -0.9626
 2899TIP3    H230257   3.539   4.664   0.668 -0.2816 -0.4241  0.3302
 2900TIP3   OH230258   0.003   6.303   8.363  0.0872 -0.1493  0.6939
 2900TIP3    H130259  -0.017   6.214   8.336  1.8730 -0.1225 -0.9453
 2900TIP3    H230260  -0.003   6.354   8.282 -1.4989  1.3616  1.6995
 2901TIP3   OH230261   3.522   6.539   7.398  0.7077 -0.1313 -0.4041
 2901TIP3    H130262   3.523   6.600   7.324  1.7403 -0.3236 -0.5648
 2901TIP3    H230263   3.598   6.483   7.384  0.8132 -0.2923  0.7011
 2902TIP3   OH230264   2.778   5.314   1.659 -0.5553 -0.4526 -0.0812
 2902TIP3    H130265   2.827   5.293   1.738  0.6243  1.5721 -0.2121
 2902TIP3    H230266   2.710   5.375   1.687 -1.5001 -1.3656 -0.3126
 2903TIP3   OH230267   3.034   5.009   0.078 -0.0059 -0.3564 -0.1602
 2903TIP3    H130268   3.007   5.061   0.154 -0.0428  0.4610 -0.7103
 2903TIP3    H230269   2.953   4.998   0.027 -0.3654 -2.4263  0.7660
 2904TIP3   OH230270   6.638   1.919   7.116  0.5714  0.2984  0.2612
 2904TIP3    H130271   6.683   1.864   7.053  1.3866 -0.7587  1.7217
 2904TIP3    H230272   6.564   1.866   7.146  0.8952  0.3019  1.0814
 2905TIP3   OH230273   1.271   4.548   8.205  0.4147  0.4468  0.6005
 2905TIP3    H130274   1.213   4.605   8.154  1.1437  0.7409  0.0866
 2905TIP3    H230275   1.212   4.482   8.243 -0.1771  0.3455 -0.4420
 2906TIP3   OH230276   5.892   0.659   8.702  0.3866 -0.5674  0.3988
 2906TIP3    H130277   5.950   0.604   8.756  2.3490  0.5415 -0.4619
 2906TIP3    H230278   5.877   0.737   8.756 -2.3143 -1.7815  1.5779
 2907TIP3   OH230279   0.383   5.110   2.017  0.7309 -0.2081 -0.3699
 2907TIP3    H130280   0.325   5.106   2.092 -0.4002  0.2456 -1.1848
 2907TIP3    H230281   0.408   5.019   1.999  0.9166 -0.3239  0.4710
 2908TIP3   OH230282   4.833   0.662   8.165 -0.1376  0.0781  0.3352
 2908TIP3    H130283   4.862   0.571   8.160  0.9369  0.4197  0.0847
 2908TIP3    H230284   4.903   0.707   8.212  0.5058  1.2027 -1.5694
 2909TIP3   OH230285   6.163   3.903   8.659 -0.2065  0.0701  0.4866
 2909TIP3    H130286   6.092   3.952   8.700  0.4614  0.7307  0.8797
 2909TIP3    H230287   6.201   3.852   8.730  0.3335  0.4728  0.4947
 2910TIP3   OH230288   3.255   4.208   1.805 -0.2944 -0.1221  0.3170
 2910TIP3    H130289   3.258   4.115   1.826  1.5508 -0.2500 -0.3159
 2910TIP3    H230290   3.296   4.251   1.879 -2.9585  0.4702  1.5853
 2911TIP3   OH230291   5.884   0.486   8.489  0.5239 -0.1039  0.1276
 2911TIP3    H130292   5.917   0.402   8.521 -0.8949 -0.3025  1.1372
 2911TIP3    H230293   5.877   0.541   8.566 -0.3105  0.3291 -0.2407
 2912TIP3   OH230294   4.554   3.586   8.133 -0.0978 -0.3870  0.1833
 2912TIP3    H130295   4.504   3.522   8.082 -1.7466  1.1139 -0.1792
 2912TIP3    H230296   4.631   3.538   8.163 -1.3927 -2.6036  0.1656
 2913TIP3   OH230297   6.093   2.082   7.187 -0.5372  0.9272 -0.8008
 2913TIP3    H130298   6.094   2.125   7.102  3.6325 -2.1540 -2.6471
 2913TIP3    H230299   6.167   2.120   7.234  0.6737 -1.1642 -0.8851
 2914TIP3   OH230300   3.894   3.454   0.516 -0.4062  0.6638  0.0673
 2914TIP3    H130301   3.912   3.547   0.512 -1.7587  0.9128 -1.3179
 2914TIP3    H230302   3.830   3.439   0.446 -1.9403 -0.8775  1.6682
 2915TIP3   OH230303   2.037   4.622   7.725  0.1297  0.1151 -0.7919
 2915TIP3    H130304   2.116   4.571   7.744 -1.2448 -1.2130  2.0308
 2915TIP3    H230305   1.967   4.557   7.717 -1.2088  1.3583  0.1147
 2916TIP3   OH230306   1.663   2.593   0.655  0.5044  0.2885  0.1166
 2916TIP3    H130307   1.658   2.614   0.748 -0.2600 -0.5733  0.2793
 2916TIP3    H230308   1.715   2.512   0.652 -0.7411 -0.5392 -0.0457
 2917TIP3   OH230309   1.081   6.597   1.218 -0.7206  0.0404 -0.1977
 2917TIP3    H130310   0.990   6.593   1.191 -0.7292 -0.9488 -0.0583
 2917TIP3    H230311   1.122   6.521   1.176  0.3642  1.2553 -1.4134
 2918TIP3   OH230312   4.849   4.244   7.233  0.3194  0.3429  0.1564
 2918TIP3    H130313   4.776   4.222   7.174  2.0539  0.3581 -2.1435
 2918TIP3    H230314   4.808   4.293   7.304 -1.9821 -0.1017 -0.7668
 2919TIP3   OH230315   0.257   2.120   7.633  0.4929 -0.2178  0.1587
 2919TIP3    H130316   0.311   2.111   7.712  0.2238  1.2736  0.5383
 2919TIP3    H230317   0.313   2.166   7.571  0.3396 -0.4545 -0.1575
 2920TIP3   OH230318   3.043   5.221   7.214  0.5568 -0.2037  0.0990
 2920TIP3    H130319   3.122   5.167   7.209  2.1853  1.8803  1.4835
 2920TIP3    H230320   3.067   5.302   7.169 -0.1546  1.1147  1.9703
 2921TIP3   OH230321   1.657   1.775   7.767  0.1100 -0.0609  0.2073
 2921TIP3    H130322   1.670   1.689   7.805  0.8881  0.7429  1.8486
 2921TIP3    H230323   1.731   1.786   7.707  2.0209  0.7687  2.5634
 2922TIP3   OH230324   5.471   2.217   0.494 -0.4453 -0.1457 -0.2909
 2922TIP3    H130325   5.380   2.245   0.497 -0.1621  0.7826 -0.2524
 2922TIP3    H230326   5.520   2.289   0.534  0.2681 -0.8096  0.0636
 2923TIP3   OH230327   2.092   3.987   0.776  0.6896  0.0205 -0.2976
 2923TIP3    H130328   2.158   4.036   0.727  0.4628  1.4433  0.7314
 2923TIP3    H230329   2.008   4.014   0.738  0.5541  0.6154  0.3836
 2924TIP3   OH230330   6.487   2.025   0.417 -0.0399 -0.4306 -0.5421
 2924TIP3    H130331   6.480   1.967   0.341  3.0141 -0.2449 -1.0833
 2924TIP3    H230332   6.552   1.983   0.473 -1.1567  0.2021  1.2848
 2925TIP3   OH230333   2.807   6.454   1.927  0.0175  0.7330  0.2571
 2925TIP3    H130334   2.746   6.498   1.986 -1.6172 -0.5780 -0.3997
 2925TIP3    H230335   2.753   6.414   1.860  1.5682 -0.6513 -0.2560
 2926TIP3   OH230336   4.030   4.664   0.595  0.0005  0.2245 -0.2124
 2926TIP3    H130337   4.035   4.578   0.637 -0.4814 -0.4180 -1.4316
 2926TIP3    H230338   4.121   4.694   0.594  0.3064 -0.6598 -0.5517
 2927TIP3   OH230339   5.799   4.153   7.069  0.0492 -0.0639 -0.1520
 2927TIP3    H130340   5.821   4.221   7.005  0.3852 -2.4242 -2.7147
 2927TIP3    H230341   5.707   4.134   7.054  0.0412 -0.4103  0.3164
 2928TIP3   OH230342   2.202   6.158   1.295  0.1071  0.4982 -0.2424
 2928TIP3    H130343   2.274   6.120   1.346  0.8477  0.3964 -1.3380
 2928TIP3    H230344   2.234   6.245   1.270  0.2425  0.1011 -1.5204
 2929TIP3   OH230345   2.817   5.265   6.822 -0.2490  0.0719  0.0506
 2929TIP3    H130346   2.774   5.349   6.836  2.4438  1.7120 -0.7844
 2929TIP3    H230347   2.880   5.281   6.752  0.0801 -2.7810 -0.4277
 2930TIP3   OH230348   2.317   3.040   0.854 -0.5232  0.0173  0.5174
 2930TIP3    H130349   2.228   3.012   0.831 -0.5270  1.1284 -0.9146
 2930TIP3    H230350   2.307   3.129   0.887 -0.1024 -0.3849  1.7872
 2931TIP3   OH230351   6.169   6.265   8.382  0.2159 -0.1634 -0.2348
 2931TIP3    H130352   6.096   6.303   8.430  2.8890  1.5980  2.8968
 2931TIP3    H230353   6.149   6.171   8.379 -1.6190  0.0971  1.5591
 2932TIP3   OH230354   3.082   1.281   1.447 -0.6664  0.4534 -0.0212
 2932TIP3    H130355   2.988   1.278   1.431 -0.7368 -2.1631  0.4403
 2932TIP3    H230356   3.093   1.243   1.534  0.8044  1.0449  0.0886
 2933TIP3   OH230357   3.116   2.339   2.363 -0.5615 -0.6235  0.7145
 2933TIP3    H130358   3.032   2.362   2.402 -0.8096  0.1344 -0.2217
 2933TIP3    H230359   3.181   2.372   2.424 -0.9404 -1.0135  1.3367
 2934TIP3   OH230360   2.596   2.896   2.399  0.3939  0.0762  0.4873
 2934TIP3    H130361   2.596   2.834   2.472  1.4191 -1.5175 -0.8055
 2934TIP3    H230362   2.586   2.842   2.321  2.4634  1.3773 -0.7761
 2935TIP3   OH230363   4.121   1.961   0.624  0.0752 -0.5384 -0.4734
 2935TIP3    H130364   4.143   1.927   0.711  0.1171  2.2925  0.7152
 2935TIP3    H230365   4.043   2.014   0.638 -0.3300 -0.5921 -2.3142
 2936TIP3   OH230366   2.287   6.149   2.063 -0.0878  0.0701  0.0502
 2936TIP3    H130367   2.192   6.154   2.073 -0.7604 -3.5130 -2.4485
 2936TIP3    H230368   2.313   6.071   2.112  1.0149 -0.6967 -1.6384
 2937TIP3   OH230369   1.698   6.324   0.410  0.1524  0.1210 -0.4209
 2937TIP3    H130370   1.653   6.252   0.365 -1.7314  0.2452  1.1624
 2937TIP3    H230371   1.733   6.285   0.490  1.1388  0.4941 -0.6524
 2938TIP3   OH230372   3.717   1.628   0.898 -0.0323 -0.0537  0.2473
 2938TIP3    H130373   3.780   1.573   0.851 -0.4692  0.4163 -0.9454
 2938TIP3    H230374   3.760   1.714   0.901 -0.5983  0.2725 -0.5847
 2939TIP3   OH230375   0.900   3.861   7.672  0.0315 -0.4316  0.1174
 2939TIP3    H130376   0.952   3.855   7.593 -1.4608  1.1358 -1.0667
 2939TIP3    H230377   0.815   3.824   7.648 -0.5406  0.3373  0.8579
 2940TIP3   OH230378   1.784   5.792   7.893  0.6906 -0.1739 -0.1751
 2940TIP3    H130379   1.772   5.713   7.945 -0.8195  0.8642  1.1647
 2940TIP3    H230380   1.700   5.805   7.850  1.3087  0.0712 -1.3520
 2941TIP3   OH230381   0.984   3.905   0.476 -0.7643  0.0094 -0.0701
 2941TIP3    H130382   0.976   3.810   0.481  1.2722 -0.2468 -0.8234
 2941TIP3    H230383   0.918   3.938   0.538 -1.4314 -1.8686  0.2886
 2942TIP3   OH230384   4.781   3.441   6.907 -0.5497 -0.6797 -0.5625
 2942TIP3    H130385   4.785   3.403   6.820  1.1434  1.3373 -1.4524
 2942TIP3    H230386   4.871   3.435   6.940 -0.4127  1.6022 -0.3750
 2943TIP3   OH230387   6.217   2.817   0.024 -0.4871  0.0260 -0.6953
 2943TIP3    H130388   6.296   2.792  -0.024 -0.1911  0.6116 -0.5174
 2943TIP3    H230389   6.145   2.784  -0.029 -0.1305 -0.2275 -1.0220
 2944TIP3   OH230390   3.997   4.690   8.471 -0.5270  0.1601  0.0592
 2944TIP3    H130391   3.964   4.673   8.383 -0.8058  2.0295 -0.2351
 2944TIP3    H230392   3.928   4.659   8.530 -0.5131 -0.7192 -0.3738
 2945TIP3   OH230393   6.153   1.886   0.015  0.0980  0.0068 -0.3632
 2945TIP3    H130394   6.210   1.880  -0.061  0.2581 -1.2866 -0.1712
 2945TIP3    H230395   6.075   1.932  -0.016  0.6928  0.6121 -0.9725
 2946TIP3   OH230396   4.567   3.733   0.236  0.1969  0.1028  0.2143
 2946TIP3    H130397   4.520   3.745   0.154  0.1018  1.0617  0.3966
 2946TIP3    H230398   4.653   3.772   0.220 -0.4395  1.9871  1.1270
 2947TIP3   OH230399   3.738   1.794   1.538 -0.7057 -0.5046  0.1994
 2947TIP3    H130400   3.757   1.715   1.589 -1.5825 -0.7739  0.1220
 2947TIP3    H230401   3.782   1.779   1.455 -0.0578 -0.4818  0.5340
 2948TIP3   OH230402   0.674   5.863   7.863 -0.0572  0.5140 -0.2522
 2948TIP3    H130403   0.684   5.946   7.909 -2.6548  0.6310  0.2326
 2948TIP3    H230404   0.738   5.805   7.904 -0.0538  1.5372  1.2584
 2949TIP3   OH230405   3.559   5.002   1.083 -0.4500 -0.4149  0.2882
 2949TIP3    H130406   3.632   4.981   1.024 -0.0320 -0.0046  0.6502
 2949TIP3    H230407   3.490   5.034   1.025  0.0431  0.2176  0.0344
 2950TIP3   OH230408   0.968   5.757   8.406  0.2066 -0.3089 -0.2541
 2950TIP3    H130409   1.014   5.747   8.323  2.4207 -1.8111  1.0430
 2950TIP3    H230410   0.971   5.851   8.424  0.6922 -0.1083 -1.3068
 2951TIP3   OH230411   3.769   6.137   7.712  0.2141  0.1302  0.3016
 2951TIP3    H130412   3.853   6.154   7.755  0.3361  0.5096 -0.0820
 2951TIP3    H230413   3.788   6.068   7.649 -0.1362 -1.0048  1.3874
 2952TIP3   OH230414   3.372   6.711   7.565  0.3205 -0.6797  0.4002
 2952TIP3    H130415   3.425   6.643   7.523  0.8500 -0.4125  0.6261
 2952TIP3    H230416   3.404   6.793   7.528 -2.0824 -0.6272 -1.8858
 2953TIP3   OH230417   4.628   6.579   6.886 -0.4221 -0.1653 -0.5425
 2953TIP3    H130418   4.608   6.649   6.823  0.0873  0.8481  0.3823
 2953TIP3    H230419   4.724   6.578   6.892 -0.4213 -0.9569 -0.5393
 2954TIP3   OH230420   2.889   0.294   8.261 -0.2398 -0.6604  0.4109
 2954TIP3    H130421   2.800   0.296   8.295 -0.1225 -0.9922  0.7275
 2954TIP3    H230422   2.906   0.385   8.234  0.2104 -0.0462  2.6180
 2955TIP3   OH230423   6.653   2.143   8.642  0.2132  0.4347 -0.0100
 2955TIP3    H130424   6.593   2.091   8.695 -0.1642  0.1694 -0.6748
 2955TIP3    H230425   6.737   2.135   8.685 -0.0627  0.1278  0.4808
 2956TIP3   OH230426   4.710   0.155   8.434 -0.1831  0.2927  0.5701
 2956TIP3    H130427   4.737   0.078   8.484 -2.2678  0.8649  2.7786
 2956TIP3    H230428   4.759   0.228   8.472  0.3558  0.3750 -0.2322
 2957TIP3   OH230429   6.019   2.317   6.470  0.8340  0.7541 -0.7394
 2957TIP3    H130430   6.069   2.251   6.517  1.7331  2.3135  0.5774
 2957TIP3    H230431   5.934   2.318   6.513  1.2220  1.2713  0.0291
 2958TIP3   OH230432   1.520   3.010   7.368 -0.5366 -0.0446 -0.5595
 2958TIP3    H130433   1.495   2.919   7.353  0.1960 -0.0939 -1.5046
 2958TIP3    H230434   1.577   3.007   7.445 -0.6440 -0.3579 -0.4917
 2959TIP3   OH230435   5.920   0.541   7.819  0.2183  0.2897 -0.3414
 2959TIP3    H130436   5.898   0.467   7.763  1.1549  0.0271 -0.3834
 2959TIP3    H230437   5.844   0.600   7.814 -0.9068 -1.0541  0.3683
 2960TIP3   OH230438   1.805   3.185   1.356  0.1984  0.2490 -0.4240
 2960TIP3    H130439   1.826   3.122   1.425  0.0358  1.1917  0.5264
 2960TIP3    H230440   1.715   3.163   1.331  0.6852 -0.8906 -1.2481
 2961TIP3   OH230441   0.062   6.386   0.739  0.3700  0.2067  0.1878
 2961TIP3    H130442   0.023   6.375   0.652  0.2066 -0.9467  0.3896
 2961TIP3    H230443  -0.013   6.400   0.797  0.3621 -0.5013  0.3538
 2962TIP3   OH230444   3.653   5.645   2.495  0.0732 -0.3584  0.2872
 2962TIP3    H130445   3.589   5.668   2.428  0.2340  0.6812  0.4825
 2962TIP3    H230446   3.658   5.722   2.551  2.6967  0.2728 -0.6655
 2963TIP3   OH230447   3.327   2.714   6.834  0.0662  0.1560  0.2060
 2963TIP3    H130448   3.380   2.635   6.820  0.1591  0.0631  0.9895
 2963TIP3    H230449   3.351   2.773   6.762 -1.4941 -1.2811 -1.5728
 2964TIP3   OH230450   0.329   6.572   1.289  0.3090  0.6996  0.0891
 2964TIP3    H130451   0.408   6.616   1.257  0.3103  1.2478  0.8166
 2964TIP3    H230452   0.362   6.492   1.331  0.3933  0.4955 -0.3546
 2965TIP3   OH230453   3.964   2.049   0.353  0.3609 -0.3010 -0.1698
 2965TIP3    H130454   3.890   1.996   0.384  0.9502 -0.7752  0.4451
 2965TIP3    H230455   4.029   1.986   0.323  0.3971  0.1233 -1.0338
 2966TIP3   OH230456   1.222   4.323   7.204  0.1688 -0.0439 -0.0830
 2966TIP3    H130457   1.189   4.233   7.197  0.8045 -0.2912  0.0436
 2966TIP3    H230458   1.270   4.337   7.122 -1.6943  0.9349 -1.0857
 2967TIP3   OH230459   1.330   0.296   0.555  0.1363  0.5109  0.4006
 2967TIP3    H130460   1.350   0.349   0.478  1.4814  1.2535  1.2222
 2967TIP3    H230461   1.240   0.319   0.578 -0.2767  0.2956 -0.9143
 2968TIP3   OH230462   5.401   3.967   7.261  0.0432 -0.0345  0.2618
 2968TIP3    H130463   5.364   3.995   7.178  3.2323  1.4057 -0.8467
 2968TIP3    H230464   5.381   4.038   7.322  0.5040  0.4930 -0.1902
 2969TIP3   OH230465   1.338   0.863   0.147  0.3100 -0.0248  0.4231
 2969TIP3    H130466   1.355   0.791   0.087 -0.5949  0.5821 -0.6121
 2969TIP3    H230467   1.263   0.909   0.108  1.5113  2.0911  0.4818
 2970TIP3   OH230468   0.775   2.577   8.597  0.2489  0.6243  0.5315
 2970TIP3    H130469   0.681   2.584   8.580 -0.3792 -1.3313  2.7544
 2970TIP3    H230470   0.812   2.549   8.513 -1.1462  1.2329 -0.3261
 2971TIP3   OH230471   0.689   5.933   6.808 -0.2258  0.3596 -0.1702
 2971TIP3    H130472   0.679   6.023   6.777  1.2891  0.8167  0.5625
 2971TIP3    H230473   0.752   5.893   6.748  0.7782  0.4774  0.7736
 2972TIP3   OH230474   2.340   0.185   6.377  0.3258  0.1961 -0.4855
 2972TIP3    H130475   2.407   0.127   6.411 -0.3920 -1.0977 -1.2140
 2972TIP3    H230476   2.373   0.273   6.395  2.0418 -0.4151 -0.5307
 2973TIP3   OH230477   2.345   1.899   7.182  0.2932 -0.1226  0.1990
 2973TIP3    H130478   2.276   1.887   7.247  0.6413 -0.7494  0.4518
 2973TIP3    H230479   2.299   1.897   7.098 -0.0848  0.1643  0.3932
 2974TIP3   OH230480   1.171   0.525   1.040 -0.3818  0.0701  0.3738
 2974TIP3    H130481   1.226   0.570   0.976  0.4717 -0.6662  0.5652
 2974TIP3    H230482   1.196   0.433   1.032 -1.4134 -0.2459  0.6507
 2975TIP3   OH230483   3.393   2.076   1.239 -0.5814  0.1593 -0.5062
 2975TIP3    H130484   3.353   2.085   1.325 -3.5866  1.2538 -1.8839
 2975TIP3    H230485   3.430   2.162   1.220 -1.7197  0.5558 -1.0570
 2976TIP3   OH230486   3.861   5.498   6.889  0.5212  0.0757 -0.1812
 2976TIP3    H130487   3.940   5.447   6.906  1.4501  0.9604 -1.5573
 2976TIP3    H230488   3.885   5.554   6.815 -1.6477 -0.1789 -1.1602
 2977TIP3   OH230489   5.248   5.847   1.271  0.2935  0.3645  0.0090
 2977TIP3    H130490   5.286   5.934   1.280 -1.0422  1.0506 -0.7687
 2977TIP3    H230491   5.180   5.857   1.205 -0.3556 -1.1202  0.4201
 2978TIP3   OH230492   2.019   2.883   1.454 -0.7411 -0.0672  0.6967
 2978TIP3    H130493   1.968   2.913   1.529 -0.6333  0.1347  0.6906
 2978TIP3    H230494   2.027   2.788   1.466 -1.2656 -0.1243  0.6037
 2979TIP3   OH230495   1.069   6.217   8.055 -0.1943 -0.2403 -0.4187
 2979TIP3    H130496   1.080   6.275   7.979  1.2377  0.6144  0.3920
 2979TIP3    H230497   1.158   6.208   8.090 -0.8630 -0.3912  1.3121
 2980TIP3   OH230498   5.934   6.673   6.715  0.0739 -0.0532 -0.0987
 2980TIP3    H130499   5.844   6.643   6.730 -0.7033  0.2000 -3.5180
 2980TIP3    H230500   5.986   6.593   6.711 -0.2701 -0.2987  0.2619
 2981TIP3   OH230501   2.718   1.697   2.308  0.3061 -0.0982 -0.3938
 2981TIP3    H130502   2.781   1.763   2.337  0.8874 -0.2873 -1.1826
 2981TIP3    H230503   2.637   1.746   2.294  0.4738  0.2773 -0.0577
 2982TIP3   OH230504   0.118   6.708   7.686 -0.2409  0.6650  0.0398
 2982TIP3    H130505   0.164   6.678   7.764  0.8177 -0.9532 -1.1460
 2982TIP3    H230506   0.088   6.628   7.643  1.3948  1.2967 -2.4898
 2983TIP3   OH230507   3.338   2.161   0.420 -0.2538 -0.0511 -0.5818
 2983TIP3    H130508   3.402   2.187   0.486 -0.8527  2.1777 -0.7712
 2983TIP3    H230509   3.255   2.194   0.454 -0.9766 -1.0787 -1.3079
 2984TIP3   OH230510   0.229   5.339   0.801 -0.7695  0.1585 -0.0854
 2984TIP3    H130511   0.324   5.337   0.816 -0.5696  1.7706 -0.9674
 2984TIP3    H230512   0.206   5.248   0.785  0.1348 -0.7239  2.8436
 2985TIP3   OH230513   4.709   1.054   7.967  0.0388 -0.1813  0.0111
 2985TIP3    H130514   4.720   1.031   7.874  0.4677  0.3805 -0.0852
 2985TIP3    H230515   4.740   0.977   8.015 -0.3307 -0.5370 -0.3126
 2986TIP3   OH230516   3.758   2.412   8.143  0.1664 -0.4412 -0.1827
 2986TIP3    H130517   3.768   2.352   8.217  1.3375  0.1601  0.1854
 2986TIP3    H230518   3.810   2.371   8.073  0.9275  0.0887  0.0549
 2987TIP3   OH230519   1.556   1.490   8.412 -0.3936  0.1379  0.3774
 2987TIP3    H130520   1.471   1.446   8.418 -0.5014  0.1592 -0.6601
 2987TIP3    H230521   1.618   1.421   8.392 -0.3937  0.2915 -0.1906
 2988TIP3   OH230522   2.641   3.450   1.072 -0.1995 -0.2477 -0.0607
 2988TIP3    H130523   2.622   3.426   0.981  1.2597  0.5835 -0.6263
 2988TIP3    H230524   2.643   3.546   1.071 -2.5662 -0.1045  1.4156
 2989TIP3   OH230525   1.074   2.750   2.145 -0.9842  0.3557  0.3369
 2989TIP3    H130526   1.167   2.774   2.153 -0.8754  1.2336 -2.3559
 2989TIP3    H230527   1.075   2.655   2.131 -0.6637  0.1055  1.8686
 2990TIP3   OH230528   1.297   2.110   1.121  0.0383 -0.5875 -0.2416
 2990TIP3    H130529   1.368   2.116   1.057 -1.8875 -1.0176 -2.5071
 2990TIP3    H230530   1.218   2.096   1.070 -1.5902 -1.2817  2.2598
 2991TIP3   OH230531   4.873   0.297   1.508  0.7382 -0.1148  0.0907
 2991TIP3    H130532   4.869   0.347   1.589  0.7020  0.7940 -0.4545
 2991TIP3    H230533   4.870   0.363   1.439 -1.3783 -0.9492 -0.7043
 2992TIP3   OH230534   0.494   3.752   0.615 -0.2867  0.0712  0.0917
 2992TIP3    H130535   0.588   3.744   0.632  0.0558  0.2230 -1.5695
 2992TIP3    H230536   0.477   3.846   0.622 -0.5207 -0.0405  1.2661
 2993TIP3   OH230537   0.191   1.951   0.553 -0.2586 -0.0347  0.0453
 2993TIP3    H130538   0.207   1.948   0.458 -1.5093 -0.2755 -0.1733
 2993TIP3    H230539   0.196   1.859   0.580 -1.4585 -0.1454 -0.0729
 2994TIP3   OH230540   1.718   5.514   8.022  0.4189  0.1698 -0.1308
 2994TIP3    H130541   1.714   5.567   8.102  1.1178  1.7946 -1.1379
 2994TIP3    H230542   1.626   5.502   7.998  0.1679 -0.7556  1.1396
 2995TIP3   OH230543   5.897   0.537   7.485 -0.4241 -0.3495  0.1434
 2995TIP3    H130544   5.989   0.555   7.502 -0.1505 -1.1209 -0.4426
 2995TIP3    H230545   5.874   0.469   7.549 -0.8883  0.6031  1.0024
 2996TIP3   OH230546   6.363   3.893   7.568  0.3283  0.0865 -0.1586
 2996TIP3    H130547   6.280   3.926   7.532 -0.3862  0.2709  1.5459
 2996TIP3    H230548   6.419   3.970   7.574 -0.1357  0.3769  0.6311
 2997TIP3   OH230549   0.337   5.271   1.500 -0.3677 -0.0347 -0.6808
 2997TIP3    H130550   0.331   5.357   1.459 -1.4619  0.5613  0.6490
 2997TIP3    H230551   0.326   5.287   1.594  0.2670 -1.5371 -0.3085
 2998TIP3   OH230552   4.783   0.646   1.671  0.7292  0.2642 -0.0304
 2998TIP3    H130553   4.811   0.610   1.755  1.3616 -1.7629 -1.0573
 2998TIP3    H230554   4.861   0.641   1.615 -0.2971 -0.7160 -1.4407
 2999TIP3   OH230555   5.616   1.830   7.803  0.2687  0.2666 -0.0575
 2999TIP3    H130556   5.549   1.841   7.870 -0.2007 -1.0578 -0.2749
 2999TIP3    H230557   5.568   1.827   7.721  0.4857 -1.3893 -0.1588
 3000TIP3   OH230558   5.598   6.701   0.280 -0.1696  0.1334  0.5293
 3000TIP3    H130559   5.524   6.696   0.219 -0.0255  0.4508  0.3186
 3000TIP3    H230560   5.574   6.771   0.340 -0.3618 -0.2584  0.9106
 3001TIP3   OH230561   3.793   3.907   7.417  0.3106  0.9341 -0.1320
 3001TIP3    H130562   3.748   3.852   7.353  2.1471  1.0410 -1.5868
 3001TIP3    H230563   3.749   3.888   7.500 -1.6825  0.2755 -1.2835
 3002TIP3   OH230564   1.619   1.433   7.654 -0.0992  1.1784  0.0188
 3002TIP3    H130565   1.556   1.417   7.723  1.9952  1.4117  2.1219
 3002TIP3    H230566   1.581   1.503   7.601 -1.0407  2.2008  1.9678
 3003TIP3   OH230567   5.132   3.084   8.331  0.3586 -0.1908  0.3171
 3003TIP3    H130568   5.109   3.112   8.419  0.5448 -1.9611  0.9778
 3003TIP3    H230569   5.221   3.118   8.316  0.3743  0.0090  0.8747
 3004TIP3   OH230570   5.455   0.894   1.580 -0.1602  0.2516 -0.2417
 3004TIP3    H130571   5.501   0.898   1.496 -1.7684 -1.8332 -1.3175
 3004TIP3    H230572   5.520   0.860   1.641  0.0491 -1.7891 -1.5166
 3005TIP3   OH230573   0.064   5.403   1.087  0.3615 -0.0303 -0.6002
 3005TIP3    H130574  -0.029   5.380   1.091  0.1785  0.7999  1.6186
 3005TIP3    H230575   0.091   5.381   0.998 -1.9703 -0.2037 -1.3261
 3006TIP3   OH230576   6.047   2.812   6.528  0.2046 -0.2087  0.5151
 3006TIP3    H130577   6.009   2.871   6.593  0.4883 -0.1242  0.6057
 3006TIP3    H230578   6.044   2.863   6.446  0.9700  0.1604  0.7013
 3007TIP3   OH230579   2.714   4.914   7.887  0.2880  0.2438  0.4950
 3007TIP3    H130580   2.667   4.968   7.823  0.0354  0.9753  1.2816
 3007TIP3    H230581   2.702   4.824   7.856  0.3153  0.6034 -0.5731
 3008TIP3   OH230582   5.050   4.754   0.992  0.2396 -0.2638  0.3141
 3008TIP3    H130583   4.991   4.691   0.951 -0.3895  0.7911 -0.4480
 3008TIP3    H230584   5.060   4.722   1.082 -1.6526 -0.3911  0.5271
 3009TIP3   OH230585   4.940   0.305   6.605 -0.1576 -0.3636  0.7169
 3009TIP3    H130586   4.846   0.292   6.621 -0.2529 -1.6700 -0.5844
 3009TIP3    H230587   4.943   0.366   6.532  0.0236  0.0925  1.1058
 3010TIP3   OH230588   4.967   0.562   6.765  1.0894  0.2918  0.0956
 3010TIP3    H130589   4.899   0.511   6.810  1.4947  0.1759  0.5842
 3010TIP3    H230590   4.928   0.585   6.681 -0.2251  1.6972  1.0237
 3011TIP3   OH230591   1.064   3.255   6.943  0.2634 -0.2387  0.2481
 3011TIP3    H130592   1.090   3.313   6.871  0.4795 -0.0953  0.4406
 3011TIP3    H230593   0.990   3.205   6.908  1.4512 -1.4092 -0.6928
 3012TIP3   OH230594   0.190   1.369   1.231 -0.3656 -0.1418  0.1778
 3012TIP3    H130595   0.270   1.317   1.227 -0.6322 -0.5985  0.7056
 3012TIP3    H230596   0.192   1.422   1.151  1.4314  1.2875  1.1254
 3013TIP3   OH230597   5.358   4.918   2.049  0.0094 -0.0051 -0.1230
 3013TIP3    H130598   5.382   4.992   2.106  0.8671 -0.7030  0.4473
 3013TIP3    H230599   5.378   4.840   2.101 -0.9205 -0.6503 -0.7029
 3014TIP3   OH230600   3.709   3.552   1.965  0.1618 -0.3288  0.1653
 3014TIP3    H130601   3.615   3.567   1.968  0.3022  0.4072  2.0414
 3014TIP3    H230602   3.718   3.463   1.931 -1.0538  0.4497 -2.4867
 3015TIP3   OH230603   1.111   1.281   0.848  0.0175 -0.6626  0.3191
 3015TIP3    H130604   1.130   1.366   0.886  0.3654 -0.1586 -0.9465
 3015TIP3    H230605   1.191   1.230   0.861  0.8423  0.1236 -1.3525
 3016TIP3   OH230606   5.411   1.745   0.342 -0.6345 -0.1249 -0.3673
 3016TIP3    H130607   5.435   1.819   0.398  2.2342  0.1632 -1.7640
 3016TIP3    H230608   5.359   1.783   0.272 -0.8303  0.2039 -0.0456
 3017TIP3   OH230609   1.755   6.651   0.009  0.9948  0.1638 -0.5509
 3017TIP3    H130610   1.688   6.717   0.028 -0.6060 -1.9003  1.7190
 3017TIP3    H230611   1.704   6.570  -0.006  2.9236 -1.3433  0.5596
 3018TIP3   OH230612   5.513   0.075   0.406  0.2934 -0.0170 -0.1096
 3018TIP3    H130613   5.586   0.135   0.389  0.3645 -0.3990 -1.2002
 3018TIP3    H230614   5.471   0.110   0.485  1.3853  0.4566  0.2799
 3019TIP3   OH230615   5.590   0.780   0.836  0.7783  0.0740 -0.3136
 3019TIP3    H130616   5.565   0.745   0.750 -0.4455 -0.7874  0.3681
 3019TIP3    H230617   5.521   0.844   0.857  0.3212 -0.7085  0.6171
 3020TIP3   OH230618   0.350   4.944   7.236  0.3260 -0.3434  0.1389
 3020TIP3    H130619   0.358   4.852   7.261  0.5558 -0.4270 -0.2357
 3020TIP3    H230620   0.256   4.962   7.242  0.0643 -1.0613 -1.3334
 3021TIP3   OH230621   1.172   1.379   0.019  0.3870 -0.3786 -0.0283
 3021TIP3    H130622   1.120   1.300   0.033  0.1601 -0.0807  0.8960
 3021TIP3    H230623   1.248   1.368   0.076  0.9769 -0.4820 -0.8257
 3022TIP3   OH230624   6.249   1.355   1.821  0.0373  0.3869  0.0143
 3022TIP3    H130625   6.165   1.374   1.863 -0.7285  1.3318 -1.7923
 3022TIP3    H230626   6.250   1.260   1.811 -0.7485  0.3532  0.2030
 3023TIP3   OH230627   5.514   1.571   0.707  0.1452 -0.0516  0.1184
 3023TIP3    H130628   5.500   1.579   0.613 -2.1250  0.4609  0.4446
 3023TIP3    H230629   5.466   1.493   0.733  0.6345 -0.1162  0.8898
 3024TIP3   OH230630   0.272   0.691   0.414  0.2608 -0.0121  0.5294
 3024TIP3    H130631   0.359   0.655   0.430  1.5570  3.2420  1.3627
 3024TIP3    H230632   0.235   0.633   0.346  2.6824 -1.9695  0.7420
 3025TIP3   OH230633   3.310   5.308   0.002 -0.7252  0.3687  0.0590
 3025TIP3    H130634   3.300   5.393  -0.042 -1.3587 -0.0388 -0.6062
 3025TIP3    H230635   3.256   5.248  -0.050 -2.3280  0.0704  1.9552
 3026TIP3   OH230636   2.072   5.793   8.189 -0.9892  0.6875  0.0555
 3026TIP3    H130637   2.121   5.843   8.123 -2.4917  0.5663 -1.1881
 3026TIP3    H230638   2.109   5.705   8.184 -0.0508  1.0403  0.4824
 3027TIP3   OH230639   0.446   6.549   7.972  0.1809  0.0290  0.1564
 3027TIP3    H130640   0.498   6.594   7.905  0.5565  1.1567  1.1681
 3027TIP3    H230641   0.398   6.482   7.924  2.2285 -0.7840 -0.8782
 3028TIP3   OH230642   1.343   5.000   7.006  0.3812  0.3582  0.5600
 3028TIP3    H130643   1.436   4.987   6.990 -0.0772 -1.9635 -0.6795
 3028TIP3    H230644   1.333   4.989   7.100  1.2406 -0.3640  0.5781
 3029TIP3   OH230645   1.588   6.114   1.387  0.3456  0.0256  0.4916
 3029TIP3    H130646   1.640   6.035   1.376 -1.9054 -1.5237  0.3523
 3029TIP3    H230647   1.547   6.103   1.473 -0.6049  0.6779  0.1302
 3030TIP3   OH230648   0.994   6.169   6.926  0.2208  0.3706  0.2130
 3030TIP3    H130649   1.056   6.102   6.953 -0.5163 -0.1457  0.6448
 3030TIP3    H230650   0.910   6.141   6.961 -0.1459  1.4059  0.2197
 3031TIP3   OH230651   2.094   6.135   7.268  0.0864 -0.2913  0.3122
 3031TIP3    H130652   2.150   6.128   7.191 -0.4813 -1.2600 -0.0322
 3031TIP3    H230653   2.080   6.229   7.280 -1.8519 -0.1410 -2.2686
 3032TIP3   OH230654   5.718   6.312   8.365 -0.4984 -0.0174  0.0754
 3032TIP3    H130655   5.792   6.328   8.423 -0.1786  1.0544 -0.6052
 3032TIP3    H230656   5.642   6.315   8.423  0.0524 -4.0284  1.3440
 3033TIP3   OH230657   3.471   0.813   0.505 -0.3535 -0.4240  0.1546
 3033TIP3    H130658   3.518   0.780   0.428 -2.0784 -0.0640 -1.1106
 3033TIP3    H230659   3.424   0.736   0.538 -0.8799 -0.2240 -0.1249
 3034TIP3   OH230660   2.653   2.457   0.547 -0.9683 -0.0545 -0.2913
 3034TIP3    H130661   2.577   2.478   0.492 -1.0495  2.8768  0.7693
 3034TIP3    H230662   2.666   2.535   0.601  1.2307 -1.4795  1.4211
 3035TIP3   OH230663   0.231   1.526   8.093  0.2754 -0.2936 -0.1335
 3035TIP3    H130664   0.319   1.500   8.068  0.2390 -1.3250  0.7160
 3035TIP3    H230665   0.242   1.606   8.143  0.8237 -0.7905  0.5677
 3036TIP3   OH230666   3.952   5.670   1.096 -0.3302 -0.4474 -0.3162
 3036TIP3    H130667   4.010   5.616   1.150  0.6012 -1.9352 -2.6261
 3036TIP3    H230668   3.979   5.760   1.115  2.4761 -1.0571 -0.8895
 3037TIP3   OH230669   5.114   5.289   7.536 -0.4899 -0.0335 -0.2036
 3037TIP3    H130670   5.209   5.276   7.540 -0.4407  0.4386  0.1092
 3037TIP3    H230671   5.098   5.318   7.446 -0.1309  1.5622  0.2317
 3038TIP3   OH230672   0.790   4.987   1.295  0.4107 -0.5172  0.5998
 3038TIP3    H130673   0.764   4.934   1.370 -0.4448 -0.4753  0.3438
 3038TIP3    H230674   0.712   5.038   1.273  1.0667  0.4923  0.5357
 3039TIP3   OH230675   0.272   4.073   7.095  0.2835 -0.0258  0.3410
 3039TIP3    H130676   0.275   4.063   7.000 -1.3463  0.5774  0.1912
 3039TIP3    H230677   0.350   4.124   7.116 -1.4552  3.7753 -1.3080
 3040TIP3   OH230678   5.567   4.978   7.049 -0.4624 -0.3918  0.8716
 3040TIP3    H130679   5.652   5.020   7.039 -0.3258 -0.9134 -0.3638
 3040TIP3    H230680   5.581   4.908   7.113  0.3415 -1.2251 -0.1824
 3041TIP3   OH230681   5.920   3.131   2.100 -0.0075 -0.4947  0.3133
 3041TIP3    H130682   5.934   3.051   2.151  3.0487  0.5082  1.2815
 3041TIP3    H230683   5.951   3.201   2.157  0.1482  1.0651 -1.5934
 3042TIP3   OH230684   4.097   2.078   8.718 -0.0602 -0.2518  0.0148
 3042TIP3    H130685   4.004   2.056   8.707 -0.0700 -0.6343  0.8133
 3042TIP3    H230686   4.128   2.096   8.629 -1.1078  0.7366 -0.1817
 3043TIP3   OH230687   0.895   4.054   1.570 -0.1258  0.5756  0.1216
 3043TIP3    H130688   0.823   4.086   1.625 -0.6368  0.4304 -0.4592
 3043TIP3    H230689   0.933   3.982   1.620 -0.0952  0.9349  0.6316
 3044TIP3   OH230690   2.826   4.756   0.119 -0.3470 -0.0447  0.1832
 3044TIP3    H130691   2.838   4.847   0.092  1.0862  0.1605  1.3673
 3044TIP3    H230692   2.749   4.757   0.176  1.0780  0.9514  2.2234
 3045TIP3   OH230693   5.729   4.259   7.783 -0.6271  0.8567 -0.2164
 3045TIP3    H130694   5.771   4.345   7.790 -0.5679  0.9351 -1.3758
 3045TIP3    H230695   5.781   4.212   7.717 -1.3145  0.3324 -0.3995
 3046TIP3   OH230696   1.811   0.363   7.474 -0.3921 -0.1997 -0.1424
 3046TIP3    H130697   1.782   0.307   7.402 -0.1797 -0.3766 -0.0929
 3046TIP3    H230698   1.744   0.431   7.480 -0.2117  0.0379 -0.7533
 3047TIP3   OH230699   0.200   6.596   0.159  0.1096 -0.4170  0.0611
 3047TIP3    H130700   0.271   6.601   0.223 -1.2390  0.5689  1.5568
 3047TIP3    H230701   0.225   6.525   0.101  3.0109  0.8144 -0.3632
 3048TIP3   OH230702   5.659   4.566   1.102 -0.0474 -0.8630  0.0717
 3048TIP3    H130703   5.755   4.561   1.102 -0.0155 -0.3690  0.8553
 3048TIP3    H230704   5.639   4.635   1.038 -0.0162 -2.6244 -1.9821
 3049TIP3   OH230705   2.108   6.836   7.473  0.1968  1.1289 -0.9452
 3049TIP3    H130706   2.175   6.773   7.447  0.0727  1.0180 -1.0013
 3049TIP3    H230707   2.150   6.922   7.464 -0.0662  1.1490 -2.2712
 3050TIP3   OH230708   5.016   1.107   7.270  0.0236 -0.1669 -0.0275
 3050TIP3    H130709   5.076   1.127   7.199  0.8152 -0.8686  0.4237
 3050TIP3    H230710   5.035   1.015   7.292 -2.2109 -0.8855 -0.8313
 3051TIP3   OH230711   2.511   6.123   6.398  0.1075  0.3529 -0.0151
 3051TIP3    H130712   2.416   6.111   6.402  0.2099 -0.0590  1.3679
 3051TIP3    H230713   2.546   6.034   6.392  0.4606  0.4306  0.8355
 3052TIP3   OH230714   3.707   4.434   7.455 -0.3804 -0.2881 -0.1355
 3052TIP3    H130715   3.627   4.486   7.450 -0.1474  0.0591 -0.2486
 3052TIP3    H230716   3.678   4.345   7.433 -0.0843  0.4825 -4.4886
 3053TIP3   OH230717   6.505   5.584   1.177 -0.2945 -0.0283 -0.3458
 3053TIP3    H130718   6.572   5.532   1.133 -0.5624 -0.8459  0.1970
 3053TIP3    H230719   6.426   5.530   1.174 -0.3687 -0.0258  0.9363
 3054TIP3   OH230720   4.565   0.412   6.148 -0.7419  0.0048 -0.4418
 3054TIP3    H130721   4.566   0.396   6.242  1.4828  1.6833 -0.0886
 3054TIP3    H230722   4.611   0.337   6.111 -0.5324 -0.0592 -0.0578
 3055TIP3   OH230723   6.303   6.214   0.838 -0.6712 -0.1928 -0.0978
 3055TIP3    H130724   6.275   6.306   0.840 -1.2089 -0.2182  4.7200
 3055TIP3    H230725   6.221   6.165   0.829 -0.6227 -0.2206 -0.3965
 3056TIP3   OH230726   1.896   0.355   1.535  0.1945 -0.0064  0.0900
 3056TIP3    H130727   1.865   0.361   1.444 -1.1861 -0.7434  0.4784
 3056TIP3    H230728   1.986   0.386   1.532  0.0577  0.3172 -1.4751
 3057TIP3   OH230729   0.492   1.736   7.225 -0.1899 -0.2033 -0.2459
 3057TIP3    H130730   0.494   1.818   7.176  2.1472  0.3164  0.5914
 3057TIP3    H230731   0.433   1.754   7.298 -0.8386  0.2291 -0.8575
 3058TIP3   OH230732   5.406   5.065   0.307 -0.3956 -0.0260  0.0089
 3058TIP3    H130733   5.344   5.066   0.234 -1.7787  0.5106  1.1450
 3058TIP3    H230734   5.360   5.109   0.379  0.8690 -0.6344  1.2523
 3059TIP3   OH230735   3.004   3.242   1.434  0.3008  0.6614  0.7773
 3059TIP3    H130736   3.050   3.231   1.517  0.1951 -1.1002  0.6479
 3059TIP3    H230737   2.922   3.195   1.446  0.3910  0.1657 -0.3920
 3060TIP3   OH230738   3.482   2.688   0.142  0.0304 -0.6792 -0.2748
 3060TIP3    H130739   3.535   2.720   0.069 -0.4488  0.4544 -0.1384
 3060TIP3    H230740   3.544   2.643   0.199  0.8543  0.6219 -0.1262
 3061TIP3   OH230741   3.088   1.030   1.117 -0.4532  0.2560 -0.0244
 3061TIP3    H130742   3.127   1.096   1.174 -0.0782  0.0978 -0.0966
 3061TIP3    H230743   3.051   0.964   1.176  0.6661 -0.3334  0.0329
 3062TIP3   OH230744   5.534   4.201   6.940 -0.1543 -0.6393  0.1311
 3062TIP3    H130745   5.512   4.114   6.907  1.2410 -0.8118 -0.4154
 3062TIP3    H230746   5.576   4.245   6.866  0.1624  0.1055  0.7374
 3063TIP3   OH230747   5.158   5.904   8.000 -0.0422 -0.0573 -0.1344
 3063TIP3    H130748   5.178   5.859   7.918  0.0204  0.2094 -0.2674
 3063TIP3    H230749   5.239   5.896   8.052 -0.7074 -1.9299  0.7047
 3064TIP3   OH230750   0.498   5.288   0.838 -0.2076  0.0817  0.6087
 3064TIP3    H130751   0.545   5.267   0.757 -0.4284  0.8573  0.2708
 3064TIP3    H230752   0.558   5.345   0.887 -0.3961  0.2711  0.6212
 3065TIP3   OH230753   6.276   3.125   8.605  0.1207 -0.1738 -0.6549
 3065TIP3    H130754   6.286   3.099   8.514  0.4535  1.1752 -1.0225
 3065TIP3    H230755   6.364   3.149   8.633  0.2966 -1.9630  0.4905
 3066TIP3   OH230756   5.088   4.270   1.558  0.0141 -0.3384  0.0827
 3066TIP3    H130757   5.140   4.233   1.629 -1.6381 -0.6975  1.1609
 3066TIP3    H230758   5.077   4.198   1.495 -1.4076 -1.1176  1.1602
 3067TIP3   OH230759   3.769   2.819   7.952  0.5040  0.6418  0.1665
 3067TIP3    H130760   3.822   2.749   7.990  0.3856  0.6047  0.2648
 3067TIP3    H230761   3.822   2.898   7.966  1.0194  0.4634 -0.6978
 3068TIP3   OH230762   3.480   5.180   8.036  0.2208 -0.0106 -0.2989
 3068TIP3    H130763   3.458   5.243   8.105  0.0186 -0.9215  0.5008
 3068TIP3    H230764   3.575   5.175   8.038  0.1732 -1.0829  0.9326
 3069TIP3   OH230765   5.861   5.454   1.835 -0.5932  0.4209  0.5322
 3069TIP3    H130766   5.813   5.446   1.752 -0.4184  1.6290  0.3016
 3069TIP3    H230767   5.816   5.523   1.882  2.0244  3.0319 -0.5190
 3070TIP3   OH230768   1.429   2.088   0.890 -0.3576  0.1396 -0.1027
 3070TIP3    H130769   1.504   2.074   0.832 -1.1239 -0.8915 -0.9144
 3070TIP3    H230770   1.383   2.163   0.851  0.7718  1.4606  1.0042
 3071TIP3   OH230771   5.825   1.920   1.574 -0.6517 -0.0278  0.7320
 3071TIP3    H130772   5.909   1.885   1.545 -0.0151  0.5574  1.8142
 3071TIP3    H230773   5.771   1.920   1.495  1.0945  1.7368 -0.5717
 3072TIP3   OH230774   6.590   5.819   7.246 -0.4002 -0.1727 -0.2483
 3072TIP3    H130775   6.624   5.768   7.319  0.5929 -1.1654 -1.3829
 3072TIP3    H230776   6.560   5.755   7.183 -0.8295  0.6704 -0.9279
 3073TIP3   OH230777   1.248   5.623   0.142 -0.0136 -0.2090 -0.2666
 3073TIP3    H130778   1.255   5.530   0.162  2.2408  0.4584  2.9329
 3073TIP3    H230779   1.336   5.658   0.159 -0.6335  2.4323 -1.8731
 3074TIP3   OH230780   3.982   3.371   8.083  0.0657  0.0931  0.1707
 3074TIP3    H130781   4.015   3.301   8.139 -1.2070 -1.4561 -0.9188
 3074TIP3    H230782   3.913   3.413   8.134 -0.9531 -1.1781 -0.1063
 3075TIP3   OH230783   5.161   6.768   2.058  0.7354  0.1936 -0.1224
 3075TIP3    H130784   5.082   6.748   2.108  0.6895  0.9892  0.1404
 3075TIP3    H230785   5.233   6.736   2.112  0.5914 -0.5364 -0.3645
 3076TIP3   OH230786   1.349   1.665   2.297  0.2237  0.4757  0.1633
 3076TIP3    H130787   1.338   1.757   2.321  0.4151  0.4517  0.3433
 3076TIP3    H230788   1.439   1.659   2.267  0.7709 -0.0105  1.8044
 3077TIP3   OH230789   2.978   5.545   7.163 -0.0641 -0.2232 -0.1905
 3077TIP3    H130790   2.886   5.548   7.190  0.5721  0.9903  2.1689
 3077TIP3    H230791   3.018   5.619   7.209  1.8216  0.2086 -2.3640
 3078TIP3   OH230792   4.959   1.706   0.618 -0.0715  0.0474  0.4506
 3078TIP3    H130793   4.915   1.708   0.703 -0.5022 -0.6944  0.2520
 3078TIP3    H230794   4.969   1.798   0.594  3.4245  0.5588  2.9884
 3079TIP3   OH230795   6.183   1.375   6.860 -0.4472 -0.2815  0.0212
 3079TIP3    H130796   6.202   1.325   6.940 -1.8280 -0.6683  0.1388
 3079TIP3    H230797   6.143   1.311   6.801 -0.5156  0.2738 -0.5469
 3080TIP3   OH230798   0.903   2.480   1.164  0.3789 -0.1077 -0.0781
 3080TIP3    H130799   0.930   2.486   1.255  0.9028 -1.3841 -0.1286
 3080TIP3    H230800   0.972   2.428   1.122 -0.4775 -0.6042 -0.9211
 3081TIP3   OH230801   3.640   6.082   8.532  0.1217 -0.4881 -0.5476
 3081TIP3    H130802   3.580   6.157   8.540  1.1799  0.3884 -0.5763
 3081TIP3    H230803   3.676   6.070   8.620  0.5214 -0.4769 -0.7063
 3082TIP3   OH230804   5.951   1.204   6.745 -0.6764 -0.5358 -0.3399
 3082TIP3    H130805   5.940   1.224   6.652  1.2254  0.0988 -0.4708
 3082TIP3    H230806   5.989   1.116   6.746  0.3392 -0.1158 -0.2510
 3083TIP3   OH230807   2.928   0.866   1.638  0.2087 -0.2743 -0.3436
 3083TIP3    H130808   3.012   0.904   1.663  0.2848 -0.1418 -0.7973
 3083TIP3    H230809   2.866   0.898   1.704  0.6856 -1.1257  0.5516
 3084TIP3   OH230810   1.136   0.794   6.632  0.6306  0.0143  0.5656
 3084TIP3    H130811   1.103   0.803   6.543  0.0128 -0.7275  0.7064
 3084TIP3    H230812   1.137   0.883   6.667  3.3187  0.7137 -0.9954
 3085TIP3   OH230813   3.332   0.135   7.787 -0.9617  1.0130  0.9443
 3085TIP3    H130814   3.351   0.056   7.837 -0.6161  0.0968 -0.5743
 3085TIP3    H230815   3.364   0.206   7.842 -1.4512  0.1437  2.4377
 3086TIP3   OH230816   0.127   1.200   8.610 -0.6217  0.3402  0.1776
 3086TIP3    H130817   0.035   1.186   8.630 -0.7449  0.7853 -0.0543
 3086TIP3    H230818   0.132   1.292   8.583 -0.1826  0.2086 -0.2085
 3087TIP3   OH230819   6.414   2.189   0.947 -0.1632  0.1885 -0.2584
 3087TIP3    H130820   6.330   2.172   0.988 -0.8370 -0.6177 -1.9031
 3087TIP3    H230821   6.396   2.258   0.883  0.5837  0.5001 -0.1456
 3088TIP3   OH230822   4.440   5.625   2.362  0.3621 -0.3031  0.6658
 3088TIP3    H130823   4.453   5.698   2.302 -0.3290  0.1795  1.0928
 3088TIP3    H230824   4.350   5.597   2.345  0.1865 -0.2093  1.4304
 3089TIP3   OH230825   4.088   6.240   6.310  0.7015  0.1262 -0.1120
 3089TIP3    H130826   4.053   6.162   6.352 -0.8451  1.1777  0.6343
 3089TIP3    H230827   4.017   6.304   6.313  2.8133  2.6782  2.1753
 3090TIP3   OH230828   0.117   4.730   6.779 -0.2907  0.6949  0.9078
 3090TIP3    H130829   0.082   4.716   6.691 -1.7132  1.0047  1.3991
 3090TIP3    H230830   0.042   4.720   6.837  0.5347  0.9402  2.0585
 3091TIP3   OH230831   1.590   0.189   1.154  0.1642  0.2435 -0.2539
 3091TIP3    H130832   1.590   0.094   1.148  0.3682  0.2907 -1.0905
 3091TIP3    H230833   1.511   0.210   1.204  0.2881 -0.3700  0.2146
 3092TIP3   OH230834   2.164   5.108   0.757 -0.4100 -0.0330 -0.2655
 3092TIP3    H130835   2.093   5.153   0.711 -0.8095 -0.3141  0.0658
 3092TIP3    H230836   2.167   5.021   0.717 -1.4652 -0.6477  0.9317
 3093TIP3   OH230837   4.206   5.512   1.459 -0.0631  0.2675  0.2261
 3093TIP3    H130838   4.142   5.454   1.419  1.1807 -1.0070 -0.0265
 3093TIP3    H230839   4.155   5.577   1.506 -1.5365 -1.3008  0.8955
 3094TIP3   OH230840   5.208   3.641   0.186 -0.0939  0.0796  0.1416
 3094TIP3    H130841   5.139   3.650   0.251 -0.3191 -1.9219  0.2397
 3094TIP3    H230842   5.251   3.558   0.207  1.7914  0.8383 -0.4611
 3095TIP3   OH230843   2.270   0.932   6.894  0.4956  0.8041 -0.3319
 3095TIP3    H130844   2.267   0.981   6.812  0.0920  0.9519 -0.2316
 3095TIP3    H230845   2.179   0.925   6.921  0.5835  0.3004 -0.1613
 3096TIP3   OH230846   6.440   3.941   1.618 -0.1983 -0.6901  0.9218
 3096TIP3    H130847   6.461   3.979   1.533 -2.3563 -0.0227  0.6312
 3096TIP3    H230848   6.461   3.848   1.609 -1.5822 -0.8783 -0.7986
 3097TIP3   OH230849   4.053   3.122   8.549 -0.3825 -0.3173  0.7327
 3097TIP3    H130850   4.012   3.048   8.594 -1.2428  0.0041  0.4963
 3097TIP3    H230851   3.984   3.159   8.495  0.8001 -1.1789 -1.5115
 3098TIP3   OH230852   3.582   6.423   0.984 -0.3847 -0.5065 -0.3431
 3098TIP3    H130853   3.490   6.408   0.963 -1.1672  1.6384  1.2028
 3098TIP3    H230854   3.593   6.384   1.071 -0.1686  0.3139  0.0010
 3099TIP3   OH230855   0.622   1.294   7.458 -0.4435  0.3924 -0.1454
 3099TIP3    H130856   0.686   1.264   7.523 -0.2656  0.5679 -0.2370
 3099TIP3    H230857   0.544   1.242   7.475 -0.8450  1.3610  1.0646
 3100TIP3   OH230858   4.799   6.520   7.120 -0.4348  0.5426  0.6935
 3100TIP3    H130859   4.753   6.448   7.078 -1.4239  1.7747 -0.4280
 3100TIP3    H230860   4.892   6.504   7.101 -0.6580 -0.3405  0.3212
 3101TIP3   OH230861   2.007   3.648   1.783  0.3763 -0.0003 -0.0214
 3101TIP3    H130862   2.100   3.650   1.764  0.1923  1.6363 -0.9157
 3101TIP3    H230863   2.001   3.672   1.875  0.8053  0.4619 -0.1114
 3102TIP3   OH230864   1.595   5.994   8.057 -0.5522 -0.1363 -0.5123
 3102TIP3    H130865   1.675   5.961   8.017 -0.1232  1.7887 -1.3509
 3102TIP3    H230866   1.624   6.062   8.118 -1.5758  1.6261 -1.9013
 3103TIP3   OH230867   2.904   0.638   7.276  0.6159  0.2202  0.2735
 3103TIP3    H130868   2.954   0.711   7.238  0.7750 -0.3787 -0.7085
 3103TIP3    H230869   2.869   0.592   7.200  1.3201 -1.2970  0.8376
 3104TIP3   OH230870   1.895   2.705   6.527 -0.4373  0.1776  0.3544
 3104TIP3    H130871   1.954   2.633   6.548 -1.3353 -0.3448  1.1592
 3104TIP3    H230872   1.894   2.708   6.431 -0.4785 -0.9589  0.3105
 3105TIP3   OH230873   6.616   5.589   6.427 -0.9102  0.1653 -0.2214
 3105TIP3    H130874   6.584   5.604   6.338 -1.1644 -0.1807 -0.1875
 3105TIP3    H230875   6.601   5.496   6.443  0.0660 -0.0049 -0.1918
 3106TIP3   OH230876   0.206   4.057   0.074 -0.0175  0.9536  0.6237
 3106TIP3    H130877   0.153   4.036   0.152 -1.2833  1.4830 -0.0614
 3106TIP3    H230878   0.145   4.049   0.001  1.4375 -0.7618 -0.4945
 3107TIP3   OH230879   6.171   0.686   0.832 -0.6036  0.3502 -0.0350
 3107TIP3    H130880   6.256   0.703   0.872 -0.1218  0.3541 -1.0303
 3107TIP3    H230881   6.108   0.725   0.893 -0.1278 -1.8437  2.0534
 3108TIP3   OH230882   6.546   4.092   0.659 -0.2768  0.6542  0.1193
 3108TIP3    H130883   6.477   4.034   0.694  0.0821 -1.0902 -1.8379
 3108TIP3    H230884   6.501   4.174   0.641 -1.5033  0.0616  0.3523
 3109TIP3   OH230885   4.406   1.702   0.167 -0.6608  0.1101 -0.3772
 3109TIP3    H130886   4.459   1.666   0.238 -1.4490  0.3098  0.3137
 3109TIP3    H230887   4.428   1.795   0.166 -0.8675  0.1603 -0.2078
 3110TIP3   OH230888   2.614   5.783   0.171 -0.5810  0.1304  0.2723
 3110TIP3    H130889   2.709   5.776   0.167 -0.6630 -0.2985 -1.4958
 3110TIP3    H230890   2.590   5.742   0.254  0.8535  1.5694  1.4667
 3111TIP3   OH230891   0.652   4.200   0.214  0.7031  0.6272  0.4628
 3111TIP3    H130892   0.619   4.180   0.126 -2.0899  2.1402  1.0288
 3111TIP3    H230893   0.708   4.126   0.236 -1.1089 -1.4545 -1.3415
 3112TIP3   OH230894   5.646   1.191   8.405 -0.4887  0.4378  0.3134
 3112TIP3    H130895   5.597   1.243   8.469 -0.1667  0.6875  0.3626
 3112TIP3    H230896   5.607   1.104   8.409 -0.8608  0.6095  0.4221
 3113TIP3   OH230897   4.319   2.287   8.426  0.0405 -0.4347 -0.0681
 3113TIP3    H130898   4.339   2.276   8.333  0.2134 -0.0256 -0.0787
 3113TIP3    H230899   4.375   2.222   8.470  2.1263  1.2853 -0.0179
 3114TIP3   OH230900   6.605   4.516   2.564  0.1883 -0.0446  0.1470
 3114TIP3    H130901   6.520   4.483   2.591  0.0223  1.3596  1.5228
 3114TIP3    H230902   6.667   4.477   2.625  0.2531  0.4850  0.4315
 3115TIP3   OH230903   2.346   6.570   0.051  0.2199  0.0088  0.8133
 3115TIP3    H130904   2.415   6.513   0.016 -0.5574  0.5538 -1.8082
 3115TIP3    H230905   2.286   6.511   0.096  1.2348 -0.7598  1.1951
 3116TIP3   OH230906   5.157   2.057   1.662  0.1405 -0.0003 -0.8849
 3116TIP3    H130907   5.211   2.134   1.682 -1.9838  1.1283  0.8882
 3116TIP3    H230908   5.164   2.003   1.741  0.1109 -0.7222 -1.3766
 3117TIP3   OH230909   2.555   2.584   8.098  0.6503 -0.2388  0.0969
 3117TIP3    H130910   2.629   2.599   8.156 -0.0733  0.5491  0.8518
 3117TIP3    H230911   2.541   2.489   8.101  2.3714 -0.5672 -1.0392
 3118TIP3   OH230912   3.669   5.566   8.387  0.3116  0.1876 -0.2708
 3118TIP3    H130913   3.704   5.478   8.402  0.3597 -0.0025 -1.3785
 3118TIP3    H230914   3.715   5.597   8.309 -1.7512  0.0333 -1.6346
 3119TIP3   OH230915   6.175   2.653   7.293 -0.1131 -0.0471  0.1352
 3119TIP3    H130916   6.126   2.688   7.367 -2.3012 -0.3304 -1.0776
 3119TIP3    H230917   6.219   2.729   7.255 -1.5700  0.7110 -0.1152
 3120TIP3   OH230918   5.596   2.338   1.857 -0.0848  0.0949  0.1440
 3120TIP3    H130919   5.637   2.303   1.778 -1.0469  0.3186 -0.4734
 3120TIP3    H230920   5.609   2.270   1.923  1.1574  0.1130 -0.0557
 3121TIP3   OH230921   3.900   4.879   7.983 -0.1400  0.0765 -0.1025
 3121TIP3    H130922   3.994   4.883   8.001  0.0964 -0.4384 -1.1317
 3121TIP3    H230923   3.880   4.963   7.942  0.0438 -0.1180 -0.6013
 3122TIP3   OH230924   3.641   2.750   7.406  0.5478  0.0222  0.6181
 3122TIP3    H130925   3.624   2.659   7.385  1.0835  0.2814 -1.0556
 3122TIP3    H230926   3.563   2.780   7.452 -1.5387 -0.1137 -2.5642
 3123TIP3   OH230927   6.631   5.419   0.023 -0.6015  0.0324 -0.5467
 3123TIP3    H130928   6.596   5.495   0.069  1.1617  0.8666 -0.5034
 3123TIP3    H230929   6.587   5.344   0.063 -1.3973  0.9342  0.3242
 3124TIP3   OH230930   0.916   1.991   6.508 -0.1260  0.0684  0.7238
 3124TIP3    H130931   0.895   2.044   6.431 -2.4842  0.0974  1.3224
 3124TIP3    H230932   0.955   1.911   6.472 -2.4304 -0.5186 -0.6475
 3125TIP3   OH230933   1.187   1.922   2.292 -0.0480  0.2828 -0.1223
 3125TIP3    H130934   1.272   1.939   2.331  0.4163  1.4340 -1.5384
 3125TIP3    H230935   1.124   1.956   2.355  0.3807 -2.1662  1.7830
 3126TIP3   OH230936   0.400   3.519   7.048  0.3830  0.0314  0.1924
 3126TIP3    H130937   0.367   3.470   7.123  0.0283  0.0601  0.0549
 3126TIP3    H230938   0.443   3.453   6.993  1.9390  0.2233  1.1212
 3127TIP3   OH230939   5.325   3.557   1.411 -0.8653  0.1179 -0.3831
 3127TIP3    H130940   5.330   3.534   1.318  1.3265  0.7508 -0.4740
 3127TIP3    H230941   5.336   3.473   1.456  1.2533  0.1436 -0.7368
 3128TIP3   OH230942   5.348   3.935   8.260 -0.2222 -0.2844 -0.0776
 3128TIP3    H130943   5.284   3.983   8.208  0.3338  1.5069  0.7859
 3128TIP3    H230944   5.427   3.935   8.206  0.3255  1.4856  0.6550
 3129TIP3   OH230945   3.898   5.187   6.900 -0.2366  0.7379 -0.0850
 3129TIP3    H130946   3.976   5.241   6.889 -0.5298  1.1145 -0.3577
 3129TIP3    H230947   3.872   5.165   6.810  0.1581 -0.2665  0.0371
 3130TIP3   OH230948   5.676   3.618   1.205  0.5441  0.6060  0.2299
 3130TIP3    H130949   5.721   3.682   1.151 -0.4936  1.0786 -0.1023
 3130TIP3    H230950   5.698   3.642   1.295  1.7964  0.1773  0.0589
 3131TIP3   OH230951   5.080   2.274   7.427 -0.1518 -0.1338  0.2866
 3131TIP3    H130952   5.132   2.194   7.421  2.3037  1.4261 -1.3427
 3131TIP3    H230953   5.025   2.273   7.348 -0.4342 -0.4123  0.4875
 3132TIP3   OH230954   3.985   3.515   1.856  0.3678  0.2387  0.2425
 3132TIP3    H130955   3.895   3.535   1.881  0.5721  1.1119  0.2826
 3132TIP3    H230956   3.977   3.440   1.797 -0.7654  2.6062 -2.8958
 3133TIP3   OH230957   3.070   4.771   0.228 -0.5982  0.0009  0.1808
 3133TIP3    H130958   3.100   4.844   0.173 -0.0689  1.6219  2.4758
 3133TIP3    H230959   2.996   4.734   0.181 -1.1510  2.2963 -0.8917
 3134TIP3   OH230960   4.886   4.790   7.712 -0.5145  0.2976  0.4975
 3134TIP3    H130961   4.915   4.806   7.622  0.2272 -1.9720  0.2604
 3134TIP3    H230962   4.958   4.741   7.751 -1.6300 -0.4141  1.7360
 3135TIP3   OH230963   5.424   1.668   8.169  0.3477 -0.3234  0.0841
 3135TIP3    H130964   5.430   1.576   8.193  0.0879 -0.1617  0.7936
 3135TIP3    H230965   5.330   1.686   8.164  0.3714  0.1827  1.1154
 3136TIP3   OH230966   2.557   4.371   7.842 -0.2897 -0.2014 -0.1825
 3136TIP3    H130967   2.481   4.409   7.797 -0.6473  0.0161  0.6017
 3136TIP3    H230968   2.520   4.313   7.908  0.2105  0.5325  0.7620
 3137TIP3   OH230969   0.172   4.601   1.229  0.2341 -0.2717  0.2195
 3137TIP3    H130970   0.088   4.567   1.260 -0.8083  0.7064 -1.4022
 3137TIP3    H230971   0.172   4.693   1.256 -0.4233  0.4342 -2.0113
 3138TIP3   OH230972   6.445   0.327   1.761 -0.2066  0.2867 -0.1193
 3138TIP3    H130973   6.489   0.384   1.825 -0.2339 -1.2329  1.3231
 3138TIP3    H230974   6.352   0.340   1.778 -0.2255  0.2230 -0.1735
 3139TIP3   OH230975   4.882   1.079   0.009 -0.0769 -0.2749 -0.2230
 3139TIP3    H130976   4.934   1.088   0.090  0.0150 -0.0671 -0.3043
 3139TIP3    H230977   4.829   1.000   0.024 -0.6860  0.2320  0.3914
 3140TIP3   OH230978   2.262   6.464   7.901 -0.2538  0.3446 -0.2374
 3140TIP3    H130979   2.302   6.400   7.960 -0.5458  0.1208 -0.2827
 3140TIP3    H230980   2.332   6.488   7.840 -0.4555 -0.7915 -0.9404
 3141TIP3   OH230981   6.217   0.549   8.486 -0.8166  0.8414  0.0633
 3141TIP3    H130982   6.191   0.466   8.526 -0.6838  0.0179 -1.4927
 3141TIP3    H230983   6.281   0.586   8.547  0.3825 -0.9952  0.0091
 3142TIP3   OH230984   5.933   3.348   0.066  0.1241  0.3780 -0.6965
 3142TIP3    H130985   5.963   3.373  -0.022  2.5922  0.1755  0.0190
 3142TIP3    H230986   5.956   3.255   0.074 -0.5608  0.2588 -0.0279
 3143TIP3   OH230987   1.829   5.213   2.306 -0.1075  0.0462 -0.1767
 3143TIP3    H130988   1.846   5.213   2.212  1.2311 -3.1282 -0.0531
 3143TIP3    H230989   1.838   5.305   2.331 -0.6674  1.0244 -3.1341
 3144TIP3   OH230990   3.803   2.348   0.357  0.2765 -0.7121 -0.0670
 3144TIP3    H130991   3.755   2.307   0.285 -0.6789 -1.3963  0.9223
 3144TIP3    H230992   3.783   2.441   0.350 -1.1159 -0.9681  0.2363
 3145TIP3   OH230993   4.595   5.864   8.396 -0.0196 -0.0716  0.2754
 3145TIP3    H130994   4.614   5.897   8.308 -0.0181 -1.8723 -0.4447
 3145TIP3    H230995   4.556   5.938   8.441 -0.5539  0.7445 -1.4296
 3146TIP3   OH230996   3.057   0.351   6.457  0.0187  0.0159  0.1920
 3146TIP3    H130997   3.089   0.265   6.482 -0.2414  0.2028  1.2218
 3146TIP3    H230998   2.968   0.336   6.426 -0.0993 -0.0684  0.5633
 3147TIP3   OH230999   0.446   0.135   2.160  0.5068  0.4518  0.0464
 3147TIP3    H131000   0.379   0.071   2.185 -0.4928  1.6857  0.6135
 3147TIP3    H231001   0.528   0.094   2.186 -0.1057 -0.6152  0.3740
 3148TIP3   OH231002   2.979   6.266   0.531 -0.2160  0.4040  0.1555
 3148TIP3    H131003   2.937   6.209   0.467 -3.7977  2.1127  0.7011
 3148TIP3    H231004   3.043   6.210   0.575  0.9840 -1.3555 -3.4479
 3149TIP3   OH231005   2.481   4.996   0.115 -0.1625  0.1654  0.5023
 3149TIP3    H131006   2.458   5.052   0.040  0.0404  2.2129  1.8913
 3149TIP3    H231007   2.464   5.051   0.192  2.6797 -0.6932  1.8611
 3150TIP3   OH231008   1.145   1.109   7.943 -0.0604  0.3488  0.1842
 3150TIP3    H131009   1.133   1.044   8.013  0.2724  0.8392  0.7029
 3150TIP3    H231010   1.167   1.056   7.866  1.7587 -0.1078  0.9412
 3151TIP3   OH231011   4.445   2.864   1.290  0.4216  0.0820  0.3701
 3151TIP3    H131012   4.488   2.790   1.246 -0.2155 -0.1360  0.0924
 3151TIP3    H231013   4.458   2.848   1.383 -0.8411 -1.1194  0.3776
 3152TIP3   OH231014   5.789   2.172   8.228 -0.2453  0.1060 -0.4215
 3152TIP3    H131015   5.857   2.123   8.182 -0.1188 -1.3683  1.2312
 3152TIP3    H231016   5.833   2.206   8.306 -0.9575  0.7462 -0.2902
 3153TIP3   OH231017   6.126   2.561   6.959  0.1075  0.3288 -0.0599
 3153TIP3    H131018   6.159   2.495   7.020  0.1936  0.1977 -0.2483
 3153TIP3    H231019   6.129   2.643   7.008 -0.7885  0.0636  0.4705
 3154TIP3   OH231020   3.475   5.816   7.109 -0.5215  0.2296 -0.1162
 3154TIP3    H131021   3.506   5.727   7.091  0.6562  0.2774  1.4668
 3154TIP3    H231022   3.452   5.815   7.202 -2.2066  1.1235 -0.4864
 3155TIP3   OH231023   5.058   2.487   7.956  0.1381  0.0759 -0.0611
 3155TIP3    H131024   5.022   2.560   7.906  0.5946 -0.6517 -1.5224
 3155TIP3    H231025   4.981   2.434   7.978 -0.0214  0.1644 -0.3969
 3156TIP3   OH231026   4.055   1.661   1.280  0.3337  0.3407  1.0314
 3156TIP3    H131027   3.973   1.709   1.292 -0.7580 -0.6830 -1.5582
 3156TIP3    H231028   4.098   1.705   1.207  0.5732 -0.9665  0.3444
 3157TIP3   OH231029   4.164   6.733   1.483  0.2463 -0.4845  0.5155
 3157TIP3    H131030   4.119   6.749   1.400 -0.5352 -1.5627  0.7142
 3157TIP3    H231031   4.253   6.766   1.469  0.0111 -0.2916 -0.6052
 3158TIP3   OH231032   5.225   1.347   7.450 -0.0356 -0.3065 -0.3113
 3158TIP3    H131033   5.204   1.406   7.523  1.3454 -2.6452  2.1176
 3158TIP3    H231034   5.320   1.346   7.447 -0.0279  0.5582 -2.9870
 3159TIP3   OH231035   1.814   5.558   7.304 -0.5376  0.0151 -0.0513
 3159TIP3    H131036   1.906   5.536   7.316 -1.0764 -1.2721  2.3635
 3159TIP3    H231037   1.810   5.652   7.325  0.2709  0.1849 -0.5959
 3160TIP3   OH231038   1.547   4.905   1.865 -0.6631 -0.0621  0.1476
 3160TIP3    H131039   1.588   4.975   1.916 -0.4036 -0.6846  0.8182
 3160TIP3    H231040   1.453   4.918   1.878 -0.6165  0.1652  0.2670
 3161TIP3   OH231041   2.921   0.513   7.697 -0.0758 -0.1387 -0.2814
 3161TIP3    H131042   2.874   0.543   7.619 -2.5922 -0.8190  0.8497
 3161TIP3    H231043   3.006   0.484   7.664  0.0206  2.1048 -2.3341
 3162TIP3   OH231044   4.115   6.766   2.077 -0.6566 -0.3610  0.3479
 3162TIP3    H131045   4.165   6.742   2.155 -1.0262 -0.2176  0.6297
 3162TIP3    H231046   4.024   6.750   2.100 -1.1266  2.7894  1.1681
 3163TIP3   OH231047   5.217   4.224   8.314 -0.1084  0.3602  0.5333
 3163TIP3    H131048   5.291   4.266   8.269 -0.6396 -0.2491 -0.9636
 3163TIP3    H231049   5.252   4.139   8.342 -0.0326  0.3652  0.4570
 3164TIP3   OH231050   2.894   1.835   0.554  0.1607 -0.2167  0.2715
 3164TIP3    H131051   2.832   1.764   0.534  1.1439 -1.1859  0.5787
 3164TIP3    H231052   2.951   1.798   0.621 -0.1818  1.3781  1.4809
 3165TIP3   OH231053   3.551   3.634   8.504  0.3206 -0.3268  0.3320
 3165TIP3    H131054   3.558   3.539   8.500  1.2495 -0.3286  1.2863
 3165TIP3    H231055   3.461   3.650   8.532 -0.3120 -0.8451 -1.3064
 3166TIP3   OH231056   4.689   1.998   0.658  0.0640 -0.1049  0.7664
 3166TIP3    H131057   4.598   2.008   0.684 -0.0888  1.1883 -0.2042
 3166TIP3    H231058   4.739   2.019   0.737 -0.4488  1.1883  0.7574
 3167TIP3   OH231059   5.282   2.091   0.669 -0.1823  0.6728  0.1575
 3167TIP3    H131060   5.326   2.163   0.715  0.7498  0.0423  0.2862
 3167TIP3    H231061   5.354   2.041   0.630 -0.6974 -1.0493  1.3167
 3168TIP3   OH231062   3.968   4.020   0.527  0.3462 -0.1013  0.0111
 3168TIP3    H131063   4.040   4.052   0.581  0.2384 -0.0909  0.1466
 3168TIP3    H231064   3.889   4.043   0.575  0.1952  1.1066 -0.7924
 3169TIP3   OH231065   6.814   1.800   2.403  0.1756 -0.5975  0.0565
 3169TIP3    H131066   6.897   1.803   2.354 -0.1144 -2.0079 -0.5617
 3169TIP3    H231067   6.786   1.709   2.397 -0.6995 -0.4457  1.5061
 3170TIP3   OH231068   5.066   3.598   6.600  0.8162 -0.5967  0.6501
 3170TIP3    H131069   4.975   3.579   6.621  0.5450 -0.5239 -0.4354
 3170TIP3    H231070   5.114   3.572   6.679 -0.2176  0.1402  1.5529
 3171TIP3   OH231071   2.151   1.443   1.059  0.5470  0.1232  0.2002
 3171TIP3    H131072   2.126   1.426   1.150 -0.4120  0.2707 -0.0283
 3171TIP3    H231073   2.151   1.356   1.018 -1.7665  0.3126 -0.3212
 3172TIP3   OH231074   5.957   1.384   1.674 -0.1474 -0.1609  0.1423
 3172TIP3    H131075   5.874   1.428   1.691  0.4389  1.4960 -1.0848
 3172TIP3    H231076   5.989   1.358   1.760 -2.1670 -1.3099  0.5924
 3173TIP3   OH231077   5.596   1.550   0.433 -0.0731  0.4265  1.0332
 3173TIP3    H131078   5.510   1.569   0.394  0.8641 -0.8911 -1.9177
 3173TIP3    H231079   5.644   1.633   0.425 -0.0218  0.2860 -0.4087
 3174TIP3   OH231080   5.919   2.836   0.217  0.2763  0.3467 -0.1513
 3174TIP3    H131081   5.862   2.892   0.271 -0.6947 -0.9253  0.1896
 3174TIP3    H231082   5.859   2.791   0.159  0.7299 -2.0560  1.1172
 3175TIP3   OH231083   6.294   0.771   1.906  0.7835  0.5551  0.1851
 3175TIP3    H131084   6.275   0.847   1.961  0.8431 -0.6652  1.9776
 3175TIP3    H231085   6.264   0.696   1.958 -1.4440 -0.5560 -2.4550
 3176TIP3   OH231086   2.109   3.949   7.717 -0.1480  0.0356  0.2774
 3176TIP3    H131087   2.126   4.024   7.775 -0.9486  0.1421  0.3836
 3176TIP3    H231088   2.150   3.973   7.634 -0.5623  0.6826  0.2535
 3177TIP3   OH231089   5.620   4.572   1.600 -0.2934 -0.0632 -0.0166
 3177TIP3    H131090   5.618   4.482   1.632 -3.0368  0.0228  0.3134
 3177TIP3    H231091   5.572   4.569   1.517 -0.2456  1.0599 -0.1076
 3178TIP3   OH231092   0.843   4.173   0.909  0.0169 -0.3745 -0.3268
 3178TIP3    H131093   0.774   4.221   0.863  0.8969 -1.8878 -3.4910
 3178TIP3    H231094   0.897   4.240   0.949 -2.2526  0.9180  0.8061
 3179TIP3   OH231095   0.254   3.244   0.120 -0.0574 -0.2489 -0.8237
 3179TIP3    H131096   0.199   3.294   0.059 -0.0181 -0.0728 -0.7153
 3179TIP3    H231097   0.311   3.309   0.159  1.3115 -0.6478 -2.0774
 3180TIP3   OH231098   4.120   5.841   0.753 -0.4192 -0.4059 -0.0540
 3180TIP3    H131099   4.134   5.881   0.667 -1.2089 -4.0289 -2.0597
 3180TIP3    H231100   4.058   5.900   0.797 -1.9059  0.4022 -2.9690
 3181TIP3   OH231101   1.667   5.780   7.172 -0.1121  0.4303  0.3569
 3181TIP3    H131102   1.749   5.830   7.178  0.2222 -0.2627  1.7874
 3181TIP3    H231103   1.633   5.779   7.261 -1.0598 -0.3413 -0.0015
 3182TIP3   OH231104   1.554   3.589   0.395 -0.0524 -0.2468 -0.1494
 3182TIP3    H131105   1.499   3.661   0.365 -2.9507 -3.1714 -2.4711
 3182TIP3    H231106   1.596   3.556   0.316  0.1703 -1.9242  0.6211
 3183TIP3   OH231107   0.554   2.512   8.361  0.7717 -0.0133  0.5598
 3183TIP3    H131108   0.566   2.484   8.270  0.2063  0.0381  0.4606
 3183TIP3    H231109   0.477   2.462   8.390 -0.7077  1.9112  0.1531
 3184TIP3   OH231110   0.494   1.075   8.011  0.0323  0.1610 -0.2661
 3184TIP3    H131111   0.538   0.995   8.042 -0.0604  0.7938  1.5845
 3184TIP3    H231112   0.564   1.141   8.008 -0.0840  0.2604 -0.8510
 3185TIP3   OH231113   4.023   6.053   1.649  0.2189 -0.3554  0.0541
 3185TIP3    H131114   4.065   5.970   1.625 -0.1585 -0.3067 -0.8000
 3185TIP3    H231115   4.068   6.080   1.729  0.3510 -1.3866  0.3475
 3186TIP3   OH231116   0.247   3.512   8.283  0.4734  0.2420  0.0785
 3186TIP3    H131117   0.192   3.435   8.298 -0.2884  1.2630  3.2389
 3186TIP3    H231118   0.195   3.586   8.315  2.8240  1.5122  1.2805
 3187TIP3   OH231119   3.757   3.443   8.222 -0.5973 -0.5846 -0.0507
 3187TIP3    H131120   3.741   3.531   8.255 -0.0673 -1.3431  2.5033
 3187TIP3    H231121   3.671   3.412   8.193 -0.9752  0.4106 -0.0211
 3188TIP3   OH231122   6.639   6.749   8.429  0.0871 -0.5628  0.1534
 3188TIP3    H131123   6.676   6.786   8.510 -1.0513  1.5595 -0.2238
 3188TIP3    H231124   6.551   6.722   8.453  0.6801 -2.5356  0.2488
 3189TIP3   OH231125   1.299   3.170   7.066 -0.5623 -0.3572 -0.0086
 3189TIP3    H131126   1.367   3.149   7.002  0.5618 -1.4458  1.4544
 3189TIP3    H231127   1.220   3.185   7.014  0.7514  0.8247 -1.7605
 3190TIP3   OH231128   5.166   6.754   7.761  0.2277 -0.5075  0.0274
 3190TIP3    H131129   5.071   6.762   7.757  0.2471 -0.7242 -1.0622
 3190TIP3    H231130   5.187   6.768   7.854 -0.9779 -1.8672  0.5430
 3191TIP3   OH231131   0.033   3.052   7.921 -0.0301  0.0662 -0.4985
 3191TIP3    H131132   0.016   2.976   7.866 -0.0656  0.6459 -1.3080
 3191TIP3    H231133   0.128   3.055   7.931  0.1584  1.1081 -2.2415
 3192TIP3   OH231134   4.861   0.238   7.909 -0.6278 -0.9755  0.3102
 3192TIP3    H131135   4.866   0.220   7.815  0.0131 -0.0561  0.1555
 3192TIP3    H231136   4.935   0.191   7.946 -0.5549 -0.8874  0.2770
 3193TIP3   OH231137   0.846   2.003   0.311 -0.3362  0.2128  0.2340
 3193TIP3    H131138   0.862   1.909   0.317  1.7231  0.5252  0.4522
 3193TIP3    H231139   0.755   2.014   0.339  0.3034 -1.4012  3.3547
 3194TIP3   OH231140   2.782   3.604   1.883 -0.1683 -0.1352 -0.2439
 3194TIP3    H131141   2.771   3.567   1.795  0.3702  0.8977 -0.7651
 3194TIP3    H231142   2.846   3.546   1.925 -1.2079 -1.2577 -0.1296
 3195TIP3   OH231143   0.924   2.537   1.428  0.3427 -0.0474  0.1065
 3195TIP3    H131144   0.927   2.484   1.507  1.2544  0.5935  0.5169
 3195TIP3    H231145   0.991   2.604   1.441 -1.5234  1.9348  0.1415
 3196TIP3   OH231146   5.788   3.800   7.540  0.5357  0.5348 -0.3751
 3196TIP3    H131147   5.769   3.863   7.610  1.5086  0.5573 -0.1129
 3196TIP3    H231148   5.715   3.809   7.479  0.1609  1.2073  0.1562
 3197TIP3   OH231149   2.509   2.423   6.576 -0.2550 -0.7092 -0.4170
 3197TIP3    H131150   2.425   2.379   6.591 -0.7954 -0.4902 -2.4418
 3197TIP3    H231151   2.543   2.383   6.496 -0.3662  1.9060 -1.8935
 3198TIP3   OH231152   2.657   2.650   7.604  0.2757  0.2405  0.5874
 3198TIP3    H131153   2.723   2.581   7.604 -0.8903 -0.9191 -0.5541
 3198TIP3    H231154   2.578   2.608   7.572 -0.6320  1.9803  0.4239
 3199TIP3   OH231155   0.014   3.730   0.490  0.0929 -0.1152 -0.3640
 3199TIP3    H131156   0.074   3.668   0.448 -0.8396 -0.9171 -0.5344
 3199TIP3    H231157  -0.065   3.727   0.436 -1.4249 -1.7296  1.8072
 3200TIP3   OH231158   1.374   2.745   8.236 -0.0342  0.4134 -0.0729
 3200TIP3    H131159   1.309   2.687   8.276 -0.1711 -1.9697 -3.4015
 3200TIP3    H231160   1.458   2.709   8.263 -0.0044  1.7706  1.8706
 3201TIP3   OH231161   4.441   4.183   8.310  0.1373 -0.1627  0.0971
 3201TIP3    H131162   4.528   4.165   8.345 -0.5420 -1.6382  1.1409
 3201TIP3    H231163   4.445   4.155   8.219  0.6189 -0.7110  0.2805
 3202TIP3   OH231164   1.793   4.446   1.578 -0.1825  0.2729 -0.0287
 3202TIP3    H131165   1.726   4.379   1.593  0.1374 -0.0351  0.0556
 3202TIP3    H231166   1.748   4.529   1.591 -0.9211  0.1221 -1.4218
 3203TIP3   OH231167   0.194   0.530   0.197 -0.7479 -0.2050 -0.1254
 3203TIP3    H131168   0.126   0.462   0.197 -0.4603 -0.5011 -1.1773
 3203TIP3    H231169   0.270   0.488   0.157  0.3327 -0.1328  1.7329
 3204TIP3   OH231170   4.291   6.187   1.948 -0.3408  0.2337  0.0955
 3204TIP3    H131171   4.306   6.092   1.955  0.1772  0.4007  1.5486
 3204TIP3    H231172   4.378   6.226   1.953 -0.4620  0.7690 -1.5047
 3205TIP3   OH231173   5.273   3.645   8.251 -0.0397  0.7745 -0.2232
 3205TIP3    H131174   5.361   3.682   8.260  0.9121 -1.4861  0.4964
 3205TIP3    H231175   5.262   3.630   8.157  1.2012 -0.7461 -0.1658
 3206TIP3   OH231176   6.054   3.226   7.998  1.1648 -0.3727 -0.1650
 3206TIP3    H131177   6.128   3.168   7.984  0.4795 -1.1185 -0.8009
 3206TIP3    H231178   6.080   3.281   8.072  1.3096 -2.4044  1.3737
 3207TIP3   OH231179   3.232   3.409   8.455  0.0068  0.3189 -0.1468
 3207TIP3    H131180   3.230   3.403   8.359  1.0594  0.6557 -0.1975
 3207TIP3    H231181   3.280   3.331   8.483  0.6731  0.7852  0.0338
 3208TIP3   OH231182   1.820   0.362   6.328 -0.4110  0.5019 -0.3497
 3208TIP3    H131183   1.769   0.441   6.349  0.2589  0.9216 -0.2772
 3208TIP3    H231184   1.909   0.384   6.355 -0.1197 -0.0860 -0.8333
 3209TIP3   OH231185   5.258   4.600   7.283 -0.3272  0.2815 -0.1806
 3209TIP3    H131186   5.224   4.530   7.337  0.8557 -0.0093  0.2124
 3209TIP3    H231187   5.303   4.556   7.211 -0.2139  0.6522 -0.3433
 3210TIP3   OH231188   2.116   1.503   0.314  0.3404 -0.4035  0.0561
 3210TIP3    H131189   2.184   1.438   0.330  0.3932 -0.2510  0.4537
 3210TIP3    H231190   2.158   1.587   0.334 -0.7867 -0.4663  3.1656
 3211TIP3   OH231191   5.771   5.218   0.031  0.2239  1.3675 -0.8573
 3211TIP3    H131192   5.856   5.259   0.044 -0.4606  2.7196 -0.4996
 3211TIP3    H231193   5.781   5.168  -0.050  1.8606  0.0675  0.0713
 3212TIP3   OH231194   2.840   1.471   1.384  0.3107 -0.3668 -0.3104
 3212TIP3    H131195   2.812   1.456   1.294 -3.1525 -1.0172  0.7500
 3212TIP3    H231196   2.877   1.560   1.383  1.1718 -0.6733 -2.4668
 3213TIP3   OH231197   0.075   6.324   1.131  0.6607 -0.5099  0.2820
 3213TIP3    H131198   0.133   6.313   1.056 -0.0951 -0.2923 -0.3541
 3213TIP3    H231199   0.001   6.266   1.113 -0.3744  0.8507 -0.0410
 3214TIP3   OH231200   4.567   6.719   7.602  0.0906  0.1392  0.6320
 3214TIP3    H131201   4.579   6.640   7.654  0.7139 -0.8465 -0.9307
 3214TIP3    H231202   4.645   6.723   7.546 -0.4050  1.2976 -0.0049
 3215TIP3   OH231203   2.906   2.562   7.322 -0.1622 -0.4933  0.4669
 3215TIP3    H131204   2.826   2.610   7.303  0.3385 -0.2324 -1.2079
 3215TIP3    H231205   2.964   2.627   7.363 -0.3047 -0.2830  0.3381
 3216TIP3   OH231206   3.699   5.926   0.979  0.3481 -0.3474  0.4314
 3216TIP3    H131207   3.783   5.968   0.998 -0.8205  0.9483  3.5286
 3216TIP3    H231208   3.638   5.998   0.967 -0.8364 -1.1820  1.1595
 3217TIP3   OH231209   1.373   1.548   7.715 -0.3074 -0.0690 -0.0575
 3217TIP3    H131210   1.362   1.628   7.663 -2.1785 -0.0652  0.2644
 3217TIP3    H231211   1.346   1.574   7.803 -1.4915 -1.1686 -0.0655
 3218TIP3   OH231212   3.123   1.064   8.231  0.4686 -0.2977 -0.0735
 3218TIP3    H131213   3.041   1.035   8.271  1.0430  0.3354  1.6880
 3218TIP3    H231214   3.097   1.132   8.169 -0.3309  0.0619  0.6321
 3219TIP3   OH231215   0.970   3.587   7.022 -0.1961 -0.0700 -0.0457
 3219TIP3    H131216   0.891   3.534   7.027 -0.3698 -0.1537 -2.4621
 3219TIP3    H231217   1.011   3.561   6.939  1.8850  0.6299  0.7110
 3220TIP3   OH231218   4.090   1.293   8.314 -0.0838 -0.4694 -0.6404
 3220TIP3    H131219   4.133   1.249   8.388 -1.3812 -2.9344 -1.2723
 3220TIP3    H231220   4.129   1.380   8.313  2.0060 -1.2846  1.2242
 3221TIP3   OH231221   2.973   6.392   2.429  0.1636  0.8494 -0.2582
 3221TIP3    H131222   2.881   6.368   2.414  0.0806  0.7765  0.3364
 3221TIP3    H231223   2.971   6.438   2.513  0.8014  0.0750  0.1888
 3222TIP3   OH231224   5.146   1.626   2.055 -0.1796  0.3629  0.0107
 3222TIP3    H131225   5.127   1.537   2.085  0.5396 -0.9746 -3.1435
 3222TIP3    H231226   5.060   1.663   2.035 -0.4291  0.1183  0.5973
 3223TIP3   OH231227   5.631   0.644   7.615 -0.0547  0.2697 -0.4273
 3223TIP3    H131228   5.700   0.681   7.561 -0.2079  0.4981 -0.4724
 3223TIP3    H231229   5.551   0.689   7.586 -0.1410  0.3851 -0.0240
 3224TIP3   OH231230   4.061   5.503   8.210  0.0971  0.7913  0.1284
 3224TIP3    H131231   4.042   5.443   8.282  1.0594 -0.9804 -1.0240
 3224TIP3    H231232   3.975   5.530   8.178 -0.3416  0.9497  1.3821
 3225TIP3   OH231233   2.212   3.343   7.211  0.6217 -0.4799  0.1843
 3225TIP3    H131234   2.189   3.265   7.261  0.8550 -1.4095 -1.0989
 3225TIP3    H231235   2.178   3.326   7.123  1.3274  0.5446 -0.3079
 3226TIP3   OH231236   0.758   2.753   2.330 -0.1091 -0.2999 -0.1523
 3226TIP3    H131237   0.837   2.699   2.322  0.7515  0.8667  0.0646
 3226TIP3    H231238   0.753   2.773   2.424  0.4235  1.1319 -0.3936
 3227TIP3   OH231239   1.062   1.120   0.632  0.3525  0.2399  0.5298
 3227TIP3    H131240   1.085   1.115   0.539  1.2969 -0.0378  0.7776
 3227TIP3    H231241   1.086   1.209   0.658  0.6474  0.1221  0.6583
 3228TIP3   OH231242   1.512   0.004   0.345  0.1430 -0.3067 -0.2754
 3228TIP3    H131243   1.506  -0.021   0.438  1.0789  0.7507  0.0950
 3228TIP3    H231244   1.437  -0.040   0.304 -0.8031 -0.1076  1.1471
 3229TIP3   OH231245   2.388   4.458   0.488 -0.1367  0.0731  0.1410
 3229TIP3    H131246   2.344   4.479   0.406 -1.8631 -0.3104  0.9201
 3229TIP3    H231247   2.344   4.379   0.519  0.0927  0.5375  1.7260
 3230TIP3   OH231248   2.999   1.440   0.966  0.0800 -0.1265 -0.1315
 3230TIP3    H131249   2.968   1.517   1.013 -0.3401 -0.3979  0.0362
 3230TIP3    H231250   3.095   1.449   0.967  0.2480 -1.1638  2.5976
 3231TIP3   OH231251   0.736   4.827   0.250 -0.4489 -0.4185 -0.0828
 3231TIP3    H131252   0.792   4.754   0.223 -1.2746 -1.1920  0.2702
 3231TIP3    H231253   0.727   4.880   0.171 -0.4064 -1.0642 -0.5267
 3232TIP3   OH231254   6.079   1.425   1.225  0.4448 -0.4458 -0.1320
 3232TIP3    H131255   6.058   1.494   1.163  0.3959 -0.4086 -0.0744
 3232TIP3    H231256   6.143   1.464   1.284  0.6501 -0.5467 -0.2843
 3233TIP3   OH231257   0.451   6.620   7.522  0.0195 -0.2811 -0.1676
 3233TIP3    H131258   0.459   6.715   7.512 -0.3495 -0.2465 -0.1494
 3233TIP3    H231259   0.539   6.587   7.505  0.3187  0.1198  0.5465
 3234TIP3   OH231260   0.159   2.030   6.381  0.0447 -0.0095  0.0964
 3234TIP3    H131261   0.247   2.068   6.376  0.6299 -1.0105  1.9267
 3234TIP3    H231262   0.105   2.100   6.416  0.3256  0.2716 -0.0168
 3235TIP3   OH231263   4.558   2.295   1.031  0.1984 -0.3513 -0.5300
 3235TIP3    H131264   4.524   2.229   1.092  0.7670  0.1871  0.3889
 3235TIP3    H231265   4.652   2.297   1.048  0.1865  0.7075 -0.5184
 3236TIP3   OH231266   4.921   5.237   1.922  0.1836 -0.4968 -0.1086
 3236TIP3    H131267   4.953   5.286   1.998 -1.7451 -1.6115  1.5245
 3236TIP3    H231268   4.982   5.260   1.852 -0.1284  3.6289  0.7017
 3237TIP3   OH231269   1.237   1.339   6.939  0.2469 -0.4551 -0.1182
 3237TIP3    H131270   1.167   1.372   6.882 -0.4438 -0.5152  0.6598
 3237TIP3    H231271   1.224   1.245   6.940 -1.0939 -0.3103  1.7608
 3238TIP3   OH231272   4.787   4.196   0.941 -0.1875  0.7055 -0.2250
 3238TIP3    H131273   4.834   4.279   0.927 -0.8495  1.3247  1.0771
 3238TIP3    H231274   4.704   4.222   0.981 -0.0624 -0.6335  0.9879
 3239TIP3   OH231275   5.085   4.282   0.935  0.5155  0.1560  0.2790
 3239TIP3    H131276   5.150   4.304   1.003 -0.4306 -0.2526  1.3524
 3239TIP3    H231277   5.026   4.357   0.933 -0.3797 -0.4958  1.0714
 3240TIP3   OH231278   5.930   3.366   0.348 -0.3395  0.1891  0.9437
 3240TIP3    H131279   5.942   3.348   0.254 -0.6636 -0.5443  1.0349
 3240TIP3    H231280   5.836   3.381   0.357 -1.5941 -5.6818  2.0183
 3241TIP3   OH231281   4.668   3.908   6.523  0.1810 -0.2486  0.1742
 3241TIP3    H131282   4.656   3.820   6.559  3.0552 -0.7146  0.3049
 3241TIP3    H231283   4.749   3.939   6.564 -0.8507  2.5892  0.2920
 3242TIP3   OH231284   0.521   5.423   7.227 -0.3465 -0.3421  0.1069
 3242TIP3    H131285   0.604   5.415   7.180 -0.0125 -1.5900  0.8628
 3242TIP3    H231286   0.476   5.496   7.184  1.1340  0.3671 -0.3146
 3243TIP3   OH231287   1.682   6.670   6.034  0.0595 -0.0342 -0.5207
 3243TIP3    H131288   1.631   6.594   6.062  0.1720 -0.7232 -2.0944
 3243TIP3    H231289   1.770   6.636   6.019 -0.0826  0.2071 -2.0257
 3244TIP3   OH231290   3.505   3.013   7.604  0.2884  0.1222 -0.5101
 3244TIP3    H131291   3.458   2.933   7.580 -0.5128 -0.3828  2.3515
 3244TIP3    H231292   3.588   2.982   7.640  0.3833  0.6187 -0.2933
 3245TIP3   OH231293   4.914   2.338   1.408 -0.2516 -0.4070  0.3115
 3245TIP3    H131294   4.951   2.426   1.408 -1.4257  0.1293  2.3196
 3245TIP3    H231295   4.979   2.285   1.455  0.6182 -0.7563 -1.1900
 3246TIP3   OH231296   0.738   0.148   6.632  0.1166 -0.4412 -0.1086
 3246TIP3    H131297   0.703   0.068   6.593 -0.1863 -0.3152 -0.0992
 3246TIP3    H231298   0.665   0.209   6.631  0.7071  0.2773 -1.3163
 3247TIP3   OH231299   0.562   4.093   8.267 -0.1580 -0.1375  0.3303
 3247TIP3    H131300   0.547   4.077   8.174  0.9651 -0.0125  0.1228
 3247TIP3    H231301   0.555   4.006   8.307  0.1042 -0.3048  0.0201
 3248TIP3   OH231302   2.061   1.837   0.949  0.6678 -0.0078  0.0071
 3248TIP3    H131303   2.001   1.775   0.991 -0.1767  0.7946  0.0133
 3248TIP3    H231304   2.064   1.808   0.857  0.7652 -0.4259  0.1403
 3249TIP3   OH231305   1.956   2.431   1.227  0.0589  0.4871  0.5887
 3249TIP3    H131306   1.918   2.347   1.199  0.6516  0.3585  0.1588
 3249TIP3    H231307   1.880   2.489   1.234 -0.2266  0.2679 -0.4015
 3250TIP3   OH231308   2.719   3.366   7.297  0.1150 -0.2864  0.4983
 3250TIP3    H131309   2.687   3.419   7.224  0.6883 -0.6365 -0.0199
 3250TIP3    H231310   2.712   3.423   7.373 -1.2407 -0.1778  0.3272
 3251TIP3   OH231311   2.989   1.664   6.466  0.0092 -0.4649  0.1112
 3251TIP3    H131312   3.083   1.676   6.479 -0.1428 -0.3751  1.2933
 3251TIP3    H231313   2.980   1.633   6.376  1.0821  0.5885 -0.3923
 3252TIP3   OH231314   0.654   1.651   1.659  0.0649  0.5495 -0.3772
 3252TIP3    H131315   0.701   1.578   1.620 -2.5495 -0.5789 -1.6568
 3252TIP3    H231316   0.714   1.725   1.653  1.5400 -0.7224 -2.1531
 3253TIP3   OH231317   1.490   6.145   1.899  0.5492 -0.3150  0.1907
 3253TIP3    H131318   1.447   6.076   1.849  1.1815  0.2441 -1.1636
 3253TIP3    H231319   1.429   6.219   1.895  0.5157 -0.3253  0.4405
 3254TIP3   OH231320   3.643   0.420   7.339  0.2413  0.4032 -0.0712
 3254TIP3    H131321   3.674   0.497   7.387 -1.0591  0.1178  1.2905
 3254TIP3    H231322   3.560   0.448   7.301 -0.4391 -0.4389  0.7725
 3255TIP3   OH231323   4.355   6.684   0.497  0.2592  0.1240 -0.2592
 3255TIP3    H131324   4.387   6.612   0.551 -0.1744  0.6938  0.7692
 3255TIP3    H231325   4.421   6.753   0.506  1.2028 -0.4592 -2.0472
 3256TIP3   OH231326   6.799   4.551   7.050  0.0165  0.0185  0.2388
 3256TIP3    H131327   6.751   4.568   7.132 -0.8010 -2.1229  0.2668
 3256TIP3    H231328   6.882   4.514   7.079  0.3487  0.6477  0.1086
 3257TIP3   OH231329   5.491   1.548   0.013 -0.2520  0.5726  0.5027
 3257TIP3    H131330   5.470   1.632  -0.028 -1.9474 -0.2672 -0.4996
 3257TIP3    H231331   5.423   1.537   0.080 -0.0323  0.0390  0.6448
 3258TIP3   OH231332   5.461   5.104   2.263  0.0707 -0.0983  0.3064
 3258TIP3    H131333   5.469   5.178   2.204  0.3462 -1.2377 -1.1500
 3258TIP3    H231334   5.551   5.079   2.283 -0.0127 -0.3499  0.3761
 3259TIP3   OH231335   5.937   1.840   0.725 -0.3273 -0.1511  0.5242
 3259TIP3    H131336   5.927   1.745   0.724  1.2656 -0.3521 -0.7343
 3259TIP3    H231337   5.979   1.861   0.641  0.4303  1.5262  1.2660
 3260TIP3   OH231338   5.938   1.515   8.225  0.4638  0.3866 -0.1170
 3260TIP3    H131339   5.903   1.471   8.303 -0.1863  1.1683  0.0398
 3260TIP3    H231340   6.033   1.502   8.231  0.3665 -0.1493  0.4368
 3261TIP3   OH231341   0.394   4.185   7.515 -0.4379  0.1629 -0.5237
 3261TIP3    H131342   0.387   4.276   7.486  1.6378  0.1504 -1.2092
 3261TIP3    H231343   0.447   4.143   7.447 -4.3369 -2.5493 -2.3170
 3262TIP3   OH231344   3.128   6.484   0.398 -0.4325 -0.1776  0.0505
 3262TIP3    H131345   3.198   6.460   0.337  1.2569 -0.8517  2.1602
 3262TIP3    H231346   3.094   6.400   0.430 -1.2705  0.1694  0.1087
 3263TIP3   OH231347   6.410   0.710   1.034  0.3624 -0.0908 -0.5854
 3263TIP3    H131348   6.339   0.751   1.084  1.5728  1.1612  0.1861
 3263TIP3    H231349   6.448   0.648   1.096 -0.0328 -0.7484 -0.9941
 3264TIP3   OH231350   3.153   3.280   7.481 -0.1334 -0.3296  0.1363
 3264TIP3    H131351   3.071   3.323   7.507 -0.3944 -0.3645 -0.6046
 3264TIP3    H231352   3.198   3.263   7.563 -0.3626  0.7033  0.4933
 3265TIP3   OH231353   5.260   4.592   0.478 -0.8789 -0.5637  0.8546
 3265TIP3    H131354   5.201   4.589   0.553 -1.8164 -3.7332  0.1369
 3265TIP3    H231355   5.212   4.550   0.407  1.8022 -2.4502 -0.0342
 3266TIP3   OH231356   3.996   2.751   6.350  0.0418  0.0712 -0.0028
 3266TIP3    H131357   4.012   2.786   6.438 -0.2916  0.4692 -0.0964
 3266TIP3    H231358   3.955   2.824   6.303  1.3356  0.2940 -0.8586
 3267TIP3   OH231359   6.654   0.432   1.921  0.8367 -0.1218 -0.2135
 3267TIP3    H131360   6.632   0.522   1.941 -0.0940 -0.4376  0.2393
 3267TIP3    H231361   6.699   0.400   2.000 -2.8433 -1.3704  1.6070
 3268TIP3   OH231362   0.952   2.877   7.385 -0.2498  0.3759  0.7243
 3268TIP3    H131363   0.940   2.801   7.442  0.0601 -1.7043 -1.7870
 3268TIP3    H231364   1.040   2.866   7.349 -1.2279  0.3489 -1.8115
 3269TIP3   OH231365   5.475   5.810   7.484 -0.0483  0.2180  0.4781
 3269TIP3    H131366   5.413   5.749   7.444  0.4061  0.9637 -1.4463
 3269TIP3    H231367   5.532   5.837   7.413  1.5473  0.7398  1.8868
 3270TIP3   OH231368   6.452   4.308   8.267 -0.0778 -0.2505 -0.7427
 3270TIP3    H131369   6.534   4.330   8.309 -0.6259 -0.0527  0.2454
 3270TIP3    H231370   6.472   4.231   8.213  0.6300 -0.5081 -0.1136
 3271TIP3   OH231371   1.526   6.367   0.939  0.3932  0.6965 -0.0869
 3271TIP3    H131372   1.458   6.388   0.875  0.3163  0.8814  0.0532
 3271TIP3    H231373   1.482   6.313   1.005  0.4366  0.6302 -0.1118
 3272TIP3   OH231374   1.699   5.179   0.450  0.3862  0.0041  0.1435
 3272TIP3    H131375   1.606   5.203   0.452  0.2517 -0.5295  0.8035
 3272TIP3    H231376   1.711   5.133   0.367 -0.3560 -1.4762  0.8192
 3273TIP3   OH231377   1.674   1.242   8.288  0.0118  0.2943 -0.5963
 3273TIP3    H131378   1.710   1.201   8.210 -0.2332  0.8552 -1.0105
 3273TIP3    H231379   1.676   1.173   8.354 -0.8671 -0.5471 -1.4108
 3274TIP3   OH231380   1.122   0.158   0.029 -0.2852 -0.1135 -0.0488
 3274TIP3    H131381   1.033   0.194   0.030  0.1269  1.1361 -2.0769
 3274TIP3    H231382   1.179   0.234   0.043  0.5075 -1.0036  1.9949
 3275TIP3   OH231383   0.394   6.107   8.325  0.1445  0.3529  0.1250
 3275TIP3    H131384   0.437   6.083   8.242  5.6375  3.6567  1.4535
 3275TIP3    H231385   0.370   6.199   8.313  0.2742  0.6431  1.8774
 3276TIP3   OH231386   0.788   1.328   7.184 -0.2519  0.8155 -0.3774
 3276TIP3    H131387   0.770   1.260   7.248  1.0701  0.1486 -0.6824
 3276TIP3    H231388   0.727   1.310   7.112 -0.2350  0.2297 -0.2524
 3277TIP3   OH231389   4.344   3.476   0.106 -0.1312  0.2413 -0.3817
 3277TIP3    H131390   4.317   3.418   0.035 -0.3552  1.1208 -1.0294
 3277TIP3    H231391   4.262   3.509   0.142 -0.0995 -1.3821  1.3417
 3278TIP3   OH231392   5.207   4.333   1.171  0.3518 -0.2154 -0.0906
 3278TIP3    H131393   5.121   4.357   1.206  0.5098  2.6175 -1.3017
 3278TIP3    H231394   5.240   4.266   1.230 -2.1782 -0.5252  1.1054
 3279TIP3   OH231395   0.305   6.409   8.197 -0.0150  0.0076  0.6485
 3279TIP3    H131396   0.357   6.450   8.128 -0.5225  0.2135  0.3777
 3279TIP3    H231397   0.242   6.477   8.223  0.1724 -0.0746  1.3097
 3280TIP3   OH231398   3.355   4.442   7.761 -0.2997  0.1522  0.4378
 3280TIP3    H131399   3.449   4.458   7.775 -0.2217 -1.0555  1.4726
 3280TIP3    H231400   3.315   4.460   7.846 -0.9078 -0.0211  0.1901
 3281TIP3   OH231401   4.460   1.168   0.825  0.6278  0.1009 -0.1273
 3281TIP3    H131402   4.457   1.168   0.729 -0.9119  0.6906 -0.1061
 3281TIP3    H231403   4.438   1.078   0.849 -2.5360  0.6957 -0.3350
 3282TIP3   OH231404   3.086   1.255   7.756  0.2493  0.2711 -0.3230
 3282TIP3    H131405   3.143   1.251   7.833 -0.2705 -1.7356  0.0292
 3282TIP3    H231406   3.136   1.209   7.688  0.4970  1.6019 -1.0624
 3283TIP3   OH231407   5.206   1.993   1.102 -0.2786  0.4634  0.2284
 3283TIP3    H131408   5.193   2.035   1.187  0.3987  3.6275 -1.0926
 3283TIP3    H231409   5.118   1.985   1.065 -0.4511  0.4015  0.6555
 3284TIP3   OH231410   5.642   4.072   7.500 -0.3281  0.1633 -0.0030
 3284TIP3    H131411   5.709   4.071   7.431  1.0707  0.8054  1.2809
 3284TIP3    H231412   5.594   4.154   7.486 -1.0360 -0.4233 -1.0869
 3285TIP3   OH231413   0.471   1.926   6.500  0.0028 -0.5370 -0.0704
 3285TIP3    H131414   0.506   1.941   6.412  2.4233 -0.7231  0.7941
 3285TIP3    H231415   0.508   1.996   6.553 -1.6836 -0.2402  0.7765
 3286TIP3   OH231416   1.199   2.483   8.641  0.3728 -0.1019 -0.8792
 3286TIP3    H131417   1.206   2.499   8.735  1.8984  1.2582 -1.1763
 3286TIP3    H231418   1.261   2.412   8.624 -1.0971 -1.5021 -0.6599
 3287TIP3   OH231419   2.721   3.622   7.442 -0.1469  0.2576  0.0989
 3287TIP3    H131420   2.696   3.695   7.385 -0.3280 -0.3279 -0.5853
 3287TIP3    H231421   2.652   3.620   7.509  0.6072  1.5841  0.9483
 3288TIP3   OH231422   6.487   0.620   7.844  0.5574 -0.1336 -0.0008
 3288TIP3    H131423   6.459   0.632   7.753  0.4528 -1.0232 -0.0950
 3288TIP3    H231424   6.417   0.660   7.896  0.2372 -0.3028 -0.2958
 3289TIP3   OH231425   4.724   6.342   1.251 -0.1447  0.1608 -0.1859
 3289TIP3    H131426   4.814   6.343   1.283  0.1269 -0.9853 -0.8761
 3289TIP3    H231427   4.689   6.257   1.281 -0.1205 -0.6210 -2.2337
 3290TIP3   OH231428   0.258   1.073   1.009 -0.0787 -0.1289  0.4442
 3290TIP3    H131429   0.333   1.129   1.029  0.0853 -0.1050 -0.2093
 3290TIP3    H231430   0.261   1.062   0.914  0.0000 -1.3987  0.5770
 3291TIP3   OH231431   1.002   3.046   6.637 -0.2207 -0.5556  0.3316
 3291TIP3    H131432   0.913   3.020   6.614  0.1621 -1.1982 -0.4667
 3291TIP3    H231433   1.031   3.101   6.564  0.0822 -0.4313  0.5402
 3292TIP3   OH231434   2.603   2.173   8.682  0.1124 -0.1895  0.5027
 3292TIP3    H131435   2.623   2.090   8.726 -1.3600 -1.0561 -0.3811
 3292TIP3    H231436   2.646   2.239   8.736  2.0596 -1.5634  0.7651
 3293TIP3   OH231437   4.337   0.084   0.041  0.2292  0.3510 -0.4792
 3293TIP3    H131438   4.320   0.033  -0.038  1.7438 -0.2240 -0.4654
 3293TIP3    H231439   4.285   0.041   0.109  0.2105 -0.1749 -0.8191
 3294TIP3   OH231440   1.661   1.428   0.815  0.7727  0.1242 -0.3423
 3294TIP3    H131441   1.710   1.357   0.856  1.4288  0.5713 -0.3365
 3294TIP3    H231442   1.578   1.431   0.862  1.0949 -0.0700  0.2391
 3295TIP3   OH231443   2.446   5.496   8.449 -0.1864 -0.2019  0.9303
 3295TIP3    H131444   2.468   5.406   8.424  0.1434 -0.1144  0.9087
 3295TIP3    H231445   2.378   5.487   8.516 -0.3960 -0.4599  0.6864
 3296TIP3   OH231446   5.499   3.695   7.969 -0.0781 -0.1278 -0.0739
 3296TIP3    H131447   5.455   3.729   7.891  0.6730 -0.6298 -0.7424
 3296TIP3    H231448   5.578   3.652   7.934  1.2677  1.2555  1.1016
 3297TIP3   OH231449   2.428   6.014   1.366  0.5108 -0.2485  0.0978
 3297TIP3    H131450   2.409   5.922   1.349 -1.0945 -0.0920  0.8615
 3297TIP3    H231451   2.479   6.042   1.290  0.0765 -1.4875 -0.6770
 3298TIP3   OH231452   0.516   3.468   0.653  0.2717 -0.3096 -0.4873
 3298TIP3    H131453   0.555   3.454   0.739  0.0305  0.7177 -0.1945
 3298TIP3    H231454   0.483   3.558   0.655 -3.3572 -1.4554 -0.1798
 3299TIP3   OH231455   4.595   1.317   6.493 -0.0261  0.4665 -0.1838
 3299TIP3    H131456   4.578   1.223   6.483  0.6641  0.4451 -1.4868
 3299TIP3    H231457   4.684   1.328   6.458 -0.6135  1.8008 -1.3469
 3300TIP3   OH231458   0.566   4.865   0.968 -0.9726  0.1737  0.0641
 3300TIP3    H131459   0.533   4.871   0.878 -1.9729  0.6227  0.4381
 3300TIP3    H231460   0.505   4.805   1.011  0.1383 -0.8958  0.1826
 3301TIP3   OH231461   4.462   0.330   8.194  0.5532  0.2579  0.0552
 3301TIP3    H131462   4.512   0.254   8.164  0.2538  0.7096 -1.6724
 3301TIP3    H231463   4.435   0.375   8.114 -0.1922  1.6052  1.0149
 3302TIP3   OH231464   4.377   1.327   0.395  0.6233  0.5917  0.5275
 3302TIP3    H131465   4.326   1.377   0.332 -0.1200 -0.6094  0.1539
 3302TIP3    H231466   4.449   1.386   0.420  0.3674  1.4419 -0.6823
 3303TIP3   OH231467   6.698   0.790   7.677 -0.2332 -0.7984 -0.5176
 3303TIP3    H131468   6.718   0.705   7.638 -2.9042 -1.4592 -0.6718
 3303TIP3    H231469   6.718   0.780   7.770 -1.2409 -1.8901 -0.4002
 3304TIP3   OH231470   4.923   6.393   7.763 -0.2325 -0.3919 -0.0035
 3304TIP3    H131471   4.862   6.418   7.694  0.0265 -1.4611 -0.6451
 3304TIP3    H231472   4.937   6.299   7.750 -1.6667 -1.0887  2.7030
 3305TIP3   OH231473   2.489   5.976   6.893 -0.7773  0.2942 -0.7345
 3305TIP3    H131474   2.476   5.980   6.987 -0.7504  1.6026 -0.7653
 3305TIP3    H231475   2.456   6.060   6.861  0.9085  0.6476 -1.6687
 3306TIP3   OH231476   3.993   2.960   0.764  1.1042  0.1398 -0.0708
 3306TIP3    H131477   4.016   2.899   0.694  1.6455  0.7164 -0.4068
 3306TIP3    H231478   3.982   3.044   0.720  1.9872  0.6234  0.6073
 3307TIP3   OH231479   0.116   0.122   7.519  0.2909  0.2579  0.0637
 3307TIP3    H131480   0.185   0.189   7.516  0.1507  0.4838  1.3368
 3307TIP3    H231481   0.158   0.044   7.483  0.9015  0.6595 -0.1193
 3308TIP3   OH231482   1.352   3.800   0.644 -0.4411  0.5382 -0.5344
 3308TIP3    H131483   1.398   3.853   0.579  3.7827 -2.3606 -0.3234
 3308TIP3    H231484   1.283   3.755   0.594  2.1366 -0.9652 -3.0071
 3309TIP3   OH231485   5.647   1.985   0.997 -0.0032 -0.0527 -0.5519
 3309TIP3    H131486   5.577   1.929   1.030  2.5153 -2.1399  1.7396
 3309TIP3    H231487   5.703   1.926   0.946  0.8073  1.2299 -1.2147
 3310TIP3   OH231488   3.503   5.245   2.563  0.1864  0.0075 -0.5398
 3310TIP3    H131489   3.464   5.317   2.513 -0.8514 -0.6530 -0.7114
 3310TIP3    H231490   3.566   5.287   2.620 -2.3686  1.4751  1.4379
 3311TIP3   OH231491   3.252   6.386   7.900 -0.0677  0.0483 -0.1486
 3311TIP3    H131492   3.299   6.413   7.980 -2.1287 -0.2618  1.2474
 3311TIP3    H231493   3.197   6.314   7.929 -0.7651 -0.1556 -1.9267
 3312TIP3   OH231494   1.500   2.375   0.291  0.5357 -0.4035 -0.1290
 3312TIP3    H131495   1.441   2.302   0.310 -0.7786  0.3133 -1.2723
 3312TIP3    H231496   1.507   2.376   0.196  0.8303  0.7368 -0.1033
 3313TIP3   OH231497   5.116   3.013   2.003  0.4976  0.0146 -0.2537
 3313TIP3    H131498   5.187   2.963   2.043  0.1611 -0.7136 -0.5401
 3313TIP3    H231499   5.092   3.078   2.069  2.2830  1.1543 -0.6402
 3314TIP3   OH231500   1.286   4.857   8.116  0.2301  0.5258 -0.5797
 3314TIP3    H131501   1.235   4.850   8.197 -0.0743 -2.5970 -0.8970
 3314TIP3    H231502   1.274   4.947   8.087 -0.6300  1.4138  2.1931
 3315TIP3   OH231503   5.596   6.101   7.068  0.2253  0.3018 -0.2716
 3315TIP3    H131504   5.587   6.126   7.161 -2.0137  0.1895 -0.3995
 3315TIP3    H231505   5.606   6.184   7.022 -1.3469  0.5841 -0.1486
 3316TIP3   OH231506   3.956   0.226   0.827  0.9920 -0.1977  0.0378
 3316TIP3    H131507   4.029   0.166   0.814  0.9037 -0.4194  0.5144
 3316TIP3    H231508   3.882   0.182   0.786  0.6618 -1.0051  1.4096
 3317TIP3   OH231509   1.727   3.431   7.534 -0.6298 -0.7840 -0.3574
 3317TIP3    H131510   1.635   3.455   7.541 -0.2414  1.7110 -2.3440
 3317TIP3    H231511   1.774   3.498   7.584  0.2203 -0.4664 -1.5247
 3318TIP3   OH231512   5.798   4.790   6.914  1.1621 -0.6142  0.5876
 3318TIP3    H131513   5.704   4.775   6.909  1.2387 -1.0237  0.3046
 3318TIP3    H231514   5.837   4.711   6.877  1.5995 -0.0942 -0.0848
 3319TIP3   OH231515   1.157   0.159   6.915 -0.0156  0.0045  0.4882
 3319TIP3    H131516   1.065   0.138   6.906 -0.3765  1.2292  1.1089
 3319TIP3    H231517   1.160   0.254   6.924  1.1173 -0.1469  2.3345
 3320TIP3   OH231518   2.280   5.813   2.393  0.0389  0.0449 -0.1624
 3320TIP3    H131519   2.327   5.785   2.314 -1.7977 -0.3029 -1.1782
 3320TIP3    H231520   2.207   5.752   2.401  0.9157 -0.8309  2.6474
 3321TIP3   OH231521   4.102   1.086   0.040  0.1062  0.2755 -0.1695
 3321TIP3    H131522   4.176   1.075   0.099 -0.7484 -1.9302  0.6155
 3321TIP3    H231523   4.026   1.096   0.098 -0.7488 -1.9045 -0.8137
 3322TIP3   OH231524   2.507   2.693   1.673  0.5322  0.4392 -0.3718
 3322TIP3    H131525   2.415   2.679   1.695  1.0185 -1.4643  0.6743
 3322TIP3    H231526   2.518   2.651   1.588 -0.1334  3.1429 -1.9141
 3323TIP3   OH231527   1.124   6.327   7.230 -0.0897 -0.0325 -0.2153
 3323TIP3    H131528   1.097   6.243   7.267  0.0333 -1.5835 -3.3320
 3323TIP3    H231529   1.046   6.360   7.186  0.8108 -0.5447 -2.3444
 3324TIP3   OH231530   3.307   6.103   7.601  0.8438  0.2209  0.6739
 3324TIP3    H131531   3.264   6.097   7.686  0.8516  0.8297  0.7305
 3324TIP3    H231532   3.342   6.193   7.599 -1.1622  1.0377 -0.9043
 3325TIP3   OH231533   2.848   3.859   8.525  0.4718  0.5648  0.1248
 3325TIP3    H131534   2.767   3.866   8.575  1.6533 -0.1080  2.2931
 3325TIP3    H231535   2.873   3.949   8.506  0.0334  0.8426  0.8575
 3326TIP3   OH231536   3.280   6.762   7.967 -0.6597 -0.4358  0.3251
 3326TIP3    H131537   3.206   6.710   7.935 -0.7658 -0.8944  1.2774
 3326TIP3    H231538   3.263   6.773   8.060 -1.6248  2.9887 -0.1313
 3327TIP3   OH231539   4.065   6.544   0.343 -0.4589 -0.0164  0.3814
 3327TIP3    H131540   3.971   6.556   0.333 -0.2954  1.0860 -0.0126
 3327TIP3    H231541   4.077   6.450   0.347 -1.5477 -0.1832  0.0423
 3328TIP3   OH231542   6.290   3.020   0.595 -0.7503  0.6622  0.3559
 3328TIP3    H131543   6.367   3.073   0.576 -0.1356 -0.4546 -0.4729
 3328TIP3    H231544   6.322   2.951   0.653 -0.4570 -1.2781 -1.9453
 3329TIP3   OH231545   0.248   0.916   7.587 -0.0374 -0.1876  0.3723
 3329TIP3    H131546   0.195   0.837   7.576 -1.1191  0.4850  0.7131
 3329TIP3    H231547   0.332   0.883   7.621 -0.6292 -1.1409  0.9493
 3330TIP3   OH231548   0.236   0.173   1.007 -0.3621 -0.2356 -0.0400
 3330TIP3    H131549   0.211   0.252   0.958 -1.6723  0.1749  1.2204
 3330TIP3    H231550   0.189   0.102   0.964 -1.5456  0.1293  0.6083
 3331TIP3   OH231551   4.663   4.389   6.730  0.5987 -0.5849 -0.8078
 3331TIP3    H131552   4.659   4.341   6.647  2.4605  0.8888 -1.8157
 3331TIP3    H231553   4.643   4.479   6.707 -1.5406 -0.5678  0.8440
 3332TIP3   OH231554   1.771   1.979   0.222  0.1170 -0.1421 -0.4151
 3332TIP3    H131555   1.694   1.990   0.166  0.1276 -2.6115 -1.0275
 3332TIP3    H231556   1.846   1.998   0.166  0.0284  0.7347 -0.2505
 3333TIP3   OH231557   3.420   6.194   6.181 -0.1618 -0.2129 -0.3315
 3333TIP3    H131558   3.391   6.110   6.145 -0.4329  0.6852 -2.3457
 3333TIP3    H231559   3.344   6.227   6.228 -0.8719 -0.0726 -1.5149
 3334TIP3   OH231560   6.147   6.228   0.419  0.3081  0.2086 -0.2487
 3334TIP3    H131561   6.086   6.284   0.466 -0.6982 -1.3890  0.4130
 3334TIP3    H231562   6.123   6.238   0.327 -0.4355  0.1657 -0.0593
 3335TIP3   OH231563   4.093   4.705   7.689  0.1639  0.3382  0.2174
 3335TIP3    H131564   4.099   4.683   7.782  1.1683  0.6873  0.2474
 3335TIP3    H231565   4.029   4.643   7.654 -0.1336  0.1249  1.1139
 3336TIP3   OH231566   5.800   3.608   0.331 -0.7331  0.5921  0.2995
 3336TIP3    H131567   5.748   3.610   0.250  0.2783  0.3229 -0.3773
 3336TIP3    H231568   5.890   3.600   0.301 -0.3124  0.7948  1.4624
 3337TIP3   OH231569   0.143   0.341   1.534 -0.0597  0.2170 -0.5258
 3337TIP3    H131570   0.140   0.416   1.474  0.4583  1.1809  0.6187
 3337TIP3    H231571   0.160   0.379   1.620 -0.6311 -1.1480  0.2295
 3338TIP3   OH231572   3.283   4.314   2.058 -0.6132  0.2524  0.0390
 3338TIP3    H131573   3.259   4.406   2.058 -0.1953  0.3680 -0.6292
 3338TIP3    H231574   3.260   4.283   2.145 -1.9678  0.6619 -0.1551
 3339TIP3   OH231575   2.487   5.374   0.438  0.4248 -0.2453  0.2507
 3339TIP3    H131576   2.399   5.378   0.401  0.0720 -0.2921  1.0567
 3339TIP3    H231577   2.476   5.401   0.529  0.8407 -2.4561  1.0169
 3340TIP3   OH231578   3.989   1.615   2.387  0.0162 -0.3460 -0.0953
 3340TIP3    H131579   4.000   1.624   2.292  1.7777  0.0628  0.1211
 3340TIP3    H231580   3.933   1.689   2.411  0.5573  0.2673 -0.6649
 3341TIP3   OH231581   1.431   3.315   7.985  0.0491 -0.1720 -0.2339
 3341TIP3    H131582   1.398   3.317   8.075 -2.2393  1.4432 -1.0291
 3341TIP3    H231583   1.360   3.278   7.934  1.4032 -1.2757 -1.3836
 3342TIP3   OH231584   1.066   1.904   0.719  0.0601 -0.2652 -0.1215
 3342TIP3    H131585   1.077   1.945   0.805  1.0489  0.3479 -0.5200
 3342TIP3    H231586   0.976   1.923   0.695 -0.5484 -1.3035  1.1999
 3343TIP3   OH231587   0.099   6.722   8.534  0.0163  0.0153 -0.1221
 3343TIP3    H131588   0.038   6.796   8.536 -1.0680 -0.8854  1.5707
 3343TIP3    H231589   0.055   6.652   8.582  1.4739 -1.4004 -0.7476
 3344TIP3   OH231590   4.653   2.107   7.110 -0.3227  0.2594 -0.7007
 3344TIP3    H131591   4.688   2.075   7.193 -1.7981  0.8433  0.1745
 3344TIP3    H231592   4.617   2.029   7.067 -2.6879  0.4056  0.8192
 3345TIP3   OH231593   3.212   3.066   0.430 -0.3819  0.8692  0.0715
 3345TIP3    H131594   3.180   3.044   0.342 -5.1789 -0.1882  1.7650
 3345TIP3    H231595   3.214   3.162   0.431  2.9529  0.9962 -1.9507
 3346TIP3   OH231596   3.392   6.621   6.928  0.1663  0.0896  0.5215
 3346TIP3    H131597   3.415   6.536   6.965  1.7434  0.4890  0.5291
 3346TIP3    H231598   3.424   6.618   6.838  2.9128  1.6459  1.3398
 3347TIP3   OH231599   5.505   4.597   8.169  0.1322  0.1273 -0.0479
 3347TIP3    H131600   5.571   4.660   8.198  1.3353 -1.7842  1.6176
 3347TIP3    H231601   5.434   4.605   8.233 -0.0861  0.3732 -0.3219
 3348TIP3   OH231602   5.494   5.124   1.357  0.6050  0.3358  0.0273
 3348TIP3    H131603   5.557   5.195   1.344  1.1606 -0.2553 -0.5601
 3348TIP3    H231604   5.431   5.134   1.285 -0.0158  0.9442  0.6301
 3349TIP3   OH231605   3.708   5.637   7.055 -0.3461  0.7025  0.3832
 3349TIP3    H131606   3.766   5.589   6.995 -0.2440 -0.7675  1.5912
 3349TIP3    H231607   3.765   5.702   7.097  0.7877 -1.3959  2.3086
 3350TIP3   OH231608   4.212   6.420   1.408  0.1740 -0.0922 -0.3760
 3350TIP3    H131609   4.240   6.492   1.351  0.0201  1.0975  1.0028
 3350TIP3    H231610   4.119   6.436   1.422 -0.6390 -2.3088 -2.4666
 3351TIP3   OH231611   2.503   3.314   0.506  0.2146  0.0394  0.7360
 3351TIP3    H131612   2.471   3.226   0.528  0.9418 -0.6643 -0.8342
 3351TIP3    H231613   2.539   3.348   0.588  1.7447 -1.9594  0.9680
 3352TIP3   OH231614   5.254   1.638   0.574 -0.0315 -0.2812 -0.3527
 3352TIP3    H131615   5.264   1.674   0.662  1.2895  1.2772 -1.0941
 3352TIP3    H231616   5.316   1.687   0.521 -0.7164 -1.2760 -2.1499
 3353TIP3   OH231617   0.198   4.897   7.659  0.5765 -0.2701 -0.0026
 3353TIP3    H131618   0.243   4.860   7.735  2.4913  0.6364 -0.6184
 3353TIP3    H231619   0.122   4.941   7.695  0.8726 -0.7270  1.2617
 3354TIP3   OH231620   4.602   5.983   1.791  0.0982  0.0247  0.5533
 3354TIP3    H131621   4.603   6.076   1.812  0.6159  0.0704  0.3225
 3354TIP3    H231622   4.527   5.949   1.840 -3.1993  1.4024 -2.9353
 3355TIP3   OH231623   1.561   5.349   5.844  0.3488  0.1520 -0.1252
 3355TIP3    H131624   1.650   5.329   5.815  0.8903  1.3617  0.5890
 3355TIP3    H231625   1.558   5.318   5.935  0.2300  0.6043  0.0287
 3356TIP3   OH231626   1.570   5.966   1.618  0.3307 -0.4212  0.2909
 3356TIP3    H131627   1.503   5.983   1.685  0.5379 -0.3783  0.4888
 3356TIP3    H231628   1.594   5.874   1.631  0.8014 -0.2534  0.6754
 3357TIP3   OH231629   2.230   5.929   7.983 -0.0853 -0.5070  0.4925
 3357TIP3    H131630   2.219   5.999   7.919 -2.2910 -0.3295  1.0087
 3357TIP3    H231631   2.307   5.956   8.034 -0.6654  1.3910  0.4581
 3358TIP3   OH231632   0.671   5.381   1.036  0.4020 -0.2481  0.6236
 3358TIP3    H131633   0.629   5.403   1.119 -0.1000 -0.2997  0.3864
 3358TIP3    H231634   0.754   5.428   1.038 -0.0237  0.5116  0.7452
 3359TIP3   OH231635   4.367   1.676   6.567 -0.5367 -0.2496 -0.6958
 3359TIP3    H131636   4.329   1.755   6.528  0.8543  0.7658 -0.0670
 3359TIP3    H231637   4.293   1.634   6.611 -1.1628  1.1116 -0.3823
 3360TIP3   OH231638   3.924   2.629   2.066 -0.3690 -0.2866  0.2890
 3360TIP3    H131639   3.847   2.682   2.085  0.0709  0.5066 -0.1124
 3360TIP3    H231640   3.892   2.562   2.006 -1.4735 -2.0127  2.6303
 3361TIP3   OH231641   0.079   0.986   1.182  0.0961  0.1491 -0.1288
 3361TIP3    H131642   0.131   1.019   1.109  0.0199 -1.7641 -1.1090
 3361TIP3    H231643   0.134   1.004   1.259  1.7128 -0.7390 -1.0098
 3362TIP3   OH231644   1.361   0.518   7.281 -0.1829 -0.4493 -0.1227
 3362TIP3    H131645   1.281   0.492   7.328 -0.4956  0.0368 -0.3768
 3362TIP3    H231646   1.361   0.614   7.285  0.2751 -0.4408 -0.3166
 3363TIP3   OH231647   3.477   0.069   1.602 -0.0331  0.4714  0.0533
 3363TIP3    H131648   3.418  -0.006   1.591  0.8073 -0.0431 -1.4193
 3363TIP3    H231649   3.465   0.097   1.692 -5.2720  2.8014 -1.0347
 3364TIP3   OH231650   1.606   4.736   7.905 -0.0607 -0.6057 -0.1418
 3364TIP3    H131651   1.557   4.663   7.942  0.1776 -0.5966  0.1998
 3364TIP3    H231652   1.555   4.764   7.830  0.6523 -2.1664 -1.2654
 3365TIP3   OH231653   4.485   5.347   2.332 -0.1255  0.0678 -0.2607
 3365TIP3    H131654   4.457   5.427   2.377  0.9715  0.8752 -0.9376
 3365TIP3    H231655   4.567   5.323   2.375 -0.2146 -0.4263 -0.3662
 3366TIP3   OH231656   4.321   4.982   8.667 -0.3075  0.1431 -0.0680
 3366TIP3    H131657   4.410   4.958   8.643 -0.3179  0.5495 -0.5181
 3366TIP3    H231658   4.330   5.019   8.755 -0.0334  0.1453 -0.0942
 3367TIP3   OH231659   0.469   2.056   1.099 -0.1634 -0.6165 -0.2473
 3367TIP3    H131660   0.480   2.151   1.109  0.5034 -0.7662  0.6146
 3367TIP3    H231661   0.387   2.037   1.143  0.4684 -0.6293  0.9820
 3368TIP3   OH231662   1.971   5.053   1.528 -0.7506 -0.2593  0.5072
 3368TIP3    H131663   1.987   4.978   1.585 -0.8363 -1.6095 -1.1834
 3368TIP3    H231664   2.043   5.051   1.465 -0.2577  1.6311  0.9424
 3369TIP3   OH231665   0.212   5.458   8.678 -0.3384  0.9684 -0.2696
 3369TIP3    H131666   0.245   5.547   8.667  0.8004  0.4623 -1.1126
 3369TIP3    H231667   0.198   5.426   8.589 -0.7424  0.3036  0.0193
 3370TIP3   OH231668   3.257   0.984   7.920  0.4906 -0.0494  0.2706
 3370TIP3    H131669   3.248   0.958   8.012 -1.0679 -0.8078 -0.0496
 3370TIP3    H231670   3.328   0.930   7.886 -0.0198 -0.9769  0.6376
 3371TIP3   OH231671   1.238   6.279   0.041 -0.2017 -0.2106 -0.4162
 3371TIP3    H131672   1.259   6.191   0.072 -1.8141 -1.0262 -1.5119
 3371TIP3    H231673   1.310   6.302  -0.017  0.5213 -0.5453  0.3173
 3372TIP3   OH231674   2.451   6.294   2.287  0.0011 -0.6570  0.1835
 3372TIP3    H131675   2.420   6.214   2.330 -1.0763 -0.6286 -0.4944
 3372TIP3    H231676   2.372   6.331   2.246  0.7116  0.1225 -0.5153
 3373TIP3   OH231677   1.671   5.486   8.640  0.3839 -0.1773  0.5756
 3373TIP3    H131678   1.669   5.565   8.694 -1.1038  0.0179  0.2827
 3373TIP3    H231679   1.586   5.445   8.653  0.5799 -0.9571 -0.4067
 3374TIP3   OH231680   2.652   0.934   6.928 -0.0388  0.1870  0.2433
 3374TIP3    H131681   2.733   0.981   6.945 -0.2294  0.5324  0.1988
 3374TIP3    H231682   2.593   0.999   6.890  1.0331 -0.8889 -3.8081
 3375TIP3   OH231683   4.313   4.894   6.659 -0.1351 -0.2422 -0.1937
 3375TIP3    H131684   4.256   4.948   6.603 -0.7921 -0.9327 -0.2151
 3375TIP3    H231685   4.402   4.919   6.634 -0.4084  1.0698  0.0333
 3376TIP3   OH231686   1.146   6.056   8.428 -0.8515  0.8863 -0.4246
 3376TIP3    H131687   1.224   6.087   8.382 -1.7900  2.8631 -0.7983
 3376TIP3    H231688   1.179   5.992   8.491  1.1045  1.8720 -0.3725
 3377TIP3   OH231689   0.740   3.744   0.720 -1.0554  0.1227 -0.1912
 3377TIP3    H131690   0.725   3.744   0.815  1.1428  1.2169  0.1934
 3377TIP3    H231691   0.789   3.824   0.703 -1.0003 -0.2972 -2.1968
 3378TIP3   OH231692   5.684   5.626   1.944 -0.1420  0.2897  0.0744
 3378TIP3    H131693   5.705   5.711   1.905 -0.6815  0.2550 -0.2975
 3378TIP3    H231694   5.602   5.641   1.990  0.6057  0.3958  1.4356
 3379TIP3   OH231695   6.053   6.483   8.670  0.2284 -0.4137 -0.0735
 3379TIP3    H131696   6.119   6.521   8.612 -0.6046  0.2348 -0.6080
 3379TIP3    H231697   6.013   6.558   8.713  0.2057 -0.8383  0.6616
 3380TIP3   OH231698   5.373   5.937   7.044  0.0337  0.1942  0.4658
 3380TIP3    H131699   5.406   5.853   7.012 -1.0370  0.2029 -0.7115
 3380TIP3    H231700   5.447   5.998   7.031  0.0889 -0.1080 -0.6986
 3381TIP3   OH231701   6.042   3.720   1.122  0.5933 -0.1608  0.1846
 3381TIP3    H131702   6.024   3.801   1.073  1.9532  1.0536  1.6050
 3381TIP3    H231703   5.995   3.730   1.204  1.3126 -0.5000  0.6506
 3382TIP3   OH231704   2.374   5.497   8.144 -0.0602  0.0723 -0.5276
 3382TIP3    H131705   2.421   5.449   8.212 -0.3515 -0.1075 -0.4508
 3382TIP3    H231706   2.287   5.511   8.180 -0.6663 -1.2314 -1.3883
 3383TIP3   OH231707   1.071   4.945   7.279  0.1500 -0.0754  0.2340
 3383TIP3    H131708   1.042   4.917   7.192  0.8311 -2.3070  0.6462
 3383TIP3    H231709   1.165   4.927   7.279  0.4552  1.3999  0.9269
 3384TIP3   OH231710   1.935   2.128   8.405  0.3481  0.3778  0.0581
 3384TIP3    H131711   1.856   2.129   8.351  0.5939 -0.8647 -0.3681
 3384TIP3    H231712   1.904   2.099   8.491  0.2601  0.3972  0.0323
 3385TIP3   OH231713   3.752   4.039   2.198  0.0430 -0.0397 -0.1159
 3385TIP3    H131714   3.789   3.955   2.172 -1.1703 -0.8516  0.7018
 3385TIP3    H231715   3.660   4.021   2.217 -0.4856  1.6578 -0.8018
 3386TIP3   OH231716   3.792   4.490   0.445 -0.3334 -0.6475 -0.2465
 3386TIP3    H131717   3.727   4.557   0.468 -1.4974 -0.9610 -2.3231
 3386TIP3    H231718   3.852   4.535   0.385 -0.7807 -1.2638 -1.1868
 3387TIP3   OH231719   3.228   6.091   6.587  0.6975  0.7973  0.0674
 3387TIP3    H131720   3.319   6.120   6.582  0.5293  1.3138 -0.0383
 3387TIP3    H231721   3.234   5.997   6.603  1.2583  1.1558  2.2945
 3388TIP3   OH231722   0.596   6.008   1.237 -0.3286 -0.2864  0.1697
 3388TIP3    H131723   0.681   5.964   1.234  0.7934  1.7407  0.2451
 3388TIP3    H231724   0.590   6.053   1.153 -0.3068  1.3468  1.0140
 3389TIP3   OH231725   1.329   5.494   8.596  0.5443  0.0060 -0.1223
 3389TIP3    H131726   1.247   5.522   8.638  1.5103 -0.0579  1.8885
 3389TIP3    H231727   1.346   5.407   8.633  1.6782  0.1535 -0.2777
 3390TIP3   OH231728   0.906   2.421   1.672  0.4230 -0.0867 -0.0006
 3390TIP3    H131729   0.932   2.329   1.675 -2.2689 -0.9653 -0.7941
 3390TIP3    H231730   0.894   2.446   1.764 -1.1190 -1.2863  0.1522
 3391TIP3   OH231731   1.385   2.274   6.772  0.3245 -0.1768 -0.0136
 3391TIP3    H131732   1.330   2.322   6.834  0.1583  1.0458 -1.0636
 3391TIP3    H231733   1.472   2.313   6.781  0.4104 -0.3196 -0.2100
 3392TIP3   OH231734   3.156   2.033   0.837 -0.5893 -0.0547  0.5084
 3392TIP3    H131735   3.174   2.119   0.800 -2.0392  0.7282  1.5450
 3392TIP3    H231736   3.197   1.972   0.775 -1.8564  1.2378 -1.7323
 3393TIP3   OH231737   6.085   3.022   1.798  1.0330 -1.0512 -0.2993
 3393TIP3    H131738   5.991   3.009   1.796  0.6450  1.3475 -1.3890
 3393TIP3    H231739   6.104   3.077   1.722  2.3777  3.2831  2.7464
 3394TIP3   OH231740   4.430   3.129   6.552  0.0897 -0.0238  0.4060
 3394TIP3    H131741   4.447   3.223   6.544  0.2049 -0.0901 -0.2484
 3394TIP3    H231742   4.511   3.093   6.586  0.0241  0.1214  0.7183
 3395TIP3   OH231743   5.182   3.921   0.162 -0.2016 -0.1744 -0.1118
 3395TIP3    H131744   5.190   3.826   0.148  1.6891 -0.3628  1.7799
 3395TIP3    H231745   5.129   3.929   0.240 -0.0823  0.3124 -0.0791
 3396TIP3   OH231746   5.148   2.654   2.082  0.1219 -0.2087 -0.3008
 3396TIP3    H131747   5.177   2.665   1.992 -2.2326  0.6123 -1.0229
 3396TIP3    H231748   5.172   2.737   2.125  0.3443 -0.2112 -0.4156
 3397TIP3   OH231749   2.900   1.376   1.849  0.5286 -0.2571 -0.7816
 3397TIP3    H131750   2.861   1.331   1.924 -1.1061  2.1452 -0.0848
 3397TIP3    H231751   2.830   1.377   1.784  1.0357  0.0430 -1.3313
 3398TIP3   OH231752   0.670   1.749   8.633  0.1954  0.3259  0.4600
 3398TIP3    H131753   0.757   1.780   8.611 -0.2278  2.2503  1.2601
 3398TIP3    H231754   0.632   1.722   8.549  1.0622  0.8016 -0.0971
 3399TIP3   OH231755   0.432   5.696   8.250  0.3616  0.6870 -0.0244
 3399TIP3    H131756   0.368   5.624   8.250  1.5719 -0.4226 -0.1130
 3399TIP3    H231757   0.423   5.735   8.163  1.3033 -0.8937 -0.8883
 3400TIP3   OH231758   3.315   5.095   7.181 -0.5896  0.2006 -0.6131
 3400TIP3    H131759   3.333   5.108   7.088  0.4538 -1.3180 -0.6637
 3400TIP3    H231760   3.307   5.000   7.190  2.9176 -0.0769  1.4042
 3401TIP3   OH231761   2.192   3.131   7.391 -0.5531 -0.3396  0.0680
 3401TIP3    H131762   2.209   3.041   7.363 -1.7017 -1.1137  1.7106
 3401TIP3    H231763   2.105   3.128   7.431 -0.1689  1.2700  1.1345
 3402TIP3   OH231764   4.243   6.597   0.055 -0.2585 -0.2167 -0.0120
 3402TIP3    H131765   4.185   6.615   0.129 -0.0475 -1.6187  0.5208
 3402TIP3    H231766   4.230   6.504   0.036  2.3556 -0.7867  0.6099
 3403TIP3   OH231767   1.154   0.607   0.346 -0.6736 -0.4022  0.5155
 3403TIP3    H131768   1.218   0.676   0.326 -0.8713 -0.4202 -0.2147
 3403TIP3    H231769   1.108   0.640   0.423 -1.4366  0.7839 -0.3898
 3404TIP3   OH231770   1.421   5.474   1.086 -0.0938  0.0591  0.2634
 3404TIP3    H131771   1.479   5.433   1.150  1.2089  1.2048 -0.1311
 3404TIP3    H231772   1.390   5.402   1.032 -0.7411 -0.8451  1.7992
 3405TIP3   OH231773   2.109   6.655   6.835 -0.3704  0.6116 -0.4077
 3405TIP3    H131774   2.049   6.583   6.816  0.4634  0.0511 -0.9791
 3405TIP3    H231775   2.128   6.694   6.750 -1.3654  1.9829 -0.0342
 3406TIP3   OH231776   5.280   5.322   6.804  0.4405 -0.2135  0.3367
 3406TIP3    H131777   5.273   5.412   6.836  0.7920 -0.3967  0.9481
 3406TIP3    H231778   5.278   5.330   6.709 -0.3935  0.3648  0.3929
 3407TIP3   OH231779   5.609   5.733   7.235 -0.1125  0.1211 -0.4300
 3407TIP3    H131780   5.683   5.685   7.198  0.9104  1.7703 -0.6123
 3407TIP3    H231781   5.544   5.735   7.165 -0.8520 -2.2440  0.0699
 3408TIP3   OH231782   2.950   3.212   0.547  0.2598  0.0175  0.0095
 3408TIP3    H131783   2.961   3.306   0.537 -1.2105  0.1713 -0.4193
 3408TIP3    H231784   3.008   3.188   0.619  0.4721  1.2873  0.2721
 3409TIP3   OH231785   0.373   2.170   0.581 -0.0048  0.7245 -0.4375
 3409TIP3    H131786   0.307   2.101   0.577  0.0014  0.7178 -0.4236
 3409TIP3    H231787   0.429   2.153   0.505 -0.5084  1.2288 -0.9386
 3410TIP3   OH231788   2.960   6.587   1.625 -0.2466 -0.4092 -0.6368
 3410TIP3    H131789   3.010   6.606   1.546 -3.4066 -2.5926 -3.5003
 3410TIP3    H231790   2.963   6.492   1.634 -0.0129 -0.2370  1.9412
 3411TIP3   OH231791   1.061   1.573   8.420  0.5531 -0.2347  0.0104
 3411TIP3    H131792   0.966   1.568   8.417  0.4628 -0.5650  2.1626
 3411TIP3    H231793   1.090   1.483   8.402  0.5113  0.0108 -1.3664
 3412TIP3   OH231794   4.175   0.237   0.304  0.2429  0.0308  0.1277
 3412TIP3    H131795   4.149   0.291   0.229 -0.9737 -1.6086 -0.6874
 3412TIP3    H231796   4.169   0.147   0.272  2.5376 -0.6307  1.3376
 3413TIP3   OH231797   2.620   2.893   1.494 -0.3911 -0.0767 -0.1430
 3413TIP3    H131798   2.605   2.833   1.421 -0.0268 -0.8229  0.3901
 3413TIP3    H231799   2.581   2.850   1.570  0.3981  0.0729  0.3619
 3414TIP3   OH231800   1.622   3.243   0.772  0.2509  0.7350 -0.1340
 3414TIP3    H131801   1.666   3.211   0.694  0.1695  1.6661 -0.5625
 3414TIP3    H231802   1.609   3.336   0.757  1.1761  1.1612  1.4272
 3415TIP3   OH231803   4.165   3.488   1.077 -0.2446 -0.0207  0.3634
 3415TIP3    H131804   4.180   3.413   1.135  0.6776  0.1930  0.4178
 3415TIP3    H231805   4.138   3.449   0.994  0.8019 -0.4604  0.2080
 3416TIP3   OH231806   2.523   1.988   1.823  0.3728 -0.4119  0.9173
 3416TIP3    H131807   2.595   2.021   1.876  1.4217 -0.8843 -0.1539
 3416TIP3    H231808   2.543   1.895   1.811 -0.9237 -0.7677  1.3794
 3417TIP3   OH231809   0.385   1.592   0.255 -0.1538 -0.0564  0.4009
 3417TIP3    H131810   0.469   1.619   0.217  0.0622  1.2351  1.7202
 3417TIP3    H231811   0.334   1.672   0.260 -1.1319 -0.6647  0.4949
 3418TIP3   OH231812   0.368   2.129   8.574  0.4934  0.0203  0.1224
 3418TIP3    H131813   0.315   2.120   8.495 -1.8056  0.5171  1.5305
 3418TIP3    H231814   0.357   2.220   8.600 -1.0552 -0.7801  2.4856
 3419TIP3   OH231815   5.167   6.153   7.780  0.6996 -0.3603 -0.0559
 3419TIP3    H131816   5.091   6.131   7.726 -0.4188 -3.1712  2.3988
 3419TIP3    H231817   5.242   6.117   7.731 -0.0394 -1.1397 -0.6396
 3420TIP3   OH231818   1.614   5.168   6.428  0.3883  0.2191  0.1019
 3420TIP3    H131819   1.620   5.073   6.422 -0.5946  0.0901  0.9267
 3420TIP3    H231820   1.528   5.189   6.391  0.5016  0.7660  0.1417
 3421TIP3   OH231821   2.426   4.536   8.185 -0.2340 -0.3586  0.7831
 3421TIP3    H131822   2.366   4.553   8.113 -0.0677 -2.4252  0.1234
 3421TIP3    H231823   2.507   4.580   8.159 -1.1937  1.9939  1.4368
 3422TIP3   OH231824   3.352   1.375   0.661  1.1810  0.2510  0.4062
 3422TIP3    H131825   3.368   1.372   0.756  1.0533  1.7291  0.5053
 3422TIP3    H231826   3.440   1.374   0.623  1.2496  0.2041  0.5612
 3423TIP3   OH231827   2.127   4.455   1.330 -0.1729  0.2080 -0.0645
 3423TIP3    H131828   2.037   4.454   1.299  0.1567  1.0166 -1.0891
 3423TIP3    H231829   2.160   4.367   1.313 -1.2535 -0.6208  1.8603
 3424TIP3   OH231830   6.411   3.417   7.369  0.3620 -0.4521  0.2797
 3424TIP3    H131831   6.350   3.346   7.350 -0.9635  0.9278 -0.9259
 3424TIP3    H231832   6.379   3.456   7.450  0.0935 -0.1998  0.0527
 3425TIP3   OH231833   6.752   4.281   0.824  0.2856  0.5576 -0.0998
 3425TIP3    H131834   6.689   4.209   0.814  1.5512 -0.5105 -0.8522
 3425TIP3    H231835   6.709   4.356   0.784  0.6345 -0.8811 -3.5948
 3426TIP3   OH231836   3.663   1.251   1.295 -0.2021 -0.5032  0.1706
 3426TIP3    H131837   3.743   1.253   1.347 -0.4066 -1.4192  0.5361
 3426TIP3    H231838   3.690   1.285   1.210  0.2820  0.3964  0.6717
 3427TIP3   OH231839   3.614   6.334   7.854  0.2770  0.4041 -0.1291
 3427TIP3    H131840   3.551   6.262   7.861 -0.0789  0.6834 -0.4108
 3427TIP3    H231841   3.675   6.306   7.785 -0.0915  0.5410 -0.5127
 3428TIP3   OH231842   2.116   3.529   6.805  0.1778  0.3990 -0.6383
 3428TIP3    H131843   2.209   3.512   6.788  0.2023 -0.9347  0.6823
 3428TIP3    H231844   2.114   3.619   6.837  1.5737 -0.6515  2.8292
 3429TIP3   OH231845   3.645   1.690   7.035 -0.2126  0.1182 -0.3741
 3429TIP3    H131846   3.637   1.692   6.940 -2.8269  0.2079 -0.2311
 3429TIP3    H231847   3.687   1.606   7.054  0.9608  0.3924 -1.5908
 3430TIP3   OH231848   4.849   3.762   6.867  0.1081  0.2661 -0.3229
 3430TIP3    H131849   4.867   3.749   6.960  1.0379  1.2865 -0.3353
 3430TIP3    H231850   4.841   3.674   6.831 -1.3689 -0.1532  0.9078
 3431TIP3   OH231851   1.695   4.407   0.918  0.4660 -0.3171 -0.1422
 3431TIP3    H131852   1.774   4.449   0.953 -0.2904 -0.0173  1.3036
 3431TIP3    H231853   1.672   4.341   0.983 -0.5053 -0.3573 -0.5082
 3432TIP3   OH231854   0.891   5.846   6.230 -0.1919  0.6783  0.4883
 3432TIP3    H131855   0.811   5.837   6.280 -0.6355  0.9600 -0.1473
 3432TIP3    H231856   0.954   5.883   6.292 -0.3901 -0.0484  1.1357
 3433TIP3   OH231857   1.466   0.638   1.202 -0.3917  0.0207  0.7777
 3433TIP3    H131858   1.408   0.664   1.130 -1.2721  1.4371  1.9352
 3433TIP3    H231859   1.411   0.644   1.280  0.7641 -0.6868  1.6827
 3434TIP3   OH231860   6.220   3.089   2.083  0.2203 -0.1323 -0.1448
 3434TIP3    H131861   6.158   3.143   2.132 -1.2945 -2.0240  0.1330
 3434TIP3    H231862   6.178   3.074   1.998  1.9437  1.4816 -1.3505
 3435TIP3   OH231863   2.526   5.187   8.362 -0.2851 -0.0947 -0.4747
 3435TIP3    H131864   2.565   5.104   8.390  0.7164 -0.6974 -3.3291
 3435TIP3    H231865   2.597   5.250   8.364 -0.9481  0.6477  1.2816
 3436TIP3   OH231866   3.744   4.580   1.016  0.2022  0.3484 -0.3262
 3436TIP3    H131867   3.795   4.631   1.079  0.2241  0.1513 -0.1841
 3436TIP3    H231868   3.653   4.591   1.044  0.2835 -0.5193  0.3181
 3437TIP3   OH231869   3.027   4.157   1.278 -0.3524  0.0174  0.5793
 3437TIP3    H131870   3.081   4.236   1.279  0.0063 -0.1977 -0.6199
 3437TIP3    H231871   3.044   4.116   1.363  0.5261  0.5128  0.6581
 3438TIP3   OH231872   6.488   3.470   1.039 -0.8840 -0.0093  0.1932
 3438TIP3    H131873   6.465   3.428   0.956 -1.0574  0.8741 -0.2188
 3438TIP3    H231874   6.570   3.428   1.065 -1.6066 -1.3695  0.3638
 3439TIP3   OH231875   6.414   4.907   8.725  0.4800  0.0920 -0.7301
 3439TIP3    H131876   6.407   4.819   8.689 -1.3431  0.6094 -1.7966
 3439TIP3    H231877   6.332   4.919   8.774  0.9665  0.9794 -0.1076
 3440TIP3   OH231878   2.641   2.521   2.314  0.1784  0.5185  0.3506
 3440TIP3    H131879   2.564   2.528   2.370 -1.2683 -2.0683 -1.1252
 3440TIP3    H231880   2.625   2.584   2.244 -0.9213 -0.3831 -0.2399
 3441TIP3   OH231881   4.187   4.956   7.964 -0.1085 -0.2649 -0.4635
 3441TIP3    H131882   4.204   4.865   7.940 -1.2608 -1.2456  2.1204
 3441TIP3    H231883   4.267   4.985   8.008 -0.7231 -1.0331  1.2532
 3442TIP3   OH231884   3.668   1.116   6.546  0.0713  0.0308 -0.4195
 3442TIP3    H131885   3.759   1.103   6.573 -0.2760 -0.4679  0.5604
 3442TIP3    H231886   3.664   1.083   6.457  0.3518 -2.0755  0.2956
 3443TIP3   OH231887   1.372   0.117   8.435 -0.0661  0.3287 -0.0978
 3443TIP3    H131888   1.364   0.187   8.371 -2.2233  1.6892  1.5014
 3443TIP3    H231889   1.419   0.157   8.509 -0.0356 -0.3591  0.2677
 3444TIP3   OH231890   3.659   5.072   1.358 -0.1185  0.0370 -0.4839
 3444TIP3    H131891   3.629   5.084   1.268 -0.6736 -0.7335 -0.4084
 3444TIP3    H231892   3.689   5.159   1.385  0.3054  0.2124 -1.4970
 3445TIP3   OH231893   6.566   3.770   7.966  0.5365 -0.5669  0.2809
 3445TIP3    H131894   6.476   3.771   7.936  0.3172  1.0328  0.8671
 3445TIP3    H231895   6.604   3.851   7.931  2.0468 -1.6604 -0.7699
 3446TIP3   OH231896   5.262   1.554   0.145 -0.7410 -0.3797  0.5214
 3446TIP3    H131897   5.223   1.615   0.208 -2.1405  1.1466 -1.6984
 3446TIP3    H231898   5.192   1.492   0.125 -0.9068  0.2065 -0.8018
 3447TIP3   OH231899   4.543   4.556   8.583  0.2824 -0.2756  0.8574
 3447TIP3    H131900   4.510   4.566   8.672 -1.0825 -1.0828  0.4696
 3447TIP3    H231901   4.585   4.470   8.581 -0.3833 -0.6015  0.5299
 3448TIP3   OH231902   4.712   1.295   0.632  0.4722 -0.1865  0.0565
 3448TIP3    H131903   4.691   1.363   0.568 -1.0140 -0.1655  0.5335
 3448TIP3    H231904   4.637   1.236   0.630  0.7153 -0.5684  1.2866
 3449TIP3   OH231905   0.447   4.981   1.652 -0.3223  0.4290  0.0542
 3449TIP3    H131906   0.454   4.945   1.741 -0.2894  0.7929  0.1995
 3449TIP3    H231907   0.380   5.049   1.659 -0.6975  0.1031 -0.3187
 3450TIP3   OH231908   6.759   1.432   7.417 -0.1673 -0.3012  0.1049
 3450TIP3    H131909   6.726   1.384   7.492 -0.4050  0.0800  0.2484
 3450TIP3    H231910   6.738   1.524   7.436 -0.4345 -0.2261 -0.5335
 3451TIP3   OH231911   2.061   6.768   1.508  0.1070 -0.0281 -0.5058
 3451TIP3    H131912   1.987   6.707   1.502  0.4081 -0.8275  2.2657
 3451TIP3    H231913   2.036   6.829   1.577  2.3289 -0.8656  1.1646
 3452TIP3   OH231914   5.191   0.793   0.290  0.3365  0.0216 -1.2332
 3452TIP3    H131915   5.220   0.883   0.283  2.2535 -0.1359  2.2979
 3452TIP3    H231916   5.096   0.799   0.298  0.5425  1.9554  0.6082
 3453TIP3   OH231917   5.274   2.673   1.128  0.0298 -0.2936 -0.5852
 3453TIP3    H131918   5.342   2.735   1.102  0.8205 -0.7128  0.4242
 3453TIP3    H231919   5.246   2.702   1.215  0.0364 -1.0486 -0.3243
 3454TIP3   OH231920   6.408   5.687   1.415  0.2258 -1.0319  0.2381
 3454TIP3    H131921   6.458   5.764   1.444 -0.1273 -0.2107 -1.2578
 3454TIP3    H231922   6.450   5.661   1.333 -0.7888 -1.3129 -0.2076
 3455TIP3   OH231923   1.126   2.950   7.975 -0.2770 -0.4094 -0.1392
 3455TIP3    H131924   1.074   2.893   8.032 -1.1487 -0.2986 -0.8123
 3455TIP3    H231925   1.211   2.956   8.019 -0.5198 -1.3554  0.4955
 3456TIP3   OH231926   6.286   5.955   8.597  0.7788 -0.0213  0.4936
 3456TIP3    H131927   6.311   6.047   8.603  1.4518 -0.1445 -0.1938
 3456TIP3    H231928   6.244   5.936   8.680  0.7578  0.8711  0.6976
 3457TIP3   OH231929   4.231   4.948   1.490 -0.1367 -0.8928 -0.2885
 3457TIP3    H131930   4.265   4.882   1.429 -2.5708 -3.5040  0.9448
 3457TIP3    H231931   4.274   4.928   1.573  0.9614  0.7590 -0.4235
 3458TIP3   OH231932   2.441   3.642   0.736  0.0305 -0.3595  0.4228
 3458TIP3    H131933   2.366   3.600   0.694 -0.0168  0.3275 -0.2017
 3458TIP3    H231934   2.509   3.574   0.736 -0.1683 -0.5636 -0.2194
 3459TIP3   OH231935   3.529   2.245   6.427  0.7726  0.0566 -0.4915
 3459TIP3    H131936   3.585   2.308   6.382 -0.4857  2.1048  0.6387
 3459TIP3    H231937   3.561   2.245   6.517 -1.3678  1.8631  0.3826
 3460TIP3   OH231938   6.657   3.876   2.320 -0.4856  0.6832 -0.2912
 3460TIP3    H131939   6.619   3.854   2.235 -3.6067  1.6331  0.7238
 3460TIP3    H231940   6.746   3.906   2.300 -0.5194 -0.7320 -2.9835
 3461TIP3   OH231941   6.839   6.390   8.085 -0.0959 -0.1174 -0.3563
 3461TIP3    H131942   6.844   6.330   8.010  0.8063  0.3043 -0.6481
 3461TIP3    H231943   6.842   6.477   8.046 -1.1067  0.1303  0.0911
 3462TIP3   OH231944   2.669   6.189   0.048 -0.3979  0.2879 -0.2521
 3462TIP3    H131945   2.717   6.207   0.129  0.8408  1.4522 -1.2106
 3462TIP3    H231946   2.711   6.113   0.011 -0.5973  0.1024 -0.1033
 3463TIP3   OH231947   6.818   0.650   7.136 -0.3497 -0.2961 -0.2861
 3463TIP3    H131948   6.840   0.674   7.046 -1.2784 -0.3006 -0.5157
 3463TIP3    H231949   6.807   0.733   7.182 -1.4138 -0.2729 -0.5597
 3464TIP3   OH231950   1.705   3.535   8.566 -0.3310  0.1270  0.4310
 3464TIP3    H131951   1.771   3.588   8.522 -0.2269 -1.1971 -1.0960
 3464TIP3    H231952   1.622   3.563   8.528 -0.1924 -1.4095 -1.1168
 3465TIP3   OH231953   1.217   4.408   7.463 -0.5330 -0.8156 -0.3963
 3465TIP3    H131954   1.220   4.374   7.373 -0.4534  0.0312 -0.7293
 3465TIP3    H231955   1.127   4.439   7.474 -0.0389  0.9188 -0.9138
 3466TIP3   OH231956   4.203   0.656   8.088 -0.3262  0.0335  0.3549
 3466TIP3    H131957   4.281   0.667   8.143 -0.2049  0.4145  0.1136
 3466TIP3    H231958   4.226   0.699   8.006 -1.2975  1.4196  0.7666
 3467TIP3   OH231959   1.706   6.216   7.167 -0.3771  0.0372  0.6464
 3467TIP3    H131960   1.639   6.284   7.160 -0.0680  0.1685 -1.8341
 3467TIP3    H231961   1.786   6.263   7.191 -0.6202  0.2350  1.0801
 3468TIP3   OH231962   3.046   0.447   1.376  0.4755 -0.0592 -0.7319
 3468TIP3    H131963   2.972   0.476   1.429  0.5272 -0.0279 -0.6773
 3468TIP3    H231964   3.108   0.520   1.379  0.7406 -0.2959 -0.3412
 3469TIP3   OH231965   2.468   3.690   8.484  0.2290  0.1372  0.5893
 3469TIP3    H131966   2.534   3.708   8.552  3.4594  0.0961 -2.2409
 3469TIP3    H231967   2.511   3.716   8.402 -1.5997 -3.9377 -1.9617
 3470TIP3   OH231968   3.797   1.715   3.550 -0.0422 -0.4247 -0.2625
 3470TIP3    H131969   3.705   1.697   3.534 -0.4621  1.4073 -0.1473
 3470TIP3    H231970   3.830   1.752   3.468  0.8445 -1.8690 -0.5930
 3471TIP3   OH231971   2.323   0.160   8.360  0.2668 -0.5511  0.4272
 3471TIP3    H131972   2.357   0.086   8.310  0.1192 -1.5208  1.7075
 3471TIP3    H231973   2.397   0.220   8.368  0.6249 -0.9408  0.0649
 3472TIP3   OH231974   5.664   5.019   0.186 -0.0670  0.3127 -0.6788
 3472TIP3    H131975   5.683   5.081   0.116  0.0436 -1.2737 -2.1374
 3472TIP3    H231976   5.578   5.045   0.219  0.6637  2.1715 -0.1422
 3473TIP3   OH231977   6.377   6.596   7.042 -0.4124 -1.0291  0.2676
 3473TIP3    H131978   6.424   6.540   7.105 -1.2880  1.2409  3.1501
 3473TIP3    H231979   6.285   6.588   7.067 -0.4612  2.9528  2.1183
 3474TIP3   OH231980   4.131   4.366   0.437 -0.4362  0.3708  0.1423
 3474TIP3    H131981   4.195   4.327   0.378 -0.1307  1.0731  0.0089
 3474TIP3    H231982   4.080   4.425   0.382 -1.3228 -0.2964  0.2057
 3475TIP3   OH231983   1.361   3.872   0.913 -0.3419 -0.3187  0.5923
 3475TIP3    H131984   1.267   3.864   0.930 -0.3768 -1.7518 -0.1552
 3475TIP3    H231985   1.371   3.848   0.821  0.5424  1.7292  0.0980
 3476TIP3   OH231986   0.302   5.726   8.724  0.1303  0.3160 -0.3324
 3476TIP3    H131987   0.245   5.790   8.683 -0.8091 -0.8131 -0.8535
 3476TIP3    H231988   0.270   5.718   8.814  1.1275  1.5571  0.1651
 3477TIP3   OH231989   0.767   2.411   7.705 -0.0488  0.6050 -0.0622
 3477TIP3    H131990   0.754   2.505   7.690 -0.0100  0.4990 -0.7631
 3477TIP3    H231991   0.774   2.373   7.618 -1.8492 -0.3108  0.1436
 3478TIP3   OH231992   5.825   6.040   7.841 -0.3333 -0.0353  0.4951
 3478TIP3    H131993   5.740   6.084   7.844  0.0050  0.6027  0.9244
 3478TIP3    H231994   5.823   5.988   7.760 -1.4204 -0.6334  0.8895
 3479TIP3   OH231995   2.829   3.262   1.162  0.2886  0.1933 -0.1515
 3479TIP3    H131996   2.769   3.314   1.109 -1.2629 -0.9742  0.3853
 3479TIP3    H231997   2.773   3.219   1.226  1.4678 -2.1053 -0.5468
 3480TIP3   OH231998   2.679   3.864   0.224  0.3137  0.6764 -0.0192
 3480TIP3    H131999   2.639   3.947   0.250 -0.9604  0.1584 -0.2474
 3480TIP3    H232000   2.670   3.808   0.300 -0.2497  0.2661 -0.3782
 3481TIP3   OH232001   2.945   0.160   1.909  0.0598  0.1222  0.4437
 3481TIP3    H132002   2.940   0.077   1.955  0.1847  0.4910  1.1302
 3481TIP3    H232003   2.993   0.218   1.968  1.9145  0.0897 -0.9339
 3482TIP3   OH232004   2.047   0.070   0.777 -0.7579 -0.2494 -0.0889
 3482TIP3    H132005   1.958   0.098   0.756 -0.7957 -0.0097  0.3861
 3482TIP3    H232006   2.102   0.145   0.755 -0.7726 -0.0797  0.4235
 3483TIP3   OH232007   4.298   4.935   0.916 -0.2086 -0.3003  0.0672
 3483TIP3    H132008   4.232   4.998   0.942 -0.2668 -0.2015 -0.3190
 3483TIP3    H232009   4.375   4.957   0.969 -1.1371 -1.8112  2.1854
 3484TIP3   OH232010   0.585   4.232   1.363 -0.7436 -0.4781 -0.2852
 3484TIP3    H132011   0.578   4.230   1.267 -0.7767  1.6007 -0.3760
 3484TIP3    H232012   0.507   4.279   1.392 -1.4461 -2.2602  0.9225
 3485TIP3   OH232013   2.674   5.349   1.276 -0.7065  0.4031 -0.1122
 3485TIP3    H132014   2.769   5.337   1.274 -0.7340  0.1451  0.1962
 3485TIP3    H232015   2.644   5.317   1.191 -0.5940 -0.1603  0.0600
 3486TIP3   OH232016   1.247   1.809   7.529 -0.0503  0.0492 -0.3917
 3486TIP3    H132017   1.315   1.870   7.560 -2.9203  3.1246  0.4762
 3486TIP3    H232018   1.266   1.798   7.436 -0.1790  3.6762 -0.9901
 3487TIP3   OH232019   0.295   6.273   0.562 -0.1919 -0.3272 -0.0370
 3487TIP3    H132020   0.348   6.221   0.502 -0.6306  0.1800 -0.8749
 3487TIP3    H232021   0.217   6.297   0.512  0.0890  1.3041  0.2379
 3488TIP3   OH232022   4.517   0.795   7.124  0.2249 -0.0612  0.0438
 3488TIP3    H132023   4.542   0.713   7.082  1.8947  1.6487 -2.6619
 3488TIP3    H232024   4.599   0.844   7.133 -0.9649  2.4071 -1.1898
 3489TIP3   OH232025   1.886   6.683   1.844 -0.4103 -0.1119 -0.2551
 3489TIP3    H132026   1.875   6.597   1.886  0.6390  0.2946  0.9357
 3489TIP3    H232027   1.847   6.745   1.906 -1.7619  0.2374 -1.4145
 3490TIP3   OH232028   6.264   1.581   0.699 -0.1299  0.5611  0.1614
 3490TIP3    H132029   6.247   1.490   0.720  1.3629  0.5265  1.4466
 3490TIP3    H232030   6.355   1.582   0.669 -0.4075  1.5097 -0.7269
 3491TIP3   OH232031   5.023   2.876   1.783  0.0621  0.0515  0.3698
 3491TIP3    H132032   5.035   2.934   1.858  0.8042  2.2990 -1.3598
 3491TIP3    H232033   5.108   2.833   1.773 -0.0869 -0.3723  0.8885
 3492TIP3   OH232034   1.801   1.488   6.314 -0.3340 -0.4304 -0.2516
 3492TIP3    H132035   1.878   1.454   6.269 -0.7103  0.4208 -1.6091
 3492TIP3    H232036   1.727   1.454   6.264 -0.7518  0.9445 -0.6108
 3493TIP3   OH232037   0.157   6.814   1.736  0.5747 -0.1591 -0.2735
 3493TIP3    H132038   0.164   6.726   1.774 -0.1356  0.3156  0.9951
 3493TIP3    H232039   0.212   6.810   1.657  0.8316 -1.6319 -0.0527
 3494TIP3   OH232040   6.288   5.443   2.095 -0.0923  0.2119  0.7148
 3494TIP3    H132041   6.315   5.495   2.170  0.5815  1.1036 -0.1195
 3494TIP3    H232042   6.370   5.410   2.058 -0.5111 -2.3078  1.7631
 3495TIP3   OH232043   0.577   5.598   2.288 -0.0808 -0.2294  0.6013
 3495TIP3    H132044   0.627   5.517   2.297  0.5744  0.3600  3.1040
 3495TIP3    H232045   0.643   5.667   2.284 -0.6276  0.4297  2.2053
 3496TIP3   OH232046   1.388   6.431   0.724 -0.2715 -0.4366 -0.2667
 3496TIP3    H132047   1.401   6.451   0.632  0.5172  0.1111 -0.0452
 3496TIP3    H232048   1.333   6.503   0.757 -1.8372 -1.4168 -0.6277
 3497TIP3   OH232049   0.858   2.271   7.054  0.3708  0.8877  0.2524
 3497TIP3    H132050   0.935   2.310   7.094  0.7993 -0.1214  0.4602
 3497TIP3    H232051   0.885   2.249   6.965 -0.0878  1.6957 -0.0954
 3498TIP3   OH232052   0.066   5.358   7.346 -0.2784  0.5401  0.2165
 3498TIP3    H132053   0.136   5.415   7.378  1.1163  0.4749 -2.3980
 3498TIP3    H232054   0.079   5.275   7.391  0.0666  1.1152  1.2126
 3499TIP3   OH232055   3.098   5.548   6.762 -0.4295  0.0158  0.3748
 3499TIP3    H132056   3.072   5.639   6.774 -0.0237  0.6645 -2.7465
 3499TIP3    H232057   3.180   5.553   6.712 -0.8384 -2.0543 -0.6018
 3500TIP3   OH232058   3.394   0.107   2.397  0.0097  0.5869 -0.0050
 3500TIP3    H132059   3.449   0.064   2.331 -1.6049 -1.2030 -0.2830
 3500TIP3    H232060   3.308   0.113   2.356 -0.8648  0.0704  1.6563
 3501TIP3   OH232061   1.384   0.921   7.036  0.0646  0.0201 -0.7421
 3501TIP3    H132062   1.430   0.964   6.964 -0.4966  2.0815  0.0655
 3501TIP3    H232063   1.451   0.906   7.102  0.6301 -2.0864 -1.6989
 3502TIP3   OH232064   1.849   6.201   1.346  0.1327  0.2999 -0.4639
 3502TIP3    H132065   1.914   6.131   1.349 -0.0899  0.0988  1.8142
 3502TIP3    H232066   1.781   6.169   1.288  1.8243  0.3557 -2.5938
 3503TIP3   OH232067   1.574   0.818   7.943 -0.5392 -0.0775 -0.5429
 3503TIP3    H132068   1.565   0.729   7.911 -0.7144 -1.2104  2.3400
 3503TIP3    H232069   1.505   0.827   8.009  0.2126  1.7799  0.0633
 3504TIP3   OH232070   6.186   5.291   0.585  0.4416  0.8166 -0.0900
 3504TIP3    H132071   6.237   5.298   0.665  0.0003  0.7884  0.1974
 3504TIP3    H232072   6.209   5.370   0.535 -0.9743  2.0323  1.0686
 3505TIP3   OH232073   3.906   2.146   0.718  0.0776 -0.1785  0.1353
 3505TIP3    H132074   3.851   2.199   0.660  1.1434  0.9865  0.1519
 3505TIP3    H232075   3.985   2.199   0.732 -0.0746 -0.4561  2.5289
 3506TIP3   OH232076   2.306   1.227   1.251  0.0701 -0.0462  0.2382
 3506TIP3    H132077   2.381   1.219   1.191  0.7736 -0.7530  1.1796
 3506TIP3    H232078   2.230   1.204   1.198  0.5587  0.2859 -0.6290
 3507TIP3   OH232079   3.356   4.249   7.545  0.4008  0.7756  1.1420
 3507TIP3    H132080   3.338   4.330   7.593 -1.3525  0.3612  1.2708
 3507TIP3    H232081   3.313   4.181   7.597  1.6518 -0.2238  0.9156
 3508TIP3   OH232082   1.807   4.818   8.633  0.0690 -0.0002 -0.1377
 3508TIP3    H132083   1.729   4.763   8.631 -1.0669  1.5090 -2.5389
 3508TIP3    H232084   1.820   4.838   8.725 -2.2187 -0.5181  0.3610
 3509TIP3   OH232085   0.958   2.550   7.470 -0.3249  0.6934  0.0963
 3509TIP3    H132086   1.004   2.587   7.394  1.9769  0.5440  1.3270
 3509TIP3    H232087   1.015   2.570   7.544 -0.4444 -2.6805  1.2516
 3510TIP3   OH232088   0.348   1.227   7.358  0.1699 -0.3563  0.6625
 3510TIP3    H132089   0.375   1.310   7.319  0.6001 -0.2178  1.2374
 3510TIP3    H232090   0.255   1.219   7.336  0.6961 -0.9514 -1.5471
 3511TIP3   OH232091   4.904   2.329   0.343  0.6703 -0.0342  0.5408
 3511TIP3    H132092   4.824   2.364   0.383 -0.7300 -0.0742 -1.9978
 3511TIP3    H232093   4.953   2.407   0.316  0.2916  0.0011 -0.0631
 3512TIP3   OH232094   3.867   0.102   7.750  0.4021 -0.2666  0.0429
 3512TIP3    H132095   3.896   0.015   7.723  1.8960 -0.2017  1.2757
 3512TIP3    H232096   3.939   0.136   7.804 -0.6817  1.2141  0.6448
 3513TIP3   OH232097   4.378   0.822   7.612 -0.0499  0.1854 -0.2675
 3513TIP3    H132098   4.416   0.770   7.542 -1.9596 -0.9468 -0.5288
 3513TIP3    H232099   4.358   0.906   7.572 -0.7000 -0.2957 -0.9797
 3514TIP3   OH232100   3.160   4.185   2.274  0.0819 -0.1486 -1.2292
 3514TIP3    H132101   3.137   4.104   2.321  1.5391 -0.2447 -0.6189
 3514TIP3    H232102   3.096   4.190   2.203 -1.6825 -0.4339  0.2670
 3515TIP3   OH232103   5.775   3.360   7.176  0.4913  0.5109  0.1349
 3515TIP3    H132104   5.695   3.315   7.149  1.5861  0.0571 -2.7669
 3515TIP3    H232105   5.771   3.445   7.132  1.2164  0.8188  0.6406
 3516TIP3   OH232106   1.269   2.450   8.279  0.8226 -1.0437  0.1923
 3516TIP3    H132107   1.204   2.382   8.299 -0.8553  0.5039  0.3196
 3516TIP3    H232108   1.260   2.514   8.350  1.7556 -0.2779 -0.3423
 3517TIP3   OH232109   2.448   2.302   0.308 -0.2234 -0.1896  0.1438
 3517TIP3    H132110   2.497   2.219   0.312  1.0097  0.5203  0.3080
 3517TIP3    H232111   2.396   2.302   0.388  0.1561 -0.5811  0.3998
 3518TIP3   OH232112   0.607   0.170   0.903  0.0300  0.1102  0.0011
 3518TIP3    H132113   0.594   0.077   0.921 -0.0746 -0.5303 -2.8680
 3518TIP3    H232114   0.532   0.195   0.849  0.5909  1.5809 -0.1568
 3519TIP3   OH232115   0.613   3.878   8.421 -0.1304 -0.4107 -0.2352
 3519TIP3    H132116   0.656   3.811   8.369  2.1001  0.6012  0.1741
 3519TIP3    H232117   0.654   3.872   8.507  0.9815  2.1679 -0.4954
 3520TIP3   OH232118   0.665   4.641   7.547 -0.3357  0.0035  0.1313
 3520TIP3    H132119   0.593   4.584   7.575 -1.0022  0.7386 -0.0432
 3520TIP3    H232120   0.623   4.706   7.490  0.3702  0.7995  0.5015
 3521TIP3   OH232121   4.448   4.191   1.793 -0.7816 -0.0924  0.1156
 3521TIP3    H132122   4.435   4.100   1.821  1.8612 -0.0311  1.9990
 3521TIP3    H232123   4.371   4.237   1.825 -2.2385 -1.6263 -0.9713
 3522TIP3   OH232124   3.790   5.459   1.498  0.3057 -0.0948  0.1216
 3522TIP3    H132125   3.702   5.426   1.479  0.6869 -1.7140  0.9308
 3522TIP3    H232126   3.786   5.490   1.588  0.8704 -1.4652  0.6464
 3523TIP3   OH232127   2.467   4.201   8.022  0.6048  0.4685  0.4562
 3523TIP3    H132128   2.541   4.145   8.045  1.5019  1.8140  0.9566
 3523TIP3    H232129   2.392   4.158   8.061  1.1288 -0.8212  0.1196
 3524TIP3   OH232130   0.277   4.519   7.050  0.5692  0.2889  0.4439
 3524TIP3    H132131   0.290   4.449   6.987 -2.2359  0.6579 -0.6813
 3524TIP3    H232132   0.345   4.583   7.029  1.2508 -0.7159 -0.5059
 3525TIP3   OH232133   3.384   3.090   1.083  0.0095  0.1371 -0.1142
 3525TIP3    H132134   3.338   3.165   1.121 -0.8345  0.1742 -1.1682
 3525TIP3    H232135   3.472   3.093   1.122 -0.5641  0.6321  1.1975
 3526TIP3   OH232136   0.929   1.114   2.275 -0.1494  0.0433  0.2174
 3526TIP3    H132137   0.880   1.180   2.323 -0.9567 -1.0207  0.9202
 3526TIP3    H232138   1.010   1.102   2.324 -0.9514 -1.0073  1.3372
 3527TIP3   OH232139   3.563   4.929   6.842  0.3979 -0.1239  0.0153
 3527TIP3    H132140   3.522   4.985   6.776  0.6354  0.6662  0.5201
 3527TIP3    H232141   3.493   4.911   6.905  0.8874  1.6156  1.1299
 3528TIP3   OH232142   5.583   4.733   7.217  0.3604  0.1856 -0.9682
 3528TIP3    H132143   5.557   4.710   7.306  0.2001  0.2426 -1.0005
 3528TIP3    H232144   5.677   4.753   7.224  0.1388  1.1733 -0.6155
 3529TIP3   OH232145   5.794   0.952   7.613 -0.4098 -0.1417  0.1020
 3529TIP3    H132146   5.760   0.908   7.536 -0.3174 -2.1957  1.1708
 3529TIP3    H232147   5.732   1.022   7.630  0.6128  1.6912 -2.9235
 3530TIP3   OH232148   6.483   5.224   0.165  0.2541 -0.1687 -0.0162
 3530TIP3    H132149   6.438   5.174   0.234 -0.1578 -0.4285 -0.4648
 3530TIP3    H232150   6.427   5.213   0.088  1.4052 -0.9815 -0.7476
 3531TIP3   OH232151   6.268   4.226   8.450 -0.8816  0.1619 -0.0329
 3531TIP3    H132152   6.315   4.264   8.377 -0.6429  0.5391  0.3122
 3531TIP3    H232153   6.335   4.179   8.500 -1.4055 -1.9759 -1.2412
 3532TIP3   OH232154   2.349   4.749   6.945  0.0279 -0.0342 -0.5982
 3532TIP3    H132155   2.398   4.667   6.950  0.3688  0.1494 -0.8477
 3532TIP3    H232156   2.281   4.740   7.011  1.2629  0.2577  0.7806
 3533TIP3   OH232157   5.366   6.474   0.028  0.3537  0.5294 -0.0280
 3533TIP3    H132158   5.295   6.537   0.041  1.8901  2.2671  0.4525
 3533TIP3    H232159   5.445   6.528   0.030  2.0773 -1.7468  3.8981
 3534TIP3   OH232160   1.808   4.232   6.660  0.2502  0.2265  0.0833
 3534TIP3    H132161   1.812   4.274   6.574 -0.4299 -0.2634 -0.2033
 3534TIP3    H232162   1.805   4.138   6.640  0.0866  0.1103  0.6413
 3535TIP3   OH232163   2.304   6.696   8.368  0.1740  0.5960 -0.4783
 3535TIP3    H132164   2.380   6.639   8.363 -0.1131  0.1712 -0.1337
 3535TIP3    H232165   2.301   6.723   8.460 -0.7301 -0.3007 -0.2247
 3536TIP3   OH232166   2.084   0.090   7.028  0.2846 -0.0370 -0.3580
 3536TIP3    H132167   2.161   0.093   6.971  0.5275  0.0622 -0.0244
 3536TIP3    H232168   2.010   0.092   6.968  0.5431 -0.2619 -0.6878
 3537TIP3   OH232169   3.316   3.615   8.621  0.6787 -0.2815 -0.3596
 3537TIP3    H132170   3.300   3.527   8.589 -1.1817 -1.3952  3.0545
 3537TIP3    H232171   3.245   3.668   8.583  0.1917 -0.9023 -0.3393
 3538TIP3   OH232172   1.981   6.485   6.651  0.1590  0.6036 -0.4829
 3538TIP3    H132173   2.017   6.519   6.569  2.5637  0.7688  0.5323
 3538TIP3    H232174   2.008   6.393   6.653 -0.9835  0.2639 -0.4413
 3539TIP3   OH232175   6.141   5.720   8.533 -0.0618  0.1208  0.5345
 3539TIP3    H132176   6.095   5.642   8.564 -0.2219 -0.7329 -1.6696
 3539TIP3    H232177   6.075   5.789   8.532 -0.9741 -0.7076 -1.1025
 3540TIP3   OH232178   1.729   6.813   8.493  0.2109  0.0950  0.7312
 3540TIP3    H132179   1.769   6.747   8.549 -0.4207 -0.5226  0.4645
 3540TIP3    H232180   1.657   6.768   8.450 -0.0967  0.9012  0.3800
 3541TIP3   OH232181   2.927   5.464   7.621 -0.1237  0.4801  0.6702
 3541TIP3    H132182   3.019   5.479   7.600  0.2119 -0.7637  1.1680
 3541TIP3    H232183   2.879   5.513   7.554  0.8741  1.7352  0.8148
 3542TIP3   OH232184   0.903   0.245   7.619  0.1339 -0.4462  0.2300
 3542TIP3    H132185   0.905   0.158   7.581 -1.9211 -0.6684  0.5188
 3542TIP3    H232186   0.827   0.245   7.677 -0.0979  1.5977  0.0324
 3543TIP3   OH232187   2.593   3.569   6.275 -0.3816 -0.3195 -0.1946
 3543TIP3    H132188   2.608   3.502   6.341 -1.1611  0.1723  0.4989
 3543TIP3    H232189   2.675   3.572   6.225 -0.5682 -2.2280 -0.6644
 3544TIP3   OH232190   5.947   2.869   7.219 -0.3683  0.5353 -0.4358
 3544TIP3    H132191   5.937   2.961   7.242 -0.1012  0.9466 -1.8425
 3544TIP3    H232192   6.035   2.862   7.182 -0.6511 -0.1188 -1.0325
 3545TIP3   OH232193   5.120   3.348   7.593 -0.4073 -0.4948  0.6080
 3545TIP3    H132194   5.076   3.416   7.542  0.3706 -1.0682 -0.8993
 3545TIP3    H232195   5.189   3.315   7.535 -0.7533 -2.5678  1.2757
 3546TIP3   OH232196   6.321   1.824   0.216  0.4551  0.2700  0.2641
 3546TIP3    H132197   6.291   1.782   0.297 -0.0457  0.0343 -0.0390
 3546TIP3    H232198   6.240   1.843   0.168  0.7800 -2.6908 -1.7397
 3547TIP3   OH232199   0.026   1.704   7.834  0.7274 -0.0934  0.2037
 3547TIP3    H132200   0.059   1.794   7.834 -0.4886  0.3703  0.5384
 3547TIP3    H232201   0.065   1.664   7.912  4.6810 -1.2270 -2.0757
 3548TIP3   OH232202   0.961   6.425   7.049  0.1483 -0.2914  0.1812
 3548TIP3    H132203   1.028   6.486   7.019 -0.5395  0.2602 -0.2701
 3548TIP3    H232204   0.959   6.357   6.981 -1.0687  0.7038 -0.8327
 3549TIP3   OH232205   2.575   4.474   1.663  0.5925 -0.4804  0.5054
 3549TIP3    H132206   2.521   4.548   1.689  1.1901 -0.0115  0.4232
 3549TIP3    H232207   2.622   4.449   1.742  1.2673 -0.0196  0.2608
 3550TIP3   OH232208   6.491   2.773   8.685 -0.0554 -0.1683 -0.0959
 3550TIP3    H132209   6.560   2.836   8.665  1.3077 -1.4253  0.4883
 3550TIP3    H232210   6.522   2.727   8.763 -1.7738 -0.4722  0.4565
 3551TIP3   OH232211   2.786   1.173   0.673  0.0358  0.6448  0.6028
 3551TIP3    H132212   2.696   1.200   0.693 -0.3275 -1.3514  1.9868
 3551TIP3    H232213   2.840   1.240   0.715 -0.7721  1.7644 -0.0762
 3552TIP3   OH232214   5.399   6.409   0.980  0.0744 -0.0869 -0.4863
 3552TIP3    H132215   5.346   6.348   1.032  1.6190 -1.6995 -0.6856
 3552TIP3    H232216   5.460   6.447   1.043 -0.5374  0.9056 -0.4658
 3553TIP3   OH232217   4.196   0.085   7.137 -0.6109  0.5609 -0.0561
 3553TIP3    H132218   4.194   0.157   7.200 -1.5658 -0.3703  1.0290
 3553TIP3    H232219   4.288   0.079   7.111 -0.6930  3.0095 -1.2369
 3554TIP3   OH232220   1.647   2.942   0.035 -0.1798 -0.7701  0.6674
 3554TIP3    H132221   1.573   2.986  -0.006 -1.5046 -3.1902  0.2855
 3554TIP3    H232222   1.620   2.851   0.042  3.3904 -2.1403 -0.9952
 3555TIP3   OH232223   0.874   6.534   1.742 -0.5293  0.3035  0.4197
 3555TIP3    H132224   0.831   6.609   1.701  0.4596  1.1404  0.8742
 3555TIP3    H232225   0.926   6.572   1.812 -1.7689 -1.0318  2.1608
 3556TIP3   OH232226   1.190   2.140   2.009  0.3890  0.0459 -0.2157
 3556TIP3    H132227   1.146   2.059   2.033  0.0991  0.8123  2.0355
 3556TIP3    H232228   1.118   2.200   1.985  0.2348  0.8627  2.1071
 3557TIP3   OH232229   6.294   5.004   2.045 -0.1298  0.6695 -0.6846
 3557TIP3    H132230   6.372   5.058   2.030 -0.1983  0.2826 -2.7050
 3557TIP3    H232231   6.222   5.056   2.011 -0.5472  0.3546 -0.2975
 3558TIP3   OH232232   1.955   2.010   7.630  0.3719 -0.5299 -0.8337
 3558TIP3    H132233   2.040   2.011   7.674 -0.2283  0.9503  0.3585
 3558TIP3    H232234   1.936   1.917   7.618  0.2640 -1.1221  2.7595
 3559TIP3   OH232235   0.273   3.101   8.433  0.0128  0.2182  0.5985
 3559TIP3    H132236   0.199   3.131   8.379 -0.2845 -2.1135 -0.4010
 3559TIP3    H232237   0.350   3.138   8.389 -0.3474 -0.1434 -0.3744
 3560TIP3   OH232238   5.978   2.705   8.359 -0.6483  0.1479 -0.3347
 3560TIP3    H132239   5.958   2.660   8.276  3.2330  0.2017 -1.5251
 3560TIP3    H232240   5.990   2.796   8.334  1.5038  0.0125 -0.0054
 3561TIP3   OH232241   5.573   1.162   1.519  0.1163 -0.2410 -0.5649
 3561TIP3    H132242   5.573   1.206   1.604  0.1851 -2.3930  0.6421
 3561TIP3    H232243   5.481   1.144   1.501 -0.1023  1.9907 -2.0099
 3562TIP3   OH232244   5.863   2.278   0.173 -0.2651 -0.3711 -0.2824
 3562TIP3    H132245   5.832   2.320   0.252 -1.0897  0.5941 -1.0931
 3562TIP3    H232246   5.803   2.205   0.159 -0.9846  0.3004 -0.7655
 3563TIP3   OH232247   3.641   1.558   2.190 -0.2370 -0.2334 -0.9559
 3563TIP3    H132248   3.631   1.500   2.266  2.0824  0.5241  0.0253
 3563TIP3    H232249   3.619   1.645   2.223  1.8613  0.2820 -0.7405
 3564TIP3   OH232250   1.983   5.734   0.686  0.3064  0.2229 -0.0003
 3564TIP3    H132251   2.077   5.752   0.680  0.4093 -0.4549 -0.5250
 3564TIP3    H232252   1.970   5.704   0.776  0.4773  0.8945  0.2611
 3565TIP3   OH232253   4.634   1.541   6.980 -0.1789  0.3611  0.6335
 3565TIP3    H132254   4.602   1.607   6.918 -0.9308  1.4226  2.0974
 3565TIP3    H232255   4.557   1.517   7.032  0.3828 -0.6996  1.0206
 3566TIP3   OH232256   2.204   0.577   0.014 -0.1405  0.5360  0.0163
 3566TIP3    H132257   2.238   0.489  -0.003  0.9428  0.3630  2.6362
 3566TIP3    H232258   2.110   0.565   0.024 -0.3129  0.0829 -1.7295
 3567TIP3   OH232259   6.420   4.684   6.976 -0.5138  0.2713 -0.1259
 3567TIP3    H132260   6.403   4.618   7.044  0.0834  0.5423  0.2958
 3567TIP3    H232261   6.381   4.647   6.897 -0.0906 -0.6425  0.0810
 3568TIP3   OH232262   1.424   4.249   1.017 -0.4242  0.1302 -0.3717
 3568TIP3    H132263   1.390   4.168   1.055  1.5276 -1.2923 -1.4911
 3568TIP3    H232264   1.413   4.238   0.923  0.9915  0.6149 -0.6140
 3569TIP3   OH232265   4.790   6.792   8.167  0.1583  0.7809  0.1617
 3569TIP3    H132266   4.713   6.842   8.192 -0.1460 -0.2968  1.4982
 3569TIP3    H232267   4.771   6.760   8.079 -1.0426  0.3490  0.5577
 3570TIP3   OH232268   2.230   5.190   0.080 -0.3044  0.0091  0.1061
 3570TIP3    H132269   2.274   5.117   0.038  0.6447 -1.0010  2.6273
 3570TIP3    H232270   2.193   5.153   0.161 -1.8367  1.8296  0.3172
 3571TIP3   OH232271   0.359   4.456   0.382 -0.1445 -0.0334  0.1897
 3571TIP3    H132272   0.432   4.507   0.348  1.0940 -2.6390 -1.3765
 3571TIP3    H232273   0.386   4.364   0.372 -2.8862 -1.0995  1.2776
 3572TIP3   OH232274   2.923   0.698   2.031  0.5212 -0.3108 -0.2156
 3572TIP3    H132275   2.840   0.692   1.984  0.8381 -0.7637 -0.7148
 3572TIP3    H232276   2.919   0.626   2.095  0.0417  0.3732  0.5555
 3573TIP3   OH232277   5.834   0.892   1.145  0.0424 -0.3393 -0.4557
 3573TIP3    H132278   5.838   0.982   1.112 -0.6808 -0.3120 -0.4727
 3573TIP3    H232279   5.926   0.867   1.156  0.2446  0.5813  0.0515
 3574TIP3   OH232280   1.850   3.463   6.732 -0.1242  0.4758  0.5261
 3574TIP3    H132281   1.927   3.519   6.743  0.4169  0.1844 -1.3683
 3574TIP3    H232282   1.869   3.412   6.653 -1.9809 -0.1025  0.4101
 3575TIP3   OH232283   4.967   3.864   6.492  0.5643  0.2216  0.3917
 3575TIP3    H132284   4.916   3.838   6.415 -0.0744 -0.9308  1.1855
 3575TIP3    H232285   4.941   3.802   6.560  2.7257 -0.1617  0.9409
 3576TIP3   OH232286   0.228   0.885   0.617 -0.3228 -0.2111 -0.0216
 3576TIP3    H132287   0.242   0.857   0.527  0.5706  0.5280 -0.1319
 3576TIP3    H232288   0.299   0.844   0.666  1.8764  2.7482 -0.4044
 3577TIP3   OH232289   0.251   5.293   7.638  0.4360 -0.7364  0.1143
 3577TIP3    H132290   0.206   5.211   7.620 -0.9811 -0.1622  0.8460
 3577TIP3    H232291   0.300   5.277   7.719 -2.1995 -0.0731  1.9643
 3578TIP3   OH232292   0.222   6.075   1.169  0.1727  1.4267  0.1833
 3578TIP3    H132293   0.157   6.074   1.239 -0.9736  0.4399 -0.8382
 3578TIP3    H232294   0.281   6.147   1.192  0.7380  0.2076  2.9276
 3579TIP3   OH232295   2.478   6.237   1.535 -0.1748  0.0961  0.7766
 3579TIP3    H132296   2.455   6.183   1.459 -1.6951  0.3305  1.0286
 3579TIP3    H232297   2.502   6.322   1.498  2.7818 -0.8183  0.3356
 3580TIP3   OH232298   1.652   5.084   2.043 -0.2447  0.5307 -0.4406
 3580TIP3    H132299   1.731   5.138   2.039  1.8410 -2.2807  0.0059
 3580TIP3    H232300   1.609   5.110   2.125  1.2665  0.7761  0.3040
 3581TIP3   OH232301   4.836   5.026   8.206 -0.6416 -0.0452  0.8084
 3581TIP3    H132302   4.839   4.939   8.246  0.9283  0.4419  1.8277
 3581TIP3    H232303   4.788   5.013   8.124 -2.3079 -1.4509  1.9212
 3582TIP3   OH232304   5.440   2.980   7.130  0.4709 -0.3961  0.0238
 3582TIP3    H132305   5.416   3.067   7.162  0.5422 -1.1770  2.3705
 3582TIP3    H232306   5.436   2.988   7.035 -1.1996  1.6996  0.1862
 3583TIP3   OH232307   1.397   4.269   0.151 -0.0763 -0.2334  0.6127
 3583TIP3    H132308   1.324   4.227   0.107  0.8777 -1.8632  0.5000
 3583TIP3    H232309   1.450   4.306   0.080  0.8679 -1.8782  0.4083
 3584TIP3   OH232310   1.137   0.605   6.254  0.1355 -0.4458  0.0216
 3584TIP3    H132311   1.077   0.634   6.323  0.1277  0.0763 -0.1975
 3584TIP3    H232312   1.140   0.679   6.193  1.0435 -0.4528  0.0508
 3585TIP3   OH232313   5.743   0.776   2.140 -0.6585  1.3632  0.4099
 3585TIP3    H132314   5.680   0.744   2.204 -0.2002  0.2404  0.3244
 3585TIP3    H232315   5.819   0.720   2.152 -1.1002  0.0867 -2.1299
 3586TIP3   OH232316   5.961   1.925   0.979  0.1572  0.6664  0.1895
 3586TIP3    H132317   5.956   1.877   0.896 -0.7381 -0.2433  0.7425
 3586TIP3    H232318   5.952   1.857   1.046  1.9220  1.2482  1.0790
 3587TIP3   OH232319   1.909   6.308   6.882  0.2862 -0.5502  0.0999
 3587TIP3    H132320   1.997   6.270   6.880  0.6870  0.3399 -2.0853
 3587TIP3    H232321   1.924   6.402   6.873 -0.8909 -0.5352 -2.4783
 3588TIP3   OH232322   3.447   0.982   7.682  0.3220  0.0063 -0.6697
 3588TIP3    H132323   3.493   0.988   7.765 -0.3157  0.5347 -0.3544
 3588TIP3    H232324   3.423   0.889   7.675  2.1798 -0.4849 -1.2595
 3589TIP3   OH232325   1.954   5.239   7.779  0.4624  0.4512  0.0565
 3589TIP3    H132326   2.040   5.254   7.818  0.7602 -0.2765 -0.3245
 3589TIP3    H232327   1.904   5.196   7.849  0.7485 -0.1227 -0.0889
 3590TIP3   OH232328   3.373   2.208   0.026 -0.0643  0.0438 -0.0327
 3590TIP3    H132329   3.451   2.177   0.071  0.0246  1.3477  0.7608
 3590TIP3    H232330   3.354   2.293   0.066 -0.9594  0.4838 -1.3270
 3591TIP3   OH232331   3.912   0.606   1.367  0.0467  0.0539 -0.0687
 3591TIP3    H132332   4.001   0.641   1.365 -0.6363  1.9295 -0.2694
 3591TIP3    H232333   3.913   0.533   1.305  1.8204 -1.0282  1.1577
 3592TIP3   OH232334   5.167   6.696   0.113  0.0498 -0.0798 -0.2574
 3592TIP3    H132335   5.187   6.701   0.207  1.4101 -0.2549 -0.5189
 3592TIP3    H232336   5.073   6.713   0.108  0.2573  1.7956  0.9730
 3593TIP3   OH232337   0.675   3.769   7.548  0.2501 -0.0579  0.4046
 3593TIP3    H132338   0.660   3.677   7.526 -1.4317  0.6580 -1.7952
 3593TIP3    H232339   0.589   3.810   7.543  1.2584  2.0911 -1.1053
 3594TIP3   OH232340   3.308   3.038   2.010  0.4859  0.8043  0.1554
 3594TIP3    H132341   3.254   3.111   1.978  0.2842  0.6164  0.0586
 3594TIP3    H232342   3.285   3.030   2.102  0.8424  1.1522  0.2735
 3595TIP3   OH232343   0.411   5.514   1.812 -0.8034 -0.1523 -0.3336
 3595TIP3    H132344   0.476   5.552   1.872 -0.3412  0.8339 -1.4155
 3595TIP3    H232345   0.330   5.560   1.833 -0.2115  1.6524 -1.7459
 3596TIP3   OH232346   4.296   1.994   0.881 -0.0368 -0.4543 -0.0185
 3596TIP3    H132347   4.361   1.989   0.951 -1.9106  0.2693  1.9170
 3596TIP3    H232348   4.345   2.025   0.805  1.7620  0.7394  1.5205
 3597TIP3   OH232349   5.272   3.043   1.471 -0.3199 -0.6022 -0.2912
 3597TIP3    H132350   5.328   2.967   1.457 -0.8130 -1.0276 -0.0046
 3597TIP3    H232351   5.243   3.036   1.562 -1.4627 -0.8274 -0.6561
 3598TIP3   OH232352   0.947   0.522   7.659  0.0023  0.1003 -0.3387
 3598TIP3    H132353   0.932   0.428   7.651 -2.0258  0.2046  1.2200
 3598TIP3    H232354   0.978   0.533   7.749  0.5860  0.8986 -0.6266
 3599TIP3   OH232355   3.816   5.184   8.093  0.1426  0.0811  0.2913
 3599TIP3    H132356   3.910   5.197   8.093  0.5188 -2.1549 -1.5037
 3599TIP3    H232357   3.802   5.106   8.147 -0.7013  0.3491  0.4902
 3600TIP3   OH232358   5.246   6.008   1.550 -0.0912 -0.1277  0.0056
 3600TIP3    H132359   5.250   6.069   1.477  0.4081 -0.1804 -0.0154
 3600TIP3    H232360   5.232   6.064   1.627  0.3334  0.0184 -0.0172
 3601TIP3   OH232361   5.117   1.327   2.089  0.1636 -0.3801 -0.1026
 3601TIP3    H132362   5.033   1.282   2.099 -0.2527 -0.1257 -2.1498
 3601TIP3    H232363   5.178   1.278   2.144 -0.8438 -1.9027 -0.3145
 3602TIP3   OH232364   6.282   3.167   7.270 -0.1779  0.3245  0.3657
 3602TIP3    H132365   6.350   3.120   7.220  0.2391 -0.4167  1.5753
 3602TIP3    H232366   6.221   3.199   7.203  0.2843 -0.7462 -0.6133
 3603TIP3   OH232367   6.756   2.717   1.722 -0.3075  0.4485 -0.1348
 3603TIP3    H132368   6.682   2.753   1.672 -0.7150  0.1266  0.2276
 3603TIP3    H232369   6.715   2.670   1.794  0.2086 -0.7111 -0.5746
 3604TIP3   OH232370   2.477   5.476   6.999 -0.3275  0.4954 -0.2023
 3604TIP3    H132371   2.389   5.482   7.036 -0.9349  2.1037 -1.7511
 3604TIP3    H232372   2.471   5.523   6.916  1.8429  0.0645 -0.6588
 3605TIP3   OH232373   0.710   5.930   0.210 -0.6034 -0.5941 -0.0724
 3605TIP3    H132374   0.708   5.981   0.129 -0.3253  0.4834  0.5845
 3605TIP3    H232375   0.794   5.885   0.208  0.7462  1.7135  0.9521
 3606TIP3   OH232376   6.340   5.926   1.020 -0.1382 -1.0240 -0.0489
 3606TIP3    H132377   6.292   5.845   1.037  1.6306 -1.9612  0.7744
 3606TIP3    H232378   6.419   5.897   0.975  0.1829  0.3445 -0.3896
 3607TIP3   OH232379   4.414   4.472   1.571 -0.0184  0.1151 -0.4426
 3607TIP3    H132380   4.482   4.526   1.531  1.0853  0.1952  1.4096
 3607TIP3    H232381   4.332   4.502   1.532  0.8417  1.2886 -1.3832
 3608TIP3   OH232382   2.820   2.531   6.488 -0.4134 -0.5627 -0.0321
 3608TIP3    H132383   2.889   2.558   6.427 -0.0489 -0.2124  0.5201
 3608TIP3    H232384   2.851   2.447   6.522  0.5127  0.2930  1.3434
 3609TIP3   OH232385   6.687   5.561   8.534  0.2541  0.0736  0.5468
 3609TIP3    H132386   6.653   5.505   8.604 -0.8342 -0.3136 -0.2597
 3609TIP3    H232387   6.767   5.517   8.505 -1.1698 -1.7892 -0.8659
 3610TIP3   OH232388   5.279   0.940   2.000  0.1431 -0.2734 -0.4133
 3610TIP3    H132389   5.258   0.938   1.906  1.0372 -0.6909 -0.6091
 3610TIP3    H232390   5.367   0.904   2.006  0.6757  1.0960  0.4312
 3611TIP3   OH232391   0.973   0.987   1.561  0.1340  0.2450 -0.0723
 3611TIP3    H132392   1.052   0.933   1.552 -0.0128  0.3728 -2.7916
 3611TIP3    H232393   0.908   0.926   1.597  0.6517 -0.6947 -0.6817
 3612TIP3   OH232394   4.190   6.444   7.886 -0.5358 -0.0569  0.4120
 3612TIP3    H132395   4.216   6.528   7.849 -1.6659 -0.1810 -0.7052
 3612TIP3    H232396   4.104   6.426   7.848  0.1606 -2.2439 -0.2740
 3613TIP3   OH232397   1.695   1.204   1.308 -0.1497  0.2496  0.4257
 3613TIP3    H132398   1.643   1.160   1.241  1.0913  0.3813 -0.6606
 3613TIP3    H232399   1.747   1.134   1.349  0.3363  0.4112  0.0875
 3614TIP3   OH232400   3.604   6.568   2.507  0.3310 -0.0020 -0.1660
 3614TIP3    H132401   3.644   6.599   2.426  0.4414 -1.7952 -0.8555
 3614TIP3    H232402   3.617   6.639   2.570  1.4523  0.8710 -1.3378
 3615TIP3   OH232403   4.988   0.149   7.389 -0.1853  0.9718  0.4015
 3615TIP3    H132404   4.999   0.240   7.362  1.7411  1.0895  1.4352
 3615TIP3    H232405   4.929   0.112   7.323 -0.5852  2.7993 -0.3513
 3616TIP3   OH232406   4.329   2.181   0.089  0.1214  0.7324  0.1329
 3616TIP3    H132407   4.333   2.276   0.099 -1.3259  0.6311  2.4732
 3616TIP3    H232408   4.240   2.163   0.059 -0.5733  0.0361  2.3892
 3617TIP3   OH232409   1.827   5.502   7.026  0.1008 -0.7690  0.7733
 3617TIP3    H132410   1.765   5.535   6.961  0.2868 -1.1974  0.3644
 3617TIP3    H232411   1.789   5.525   7.111  0.4305  0.8313  0.5079
 3618TIP3   OH232412   2.917   3.505   0.478 -0.4079 -0.2768  0.3621
 3618TIP3    H132413   2.955   3.592   0.490  0.1428 -0.7370  2.4988
 3618TIP3    H232414   2.935   3.483   0.387  0.8355  1.1999  0.2041
 3619TIP3   OH232415   4.607   0.830   1.762 -0.7064 -0.2695 -0.1781
 3619TIP3    H132416   4.690   0.783   1.751 -1.3859 -0.9564 -3.5803
 3619TIP3    H232417   4.566   0.789   1.838  0.6086 -2.3250 -0.5053
 3620TIP3   OH232418   5.328   4.950   8.264 -0.2648 -0.1810 -0.1698
 3620TIP3    H132419   5.334   4.978   8.173  1.2533  1.5927  0.4268
 3620TIP3    H232420   5.371   4.864   8.266  2.6861  1.1839 -0.6049
 3621TIP3   OH232421   3.817   1.628   1.971 -0.2447  0.7206 -0.2876
 3621TIP3    H132422   3.768   1.561   2.019 -1.4399 -0.6761 -3.2080
 3621TIP3    H232423   3.902   1.631   2.015 -0.2909 -2.4482  0.2440
 3622TIP3   OH232424   0.914   4.542   6.741  0.3729 -0.3335 -0.5605
 3622TIP3    H132425   0.846   4.533   6.674  1.5799  1.7963 -2.1943
 3622TIP3    H232426   0.996   4.525   6.694  1.0814 -2.2938  1.2391
 3623TIP3   OH232427   4.605   6.239   7.274 -0.0605 -0.4167 -0.2179
 3623TIP3    H132428   4.627   6.153   7.309 -0.6619 -0.3074  0.4578
 3623TIP3    H232429   4.611   6.229   7.179 -1.0163 -1.4690 -0.1891
 3624TIP3   OH232430   4.322   5.887   8.647  0.2148 -0.0934 -0.4442
 3624TIP3    H132431   4.356   5.830   8.716  2.4980 -1.1161 -2.2595
 3624TIP3    H232432   4.241   5.846   8.619  0.9837 -1.5886 -0.5834
 3625TIP3   OH232433   0.178   0.557   1.713 -0.1940 -0.2351 -0.1760
 3625TIP3    H132434   0.244   0.621   1.686  0.2201 -0.6981 -0.2911
 3625TIP3    H232435   0.225   0.498   1.772 -0.3001 -0.9996 -0.8332
 3626TIP3   OH232436   6.684   4.155   1.948 -0.8343 -0.6472  0.5894
 3626TIP3    H132437   6.707   4.243   1.918  1.6294 -1.9072 -1.6122
 3626TIP3    H232438   6.588   4.155   1.952 -0.9469  1.7365 -0.5939
 3627TIP3   OH232439   4.552   0.335   7.299  0.1105  0.4440 -0.0125
 3627TIP3    H132440   4.576   0.265   7.237 -0.5415  1.1134 -1.0413
 3627TIP3    H232441   4.459   0.321   7.317  0.6093 -0.6865  2.0950
 3628TIP3   OH232442   4.427   0.714   0.427 -0.1153  0.1751  0.7112
 3628TIP3    H132443   4.507   0.743   0.471  0.6670 -1.5947  0.5362
 3628TIP3    H232444   4.411   0.627   0.463 -1.3687  0.0739 -0.0608
 3629TIP3   OH232445   2.659   0.437   8.654  0.3097  0.3543 -0.0730
 3629TIP3    H132446   2.590   0.492   8.617  1.1169  0.7511 -1.0307
 3629TIP3    H232447   2.723   0.498   8.689  0.7894  0.0102 -0.3405
 3630TIP3   OH232448   3.908   3.617   7.842  0.5441 -0.0728 -0.8493
 3630TIP3    H132449   3.885   3.527   7.819 -2.0320 -0.3037  2.0877
 3630TIP3    H232450   4.003   3.616   7.851  0.5232 -2.6750 -0.2597
 3631TIP3   OH232451   2.660   3.903   6.253 -0.4706 -0.5583  0.8608
 3631TIP3    H132452   2.576   3.908   6.207 -0.9808 -0.8278  1.7383
 3631TIP3    H232453   2.706   3.830   6.212 -0.5845 -0.2857  0.2460
 3632TIP3   OH232454   2.765   1.356   0.415  0.2381 -0.4841 -0.6461
 3632TIP3    H132455   2.712   1.332   0.491 -0.7420 -0.6344 -1.3554
 3632TIP3    H232456   2.710   1.333   0.340  0.5139  1.1789 -1.3857
 3633TIP3   OH232457   3.290   3.940   8.237 -0.0539  0.3128  0.1866
 3633TIP3    H132458   3.203   3.923   8.275  0.1867 -0.6290  0.3549
 3633TIP3    H232459   3.291   4.034   8.220  0.5625  1.3393  4.4939
 3634TIP3   OH232460   1.742   4.645   2.332  0.1033 -0.2207 -0.3268
 3634TIP3    H132461   1.784   4.561   2.315 -0.8914 -0.6644 -0.6750
 3634TIP3    H232462   1.650   4.623   2.348  0.0135  0.7073  0.5384
 3635TIP3   OH232463   4.628   0.306   0.546 -0.3856  0.8968  0.3173
 3635TIP3    H132464   4.567   0.300   0.473  0.8775  0.8040 -0.7476
 3635TIP3    H232465   4.695   0.368   0.517  1.5978 -1.1562  0.2712
 3636TIP3   OH232466   6.177   1.351   6.469  0.2758  0.1322  0.2640
 3636TIP3    H132467   6.137   1.411   6.406  0.6160 -0.6083 -0.6902
 3636TIP3    H232468   6.118   1.275   6.470  0.5409 -0.0732  0.4545
 3637TIP3   OH232469   4.552   0.155   7.076 -0.3087  0.4441 -1.1534
 3637TIP3    H132470   4.559   0.072   7.029 -2.1149  1.1551 -2.8586
 3637TIP3    H232471   4.490   0.207   7.024  0.7700  2.8923 -0.1837
 3638TIP3   OH232472   4.587   1.098   6.241 -0.4749 -0.3133 -0.0654
 3638TIP3    H132473   4.592   1.010   6.203  0.1439 -0.4606  0.3534
 3638TIP3    H232474   4.586   1.084   6.335  0.0464  0.1529  0.0123
 3639TIP3   OH232475   6.614   5.811   8.405  0.1341  0.9913  0.3252
 3639TIP3    H132476   6.651   5.738   8.455  2.4854  2.0305  0.2356
 3639TIP3    H232477   6.588   5.772   8.321 -0.1195 -0.0016  0.8459
 3640TIP3   OH232478   4.593   0.038   0.507 -0.0947 -0.7023 -0.2782
 3640TIP3    H132479   4.650   0.063   0.435 -2.0618  0.0994 -1.6238
 3640TIP3    H232480   4.551   0.120   0.534 -1.1306 -1.3742  0.1983
 3641TIP3   OH232481   0.580   6.145   6.709 -0.6464  0.2064  0.2944
 3641TIP3    H132482   0.505   6.203   6.725 -0.7542 -0.1742  1.2180
 3641TIP3    H232483   0.562   6.107   6.622 -1.7252 -0.1573  0.6538
 3642TIP3   OH232484   5.773   5.655   7.706 -0.3712 -0.0288  0.0113
 3642TIP3    H132485   5.797   5.567   7.677 -0.2073  0.2113 -0.6069
 3642TIP3    H232486   5.819   5.713   7.645  0.2985  0.5077  0.9997
 3643TIP3   OH232487   4.053   0.841   7.716  0.0315 -0.3691  0.1565
 3643TIP3    H132488   4.114   0.907   7.749  0.7387 -0.4576 -0.9011
 3643TIP3    H232489   3.973   0.890   7.696  0.8038  0.3489 -1.3459
 3644TIP3   OH232490   4.267   1.624   7.461  0.7584  0.7586 -0.1542
 3644TIP3    H132491   4.344   1.570   7.441  0.3009 -0.4093  1.0900
 3644TIP3    H232492   4.210   1.612   7.385  1.6790  1.4512 -0.9833
 3645TIP3   OH232493   2.348   1.094   0.973  0.6456  0.2061  0.0811
 3645TIP3    H132494   2.382   1.180   0.998 -0.4745  1.2492 -1.7664
 3645TIP3    H232495   2.423   1.047   0.937  0.8544  1.1741 -0.7644
 3646TIP3   OH232496   5.933   5.418   2.596  0.1699  0.5382 -0.3389
 3646TIP3    H132497   5.852   5.399   2.549 -0.0137  2.3484 -0.8414
 3646TIP3    H232498   5.921   5.378   2.682 -2.2168  2.5469  0.3715
 3647TIP3   OH232499   4.904   1.075   0.642 -0.0087 -0.4195 -0.2567
 3647TIP3    H132500   4.856   1.158   0.646  0.2077 -0.3303  1.1763
 3647TIP3    H232501   4.837   1.008   0.656  0.1348 -0.3408  0.9018
 3648TIP3   OH232502   3.170   1.642   8.579 -0.5389 -0.8311 -0.4832
 3648TIP3    H132503   3.195   1.624   8.489 -0.2633 -0.1163 -0.5536
 3648TIP3    H232504   3.147   1.735   8.580 -1.1516 -0.9795  0.0446
 3649TIP3   OH232505   6.431   3.320   1.744  0.0737  0.4309 -0.0117
 3649TIP3    H132506   6.366   3.306   1.675 -0.9428 -1.0907  1.1710
 3649TIP3    H232507   6.497   3.252   1.729 -0.0926  0.1680  0.4080
 3650TIP3   OH232508   2.699   1.193   1.462 -0.1009  1.2709  0.1671
 3650TIP3    H132509   2.713   1.196   1.367  0.7063  1.4559  0.2822
 3650TIP3    H232510   2.721   1.282   1.492  1.7191  0.6374  0.7903
 3651TIP3   OH232511   6.695   2.158   6.400  0.6333  0.6664 -0.5742
 3651TIP3    H132512   6.625   2.144   6.464 -1.5198 -0.1890 -2.9557
 3651TIP3    H232513   6.711   2.253   6.402  0.0687  0.7583  0.6176
 3652TIP3   OH232514   6.764   6.803   1.534  0.3022  0.0388 -0.5484
 3652TIP3    H132515   6.728   6.714   1.533 -1.4437  0.6462  1.4139
 3652TIP3    H232516   6.728   6.845   1.456  1.2476 -0.9701 -1.5633
 3653TIP3   OH232517   4.163   6.025   7.754 -0.1941  0.3013  0.2093
 3653TIP3    H132518   4.093   5.981   7.802  1.5217  0.1551  2.7724
 3653TIP3    H232519   4.171   5.976   7.672 -3.3028  0.6167 -0.4159
 3654TIP3   OH232520   2.927   6.200   1.062  0.4528  0.4824  0.6037
 3654TIP3    H132521   2.940   6.225   1.154 -1.3770  0.4508  0.9081
 3654TIP3    H232522   2.868   6.267   1.028 -0.5253 -0.6367  0.0390
 3655TIP3   OH232523   3.733   4.275   6.701  0.1761 -0.6530  0.1704
 3655TIP3    H132524   3.651   4.236   6.671 -0.3585  0.2827  0.3657
 3655TIP3    H232525   3.797   4.204   6.697 -0.2455 -0.9594 -1.6104
 3656TIP3   OH232526   1.564   3.750   8.103  0.6716  0.1895 -0.9557
 3656TIP3    H132527   1.539   3.839   8.125  0.9753 -0.3806  2.1365
 3656TIP3    H232528   1.646   3.735   8.151  0.7198 -1.6785 -1.5414
 3657TIP3   OH232529   0.081   3.386   1.320  0.1541  0.1917  0.0008
 3657TIP3    H132530   0.131   3.305   1.320 -1.2822 -0.8644  2.9378
 3657TIP3    H232531   0.137   3.449   1.364  0.4710  0.2169 -0.4313
 3658TIP3   OH232532   6.092   0.656   7.143  0.5535  0.2127 -0.4679
 3658TIP3    H132533   6.120   0.572   7.105  0.7702  0.6597 -1.3065
 3658TIP3    H232534   6.082   0.714   7.068  0.8670  1.0785  0.1550
 3659TIP3   OH232535   1.984   3.163   8.252  0.7010  0.3639  0.0848
 3659TIP3    H132536   1.925   3.237   8.258  2.3087  1.7373 -0.2992
 3659TIP3    H232537   2.068   3.196   8.285  1.8206 -0.8321 -1.4169
 3660TIP3   OH232538   6.659   4.658   7.872 -0.8730  0.0526  0.3964
 3660TIP3    H132539   6.737   4.604   7.859 -1.0725 -0.1476  0.0100
 3660TIP3    H232540   6.586   4.596   7.866 -1.1639  0.4986 -1.0084
 3661TIP3   OH232541   5.851   4.160   7.327  0.4454  0.5073  0.2157
 3661TIP3    H132542   5.908   4.232   7.352  1.0515 -0.3105  1.2318
 3661TIP3    H232543   5.842   4.169   7.232  1.4244  1.2449  0.1775
 3662TIP3   OH232544   1.169   3.902   8.585 -0.0078 -0.0862  0.3653
 3662TIP3    H132545   1.123   3.949   8.515  0.5291 -0.0488  0.0326
 3662TIP3    H232546   1.248   3.869   8.543 -0.1179 -0.8292  0.7360
 3663TIP3   OH232547   3.947   1.589   8.299  0.8915  0.0805  0.4160
 3663TIP3    H132548   3.901   1.654   8.353 -0.3587 -1.0435  0.7579
 3663TIP3    H232549   3.950   1.629   8.212 -0.1708  0.4661  0.5357
 3664TIP3   OH232550   4.843   1.806   0.240 -0.5321  0.1037 -0.2622
 3664TIP3    H132551   4.931   1.830   0.212  0.5160 -1.2658  1.6232
 3664TIP3    H232552   4.799   1.890   0.255  2.1750  1.0539  3.7775
 3665TIP3   OH232553   6.442   0.127   8.721  0.8242 -0.1586 -0.2678
 3665TIP3    H132554   6.370   0.150   8.662 -1.5878  3.4143  3.4756
 3665TIP3    H232555   6.409   0.052   8.771 -0.3962  1.2815  1.2307
 3666TIP3   OH232556   0.600   3.169   7.825  0.0657 -0.4057 -0.0304
 3666TIP3    H132557   0.695   3.155   7.828 -0.0821 -1.9852 -1.3774
 3666TIP3    H232558   0.591   3.259   7.792  1.0435  0.7732  2.6231
 3667TIP3   OH232559   2.255   2.654   8.595  0.0451 -0.7845 -0.4677
 3667TIP3    H132560   2.335   2.623   8.639  0.7048  1.0889 -0.2518
 3667TIP3    H232561   2.184   2.617   8.647  0.7752 -2.0962 -0.3645
 3668TIP3   OH232562   2.795   1.203   2.032  0.1482  0.1909  0.1896
 3668TIP3    H132563   2.794   1.110   2.010 -0.6800 -0.1740  1.6369
 3668TIP3    H232564   2.840   1.207   2.117  0.2080  1.1108  0.1253
 3669TIP3   OH232565   2.680   0.816   6.611  0.3366 -0.0818 -0.5160
 3669TIP3    H132566   2.751   0.787   6.669  0.1732 -0.2682 -0.4055
 3669TIP3    H232567   2.723   0.871   6.546  0.2087  2.3330  1.2773
 3670TIP3   OH232568   1.850   1.428   7.269  0.2664 -0.2596  0.2406
 3670TIP3    H132569   1.933   1.439   7.316  0.4779 -0.7412 -0.0113
 3670TIP3    H232570   1.799   1.367   7.323 -0.2301  0.5995  0.7738
 3671TIP3   OH232571   6.690   4.288   1.111  0.5174 -0.5023 -0.0940
 3671TIP3    H132572   6.704   4.381   1.129  1.6969 -0.4583 -1.1197
 3671TIP3    H232573   6.700   4.280   1.016 -1.2523 -1.4168 -0.2603
 3672TIP3   OH232574   2.586   0.417   0.880  0.1292  0.0719  0.2571
 3672TIP3    H132575   2.530   0.492   0.897 -2.1885 -1.4738 -0.1993
 3672TIP3    H232576   2.652   0.420   0.950 -1.0926  1.3894  1.4060
 3673TIP3   OH232577   3.466   1.469   1.923  0.1095 -0.2460 -0.1857
 3673TIP3    H132578   3.454   1.412   1.999 -1.1460  0.0143 -0.1673
 3673TIP3    H232579   3.530   1.534   1.952 -1.2474  0.5892  1.1117
 3674TIP3   OH232580   4.411   0.002   1.428  0.1765  0.6367 -0.0235
 3674TIP3    H132581   4.483   0.050   1.468  0.6293  0.2262 -0.3363
 3674TIP3    H232582   4.393   0.048   1.346 -0.5083  1.2603  0.4616
 3675TIP3   OH232583   2.480   5.830   7.487  0.3755  0.5639  0.4003
 3675TIP3    H132584   2.435   5.898   7.437  2.7381  1.9797  0.0348
 3675TIP3    H232585   2.484   5.865   7.576 -0.3088 -0.1052  0.6948
 3676TIP3   OH232586   1.522   6.801   6.588  0.4645 -0.4180  0.2492
 3676TIP3    H132587   1.564   6.743   6.652 -1.0170 -1.6301  0.1964
 3676TIP3    H232588   1.429   6.780   6.595  0.2155 -0.3096 -2.0300
 3677TIP3   OH232589   6.022   3.946   0.948 -0.1590  0.5568  0.1974
 3677TIP3    H132590   5.937   3.957   0.904  0.7861 -0.1399 -1.9162
 3677TIP3    H232591   6.085   3.983   0.888  1.2662 -0.8111  0.7887
 3678TIP3   OH232592   0.316   4.122   2.103 -0.0499  0.1978  0.4576
 3678TIP3    H132593   0.406   4.090   2.104 -1.0390 -3.1262 -1.0063
 3678TIP3    H232594   0.298   4.141   2.011 -0.7585  1.1437  0.7781
 3679TIP3   OH232595   6.568   3.396   6.709  0.8791 -0.2000  0.3472
 3679TIP3    H132596   6.513   3.329   6.752  1.3737 -0.0069  1.3236
 3679TIP3    H232597   6.569   3.370   6.617 -2.9787  1.2246 -0.3007
 3680TIP3   OH232598   1.719   1.963   6.157 -0.2173 -0.2932  0.0760
 3680TIP3    H132599   1.647   2.007   6.203  0.0603 -1.5399  1.8261
 3680TIP3    H232600   1.678   1.887   6.115 -0.1348 -0.2908 -0.0096
 3681TIP3   OH232601   4.729   1.202   0.903  0.1576  0.5031  0.0204
 3681TIP3    H132602   4.646   1.155   0.893  0.1187  0.7394 -0.8941
 3681TIP3    H232603   4.755   1.223   0.813  2.3795 -1.5382  0.0943
 3682TIP3   OH232604   5.573   6.143   8.187  0.2054  0.1838 -0.2055
 3682TIP3    H132605   5.612   6.201   8.253  0.5170  0.0490 -0.2713
 3682TIP3    H232606   5.512   6.089   8.236 -0.8800  1.2723 -0.3015
 3683TIP3   OH232607   0.949   2.141   1.735 -0.7568 -0.5858  0.2137
 3683TIP3    H132608   0.962   2.162   1.827  2.2376 -0.0595 -0.2300
 3683TIP3    H232609   1.013   2.073   1.716  0.5574  1.1039 -2.0124
 3684TIP3   OH232610   4.329   4.441   0.650  0.4085  0.4793 -0.3313
 3684TIP3    H132611   4.411   4.391   0.648 -0.4605 -1.1060 -3.3876
 3684TIP3    H232612   4.286   4.419   0.567 -3.2418  1.0598  1.2124
 3685TIP3   OH232613   0.469   0.420   0.933  0.1887 -0.1717 -0.4472
 3685TIP3    H132614   0.381   0.417   0.897  0.7924 -1.1008 -1.9771
 3685TIP3    H232615   0.465   0.367   1.013 -0.8706  0.7368  0.1136
 3686TIP3   OH232616   3.194   3.315   1.659  0.2307 -0.2390  0.7441
 3686TIP3    H132617   3.186   3.292   1.752 -2.6134 -0.8342  0.4455
 3686TIP3    H232618   3.261   3.255   1.625 -1.3228 -2.6675  1.6925
 3687TIP3   OH232619   4.906   5.968   1.920 -0.0514 -0.0102 -0.0801
 3687TIP3    H132620   4.978   5.986   1.859 -0.7901  0.3323 -0.8724
 3687TIP3    H232621   4.852   6.048   1.917  0.4327  0.4254  1.7967
 3688TIP3   OH232622   5.243   4.107   2.711 -0.3740 -0.3340 -0.5318
 3688TIP3    H132623   5.199   4.023   2.700 -0.8936 -0.4565  1.9071
 3688TIP3    H232624   5.330   4.094   2.674 -1.0104 -1.3866 -1.7230
 3689TIP3   OH232625   4.265   4.831   7.521  0.1627  0.0032  0.1983
 3689TIP3    H132626   4.198   4.787   7.574  0.5717  0.1153  0.8236
 3689TIP3    H232627   4.274   4.776   7.443  0.8062 -1.1553  1.0551
 3690TIP3   OH232628   4.345   1.082   7.495 -0.2422 -0.5207 -0.3686
 3690TIP3    H132629   4.364   1.144   7.423  0.5900  0.2563  0.4879
 3690TIP3    H232630   4.340   1.138   7.573  1.2054 -1.5869  0.5391
 3691TIP3   OH232631   5.241   0.553   7.173  0.2923 -0.2803  0.3455
 3691TIP3    H132632   5.203   0.513   7.095 -1.4820 -1.4861  1.7403
 3691TIP3    H232633   5.330   0.578   7.146  0.0106 -1.3521 -1.8138
 3692TIP3   OH232634   5.507   4.501   0.501  0.8266  0.8149  0.5619
 3692TIP3    H132635   5.496   4.418   0.455 -0.2705  0.9534  0.5366
 3692TIP3    H232636   5.421   4.543   0.495  0.9700  1.3267  1.7782
 3693TIP3   OH232637   1.881   3.387   1.788  0.3955  0.6564  0.3066
 3693TIP3    H132638   1.919   3.474   1.780 -0.9546  1.4226  1.7199
 3693TIP3    H232639   1.819   3.381   1.716 -1.7836  2.1594  1.9200
 3694TIP3   OH232640   0.517   5.141   0.366  0.0481  0.2214  0.4370
 3694TIP3    H132641   0.468   5.218   0.395 -3.4295 -1.2203 -0.9947
 3694TIP3    H232642   0.571   5.117   0.441 -2.0531  1.5975  2.5322
 3695TIP3   OH232643   5.363   1.157   2.136  0.5339 -0.5763 -0.7720
 3695TIP3    H132644   5.381   1.132   2.226  0.6473 -2.4735 -1.2914
 3695TIP3    H232645   5.327   1.079   2.095 -1.0608  0.7091 -1.9719
 3696TIP3   OH232646   2.751   5.456   7.850  0.1293  0.3498  0.0444
 3696TIP3    H132647   2.795   5.429   7.769 -0.4403 -0.4246 -0.0165
 3696TIP3    H232648   2.718   5.375   7.888 -0.0386  0.7619  0.8059
 3697TIP3   OH232649   4.931   3.901   1.675 -0.1091 -0.0047  0.3712
 3697TIP3    H132650   4.978   3.981   1.699 -0.3899  0.1774  0.3206
 3697TIP3    H232651   4.937   3.846   1.753 -0.1524  0.1781  0.5040
 3698TIP3   OH232652   4.035   0.506   0.444 -0.3397  0.3406 -0.3950
 3698TIP3    H132653   4.074   0.447   0.509 -1.9241  0.7903  1.0391
 3698TIP3    H232654   4.095   0.503   0.370  1.0052 -1.0040  0.6830
 3699TIP3   OH232655   4.317   4.331   7.069 -0.0850  0.1578 -0.3421
 3699TIP3    H132656   4.267   4.391   7.123  2.7823  2.9259 -0.5259
 3699TIP3    H232657   4.397   4.314   7.118  0.8026 -0.5433 -1.9435
 3700TIP3   OH232658   3.460   5.500   7.452 -0.0937  0.0429  0.0163
 3700TIP3    H132659   3.479   5.446   7.375 -1.1157 -1.7846  0.9891
 3700TIP3    H232660   3.527   5.475   7.516  1.1988  2.0712 -0.4351
 3701TIP3   OH232661   2.250   0.332   1.310  0.2127 -0.0266 -0.6374
 3701TIP3    H132662   2.207   0.257   1.270 -1.5972  1.5463 -1.8068
 3701TIP3    H232663   2.341   0.327   1.279  0.2532 -1.9335 -0.3124
 3702TIP3   OH232664   4.554   6.764   0.868 -0.2661 -0.1188 -0.0844
 3702TIP3    H132665   4.629   6.751   0.810  1.5381  1.9058  1.6159
 3702TIP3    H232666   4.516   6.847   0.839 -1.0585 -0.4683 -0.0818
 3703TIP3   OH232667   2.713   3.583   0.055  0.0050  0.2670 -0.6001
 3703TIP3    H132668   2.744   3.529   0.128 -1.4444  0.8764  0.5408
 3703TIP3    H232669   2.723   3.673   0.086 -0.7576  0.5314 -1.0921
 3704TIP3   OH232670   1.759   0.836   1.157 -0.3547 -0.3653 -0.6186
 3704TIP3    H132671   1.690   0.870   1.213 -0.3144  1.7947 -1.7839
 3704TIP3    H232672   1.713   0.791   1.087 -0.6820  1.5389 -1.6901
 3705TIP3   OH232673   5.375   6.242   0.207 -0.1012  0.3333 -0.7727
 3705TIP3    H132674   5.313   6.276   0.272  0.5235 -0.7297  0.4283
 3705TIP3    H232675   5.366   6.301   0.132 -0.3481  2.0151  0.5270
 3706TIP3   OH232676   0.507   6.464   0.752 -0.2456  0.2162 -0.0072
 3706TIP3    H132677   0.498   6.445   0.659 -1.0593 -0.1127  0.1313
 3706TIP3    H232678   0.601   6.451   0.770 -0.2411 -0.6330 -0.5775
 3707TIP3   OH232679   0.163   5.635   1.913 -0.2153  0.5761 -0.0922
 3707TIP3    H132680   0.142   5.567   1.850 -0.1447  0.7358 -0.2897
 3707TIP3    H232681   0.083   5.647   1.963 -0.0985  0.0415  0.2345
 3708TIP3   OH232682   5.199   1.831   6.267  0.1248  0.3888  0.1436
 3708TIP3    H132683   5.147   1.890   6.212 -1.9676  0.5193  2.0993
 3708TIP3    H232684   5.265   1.887   6.307  1.0319  0.4746 -1.3900
 3709TIP3   OH232685   4.442   1.470   8.697  0.9797 -0.1596  0.4814
 3709TIP3    H132686   4.396   1.391   8.727  1.1220 -0.0764  0.9257
 3709TIP3    H232687   4.430   1.533   8.768  2.1656 -0.2857  0.8117
 3710TIP3   OH232688   4.288   2.169   7.284  0.1762 -0.1478 -0.3663
 3710TIP3    H132689   4.246   2.191   7.368  0.6195  0.4536 -0.2915
 3710TIP3    H232690   4.238   2.220   7.220 -0.1998 -0.6530 -0.4822
 3711TIP3   OH232691   4.933   5.663   0.946 -0.0197 -0.3019  0.1517
 3711TIP3    H132692   4.844   5.629   0.945 -0.4731  0.8282 -1.1455
 3711TIP3    H232693   4.976   5.618   0.873 -0.2295  0.8678 -0.7112
 3712TIP3   OH232694   4.302   3.213   7.831 -0.6057 -0.2554  0.0234
 3712TIP3    H132695   4.354   3.137   7.856 -0.9641  0.0217  1.7523
 3712TIP3    H232696   4.214   3.179   7.817 -0.2606 -0.5338 -1.7610
 3713TIP3   OH232697   2.835   1.003   7.737 -0.6756  0.0604  0.2031
 3713TIP3    H132698   2.915   0.951   7.744 -0.9021 -0.2794  0.3175
 3713TIP3    H232699   2.837   1.039   7.648 -1.2927 -1.4573 -0.4713
 3714TIP3   OH232700   3.639   3.776   0.689 -0.1711 -0.1565  0.7348
 3714TIP3    H132701   3.632   3.845   0.623  0.5420 -0.4737  0.3135
 3714TIP3    H232702   3.627   3.822   0.772  3.0901  1.0709  0.6961
 3715TIP3   OH232703   6.567   5.315   2.390 -0.1559 -0.1774  0.1214
 3715TIP3    H132704   6.608   5.353   2.468  2.3852  1.9634 -2.0141
 3715TIP3    H232705   6.531   5.391   2.344  0.7999 -0.9634 -2.0225
 3716TIP3   OH232706   4.014   3.894   7.728 -0.1432  0.3812  0.2297
 3716TIP3    H132707   3.995   3.847   7.647  1.2371  0.8131 -0.3794
 3716TIP3    H232708   4.072   3.835   7.777 -0.3180  0.4566  0.5267
 3717TIP3   OH232709   2.982   1.973   1.964  0.1260  0.1119 -0.0673
 3717TIP3    H132710   3.046   1.955   1.895 -0.8259  0.6750 -1.1116
 3717TIP3    H232711   3.016   1.925   2.040  0.9963 -0.8332 -1.0139
 3718TIP3   OH232712   3.717   2.696   1.675  0.2162  0.3412  0.3731
 3718TIP3    H132713   3.794   2.735   1.718 -0.1222 -0.0145  1.3206
 3718TIP3    H232714   3.710   2.609   1.714  0.2908 -0.2623 -0.9045
 3719TIP3   OH232715   2.435   0.824   7.404 -0.3344  0.1324 -1.0268
 3719TIP3    H132716   2.426   0.755   7.338 -0.9539  0.1000 -0.9163
 3719TIP3    H232717   2.518   0.866   7.384  1.4203 -2.3235  0.4475
 3720TIP3   OH232718   3.788   6.243   8.127  0.2858 -0.5606 -0.0218
 3720TIP3    H132719   3.703   6.201   8.140 -1.2756  2.0116 -1.1226
 3720TIP3    H232720   3.813   6.275   8.214  0.3240 -1.5830  0.3614
 3721TIP3   OH232721   0.370   4.394   1.525  0.1711 -0.0421 -0.3312
 3721TIP3    H132722   0.337   4.368   1.439 -0.4976  2.1823 -0.7943
 3721TIP3    H232723   0.340   4.484   1.537  2.8812  0.8279  0.8788
 3722TIP3   OH232724   1.032   0.398   8.434 -0.1230 -0.0612 -0.0235
 3722TIP3    H132725   0.993   0.484   8.448 -1.1855 -0.6047  0.4361
 3722TIP3    H232726   0.966   0.336   8.463  0.2047 -1.0709 -1.3286
 3723TIP3   OH232727   1.308   3.626   1.247 -0.1311 -0.2016  0.0027
 3723TIP3    H132728   1.307   3.696   1.313  1.5680 -1.9002  2.0077
 3723TIP3    H232729   1.375   3.653   1.184 -0.4883  0.6152 -0.0395
 3724TIP3   OH232730   0.302   5.373   6.452  0.7821  0.5491  0.0573
 3724TIP3    H132731   0.255   5.455   6.465  0.3189  0.2412  0.3403
 3724TIP3    H232732   0.245   5.321   6.395  1.8101  1.0473 -1.5070
 3725TIP3   OH232733   3.853   3.271   7.246  0.5179 -0.3843  0.6735
 3725TIP3    H132734   3.780   3.323   7.211  1.9391  2.8025  2.0646
 3725TIP3    H232735   3.923   3.283   7.182  1.9546  2.4800  2.5706
 3726TIP3   OH232736   6.033   3.232   7.463  0.5052  0.0812 -0.1016
 3726TIP3    H132737   6.121   3.204   7.437  1.2761  3.2857 -1.4261
 3726TIP3    H232738   5.978   3.209   7.388  0.9539  1.2052 -0.8036
 3727TIP3   OH232739   4.388   4.577   0.906  0.1597 -0.0690 -0.1200
 3727TIP3    H132740   4.340   4.505   0.865  0.1728  0.9525 -2.0641
 3727TIP3    H232741   4.453   4.603   0.840  0.5138  1.3499  0.7378
 3728TIP3   OH232742   2.937   6.645   0.520 -0.1906  0.1405  0.1113
 3728TIP3    H132743   3.001   6.599   0.466  1.4435  1.7208  0.5723
 3728TIP3    H232744   2.900   6.578   0.577 -1.0398 -1.3264 -2.0711
 3729TIP3   OH232745   5.430   1.806   7.612  0.1358  0.4498  0.3250
 3729TIP3    H132746   5.350   1.758   7.592  0.3540  0.3153 -0.2362
 3729TIP3    H232747   5.470   1.824   7.527 -0.3318  2.3260  0.4651
 3730TIP3   OH232748   5.972   0.439   8.082  0.1480  0.0965  0.1213
 3730TIP3    H132749   5.891   0.389   8.072  1.1801 -1.4644 -0.8102
 3730TIP3    H232750   5.993   0.468   7.993  1.3762 -0.8033  0.0932
 3731TIP3   OH232751   5.933   3.143   7.179  0.0262 -0.2895 -0.3310
 3731TIP3    H132752   5.973   3.152   7.092 -0.7661 -1.7249 -0.8864
 3731TIP3    H232753   5.882   3.223   7.190  1.4007  0.6385 -0.4816
 3732TIP3   OH232754   0.815   4.731   1.130  0.2418  0.5480 -0.0052
 3732TIP3    H132755   0.727   4.749   1.097  0.7663  0.6989 -1.3662
 3732TIP3    H232756   0.849   4.816   1.157  0.1993  0.5728 -0.0304
 3733TIP3   OH232757   4.790   2.630   1.151  0.5041  0.2852 -0.0753
 3733TIP3    H132758   4.729   2.610   1.222  1.0707  0.4720  0.4800
 3733TIP3    H232759   4.748   2.699   1.100  0.3249  0.5283  0.4003
 3734TIP3   OH232760   5.273   1.179   1.172 -0.2544 -0.2497  0.6143
 3734TIP3    H132761   5.246   1.266   1.201  2.0677  0.2090  1.7084
 3734TIP3    H232762   5.364   1.191   1.144 -0.1891 -2.1510 -0.1152
 3735TIP3   OH232763   2.912   0.058   1.297  0.3662  0.0420  0.1795
 3735TIP3    H132764   2.880   0.028   1.382 -2.0388  0.1621 -0.5902
 3735TIP3    H232765   2.893  -0.015   1.238  2.5444 -0.2731 -0.1883
 3736TIP3   OH232766   6.364   6.296   0.070 -0.1704 -0.1163  0.0391
 3736TIP3    H132767   6.379   6.327   0.159  1.5813 -0.1052 -0.2086
 3736TIP3    H232768   6.320   6.369   0.026 -0.4178  0.1457  0.7137
 3737TIP3   OH232769   2.256   2.390   8.268 -0.3713  0.4260  0.1854
 3737TIP3    H132770   2.273   2.374   8.361  0.9994  0.9546  0.0439
 3737TIP3    H232771   2.192   2.461   8.268 -1.7453 -0.7521  0.7224
 3738TIP3   OH232772   1.837   0.676   0.511  0.0941 -0.1334 -0.2901
 3738TIP3    H132773   1.787   0.608   0.467 -1.4058 -0.2643  1.4880
 3738TIP3    H232774   1.925   0.639   0.522  0.4459 -0.2123 -2.7399
 3739TIP3   OH232775   6.121   4.838   7.442 -0.0476  0.3502 -0.7428
 3739TIP3    H132776   6.144   4.833   7.535  0.2225 -1.1397 -0.8654
 3739TIP3    H232777   6.117   4.932   7.423  0.7152  0.6702  0.5748
 3740TIP3   OH232778   3.660   6.180   1.205  0.3919  0.3263  0.4990
 3740TIP3    H132779   3.580   6.189   1.152  0.3483  2.2713  0.8505
 3740TIP3    H232780   3.628   6.146   1.289 -0.1703  1.6282  0.8337
 3741TIP3   OH232781   5.891   0.261   0.679  1.1227 -0.2981 -0.8178
 3741TIP3    H132782   5.870   0.213   0.599 -0.7458  1.1191 -1.2547
 3741TIP3    H232783   5.957   0.325   0.652  1.1352 -0.3988 -1.0285
 3742TIP3   OH232784   3.370   2.901   8.518  0.0313  0.3051  0.4407
 3742TIP3    H132785   3.393   2.819   8.475  1.0578  0.8259 -0.0479
 3742TIP3    H232786   3.275   2.910   8.504 -0.1317 -0.9055  0.7277
 3743TIP3   OH232787   0.068   4.745   7.321 -0.1654 -0.5033 -0.6460
 3743TIP3    H132788  -0.010   4.693   7.305 -1.5161  1.2774 -0.1429
 3743TIP3    H232789   0.075   4.802   7.245 -0.5725  0.7463  0.2126
 3744TIP3   OH232790   1.690   4.297   0.161 -0.2071 -0.2125 -0.6319
 3744TIP3    H132791   1.647   4.315   0.245 -1.7321  0.5649 -1.5304
 3744TIP3    H232792   1.685   4.202   0.152  1.1488 -0.4411  0.7303
 3745TIP3   OH232793   5.438   6.360   8.100  0.3816  0.1752  0.0698
 3745TIP3    H132794   5.469   6.274   8.129  0.1252  0.0380 -0.0590
 3745TIP3    H232795   5.518   6.409   8.079  0.6013  0.4401  1.4529
 3746TIP3   OH232796   5.579   3.930   6.921  1.1659 -0.7121  0.4760
 3746TIP3    H132797   5.510   3.865   6.909  0.9801 -0.4146 -0.1662
 3746TIP3    H232798   5.634   3.921   6.843  0.9628  0.0909  0.2228
 3747TIP3   OH232799   3.845   2.095   1.585 -0.1340  0.5639  0.2591
 3747TIP3    H132800   3.759   2.104   1.624 -0.5928 -0.0746 -0.5759
 3747TIP3    H232801   3.844   2.155   1.511 -1.4512 -2.3891 -2.3594
 3748TIP3   OH232802   1.293   2.234   7.089  0.3221  0.4205 -0.0208
 3748TIP3    H132803   1.241   2.283   7.024  0.4959  2.0227  0.9812
 3748TIP3    H232804   1.315   2.299   7.155 -0.4658 -1.2955  2.0526
 3749TIP3   OH232805   0.635   5.260   2.118  0.1133  0.0777 -0.4608
 3749TIP3    H132806   0.697   5.312   2.068 -0.2236  0.8612 -0.0857
 3749TIP3    H232807   0.576   5.223   2.053 -0.0515  0.7244 -0.6818
 3750TIP3   OH232808   3.235   1.750   1.640 -0.0518  0.6346 -0.3790
 3750TIP3    H132809   3.194   1.834   1.617 -1.4672 -0.4566 -2.0993
 3750TIP3    H232810   3.235   1.700   1.559  1.0759 -0.9352  0.5317
 3751TIP3   OH232811   4.196   0.922   8.274  0.1408 -0.5917  0.0897
 3751TIP3    H132812   4.222   0.962   8.191  1.5984 -1.1620  0.2340
 3751TIP3    H232813   4.111   0.959   8.294 -1.2217 -1.9647 -2.6844
 3752TIP3   OH232814   4.554   3.506   1.884  0.8004  0.0075 -0.3978
 3752TIP3    H132815   4.507   3.577   1.840 -0.5047 -0.2584  0.5051
 3752TIP3    H232816   4.510   3.427   1.855  2.5446 -0.5199 -1.7608
 3753TIP3   OH232817   5.394   1.346   7.982  0.7739 -0.5045 -0.6900
 3753TIP3    H132818   5.328   1.355   8.051  0.1994 -0.6793 -1.2078
 3753TIP3    H232819   5.455   1.280   8.015  0.8345 -0.1604 -0.1019
 3754TIP3   OH232820   3.971   1.635   8.024 -0.1099  0.7142  0.0693
 3754TIP3    H132821   3.969   1.580   7.945 -1.2344  0.1599  0.4521
 3754TIP3    H232822   4.061   1.668   8.028  0.9841 -2.0182  0.4343
 3755TIP3   OH232823   5.174   2.344   1.558 -0.2472 -0.1263 -0.9948
 3755TIP3    H132824   5.257   2.314   1.595 -0.7991  0.8759  1.2631
 3755TIP3    H232825   5.187   2.342   1.463  2.3922  0.1640 -0.7020
 3756TIP3   OH232826   3.868   5.454   0.950 -0.5261 -0.0667  0.0604
 3756TIP3    H132827   3.863   5.482   0.858 -0.3538 -0.3864 -0.0493
 3756TIP3    H232828   3.871   5.535   1.000 -0.8769  0.1112 -0.2021
 3757TIP3   OH232829   1.527   0.618   6.237 -1.0226  0.1472  0.0527
 3757TIP3    H132830   1.450   0.620   6.294 -0.4906 -0.6590  0.8316
 3757TIP3    H232831   1.601   0.611   6.297 -0.4465 -0.6986 -0.7328
 3758TIP3   OH232832   3.890   0.567   8.022  0.2612  0.1798  0.3630
 3758TIP3    H132833   3.840   0.501   7.974  0.4092  0.4081 -0.1118
 3758TIP3    H232834   3.972   0.524   8.045 -0.9206 -0.9075  2.9776
 3759TIP3   OH232835   1.537   1.067   0.088  0.6373 -0.2903 -0.1072
 3759TIP3    H132836   1.545   1.075   0.183 -0.0281  1.2185 -0.1449
 3759TIP3    H232837   1.474   0.996   0.076 -0.5668  0.5968  0.6589
 3760TIP3   OH232838   6.232   3.940   8.131 -0.4239  0.4986 -0.5348
 3760TIP3    H132839   6.190   4.013   8.086  0.6313  1.8545  0.5794
 3760TIP3    H232840   6.199   3.944   8.221 -0.9051 -0.8740 -0.6226
 3761TIP3   OH232841   1.264   0.779   7.341  0.1746  0.4558 -0.1945
 3761TIP3    H132842   1.318   0.858   7.348  2.3948 -0.9886 -0.0225
 3761TIP3    H232843   1.192   0.794   7.401  1.3212  1.7814  0.9294
 3762TIP3   OH232844   6.387   1.880   8.443  0.4652 -0.4696 -0.2966
 3762TIP3    H132845   6.444   1.932   8.387  0.2982  0.4512  0.3738
 3762TIP3    H232846   6.326   1.838   8.383  1.1595 -0.6115 -0.9207
 3763TIP3   OH232847   4.838   6.532   8.557  0.4669  0.3498  0.0950
 3763TIP3    H132848   4.773   6.473   8.597  0.8795 -0.6412 -0.6462
 3763TIP3    H232849   4.821   6.525   8.463 -0.1690  2.2648  0.0350
 3764TIP3   OH232850   1.412   3.256   1.946 -0.0945  0.0978 -0.9515
 3764TIP3    H132851   1.485   3.310   1.977  0.9007 -0.7496 -1.7516
 3764TIP3    H232852   1.360   3.316   1.892 -2.4258  1.9093  2.8430
 3765TIP3   OH232853   2.299   4.637   7.968 -0.0450 -0.9444  0.2188
 3765TIP3    H132854   2.324   4.729   7.961 -0.3576 -0.8483  0.3172
 3765TIP3    H232855   2.297   4.605   7.878 -0.7166 -0.6369  0.1187
 3766TIP3   OH232856   0.704   5.678   1.072  0.3140 -0.4554 -0.1820
 3766TIP3    H132857   0.645   5.678   1.147  0.2350  1.5556 -0.2067
 3766TIP3    H232858   0.791   5.679   1.110  0.2822 -0.0831 -0.1167
 3767TIP3   OH232859   4.952   1.763   6.792 -0.6620 -0.1233 -0.4519
 3767TIP3    H132860   4.974   1.818   6.716 -0.0200 -1.9764 -1.6867
 3767TIP3    H232861   4.872   1.717   6.765 -0.3913 -0.8435 -0.0488
 3768TIP3   OH232862   0.788   5.371   1.947 -0.0148 -0.2424  0.2592
 3768TIP3    H132863   0.821   5.453   1.984  2.8310 -1.6923  1.1589
 3768TIP3    H232864   0.766   5.393   1.856 -1.8310  2.0522  1.1249
 3769TIP3   OH232865   2.370   1.359   7.695  0.0620 -0.3163  0.5474
 3769TIP3    H132866   2.303   1.325   7.636  0.6150  1.0834 -0.9323
 3769TIP3    H232867   2.451   1.353   7.646  1.1900 -2.4022  2.4738
 3770TIP3   OH232868   0.856   1.347   7.659 -0.4699 -0.8266  0.4469
 3770TIP3    H132869   0.951   1.347   7.646 -0.2211 -2.0265  1.9827
 3770TIP3    H232870   0.833   1.440   7.663  0.5241 -0.5066 -0.5719
 3771TIP3   OH232871   2.879   1.435   0.714  0.0484  0.2625 -0.0530
 3771TIP3    H132872   2.948   1.478   0.664 -0.9088  0.6266 -1.1147
 3771TIP3    H232873   2.913   1.430   0.803  1.5135  0.2443 -0.5910
 3772TIP3   OH232874   5.331   3.197   7.481  0.3828  0.5480  0.1802
 3772TIP3    H132875   5.351   3.229   7.393  2.0400 -2.4155 -0.6734
 3772TIP3    H232876   5.403   3.228   7.536  1.1219 -0.3017 -0.2811
 3773TIP3   OH232877   5.507   0.433   7.254  0.6251  0.0004  0.0666
 3773TIP3    H132878   5.436   0.457   7.314 -0.3485 -1.3944 -0.4671
 3773TIP3    H232879   5.525   0.512   7.204 -0.7312  0.3250  0.0572
 3774TIP3   OH232880   0.806   6.742   0.630  0.1804 -0.4143  0.5803
 3774TIP3    H132881   0.863   6.806   0.671  0.1207  1.1660 -1.6200
 3774TIP3    H232882   0.718   6.767   0.657  0.0900  0.9941 -0.8491
 3775TIP3   OH232883   3.731   4.594   8.551 -0.1556 -0.3785 -0.0208
 3775TIP3    H132884   3.644   4.617   8.518 -0.4556  0.3076  1.1890
 3775TIP3    H232885   3.734   4.498   8.545 -0.9698 -0.4078 -0.1304
 3776TIP3   OH232886   2.859   4.477   6.260 -0.0057  0.2270 -0.4102
 3776TIP3    H132887   2.912   4.550   6.289  1.3927 -0.5996 -0.7929
 3776TIP3    H232888   2.894   4.401   6.307  0.6632 -0.7092 -2.3175
 3777TIP3   OH232889   5.800   5.025   2.096  0.3748 -0.5145  0.5106
 3777TIP3    H132890   5.774   5.028   2.188  1.7228 -3.0177  1.0400
 3777TIP3    H232891   5.752   5.098   2.056 -0.5477  0.4103  3.0854
 3778TIP3   OH232892   0.295   4.193   1.045 -0.1970  0.3924 -0.1242
 3778TIP3    H132893   0.258   4.229   0.964 -1.7212 -0.0824  0.3229
 3778TIP3    H232894   0.287   4.098   1.034 -1.8183  0.3333  1.1506
 3779TIP3   OH232895   2.765   1.928   1.006  0.3477  0.1827  0.4453
 3779TIP3    H132896   2.671   1.911   1.000  0.2162  1.3157 -1.3145
 3779TIP3    H232897   2.774   1.992   1.076 -0.3628  1.1430 -0.3236
 3780TIP3   OH232898   1.040   2.366   7.268 -0.4026 -0.9092  0.4301
 3780TIP3    H132899   1.067   2.447   7.224  0.8363 -1.9533 -0.8225
 3780TIP3    H232900   1.009   2.395   7.354 -0.9331  0.9896 -0.3463
 3781TIP3   OH232901   1.559   4.264   7.347 -0.5613  0.5758 -0.3010
 3781TIP3    H132902   1.537   4.349   7.310 -1.4851 -0.0947 -1.3478
 3781TIP3    H232903   1.481   4.238   7.396 -0.3211  0.2797 -0.0714
 3782TIP3   OH232904   1.780   0.679   7.463 -0.0840 -0.1962 -0.1194
 3782TIP3    H132905   1.763   0.642   7.376 -0.0099 -0.4164 -0.0413
 3782TIP3    H232906   1.729   0.625   7.522 -3.5359  2.4232 -0.3854
 3783TIP3   OH232907   3.101   2.295   0.252  0.0967  0.0271 -0.1111
 3783TIP3    H132908   3.196   2.295   0.266  0.1753 -0.0276 -0.6210
 3783TIP3    H232909   3.069   2.365   0.309  0.6316  1.1184 -1.1098
 3784TIP3   OH232910   1.253   2.562   6.806  0.1832 -0.3275  0.2138
 3784TIP3    H132911   1.221   2.649   6.783 -1.3044 -0.8599  0.1536
 3784TIP3    H232912   1.313   2.539   6.735 -1.3118 -0.3344 -1.1050
 3785TIP3   OH232913   3.382   5.571   0.397 -0.2564 -0.4424  0.2732
 3785TIP3    H132914   3.341   5.651   0.362 -0.0301 -0.3989  0.1075
 3785TIP3    H232915   3.414   5.597   0.484 -1.0271 -0.6142  0.6185
 3786TIP3   OH232916   0.673   6.555   8.288 -0.3182 -0.2679 -0.2841
 3786TIP3    H132917   0.609   6.621   8.315 -1.0395 -0.8585 -0.5373
 3786TIP3    H232918   0.681   6.497   8.364 -1.8315 -1.5296 -1.0337
 3787TIP3   OH232919   3.444   5.682   0.042 -0.5294 -0.1529  0.0693
 3787TIP3    H132920   3.380   5.626  -0.003 -1.6670  1.5477 -0.5053
 3787TIP3    H232921   3.397   5.714   0.119 -0.5799  1.4799 -0.5985
 3788TIP3   OH232922   4.147   5.449   2.327  0.1804 -0.1430  0.0006
 3788TIP3    H132923   4.111   5.360   2.329 -0.4858  0.1246  0.9749
 3788TIP3    H232924   4.177   5.461   2.238 -1.2471 -0.7561 -0.5969
 3789TIP3   OH232925   0.974   5.702   1.413 -0.7479  0.6438 -0.3773
 3789TIP3    H132926   0.884   5.725   1.435 -1.2333  0.2897 -1.8757
 3789TIP3    H232927   0.967   5.652   1.331  0.8308  0.9180 -0.7180
 3790TIP3   OH232928   2.597   1.815   7.271 -0.5177 -0.7339 -0.0581
 3790TIP3    H132929   2.532   1.869   7.226  0.1056 -1.0684 -1.4239
 3790TIP3    H232930   2.561   1.801   7.358 -1.8327 -0.1436 -0.4847
 3791TIP3   OH232931   5.075   1.458   8.366 -0.3392 -0.0859 -0.4423
 3791TIP3    H132932   5.065   1.524   8.435  0.7480 -0.3342 -0.0248
 3791TIP3    H232933   5.050   1.376   8.407 -0.1635 -0.1621 -0.4864
 3792TIP3   OH232934   6.672   5.121   6.793 -0.2040  0.2143 -0.4757
 3792TIP3    H132935   6.585   5.160   6.787 -1.3617 -2.2498 -1.4431
 3792TIP3    H232936   6.683   5.100   6.886 -1.2829 -0.6818 -0.5248
 3793TIP3   OH232937   3.027   4.617   1.620  0.1259 -0.0507 -0.1844
 3793TIP3    H132938   3.011   4.526   1.644 -1.3550  0.3129  0.2918
 3793TIP3    H232939   2.945   4.646   1.581  0.2122  1.3891  0.6405
 3794TIP3   OH232940   5.880   4.365   0.799  0.8725  0.4451  0.2487
 3794TIP3    H132941   5.966   4.406   0.807 -0.0902  2.5242  0.4942
 3794TIP3    H232942   5.823   4.434   0.767 -1.1666 -0.2884  2.0636
 3795TIP3   OH232943   2.361   3.975   7.162  0.8291  0.4763  0.2933
 3795TIP3    H132944   2.278   4.016   7.139  0.7255  0.7874  1.1739
 3795TIP3    H232945   2.371   3.904   7.099 -0.3528  0.1261  0.4720
 3796TIP3   OH232946   6.706   3.474   8.534  0.0851  0.3350 -0.1081
 3796TIP3    H132947   6.758   3.515   8.465 -0.7830  0.8409 -0.4898
 3796TIP3    H232948   6.659   3.404   8.488  0.3463 -0.0503  0.2082
 3797TIP3   OH232949   1.945   1.808   8.366 -0.1738 -0.0092  0.2817
 3797TIP3    H132950   1.931   1.885   8.311 -0.3807  0.3610  0.8485
 3797TIP3    H232951   2.006   1.838   8.433  0.8514 -0.7250 -0.2939
 3798TIP3   OH232952   0.939   1.193   8.186  0.4133 -0.7121 -1.3942
 3798TIP3    H132953   1.020   1.154   8.151  1.1852  0.7620 -1.3010
 3798TIP3    H232954   0.870   1.153   8.134  1.0086 -3.3021 -0.3601
 3799TIP3   OH232955   3.741   5.710   1.922 -0.4769  0.1392 -0.5934
 3799TIP3    H132956   3.662   5.743   1.965 -0.3165  1.3085 -1.1468
 3799TIP3    H232957   3.804   5.698   1.993 -0.9971 -0.3580 -0.2082
 3800TIP3   OH232958   2.974   1.035   6.916  0.2496 -0.9129  0.1054
 3800TIP3    H132959   3.049   1.038   6.857  1.4533 -1.9630  1.4975
 3800TIP3    H232960   2.958   1.126   6.939 -0.8831 -0.3680 -2.5191
 3801TIP3   OH232961   0.837   3.776   7.279  0.5842 -0.0529  0.3056
 3801TIP3    H132962   0.761   3.746   7.228 -0.4180  0.1115  1.6570
 3801TIP3    H232963   0.842   3.714   7.352  2.0308 -0.3114  0.0143
 3802TIP3   OH232964   5.331   5.188   7.120 -0.2396  0.3244 -0.3090
 3802TIP3    H132965   5.270   5.117   7.102 -0.3293 -0.0268  1.2633
 3802TIP3    H232966   5.279   5.255   7.164  0.2354  0.5714 -0.1122
 3803TIP3   OH232967   5.775   0.245   8.063  0.4844  0.2742  0.4124
 3803TIP3    H132968   5.742   0.169   8.111  2.0744 -1.9725 -1.7938
 3803TIP3    H232969   5.698   0.285   8.023 -0.1153 -2.8990 -1.9762
 3804TIP3   OH232970   1.714   5.355   8.354 -0.0457  0.3399 -0.0098
 3804TIP3    H132971   1.620   5.343   8.337  0.2762 -1.6466 -0.6076
 3804TIP3    H232972   1.717   5.421   8.423 -1.8577  0.8169 -0.3366
 3805TIP3   OH232973   0.688   6.670   6.814  0.4129 -0.0169 -0.5078
 3805TIP3    H132974   0.690   6.740   6.879 -0.8177 -1.8613  1.6912
 3805TIP3    H232975   0.619   6.694   6.753  0.3008  0.8762 -0.0429
 3806TIP3   OH232976   5.857   1.772   1.250 -0.2192 -0.0473  0.1023
 3806TIP3    H132977   5.785   1.763   1.188 -1.4293  1.8239  1.1310
 3806TIP3    H232978   5.866   1.686   1.290 -1.5714 -0.4446 -0.3869
 3807TIP3   OH232979   4.361   3.397   7.628  0.2444 -0.2057  0.4576
 3807TIP3    H132980   4.331   3.329   7.688 -0.8949 -0.4643 -0.3523
 3807TIP3    H232981   4.360   3.355   7.542 -0.2922  0.7584 -0.0299
 3808TIP3   OH232982   3.316   4.378   6.541  0.1776 -0.1528  0.4456
 3808TIP3    H132983   3.222   4.372   6.526  0.0862  0.0414  0.9266
 3808TIP3    H232984   3.345   4.288   6.553 -0.2473 -0.0959  2.0644
 3809TIP3   OH232985   3.928   2.634   8.354  0.1509  0.1011 -0.2683
 3809TIP3    H132986   3.840   2.609   8.381 -0.3849  0.8349 -1.2549
 3809TIP3    H232987   3.985   2.566   8.391 -0.9578 -1.1200 -0.7271
 3810TIP3   OH232988   3.863   0.019   8.262  0.4314  0.4431  0.7526
 3810TIP3    H132989   3.953  -0.002   8.237 -0.0842 -3.0678  1.3379
 3810TIP3    H232990   3.858  -0.003   8.355 -1.1768 -0.0264  0.5879
 3811TIP3   OH232991   6.198   0.172   1.413 -0.3191 -0.2651  0.5198
 3811TIP3    H132992   6.120   0.150   1.465  0.1112 -2.8221  0.1895
 3811TIP3    H232993   6.271   0.140   1.466  0.4098  0.6763  0.1034
 3812TIP3   OH232994   3.953   2.897   8.686 -0.2434  0.2193  0.3731
 3812TIP3    H132995   4.001   2.814   8.693 -1.4262 -0.6757 -1.4949
 3812TIP3    H232996   3.890   2.894   8.758 -0.1777 -0.4470  0.4086
 3813TIP3   OH232997   2.070   4.097   7.129 -0.4298 -0.2226  0.0622
 3813TIP3    H132998   2.030   4.097   7.216 -0.4047 -0.7060  0.0758
 3813TIP3    H232999   1.997   4.079   7.069 -0.4001 -0.1586  0.0064
 3814TIP3   OH233000   4.613   1.980   7.347  0.7055  0.4156 -0.1016
 3814TIP3    H133001   4.632   1.939   7.431 -0.9407 -2.5309 -1.0216
 3814TIP3    H233002   4.591   2.071   7.369  0.2329 -0.2848  2.6586
 3815TIP3   OH233003   2.117   4.884   1.684 -0.0049 -0.2518 -0.0280
 3815TIP3    H133004   2.113   4.792   1.657  2.0637 -0.6600  0.8613
 3815TIP3    H233005   2.165   4.882   1.767 -0.5857  1.5840  0.3881
 3816TIP3   OH233006   6.617   6.223   1.361  0.2627  0.1314 -0.1986
 3816TIP3    H133007   6.635   6.200   1.270  2.5911  0.0084  0.2409
 3816TIP3    H233008   6.661   6.156   1.412  0.7505  1.3560  1.0376
 3817TIP3   OH233009   5.789   0.594   6.943 -0.2846  0.5480  0.3601
 3817TIP3    H133010   5.708   0.597   6.892 -0.2333 -1.8267  0.0289
 3817TIP3    H233011   5.857   0.625   6.883 -0.6884  0.9605  0.1035
 3818TIP3   OH233012   1.506   5.996   7.136  0.2345 -0.1988 -0.7296
 3818TIP3    H133013   1.560   5.921   7.113 -0.2270 -0.5876 -0.5545
 3818TIP3    H233014   1.567   6.071   7.133  0.1517 -0.1712 -3.4171
 3819TIP3   OH233015   3.583   1.517   7.488  0.0194 -0.2008 -0.3669
 3819TIP3    H133016   3.549   1.472   7.566  1.4964 -0.6138  0.0630
 3819TIP3    H233017   3.671   1.482   7.477 -0.2899 -0.4535 -2.4739
 3820TIP3   OH233018   2.344   4.685   6.661  0.1315  0.6014 -0.2076
 3820TIP3    H133019   2.313   4.703   6.749  0.6881  0.7272 -0.0322
 3820TIP3    H233020   2.300   4.751   6.606  0.0025  0.7016  0.0159
 3821TIP3   OH233021   0.521   5.144   7.111 -0.1424 -0.3349 -0.3428
 3821TIP3    H133022   0.442   5.104   7.148 -1.8617  0.1522 -3.1659
 3821TIP3    H233023   0.505   5.238   7.117  0.4799 -0.2182 -0.4637
 3822TIP3   OH233024   3.234   5.686   7.255  0.2026  0.0945 -0.8887
 3822TIP3    H133025   3.311   5.714   7.304 -0.1465  0.9637 -0.8319
 3822TIP3    H233026   3.201   5.765   7.213 -0.1068 -0.4468 -1.6960
 3823TIP3   OH233027   1.761   6.455   8.440  0.3564  0.4010  0.1843
 3823TIP3    H133028   1.772   6.361   8.453 -1.1185  0.1257 -0.3665
 3823TIP3    H233029   1.835   6.495   8.486  0.1012 -0.9442  1.8586
 3824TIP3   OH233030   4.647   3.389   7.876  0.3410 -0.2324  0.2690
 3824TIP3    H133031   4.654   3.298   7.845 -0.2206 -0.1615 -0.0900
 3824TIP3    H233032   4.715   3.397   7.943  1.7069 -0.3437 -1.0645
 3825TIP3   OH233033   3.835   6.316   0.848 -0.4846 -0.0161 -0.3991
 3825TIP3    H133034   3.846   6.289   0.939 -1.0046  0.6323 -0.1428
 3825TIP3    H233035   3.747   6.353   0.844  0.1466  1.5086 -0.7782
 3826TIP3   OH233036   5.492   1.438   7.496  0.4338  0.4492  0.3254
 3826TIP3    H133037   5.483   1.440   7.591 -0.3179 -1.6494  0.3460
 3826TIP3    H233038   5.436   1.508   7.464 -1.4523 -0.5428  1.3353
 3827TIP3   OH233039   4.701   0.748   7.929 -0.0318 -0.1948 -0.4482
 3827TIP3    H133040   4.691   0.692   7.852  0.9394  0.2974 -0.9473
 3827TIP3    H233041   4.713   0.687   8.002 -1.8129 -0.6846 -0.5305
 3828TIP3   OH233042   5.000   3.732   0.706  0.1173 -0.7230  0.0479
 3828TIP3    H133043   4.949   3.813   0.698 -0.0744 -0.9013 -0.6567
 3828TIP3    H233044   4.979   3.683   0.626  0.8353 -1.1203  0.0950
 3829TIP3   OH233045   4.077   2.065   7.974  0.0162 -0.7543 -0.0515
 3829TIP3    H133046   4.150   2.094   7.919 -0.5710 -0.6534 -0.7931
 3829TIP3    H233047   4.040   1.991   7.928 -0.9306 -0.2253 -0.1650
 3830TIP3   OH233048   6.650   3.788   0.336  0.3671  0.5607  0.1110
 3830TIP3    H133049   6.578   3.750   0.286  1.2676  0.3696 -1.1097
 3830TIP3    H233050   6.627   3.880   0.347 -1.0435  0.0669  1.6144
 3831TIP3   OH233051   4.024   1.718   6.475 -0.3223  0.5583 -0.1763
 3831TIP3    H133052   4.061   1.633   6.498  0.2358  1.0155  0.6609
 3831TIP3    H233053   3.930   1.706   6.480 -0.2843 -0.2651 -1.0314
 3832TIP3   OH233054   0.969   2.742   7.052  0.2937  0.4135  0.5220
 3832TIP3    H133055   1.057   2.775   7.038  1.1917 -0.2047  3.8067
 3832TIP3    H233056   0.928   2.744   6.966  3.3658  1.0819 -1.0440
 3833TIP3   OH233057   1.371   2.512   7.596  0.2218 -0.6942  0.5766
 3833TIP3    H133058   1.450   2.472   7.559 -0.9585 -0.5147 -2.4282
 3833TIP3    H233059   1.331   2.442   7.647  1.2610 -1.4160  0.4514
 3834TIP3   OH233060   6.671   3.302   1.471  0.1153 -0.3763  0.1407
 3834TIP3    H133061   6.640   3.216   1.444  0.3998 -0.5055  0.2157
 3834TIP3    H233062   6.766   3.293   1.475  0.2638  0.3295 -1.1893
 3835TIP3   OH233063   1.543   2.852   7.780 -0.2183 -0.5509  0.6891
 3835TIP3    H133064   1.587   2.898   7.852 -2.0622  0.5018  1.1889
 3835TIP3    H233065   1.502   2.777   7.822 -1.5099  0.2035  0.8230
 3836TIP3   OH233066   0.816   0.983   8.020 -0.4070  0.1181 -0.3898
 3836TIP3    H133067   0.759   0.908   8.003  1.8154 -1.3433 -2.0079
 3836TIP3    H233068   0.817   1.032   7.938 -1.9921  2.1336  0.7067
 3837TIP3   OH233069   1.973   1.818   6.688  0.4906 -0.3127 -0.0980
 3837TIP3    H133070   1.962   1.913   6.686 -3.1483 -0.5422  1.4921
 3837TIP3    H233071   1.946   1.788   6.601  0.7366  0.0378 -0.2949
 3838TIP3   OH233072   2.871   3.001   8.598  0.0380 -0.2398 -0.5620
 3838TIP3    H133073   2.818   3.044   8.531 -1.0591  2.4779  1.8214
 3838TIP3    H233074   2.950   3.055   8.605 -0.4595  0.3612  1.1219
 3839TIP3   OH233075   0.896   1.938   6.787  0.2064  0.2567 -0.8587
 3839TIP3    H133076   0.901   1.911   6.695 -1.9755 -0.6596 -0.7591
 3839TIP3    H233077   0.814   1.986   6.793 -0.3951 -0.9003  0.8711
 3840TIP3   OH233078   0.774   1.644   8.130  0.0365  0.0114 -0.0396
 3840TIP3    H133079   0.867   1.660   8.116  0.4788 -0.6799  1.8064
 3840TIP3    H233080   0.771   1.575   8.197 -1.7940  1.1877  1.1789
 3841TIP3   OH233081   6.081   2.826   0.567  0.3267  0.0456 -0.0282
 3841TIP3    H133082   6.145   2.897   0.565  0.2633  0.2303  2.1212
 3841TIP3    H233083   6.010   2.858   0.622 -0.3777 -1.1656 -0.1793
 3842TIP3   OH233084   0.810   1.636   7.683 -0.2040 -0.1947 -0.1341
 3842TIP3    H133085   0.886   1.663   7.735  0.1794  0.1843 -0.8748
 3842TIP3    H233086   0.813   1.692   7.605 -1.2427 -0.1856 -0.1800
 3843TIP3   OH233087   5.634   1.103   6.676  1.0890 -0.6584  0.1677
 3843TIP3    H133088   5.601   1.013   6.686 -0.3492 -0.1939 -0.2495
 3843TIP3    H233089   5.642   1.115   6.582  1.5254 -0.4178  0.2320
 3844TIP3   OH233090   0.329   3.600   0.346 -0.4313  0.0904 -0.2079
 3844TIP3    H133091   0.363   3.528   0.293 -2.1947 -1.1576  0.2996
 3844TIP3    H233092   0.403   3.625   0.401  0.5899 -0.4419 -1.2854
 3845TIP3   OH233093   6.019   1.526   2.067  0.6221 -0.3165  0.4190
 3845TIP3    H133094   6.064   1.589   2.011  0.8604 -1.9647 -1.3158
 3845TIP3    H233095   6.014   1.446   2.015 -2.0323 -0.9798  1.5416
 3846TIP3   OH233096   6.272   3.302   1.525 -0.1542  0.4298 -0.4401
 3846TIP3    H133097   6.312   3.252   1.454 -0.3811 -0.0390 -0.2412
 3846TIP3    H233098   6.185   3.264   1.535  0.2262 -0.1958  0.7548
 3847TIP3   OH233099   3.694   6.069   0.082 -0.6613  0.3700 -0.3419
 3847TIP3    H133100   3.731   6.039   0.165 -1.1816  1.1676  0.1827
 3847TIP3    H233101   3.606   6.098   0.103 -0.4584  1.5123 -0.9819
 3848TIP3   OH233102   2.011   4.155   1.395  0.3016 -0.7195 -0.0855
 3848TIP3    H133103   2.071   4.173   1.323  0.5437 -0.6184  0.1391
 3848TIP3    H233104   1.949   4.228   1.394 -0.0067 -0.9823 -0.5112
 3849TIP3   OH233105   5.295   2.126   7.440  0.0687 -0.0269  0.0114
 3849TIP3    H133106   5.310   2.134   7.534 -0.0287  1.5447 -0.0830
 3849TIP3    H233107   5.383   2.122   7.402  0.1692 -2.9892  0.2600
 3850TIP3   OH233108   3.949   1.049   6.578  0.4365 -0.4338  0.5280
 3850TIP3    H133109   3.930   0.984   6.510 -1.3264  1.1629 -0.6134
 3850TIP3    H233110   4.029   1.017   6.620  0.5080 -2.4904 -1.0108
 3851TIP3   OH233111   0.149   3.474   0.826  0.0570  0.0833 -0.8438
 3851TIP3    H133112   0.222   3.480   0.888 -0.0742  2.3664 -0.8071
 3851TIP3    H233113   0.188   3.439   0.746  0.3581 -2.3019  0.2673
 3852TIP3   OH233114   4.564   5.375   6.707 -0.1379  0.9767 -0.6016
 3852TIP3    H133115   4.603   5.374   6.794 -0.9609  2.1493 -0.1853
 3852TIP3    H233116   4.639   5.378   6.647  0.4309  0.7161  0.0871
 3853TIP3   OH233117   5.454   6.243   8.525 -0.3367  0.0187 -0.8761
 3853TIP3    H133118   5.388   6.278   8.584 -0.6320 -0.6580 -0.7863
 3853TIP3    H233119   5.403   6.203   8.454 -0.0331 -0.5073 -0.8054
 3854TIP3   OH233120   6.241   0.619   7.678 -0.2673 -0.3011 -0.0302
 3854TIP3    H133121   6.221   0.588   7.590  3.0355  0.0082 -1.0090
 3854TIP3    H233122   6.175   0.687   7.695 -0.2476  0.5283 -2.7778
 3855TIP3   OH233123   1.231   1.945   0.471 -0.6831  0.5282  0.4852
 3855TIP3    H133124   1.153   1.928   0.525 -0.6214 -1.1259  0.0734
 3855TIP3    H233125   1.290   1.873   0.490  0.8732  1.8451  0.9235
 3856TIP3   OH233126   5.724   0.161   0.108  0.1960  0.5379  0.0881
 3856TIP3    H133127   5.628   0.155   0.110  0.1119  1.6597 -0.1479
 3856TIP3    H233128   5.747   0.192   0.196  0.5506 -1.8824  0.9439
 3857TIP3   OH233129   3.365   1.922   0.039 -0.1590 -0.1492 -0.7834
 3857TIP3    H133130   3.318   1.897   0.119 -0.9732 -0.3405 -1.3113
 3857TIP3    H233131   3.330   2.009   0.016  0.6261  0.2511 -0.5189
 3858TIP3   OH233132   2.364   1.143   0.181  0.1572  0.4345  0.1285
 3858TIP3    H133133   2.361   1.215   0.244  0.2745  1.9161 -1.4552
 3858TIP3    H233134   2.308   1.075   0.219 -0.4260  1.5881  1.4319
 3859TIP3   OH233135   0.682   0.769   0.749  0.0392  0.1788  0.6666
 3859TIP3    H133136   0.732   0.703   0.796 -0.3510 -0.0968  0.6943
 3859TIP3    H233137   0.595   0.732   0.740  0.5117 -0.5550 -1.8075
 3860TIP3   OH233138   6.026   5.038   1.936 -0.1100 -0.0766 -0.1097
 3860TIP3    H133139   6.055   5.128   1.950 -0.5077  0.2372 -1.1648
 3860TIP3    H233140   5.934   5.037   1.962 -0.2695 -0.0219 -0.6643
 3861TIP3   OH233141   3.749   0.733   0.092 -0.0207 -0.4937  0.4117
 3861TIP3    H133142   3.833   0.772   0.067  0.7061 -1.6251  1.0063
 3861TIP3    H233143   3.684   0.800   0.070  0.9719  0.1599 -0.6345
 3862TIP3   OH233144   1.033   1.739   1.036  0.1808 -0.0808 -0.5964
 3862TIP3    H133145   1.094   1.754   1.109  1.0849 -0.3447 -1.2770
 3862TIP3    H233146   0.977   1.668   1.067  1.8173 -1.5670 -0.8593
 3863TIP3   OH233147   6.739   2.259   7.573  0.1590  0.6829  0.6265
 3863TIP3    H133148   6.788   2.315   7.633  2.3110 -1.1694  0.7174
 3863TIP3    H233149   6.796   2.251   7.496 -1.1736  0.4863 -0.3791
 3864TIP3   OH233150   4.084   1.780   0.238 -0.5757  0.2902 -0.7251
 3864TIP3    H133151   4.023   1.709   0.219 -1.4120  0.5517  0.8123
 3864TIP3    H233152   4.098   1.824   0.154 -1.7071 -0.3947 -1.2865
 3865TIP3   OH233153   2.064   1.762   1.695  0.4566 -0.3535 -0.0324
 3865TIP3    H133154   2.111   1.837   1.659 -0.5328 -0.2300 -1.1319
 3865TIP3    H233155   2.132   1.705   1.729  1.2510  0.8198  0.3766
 3866TIP3   OH233156   4.710   5.833   7.134 -0.0115  0.4445 -0.0982
 3866TIP3    H133157   4.659   5.866   7.059 -1.0311 -0.5162  0.1405
 3866TIP3    H233158   4.662   5.756   7.163  0.9046  0.2485  0.9598
 3867TIP3   OH233159   5.987   1.075   0.078 -0.1950 -0.2484 -0.4106
 3867TIP3    H133160   5.952   1.120   0.000  1.1130 -0.9140 -1.4189
 3867TIP3    H233161   6.081   1.068   0.061  0.3404  0.6895  1.8110
 3868TIP3   OH233162   6.526   1.686   6.894  0.2986 -0.1998  0.0464
 3868TIP3    H133163   6.562   1.623   6.957  0.4589 -0.2075 -0.0535
 3868TIP3    H233164   6.599   1.706   6.836  1.2963  2.6561  2.0764
 3869TIP3   OH233165   5.206   4.079   2.049 -0.3648  0.2718  0.2551
 3869TIP3    H133166   5.187   4.096   2.141  0.3096  0.3433  0.3925
 3869TIP3    H233167   5.209   3.983   2.043  1.2445  0.2633  0.6922
 3870TIP3   OH233168   5.188   5.884   8.313 -0.2466 -0.3275 -0.0538
 3870TIP3    H133169   5.129   5.856   8.383 -0.1592 -1.1365 -0.2930
 3870TIP3    H233170   5.134   5.941   8.258 -0.3411  0.2400  0.6144
 3871TIP3   OH233171   5.646   3.363   0.372  0.0540  0.3775  0.2606
 3871TIP3    H133172   5.615   3.448   0.339 -2.2668 -0.7559 -0.7096
 3871TIP3    H233173   5.620   3.363   0.465  2.1415  1.5906  0.8996
 3872TIP3   OH233174   4.150   4.310   7.698  0.4018  0.0651  0.2614
 3872TIP3    H133175   4.230   4.266   7.727  1.0383 -0.1696 -1.7106
 3872TIP3    H233176   4.125   4.364   7.773  2.2331 -0.0755  1.0482
 3873TIP3   OH233177   5.600   0.891   1.357 -0.2045 -0.0221 -0.3549
 3873TIP3    H133178   5.595   0.822   1.291  1.9382 -1.1620  0.5891
 3873TIP3    H233179   5.670   0.949   1.326  0.1207 -0.0006  0.3980
 3874TIP3   OH233180   2.903   6.526   6.261  0.5742 -0.6165 -0.5253
 3874TIP3    H133181   2.978   6.584   6.274  0.7656 -1.1731  1.0234
 3874TIP3    H233182   2.893   6.481   6.345 -1.7441 -0.2664 -0.5593
 3875TIP3   OH233183   2.709   4.360   8.500  0.3140 -0.2528  0.0812
 3875TIP3    H133184   2.776   4.428   8.509 -1.8078  2.0645 -0.5190
 3875TIP3    H233185   2.676   4.347   8.589 -1.7298  2.2911 -0.1964
 3876TIP3   OH233186   3.780   4.637   6.135  0.6864  0.0245  0.1732
 3876TIP3    H133187   3.740   4.552   6.114  1.6940 -1.2009  2.8177
 3876TIP3    H233188   3.740   4.698   6.073  0.1766 -2.4125 -2.0751
 3877TIP3   OH233189   4.229   1.480   6.930 -0.4211 -0.3581 -0.0083
 3877TIP3    H133190   4.292   1.484   7.001 -1.1546 -1.1141  0.7014
 3877TIP3    H233191   4.152   1.527   6.963  0.2360  1.8373 -1.4035
 3878TIP3   OH233192   3.276   2.551   7.138  0.1658 -0.1852  0.5075
 3878TIP3    H133193   3.255   2.560   7.231  1.3414  0.3015  0.7451
 3878TIP3    H233194   3.371   2.561   7.134  0.3815 -2.1661 -0.5133
 3879TIP3   OH233195   1.084   6.661   0.390 -0.2750  0.8726  0.8862
 3879TIP3    H133196   1.138   6.604   0.335  0.5560  1.6009  0.9257
 3879TIP3    H233197   1.080   6.616   0.474 -2.7355 -0.9777 -0.0793
 3880TIP3   OH233198   4.497   2.248   0.376  0.4734 -0.0980  0.1661
 3880TIP3    H133199   4.442   2.173   0.399  1.7455 -1.7469 -1.7917
 3880TIP3    H233200   4.464   2.275   0.290  2.1792 -0.6738 -0.7145
 3881TIP3   OH233201   4.591   4.945   6.580  0.9827  0.6077 -0.4519
 3881TIP3    H133202   4.608   4.928   6.487  1.3157 -3.0803  0.1275
 3881TIP3    H233203   4.674   4.928   6.623 -0.0775 -1.7773  0.8492
 3882TIP3   OH233204   0.577   5.953   8.453 -0.0173  0.0759 -0.7447
 3882TIP3    H133205   0.507   5.991   8.401 -0.1801  1.2655  0.2940
 3882TIP3    H233206   0.614   5.884   8.398 -2.3032 -0.9028 -1.1342
 3883TIP3   OH233207   2.276   5.664   7.421  0.2536 -0.0182  0.2515
 3883TIP3    H133208   2.277   5.665   7.517 -1.2361 -0.5275  0.3053
 3883TIP3    H233209   2.346   5.724   7.395  0.7892  0.0003  1.6508
 3884TIP3   OH233210   1.203   2.992   0.425 -1.2866 -0.7174 -0.1577
 3884TIP3    H133211   1.140   2.958   0.488 -1.4306  1.3122  0.8794
 3884TIP3    H233212   1.215   3.084   0.450  0.6520 -0.5405 -1.4820
 3885TIP3   OH233213   1.401   3.558   8.263 -0.0080  0.1010  0.3239
 3885TIP3    H133214   1.320   3.583   8.218  0.9465 -2.0916 -3.0547
 3885TIP3    H233215   1.470   3.589   8.205  1.4603 -0.9068  1.4618
 3886TIP3   OH233216   4.066   5.822   6.806  0.2478  0.5423  0.3886
 3886TIP3    H133217   4.053   5.907   6.764  0.2826 -0.4771 -1.8064
 3886TIP3    H233218   4.015   5.760   6.753 -1.5945 -0.5401  3.2058
 3887TIP3   OH233219   3.242   1.798   7.433 -0.4924  0.3828  0.3426
 3887TIP3    H133220   3.147   1.792   7.419 -0.4252  0.6733 -0.2785
 3887TIP3    H233221   3.263   1.722   7.487 -1.3969  1.4507  2.2726
 3888TIP3   OH233222   3.534   3.820   0.962 -0.0683 -0.0017  0.3845
 3888TIP3    H133223   3.580   3.830   1.045  0.4878 -2.6992  0.4632
 3888TIP3    H233224   3.478   3.744   0.974 -1.2724  0.5660 -1.1894
 3889TIP3   OH233225   6.575   4.049   7.614  0.2098  0.3096 -0.2116
 3889TIP3    H133226   6.544   4.140   7.612  0.9156  0.5983  1.1132
 3889TIP3    H233227   6.667   4.054   7.588 -0.3554 -0.3623 -2.5891
 3890TIP3   OH233228   3.659   4.765   7.930  0.0905 -0.1720 -0.6150
 3890TIP3    H133229   3.747   4.786   7.962 -0.2724  0.4712 -0.0255
 3890TIP3    H233230   3.644   4.828   7.859 -0.4066  0.6100  0.1631
 3891TIP3   OH233231   3.398   5.868   0.333  0.4015  0.4139  0.2172
 3891TIP3    H133232   3.474   5.890   0.387  0.7648  1.6453 -0.7463
 3891TIP3    H233233   3.388   5.942   0.274  0.0535 -0.8866 -1.4485
 3892TIP3   OH233234   0.871   5.296   1.234  0.4898 -0.5328  0.4073
 3892TIP3    H133235   0.788   5.253   1.213  0.0545 -0.2368  1.4334
 3892TIP3    H233236   0.938   5.232   1.209 -0.0608 -0.8957 -0.1586
 3893TIP3   OH233237   1.019   1.827   7.197  0.0259 -0.1753 -0.5050
 3893TIP3    H133238   1.101   1.778   7.199  0.9522  1.2991 -0.7837
 3893TIP3    H233239   1.046   1.919   7.192 -1.6017  0.2787 -2.7192
 3894TIP3   OH233240   5.251   0.027   7.336 -0.6797 -0.6785 -0.1643
 3894TIP3    H133241   5.159   0.048   7.353 -0.1967  0.7542  0.8372
 3894TIP3    H233242   5.276   0.086   7.265 -0.3169 -0.4714  0.1331
 3895TIP3   OH233243   4.252   2.143   1.361  0.7620 -0.9057  0.3433
 3895TIP3    H133244   4.243   2.128   1.455 -1.2843  0.9853  0.5339
 3895TIP3    H233245   4.232   2.059   1.321 -1.1585 -1.0868  1.5599
 3896TIP3   OH233246   6.574   3.454   7.619  0.5131 -0.7254 -0.1796
 3896TIP3    H133247   6.618   3.499   7.691 -0.3724 -2.0838  1.2849
 3896TIP3    H233248   6.539   3.374   7.659 -0.7109 -1.1294 -1.9548
 3897TIP3   OH233249   3.879   5.886   8.712  0.3999 -0.4397  0.0149
 3897TIP3    H133250   3.796   5.928   8.736  0.9631  0.0561  1.1627
 3897TIP3    H233251   3.853   5.812   8.657 -0.8247 -0.4230  0.5450
 3898TIP3   OH233252   4.571   3.377   1.108  0.5143  0.6008  0.4062
 3898TIP3    H133253   4.608   3.289   1.101  0.2546  0.1956  3.0246
 3898TIP3    H233254   4.583   3.401   1.200 -3.1675  1.5622  0.8186
 3899TIP3   OH233255   4.052   1.555   0.417 -0.4044 -0.2368  0.6782
 3899TIP3    H133256   4.110   1.628   0.435 -1.5365  0.7382  0.4975
 3899TIP3    H233257   4.107   1.489   0.374  0.8082  0.1586  1.6060
 3900TIP3   OH233258   1.150   5.070   7.883 -0.2024  0.5293  0.1522
 3900TIP3    H133259   1.224   5.121   7.851 -0.1761  1.1019  1.1031
 3900TIP3    H233260   1.147   4.993   7.825  0.7495  0.7965 -0.2669
 3901TIP3   OH233261   4.598   4.346   0.675 -0.0113  0.0014 -0.0011
 3901TIP3    H133262   4.676   4.396   0.699 -0.5584  0.0205  1.9573
 3901TIP3    H233263   4.624   4.296   0.598  1.5607  0.8772 -0.0781
 3902TIP3   OH233264   5.180   0.884   7.366  0.0778 -0.6650 -0.1861
 3902TIP3    H133265   5.217   0.830   7.436  1.1842  2.0935  1.5315
 3902TIP3    H233266   5.240   0.871   7.292  0.5779 -1.3969  0.3288
 3903TIP3   OH233267   1.895   4.567   6.149  0.7203 -0.3513 -0.4244
 3903TIP3    H133268   1.861   4.628   6.083  0.0908  0.4829  0.6341
 3903TIP3    H233269   1.929   4.623   6.219 -0.0603 -1.1912  0.6739
 3904TIP3   OH233270   3.571   3.301   1.582 -0.1589 -0.0351  0.3101
 3904TIP3    H133271   3.518   3.297   1.502  0.1092  0.1052  0.1263
 3904TIP3    H233272   3.660   3.284   1.553 -0.1603 -0.7348  0.6892
 3905TIP3   OH233273   1.643   6.124   0.193 -0.1656  0.2496  0.3482
 3905TIP3    H133274   1.648   6.050   0.133  2.1137  1.4679 -1.1189
 3905TIP3    H233275   1.561   6.112   0.240 -3.5871  0.5117 -4.7624
 3906TIP3   OH233276   3.916   6.003   1.098 -0.3489 -0.1609 -0.3360
 3906TIP3    H133277   3.965   6.001   1.180  0.6066 -0.7168 -0.9016
 3906TIP3    H233278   3.982   6.019   1.031 -0.9174 -0.9901 -1.1189
 3907TIP3   OH233279   6.190   0.125   0.587 -0.1254 -0.4340  0.0549
 3907TIP3    H133280   6.174   0.039   0.548  0.7971 -0.7578  0.3684
 3907TIP3    H233281   6.182   0.110   0.682 -0.4329 -0.0680  0.0891
 3908TIP3   OH233282   1.844   2.861   0.400 -0.2615 -0.3286 -0.1433
 3908TIP3    H133283   1.895   2.820   0.469 -0.7109 -0.0904  0.3414
 3908TIP3    H233284   1.773   2.800   0.383  1.2870 -1.6661 -2.2896
 3909TIP3   OH233285   3.421   0.988   0.979 -0.1306  0.5400 -0.7826
 3909TIP3    H133286   3.431   1.072   1.026  2.9480 -1.1925  2.1014
 3909TIP3    H233287   3.470   1.000   0.898  0.0460  1.6030 -0.5376
 3910TIP3   OH233288   1.061   4.706   0.981  0.4063  0.2042  0.0871
 3910TIP3    H133289   0.982   4.703   1.036  0.0725 -1.4569 -0.4057
 3910TIP3    H233290   1.131   4.674   1.037  0.2348 -0.6389 -0.1548
 3911TIP3   OH233291   0.997   6.689   0.897  0.1579  0.0728 -0.4326
 3911TIP3    H133292   0.985   6.779   0.868 -0.4798  0.5158  1.0975
 3911TIP3    H233293   0.961   6.688   0.985 -1.6299 -2.1481 -1.1025
 3912TIP3   OH233294   0.234   4.682   0.023 -0.0185  0.2789  0.0366
 3912TIP3    H133295   0.237   4.664   0.116  0.7172 -0.3153 -0.0934
 3912TIP3    H233296   0.303   4.628  -0.015 -2.3404 -1.9793 -1.2993
 3913TIP3   OH233297   0.454   5.608   6.551  0.1868  0.4971 -0.6237
 3913TIP3    H133298   0.547   5.632   6.550  0.5596 -0.7330  0.7170
 3913TIP3    H233299   0.454   5.513   6.541 -0.9479  0.5151 -0.8573
 3914TIP3   OH233300   5.834   1.489   8.539 -0.4798 -0.1383  0.1647
 3914TIP3    H133301   5.790   1.574   8.547 -1.6011 -0.6272 -0.6440
 3914TIP3    H233302   5.927   1.510   8.545 -0.7346  1.1549 -0.1076
 3915TIP3   OH233303   5.681   2.038   1.323  0.7190  0.0313 -0.1198
 3915TIP3    H133304   5.700   2.132   1.326 -0.6464  0.2878  1.7749
 3915TIP3    H233305   5.656   2.022   1.232  1.2403  1.4280 -0.5328
 3916TIP3   OH233306   3.316   4.230   8.244 -0.3152  0.6614  1.0001
 3916TIP3    H133307   3.377   4.304   8.244 -0.3065  0.6615  0.2448
 3916TIP3    H233308   3.230   4.270   8.259 -0.4477  0.9615 -0.4082
 3917TIP3   OH233309   1.982   1.021   0.392 -0.3063 -0.1054  0.2049
 3917TIP3    H133310   2.049   0.957   0.370 -0.0088 -0.4442  1.9745
 3917TIP3    H233311   1.985   1.084   0.320  0.1488 -1.4633 -1.0093
 3918TIP3   OH233312   1.301   0.458   6.106  0.6804 -0.1769 -0.5146
 3918TIP3    H133313   1.311   0.520   6.033  0.1860  0.7585  0.1892
 3918TIP3    H233314   1.243   0.503   6.167 -0.6526 -1.8358 -0.5075
 3919TIP3   OH233315   1.767   2.720   2.068  0.1331  0.8946 -0.0760
 3919TIP3    H133316   1.705   2.764   2.126  0.1805  0.4822  0.2849
 3919TIP3    H233317   1.846   2.708   2.121  0.2978  0.8348 -0.3336
 3920TIP3   OH233318   2.528   4.764   0.248 -0.4479 -0.1048  0.1519
 3920TIP3    H133319   2.506   4.843   0.200 -0.8976  0.4592  1.2378
 3920TIP3    H233320   2.462   4.700   0.222 -0.5315  0.1083 -0.1591
 3921TIP3   OH233321   0.408   2.600   1.855  0.3737  0.2413  0.3023
 3921TIP3    H133322   0.401   2.596   1.950  0.6824 -2.6092  0.3020
 3921TIP3    H233323   0.317   2.604   1.824  0.0645 -1.9183  0.7502
 3922TIP3   OH233324   6.391   3.284   0.825 -0.5486 -0.4235 -0.0436
 3922TIP3    H133325   6.303   3.317   0.809  0.3050  1.6464 -0.9059
 3922TIP3    H233326   6.389   3.193   0.796 -2.4984 -0.5727  0.4318
 3923TIP3   OH233327   2.461   1.530   0.254  0.1342 -0.3785 -0.5438
 3923TIP3    H133328   2.505   1.607   0.291 -0.5354 -0.5586  0.6825
 3923TIP3    H233329   2.522   1.458   0.271 -0.7528 -0.7070  1.5575
 3924TIP3   OH233330   0.126   2.792   0.412 -0.4104 -0.3355 -0.2885
 3924TIP3    H133331   0.137   2.710   0.460  0.8046  0.7283  1.3321
 3924TIP3    H233332   0.200   2.795   0.352 -0.6426 -0.5676 -0.5913
 3925TIP3   OH233333   2.149   5.211   8.140  0.5082  0.1973 -0.4583
 3925TIP3    H133334   2.056   5.231   8.143  0.5234  0.1634  0.5403
 3925TIP3    H233335   2.187   5.280   8.087 -0.1677 -0.1550 -1.4329
 3926TIP3   OH233336   5.956   5.398   0.727 -0.7181 -0.4013  0.0330
 3926TIP3    H133337   6.039   5.363   0.693 -0.9207  0.9886 -2.1411
 3926TIP3    H233338   5.978   5.432   0.814 -0.0115 -3.6713  1.2541
 3927TIP3   OH233339   2.743   4.430   6.814 -0.6692 -0.2630  0.3854
 3927TIP3    H133340   2.673   4.381   6.772 -3.1096  1.2968  2.3158
 3927TIP3    H233341   2.784   4.479   6.743 -1.7851 -0.9523 -0.7635
 3928TIP3   OH233342   1.050   5.875   1.024 -0.3568  0.0561 -0.5002
 3928TIP3    H133343   1.104   5.809   1.067 -0.2572 -0.0279 -0.7525
 3928TIP3    H233344   1.111   5.944   1.000 -0.4909  0.3276 -0.0694
 3929TIP3   OH233345   6.561   1.957   0.100  0.0423 -0.1101  0.4647
 3929TIP3    H133346   6.628   1.889   0.110  0.2184 -0.0817 -0.4918
 3929TIP3    H233347   6.479   1.912   0.122 -0.0249 -1.0398 -1.4719
 3930TIP3   OH233348   3.841   3.803   2.076 -0.2856  0.4542  0.1767
 3930TIP3    H133349   3.752   3.771   2.056  0.1889  0.2052 -1.8140
 3930TIP3    H233350   3.892   3.723   2.087 -0.3504  0.5969  1.7411
 3931TIP3   OH233351   0.887   4.471   7.172  0.1944  0.5771  0.2789
 3931TIP3    H133352   0.944   4.407   7.130 -3.1930 -1.2900 -1.9564
 3931TIP3    H233353   0.892   4.548   7.115  0.5103  0.4435  0.1216
 3932TIP3   OH233354   5.852   1.985   8.025 -0.2987 -0.2999 -0.2542
 3932TIP3    H133355   5.763   1.957   8.004 -0.2928 -0.7456  0.3120
 3932TIP3    H233356   5.880   1.926   8.094  0.6409 -0.5090 -0.8030
 3933TIP3   OH233357   4.456   0.288   0.329  0.6077  0.3683  0.6516
 3933TIP3    H133358   4.468   0.354   0.261 -0.1948  1.8852  1.9127
 3933TIP3    H233359   4.366   0.257   0.316  0.6407  0.2625  0.6779
 3934TIP3   OH233360   0.065   4.610   1.751  0.1810  0.2474 -0.0748
 3934TIP3    H133361   0.127   4.650   1.813 -0.1599 -0.3722  0.6848
 3934TIP3    H233362   0.010   4.683   1.723  0.7098  0.6469 -0.1025
 3935TIP3   OH233363   4.492   1.054   1.103 -0.5446  0.4675 -0.1160
 3935TIP3    H133364   4.428   1.109   1.149 -0.2598 -0.3267  1.2872
 3935TIP3    H233365   4.548   1.019   1.172 -0.0189 -0.6920 -1.0851
 3936TIP3   OH233366   6.227   4.124   2.128 -0.1135 -0.9021  0.3108
 3936TIP3    H133367   6.242   4.154   2.217  0.3641 -0.3465  0.0494
 3936TIP3    H233368   6.211   4.030   2.136 -1.8218 -0.5766  1.1716
 3937TIP3   OH233369   3.359   1.120   0.112  0.0442  0.6579 -0.0850
 3937TIP3    H133370   3.318   1.099   0.196  0.4588  1.2592  0.2740
 3937TIP3    H233371   3.300   1.082   0.046 -1.3169  1.8658  0.3959
 3938TIP3   OH233372   3.784   3.018   7.734 -0.1917  0.0275 -0.2578
 3938TIP3    H133373   3.714   3.074   7.768 -0.2622 -0.8211  1.0626
 3938TIP3    H233374   3.855   3.028   7.796  1.2410  1.5197 -2.0225
 3939TIP3   OH233375   1.017   3.737   1.457 -0.5293 -0.2675 -0.0560
 3939TIP3    H133376   0.946   3.724   1.520 -1.3609  0.6508 -0.7760
 3939TIP3    H233377   1.033   3.649   1.422 -0.9162 -0.5812  0.5281
 3940TIP3   OH233378   0.677   3.036   1.849 -0.3676  0.0674  0.3973
 3940TIP3    H133379   0.644   2.951   1.876 -0.5975  0.2861  0.8067
 3940TIP3    H233380   0.699   3.081   1.931  1.0826 -0.1221  0.1477
 3941TIP3   OH233381   0.768   0.447   7.306  0.4553  0.1527 -0.5302
 3941TIP3    H133382   0.818   0.493   7.239 -0.4488  2.7595  0.4242
 3941TIP3    H233383   0.745   0.515   7.370  0.5636 -2.0167  2.0152
 3942TIP3   OH233384   3.321   6.432   0.229 -0.4574  0.6964  0.3205
 3942TIP3    H133385   3.352   6.345   0.204  1.8296  1.8113 -1.0151
 3942TIP3    H233386   3.283   6.468   0.149 -4.3268 -0.0916  1.5718
 3943TIP3   OH233387   5.797   4.978   0.928  0.7680  0.1984  0.3771
 3943TIP3    H133388   5.845   4.914   0.875 -0.4792 -0.4561 -0.0283
 3943TIP3    H233389   5.745   4.925   0.988  1.3202  0.9127  1.5282
 3944TIP3   OH233390   5.223   5.388   2.021  0.2804 -0.1215 -0.0731
 3944TIP3    H133391   5.252   5.462   1.967  2.4526 -0.8667 -0.0080
 3944TIP3    H233392   5.223   5.314   1.960  0.6105 -0.5560  0.4582
 3945TIP3   OH233393   3.675   2.546   8.377 -0.0898 -0.1221  0.3750
 3945TIP3    H133394   3.702   2.516   8.290 -2.7538 -1.1301 -0.2081
 3945TIP3    H233395   3.617   2.477   8.409 -0.5034  1.0247  2.2550
 3946TIP3   OH233396   4.106   2.334   0.762 -0.3877 -0.1175 -0.2382
 3946TIP3    H133397   4.179   2.367   0.711 -1.1867  2.3932  0.1070
 3946TIP3    H233398   4.141   2.324   0.851 -0.8273  3.0432  0.4119
 3947TIP3   OH233399   1.873   1.262   7.919 -0.0913  0.2128  0.0906
 3947TIP3    H133400   1.873   1.207   7.998 -1.0405  2.6132  1.8677
 3947TIP3    H233401   1.945   1.227   7.867  0.9538 -1.1346  2.2685
 3948TIP3   OH233402   2.623   0.823   7.645  0.0308  0.0331 -0.3885
 3948TIP3    H133403   2.543   0.871   7.625 -0.0580  0.4945  0.9733
 3948TIP3    H233404   2.689   0.890   7.659  0.6148 -0.3415 -1.2411
 3949TIP3   OH233405   1.558   6.840   6.205  0.0409 -0.3568  0.2231
 3949TIP3    H133406   1.601   6.783   6.140 -1.9016 -2.8055  0.9165
 3949TIP3    H233407   1.466   6.843   6.177 -0.2634  0.9918  1.2605
 3950TIP3   OH233408   2.263   3.203   1.698  0.2950  0.0605 -0.3647
 3950TIP3    H133409   2.168   3.191   1.701  0.2733  0.3346  0.0892
 3950TIP3    H233410   2.298   3.134   1.755  0.3470  0.2148 -0.2106
 3951TIP3   OH233411   1.244   0.408   1.665 -0.4730  0.2655 -0.2141
 3951TIP3    H133412   1.190   0.390   1.588 -0.3395  0.5802 -0.3827
 3951TIP3    H233413   1.209   0.351   1.733 -0.2257 -0.4500 -0.6703
 3952TIP3   OH233414   0.736   2.486   6.894  0.4607  0.5288  0.4254
 3952TIP3    H133415   0.669   2.421   6.873 -0.6938  1.1495  1.9566
 3952TIP3    H233416   0.807   2.468   6.832 -1.3808  0.3075 -1.7688
 3953TIP3   OH233417   5.620   3.708   1.967  0.0544  0.3770  0.3926
 3953TIP3    H133418   5.601   3.614   1.967 -1.4164  0.6487 -0.4960
 3953TIP3    H233419   5.699   3.715   1.912  1.3672 -0.5055  2.0687
 3954TIP3   OH233420   6.113   1.742   7.566  0.1352 -0.1465 -0.2125
 3954TIP3    H133421   6.086   1.691   7.641 -0.4218  1.5524  0.8030
 3954TIP3    H233422   6.043   1.806   7.553  0.9191  0.5680 -1.2155
 3955TIP3   OH233423   6.508   3.870   1.043  0.2839 -0.2944 -0.4318
 3955TIP3    H133424   6.435   3.810   1.031  0.5363 -1.0396  1.4690
 3955TIP3    H233425   6.583   3.825   1.002  0.9648 -2.4268  2.7962
 3956TIP3   OH233426   2.261   1.164   8.530  0.0729 -0.0145 -0.3499
 3956TIP3    H133427   2.176   1.197   8.560  0.1181 -1.0749  1.0512
 3956TIP3    H233428   2.325   1.217   8.578  0.1979  0.0632 -0.6002
 3957TIP3   OH233429   4.894   4.375   0.601  0.3526  0.2315  0.1179
 3957TIP3    H133430   4.911   4.403   0.691  2.1142  3.2602 -1.0116
 3957TIP3    H233431   4.977   4.336   0.573 -0.2648 -0.9265 -0.1522
 3958TIP3   OH233432   4.309   2.090   7.829 -0.1691  0.0872 -0.0627
 3958TIP3    H133433   4.345   2.003   7.847 -0.4536 -0.0906 -0.3475
 3958TIP3    H233434   4.352   2.147   7.893  0.6859 -0.1016 -0.4520
 3959TIP3   OH233435   5.528   1.971   1.725 -0.2887  0.2091 -0.1847
 3959TIP3    H133436   5.600   2.034   1.722 -0.2511  0.1441 -0.7963
 3959TIP3    H233437   5.518   1.950   1.818 -0.9046  1.7967  0.1356
 3960TIP3   OH233438   2.835   1.826   1.752  0.0301 -0.6984 -0.4122
 3960TIP3    H133439   2.846   1.868   1.666  1.7579 -1.0303 -0.3786
 3960TIP3    H233440   2.851   1.896   1.815  0.2749 -0.8122 -0.3511
 3961TIP3   OH233441   6.555   0.065   1.813  0.5652 -0.4910 -0.6262
 3961TIP3    H133442   6.483   0.003   1.801  0.8615 -1.2491  1.2283
 3961TIP3    H233443   6.514   0.145   1.843  0.4708 -0.9062  0.3793
 3962TIP3   OH233444   3.218   1.568   8.304  0.7022  0.1985  0.2281
 3962TIP3    H133445   3.188   1.540   8.217  0.3016  0.0836  0.3980
 3962TIP3    H233446   3.276   1.642   8.287  0.5305  0.2528 -0.1343
 3963TIP3   OH233447   5.529   4.405   0.858  0.0926  0.2089 -0.3798
 3963TIP3    H133448   5.521   4.487   0.906  1.8975 -0.3360  0.9684
 3963TIP3    H233449   5.558   4.430   0.771  0.2992  1.0190 -0.0838
 3964TIP3   OH233450   5.574   6.137   7.857 -0.0735  0.1382 -0.1606
 3964TIP3    H133451   5.531   6.155   7.940  0.3723  0.8528 -0.0789
 3964TIP3    H233452   5.505   6.103   7.800 -0.5244  0.3215  0.2794
 3965TIP3   OH233453   0.094   5.585   0.841 -0.5798  0.0623 -0.4184
 3965TIP3    H133454   0.119   5.495   0.820 -0.5009  0.5101 -2.5141
 3965TIP3    H233455   0.175   5.626   0.873 -0.8822 -0.8669  1.6636
 3966TIP3   OH233456   3.102   1.547   1.876 -0.5948 -0.5944  0.2405
 3966TIP3    H133457   3.145   1.592   1.803  2.8579 -1.7364  1.3881
 3966TIP3    H233458   3.061   1.470   1.836  0.8443 -0.9533 -0.6100
 3967TIP3   OH233459   3.415   0.681   1.686  0.0294 -0.2791 -0.2158
 3967TIP3    H133460   3.502   0.672   1.727 -0.0360 -0.5977 -0.1458
 3967TIP3    H233461   3.382   0.764   1.719  0.3872 -0.0654 -0.3880
 3968TIP3   OH233462   1.432   5.073   6.616 -0.4214  0.1474  0.1750
 3968TIP3    H133463   1.395   5.075   6.528 -1.1367  0.3464  0.4668
 3968TIP3    H233464   1.508   5.131   6.612 -0.1607 -0.2315 -0.4306
 3969TIP3   OH233465   6.163   2.178   8.570  0.1179 -0.6271  0.1591
 3969TIP3    H133466   6.258   2.175   8.557 -0.0147 -0.8638 -0.8289
 3969TIP3    H233467   6.146   2.268   8.599  0.7463 -0.8597  1.3078
 3970TIP3   OH233468   4.045   0.462   0.140 -0.3220  0.4675  0.3276
 3970TIP3    H133469   3.965   0.514   0.130 -0.1945  0.5843 -0.0927
 3970TIP3    H233470   4.115   0.520   0.111 -0.1082  0.2877  0.4860
 3971TIP3   OH233471   3.837   1.527   2.832 -0.2573  0.2460  0.7526
 3971TIP3    H133472   3.793   1.465   2.890  2.1041 -0.2475  2.1842
 3971TIP3    H233473   3.842   1.608   2.884  0.2710  0.3613  0.5254
 3972TIP3   OH233474   2.227   0.252   7.460 -0.5566  0.3456  0.2325
 3972TIP3    H133475   2.180   0.296   7.388 -0.8502 -1.0107 -0.4298
 3972TIP3    H233476   2.214   0.310   7.535 -0.5828  1.5973 -0.7041
 3973TIP3   OH233477   0.537   5.825   1.735  0.3924 -0.2094 -0.0736
 3973TIP3    H133478   0.458   5.821   1.681  0.0237 -1.0388  0.5129
 3973TIP3    H233479   0.559   5.918   1.739 -1.3818  0.1945  0.9388
 3974TIP3   OH233480   0.528   2.970   7.523 -0.3186  0.0286  0.0287
 3974TIP3    H133481   0.570   2.904   7.578  0.1081  2.2701  2.6020
 3974TIP3    H233482   0.453   3.000   7.574  0.0536  2.1655 -0.5777
 3975TIP3   OH233483   2.824   1.951   7.647  0.0803  0.2746 -0.1717
 3975TIP3    H133484   2.838   1.893   7.722  1.1051 -2.1846 -2.1297
 3975TIP3    H233485   2.738   1.925   7.613  1.4216 -1.7338 -2.2944
 3976TIP3   OH233486   1.264   0.383   8.296  0.0632 -0.2911 -0.1757
 3976TIP3    H133487   1.234   0.321   8.230  0.3218  1.5143 -2.0943
 3976TIP3    H233488   1.189   0.395   8.354 -0.6741 -0.8363 -1.0051
 3977TIP3   OH233489   2.812   3.875   7.237  0.1906  0.7832  0.5588
 3977TIP3    H133490   2.779   3.919   7.315  0.8766  1.2910  0.5721
 3977TIP3    H233491   2.784   3.931   7.164 -1.1351 -0.0917  0.3436
 3978TIP3   OH233492   5.034   6.236   8.380 -0.0326 -0.3216 -0.0223
 3978TIP3    H133493   4.968   6.184   8.425 -1.0915 -0.2612 -1.4496
 3978TIP3    H233494   4.986   6.281   8.310  1.2977  0.6751 -0.3387
 3979TIP3   OH233495   5.603   2.631   8.258  0.2728 -0.0640 -0.0427
 3979TIP3    H133496   5.621   2.583   8.177  0.0166  1.0460 -0.7770
 3979TIP3    H233497   5.561   2.712   8.230 -0.0410  0.2442  1.2248
 3980TIP3   OH233498   5.572   6.270   1.305  0.6947 -0.3913 -0.4120
 3980TIP3    H133499   5.562   6.274   1.400  0.5404 -0.8087 -0.4085
 3980TIP3    H233500   5.566   6.361   1.277  1.1147 -0.2319  0.0125
 3981TIP3   OH233501   6.226   5.482   1.066  0.1850  0.1210  0.3872
 3981TIP3    H133502   6.252   5.419   0.999 -0.3404 -0.7566  0.9852
 3981TIP3    H233503   6.217   5.430   1.146 -0.3361  0.9416  0.8800
 3982TIP3   OH233504   3.997   4.148   7.550 -0.3154 -0.0889  0.1298
 3982TIP3    H133505   3.997   4.096   7.631 -2.0318  0.8854  0.8022
 3982TIP3    H233506   4.057   4.220   7.569 -0.7251  0.1460  0.5392
 3983TIP3   OH233507   6.116   6.098   7.632 -0.0781  0.2091 -0.0797
 3983TIP3    H133508   6.105   6.166   7.699 -0.4143  0.6050 -0.5277
 3983TIP3    H233509   6.073   6.134   7.554 -1.5433 -1.1106  0.0609
 3984TIP3   OH233510   0.821   0.335   0.845 -0.2652  0.0475 -0.7896
 3984TIP3    H133511   0.768   0.389   0.785 -0.6276 -1.4164 -1.8318
 3984TIP3    H233512   0.759   0.275   0.885  0.3685 -0.6416 -0.8244
 3985TIP3   OH233513   0.660   2.385   0.306 -0.7245  0.1945  0.4265
 3985TIP3    H133514   0.595   2.389   0.236 -0.1547  0.3323 -0.1108
 3985TIP3    H233515   0.647   2.466   0.356  1.4860  2.1959 -1.9537
 3986TIP3   OH233516   5.045   4.834   0.358  0.2015 -0.1326 -0.5624
 3986TIP3    H133517   5.069   4.813   0.267 -0.7651 -1.4418 -0.5493
 3986TIP3    H233518   5.007   4.753   0.392  0.8533  0.2399  1.1378
 3987TIP3   OH233519   2.659   1.552   7.558 -0.1332 -0.3808  0.1560
 3987TIP3    H133520   2.662   1.617   7.628 -4.3202 -0.4319  0.6521
 3987TIP3    H233521   2.736   1.572   7.504 -1.0152  5.0581  0.2635
 3988TIP3   OH233522   5.363   1.029   8.600 -0.7314 -0.3023 -0.3275
 3988TIP3    H133523   5.302   0.990   8.538 -0.7919  1.4620 -1.4671
 3988TIP3    H233524   5.316   1.105   8.636  0.6720  1.0161 -1.1326
 3989TIP3   OH233525   0.435   4.324   8.056 -0.5195  0.8302 -0.0428
 3989TIP3    H133526   0.413   4.352   7.967  1.5692 -0.0187 -0.8978
 3989TIP3    H233527   0.517   4.275   8.046 -1.4746 -1.3925  2.0201
 3990TIP3   OH233528   4.237   4.674   7.914 -0.0800 -0.3313  0.4584
 3990TIP3    H133529   4.310   4.654   7.973 -1.2598 -0.9046  1.7796
 3990TIP3    H233530   4.187   4.592   7.910  0.1910 -0.4602 -1.7327
 3991TIP3   OH233531   2.858   4.411   7.047  0.0480  0.3372  0.3882
 3991TIP3    H133532   2.822   4.449   6.966 -1.0896  1.0620  1.2091
 3991TIP3    H233533   2.810   4.454   7.117  0.3142 -1.0015  1.4351
 3992TIP3   OH233534   3.916   2.422   1.168 -0.3985 -0.3411  0.5655
 3992TIP3    H133535   3.895   2.510   1.197  0.1215 -0.6349  1.9167
 3992TIP3    H233536   3.831   2.384   1.143 -0.5456  0.7191 -0.5847
 3993TIP3   OH233537   6.210   2.794   8.017 -0.0030 -0.2219 -0.2015
 3993TIP3    H133538   6.195   2.870   8.073  0.2343 -0.8993  0.8130
 3993TIP3    H233539   6.305   2.786   8.011 -0.0121  0.4578 -1.5859
 3994TIP3   OH233540   2.774   6.510   6.002 -0.4040  0.6394 -0.3184
 3994TIP3    H133541   2.818   6.510   6.087  0.9044  1.8457 -0.9664
 3994TIP3    H233542   2.745   6.600   5.989 -0.5575  0.4760 -1.1755
 3995TIP3   OH233543   1.435   4.428   7.627  0.1615 -0.4594  0.1596
 3995TIP3    H133544   1.430   4.522   7.647 -0.5125 -0.3917 -0.2526
 3995TIP3    H233545   1.353   4.411   7.580  0.9978 -0.9102 -1.1736
 3996TIP3   OH233546   3.466   2.259   7.789 -0.4287  0.0590 -0.5401
 3996TIP3    H133547   3.470   2.267   7.884 -0.2669 -1.9520 -0.3356
 3996TIP3    H233548   3.495   2.169   7.771 -2.9205 -0.5136 -2.2735
 3997TIP3   OH233549   6.078   2.539   0.602  0.3636  0.1365  0.1768
 3997TIP3    H133550   6.077   2.633   0.584  2.8846 -0.2395 -2.7938
 3997TIP3    H233551   6.171   2.517   0.606 -0.1729 -2.2196  1.1613
 3998TIP3   OH233552   5.553   0.411   7.750  0.6447 -0.5659  0.0977
 3998TIP3    H133553   5.597   0.471   7.690 -2.4567  1.3961 -0.4338
 3998TIP3    H233554   5.538   0.463   7.829 -2.2005 -0.4318 -0.4166
 3999TIP3   OH233555   0.346   3.288   7.187  0.7147 -0.3019 -0.1778
 3999TIP3    H133556   0.422   3.233   7.207 -1.2302 -2.5815  1.5799
 3999TIP3    H233557   0.279   3.226   7.159 -0.8752  1.5039 -0.5678
 4000TIP3   OH233558   6.401   5.079   0.637  0.2279 -0.1161 -0.0453
 4000TIP3    H133559   6.496   5.081   0.650  0.3195  2.3505 -0.6352
 4000TIP3    H233560   6.369   5.159   0.677 -1.4618 -0.2867 -0.9451
 4001TIP3   OH233561   5.941   3.665   7.335 -0.1712 -0.0015  0.2829
 4001TIP3    H133562   5.900   3.689   7.418 -0.3170  2.2468 -0.3817
 4001TIP3    H233563   6.016   3.723   7.327 -0.3113  0.0156 -1.2867
 4002TIP3   OH233564   4.210   1.250   7.662 -0.6021  0.0718  0.2209
 4002TIP3    H133565   4.290   1.304   7.669 -1.0244  1.2315 -2.5932
 4002TIP3    H233566   4.219   1.186   7.733  2.6772  0.3386  0.2307
 4003TIP3   OH233567   3.327   1.315   1.693  0.1438 -0.1639 -0.1962
 4003TIP3    H133568   3.373   1.352   1.618  1.3094  0.2583  0.6987
 4003TIP3    H233569   3.372   1.352   1.770 -2.4976  1.3718  0.7670
 4004TIP3   OH233570   1.668   4.891   6.405  0.1805  0.4500  0.2080
 4004TIP3    H133571   1.595   4.835   6.379  0.6680 -1.1317  2.0240
 4004TIP3    H233572   1.735   4.876   6.338 -0.6583  0.9107 -0.7539
 4005TIP3   OH233573   2.281   6.427   1.337  0.4482  0.1404 -0.0676
 4005TIP3    H133574   2.295   6.474   1.255  4.3672 -2.1973 -0.9792
 4005TIP3    H233575   2.362   6.438   1.386  0.0301 -2.3699  1.3907
 4006TIP3   OH233576   2.684   3.159   1.462 -0.3034 -1.0052 -0.2400
 4006TIP3    H133577   2.651   3.071   1.446  1.0405 -1.4924 -0.4510
 4006TIP3    H233578   2.637   3.214   1.399 -0.8326 -1.6328 -0.4059
 4007TIP3   OH233579   3.529   0.163   8.407 -0.0236  0.0072  0.2326
 4007TIP3    H133580   3.566   0.149   8.493 -1.6999 -1.1414  0.8227
 4007TIP3    H233581   3.540   0.080   8.361 -1.8708 -0.4176  0.4722
 4008TIP3   OH233582   2.180   5.306   1.440 -0.0042  0.1716  0.7909
 4008TIP3    H133583   2.261   5.279   1.396 -0.1324 -1.0445  1.2606
 4008TIP3    H233584   2.164   5.237   1.504 -1.6819  0.1355  0.3741
 4009TIP3   OH233585   1.540   2.701   1.129 -0.1364 -0.4343 -0.4557
 4009TIP3    H133586   1.459   2.713   1.178  0.4064  1.2175  0.0918
 4009TIP3    H233587   1.511   2.673   1.042 -1.2094 -1.2288  0.1332
 4010TIP3   OH233588   6.470   1.221   0.538 -0.0335 -0.8966  0.0463
 4010TIP3    H133589   6.440   1.289   0.598  0.0458 -1.8692  1.2203
 4010TIP3    H233590   6.525   1.164   0.591 -2.3081 -3.4630 -0.1172
 4011TIP3   OH233591   4.574   5.280   1.993 -0.5404 -1.0297 -0.1598
 4011TIP3    H133592   4.483   5.265   1.967 -0.7210 -0.9741  0.4407
 4011TIP3    H233593   4.570   5.303   2.086 -0.0393  0.2178 -0.4190
 4012TIP3   OH233594   0.905   4.693   1.673  0.1871  0.4904  0.0564
 4012TIP3    H133595   0.836   4.683   1.608 -1.5450 -0.3114  1.8879
 4012TIP3    H233596   0.986   4.676   1.625 -0.7242  2.4630 -2.4043
 4013TIP3   OH233597   2.067   1.405   8.364 -0.4494 -0.2293  0.4035
 4013TIP3    H133598   1.991   1.461   8.378 -0.7591 -0.5757  0.1383
 4013TIP3    H233599   2.074   1.354   8.444 -0.4658 -0.1606  0.4493
 4014TIP3   OH233600   3.076   0.220   7.134  0.0297  0.0057  0.1490
 4014TIP3    H133601   3.010   0.211   7.203 -1.7861 -2.6265 -1.7630
 4014TIP3    H233602   3.054   0.152   7.071  4.8250 -1.2581 -0.4869
 4015TIP3   OH233603   3.376   3.841   7.868 -0.1587  0.3237 -0.2116
 4015TIP3    H133604   3.424   3.764   7.840 -1.9197 -0.5233 -1.0695
 4015TIP3    H233605   3.440   3.913   7.862  1.6676 -1.0856  1.1278
 4016TIP3   OH233606   4.357   4.738   1.678  0.2854 -0.1817 -0.3196
 4016TIP3    H133607   4.374   4.649   1.647  0.7685 -0.5141  0.8482
 4016TIP3    H233608   4.304   4.726   1.757 -0.3806  0.6164 -0.6270
 4017TIP3   OH233609   2.212   4.214   1.235 -0.1910  0.1939 -0.1039
 4017TIP3    H133610   2.167   4.162   1.169  0.3657  1.5887 -1.6419
 4017TIP3    H233611   2.305   4.205   1.213 -0.0531  1.3222 -0.0084
 4018TIP3   OH233612   1.272   2.063   7.862  0.1400  0.2276  0.3818
 4018TIP3    H133613   1.354   2.096   7.901 -0.2761  1.3644  0.3429
 4018TIP3    H233614   1.293   2.046   7.771 -0.0970  2.3168 -0.1120
 4019TIP3   OH233615   6.245   3.773   1.947  0.1126  0.4834 -0.5371
 4019TIP3    H133616   6.234   3.679   1.962 -0.6342  0.6158 -0.2515
 4019TIP3    H233617   6.237   3.813   2.033  0.9449  0.7749 -0.5803
 4020TIP3   OH233618   5.845   5.453   2.233 -0.4477 -0.6693 -0.4462
 4020TIP3    H133619   5.780   5.410   2.289 -0.3719  0.5084  0.5689
 4020TIP3    H233620   5.796   5.475   2.154 -1.2068 -0.1233  0.1574
 4021TIP3   OH233621   3.709   2.431   1.762 -0.1586  0.3513 -0.6011
 4021TIP3    H133622   3.792   2.389   1.787 -0.7758 -1.5606 -1.5771
 4021TIP3    H233623   3.662   2.364   1.713 -2.3858  1.3282  0.0663
 4022TIP3   OH233624   5.740   3.323   1.456 -0.1976  0.1673 -0.0778
 4022TIP3    H133625   5.678   3.252   1.472 -0.9646  0.2044 -2.4695
 4022TIP3    H233626   5.730   3.382   1.531 -0.5344 -1.5423  1.2716
 4023TIP3   OH233627   6.220   3.393   8.541 -0.0179  0.1239 -0.1582
 4023TIP3    H133628   6.278   3.317   8.537  0.2426  0.3460 -0.6489
 4023TIP3    H233629   6.133   3.357   8.526  0.2262  0.0680 -1.5239
 4024TIP3   OH233630   2.634   2.621   6.823  0.1033  0.0186  0.1477
 4024TIP3    H133631   2.728   2.625   6.838  0.1467 -0.6442  0.0459
 4024TIP3    H233632   2.595   2.630   6.911  0.2709 -0.1868  0.2423
 4025TIP3   OH233633   2.524   5.698   6.817 -0.2390  0.1119  0.3547
 4025TIP3    H133634   2.513   5.789   6.845 -0.7925  0.4923 -1.0130
 4025TIP3    H233635   2.553   5.704   6.726  2.6704 -1.0676  1.0898
 4026TIP3   OH233636   0.629   6.756   7.790 -0.0157  0.2473  0.2271
 4026TIP3    H133637   0.565   6.689   7.768  0.4446 -0.6603  1.5604
 4026TIP3    H233638   0.714   6.716   7.771  0.2982  0.1427  1.7063
 4027TIP3   OH233639   0.816   0.907   7.573 -0.7736  0.4493 -0.0065
 4027TIP3    H133640   0.738   0.865   7.610  0.0340 -0.6682  0.4554
 4027TIP3    H233641   0.832   0.981   7.631 -1.2112  0.4099  0.1730
 4028TIP3   OH233642   3.941   6.004   7.549 -0.1979  0.1883  0.5537
 4028TIP3    H133643   4.007   5.968   7.490 -0.6258 -2.6086  1.6376
 4028TIP3    H233644   3.860   6.000   7.498 -0.6617 -2.6978  1.3445
 4029TIP3   OH233645   5.593   4.573   7.660  0.6139 -0.2384 -0.3001
 4029TIP3    H133646   5.530   4.635   7.624  2.0005  1.9512  0.8256
 4029TIP3    H233647   5.574   4.571   7.754  0.6448 -1.5192 -0.2929
 4030TIP3   OH233648   5.559   3.176   2.877 -0.3516  0.0593  0.4538
 4030TIP3    H133649   5.499   3.129   2.819 -0.3489 -0.5454  0.9283
 4030TIP3    H233650   5.515   3.259   2.896 -0.0611  0.5477 -0.9263
 4031TIP3   OH233651   3.102   6.378   8.301  0.2778  0.0087  0.1327
 4031TIP3    H133652   3.184   6.425   8.313 -0.0372  0.3751  0.9191
 4031TIP3    H233653   3.090   6.330   8.384 -0.0931 -0.3641 -0.1343
 4032TIP3   OH233654   3.821   2.029   7.180 -0.1107 -0.3647 -0.6716
 4032TIP3    H133655   3.734   1.991   7.168 -1.8902  2.0494  2.7960
 4032TIP3    H233656   3.839   2.074   7.097 -2.6066 -0.1304 -1.1673
 4033TIP3   OH233657   0.575   4.653   6.325 -0.5170  0.0528  0.5635
 4033TIP3    H133658   0.505   4.635   6.388 -1.5339 -0.1771 -0.5716
 4033TIP3    H233659   0.605   4.566   6.298 -0.2969  0.1413  0.5280
 4034TIP3   OH233660   1.375   4.287   8.070 -0.3976 -0.3725  0.7518
 4034TIP3    H133661   1.407   4.200   8.093 -1.2756 -0.7864  0.4488
 4034TIP3    H233662   1.362   4.331   8.155 -0.8742 -0.8777  0.9461
 4035TIP3   OH233663   4.882   3.738   6.234  0.7997 -0.4909  0.0625
 4035TIP3    H133664   4.936   3.792   6.176  1.0431  0.5103  1.1679
 4035TIP3    H233665   4.799   3.784   6.240  1.2672  0.2308  1.6169
 4036TIP3   OH233666   0.003   3.355   6.644  0.4874  0.2007  0.2784
 4036TIP3    H133667   0.014   3.449   6.658  2.2926  0.1747 -0.7194
 4036TIP3    H233668  -0.081   3.348   6.598  1.4732  1.5976 -1.8774
 4037TIP3   OH233669   5.568   4.921   6.748 -0.5433  0.4256 -0.3254
 4037TIP3    H133670   5.607   5.004   6.721 -1.9321  0.5170 -2.2145
 4037TIP3    H233671   5.543   4.878   6.666 -1.1624 -1.2276  0.6693
 4038TIP3   OH233672   3.107   0.354   7.520  0.1232 -0.1236 -0.7432
 4038TIP3    H133673   3.059   0.327   7.442  0.6555  1.1026 -1.5273
 4038TIP3    H233674   3.101   0.279   7.579  0.1639 -1.2915 -2.1656
 4039TIP3   OH233675   4.916   5.687   7.778 -0.0730  0.1410  0.6686
 4039TIP3    H133676   4.837   5.637   7.757  0.8159 -1.4498  0.9334
 4039TIP3    H233677   4.957   5.637   7.850  2.0023 -0.0222 -0.5443
 4040TIP3   OH233678   1.278   4.008   1.687 -0.0533  0.2988 -0.1467
 4040TIP3    H133679   1.312   3.959   1.763 -1.0859  0.2217  0.2982
 4040TIP3    H233680   1.185   4.019   1.707 -0.1395  1.1230 -0.9703
 4041TIP3   OH233681   1.870   1.997   8.626 -0.0816 -0.6208  0.0777
 4041TIP3    H133682   1.949   1.944   8.625 -0.0072 -0.5216 -1.4664
 4041TIP3    H233683   1.799   1.934   8.641  0.0343 -1.1416 -1.4438
 4042TIP3   OH233684   3.657   0.416   1.693 -0.0629 -0.4704 -0.0014
 4042TIP3    H133685   3.630   0.424   1.784  0.3615  1.3967  0.0022
 4042TIP3    H233686   3.575   0.424   1.643 -0.1528 -0.3010  0.1743
 4043TIP3   OH233687   6.534   6.638   7.873  0.2411  0.2360  0.2797
 4043TIP3    H133688   6.540   6.726   7.835  1.8996  0.9632  2.0622
 4043TIP3    H233689   6.514   6.653   7.965  0.0704 -1.3049  0.5204
 4044TIP3   OH233690   4.732   6.488   0.561 -0.3543  0.2249 -0.4308
 4044TIP3    H133691   4.766   6.491   0.651 -1.9865  0.2319  0.2179
 4044TIP3    H233692   4.639   6.469   0.571 -0.9623  1.9850 -2.0248
 4045TIP3   OH233693   4.503   5.345   1.669 -0.2402  0.4941  0.9241
 4045TIP3    H133694   4.471   5.434   1.681 -1.7634  0.0160  0.6626
 4045TIP3    H233695   4.469   5.296   1.744 -1.6094 -0.3936 -0.2215
 4046TIP3   OH233696   0.295   2.220   0.856 -0.7108 -0.1973  0.3571
 4046TIP3    H133697   0.377   2.267   0.871 -1.5078  0.8603  1.5816
 4046TIP3    H233698   0.315   2.160   0.784  1.0549  0.2168  0.4531
 4047TIP3   OH233699   3.826   4.605   8.237  0.5967 -0.2358 -0.6135
 4047TIP3    H133700   3.733   4.620   8.220  0.4657  1.7900  1.3289
 4047TIP3    H233701   3.833   4.511   8.250 -1.5793 -0.2658  0.9283
 4048TIP3   OH233702   4.300   1.468   8.251  0.4189  0.0575  0.2656
 4048TIP3    H133703   4.250   1.456   8.170 -0.4828  0.4277  0.7444
 4048TIP3    H233704   4.351   1.388   8.260  1.0061  0.2680 -0.9793
 4049TIP3   OH233705   3.357   0.446   6.968 -0.3582 -0.2580  0.1095
 4049TIP3    H133706   3.309   0.510   7.020 -1.5935 -1.9440  1.1120
 4049TIP3    H233707   3.301   0.430   6.892 -0.2508 -0.4744  0.0770
 4050TIP3   OH233708   4.453   5.386   1.408 -0.6414 -0.0352  0.3659
 4050TIP3    H133709   4.364   5.417   1.422 -0.7553 -0.6919  1.1092
 4050TIP3    H233710   4.476   5.341   1.489  0.1644 -0.3574 -0.0360
 4051TIP3   OH233711   5.473   2.957   6.862 -0.3101  0.3966 -0.3971
 4051TIP3    H133712   5.564   2.952   6.834 -0.7871  1.2551 -2.2060
 4051TIP3    H233713   5.437   3.033   6.816 -2.6674 -1.5267 -1.9505
 4052TIP3   OH233714   4.831   4.222   0.051  0.2893  0.2470 -0.4209
 4052TIP3    H133715   4.891   4.227   0.126  0.2444  0.5567 -0.4055
 4052TIP3    H233716   4.804   4.130   0.048  0.0733  0.2893  0.1129
 4053TIP3   OH233717   1.519   3.524   6.599 -0.2174  0.3153  0.2945
 4053TIP3    H133718   1.475   3.569   6.672  1.2864 -0.8620  2.0148
 4053TIP3    H233719   1.587   3.586   6.572 -0.4395  0.5427  0.2475
 4054TIP3   OH233720   2.844   3.039   8.183  0.0476 -0.4246  0.5216
 4054TIP3    H133721   2.792   3.039   8.263 -1.9642  1.6677 -0.6721
 4054TIP3    H233722   2.782   3.065   8.114  2.4573  1.3279 -1.1517
 4055TIP3   OH233723   6.229   2.773   1.705 -0.4541 -0.2183  0.1388
 4055TIP3    H133724   6.258   2.755   1.795 -0.1339 -0.4932 -0.0180
 4055TIP3    H233725   6.165   2.844   1.715  0.2407  0.3732  0.5058
 4056TIP3   OH233726   6.814   1.612   1.600 -0.2416  0.2367 -0.2281
 4056TIP3    H133727   6.827   1.650   1.513  0.7707  0.3469 -0.0387
 4056TIP3    H233728   6.746   1.666   1.640 -2.4482 -1.2218 -1.7817
 4057TIP3   OH233729   1.391   4.688   6.041  0.5098  0.1823  0.2720
 4057TIP3    H133730   1.406   4.751   5.971  1.6235  0.3817  0.6736
 4057TIP3    H233731   1.361   4.741   6.115  1.1062  0.2117  0.5008
 4058TIP3   OH233732   2.872   1.595   6.724  0.6331  0.0932  0.3244
 4058TIP3    H133733   2.889   1.623   6.635  0.7091  1.8300  0.8481
 4058TIP3    H233734   2.818   1.517   6.715  0.4982  0.3421 -1.2240
 4059TIP3   OH233735   4.561   0.330   1.115 -0.1749  0.5794 -0.1345
 4059TIP3    H133736   4.561   0.373   1.030 -0.7733 -1.3911 -1.2063
 4059TIP3    H233737   4.623   0.380   1.168 -0.7582  2.6343 -1.2875
 4060TIP3   OH233738   4.220   1.019   7.822  0.0155 -0.1326 -0.7627
 4060TIP3    H133739   4.299   0.969   7.845  0.3735  0.3588 -0.8982
 4060TIP3    H233740   4.167   1.018   7.902  0.4131 -0.0038 -0.4923
 4061TIP3   OH233741   1.815   2.866   0.745  0.2940 -0.0476  0.1229
 4061TIP3    H133742   1.743   2.862   0.808  1.4974 -2.5921  1.5195
 4061TIP3    H233743   1.787   2.810   0.672  0.7495 -0.9835  0.6362
 4062TIP3   OH233744   4.662   2.088   8.574 -0.3359  0.3973 -0.8321
 4062TIP3    H133745   4.635   2.124   8.490 -1.2776  0.1778 -0.6383
 4062TIP3    H233746   4.632   1.997   8.572  0.4731  0.1179 -0.6322
 4063TIP3   OH233747   5.051   0.487   7.365 -0.5438  0.3925  0.2213
 4063TIP3    H133748   5.044   0.562   7.424 -0.8134  0.8142 -0.3385
 4063TIP3    H233749   5.131   0.504   7.315  0.6506 -0.8079  1.6033
 4064TIP3   OH233750   2.815   6.844   1.542  0.8195  0.6394  0.2394
 4064TIP3    H133751   2.864   6.786   1.600  0.6787 -0.8083 -1.0381
 4064TIP3    H233752   2.830   6.932   1.578  3.4722  0.1460  0.5260
 4065TIP3   OH233753   1.437   4.982   8.377  0.0986 -0.3308  0.1883
 4065TIP3    H133754   1.397   5.063   8.407  0.1057 -0.7240  1.3001
 4065TIP3    H233755   1.378   4.949   8.309 -0.3087  0.2090  0.2769
 4066TIP3   OH233756   6.215   3.056   8.325  0.0936  0.0252  0.2476
 4066TIP3    H133757   6.138   3.002   8.310  0.5106 -0.7738  0.9222
 4066TIP3    H233758   6.194   3.140   8.284 -0.6656 -0.5574 -0.5770
 4067TIP3   OH233759   6.836   2.385   8.001  0.7611  0.0801  0.3132
 4067TIP3    H133760   6.839   2.297   8.040 -0.1067 -0.0673  0.0827
 4067TIP3    H233761   6.769   2.378   7.933 -0.1647  1.2249  1.0715
 4068TIP3   OH233762   5.776   5.752   1.072  0.0285 -0.0538 -0.3046
 4068TIP3    H133763   5.788   5.814   1.144 -0.0751  0.6046 -0.8442
 4068TIP3    H233764   5.739   5.805   1.001 -0.4345 -0.8166 -0.6437
 4069TIP3   OH233765   6.329   3.596   7.576 -0.0799  0.1469 -0.5922
 4069TIP3    H133766   6.350   3.689   7.583 -0.7112  0.2698 -0.3309
 4069TIP3    H233767   6.395   3.553   7.631 -0.9200  0.5922  0.8016
 4070TIP3   OH233768   1.920   6.384   0.268  0.1080 -0.8510 -0.1209
 4070TIP3    H133769   1.959   6.470   0.282  2.1508 -1.7470 -0.0411
 4070TIP3    H233770   1.847   6.380   0.330  0.2830  0.6157  0.2054
 4071TIP3   OH233771   3.151   2.101   1.098 -0.1423 -0.0653  0.0446
 4071TIP3    H133772   3.157   2.080   1.005  0.5589  0.6253 -0.0803
 4071TIP3    H233773   3.240   2.088   1.131  0.0271  1.3846  0.2344
 4072TIP3   OH233774   3.904   1.002   8.224  0.2058 -0.4360 -0.6668
 4072TIP3    H133775   3.818   1.044   8.225  0.6375  1.0965  5.1194
 4072TIP3    H233776   3.887   0.913   8.256  0.6389 -0.8673 -1.5836
 4073TIP3   OH233777   3.092   3.818   7.509  1.3144 -0.4116 -0.4605
 4073TIP3    H133778   3.039   3.756   7.558  1.5107  0.1718  0.5163
 4073TIP3    H233779   3.061   3.811   7.419 -0.4445 -0.0533  0.0898
 4074TIP3   OH233780   6.421   3.244   6.326 -0.1248 -0.1884  0.0632
 4074TIP3    H133781   6.382   3.331   6.323 -1.4244 -0.6592  1.8016
 4074TIP3    H233782   6.354   3.186   6.292  0.6144 -0.5653 -0.7848
 4075TIP3   OH233783   0.003   2.845   6.984  0.0802  0.0190  0.3611
 4075TIP3    H133784  -0.053   2.768   6.971 -1.3197  1.0416  0.1641
 4075TIP3    H233785   0.041   2.862   6.898  1.1644 -1.0073  0.6156
 4076TIP3   OH233786   1.742   4.277   0.495 -0.4540 -0.4485 -0.7319
 4076TIP3    H133787   1.651   4.304   0.497 -0.1892  0.4106  1.3077
 4076TIP3    H233788   1.792   4.358   0.496  0.3212 -0.9007  0.6160
 4077TIP3   OH233789   3.072   2.803   8.575 -0.4971  0.4236 -0.2501
 4077TIP3    H133790   3.054   2.726   8.630 -0.7466  0.6717  0.0263
 4077TIP3    H233791   3.004   2.865   8.601  1.4610  1.8749  1.7240
 4078TIP3   OH233792   2.439   4.126   7.726 -0.9423  0.1081 -0.0900
 4078TIP3    H133793   2.504   4.182   7.769 -1.4792  1.0890 -0.5341
 4078TIP3    H233794   2.486   4.045   7.707 -0.2245  0.2969  0.8069
 4079TIP3   OH233795   3.591   5.379   1.071  0.0036 -0.2239 -0.3279
 4079TIP3    H133796   3.645   5.453   1.097 -0.6866  0.1162  0.1907
 4079TIP3    H233797   3.623   5.354   0.984 -0.4387  1.3507 -0.9638
 4080TIP3   OH233798   3.152   5.935   2.356 -0.0466 -0.3029 -0.1198
 4080TIP3    H133799   3.139   6.028   2.341 -1.2477 -0.4534 -0.0944
 4080TIP3    H233800   3.247   5.925   2.365  0.1672  0.7804 -0.9843
 4081TIP3   OH233801   0.827   0.211   7.121 -0.0033  0.2026  0.0719
 4081TIP3    H133802   0.787   0.161   7.192 -0.9116  0.4536 -0.2461
 4081TIP3    H233803   0.785   0.297   7.126 -0.1475  0.1942 -0.8134
 4082TIP3   OH233804   3.484   2.732   8.342 -0.0218 -0.2215  0.3607
 4082TIP3    H133805   3.551   2.663   8.344  0.1923  0.0032  1.0013
 4082TIP3    H233806   3.424   2.704   8.272  0.0008 -1.1130  0.6815
 4083TIP3   OH233807   3.436   4.957   2.155  0.0523  0.2305  1.0809
 4083TIP3    H133808   3.360   5.015   2.158 -0.9551 -1.0581  1.6929
 4083TIP3    H233809   3.461   4.946   2.247  0.0731 -0.4798  0.9929
 4084TIP3   OH233810   3.864   0.023   0.216  0.7992  0.2696  0.3066
 4084TIP3    H133811   3.855   0.097   0.156 -0.9611  0.6560  0.9851
 4084TIP3    H233812   3.822   0.051   0.297 -2.1818 -2.2120 -0.1710
 4085TIP3   OH233813   6.702   6.747   8.153  0.1996 -0.4367  0.1496
 4085TIP3    H133814   6.665   6.729   8.239 -2.4148  0.0866 -0.7431
 4085TIP3    H233815   6.762   6.820   8.167 -1.4071  0.7472  1.3495
 4086TIP3   OH233816   0.463   1.001   0.761  0.1990 -0.1102 -0.0406
 4086TIP3    H133817   0.459   0.920   0.812  0.1566 -0.7238 -1.0020
 4086TIP3    H233818   0.556   1.023   0.758 -0.0236  2.1645  3.6839
 4087TIP3   OH233819   6.838   5.530   8.120 -0.3626  0.0758  0.3270
 4087TIP3    H133820   6.913   5.474   8.139 -0.9582 -0.6506  0.5952
 4087TIP3    H233821   6.876   5.610   8.084  0.4955 -0.5962 -0.3033
 4088TIP3   OH233822   0.392   3.633   1.182 -0.0916 -0.5576 -0.0707
 4088TIP3    H133823   0.323   3.698   1.170  0.0776  0.0259  1.8735
 4088TIP3    H233824   0.469   3.685   1.207  0.9748 -1.2317 -1.7871
 4089TIP3   OH233825   5.133   2.088   8.569  0.1154  0.3031 -0.5476
 4089TIP3    H133826   5.144   2.104   8.663  0.4059 -0.8228 -0.3761
 4089TIP3    H233827   5.201   2.142   8.528  0.3004  0.4344 -0.0812
 4090TIP3   OH233828   3.663   6.698   1.708 -0.7165 -0.2841 -0.0201
 4090TIP3    H133829   3.573   6.683   1.677 -0.7222 -0.1572 -0.0640
 4090TIP3    H233830   3.664   6.790   1.734 -0.5684 -0.2582 -0.1184
 4091TIP3   OH233831   5.060   2.530   0.259 -0.1868 -0.3010  0.0335
 4091TIP3    H133832   5.009   2.591   0.206  0.1552  0.0173  0.0765
 4091TIP3    H233833   5.140   2.576   0.281  1.0613 -1.5071 -1.7224
 4092TIP3   OH233834   4.739   5.395   1.308 -0.3221 -0.3378  0.1070
 4092TIP3    H133835   4.684   5.320   1.332 -1.2650  0.5980  1.0173
 4092TIP3    H233836   4.733   5.453   1.384  2.0753 -0.2572  0.2904
 4093TIP3   OH233837   0.954   0.709   8.433  0.0708 -0.2061 -0.1108
 4093TIP3    H133838   0.895   0.709   8.509  2.5048  1.0552  1.9278
 4093TIP3    H233839   0.934   0.792   8.388  0.8644  0.7007  1.1281
 4094TIP3   OH233840   1.525   2.311   0.017 -0.1688  0.5248  0.1826
 4094TIP3    H133841   1.562   2.373  -0.046 -1.5580  0.7726 -0.4340
 4094TIP3    H233842   1.550   2.225  -0.016  0.4555  0.6994  0.1841
 4095TIP3   OH233843   0.294   1.685   1.360 -0.4450 -0.1385  0.5405
 4095TIP3    H133844   0.316   1.634   1.282  0.8879  1.0720  0.0831
 4095TIP3    H233845   0.340   1.641   1.432 -0.7167 -0.5775  0.4448
 4096TIP3   OH233846   4.520   5.150   7.898 -0.7177 -0.3502 -0.2583
 4096TIP3    H133847   4.605   5.126   7.862 -0.5626  2.5176 -2.1349
 4096TIP3    H233848   4.473   5.189   7.824 -1.6846  2.8340  1.8259
 4097TIP3   OH233849   3.611   2.290   6.701 -0.4214 -0.5939 -0.0711
 4097TIP3    H133850   3.526   2.281   6.743 -0.4655  0.1690  0.0125
 4097TIP3    H233851   3.661   2.347   6.759  0.0988 -0.9186 -0.1926
 4098TIP3   OH233852   4.675   5.811   7.563  0.3403 -0.1795 -0.0818
 4098TIP3    H133853   4.677   5.720   7.591  0.4831 -0.4787 -1.0454
 4098TIP3    H233854   4.617   5.854   7.626  1.4637 -0.6106  1.2962
 4099TIP3   OH233855   4.797   5.033   0.465  0.0102  0.0057  0.1024
 4099TIP3    H133856   4.860   5.054   0.395  0.0827  0.7614  0.3883
 4099TIP3    H233857   4.777   4.941   0.451  1.2879 -0.2926  0.0764
 4100TIP3   OH233858   0.700   2.238   1.079 -0.1852 -0.3709 -0.6349
 4100TIP3    H133859   0.780   2.262   1.033 -0.2990 -0.8175 -1.0687
 4100TIP3    H233860   0.723   2.244   1.172  0.0282  0.5861 -0.7356
 4101TIP3   OH233861   2.748   5.027   8.165 -0.2503  0.4492 -0.2180
 4101TIP3    H133862   2.713   4.972   8.096 -1.4884  0.6281  0.2320
 4101TIP3    H233863   2.711   4.991   8.246  0.2017  0.9745  0.2357
 4102TIP3   OH233864   3.746   1.435   0.258 -0.9140 -0.5018  0.4846
 4102TIP3    H133865   3.747   1.513   0.313 -1.7148  0.7847 -1.2362
 4102TIP3    H233866   3.675   1.382   0.293 -1.0351  0.0105  1.0380
 4103TIP3   OH233867   4.964   6.833   6.828 -0.6426  0.0088 -0.0803
 4103TIP3    H133868   4.896   6.892   6.859 -0.2413  0.1639  0.5281
 4103TIP3    H233869   5.000   6.876   6.751  0.8240  1.4593  1.3266
 4104TIP3   OH233870   1.327   2.419   1.976  0.9123  0.1087 -0.0437
 4104TIP3    H133871   1.329   2.370   1.894  1.4962  0.7774 -0.4358
 4104TIP3    H233872   1.233   2.432   1.993  0.7788  1.8393 -1.7608
 4105TIP3   OH233873   6.574   6.278   0.813 -0.2263  0.5970 -0.0751
 4105TIP3    H133874   6.485   6.254   0.837  0.2782 -0.5726  0.6963
 4105TIP3    H233875   6.605   6.333   0.885 -0.2805  0.8928 -0.2774
 4106TIP3   OH233876   0.111   5.513   6.604  0.5742  0.0645 -0.2678
 4106TIP3    H133877   0.091   5.459   6.527 -1.0088  0.3595 -0.0784
 4106TIP3    H233878   0.100   5.454   6.678 -0.9994  0.5568 -0.0720
 4107TIP3   OH233879   0.559   2.005   7.543 -0.3822 -0.3753  0.1812
 4107TIP3    H133880   0.536   2.097   7.549  0.2630 -0.2623  1.3630
 4107TIP3    H233881   0.646   1.999   7.584 -0.5450 -1.5431  0.4130
 4108TIP3   OH233882   1.506   1.994   0.125 -0.0739 -0.2986 -0.2279
 4108TIP3    H133883   1.494   1.981   0.031  0.7812  0.1236 -0.3994
 4108TIP3    H233884   1.502   1.905   0.162  0.7800 -0.5918 -0.8086
 4109TIP3   OH233885   4.099   1.660   7.243  0.7973  0.3865  0.1285
 4109TIP3    H133886   4.076   1.694   7.156 -1.7552 -0.2038  0.5006
 4109TIP3    H233887   4.070   1.569   7.242 -1.5080  0.9565  2.2757
 4110TIP3   OH233888   1.061   4.769   8.619 -0.7952 -0.2540 -0.1851
 4110TIP3    H133889   1.030   4.687   8.579  0.5909  0.0760 -2.0758
 4110TIP3    H233890   1.137   4.743   8.671 -0.5392 -0.2091 -0.5375
 4111TIP3   OH233891   4.599   5.088   8.316 -0.2933  0.6040  0.8301
 4111TIP3    H133892   4.678   5.112   8.269  0.3053 -1.7287  0.5071
 4111TIP3    H233893   4.601   4.992   8.320 -2.6418  0.5069  1.6136
 4112TIP3   OH233894   0.288   5.525   1.396 -0.2648 -0.2007  0.4555
 4112TIP3    H133895   0.237   5.606   1.395  1.1935  0.7634 -0.4217
 4112TIP3    H233896   0.327   5.520   1.308  1.2242 -0.8187  1.1187
 4113TIP3   OH233897   1.615   5.972   8.647  0.1823  0.1878 -0.5691
 4113TIP3    H133898   1.692   5.921   8.623 -0.3428 -0.0218 -1.8487
 4113TIP3    H233899   1.547   5.907   8.663 -0.5463  0.4447 -2.4102
 4114TIP3   OH233900   4.331   4.435   6.595 -0.5405  0.4457  0.1158
 4114TIP3    H133901   4.330   4.383   6.675  2.2028 -0.0166 -0.0368
 4114TIP3    H233902   4.260   4.400   6.541 -0.9309 -0.8008  1.3986
 4115TIP3   OH233903   2.462   5.974   8.385 -0.0279 -0.4154  0.6108
 4115TIP3    H133904   2.368   5.985   8.402  0.3323  2.6573  1.2228
 4115TIP3    H233905   2.502   6.054   8.421  2.6195 -0.8149 -1.2021
 4116TIP3   OH233906   4.432   3.717   7.272 -0.2639  0.3427 -0.1421
 4116TIP3    H133907   4.483   3.689   7.348 -0.8200 -1.3750 -0.3580
 4116TIP3    H233908   4.450   3.811   7.264 -0.2328  0.5783  2.1227
 4117TIP3   OH233909   6.268   3.571   1.422 -0.3839  0.1530  0.3517
 4117TIP3    H133910   6.327   3.608   1.488 -0.2963 -1.2390  1.0834
 4117TIP3    H233911   6.242   3.486   1.458 -0.1747 -0.7406 -1.5035
 4118TIP3   OH233912   3.866   6.077   1.923 -0.4688 -0.1175 -0.3220
 4118TIP3    H133913   3.772   6.072   1.944 -0.2571 -1.4113  0.4024
 4118TIP3    H233914   3.908   6.096   2.007  0.0319 -1.0932 -0.3387
 4119TIP3   OH233915   3.762   1.337   1.067  0.2477 -0.5023  0.4116
 4119TIP3    H133916   3.855   1.358   1.055  0.1264  0.2215  0.6805
 4119TIP3    H233917   3.716   1.416   1.038 -0.3048 -0.9788 -0.0367
 4120TIP3   OH233918   0.806   1.487   8.350  0.3395 -0.9857 -0.2636
 4120TIP3    H133919   0.713   1.476   8.371  0.8686 -0.7843  2.5864
 4120TIP3    H233920   0.837   1.398   8.332  0.0626 -1.3888  1.1349
 4121TIP3   OH233921   1.276   2.165   8.161  0.0383  0.1222  0.0314
 4121TIP3    H133922   1.275   2.238   8.223  0.5695 -0.9103  1.3105
 4121TIP3    H233923   1.220   2.193   8.090  0.3009  1.8139  0.4466
 4122TIP3   OH233924   2.869   4.920   0.797  0.0621  0.2436 -0.3628
 4122TIP3    H133925   2.838   4.892   0.883 -0.1188  0.9932 -0.1797
 4122TIP3    H233926   2.899   4.839   0.755  0.0423 -0.1429  0.3543
 4123TIP3   OH233927   1.938   1.652   1.137  0.6176  0.4270  0.2024
 4123TIP3    H133928   1.980   1.589   1.079  0.3866  1.2982 -0.9532
 4123TIP3    H233929   1.937   1.609   1.223  2.1302 -0.3673 -0.1440
 4124TIP3   OH233930   1.688   4.625   1.283  0.3197  0.0308  0.2106
 4124TIP3    H133931   1.647   4.553   1.235 -0.3710  0.3000  0.3750
 4124TIP3    H233932   1.622   4.695   1.281  0.3420  0.1088  1.3956
 4125TIP3   OH233933   5.952   0.169   7.870 -0.4363 -0.1399  0.5369
 4125TIP3    H133934   5.872   0.161   7.921  0.2649  1.6920  2.0339
 4125TIP3    H233935   6.022   0.148   7.931  0.2601 -3.8670 -1.2864
 4126TIP3   OH233936   0.744   5.775   1.577  0.4710 -0.0863 -0.3008
 4126TIP3    H133937   0.791   5.789   1.659  0.6486 -2.2489  0.0389
 4126TIP3    H233938   0.654   5.800   1.597  0.3418 -1.3694  0.8406
 4127TIP3   OH233939   3.006   6.296   2.010  0.0301  0.5620 -0.1584
 4127TIP3    H133940   2.940   6.355   1.975  2.3298  4.3633  1.3005
 4127TIP3    H233941   2.963   6.252   2.083 -1.4362  1.3568 -0.5131
 4128TIP3   OH233942   4.291   1.592   7.758  0.0724 -0.1475 -0.2111
 4128TIP3    H133943   4.356   1.639   7.705  0.8986 -1.9264 -0.8633
 4128TIP3    H233944   4.217   1.577   7.698  0.5954 -1.2852 -0.6023
 4129TIP3   OH233945   1.011   5.315   1.630 -0.5090 -0.6273 -0.0386
 4129TIP3    H133946   0.984   5.378   1.696  2.4891  2.0098 -1.0474
 4129TIP3    H233947   0.935   5.304   1.573 -1.4347  1.4083  0.7286
 4130TIP3   OH233948   0.001   1.075   0.272  0.5994  0.0773  0.0909
 4130TIP3    H133949   0.005   1.151   0.214  0.4134 -0.2270 -0.3231
 4130TIP3    H233950  -0.078   1.029   0.247  1.5642 -1.1633 -0.8041
 4131TIP3   OH233951   6.053   1.084   8.169  0.2650 -0.6196  0.0775
 4131TIP3    H133952   6.131   1.133   8.145 -0.5566  0.2800 -0.8815
 4131TIP3    H233953   5.990   1.152   8.196 -0.2747 -1.3060  0.5883
 4132TIP3   OH233954   6.543   2.379   2.220 -0.3976 -0.7187 -0.1475
 4132TIP3    H133955   6.467   2.321   2.214 -0.8921 -0.0744 -0.2159
 4132TIP3    H233956   6.520   2.454   2.165 -0.6555  0.5060  1.5743
 4133TIP3   OH233957   4.170   0.071   0.754 -0.0266  0.2680 -0.1655
 4133TIP3    H133958   4.164   0.028   0.668  1.2986  1.0700 -0.6891
 4133TIP3    H233959   4.185  -0.001   0.815  0.5350 -0.1851 -0.8116
 4134TIP3   OH233960   1.443   6.708   1.227  0.1326 -0.0438 -0.0564
 4134TIP3    H133961   1.431   6.740   1.138 -0.3414 -2.5660 -0.9735
 4134TIP3    H233962   1.507   6.637   1.219  2.3368  1.5110  2.1018
 4135TIP3   OH233963   4.194   4.569   1.465 -0.3890 -0.0872  0.3353
 4135TIP3    H133964   4.139   4.512   1.411  0.5853  0.2836 -1.1150
 4135TIP3    H233965   4.134   4.636   1.498 -1.0380 -0.3885 -0.2166
 4136TIP3   OH233966   0.063   3.309   8.658  0.1631  0.0447 -0.1692
 4136TIP3    H133967  -0.009   3.373   8.656 -0.5420 -0.7367 -0.2001
 4136TIP3    H233968   0.020   3.224   8.650  1.0893 -0.4443 -0.0828
 4137TIP3   OH233969   3.538   3.280   6.924  0.5144 -0.3568  0.0171
 4137TIP3    H133970   3.448   3.310   6.930  0.6330 -0.0046  0.0775
 4137TIP3    H233971   3.545   3.241   6.837  0.6183  0.6830 -0.4583
 4138TIP3   OH233972   5.648   1.049   1.811 -0.4458  0.3683  0.0611
 4138TIP3    H133973   5.626   0.968   1.858 -0.8836 -1.2872 -2.7195
 4138TIP3    H233974   5.736   1.071   1.840 -0.3597 -1.0690  1.0013
 4139TIP3   OH233975   1.069   1.791   7.743 -0.4094 -0.5617  0.0910
 4139TIP3    H133976   1.135   1.804   7.811 -1.4115  1.8383  0.7336
 4139TIP3    H233977   1.116   1.799   7.660  0.2570  0.2007  0.5344
 4140TIP3   OH233978   6.750   5.109   1.146  0.0040 -0.0724 -0.2056
 4140TIP3    H133979   6.840   5.078   1.140 -0.1847 -0.5519 -0.7151
 4140TIP3    H233980   6.705   5.042   1.197 -0.4210 -0.7088 -1.3607
 4141TIP3   OH233981   3.278   3.951   2.087  0.4312 -0.0382 -0.1367
 4141TIP3    H133982   3.230   3.966   2.006  1.4134  0.0087 -0.7120
 4141TIP3    H233983   3.315   4.036   2.109 -2.4778  0.8417  2.1556
 4142TIP3   OH233984   3.558   2.004   7.664  0.1681  0.0893  0.1779
 4142TIP3    H133985   3.477   1.968   7.701 -1.8325  3.4944 -0.4698
 4142TIP3    H233986   3.563   1.965   7.577  0.1057 -1.3124  0.7735
 4143TIP3   OH233987   5.049   3.806   8.282 -0.1204  0.0084 -0.2671
 4143TIP3    H133988   4.994   3.728   8.287  0.6697 -0.6650 -1.3932
 4143TIP3    H233989   5.138   3.773   8.285  0.2288  0.8922 -0.4698
 4144TIP3   OH233990   1.083   1.897   2.578 -0.1884 -0.0156  0.1570
 4144TIP3    H133991   1.001   1.896   2.628  0.2773 -0.6209  0.9282
 4144TIP3    H233992   1.099   1.806   2.556 -0.0930  0.1854 -0.6424
 4145TIP3   OH233993   0.014   6.559   7.451 -0.2764 -0.0225 -0.1770
 4145TIP3    H133994  -0.063   6.539   7.503  0.4016 -2.0068  0.1427
 4145TIP3    H233995  -0.020   6.598   7.371 -1.7159 -1.7738 -0.4816
 4146TIP3   OH233996   0.451   2.265   7.474  0.6026  0.3252  0.3030
 4146TIP3    H133997   0.456   2.359   7.457  1.7532  0.3369  0.6096
 4146TIP3    H233998   0.416   2.228   7.393  0.8100  0.9537 -0.0816
 4147TIP3   OH233999   5.848   1.344   0.878 -0.0498 -0.1681 -0.2297
 4147TIP3    H134000   5.794   1.286   0.933  1.5620 -0.5701  1.0040
 4147TIP3    H234001   5.786   1.381   0.815 -2.0051  0.3114  1.8392
 4148TIP3   OH234002   5.973   1.480   7.074  0.5319  0.0635 -0.2814
 4148TIP3    H134003   5.966   1.410   7.140  1.4329 -1.4269 -1.6912
 4148TIP3    H234004   5.968   1.561   7.125  1.4157 -1.0246  1.6605
 4149TIP3   OH234005   0.629   6.381   0.118  0.7919  0.1478  0.6225
 4149TIP3    H134006   0.566   6.309   0.113 -1.3288  1.9597  0.2937
 4149TIP3    H234007   0.714   6.337   0.128 -0.1244 -2.4934 -1.7694
 4150TIP3   OH234008   3.114   4.172   7.230  0.3938 -0.2992  0.5808
 4150TIP3    H134009   3.032   4.195   7.275 -0.2895 -0.7453 -0.4069
 4150TIP3    H234010   3.101   4.202   7.140  0.7640 -1.5978  0.0698
 4151TIP3   OH234011   3.865   2.489   8.662 -0.0933 -0.4109  0.0305
 4151TIP3    H134012   3.930   2.484   8.592 -0.4349  0.7289 -0.3920
 4151TIP3    H234013   3.816   2.407   8.656 -0.1569 -0.2983 -1.1228
 4152TIP3   OH234014   3.050   0.321   7.986 -0.4400 -0.1239 -0.6413
 4152TIP3    H134015   2.997   0.370   8.049  0.2740 -0.7737  0.4849
 4152TIP3    H234016   3.118   0.280   8.038 -0.1564 -1.1345 -1.7683
 4153TIP3   OH234017   2.700   1.687   0.793 -0.3673 -0.3362  0.4506
 4153TIP3    H134018   2.643   1.764   0.787 -0.2093 -0.3083 -1.0831
 4153TIP3    H234019   2.787   1.723   0.808 -0.1442 -0.1198 -1.1529
 4154TIP3   OH234020   5.106   3.258   8.033 -0.1401 -0.2980 -0.8234
 4154TIP3    H134021   5.048   3.196   8.075  1.0414 -0.7751  0.1619
 4154TIP3    H234022   5.191   3.245   8.076  0.3791  1.2961 -1.2777
 4155TIP3   OH234023   0.017   1.735   1.347 -0.3174  0.1185  0.0973
 4155TIP3    H134024   0.103   1.752   1.311  0.1656 -0.3319  1.0021
 4155TIP3    H234025  -0.038   1.806   1.313  0.2552  0.0541 -0.9853
 4156TIP3   OH234026   0.591   0.844   0.227  0.5375 -0.3979 -0.4934
 4156TIP3    H134027   0.686   0.851   0.225  0.4590  1.1400 -0.1778
 4156TIP3    H234028   0.564   0.898   0.302 -0.5237 -1.7255  0.1360
 4157TIP3   OH234029   3.326   4.918   7.507  0.9251  0.1357 -0.2732
 4157TIP3    H134030   3.325   4.874   7.423 -0.8463  0.2797 -0.3622
 4157TIP3    H234031   3.355   4.851   7.569  0.8422 -0.3766 -0.7841
 4158TIP3   OH234032   1.531   2.623   1.486  0.3440  0.3325 -0.6139
 4158TIP3    H134033   1.513   2.709   1.525 -0.4722 -0.6262  1.2601
 4158TIP3    H234034   1.613   2.595   1.527  0.9448  0.4640 -1.6953
 4159TIP3   OH234035   0.268   1.030   0.052  0.2783  0.2603  0.4011
 4159TIP3    H134036   0.215   1.066  -0.019 -1.6118  1.2646  2.2068
 4159TIP3    H234037   0.259   0.935   0.043 -1.3934  0.3894  0.2750
 4160TIP3   OH234038   5.933   2.029   1.825  0.2487  0.2512  0.3302
 4160TIP3    H134039   5.928   1.982   1.908 -0.1284  1.5130  1.0479
 4160TIP3    H234040   5.901   1.967   1.760 -1.4407 -0.0722  1.4213
 4161TIP3   OH234041   1.884   2.457   8.259  0.1900 -0.5195 -0.2468
 4161TIP3    H134042   1.951   2.509   8.305  0.0865 -1.4417  1.0084
 4161TIP3    H234043   1.845   2.518   8.196 -1.7794  1.8616  2.9364
 4162TIP3   OH234044   1.745   5.740   1.652  0.6523  0.2302 -0.9301
 4162TIP3    H134045   1.738   5.771   1.743 -1.3821 -1.0595 -0.5827
 4162TIP3    H234046   1.825   5.781   1.619  1.2796  0.9895  1.3360
 4163TIP3   OH234047   6.635   2.304   0.661  0.3311 -0.0455 -0.0952
 4163TIP3    H134048   6.728   2.299   0.682  0.6714  0.6835 -1.2717
 4163TIP3    H234049   6.621   2.234   0.597  0.2310  0.2761 -0.4287
 4164TIP3   OH234050   4.699   4.871   8.029 -0.7352 -0.3360 -0.5936
 4164TIP3    H134051   4.743   4.792   7.997 -1.8458 -1.4040  0.4159
 4164TIP3    H234052   4.669   4.916   7.950  0.7926 -0.3562 -1.2319
 4165TIP3   OH234053   6.215   1.421   8.725 -0.1913  0.5222  0.7462
 4165TIP3    H134054   6.138   1.474   8.747 -0.4999 -0.5265  2.3455
 4165TIP3    H234055   6.290   1.477   8.746 -0.5139  0.6522  1.5548
 4166TIP3   OH234056   0.162   3.553   2.580 -0.1495  0.3372  0.3274
 4166TIP3    H134057   0.234   3.563   2.643  0.1653 -2.0578  0.4701
 4166TIP3    H234058   0.195   3.489   2.517 -1.3491  0.9066 -0.9300
 4167TIP3   OH234059   6.748   2.125   1.310 -0.3799  0.1341  0.1616
 4167TIP3    H134060   6.690   2.127   1.387 -1.7010  1.3039 -0.8001
 4167TIP3    H234061   6.722   2.202   1.260  1.4073  0.1512 -0.7882
 4168TIP3   OH234062   4.193   6.155   0.180  0.4897 -0.4682 -0.2403
 4168TIP3    H134063   4.104   6.189   0.195  0.9662  0.5505  0.4294
 4168TIP3    H234064   4.180   6.076   0.129 -0.6909  1.0359 -2.4574
 4169TIP3   OH234065   5.925   2.855   0.914 -0.2997 -0.0459 -0.5831
 4169TIP3    H134066   5.902   2.904   0.993 -0.7044 -0.6278 -0.3311
 4169TIP3    H234067   5.859   2.786   0.908  1.1130 -1.5206 -0.0782
 4170TIP3   OH234068   5.738   6.761   7.542 -0.4298  0.1194 -0.1771
 4170TIP3    H134069   5.660   6.804   7.507  1.1866  1.9332 -1.7688
 4170TIP3    H234070   5.710   6.670   7.558 -1.9096 -0.3923 -4.3961
 4171TIP3   OH234071   3.529   2.064   0.249 -0.7660 -0.1370 -0.2536
 4171TIP3    H134072   3.471   2.083   0.322  0.9138  0.4430  0.9936
 4171TIP3    H234073   3.508   1.975   0.223  0.2986 -1.3301  2.6224
 4172TIP3   OH234074   0.242   2.945   1.900  0.0043 -0.2823 -0.3597
 4172TIP3    H134075   0.301   2.968   1.971  1.0246  1.3502 -1.6731
 4172TIP3    H234076   0.161   2.917   1.944  0.9047 -0.2393  1.4214
 4173TIP3   OH234077   1.497   5.157   1.538 -0.2036 -0.6112 -0.0831
 4173TIP3    H134078   1.525   5.066   1.524  0.9700 -0.6266  1.9514
 4173TIP3    H234079   1.404   5.151   1.557 -0.3546 -1.2588 -0.9602
 4174TIP3   OH234080   2.930   4.348   1.738 -0.3439 -0.0381 -0.2358
 4174TIP3    H134081   2.980   4.267   1.732  0.7301  0.6007 -0.2631
 4174TIP3    H234082   2.838   4.321   1.731 -0.0264 -1.2778  0.1920
 4175TIP3   OH234083   4.865   2.462   0.925  0.1343  0.3137  0.0652
 4175TIP3    H134084   4.845   2.413   1.005  1.6201 -0.4737 -0.0070
 4175TIP3    H234085   4.790   2.520   0.913 -0.9542 -0.8500  1.0119
 4176TIP3   OH234086   2.976   5.854   0.593  0.1854  0.0725 -0.6442
 4176TIP3    H134087   2.940   5.942   0.604  0.8537  0.1977  0.7610
 4176TIP3    H234088   2.994   5.824   0.682  1.2426 -0.9598 -1.1745
 4177TIP3   OH234089   5.422   5.273   7.708 -0.4828  0.1055 -0.0887
 4177TIP3    H134090   5.450   5.361   7.730 -1.6529  0.4925 -0.0924
 4177TIP3    H234091   5.391   5.236   7.790  0.3949 -0.4684 -0.0014
 4178TIP3   OH234092   5.030   2.321   8.398  0.3742 -0.0609  0.5147
 4178TIP3    H134093   5.007   2.274   8.478  1.4461  0.7004  1.2981
 4178TIP3    H234094   4.953   2.372   8.376 -0.1986 -0.8597  0.6088
 4179TIP3   OH234095   0.271   0.341   6.341  0.7174 -0.3199  0.3287
 4179TIP3    H134096   0.176   0.345   6.337  0.7315  1.2246  0.8245
 4179TIP3    H234097   0.290   0.269   6.401 -0.1567 -0.2825  0.6595
 4180TIP3   OH234098   6.735   5.652   1.017  0.2063 -0.1699 -0.0667
 4180TIP3    H134099   6.822   5.651   0.978 -0.1055  1.7406 -0.9408
 4180TIP3    H234100   6.749   5.684   1.106  0.5969 -1.7573  0.4595
 4181TIP3   OH234101   2.947   6.141   7.092  0.2068 -0.7350 -0.2283
 4181TIP3    H134102   2.981   6.230   7.083 -0.1339 -0.6981 -1.3186
 4181TIP3    H234103   2.896   6.143   7.173  1.6285 -0.4251  0.6999
 4182TIP3   OH234104   2.883   0.221   7.340  0.1734  0.0535  0.3354
 4182TIP3    H134105   2.851   0.151   7.397 -0.5546 -0.2011 -0.3658
 4182TIP3    H234106   2.814   0.288   7.343  0.9030  0.8013  1.0689
 4183TIP3   OH234107   4.050   5.681   1.618 -0.6370 -0.7339 -0.5606
 4183TIP3    H134108   3.964   5.684   1.577 -0.7701  0.3373 -0.2552
 4183TIP3    H234109   4.038   5.728   1.701  0.5920  0.8573 -1.2329
 4184TIP3   OH234110   1.178   4.853   7.726  0.2656  0.0975 -0.2739
 4184TIP3    H134111   1.133   4.806   7.655  0.9314 -1.5166  0.3340
 4184TIP3    H234112   1.271   4.831   7.714  0.5133  0.7236  0.4338
 4185TIP3   OH234113   4.459   6.074   8.499 -0.5025  0.0308  1.0509
 4185TIP3    H134114   4.387   6.089   8.438 -0.9795  0.5381  1.7294
 4185TIP3    H234115   4.428   6.005   8.556  0.0845 -0.6957  0.5117
 4186TIP3   OH234116   5.410   6.083   2.275  0.7282 -0.1556  0.4620
 4186TIP3    H134117   5.327   6.063   2.318 -0.1363  1.4762 -0.3263
 4186TIP3    H234118   5.450   5.998   2.258 -1.5460 -1.0930 -0.5598
 4187TIP3   OH234119   1.478   6.522   8.600 -0.2225 -0.5061  0.3929
 4187TIP3    H134120   1.489   6.567   8.517 -0.3306  0.1965  0.7509
 4187TIP3    H234121   1.546   6.455   8.601 -0.9300 -1.2636 -0.7404
 4188TIP3   OH234122   4.093   3.443   0.199 -0.0242 -0.0073 -0.3141
 4188TIP3    H134123   4.061   3.418   0.112 -1.5287 -0.3301  0.3026
 4188TIP3    H234124   4.081   3.365   0.253 -2.0056  1.0252  0.9035
 4189TIP3   OH234125   0.218   2.867   0.888 -0.3635 -0.1769 -0.2137
 4189TIP3    H134126   0.151   2.926   0.921 -0.1006 -0.3307  0.6192
 4189TIP3    H234127   0.229   2.893   0.796 -1.4373 -0.0509 -0.3203
 4190TIP3   OH234128   2.034   0.279   1.068  0.7891  0.1818  0.3361
 4190TIP3    H134129   2.109   0.222   1.081  0.8789  0.0405 -0.7424
 4190TIP3    H234130   1.987   0.277   1.152  2.2666  0.7068  1.2213
 4191TIP3   OH234131   3.701   5.273   6.385  0.3249  0.8324  0.3304
 4191TIP3    H134132   3.677   5.361   6.357  0.5173  0.9842  0.6377
 4191TIP3    H234133   3.617   5.227   6.392  0.2623  0.8075 -0.4132
 4192TIP3   OH234134   4.674   5.554   7.667 -0.0934 -0.2071  0.3430
 4192TIP3    H134135   4.682   5.461   7.645 -0.1825 -0.2474  0.4846
 4192TIP3    H234136   4.642   5.555   7.757  1.2232 -0.0420  0.8394
 4193TIP3   OH234137   2.392   2.592   2.403 -0.3489 -0.0824  0.3012
 4193TIP3    H134138   2.315   2.542   2.431  0.3126 -1.0574  0.4031
 4193TIP3    H234139   2.358   2.650   2.333 -1.5239  0.7553  1.5111
 4194TIP3   OH234140   1.154   3.920   7.792  0.4325  0.4898  0.4054
 4194TIP3    H134141   1.061   3.907   7.777  0.3432  1.4122  0.1207
 4194TIP3    H234142   1.196   3.884   7.713  0.2185  1.3871 -0.1359
 4195TIP3   OH234143   2.661   0.293   8.417 -0.5450  0.3171 -0.0497
 4195TIP3    H134144   2.676   0.335   8.502 -1.1409 -1.1238  0.8074
 4195TIP3    H234145   2.606   0.356   8.369  0.1202  1.3215  0.4697
 4196TIP3   OH234146   5.380   1.790   1.409  0.0471 -0.4119 -0.2229
 4196TIP3    H134147   5.447   1.796   1.341  0.1523  0.2646 -0.0638
 4196TIP3    H234148   5.298   1.807   1.362  0.0053 -0.9964 -0.3713
 4197TIP3   OH234149   5.873   1.592   0.639  0.5213 -0.0822 -0.1726
 4197TIP3    H134150   5.942   1.528   0.656 -0.7660 -1.5273 -0.1217
 4197TIP3    H234151   5.823   1.555   0.566 -0.6439  0.5401  0.2794
 4198TIP3   OH234152   6.051   4.998   1.150  0.3838 -0.6908  0.2196
 4198TIP3    H134153   5.964   4.990   1.111  0.3832 -1.2028  0.3116
 4198TIP3    H234154   6.098   5.059   1.094  0.0651 -0.6591 -0.0139
 4199TIP3   OH234155   0.165   5.934   7.585  0.2631  0.5139 -0.3289
 4199TIP3    H134156   0.138   6.025   7.597 -1.7214  0.4480 -3.2421
 4199TIP3    H234157   0.097   5.896   7.529  0.8201 -2.9130  1.0882
 4200TIP3   OH234158   1.398   6.143   0.694  0.5070 -0.3187 -0.1569
 4200TIP3    H134159   1.396   6.239   0.690 -0.4731 -0.3458 -1.3709
 4200TIP3    H234160   1.319   6.120   0.743 -1.1545 -0.5142 -2.7180
 4201TIP3   OH234161   1.928   0.043   6.294  0.4092 -0.4238 -0.2055
 4201TIP3    H134162   1.979  -0.013   6.235  2.2793 -0.1184  1.0440
 4201TIP3    H234163   1.992   0.077   6.357 -1.2697  0.3989  1.1449
 4202TIP3   OH234164   5.015   2.913   7.110 -0.3410  0.3970  0.2011
 4202TIP3    H134165   4.990   2.880   7.024 -0.7762 -0.2251  0.5604
 4202TIP3    H234166   5.033   3.006   7.095  1.9993 -0.1734 -1.0540
 4203TIP3   OH234167   6.274   4.521   8.071 -0.0559  0.5964 -0.2873
 4203TIP3    H134168   6.237   4.601   8.109  0.3959  0.7475 -0.1693
 4203TIP3    H234169   6.340   4.493   8.134  0.1717  0.4297 -0.5990
 4204TIP3   OH234170   3.317   2.170   8.509  0.0751 -0.2020  0.1237
 4204TIP3    H134171   3.356   2.160   8.596  1.2463  1.6053 -0.1434
 4204TIP3    H234172   3.223   2.176   8.526  0.3804  1.5163  1.4285
 4205TIP3   OH234173   5.172   4.462   0.211 -0.0274 -0.1331 -0.3967
 4205TIP3    H134174   5.251   4.514   0.200 -0.1011  0.5367  1.8041
 4205TIP3    H234175   5.184   4.387   0.152  2.5981 -0.4535  0.4065
 4206TIP3   OH234176   0.896   4.969   7.023  0.1508 -0.3337 -0.1298
 4206TIP3    H134177   0.813   4.921   7.018 -0.8976  1.4060 -0.3469
 4206TIP3    H234178   0.926   4.975   6.932  1.0843 -1.8562  0.0529
 4207TIP3   OH234179   3.211   6.363   1.796  0.2467  0.4242 -0.5834
 4207TIP3    H134180   3.125   6.393   1.825 -0.0286 -1.0145  0.1459
 4207TIP3    H234181   3.209   6.268   1.807  2.3966  0.4670  0.7429
 4208TIP3   OH234182   2.875   1.872   7.926 -0.0168 -0.1774  0.2445
 4208TIP3    H134183   2.928   1.849   8.002 -1.8305 -2.2645  0.9857
 4208TIP3    H234184   2.804   1.926   7.961 -1.7847 -2.4822  0.4421
 4209TIP3   OH234185   1.454   2.374   0.594 -0.1405 -0.2076 -0.0823
 4209TIP3    H134186   1.549   2.377   0.583 -0.1255 -1.5082 -0.5298
 4209TIP3    H234187   1.421   2.364   0.504 -0.8110  1.6359 -0.0920
 4210TIP3   OH234188   3.106   2.401   1.170  0.1349 -0.2771  0.5485
 4210TIP3    H134189   3.135   2.324   1.121 -0.4875 -0.3733  0.3232
 4210TIP3    H234190   3.031   2.371   1.221 -1.0329  0.4885 -0.6198
 4211TIP3   OH234191   1.243   5.874   8.666  0.8268  0.3108 -0.0140
 4211TIP3    H134192   1.241   5.911   8.754  1.4093 -0.4109  0.3141
 4211TIP3    H234193   1.236   5.779   8.679 -1.7453  0.2965 -0.8884
 4212TIP3   OH234194   3.711   3.054   8.241  0.0842  0.0583  0.5441
 4212TIP3    H134195   3.616   3.066   8.249 -0.2971 -1.1797 -1.4170
 4212TIP3    H234196   3.736   3.011   8.323 -1.0434  0.3610  1.0710
 4213TIP3   OH234197   2.158   0.370   1.546 -0.2810 -0.0582 -0.3258
 4213TIP3    H134198   2.163   0.279   1.575 -1.9077 -0.5188 -1.3489
 4213TIP3    H234199   2.186   0.369   1.455  0.4922  0.6353 -0.1185
 4214TIP3   OH234200   0.258   2.313   2.348  0.1294  0.4899 -0.3626
 4214TIP3    H134201   0.292   2.251   2.413  1.9345  0.0623 -1.6432
 4214TIP3    H234202   0.163   2.315   2.364 -0.2273 -3.4729 -0.9279
 4215TIP3   OH234203   3.442   3.341   1.900  0.2264  0.0887  0.0255
 4215TIP3    H134204   3.352   3.321   1.876  0.0053 -0.3511  1.1402
 4215TIP3    H234205   3.492   3.325   1.820 -0.7924  1.3092 -0.8981
 4216TIP3   OH234206   2.648   0.684   6.194 -0.5099  0.1400 -0.3578
 4216TIP3    H134207   2.641   0.778   6.205  0.2350  0.1073  0.4687
 4216TIP3    H234208   2.643   0.649   6.283  2.1476 -0.3861 -0.3332
 4217TIP3   OH234209   3.246   1.858   2.011 -0.5787  0.4532  0.0757
 4217TIP3    H134210   3.281   1.774   2.041 -0.8478  0.2523 -0.1669
 4217TIP3    H234211   3.194   1.890   2.085 -1.3866 -0.1267 -0.2306
 4218TIP3   OH234212   5.024   6.444   0.049 -0.0995  0.4679 -0.1110
 4218TIP3    H134213   4.989   6.478  -0.034  1.2577  1.5272 -0.2805
 4218TIP3    H234214   4.993   6.506   0.115  1.1935  1.2674 -0.2291
 4219TIP3   OH234215   1.762   0.726   6.897 -0.5445  0.5052  0.2140
 4219TIP3    H134216   1.713   0.648   6.871  0.1834  0.0351  0.2284
 4219TIP3    H234217   1.708   0.766   6.964 -0.5583 -0.4379  0.7956
 4220TIP3   OH234218   6.134   4.458   0.741  0.2005 -0.2228 -0.2417
 4220TIP3    H134219   6.195   4.395   0.779  0.0892 -0.3085 -0.2043
 4220TIP3    H234220   6.176   4.543   0.754  1.1305 -0.4185 -1.7914
 4221TIP3   OH234221   0.595   2.010   0.027  0.1019 -0.1417  0.3165
 4221TIP3    H134222   0.506   2.025  -0.004 -0.0251  2.3007  1.7044
 4221TIP3    H234223   0.628   1.940  -0.030 -3.1427 -2.2090  0.7286
 4222TIP3   OH234224   2.831   3.355   7.821 -0.4748  0.0925 -0.0840
 4222TIP3    H134225   2.837   3.290   7.751 -1.1239  0.1068 -0.1617
 4222TIP3    H234226   2.869   3.434   7.783 -1.4620  0.3023 -0.6905
 4223TIP3   OH234227   0.159   4.704   0.342 -0.2552  0.0930  0.5164
 4223TIP3    H134228   0.183   4.791   0.375 -2.1736  0.2643  1.6471
 4223TIP3    H234229   0.210   4.643   0.395  0.3162  0.4960  0.4418
 4224TIP3   OH234230   6.152   5.243   1.654  0.0995 -0.0590  0.2682
 4224TIP3    H134231   6.109   5.318   1.613  1.4303  0.8747  0.5049
 4224TIP3    H234232   6.195   5.280   1.732  3.0446 -0.4565 -1.0216
 4225TIP3   OH234233   0.211   1.026   7.995 -0.1617 -0.2607  0.1103
 4225TIP3    H134234   0.302   1.011   8.020 -0.2418 -1.3504 -0.2125
 4225TIP3    H234235   0.178   1.088   8.060 -0.0711 -2.1816  2.1099
 4226TIP3   OH234236   3.106   6.112   8.700 -0.5591 -0.1957  0.1176
 4226TIP3    H134237   3.122   6.128   8.607 -0.3535  0.8638  0.3134
 4226TIP3    H234238   3.193   6.106   8.739 -0.5084  2.8053  0.7454
 4227TIP3   OH234239   5.977   3.547   6.412  0.4785  0.3135 -0.0893
 4227TIP3    H134240   5.974   3.553   6.317  0.9494  0.7873 -0.0820
 4227TIP3    H234241   5.901   3.596   6.442  0.5262  0.4657 -0.2153
 4228TIP3   OH234242   6.590   4.475   0.742  0.3650 -0.6741  0.5451
 4228TIP3    H134243   6.584   4.565   0.773 -0.1425 -0.6322  0.3449
 4228TIP3    H234244   6.638   4.480   0.659  0.6239 -0.6272  0.7006
 4229TIP3   OH234245   3.912   6.351   7.896  0.2166 -0.3346  0.2519
 4229TIP3    H134246   3.868   6.436   7.894  0.0352 -0.4237  0.4904
 4229TIP3    H234247   3.862   6.299   7.959 -0.7310 -1.2074 -1.1661
 4230TIP3   OH234248   2.762   2.212   0.437  0.4075 -0.2208  0.0655
 4230TIP3    H134249   2.691   2.150   0.422  0.1825 -0.4731  1.9766
 4230TIP3    H234250   2.727   2.273   0.502  1.4425  0.5413 -0.0693
 4231TIP3   OH234251   5.856   5.334   1.094  0.1613 -0.2016 -0.2113
 4231TIP3    H134252   5.838   5.410   1.038 -1.3411 -1.3298 -1.3433
 4231TIP3    H234253   5.778   5.279   1.086  1.5318 -2.2903 -0.1405
 4232TIP3   OH234254   2.390   0.870   6.432 -0.0715 -0.3411  0.1909
 4232TIP3    H134255   2.477   0.876   6.392 -0.1280  0.1721  0.1475
 4232TIP3    H234256   2.385   0.944   6.492 -0.8429  0.1912 -0.5161
 4233TIP3   OH234257   1.916   5.275   7.516  0.1780 -0.8885 -0.0239
 4233TIP3    H134258   1.940   5.274   7.609 -2.1992  0.0954  0.6761
 4233TIP3    H234259   1.880   5.188   7.499 -3.1953  0.1232  1.1879
 4234TIP3   OH234260   0.971   3.213   7.652 -0.1072 -0.0712  0.2253
 4234TIP3    H134261   0.938   3.178   7.735 -0.4360 -1.1859 -0.3483
 4234TIP3    H234262   0.982   3.136   7.596 -3.5603  0.8597 -2.0740
 4235TIP3   OH234263   6.030   4.892   7.738  0.3237  0.0113 -0.4107
 4235TIP3    H134264   5.958   4.911   7.678 -0.0919 -0.3463 -0.0303
 4235TIP3    H234265   5.994   4.906   7.825  0.7769  0.0363 -0.2213
 4236TIP3   OH234266   4.811   6.650   7.473  0.4514 -0.2353 -0.5311
 4236TIP3    H134267   4.805   6.555   7.466  0.4336 -0.3467  0.8038
 4236TIP3    H234268   4.852   6.678   7.391  0.7502 -1.4170 -0.7941
 4237TIP3   OH234269   6.189   4.754   1.271  0.0871  0.1229 -0.6197
 4237TIP3    H134270   6.170   4.829   1.215  0.5420 -0.6421 -1.8487
 4237TIP3    H234271   6.121   4.755   1.338  0.1794  1.7116 -0.5181
 4238TIP3   OH234272   5.305   3.734   6.264  0.4572  0.0697  0.1194
 4238TIP3    H134273   5.226   3.775   6.229 -0.4516 -1.5777  0.1357
 4238TIP3    H234274   5.316   3.654   6.212  2.8600  0.8506 -0.7277
 4239TIP3   OH234275   0.951   0.294   1.138  0.7781 -0.1015 -0.6193
 4239TIP3    H134276   0.993   0.345   1.208 -0.1538  0.8203 -0.7105
 4239TIP3    H234277   1.002   0.213   1.134  2.7351  1.0796 -0.9216
 4240TIP3   OH234278   6.464   4.825   8.208 -0.3120 -0.7150  0.2568
 4240TIP3    H134279   6.395   4.781   8.258 -1.2734 -0.9168 -1.2046
 4240TIP3    H234280   6.423   4.849   8.125  0.9552  0.5406 -0.0534
 4241TIP3   OH234281   0.070   3.185   6.848 -0.0168 -0.5090  0.0577
 4241TIP3    H134282   0.063   3.255   6.782  1.0243 -0.3089  0.1340
 4241TIP3    H234283   0.066   3.104   6.797  1.3092 -0.3516 -0.3420
 4242TIP3   OH234284   2.991   1.815   0.853  0.2325 -0.0572  0.6300
 4242TIP3    H134285   2.913   1.864   0.880 -0.9022 -0.8766 -0.9832
 4242TIP3    H234286   3.063   1.877   0.864 -0.8481  1.2253  0.7387
 4243TIP3   OH234287   5.818   4.418   6.938  0.2947  0.2772 -0.1912
 4243TIP3    H134288   5.774   4.472   7.003 -2.1805  0.1315 -1.6006
 4243TIP3    H234289   5.903   4.460   6.924  0.2811  1.1285  2.0062
 4244TIP3   OH234290   1.231   5.013   1.336  0.1639  0.2922 -0.0510
 4244TIP3    H134291   1.208   5.090   1.282 -0.7850  0.9389  1.2302
 4244TIP3    H234292   1.154   4.956   1.330  0.5512 -0.2038 -0.3573
 4245TIP3   OH234293   0.355   5.805   1.249  0.3100 -0.1325  0.0045
 4245TIP3    H134294   0.303   5.879   1.217  0.8599  0.3099  0.1171
 4245TIP3    H234295   0.360   5.745   1.175 -1.6478 -0.9142  0.4425
 4246TIP3   OH234296   5.648   0.652   8.551  0.0309 -0.4187 -0.0622
 4246TIP3    H134297   5.721   0.647   8.612  1.3510  0.9578 -1.4714
 4246TIP3    H234298   5.677   0.602   8.475 -0.2260  0.6860 -0.8952
 4247TIP3   OH234299   2.276   6.799   2.509 -0.4569 -0.1626 -0.0404
 4247TIP3    H134300   2.247   6.708   2.519 -3.4727  0.7209  0.3991
 4247TIP3    H234301   2.209   6.850   2.555  1.0474  2.3038 -0.4191
 4248TIP3   OH234302   5.619   2.151   0.286  0.9058  0.4300 -0.2016
 4248TIP3    H134303   5.544   2.170   0.343  0.0800 -0.8924 -0.8041
 4248TIP3    H234304   5.688   2.124   0.346  0.3609 -0.0018  0.2454
 4249TIP3   OH234305   6.750   6.650   7.224 -0.0661 -0.3274  0.2080
 4249TIP3    H134306   6.763   6.610   7.138 -3.2353 -2.1586  0.4167
 4249TIP3    H234307   6.680   6.714   7.211 -0.4508 -0.4804  1.3356
 4250TIP3   OH234308   3.389   1.545   7.307  0.3550  0.3912  0.3335
 4250TIP3    H134309   3.354   1.633   7.322 -2.1514 -0.6052  0.8381
 4250TIP3    H234310   3.456   1.534   7.375  0.0611  1.5728  0.8421
 4251TIP3   OH234311   2.279   0.162   1.995 -0.5743 -0.4030 -0.3383
 4251TIP3    H134312   2.229   0.239   2.021 -1.8379 -1.6271  1.0758
 4251TIP3    H234313   2.256   0.095   2.060  1.6875 -1.5293 -0.5731
 4252TIP3   OH234314   3.241   3.441   6.185  0.1517 -0.4894 -0.3255
 4252TIP3    H134315   3.239   3.429   6.280  1.0127  1.2609 -0.0459
 4252TIP3    H234316   3.329   3.414   6.159 -0.0117 -0.7583 -0.6190
 4253TIP3   OH234317   5.550   2.763   0.723 -0.1515 -0.1943 -0.1408
 4253TIP3    H134318   5.568   2.846   0.767  1.4102 -1.4115  1.6965
 4253TIP3    H234319   5.476   2.726   0.771 -1.0652  0.2596 -1.1736
 4254TIP3   OH234320   0.323   3.782   8.598  0.1715  0.0277 -0.3777
 4254TIP3    H134321   0.372   3.794   8.517  0.3038  2.3542 -0.0178
 4254TIP3    H234322   0.353   3.698   8.632  2.4514  0.4534 -1.1705
 4255TIP3   OH234323   2.243   6.131   7.019  0.1311  0.8601 -0.0218
 4255TIP3    H134324   2.290   6.175   6.949  1.1533  0.2347  0.2489
 4255TIP3    H234325   2.204   6.054   6.977  0.8025  0.4469  0.0945
 4256TIP3   OH234326   4.955   4.495   1.488  0.2931 -0.1495  0.2805
 4256TIP3    H134327   4.968   4.419   1.545 -1.8510 -1.5367 -0.9512
 4256TIP3    H234328   4.937   4.458   1.402  1.1229  1.8369 -0.8048
 4257TIP3   OH234329   5.271   4.873   0.855  0.7508 -0.3161 -0.3241
 4257TIP3    H134330   5.199   4.841   0.910  0.2777  2.3995  0.7898
 4257TIP3    H234331   5.342   4.888   0.917  1.5816 -0.9846 -1.1047
 4258TIP3   OH234332   6.387   3.285   6.918  0.2227 -0.2629 -0.0008
 4258TIP3    H134333   6.336   3.361   6.945  0.8276  0.2475 -0.2648
 4258TIP3    H234334   6.322   3.218   6.898 -0.2540 -0.4977  2.1813
 4259TIP3   OH234335   0.283   4.773   7.919  0.6396 -0.4774 -0.1779
 4259TIP3    H134336   0.279   4.857   7.965 -1.1306  0.4683 -1.9072
 4259TIP3    H234337   0.294   4.708   7.989 -0.7138  0.9728  1.4958
 4260TIP3   OH234338   0.498   6.094   7.743  0.2536  0.5790 -0.4157
 4260TIP3    H134339   0.493   6.009   7.699  1.3668  0.3115 -0.0685
 4260TIP3    H234340   0.455   6.155   7.683  0.3588 -0.0479 -1.1453
 4261TIP3   OH234341   0.935   4.518   8.554  0.3160  0.1699  0.5352
 4261TIP3    H134342   0.984   4.464   8.615  1.1283  0.0507 -0.2023
 4261TIP3    H234343   0.954   4.480   8.468  0.8977  1.6131 -0.0064
 4262TIP3   OH234344   5.219   4.600   2.565  0.1246  0.2976  0.8897
 4262TIP3    H134345   5.137   4.597   2.516 -0.4707  0.5552  1.8444
 4262TIP3    H234346   5.253   4.688   2.548  0.9090 -0.2501 -0.5841
 4263TIP3   OH234347   6.261   1.914   7.352 -0.0777  0.2711  0.3107
 4263TIP3    H134348   6.175   1.924   7.311  0.6224 -1.2126 -1.6918
 4263TIP3    H234349   6.242   1.885   7.441 -1.6531  0.6905  0.1507
 4264TIP3   OH234350   2.967   2.444   0.533 -0.0235  0.7955 -0.3414
 4264TIP3    H134351   2.971   2.525   0.481  1.0939  0.7985 -0.2575
 4264TIP3    H234352   2.877   2.413   0.520  0.2692  0.6723 -2.4789
 4265TIP3   OH234353   4.255   4.768   0.265  0.5864  0.4147 -0.1153
 4265TIP3    H134354   4.199   4.694   0.290  1.9845 -0.8146 -0.5275
 4265TIP3    H234355   4.194   4.841   0.257 -0.9399 -0.8212 -0.3363
 4266TIP3   OH234356   5.767   1.558   7.461 -0.0419  1.1702  0.0834
 4266TIP3    H134357   5.725   1.530   7.542  0.2220  0.3908 -0.0473
 4266TIP3    H234358   5.695   1.591   7.407 -0.3928  0.5158  0.1435
 4267TIP3   OH234359   2.910   5.489   1.021  0.4042 -0.0461 -0.1086
 4267TIP3    H134360   2.887   5.494   1.114 -0.9964 -0.0465 -0.4394
 4267TIP3    H234361   2.946   5.401   1.010  0.6846 -0.0075  0.4520
 4268TIP3   OH234362   0.547   1.476   6.510  0.2363 -0.5646  0.3496
 4268TIP3    H134363   0.454   1.467   6.487  0.3040  0.0329 -0.1810
 4268TIP3    H234364   0.549   1.547   6.574  0.4140 -0.0795 -0.1969
 4269TIP3   OH234365   2.398   3.943   1.321  0.5951 -0.2863 -0.2023
 4269TIP3    H134366   2.493   3.930   1.326  1.2990  2.9759 -1.8182
 4269TIP3    H234367   2.365   3.867   1.275  3.0331  0.1442 -2.9181
 4270TIP3   OH234368   4.520   2.627   8.339 -0.1369 -0.1383  0.7154
 4270TIP3    H134369   4.492   2.718   8.353 -1.3359  0.0661 -2.2245
 4270TIP3    H234370   4.441   2.576   8.355 -0.3325 -0.2944 -0.6009
 4271TIP3   OH234371   0.592   6.252   1.397 -0.1411  1.2242 -0.4097
 4271TIP3    H134372   0.541   6.272   1.318 -1.6346  1.8022  0.6628
 4271TIP3    H234373   0.616   6.159   1.387  0.4945  1.5214 -1.9452
 4272TIP3   OH234374   6.234   1.760   6.879  0.4619 -0.3124 -0.1807
 4272TIP3    H134375   6.175   1.803   6.817 -0.9840 -3.7799 -1.4233
 4272TIP3    H234376   6.203   1.790   6.965 -0.6360  0.8653 -0.9388
 4273TIP3   OH234377   0.877   0.905   0.247 -0.0928  0.4445  0.0056
 4273TIP3    H134378   0.939   0.953   0.192  0.7802  0.4197  0.9395
 4273TIP3    H234379   0.815   0.971   0.278  1.6359  1.2419  2.0399
 4274TIP3   OH234380   6.714   4.736   8.511 -0.0619 -0.0067 -0.3301
 4274TIP3    H134381   6.688   4.803   8.448  0.6806  2.0722  1.4610
 4274TIP3    H234382   6.635   4.721   8.563  0.2983  1.0059  0.5417
 4275TIP3   OH234383   3.359   4.168   0.359 -0.0026  0.1655  0.6069
 4275TIP3    H134384   3.375   4.260   0.378 -1.5979  0.9108 -1.3112
 4275TIP3    H234385   3.433   4.141   0.304  1.7126 -0.4580  3.0375
 4276TIP3   OH234386   2.430   1.637   0.751  0.5285  0.2553  0.6139
 4276TIP3    H134387   2.399   1.668   0.666  0.6142 -1.7922 -0.2079
 4276TIP3    H234388   2.524   1.656   0.751  0.5265  0.2721  0.2640
 4277TIP3   OH234389   0.220   1.178   0.648  0.1184 -0.5889 -0.1729
 4277TIP3    H134390   0.266   1.096   0.661 -0.2391 -0.5285  1.6604
 4277TIP3    H234391   0.139   1.153   0.602  0.3124 -1.1573 -0.2066
 4278TIP3   OH234392   6.791   3.628   6.678  1.1908 -0.2358 -0.6606
 4278TIP3    H134393   6.697   3.646   6.675  0.9349 -1.6004 -2.1704
 4278TIP3    H234394   6.830   3.692   6.618  1.3762  0.9157  0.6328
 4279TIP3   OH234395   4.904   1.081   8.198 -0.0394 -0.3903 -0.2619
 4279TIP3    H134396   4.876   1.092   8.107  0.6002  1.7179 -0.2466
 4279TIP3    H234397   4.997   1.060   8.192  0.1832  0.4903 -0.1076
 4280TIP3   OH234398   6.449   3.258   7.776 -0.0905  0.5457  0.1084
 4280TIP3    H134399   6.536   3.252   7.815 -0.5038 -1.4419  0.8571
 4280TIP3    H234400   6.397   3.304   7.842  0.3705  1.6938 -0.3204
 4281TIP3   OH234401   5.411   0.997   0.921 -0.9155 -0.1495  0.1687
 4281TIP3    H134402   5.344   1.041   0.868 -1.7993 -0.9701  0.5812
 4281TIP3    H234403   5.436   1.063   0.986 -2.2909 -0.2501  0.8392
 4282TIP3   OH234404   2.591   4.568   0.702 -0.4336  0.2172 -0.6215
 4282TIP3    H134405   2.598   4.504   0.631 -2.9727  0.6018 -1.3178
 4282TIP3    H234406   2.627   4.522   0.779 -2.3382 -2.2104 -1.0423
 4283TIP3   OH234407   3.844   3.659   7.580 -0.2195 -0.0196  0.1132
 4283TIP3    H134408   3.864   3.644   7.673 -1.5608 -2.1146  0.1385
 4283TIP3    H234409   3.769   3.717   7.582 -0.5961 -0.5018  0.3869
 4284TIP3   OH234410   4.011   4.964   8.613  0.8050 -0.0740  0.5555
 4284TIP3    H134411   4.028   5.056   8.591  2.8562 -0.6821 -0.6572
 4284TIP3    H234412   3.920   4.950   8.587  0.4073  1.6397  0.9162
 4285TIP3   OH234413   2.422   4.925   6.319 -0.2751  0.1999 -0.5294
 4285TIP3    H134414   2.471   4.951   6.241 -0.2694  0.3533 -0.4743
 4285TIP3    H234415   2.488   4.895   6.381 -0.3137 -0.3541 -0.7480
 4286TIP3   OH234416   6.088   2.290   0.300  0.0511 -0.1571  0.3634
 4286TIP3    H134417   6.016   2.271   0.240 -0.8471 -0.8165  1.5736
 4286TIP3    H234418   6.107   2.205   0.341 -1.0747  0.6364  2.7629
 4287TIP3   OH234419   3.201   6.287   6.361 -0.1263  0.0337  0.1134
 4287TIP3    H134420   3.216   6.258   6.451  1.3882  0.3971 -0.0029
 4287TIP3    H234421   3.132   6.229   6.329 -2.8715  1.7799  2.4180
 4288TIP3   OH234422   3.444   4.396   6.798 -0.2389 -0.0200  0.5518
 4288TIP3    H134423   3.425   4.415   6.706 -1.2788  0.3005  0.8234
 4288TIP3    H234424   3.416   4.306   6.811 -0.5141  0.0794  0.6612
 4289TIP3   OH234425   4.692   0.715   8.502 -0.5023  0.2649 -0.3033
 4289TIP3    H134426   4.675   0.662   8.580 -0.4732  1.1346  0.3123
 4289TIP3    H234427   4.695   0.652   8.430  0.2271 -0.6521  0.5040
 4290TIP3   OH234428   5.280   4.365   7.745  0.9094  0.3779  0.3477
 4290TIP3    H134429   5.240   4.438   7.698  0.5572  0.9865  1.5649
 4290TIP3    H234430   5.214   4.296   7.743  1.0375  0.2700 -0.3553
 4291TIP3   OH234431   3.723   4.378   2.489 -0.2870  0.1513  0.0150
 4291TIP3    H134432   3.812   4.373   2.453  0.8832 -0.3618  2.7433
 4291TIP3    H234433   3.688   4.461   2.456  1.3473  0.5533 -0.8050
 4292TIP3   OH234434   2.905   0.590   8.657 -0.2187  0.2209  0.4781
 4292TIP3    H134435   2.953   0.524   8.607  0.6884  2.3947 -1.7215
 4292TIP3    H234436   2.971   0.634   8.710 -0.5874  0.2412  0.9325
 4293TIP3   OH234437   1.114   2.353   6.899 -0.1879  0.5696  0.3709
 4293TIP3    H134438   1.067   2.328   6.819  1.9776  0.1345 -0.8527
 4293TIP3    H234439   1.134   2.446   6.887  2.3155 -0.0479 -0.8697
 4294TIP3   OH234440   0.041   2.938   6.734  0.2137 -0.2228 -0.1579
 4294TIP3    H134441  -0.023   2.977   6.674 -0.6352 -2.0524 -0.5029
 4294TIP3    H234442   0.108   2.901   6.676  2.5668  3.0155  0.2091
 4295TIP3   OH234443   4.140   3.562   7.961 -0.5329  0.2704 -0.1230
 4295TIP3    H134444   4.094   3.496   8.013 -2.5572  1.8000  0.1902
 4295TIP3    H234445   4.228   3.528   7.951 -0.5211 -0.9272  2.8864
 4296TIP3   OH234446   2.215   2.935   0.178  0.3394  0.4604  0.0153
 4296TIP3    H134447   2.190   2.868   0.242  3.7515 -2.5263 -1.3981
 4296TIP3    H234448   2.309   2.948   0.193  0.2373  3.3038 -1.2895
 4297TIP3   OH234449   6.257   5.820   1.625  0.0345  0.7911 -0.8273
 4297TIP3    H134450   6.289   5.783   1.543 -0.2974 -0.3261 -0.4724
 4297TIP3    H234451   6.206   5.896   1.599 -2.3131 -1.0337 -1.9106
 4298TIP3   OH234452   6.036   0.245   7.375  0.0803 -0.0419 -0.3900
 4298TIP3    H134453   5.945   0.253   7.347  0.2612  3.3579 -0.3555
 4298TIP3    H234454   6.031   0.207   7.463 -1.3735  0.9291 -0.0298
 4299TIP3   OH234455   5.587   3.643   0.641  0.2181 -0.3545  0.6781
 4299TIP3    H134456   5.672   3.618   0.604 -1.0149  0.4925 -3.2559
 4299TIP3    H234457   5.592   3.738   0.651  0.2424 -0.4830  2.0814
 4300TIP3   OH234458   0.696   0.058   1.184 -0.2937  0.6972  0.4539
 4300TIP3    H134459   0.709   0.127   1.119  1.5360 -1.1799 -1.3621
 4300TIP3    H234460   0.602   0.039   1.181 -0.2802  0.6924 -1.7122
 4301TIP3   OH234461   3.187   3.965   7.721  0.0888  0.4220 -0.4661
 4301TIP3    H134462   3.143   3.921   7.648 -0.2746 -0.9570  0.5530
 4301TIP3    H234463   3.253   3.902   7.751  1.8303  1.8666 -1.0194
 4302TIP3   OH234464   3.892   4.302   7.854  0.3693  0.7270  0.1339
 4302TIP3    H134465   3.801   4.332   7.857 -0.3326 -1.2746  2.1676
 4302TIP3    H234466   3.887   4.217   7.809  1.4578  1.1121 -0.7696
 4303TIP3   OH234467   4.157   5.159   7.592  0.2872  0.5983  0.1557
 4303TIP3    H134468   4.103   5.092   7.634  0.7554 -0.4177 -0.8007
 4303TIP3    H234469   4.104   5.239   7.597 -0.1789  0.2319  1.5367
 4304TIP3   OH234470   4.135   5.379   1.771 -0.3356 -0.0285 -0.1755
 4304TIP3    H134471   4.066   5.348   1.712 -1.5817 -0.8396  1.6101
 4304TIP3    H234472   4.162   5.463   1.734 -2.1993  0.2460 -1.0174
 4305TIP3   OH234473   1.495   3.679   7.860  0.2391 -0.1278  0.6048
 4305TIP3    H134474   1.419   3.624   7.882  0.5010 -0.9674 -0.4879
 4305TIP3    H234475   1.514   3.726   7.940 -1.8448  0.6052  0.7499
 4306TIP3   OH234476   6.479   4.635   8.623 -0.1664  0.3365 -0.3221
 4306TIP3    H134477   6.520   4.555   8.656  0.4355  0.2109 -1.3336
 4306TIP3    H234478   6.386   4.611   8.613  0.0986 -0.4066 -1.1141
 4307TIP3   OH234479   3.125   1.726   7.109 -0.1352 -0.3943  0.0517
 4307TIP3    H134480   3.041   1.720   7.155 -0.6196  2.3718 -0.2606
 4307TIP3    H234481   3.123   1.653   7.047 -2.1033 -0.6906  0.3786
 4308TIP3   OH234482   1.494   3.270   0.372  0.1039 -0.1941  0.0063
 4308TIP3    H134483   1.502   3.343   0.311 -0.2032 -0.4358 -0.3299
 4308TIP3    H234484   1.440   3.303   0.443  2.2133  0.7813  1.2413
 4309TIP3   OH234485   2.422   4.053   2.132  0.5895 -0.2985 -0.0767
 4309TIP3    H134486   2.516   4.035   2.125  0.6639 -0.8310  1.7795
 4309TIP3    H234487   2.394   4.003   2.209 -1.7018 -1.9781 -1.8571
 4310TIP3   OH234488   4.438   2.398   2.241 -0.1116 -0.0044  0.0363
 4310TIP3    H134489   4.370   2.417   2.176 -0.2901 -0.7518 -0.0096
 4310TIP3    H234490   4.391   2.363   2.316  0.1776 -0.0981  0.1769
 4311TIP3   OH234491   1.569   2.638   8.417 -0.2469 -0.1503  0.7411
 4311TIP3    H134492   1.622   2.585   8.476  0.5431 -0.4703 -0.2267
 4311TIP3    H234493   1.632   2.690   8.367 -0.7569 -0.9134 -0.7869
 4312TIP3   OH234494   5.395   5.247   7.438  0.7064  0.2359  0.6507
 4312TIP3    H134495   5.456   5.309   7.397 -1.8571  2.0798 -0.6231
 4312TIP3    H234496   5.413   5.254   7.532  3.6512 -0.7376  0.2841
 4313TIP3   OH234497   4.212   3.001   0.085  0.1059  0.4574  0.1762
 4313TIP3    H134498   4.191   2.927   0.028  0.1818  0.4120  0.2076
 4313TIP3    H234499   4.143   3.065   0.067  0.2758  0.5472 -0.1570
 4314TIP3   OH234500   1.589   6.459   6.941  0.0631 -0.3944  0.3581
 4314TIP3    H134501   1.599   6.538   6.889  2.2047  1.3482  3.1195
 4314TIP3    H234502   1.651   6.397   6.903  1.1623  0.6344  0.4102
 4315TIP3   OH234503   5.266   0.489   0.864 -0.0527  0.7522  0.2757
 4315TIP3    H134504   5.314   0.466   0.785  1.1432 -1.9700  1.6711
 4315TIP3    H234505   5.175   0.468   0.844  0.2853 -0.2086 -0.2957
 4316TIP3   OH234506   4.647   4.693   0.810  0.2135  0.5308 -0.0501
 4316TIP3    H134507   4.632   4.769   0.866  0.8286  1.6562 -1.3597
 4316TIP3    H234508   4.733   4.660   0.837  0.1470  0.5610  0.2093
 4317TIP3   OH234509   6.231   2.579   8.384  0.3083  0.0686  0.1078
 4317TIP3    H134510   6.151   2.620   8.417  0.8085  2.4460 -1.4121
 4317TIP3    H234511   6.203   2.533   8.304  0.1424 -0.8158  0.6555
 4318TIP3   OH234512   3.714   5.938   8.305 -0.3861  0.0745 -0.2528
 4318TIP3    H134513   3.636   5.928   8.251 -0.7234 -2.1211  0.5419
 4318TIP3    H234514   3.701   6.020   8.352 -1.1315  0.8707 -1.7831
 4319TIP3   OH234515   0.686   3.150   2.094  0.0900 -0.4792 -0.2041
 4319TIP3    H134516   0.668   3.100   2.174  0.1367 -0.8310 -0.4108
 4319TIP3    H234517   0.709   3.237   2.125 -0.7945 -0.3511  0.1251
 4320TIP3   OH234518   3.829   6.613   7.963 -0.2059 -0.1262 -0.6693
 4320TIP3    H134519   3.892   6.633   8.032 -0.4841 -0.7180 -0.2308
 4320TIP3    H234520   3.767   6.687   7.966  0.5610  0.5567 -1.2393
 4321TIP3   OH234521   0.836   3.996   0.676 -0.3904  0.2534  0.3348
 4321TIP3    H134522   0.845   4.055   0.750 -0.5112  2.1527 -1.0857
 4321TIP3    H234523   0.783   4.044   0.612  0.3590 -0.9697 -1.3073
 4322TIP3   OH234524   5.146   1.681   8.172 -0.0597  0.3441  0.0330
 4322TIP3    H134525   5.137   1.596   8.214 -1.8211  1.3655  1.9039
 4322TIP3    H234526   5.056   1.712   8.160  0.5036  1.5257 -1.5564
 4323TIP3   OH234527   5.053   2.849   1.339 -0.1397 -0.1208  0.1024
 4323TIP3    H134528   5.112   2.917   1.372 -1.4632  0.4938  1.3258
 4323TIP3    H234529   4.971   2.895   1.322 -1.3412 -1.5310  1.7716
 4324TIP3   OH234530   3.804   4.843   1.504 -0.0937 -0.3812 -0.2146
 4324TIP3    H134531   3.767   4.847   1.592 -0.4785 -0.1705 -0.3825
 4324TIP3    H234532   3.757   4.911   1.456 -1.0704 -1.5877 -1.0236
 4325TIP3   OH234533   5.459   4.159   1.942 -0.8009 -0.3962  0.2960
 4325TIP3    H134534   5.368   4.163   1.972 -0.3691  0.5061  1.5367
 4325TIP3    H234535   5.511   4.187   2.017  0.4446  0.1581 -0.7269
 4326TIP3   OH234536   3.634   3.578   1.502  0.1539  0.2042 -0.2110
 4326TIP3    H134537   3.626   3.522   1.579 -0.4690 -0.2796 -0.6116
 4326TIP3    H234538   3.544   3.591   1.472  0.2861  1.5021 -0.0823
 4327TIP3   OH234539   4.330   5.210   1.863  0.8202  0.1181  0.1863
 4327TIP3    H134540   4.286   5.124   1.862 -0.8170  0.9038  0.8200
 4327TIP3    H234541   4.260   5.273   1.846  1.4003  1.5438  2.6297
 4328TIP3   OH234542   1.159   5.400   6.152  0.1070 -0.3431 -0.7026
 4328TIP3    H134543   1.112   5.321   6.125  0.6926 -1.4962  1.3619
 4328TIP3    H234544   1.091   5.465   6.167 -0.7122 -1.3969  0.3845
 4329TIP3   OH234545   1.750   4.544   0.318  0.1937  0.2770  0.0964
 4329TIP3    H134546   1.812   4.575   0.384  0.0341 -2.4640  1.6939
 4329TIP3    H234547   1.669   4.529   0.367 -0.8785  1.0012 -1.3753
 4330TIP3   OH234548   2.025   0.521   6.808  0.1067 -0.5514 -0.7717
 4330TIP3    H134549   2.112   0.489   6.787  0.2192 -0.0379 -1.0955
 4330TIP3    H234550   2.009   0.592   6.745  0.2125  0.6273  0.4979
 4331TIP3   OH234551   1.228   2.982   7.268 -0.0379  0.9234 -0.7845
 4331TIP3    H134552   1.270   3.058   7.228  2.7546 -0.1119 -0.0807
 4331TIP3    H234553   1.197   3.012   7.353  3.4074  0.8393  0.6673
 4332TIP3   OH234554   4.666   4.887   6.954  0.4244  0.6279  0.5162
 4332TIP3    H134555   4.721   4.882   6.876  0.9847  1.1244  0.8725
 4332TIP3    H234556   4.601   4.955   6.933 -0.1671 -0.0714  0.0339
 4333TIP3   OH234557   4.167   1.953   7.444 -0.4348  0.8124  0.1920
 4333TIP3    H134558   4.174   1.871   7.396  0.2588  1.2118 -0.4094
 4333TIP3    H234559   4.207   2.018   7.386 -0.3124  1.4475  0.9740
 4334TIP3   OH234560   1.469   6.819   7.681 -0.3401 -0.5266 -0.0564
 4334TIP3    H134561   1.535   6.885   7.699 -1.1483  0.4553 -0.5704
 4334TIP3    H234562   1.515   6.753   7.628  0.1996  0.2075 -0.5268
 4335TIP3   OH234563   6.517   1.402   6.812  0.5767  0.2118  0.1307
 4335TIP3    H134564   6.607   1.371   6.803  0.5844  0.5301 -1.0109
 4335TIP3    H234565   6.474   1.375   6.731 -0.1515  0.7455  0.3276
 4336TIP3   OH234566   1.143   1.072   7.056 -0.3710 -0.4871 -0.2374
 4336TIP3    H134567   1.122   1.104   7.144 -0.0102 -0.4734 -0.1573
 4336TIP3    H234568   1.208   1.004   7.070  0.3974  0.1647 -0.5628
 4337TIP3   OH234569   1.858   2.923   1.681  0.0820  0.1037 -0.0489
 4337TIP3    H134570   1.770   2.913   1.717 -0.0859  0.9214 -0.2229
 4337TIP3    H234571   1.915   2.882   1.747 -0.4929 -1.2905 -0.3826
 4338TIP3   OH234572   2.682   3.393   0.263 -0.6705  0.4494 -0.4085
 4338TIP3    H134573   2.774   3.368   0.254 -0.3810  1.5348 -0.6020
 4338TIP3    H234574   2.658   3.363   0.351 -0.1038  0.2717 -0.3091
 4339TIP3   OH234575   1.386   5.186   7.795  0.0776  0.0801 -0.2173
 4339TIP3    H134576   1.476   5.163   7.772  0.2687 -0.2908  0.8411
 4339TIP3    H234577   1.358   5.247   7.727  1.2861  0.5504 -0.3047
 4340TIP3   OH234578   6.406   2.406   7.029 -0.0857 -0.3446 -0.3674
 4340TIP3    H134579   6.425   2.358   6.948 -0.4845 -1.5861  0.2501
 4340TIP3    H234580   6.348   2.348   7.078  0.5524  0.1744  1.0395
 4341TIP3   OH234581   6.251   0.345   1.198  0.1106 -0.4385  0.9509
 4341TIP3    H134582   6.249   0.418   1.260  1.9672 -0.2768  0.8728
 4341TIP3    H234583   6.231   0.268   1.251  2.6428 -0.4379  2.0461
 4342TIP3   OH234584   5.239   5.434   8.241  0.7521  0.1545  0.1867
 4342TIP3    H134585   5.321   5.409   8.200 -0.0993 -1.0219 -0.8759
 4342TIP3    H234586   5.213   5.357   8.292  0.6275  0.7573  1.0556
 4343TIP3   OH234587   0.099   0.525   6.079 -0.1276  0.4639  0.4270
 4343TIP3    H134588   0.121   0.448   6.027  0.9119 -0.3385  1.9532
 4343TIP3    H234589   0.181   0.574   6.086 -0.3051  0.6924  1.0540
 4344TIP3   OH234590   2.909   0.967   8.466 -0.0803 -0.2515  0.2953
 4344TIP3    H134591   2.961   0.965   8.546  0.0524  0.0543  0.2191
 4344TIP3    H234592   2.907   0.876   8.436 -2.1598 -0.8271  1.9484
 4345TIP3   OH234593   5.700   2.351   0.815  0.4179 -0.0176  0.2604
 4345TIP3    H134594   5.768   2.335   0.748 -0.5804 -0.6170 -0.6469
 4345TIP3    H234595   5.738   2.317   0.896  0.3704 -2.4692 -0.6594
 4346TIP3   OH234596   1.788   1.630   6.795 -0.0588 -0.1124  0.1315
 4346TIP3    H134597   1.838   1.705   6.761 -0.4752 -0.5933 -1.6348
 4346TIP3    H234598   1.697   1.661   6.797  0.0461  0.1994  1.7350
 4347TIP3   OH234599   2.411   6.626   1.722 -1.1536  0.0027 -0.3143
 4347TIP3    H134600   2.325   6.667   1.732 -1.2582  0.1381 -1.5911
 4347TIP3    H234601   2.404   6.542   1.767 -1.6149  0.4609  0.4878
 4348TIP3   OH234602   6.842   4.433   0.078  0.5888  0.1245 -0.0504
 4348TIP3    H134603   6.812   4.517   0.113  2.6222  0.5251  0.8856
 4348TIP3    H234604   6.829   4.371   0.149 -0.7050 -0.3255 -0.6635
 4349TIP3   OH234605   1.919   5.994   1.930  0.1383 -0.9442  0.0856
 4349TIP3    H134606   1.962   5.912   1.954 -1.1258 -1.7731 -0.3579
 4349TIP3    H234607   1.971   6.028   1.857  0.8779 -1.1569  0.5015
 4350TIP3   OH234608   0.565   3.622   8.624  0.0668 -0.3214  0.0792
 4350TIP3    H134609   0.629   3.581   8.566 -0.0126  0.2534 -0.4296
 4350TIP3    H234610   0.602   3.708   8.643 -0.4285 -0.0841 -0.0146
 4351TIP3   OH234611   6.216   4.691   7.754 -0.0567 -0.0191  0.2321
 4351TIP3    H134612   6.284   4.728   7.810 -0.0998  0.1880  0.1526
 4351TIP3    H234613   6.145   4.756   7.757 -0.9992 -1.0747  1.7454
 4352TIP3   OH234614   5.308   5.636   1.430 -0.5146  0.2766 -0.2441
 4352TIP3    H134615   5.291   5.709   1.371  0.2668  1.5540  1.0365
 4352TIP3    H234616   5.269   5.663   1.513  0.2790 -0.5076  0.4002
 4353TIP3   OH234617   4.219   5.650   0.333 -0.2701  0.1163  0.1551
 4353TIP3    H134618   4.251   5.567   0.299 -1.0410  0.5559 -1.8063
 4353TIP3    H234619   4.150   5.627   0.395 -0.8078 -0.6979 -0.7414
 4354TIP3   OH234620   6.803   1.502   0.335 -0.2473  0.3260  0.3377
 4354TIP3    H134621   6.761   1.421   0.365 -0.9664  0.4199 -0.3883
 4354TIP3    H234622   6.874   1.516   0.398 -2.1343  0.9222  2.5038
 4355TIP3   OH234623   0.300   3.637   8.021  0.2654 -0.1601 -0.3648
 4355TIP3    H134624   0.298   3.627   8.116 -0.6593 -3.1658 -0.6056
 4355TIP3    H234625   0.249   3.717   8.005 -1.1503 -0.5783  1.6040
 4356TIP3   OH234626   3.060   3.420   6.925  0.3117  0.2363  0.1744
 4356TIP3    H134627   3.036   3.383   7.010  1.8473  0.8295  0.9009
 4356TIP3    H234628   3.004   3.374   6.863  0.0890 -1.1902  1.3580
 4357TIP3   OH234629   3.516   6.072   8.124  0.0441  0.2204  0.1436
 4357TIP3    H134630   3.515   6.086   8.030  0.3399  3.8760  0.5339
 4357TIP3    H234631   3.425   6.083   8.151  0.1679  0.6109  0.4165
 4358TIP3   OH234632   2.246   1.060   6.656 -0.1517 -0.2537 -0.0509
 4358TIP3    H134633   2.193   1.136   6.634 -0.3495 -0.4020 -0.0806
 4358TIP3    H234634   2.336   1.090   6.642 -0.1872  0.2030  0.6146
 4359TIP3   OH234635   5.490   5.862   1.589  0.0665  0.4934 -0.7615
 4359TIP3    H134636   5.409   5.898   1.554  0.0885  0.8964 -0.4119
 4359TIP3    H234637   5.532   5.936   1.632  0.6232  0.2855 -0.9430
 4360TIP3   OH234638   1.041   2.248   8.006 -0.2559 -0.0952 -0.6079
 4360TIP3    H134639   0.990   2.329   8.006 -3.2064 -1.8154 -0.7558
 4360TIP3    H234640   1.013   2.201   8.084  1.7204 -0.8519 -0.2900
 4361TIP3   OH234641   4.904   1.760   1.635 -0.3894  0.0394  0.7865
 4361TIP3    H134642   4.993   1.756   1.669  0.2924  0.5665 -0.8582
 4361TIP3    H234643   4.849   1.761   1.713  0.8972 -2.7710  1.8748
 4362TIP3   OH234644   6.598   5.257   7.534 -0.1585 -0.5308 -0.9383
 4362TIP3    H134645   6.560   5.183   7.580 -0.6721  0.0662 -0.3824
 4362TIP3    H234646   6.606   5.326   7.600 -0.4135  0.1658 -1.6041
 4363TIP3   OH234647   5.666   6.389   7.710  0.2550  0.2021 -0.0457
 4363TIP3    H134648   5.612   6.317   7.742 -0.0217 -0.0798 -1.1069
 4363TIP3    H234649   5.738   6.395   7.773 -0.4846 -0.0533  0.8419
 4364TIP3   OH234650   3.331   5.140   6.889 -0.2864 -0.4288  0.6136
 4364TIP3    H134651   3.247   5.164   6.850 -0.1357 -1.2781 -0.2856
 4364TIP3    H234652   3.387   5.119   6.814  0.7759  0.2328  1.1890
 4365TIP3   OH234653   0.557   5.644   7.528 -0.0586  0.0906 -0.5642
 4365TIP3    H134654   0.580   5.552   7.513 -1.2828 -0.2143 -0.6664
 4365TIP3    H234655   0.470   5.641   7.567 -0.7421  1.2526 -1.9080
 4366TIP3   OH234656   2.210   3.080   1.419 -0.0175  0.2773  0.4738
 4366TIP3    H134657   2.166   2.995   1.431  0.3542  0.0372  0.1503
 4366TIP3    H234658   2.220   3.115   1.507  0.6354 -0.4253  0.6849
 4367TIP3   OH234659   5.503   2.844   1.074  0.2812 -0.5994  0.2597
 4367TIP3    H134660   5.570   2.853   1.142  1.0760  0.8391 -0.6751
 4367TIP3    H234661   5.528   2.907   1.007 -0.5100 -1.9615 -1.3691
 4368TIP3   OH234662   3.847   4.360   0.871  0.3566  0.5520 -0.1238
 4368TIP3    H134663   3.898   4.383   0.793  2.4545  1.7157  1.4846
 4368TIP3    H234664   3.813   4.444   0.903  0.9978  0.3579  1.1409
 4369TIP3   OH234665   2.826   6.204   2.197  0.4207  0.0221 -0.3377
 4369TIP3    H134666   2.779   6.274   2.242  1.1662  0.1586  0.2492
 4369TIP3    H234667   2.762   6.133   2.189  0.0211  0.3193  0.1509
 4370TIP3   OH234668   4.476   4.931   7.625  0.6855  0.0867 -0.5100
 4370TIP3    H134669   4.439   5.008   7.667  0.5660 -0.5800  0.6419
 4370TIP3    H234670   4.401   4.883   7.590  0.6711 -0.0068 -0.3526
 4371TIP3   OH234671   4.235   2.633   7.197 -0.2673  0.1847 -0.3985
 4371TIP3    H134672   4.141   2.645   7.214 -0.1906  0.2105  0.0065
 4371TIP3    H234673   4.239   2.560   7.135 -0.6392  1.0570 -1.4943
 4372TIP3   OH234674   4.578   1.523   0.489  0.3877 -0.2732  0.3294
 4372TIP3    H134675   4.538   1.606   0.517  1.8502  1.1139 -1.4394
 4372TIP3    H234676   4.670   1.545   0.475  0.6687 -2.0433 -0.8296
 4373TIP3   OH234677   6.771   5.034   7.224 -0.0279 -0.0106 -0.1056
 4373TIP3    H134678   6.834   4.996   7.163 -0.5569  0.9386 -1.2768
 4373TIP3    H234679   6.743   5.115   7.183 -1.6705 -0.1731  0.6073
 4374TIP3   OH234680   3.901   0.243   7.424  0.2902  0.2478 -0.1455
 4374TIP3    H134681   3.898   0.150   7.399 -0.9706 -0.2579  1.7252
 4374TIP3    H234682   3.816   0.278   7.397 -0.5461  0.0234  1.9884
 4375TIP3   OH234683   1.769   4.197   8.001  0.4222  0.0142  0.4887
 4375TIP3    H134684   1.824   4.214   7.925 -1.1132  2.6327 -0.1836
 4375TIP3    H234685   1.738   4.284   8.027 -0.7264 -1.0279  2.8605
 4376TIP3   OH234686   6.680   1.934   7.417  0.0846 -0.6298  0.7991
 4376TIP3    H134687   6.611   1.879   7.453 -0.2101 -0.2506  0.8158
 4376TIP3    H234688   6.659   1.942   7.324  1.1049 -2.0002  0.4251
 4377TIP3   OH234689   2.262   6.343   5.915  0.6341 -0.0024 -0.2678
 4377TIP3    H134690   2.256   6.433   5.946  1.2084  0.4669 -1.4611
 4377TIP3    H234691   2.263   6.290   5.995 -1.9701  0.8567  0.4480
 4378TIP3   OH234692   3.930   6.406   1.460 -0.6160 -0.0076 -0.0594
 4378TIP3    H134693   3.837   6.412   1.480 -0.7449 -0.5337 -0.4514
 4378TIP3    H234694   3.939   6.322   1.415  0.0373  0.0690 -0.0851
 4379TIP3   OH234695   6.798   2.064   8.017 -0.1220 -0.1616 -0.0153
 4379TIP3    H134696   6.870   2.002   8.004  1.3233  1.9179 -2.8558
 4379TIP3    H234697   6.749   2.061   7.935 -1.6408  0.5266  0.8334
 4380TIP3   OH234698   1.102   2.165   0.634 -0.1201 -0.5225  0.1117
 4380TIP3    H134699   1.129   2.074   0.647  0.5285 -0.3552 -0.0266
 4380TIP3    H234700   1.007   2.160   0.623  0.1383 -1.4573 -2.2759
 4381TIP3   OH234701   2.207   1.455   6.954  0.2369  0.5047  0.0976
 4381TIP3    H134702   2.183   1.548   6.950 -0.1003  0.5164  1.8681
 4381TIP3    H234703   2.125   1.411   6.978  0.9645  0.0670  1.9190
 4382TIP3   OH234704   4.185   0.169   8.190 -0.6123  0.5691 -0.3750
 4382TIP3    H134705   4.271   0.211   8.187 -0.2343 -0.1990 -0.3295
 4382TIP3    H234706   4.184   0.121   8.272  0.1080 -1.9033 -1.7048
 4383TIP3   OH234707   4.934   5.735   1.227  0.4084  0.2615 -0.3773
 4383TIP3    H134708   4.905   5.726   1.136 -1.1260  1.5124 -0.0561
 4383TIP3    H234709   5.000   5.667   1.238  0.3831 -0.1260 -2.3303
 4384TIP3   OH234710   4.950   3.100   8.628 -0.2144  0.7030  0.2888
 4384TIP3    H134711   4.883   3.066   8.569  0.1013  0.6072 -0.0139
 4384TIP3    H234712   4.916   3.083   8.716 -1.8674  3.0507  0.1980
 4385TIP3   OH234713   0.170   4.975   0.316 -0.2444 -0.1489 -0.3221
 4385TIP3    H134714   0.082   5.008   0.298 -0.1691  0.1777 -0.1002
 4385TIP3    H234715   0.207   4.956   0.230 -0.9289 -1.3405 -0.3789
 4386TIP3   OH234716   0.608   5.092   7.707  0.5320  0.3673 -0.5910
 4386TIP3    H134717   0.588   5.009   7.662 -0.2546  0.5862 -0.6643
 4386TIP3    H234718   0.703   5.091   7.719  0.3644 -1.3216  0.9433
 4387TIP3   OH234719   2.998   5.140   8.246  0.0325  0.1807  0.5695
 4387TIP3    H134720   3.004   5.230   8.216  0.7309  0.6235  1.9504
 4387TIP3    H234721   2.907   5.115   8.231 -0.1387  1.0713  0.0812
 4388TIP3   OH234722   0.212   1.776   2.236  0.6547 -0.1412 -0.0269
 4388TIP3    H134723   0.277   1.845   2.221  0.0879  0.6251  0.8742
 4388TIP3    H234724   0.248   1.725   2.309 -0.1471  0.8542  1.1098
 4389TIP3   OH234725   1.435   6.623   0.199  0.2727  0.2500  0.3897
 4389TIP3    H134726   1.342   6.611   0.179  0.2917 -0.4032  0.6886
 4389TIP3    H234727   1.471   6.665   0.120  0.1567 -1.4390 -0.6173
 4390TIP3   OH234728   0.466   1.673   1.988  0.4235  0.3440 -0.0101
 4390TIP3    H134729   0.528   1.685   2.061  0.2351 -1.2698  0.4462
 4390TIP3    H234730   0.408   1.749   1.994  0.0281 -0.0532  1.9166
 4391TIP3   OH234731   0.509   0.377   7.795  0.2364  0.5342  0.5683
 4391TIP3    H134732   0.537   0.410   7.880  1.2032  0.7643  0.1676
 4391TIP3    H234733   0.413   0.385   7.797  0.1420 -0.4571  2.0352
 4392TIP3   OH234734   1.186   3.209   7.863 -0.1066 -0.2523 -0.0276
 4392TIP3    H134735   1.148   3.147   7.925 -0.2462  0.1175  0.2623
 4392TIP3    H234736   1.140   3.193   7.781  1.0814 -1.7484 -0.4557
 4393TIP3   OH234737   0.968   6.298   1.331 -0.3236  0.3601  0.2779
 4393TIP3    H134738   0.953   6.243   1.254 -3.6586 -0.5655  1.4323
 4393TIP3    H234739   0.907   6.371   1.321 -0.9101  0.1624  2.0414
 4394TIP3   OH234740   3.882   4.049   8.461 -0.0263  0.3204  0.2809
 4394TIP3    H134741   3.822   3.982   8.492  0.7951  0.4351  2.2071
 4394TIP3    H234742   3.895   4.027   8.368 -1.2075 -1.0504  0.3904
 4395TIP3   OH234743   4.142   6.267   7.540 -0.1903 -0.2613 -0.9489
 4395TIP3    H134744   4.215   6.215   7.508 -1.3838 -2.0155 -0.9693
 4395TIP3    H234745   4.076   6.203   7.565 -0.7078  1.1215  1.6699
 4396TIP3   OH234746   0.671   1.860   1.144 -0.7560  0.0212 -0.4803
 4396TIP3    H134747   0.605   1.914   1.099 -1.9977  0.5749  1.8227
 4396TIP3    H234748   0.628   1.835   1.226  1.9367  0.4279  1.1461
 4397TIP3   OH234749   0.074   6.706   0.452  0.2857 -0.6439  0.1854
 4397TIP3    H134750   0.114   6.783   0.411 -0.0145 -1.4395 -1.7034
 4397TIP3    H234751   0.104   6.709   0.543  1.6371  0.7827 -0.2656
 4398TIP3   OH234752   3.874   1.619   1.712  0.6663 -0.0398 -0.1493
 4398TIP3    H134753   3.930   1.547   1.684 -0.1043 -0.2056 -1.3658
 4398TIP3    H234754   3.875   1.616   1.808  2.3862 -0.2771 -0.1567
 4399TIP3   OH234755   5.503   5.583   8.419  0.4167  0.0847  0.3855
 4399TIP3    H134756   5.527   5.661   8.469 -1.0515  2.1843 -1.9026
 4399TIP3    H234757   5.536   5.600   8.331 -1.5630 -0.9444 -0.6365
 4400TIP3   OH234758   4.849   0.288   1.066 -0.4668  0.4025  0.3646
 4400TIP3    H134759   4.911   0.230   1.111  1.5210  0.8569 -1.6421
 4400TIP3    H234760   4.765   0.241   1.071  0.9393 -2.5118 -0.8052
 4401TIP3   OH234761   3.557   3.960   7.007 -0.3802  0.0790  0.4510
 4401TIP3    H134762   3.620   4.021   7.044 -1.7447  2.0367 -0.2770
 4401TIP3    H234763   3.597   3.930   6.925  0.2368  0.1180  0.7360
 4402TIP3   OH234764   5.468   2.853   8.677  0.7663  0.3672 -0.1487
 4402TIP3    H134765   5.525   2.860   8.600  3.3994  2.9012  1.8179
 4402TIP3    H234766   5.438   2.942   8.693  1.2803  0.1665  2.3813
 4403TIP3   OH234767   3.935   5.743   2.376  0.3819 -0.1823  1.2166
 4403TIP3    H134768   3.984   5.700   2.446  1.6754  0.2210  0.6097
 4403TIP3    H234769   3.864   5.790   2.421  0.7279 -0.5488  2.1704
 4404TIP3   OH234770   3.470   0.321   0.307 -0.3196  0.0526 -0.1060
 4404TIP3    H134771   3.531   0.266   0.259 -0.0963  0.5162 -0.3482
 4404TIP3    H234772   3.471   0.284   0.396  2.1716  1.5276  0.5719
 4405TIP3   OH234773   6.775   1.745   0.143  0.0785  0.2157  0.1511
 4405TIP3    H134774   6.786   1.657   0.179  0.3471 -0.3726 -1.2905
 4405TIP3    H234775   6.854   1.792   0.170 -0.7344  0.5159  2.1879
 4406TIP3   OH234776   2.834   3.714   6.150 -0.2312  0.0501  0.4231
 4406TIP3    H134777   2.918   3.726   6.106 -0.9524  0.5153 -0.8892
 4406TIP3    H234778   2.847   3.638   6.208  0.8892 -0.2908 -0.2539
 4407TIP3   OH234779   6.502   2.461   8.119 -0.1002 -0.4076  0.0244
 4407TIP3    H134780   6.539   2.495   8.038  0.3672  0.3306  0.5278
 4407TIP3    H234781   6.407   2.465   8.107 -0.0484 -1.6544 -1.0121
 4408TIP3   OH234782   5.521   0.900   8.030 -0.2478 -0.1549 -0.4680
 4408TIP3    H134783   5.563   0.901   8.116 -1.0953 -0.1495 -0.0405
 4408TIP3    H234784   5.435   0.941   8.045 -0.2990  0.0874 -1.3713
 4409TIP3   OH234785   6.211   0.458   6.982  0.9772 -0.3304  0.0167
 4409TIP3    H134786   6.284   0.471   6.921  0.7677  0.5691 -0.0590
 4409TIP3    H234787   6.194   0.364   6.979  1.4144 -0.3956 -0.8036
 4410TIP3   OH234788   5.646   0.867   7.401 -0.1245  0.2349 -0.1515
 4410TIP3    H134789   5.578   0.903   7.344  2.1895  2.1373 -1.9308
 4410TIP3    H234790   5.698   0.810   7.344  2.1960  2.0992 -0.0369
 4411TIP3   OH234791   6.475   1.578   0.374  0.0462 -0.2843  0.4033
 4411TIP3    H134792   6.522   1.576   0.457  0.4628 -0.6565  0.1598
 4411TIP3    H234793   6.517   1.511   0.320 -0.7293 -0.5994  0.1656
 4412TIP3   OH234794   6.119   4.097   0.625  0.0351  0.2527 -0.1668
 4412TIP3    H134795   6.167   4.148   0.560  2.4007 -0.7930  0.6435
 4412TIP3    H234796   6.186   4.070   0.688 -1.7279 -0.9531  1.2845
 4413TIP3   OH234797   4.568   4.836   8.640  0.4698 -0.0794  0.6003
 4413TIP3    H134798   4.597   4.753   8.603  1.1764 -0.8409  2.6865
 4413TIP3    H234799   4.570   4.822   8.735  0.5868  2.3082  1.0193
 4414TIP3   OH234800   0.004   3.082   7.647  0.0068 -0.6001  0.1374
 4414TIP3    H134801  -0.008   2.987   7.657 -1.5932 -0.2984  1.3254
 4414TIP3    H234802   0.005   3.116   7.736  1.0111  0.4886 -0.2591
 4415TIP3   OH234803   2.299   4.153   0.217  0.4411 -0.0467 -0.2448
 4415TIP3    H134804   2.383   4.118   0.246  0.7144 -0.2675 -1.2823
 4415TIP3    H234805   2.311   4.172   0.124 -0.7228 -0.2723 -0.4560
 4416TIP3   OH234806   1.520   3.147   1.029 -0.1994 -0.4217 -0.0642
 4416TIP3    H134807   1.566   3.155   0.945 -1.0704 -2.3919 -0.7722
 4416TIP3    H234808   1.500   3.237   1.054  1.2390  0.2860 -1.2910
 4417TIP3   OH234809   1.737   4.659   0.730  0.5883  0.2729 -0.0035
 4417TIP3    H134810   1.727   4.579   0.782  1.5911  1.0524  1.4648
 4417TIP3    H234811   1.780   4.720   0.789 -0.7567  2.1419 -0.8856
 4418TIP3   OH234812   6.469   1.102   1.018 -0.5052 -0.3127  0.3790
 4418TIP3    H134813   6.500   1.174   1.072  0.3918 -0.4584  0.0701
 4418TIP3    H234814   6.527   1.029   1.040 -1.5768 -1.0340  0.9011
 4419TIP3   OH234815   2.456   1.026   7.696 -0.2193  0.0650 -0.2937
 4419TIP3    H134816   2.516   1.090   7.659 -0.0010 -0.3177 -0.6127
 4419TIP3    H234817   2.376   1.036   7.644  0.2869 -0.8829 -1.2849
 4420TIP3   OH234818   0.100   3.201   8.268  0.2726 -0.7397 -0.1153
 4420TIP3    H134819   0.134   3.253   8.195 -0.6379  0.8673  0.5481
 4420TIP3    H234820   0.032   3.147   8.228 -1.0471  0.9789 -0.3292
 4421TIP3   OH234821   0.163   4.870   0.827  0.2413 -0.1527  0.0355
 4421TIP3    H134822   0.108   4.792   0.828  2.0346 -1.4728  0.4574
 4421TIP3    H234823   0.140   4.915   0.745 -1.0963 -0.8927 -0.0189
 4422TIP3   OH234824   2.462   1.976   1.113  0.0302 -0.7505 -0.2082
 4422TIP3    H134825   2.453   2.065   1.146  1.2008 -0.6247 -0.1885
 4422TIP3    H234826   2.463   1.922   1.192 -2.1128 -0.9582 -0.2619
 4423TIP3   OH234827   3.147   0.692   1.852  0.7127  0.3544 -0.0589
 4423TIP3    H134828   3.062   0.681   1.895  0.9768 -1.9365 -0.0191
 4423TIP3    H234829   3.141   0.777   1.809 -1.3654  0.5260  0.4722
 4424TIP3   OH234830   2.363   5.538   0.983 -0.0759 -0.0933  0.1072
 4424TIP3    H134831   2.276   5.498   0.984  0.4541 -1.6509 -3.1319
 4424TIP3    H234832   2.424   5.464   0.983  1.0043  0.5832 -3.6901
 4425TIP3   OH234833   0.177   1.482   0.902  0.4833  0.2380 -0.0531
 4425TIP3    H134834   0.250   1.437   0.859  1.2289  1.1521  0.2209
 4425TIP3    H234835   0.102   1.425   0.887  1.2385 -0.6965 -0.3902
 4426TIP3   OH234836   2.539   6.537   1.164 -0.2698 -0.3649  0.3456
 4426TIP3    H134837   2.525   6.630   1.144  0.2425 -0.1440  0.9711
 4426TIP3    H234838   2.462   6.493   1.127  0.4944  0.0184 -1.8477
 4427TIP3   OH234839   5.345   6.321   7.534 -0.0153  0.1616 -0.6372
 4427TIP3    H134840   5.315   6.378   7.605 -0.5333  1.4774 -1.8596
 4427TIP3    H234841   5.421   6.275   7.570  0.2360  1.4054  0.4946
 4428TIP3   OH234842   2.968   0.542   8.174 -0.1061  0.2700 -0.5180
 4428TIP3    H134843   3.058   0.539   8.206  1.1183  0.7391 -3.5334
 4428TIP3    H234844   2.966   0.617   8.114 -2.0346 -0.6698 -1.7515
 4429TIP3   OH234845   2.526   0.158   8.162  0.1294 -0.4393  0.4049
 4429TIP3    H134846   2.603   0.149   8.106  0.4502  0.7589  0.6434
 4429TIP3    H234847   2.508   0.252   8.164 -0.7541 -0.6124  1.1467
 4430TIP3   OH234848   2.449   2.818   6.520  0.3773 -0.5793  0.1267
 4430TIP3    H134849   2.367   2.799   6.565 -0.4709  3.0063  0.3517
 4430TIP3    H234850   2.423   2.836   6.429  1.3553 -2.1708 -0.5190
 4431TIP3   OH234851   6.213   4.205   1.214  0.3414 -0.0114 -0.8480
 4431TIP3    H134852   6.270   4.154   1.156  2.0693  0.4294  0.3770
 4431TIP3    H234853   6.212   4.155   1.296  0.7828  1.1244 -0.1365
 4432TIP3   OH234854   4.138   0.040   8.434  0.0872  0.4350  0.6014
 4432TIP3    H134855   4.060   0.017   8.484 -0.0424 -1.3799 -0.3316
 4432TIP3    H234856   4.209  -0.006   8.479  0.0426 -0.8203 -0.5257
 4433TIP3   OH234857   0.716   6.464   8.016 -0.2068 -0.1170  0.0762
 4433TIP3    H134858   0.727   6.503   8.103  1.2740  0.4001 -0.3157
 4433TIP3    H234859   0.621   6.463   8.002 -0.5642 -1.2672  2.1532
 4434TIP3   OH234860   3.824   3.337   7.853  0.4466  0.1704  0.4437
 4434TIP3    H134861   3.745   3.303   7.894  0.2541 -1.7311 -1.3018
 4434TIP3    H234862   3.890   3.334   7.922 -0.6666  0.5545  1.5689
 4435TIP3   OH234863   2.508   1.244   7.283 -0.2955  1.0725  0.2079
 4435TIP3    H134864   2.447   1.306   7.243 -1.8301  0.0840  0.9270
 4435TIP3    H234865   2.575   1.231   7.217 -0.7730  2.2995 -0.5631
 4436TIP3   OH234866   2.945   2.186   7.591  0.3515 -0.0829  0.4413
 4436TIP3    H134867   2.941   2.211   7.499 -0.6926  0.8127  0.7049
 4436TIP3    H234868   2.889   2.108   7.597  0.9225 -0.5185  0.2189
 4437TIP3   OH234869   6.620   5.837   0.631 -0.0704  0.4997  0.3598
 4437TIP3    H134870   6.671   5.890   0.570 -1.7695  0.2108 -1.4143
 4437TIP3    H234871   6.653   5.748   0.619 -1.1781  0.2508 -1.0671
 4438TIP3   OH234872   4.932   5.394   1.123  0.2903 -0.3680 -0.2278
 4438TIP3    H134873   4.972   5.475   1.155  0.2734  0.0917 -1.3189
 4438TIP3    H234874   4.851   5.385   1.174  0.9325 -0.4086  0.8127
 4439TIP3   OH234875   2.330   2.477   0.832  0.2093  0.0296 -0.5782
 4439TIP3    H134876   2.279   2.441   0.904  0.7957  1.6768  0.7160
 4439TIP3    H234877   2.275   2.547   0.796 -0.0735 -0.7653 -1.7665
 4440TIP3   OH234878   5.920   4.624   1.134  0.1456 -0.2431  0.4521
 4440TIP3    H134879   5.882   4.593   1.217 -0.7879 -3.4992 -1.0177
 4440TIP3    H234880   6.001   4.575   1.125  1.1725  1.4308  0.2217
 4441TIP3   OH234881   3.465   0.408   6.606  0.2854 -0.0868  0.6604
 4441TIP3    H134882   3.441   0.319   6.633  0.9906 -0.2202  0.8534
 4441TIP3    H234883   3.497   0.397   6.516  3.9088 -0.6567  1.8737
 4442TIP3   OH234884   4.500   3.395   6.583  0.0512  0.5012 -0.1064
 4442TIP3    H134885   4.523   3.414   6.673 -1.3857  0.3022  0.3289
 4442TIP3    H234886   4.570   3.435   6.531  1.0683  0.3332  1.0906
 4443TIP3   OH234887   6.692   5.574   7.387  0.3739  0.2608  0.0770
 4443TIP3    H134888   6.608   5.535   7.410  0.9409 -0.6135  0.7088
 4443TIP3    H234889   6.754   5.501   7.384  1.2165  0.9419  0.0982
 4444TIP3   OH234890   4.244   4.325   1.941 -0.6205 -0.6246 -0.5197
 4444TIP3    H134891   4.221   4.392   1.876 -1.4872 -1.3801 -0.9993
 4444TIP3    H234892   4.178   4.335   2.009  0.9870  0.9934  0.9152
 4445TIP3   OH234893   3.471   5.280   0.808 -0.5298 -0.2246 -0.5377
 4445TIP3    H134894   3.439   5.250   0.722 -0.8521  0.3644 -0.6300
 4445TIP3    H234895   3.509   5.365   0.791 -2.4008  0.8289  0.2159
 4446TIP3   OH234896   6.122   3.761   0.462 -0.0813  0.1522 -0.8414
 4446TIP3    H134897   6.133   3.667   0.451 -0.3424  0.0805 -0.5203
 4446TIP3    H234898   6.091   3.771   0.552 -2.1120  0.3576 -1.4938
 4447TIP3   OH234899   1.153   5.582   7.690  0.0724 -0.3360  0.4505
 4447TIP3    H134900   1.096   5.658   7.698 -0.4251 -0.5746 -0.6254
 4447TIP3    H234901   1.115   5.517   7.748  0.4281  0.1712  1.2820
 4448TIP3   OH234902   3.862   3.411   0.833  0.0703  0.0708  0.2478
 4448TIP3    H134903   3.953   3.389   0.816 -0.2100 -1.2035  0.3334
 4448TIP3    H234904   3.816   3.388   0.752 -0.1408  1.0676  0.0598
 4449TIP3   OH234905   1.958   4.346   0.741  0.5735 -0.0247  0.0666
 4449TIP3    H134906   1.988   4.326   0.653  0.0207 -0.9814  0.0733
 4449TIP3    H234907   1.894   4.277   0.760  0.3849  0.4076  1.0553
 4450TIP3   OH234908   1.996   2.278   8.052 -0.2700  0.6083  0.5138
 4450TIP3    H134909   1.954   2.320   7.977 -2.1997 -0.6952  0.7797
 4450TIP3    H234910   1.971   2.332   8.127 -2.5124 -0.7067  0.8171
 4451TIP3   OH234911   6.542   0.445   1.185  0.1702 -1.0730  0.3316
 4451TIP3    H134912   6.462   0.400   1.210  1.5489 -3.5087  0.6236
 4451TIP3    H234913   6.588   0.462   1.267  1.0287 -1.8637  0.0344
 4452TIP3   OH234914   2.378   5.299   6.086 -1.0463 -0.2961 -0.0964
 4452TIP3    H134915   2.297   5.281   6.133 -0.3787  1.3663  1.8663
 4452TIP3    H234916   2.383   5.395   6.083  0.7386 -0.3560 -0.2818
 4453TIP3   OH234917   1.378   4.136   0.717 -0.2025 -0.0344 -0.4710
 4453TIP3    H134918   1.436   4.085   0.661 -0.6779 -0.4587 -0.5762
 4453TIP3    H234919   1.323   4.071   0.760  1.5186  0.0534  2.1000
 4454TIP3   OH234920   4.098   0.831   0.217  0.1900  0.0359  0.2602
 4454TIP3    H134921   4.007   0.860   0.210  0.7220  1.7063 -0.4667
 4454TIP3    H234922   4.125   0.861   0.304 -0.0004 -0.6090  0.5422
 4455TIP3   OH234923   1.495   3.697   8.490  0.5250 -0.0606 -0.0860
 4455TIP3    H134924   1.474   3.636   8.420  0.6704 -0.0200 -0.1650
 4455TIP3    H234925   1.519   3.778   8.445 -1.6533  0.7295  0.0280
 4456TIP3   OH234926   1.108   1.571   2.244 -0.4290 -0.1557 -0.0112
 4456TIP3    H134927   1.104   1.505   2.174 -1.3962  0.4246 -0.5304
 4456TIP3    H234928   1.200   1.597   2.248 -0.2394 -0.7231 -0.5707
 4457TIP3   OH234929   6.150   6.542   7.362  0.2425 -0.4177  0.3393
 4457TIP3    H134930   6.160   6.619   7.418  0.6529 -0.5101  0.3971
 4457TIP3    H234931   6.194   6.472   7.410  0.7135 -0.4675 -0.1611
 4458TIP3   OH234932   3.983   0.569   7.674 -0.2065  0.2506 -0.6798
 4458TIP3    H134933   3.982   0.664   7.683 -0.5735  0.1613  0.4972
 4458TIP3    H234934   3.943   0.552   7.589 -0.0741  1.1477 -0.9292
 4459TIP3   OH234935   4.566   6.597   8.429 -0.8307  0.2317 -0.4167
 4459TIP3    H134936   4.516   6.518   8.447 -0.2048 -0.0893 -0.0466
 4459TIP3    H234937   4.636   6.568   8.370  0.5590  0.0894  1.2377
 4460TIP3   OH234938   3.474   6.396   7.116  0.5295 -0.0558 -0.2215
 4460TIP3    H134939   3.553   6.350   7.143 -0.3426 -1.6565 -0.2929
 4460TIP3    H234940   3.419   6.398   7.194  0.4902  0.7553 -0.2583
 4461TIP3   OH234941   2.700   5.026   7.546 -0.3299 -0.1500 -0.4539
 4461TIP3    H134942   2.659   5.100   7.502  2.6676  0.1610 -3.0515
 4461TIP3    H234943   2.704   4.958   7.479 -0.0790 -1.5316  0.9081
 4462TIP3   OH234944   1.146   6.680   8.238 -0.3805 -0.2049 -0.1590
 4462TIP3    H134945   1.188   6.738   8.303  2.6712  0.8415 -2.7984
 4462TIP3    H234946   1.182   6.594   8.257  0.5843  0.1157 -0.4245
 4463TIP3   OH234947   4.883   4.095   2.355  0.0289 -0.2284 -0.5079
 4463TIP3    H134948   4.869   4.144   2.436  0.2236  2.3119 -1.9251
 4463TIP3    H234949   4.805   4.039   2.347  0.3479 -1.0952  1.7311
 4464TIP3   OH234950   1.737   1.207   7.503  0.3170  0.2649 -0.1269
 4464TIP3    H134951   1.746   1.270   7.574  3.1712 -1.7927  1.5803
 4464TIP3    H234952   1.698   1.130   7.545  0.4136 -0.4062 -1.2350
 4465TIP3   OH234953   0.912   4.965   1.732  0.2072  0.0005 -0.5490
 4465TIP3    H134954   0.871   4.883   1.704  2.4670 -1.7401  0.8199
 4465TIP3    H234955   1.005   4.954   1.711  0.5919  2.2350 -0.2896
 4466TIP3   OH234956   1.001   4.010   2.561 -0.2021  0.4448 -0.2775
 4466TIP3    H134957   0.979   3.937   2.503 -0.1752 -0.2487  0.5672
 4466TIP3    H234958   1.076   4.053   2.518  0.5609 -0.7549 -0.1807
 4467TIP3   OH234959   0.280   0.363   7.438  0.3408 -0.0412  0.5742
 4467TIP3    H134960   0.370   0.370   7.408 -0.0215 -0.8502 -0.7925
 4467TIP3    H234961   0.231   0.332   7.362 -0.6270 -2.2620  1.9732
 4468TIP3   OH234962   3.099   0.731   0.384 -0.2972  0.0511 -0.0911
 4468TIP3    H134963   3.126   0.816   0.419  2.0615 -0.3192 -0.8442
 4468TIP3    H234964   3.123   0.669   0.452 -1.2332 -0.1055  0.1021
 4469TIP3   OH234965   4.579   5.122   8.594  0.4122  0.4383  0.4249
 4469TIP3    H134966   4.570   5.111   8.499 -2.2974  1.4629  0.4979
 4469TIP3    H234967   4.604   5.035   8.626 -0.6806 -0.4476 -1.0224
 4470TIP3   OH234968   6.316   3.400   1.217  0.7538  0.6576 -0.2282
 4470TIP3    H134969   6.277   3.481   1.249 -1.3518 -0.1061 -0.6774
 4470TIP3    H234970   6.394   3.428   1.169  1.8480  2.1161  2.2020
 4471TIP3   OH234971   3.970   4.955   1.760 -0.1086  0.0549  0.2338
 4471TIP3    H134972   3.874   4.954   1.758 -0.0996 -0.3513 -0.2665
 4471TIP3    H234973   3.994   5.037   1.717 -0.2288  0.1038  0.2592
 4472TIP3   OH234974   4.133   1.423   2.494  0.4832  0.2818 -0.5215
 4472TIP3    H134975   4.148   1.347   2.438  1.5252  1.0576 -1.3358
 4472TIP3    H234976   4.112   1.494   2.433 -1.4446  0.4640  0.2785
 4473TIP3   OH234977   6.122   1.825   1.283 -0.0673  0.0979 -0.3359
 4473TIP3    H134978   6.170   1.742   1.289 -0.0567  0.2118  2.7888
 4473TIP3    H234979   6.031   1.799   1.274  0.0043 -0.2253 -0.1435
 4474TIP3   OH234980   6.838   3.514   1.086 -0.6144 -0.9212  0.3107
 4474TIP3    H134981   6.872   3.500   1.174 -0.6096 -3.2505  0.0046
 4474TIP3    H234982   6.916   3.516   1.030 -0.6752 -0.5519  0.2388
 4475TIP3   OH234983   6.058   5.988   8.343 -0.0323  0.1969  0.1818
 4475TIP3    H134984   5.997   5.964   8.273 -0.3186  1.3046  0.0253
 4475TIP3    H234985   6.009   5.973   8.424  0.1093 -0.5695  0.1312
 4476TIP3   OH234986   0.980   4.127   7.019  0.0309  0.1343  0.6246
 4476TIP3    H134987   1.006   4.213   6.987  1.6077 -0.7258 -0.5087
 4476TIP3    H234988   1.046   4.105   7.085 -0.2579 -0.3012  0.7707
 4477TIP3   OH234989   5.398   6.809   1.700  0.3223 -0.3068  0.1621
 4477TIP3    H134990   5.387   6.896   1.660  2.3774  0.7709  1.7066
 4477TIP3    H234991   5.493   6.799   1.707  0.1266 -2.7716 -0.0652
 4478TIP3   OH234992   6.548   0.352   0.145 -0.1834  0.0105  0.4978
 4478TIP3    H134993   6.497   0.323   0.069 -1.1930  1.2687  0.6515
 4478TIP3    H234994   6.487   0.349   0.218 -0.7961  3.4892  0.3270
 4479TIP3   OH234995   4.348   3.150   0.848 -0.6612 -0.5948  0.5378
 4479TIP3    H134996   4.348   3.095   0.926 -0.0825  1.4947  2.1010
 4479TIP3    H234997   4.426   3.205   0.857  0.2344 -1.2337 -2.2640
 4480TIP3   OH234998   2.066   2.137   7.305 -0.1370  0.4765  0.4252
 4480TIP3    H134999   2.072   2.042   7.296 -1.2051  0.3254  1.0568
 4480TIP3    H235000   2.157   2.166   7.309  0.2360 -0.3876 -0.8719
 4481TIP3   OH235001   2.327   2.783   7.346 -0.1149  0.1508  0.0410
 4481TIP3    H135002   2.267   2.822   7.410 -0.3816 -0.2408  0.0334
 4481TIP3    H235003   2.351   2.698   7.384  2.2815  1.2324  1.1805
 4482TIP3   OH235004   6.633   3.308   6.465  0.3128 -0.1107  0.1000
 4482TIP3    H135005   6.570   3.274   6.401 -1.0596  1.2042  0.6849
 4482TIP3    H235006   6.668   3.387   6.424 -0.0565  0.3565  0.6819
 4483TIP3   OH235007   2.122   0.834   8.589  0.2009  0.1731 -0.0920
 4483TIP3    H135008   2.111   0.788   8.672  1.3975 -1.7159 -0.9007
 4483TIP3    H235009   2.217   0.849   8.583  0.0508  0.8515 -0.8096
 4484TIP3   OH235010   2.889   0.674   2.445 -0.1154  0.3822  0.3735
 4484TIP3    H135011   2.903   0.631   2.361  0.4129 -0.0505  0.6807
 4484TIP3    H235012   2.799   0.651   2.469  0.2488 -0.7931  0.6699
 4485TIP3   OH235013   1.131   3.210   1.387 -0.5621 -0.2768  0.2696
 4485TIP3    H135014   1.193   3.177   1.322 -0.2876 -0.9575  0.8711
 4485TIP3    H235015   1.172   3.191   1.471 -1.6722 -0.9128  0.6857
 4486TIP3   OH235016   1.752   6.715   0.291  0.2723  0.1220 -0.5994
 4486TIP3    H135017   1.674   6.769   0.298  0.7997  0.9950 -1.4047
 4486TIP3    H235018   1.768   6.706   0.198  1.6172  0.6572 -0.4359
 4487TIP3   OH235019   4.628   2.673   8.598 -0.0292 -0.1350 -0.3639
 4487TIP3    H135020   4.707   2.621   8.611 -0.8539 -1.0049  1.5713
 4487TIP3    H235021   4.594   2.644   8.513  0.7865 -1.0541 -0.3970
 4488TIP3   OH235022   5.322   0.340   7.501  0.2746  0.7128  0.7247
 4488TIP3    H135023   5.302   0.310   7.413  0.8515  0.7469  0.5813
 4488TIP3    H235024   5.273   0.280   7.558  0.4548  0.2576  0.4047
 4489TIP3   OH235025   2.715   4.504   7.285  0.3226  0.1108  0.4801
 4489TIP3    H135026   2.672   4.536   7.364  0.4955  0.6805  0.3470
 4489TIP3    H235027   2.749   4.419   7.309 -0.5632 -0.1957  0.7006
 4490TIP3   OH235028   0.009   5.208   2.551  0.5467 -0.3091  0.1588
 4490TIP3    H135029   0.094   5.191   2.591  0.4369 -0.6937  0.2346
 4490TIP3    H235030  -0.000   5.140   2.484  1.6110  1.4910 -1.9470
 4491TIP3   OH235031   2.804   6.340   6.833 -0.2570 -0.2487  0.8514
 4491TIP3    H135032   2.756   6.260   6.854 -0.7750  0.1183  1.0798
 4491TIP3    H235033   2.883   6.309   6.789  0.5494 -1.0169  2.6992
 4492TIP3   OH235034   5.209   0.728   8.693  0.7347 -0.3114 -0.5523
 4492TIP3    H135035   5.289   0.691   8.732  0.3070 -0.3940  0.2750
 4492TIP3    H235036   5.229   0.820   8.681  1.0098 -0.3629 -0.4978
 4493TIP3   OH235037   0.713   4.675   8.634 -0.3990 -0.3173 -0.2114
 4493TIP3    H135038   0.756   4.602   8.589 -0.9664 -0.7055 -0.1272
 4493TIP3    H235039   0.636   4.636   8.674  0.2654 -0.0529  1.3979
 4494TIP3   OH235040   4.560   1.704   6.772 -0.2566 -0.1921 -0.0553
 4494TIP3    H135041   4.598   1.759   6.704 -0.6545 -0.3911 -0.4409
 4494TIP3    H235042   4.471   1.685   6.742 -0.0839 -1.1606  0.0014
 4495TIP3   OH235043   4.384   1.436   1.748 -0.2176  0.2868  0.0248
 4495TIP3    H135044   4.344   1.435   1.835  1.3684  0.1222  0.7964
 4495TIP3    H235045   4.467   1.484   1.760  0.0055  0.3213 -1.4146
 4496TIP3   OH235046   2.574   1.877   7.612  0.1330  0.1605  0.1183
 4496TIP3    H135047   2.483   1.851   7.599  0.3959 -1.2784  1.0247
 4496TIP3    H235048   2.594   1.852   7.702  2.2567 -2.1785 -0.9012
 4497TIP3   OH235049   4.798   5.626   1.458 -0.0905  0.1847 -0.2645
 4497TIP3    H135050   4.751   5.695   1.505  0.6363 -0.0527  0.8315
 4497TIP3    H235051   4.838   5.671   1.383 -2.9578  0.1987 -1.9362
 4498TIP3   OH235052   6.843   1.380   2.200  0.1185  0.1364  0.4912
 4498TIP3    H135053   6.877   1.452   2.147  0.2633  1.0693  1.7799
 4498TIP3    H235054   6.788   1.423   2.266 -0.7724 -1.0581  0.5545
 4499TIP3   OH235055   2.559   5.211   7.012 -0.7718  0.2210 -0.0581
 4499TIP3    H135056   2.639   5.231   7.060 -0.2845 -0.0049 -0.7578
 4499TIP3    H235057   2.520   5.297   6.993 -0.7574  0.3267  0.3683
 4500TIP3   OH235058   6.551   1.127   7.391  0.1306 -0.2394  0.1404
 4500TIP3    H135059   6.535   1.039   7.427 -2.5844 -0.0215 -0.3578
 4500TIP3    H235060   6.570   1.181   7.468  1.8359 -1.1848  0.4552
 4501TIP3   OH235061   1.785   6.050   6.942 -0.4083  0.6197 -0.0742
 4501TIP3    H135062   1.793   6.144   6.953  2.8857  0.4648 -0.3081
 4501TIP3    H235063   1.819   6.013   7.023 -2.2513 -0.4139  0.2748
 4502TIP3   OH235064   4.368   0.478   0.146 -0.3788 -0.0453 -0.3600
 4502TIP3    H135065   4.323   0.427   0.079 -2.2281 -1.7644  1.9813
 4502TIP3    H235066   4.332   0.566   0.138 -0.6506 -0.2521 -1.5374
 4503TIP3   OH235067   0.778   4.427   6.343  0.1361 -0.2198  0.2358
 4503TIP3    H135068   0.856   4.375   6.360 -0.1856 -0.7891  0.0093
 4503TIP3    H235069   0.750   4.458   6.429  0.2860 -0.4884  0.3805
 4504TIP3   OH235070   1.468   6.432   1.880 -0.0301  0.3024  0.2817
 4504TIP3    H135071   1.379   6.467   1.868 -0.3590 -0.5848  0.0215
 4504TIP3    H235072   1.505   6.485   1.950 -0.1184  1.8764 -0.8151
 4505TIP3   OH235073   0.166   2.641   1.693  0.7301 -0.2398 -0.2547
 4505TIP3    H135074   0.205   2.668   1.609 -1.3759  0.6279 -1.0372
 4505TIP3    H235075   0.077   2.676   1.690  0.8706  0.6778  2.7862
 4506TIP3   OH235076   1.788   0.252   7.209 -0.2516 -0.0699  1.0153
 4506TIP3    H135077   1.773   0.277   7.118  0.1192 -1.2347  0.6143
 4506TIP3    H235078   1.840   0.172   7.204  0.4008  0.2465  2.2725
 4507TIP3   OH235079   2.876   6.169   7.472  0.6708  0.4109  0.0696
 4507TIP3    H135080   2.833   6.212   7.545 -1.6855 -1.1062 -0.3218
 4507TIP3    H235081   2.882   6.077   7.498  3.4819  0.4647 -0.0568
 4508TIP3   OH235082   6.820   6.485   8.563 -0.3804 -0.1395 -0.1937
 4508TIP3    H135083   6.725   6.483   8.573 -0.5903  1.2179 -1.4611
 4508TIP3    H235084   6.836   6.435   8.483  0.0238 -0.6748  0.2158
 4509TIP3   OH235085   0.392   4.888   1.404 -0.2726  0.0346  0.0080
 4509TIP3    H135086   0.415   4.908   1.495 -1.2576 -2.3670  0.8671
 4509TIP3    H235087   0.438   4.954   1.352  0.5972  1.2587  2.2182
 4510TIP3   OH235088   2.947   5.199   7.703 -0.3577 -0.5932 -0.2477
 4510TIP3    H135089   2.953   5.280   7.653  1.7704 -0.3344  0.3077
 4510TIP3    H235090   2.862   5.163   7.681  0.0628  0.0069 -3.2699
 4511TIP3   OH235091   4.509   3.404   8.581  0.4211  0.1738  0.0428
 4511TIP3    H135092   4.414   3.396   8.572  0.6232 -1.6049 -0.8552
 4511TIP3    H235093   4.534   3.461   8.508  0.1761 -0.3831 -0.4838
 4512TIP3   OH235094   5.715   2.777   6.847 -0.2716 -0.1135  0.0913
 4512TIP3    H135095   5.670   2.699   6.815 -1.5223  0.5874  0.1078
 4512TIP3    H235096   5.712   2.768   6.942  1.9469 -1.3394  0.1274
 4513TIP3   OH235097   3.553   2.860   2.031  0.4139 -0.0562 -0.1384
 4513TIP3    H135098   3.462   2.879   2.007  0.5025  1.3232  0.5365
 4513TIP3    H235099   3.565   2.768   2.006  0.1646  0.8228 -4.2487
 4514TIP3   OH235100   1.888   3.777   1.558 -0.1151  0.3061 -0.0460
 4514TIP3    H135101   1.919   3.717   1.627 -0.9431 -0.8502 -0.6471
 4514TIP3    H235102   1.896   3.727   1.477 -0.0140  1.3317 -0.6906
 4515TIP3   OH235103   0.015   4.737   0.591 -0.1832 -0.1300 -0.2458
 4515TIP3    H135104   0.011   4.708   0.500 -0.8462  2.7277 -1.2338
 4515TIP3    H235105   0.101   4.707   0.622  1.0307  0.7209 -2.5596
 4516TIP3   OH235106   5.253   0.741   1.094  0.0177  0.5174  0.2701
 4516TIP3    H135107   5.257   0.712   1.003 -0.1538  1.8808 -0.1996
 4516TIP3    H235108   5.193   0.816   1.093  1.5795  1.8366  1.1353
 4517TIP3   OH235109   6.571   3.176   8.654  0.3096  0.1536 -0.0852
 4517TIP3    H135110   6.644   3.119   8.674  1.4034  1.7645  0.7535
 4517TIP3    H235111   6.591   3.212   8.568 -0.2376 -0.5038 -0.4923
 4518TIP3   OH235112   2.982   2.617   1.705  0.3233  0.0001 -0.2001
 4518TIP3    H135113   2.975   2.713   1.706 -0.1201 -0.0053 -1.1267
 4518TIP3    H235114   3.021   2.595   1.789  0.9569  1.0363 -0.2029
 4519TIP3   OH235115   2.623   3.887   8.670  0.1489  0.1996  0.5920
 4519TIP3    H135116   2.611   3.885   8.765  0.7395  1.3350  0.7111
 4519TIP3    H235117   2.562   3.954   8.640 -0.0480 -0.1691  0.1537
 4520TIP3   OH235118   6.578   5.386   0.651 -0.6086 -0.0042 -0.2880
 4520TIP3    H135119   6.516   5.370   0.722 -0.1154  1.8443  0.6082
 4520TIP3    H235120   6.630   5.461   0.681 -0.0533  0.4986 -2.3796
 4521TIP3   OH235121   0.062   1.273   7.261  0.6856 -0.7642  0.4330
 4521TIP3    H135122   0.040   1.301   7.172  1.3463  0.1966  0.5531
 4521TIP3    H235123   0.024   1.341   7.318  1.2742 -0.7453  0.8140
 4522TIP3   OH235124   3.929   3.928   7.125  0.4051 -0.6808 -0.2406
 4522TIP3    H135125   3.970   3.991   7.065  3.7172 -1.6286  0.8113
 4522TIP3    H235126   3.937   3.844   7.081  0.8419 -1.0655  0.5471
 4523TIP3   OH235127   4.367   2.775   7.627  0.2744 -0.0371 -0.2048
 4523TIP3    H135128   4.310   2.837   7.673 -0.5385 -1.0613  0.2113
 4523TIP3    H235129   4.307   2.719   7.578  1.0054 -0.3664 -0.7428
 4524TIP3   OH235130   3.747   6.556   8.358 -0.4620  0.8283 -0.3417
 4524TIP3    H135131   3.777   6.472   8.390 -0.7036  1.9161  3.1065
 4524TIP3    H235132   3.818   6.587   8.302  0.6197 -0.6858  0.1415
 4525TIP3   OH235133   2.879   0.801   0.264  0.6429 -0.3705  0.2337
 4525TIP3    H135134   2.971   0.778   0.280  0.4233 -0.1517  2.0101
 4525TIP3    H235135   2.879   0.897   0.261  0.5150 -0.3795 -0.0379
 4526TIP3   OH235136   4.244   5.869   7.535  0.1702 -0.1850 -0.0265
 4526TIP3    H135137   4.280   5.934   7.475 -0.3526 -0.4291 -0.6050
 4526TIP3    H235138   4.223   5.793   7.480  0.0303 -0.5480  0.5165
 4527TIP3   OH235139   2.567   6.046   0.884  0.0329  0.1462  1.0098
 4527TIP3    H135140   2.622   6.092   0.821 -0.6870 -0.9340 -0.4462
 4527TIP3    H235141   2.614   5.965   0.903 -0.9011 -0.6857 -0.0818
 4528TIP3   OH235142   1.314   1.745   7.287 -0.3849 -0.5297  0.5015
 4528TIP3    H135143   1.388   1.794   7.251 -0.4668 -0.7769 -0.0055
 4528TIP3    H235144   1.305   1.669   7.231 -0.1324 -1.2483  1.4117
 4529TIP3   OH235145   2.383   0.535   0.281  0.3776 -0.2086  0.4412
 4529TIP3    H135146   2.335   0.548   0.199  0.4961 -0.6203  0.3074
 4529TIP3    H235147   2.470   0.571   0.264  1.4552 -3.0482 -0.6755
 4530TIP3   OH235148   2.367   6.070   2.402 -0.3675 -0.4735 -0.5118
 4530TIP3    H135149   2.449   6.029   2.376  0.2285 -0.3653  1.1169
 4530TIP3    H235150   2.309   5.997   2.424  0.1579 -0.5146  0.8141
 4531TIP3   OH235151   6.146   4.937   8.607  0.4071  0.5778  0.0699
 4531TIP3    H135152   6.090   4.877   8.555 -0.4601  1.5291 -0.1345
 4531TIP3    H235153   6.131   4.911   8.697  0.8858 -0.2226 -0.0738
 4532TIP3   OH235154   1.157   1.466   1.718  0.2379 -0.2847 -0.4049
 4532TIP3    H135155   1.115   1.380   1.728 -0.2964  0.1180  0.9948
 4532TIP3    H235156   1.105   1.525   1.771  2.5204  0.2536  1.4075
 4533TIP3   OH235157   1.913   0.851   1.684 -0.1088  0.2556  0.3181
 4533TIP3    H135158   1.828   0.808   1.675 -0.2341  0.6595 -0.5421
 4533TIP3    H235159   1.894   0.932   1.731 -0.1197  0.1105  0.5646
 4534TIP3   OH235160   4.938   0.868   7.835 -0.6223 -0.6792 -0.1644
 4534TIP3    H135161   4.863   0.825   7.876 -0.0859 -0.2835  1.2997
 4534TIP3    H235162   5.015   0.830   7.878 -0.1306  1.6384  1.1419
 4535TIP3   OH235163   4.592   5.789   1.272 -0.4377 -0.0676 -0.2710
 4535TIP3    H135164   4.574   5.830   1.187  0.0819 -1.8102 -1.2522
 4535TIP3    H235165   4.681   5.818   1.294 -0.1543 -0.4937 -0.8500
 4536TIP3   OH235166   5.858   2.290   8.478  0.1406  0.8615  0.1192
 4536TIP3    H135167   5.819   2.378   8.483 -0.2907  0.6444  0.6290
 4536TIP3    H235168   5.933   2.294   8.537  0.6525  1.1492 -0.5351
 4537TIP3   OH235169   6.723   5.503   1.820  0.2199  0.2858 -0.0799
 4537TIP3    H135170   6.676   5.555   1.885 -2.1902 -0.5523 -1.0453
 4537TIP3    H235171   6.738   5.419   1.864 -1.2395 -0.2135 -0.4686
 4538TIP3   OH235172   2.958   6.130   8.252  0.5195  0.6044  0.3063
 4538TIP3    H135173   2.920   6.078   8.322 -0.2794  0.3948 -0.2768
 4538TIP3    H235174   2.926   6.219   8.269  1.5677  0.8621  1.0738
 4539TIP3   OH235175   0.302   6.695   6.832  0.1102  0.2853  0.0464
 4539TIP3    H135176   0.301   6.606   6.867 -0.7939  0.6597  1.0114
 4539TIP3    H235177   0.250   6.690   6.751 -0.3934  0.0463  0.3823
 4540TIP3   OH235178   2.488   5.761   0.655 -0.0137 -0.0761  0.1860
 4540TIP3    H135179   2.407   5.719   0.683 -0.2376  1.0530  1.3004
 4540TIP3    H235180   2.463   5.852   0.638  0.5034 -0.2822 -1.9808
 4541TIP3   OH235181   0.330   0.262   8.429 -0.4888 -0.1385 -0.1444
 4541TIP3    H135182   0.265   0.302   8.487 -1.2907  0.2783 -1.3126
 4541TIP3    H235183   0.302   0.285   8.341  0.6489 -0.8684 -0.7230
 4542TIP3   OH235184   4.994   4.251   0.286 -0.3376 -0.0761  0.1316
 4542TIP3    H135185   5.045   4.329   0.267  0.5666 -0.8102 -0.5523
 4542TIP3    H235186   5.055   4.194   0.333 -0.7794 -0.6280  0.0476
 4543TIP3   OH235187   5.537   2.196   8.288 -0.7250  0.2999  0.0732
 4543TIP3    H135188   5.497   2.260   8.229 -1.4946 -0.0235  0.2310
 4543TIP3    H235189   5.628   2.189   8.259 -0.2815  2.3441  0.7724
 4544TIP3   OH235190   1.386   4.620   0.510 -0.8104  0.8870  0.1818
 4544TIP3    H135191   1.480   4.634   0.519 -0.6576  0.8640 -1.1618
 4544TIP3    H235192   1.365   4.554   0.576  0.1943  0.5759  0.2046
 4545TIP3   OH235193   4.175   0.587   8.485  0.6088  0.2923  0.0261
 4545TIP3    H135194   4.109   0.635   8.436  0.8902  0.2811 -0.3680
 4545TIP3    H235195   4.248   0.648   8.494  0.8773  0.0171 -0.2779
 4546TIP3   OH235196   3.631   1.794   7.498  0.1956  0.4652  0.4573
 4546TIP3    H135197   3.616   1.706   7.532  2.5439  0.6374  2.1701
 4546TIP3    H235198   3.716   1.789   7.454  0.9551  2.0970  1.6175
 4547TIP3   OH235199   0.800   4.257   8.552 -0.1095  0.3544 -0.1992
 4547TIP3    H135200   0.870   4.198   8.579  0.7856  1.3633 -0.2737
 4547TIP3    H235201   0.836   4.345   8.562 -1.2190  0.8889 -0.6440
 4548TIP3   OH235202   5.215   6.726   8.036 -0.3030 -0.3315  0.4681
 4548TIP3    H135203   5.299   6.686   8.060  0.0896  0.4090  0.3624
 4548TIP3    H235204   5.152   6.655   8.044 -0.0485 -0.3984  2.7388
 4549TIP3   OH235205   4.023   1.229   7.461 -0.3206 -0.1415  0.1907
 4549TIP3    H135206   4.025   1.134   7.470 -0.1124 -0.0490  1.2460
 4549TIP3    H235207   4.070   1.262   7.539 -0.0009  0.8072 -0.3808
 4550TIP3   OH235208   2.428   5.108   8.126  0.4747  0.1914 -0.5957
 4550TIP3    H135209   2.343   5.151   8.128  0.3999  0.2579 -2.9231
 4550TIP3    H235210   2.474   5.141   8.203 -1.2306  0.9198  0.1398
 4551TIP3   OH235211   0.690   0.178   7.759  0.1418  0.2217 -0.2729
 4551TIP3    H135212   0.685   0.105   7.821  1.9500  0.0355 -0.2931
 4551TIP3    H235213   0.603   0.219   7.763 -1.1990 -2.3639 -0.8502
 4552TIP3   OH235214   5.071   2.634   7.448 -0.3465 -0.2005  0.2108
 4552TIP3    H135215   5.155   2.664   7.484 -0.0501 -0.2412 -0.4294
 4552TIP3    H235216   5.061   2.545   7.481 -1.7040  0.8424  2.9485
 4553TIP3   OH235217   4.054   0.219   8.719 -0.7155 -0.0105 -0.4411
 4553TIP3    H135218   4.148   0.233   8.710 -0.5112  2.3698  3.3053
 4553TIP3    H235219   4.015   0.303   8.698 -1.9041 -0.5648 -0.5280
 4554TIP3   OH235220   3.231   3.349   0.428  0.4867 -0.6850 -0.0847
 4554TIP3    H135221   3.249   3.367   0.336  0.7564 -3.4247 -0.6624
 4554TIP3    H235222   3.200   3.432   0.463  1.2789  0.6905 -2.3938
 4555TIP3   OH235223   6.548   0.448   6.561 -0.0515 -0.2196 -0.4386
 4555TIP3    H135224   6.557   0.529   6.511 -1.0443  1.5061  1.9920
 4555TIP3    H235225   6.612   0.455   6.632  0.1297 -1.7742 -0.4109
 4556TIP3   OH235226   4.314   0.528   0.664 -0.8792  0.2996  0.4047
 4556TIP3    H135227   4.265   0.449   0.641  0.1663 -0.2246 -0.1054
 4556TIP3    H235228   4.281   0.552   0.751 -0.0887 -1.6494  1.3192
 4557TIP3   OH235229   3.848   3.051   1.388  0.2280 -0.2364  0.0537
 4557TIP3    H135230   3.918   3.110   1.361  0.4383  0.5443  2.0957
 4557TIP3    H235231   3.891   2.966   1.399  0.1728 -0.5258 -1.7124
 4558TIP3   OH235232   5.887   3.911   7.138 -0.1262  0.3102 -0.0249
 4558TIP3    H135233   5.823   3.903   7.208 -0.1694 -0.3777 -0.1373
 4558TIP3    H235234   5.876   4.000   7.105 -1.0192  0.2019 -0.0363
 4559TIP3   OH235235   6.518   6.489   0.469 -0.7869 -0.0550  0.0771
 4559TIP3    H135236   6.574   6.560   0.437 -1.7551 -0.1365 -1.9912
 4559TIP3    H235237   6.449   6.481   0.402 -2.3216 -1.0582  1.6898
 4560TIP3   OH235238   1.437   5.205   8.083  0.6163 -0.0108  0.4945
 4560TIP3    H135239   1.423   5.190   7.989  1.8442 -0.2531  0.3334
 4560TIP3    H235240   1.490   5.130   8.111  2.8783  1.5979  0.6966
 4561TIP3   OH235241   2.889   0.680   1.041 -0.3429  0.1837 -0.1666
 4561TIP3    H135242   2.891   0.710   1.132  0.4578  0.4027 -0.2441
 4561TIP3    H235243   2.980   0.656   1.022 -0.0695  2.0339 -1.5160
 4562TIP3   OH235244   5.624   5.187   0.988  0.2166  0.2550  0.8674
 4562TIP3    H135245   5.685   5.119   0.960  0.0045  0.6744 -0.7334
 4562TIP3    H235246   5.559   5.142   1.042  0.5168 -0.6628  0.4734
 4563TIP3   OH235247   2.412   4.383   0.786 -0.2162  0.0163 -0.0516
 4563TIP3    H135248   2.453   4.460   0.745 -2.9296  1.6362  0.0520
 4563TIP3    H235249   2.420   4.399   0.880 -1.6425  0.7115 -0.0298
 4564TIP3   OH235250   1.439   4.574   0.923  0.0480  0.3355 -0.2778
 4564TIP3    H135251   1.473   4.648   0.872  1.2492  0.1248  0.1715
 4564TIP3    H235252   1.518   4.528   0.953 -0.6344  0.3939  1.6866
 4565TIP3   OH235253   5.278   2.668   0.297 -0.4042  0.7695 -0.1889
 4565TIP3    H135254   5.344   2.605   0.326 -1.6184 -0.9367 -0.9163
 4565TIP3    H235255   5.299   2.685   0.205 -0.2187  1.2367 -0.0605
 4566TIP3   OH235256   2.977   6.325   1.624 -0.6548 -1.1555  0.2556
 4566TIP3    H135257   3.056   6.277   1.597  0.2387 -0.8369  2.1109
 4566TIP3    H235258   2.934   6.267   1.687  0.7485  0.5232  2.9948
 4567TIP3   OH235259   2.755   4.017   8.078  0.1053 -0.2522  0.3180
 4567TIP3    H135260   2.780   4.037   7.988 -1.2270 -0.6235 -0.1707
 4567TIP3    H235261   2.809   4.074   8.132  0.4839  0.4310 -0.7532
 4568TIP3   OH235262   4.206   2.892   7.828 -0.0088  0.3751  0.0935
 4568TIP3    H135263   4.159   2.976   7.829 -1.2083 -0.2858  0.9906
 4568TIP3    H235264   4.249   2.888   7.913  1.8781  1.0408 -0.7735
 4569TIP3   OH235265   6.706   4.683   2.338 -0.0563  0.1828 -0.1424
 4569TIP3    H135266   6.703   4.778   2.336  1.6483  0.2637 -0.3778
 4569TIP3    H235267   6.637   4.658   2.400 -0.6492  1.5371 -0.2156
 4570TIP3   OH235268   4.243   3.813   1.175  0.6075 -0.5200  0.1134
 4570TIP3    H135269   4.159   3.857   1.180  0.9816  0.1361  0.9271
 4570TIP3    H235270   4.268   3.798   1.266  2.4195  1.3725  0.0157
 4571TIP3   OH235271   5.578   2.550   2.533  0.4117 -0.6528 -0.0989
 4571TIP3    H135272   5.606   2.471   2.578 -0.0664 -0.1535  1.1105
 4571TIP3    H235273   5.484   2.539   2.519 -0.0723  0.5182  1.8814
 4572TIP3   OH235274   0.092   4.219   1.386  0.6031 -0.9560 -0.8312
 4572TIP3    H135275   0.017   4.278   1.374  1.3066 -0.1823 -1.5962
 4572TIP3    H235276   0.164   4.262   1.339  1.4933 -1.7565 -0.2398
 4573TIP3   OH235277   3.071   0.893   7.724  0.3372  0.7426  0.1743
 4573TIP3    H135278   3.142   0.829   7.730 -0.0763  0.3351  0.8904
 4573TIP3    H235279   3.106   0.971   7.767  0.5099  0.6976  0.1198
 4574TIP3   OH235280   4.288   3.748   1.433  0.2206 -0.2871  0.1492
 4574TIP3    H135281   4.237   3.744   1.514  0.7468 -0.1769  0.4960
 4574TIP3    H235282   4.347   3.823   1.446  1.3053 -1.1379  0.2667
 4575TIP3   OH235283   3.472   6.268   8.627 -0.1379  0.5584  0.1457
 4575TIP3    H135284   3.446   6.243   8.715 -0.0313 -0.9377 -0.2237
 4575TIP3    H235285   3.513   6.354   8.637 -1.1849  0.9457  1.3659
 4576TIP3   OH235286   2.880   4.160   6.611 -0.9660 -0.5193  0.5825
 4576TIP3    H135287   2.819   4.100   6.567  0.4248 -1.3526 -0.3198
 4576TIP3    H235288   2.846   4.169   6.700 -1.5841 -2.1591  0.5474
 4577TIP3   OH235289   5.216   5.547   7.677  0.2391  0.0180 -0.0245
 4577TIP3    H135290   5.217   5.541   7.581 -0.8128  3.8953 -0.4506
 4577TIP3    H235291   5.133   5.507   7.703  1.5618 -3.2482 -0.3368
 4578TIP3   OH235292   1.457   4.443   8.638  0.2317  0.1179  0.5952
 4578TIP3    H135293   1.411   4.463   8.556  0.7530  2.0796  0.7389
 4578TIP3    H235294   1.549   4.434   8.612  0.2770 -0.1257  0.8421
 4579TIP3   OH235295   2.824   3.761   1.203 -0.2136 -1.0614  0.1200
 4579TIP3    H135296   2.831   3.752   1.108  0.1424  1.4091 -0.1379
 4579TIP3    H235297   2.914   3.750   1.235 -0.0331 -0.0861 -0.0319
 4580TIP3   OH235298   4.391   3.795   8.059 -0.3410  0.3604  0.1589
 4580TIP3    H135299   4.348   3.727   8.111  0.7517 -0.8048 -0.4064
 4580TIP3    H235300   4.474   3.810   8.102  0.5165 -0.5103 -1.1228
 4581TIP3   OH235301   0.895   5.820   6.646 -0.1517  0.5204 -0.0764
 4581TIP3    H135302   0.944   5.835   6.726  1.4746 -0.7343 -0.7641
 4581TIP3    H235303   0.884   5.906   6.607 -1.2968  1.1902  1.6343
 4582TIP3   OH235304   4.627   4.661   6.675  0.2326  0.3441 -0.2628
 4582TIP3    H135305   4.677   4.740   6.698 -0.8621  1.5448 -1.7488
 4582TIP3    H235306   4.609   4.671   6.581 -2.4963 -0.1395  0.1160
 4583TIP3   OH235307   3.236   6.564   1.092  0.3777 -0.6402  0.1983
 4583TIP3    H135308   3.255   6.492   1.032  0.8994 -0.4649  0.1562
 4583TIP3    H235309   3.266   6.532   1.178  1.0066 -0.3047  0.1049
 4584TIP3   OH235310   2.658   1.256   7.598  0.2090 -0.5731 -0.1498
 4584TIP3    H135311   2.653   1.351   7.597 -0.0406 -0.4865  2.4351
 4584TIP3    H235312   2.729   1.235   7.537  0.5276  1.2816 -0.4797
 4585TIP3   OH235313   3.290   1.762   0.692  0.6570  0.1321 -0.3078
 4585TIP3    H135314   3.367   1.794   0.739  0.5968  0.5122 -0.4622
 4585TIP3    H235315   3.319   1.755   0.601  0.2925  1.0343 -0.5054
 4586TIP3   OH235316   4.972   4.402   1.840 -0.3444 -0.4924 -0.3151
 4586TIP3    H135317   4.948   4.413   1.932 -0.0762 -0.1078 -0.2886
 4586TIP3    H235318   5.054   4.450   1.831  0.8992 -2.4709 -0.2116
 4587TIP3   OH235319   2.555   0.419   7.410 -0.0737 -0.0724  0.4418
 4587TIP3    H135320   2.552   0.439   7.316 -1.0646  0.2750  0.5405
 4587TIP3    H235321   2.631   0.468   7.442 -1.5571  2.4062  0.3955
 4588TIP3   OH235322   6.720   1.187   8.697 -0.2867  0.5759 -0.2865
 4588TIP3    H135323   6.702   1.275   8.728 -1.1607  0.0921  0.6455
 4588TIP3    H235324   6.636   1.141   8.704  0.3050 -0.5259 -0.0621
 4589TIP3   OH235325   3.249   2.656   1.215  0.1755  0.2960 -0.0183
 4589TIP3    H135326   3.176   2.702   1.257 -0.7503 -0.8347 -0.3134
 4589TIP3    H235327   3.211   2.572   1.188  0.6588  0.9632 -3.1975
 4590TIP3   OH235328   5.494   5.645   8.136 -0.2916 -0.9801 -0.6026
 4590TIP3    H135329   5.423   5.623   8.076  0.2618  2.6587 -2.8927
 4590TIP3    H235330   5.567   5.670   8.080  1.2566 -0.1198  1.6346
 4591TIP3   OH235331   3.496   6.087   0.938  0.2445 -0.4557  0.5935
 4591TIP3    H135332   3.500   6.129   0.852 -0.5350 -2.4737 -0.4889
 4591TIP3    H235333   3.428   6.020   0.928 -0.7498  0.0620  3.1672
 4592TIP3   OH235334   1.096   6.405   6.163 -0.0364 -0.0508  0.2520
 4592TIP3    H135335   1.167   6.369   6.218  0.4592  0.4687 -0.0353
 4592TIP3    H235336   1.061   6.478   6.214  0.7062  0.7036 -0.2768
 4593TIP3   OH235337   1.318   3.959   8.290  0.6029  0.0228 -0.2303
 4593TIP3    H135338   1.407   3.971   8.323 -0.1523  0.0067  2.0016
 4593TIP3    H235339   1.323   3.981   8.198  2.7130  1.0190  0.0732
 4594TIP3   OH235340   1.671   2.650   0.356  0.2748 -0.5153  0.4902
 4594TIP3    H135341   1.649   2.637   0.448 -1.1551  1.8418  0.5572
 4594TIP3    H235342   1.595   2.615   0.309  1.3331 -2.4392  0.0860
 4595TIP3   OH235343   0.854   2.886   7.739  0.0005  0.1376 -0.6360
 4595TIP3    H135344   0.773   2.852   7.700 -0.1663 -0.3290  0.0889
 4595TIP3    H235345   0.840   2.878   7.833 -0.5770  3.4385 -0.3238
 4596TIP3   OH235346   5.945   4.423   7.452  0.2946  0.3568 -0.4635
 4596TIP3    H135347   5.938   4.478   7.531  1.8921 -0.1955  0.0810
 4596TIP3    H235348   5.992   4.478   7.389  1.2311 -0.1104 -0.1746
 4597TIP3   OH235349   5.521   2.524   0.268  0.0321 -0.2079 -0.5238
 4597TIP3    H135350   5.606   2.487   0.292  0.0705 -0.3934 -0.9460
 4597TIP3    H235351   5.522   2.528   0.173 -0.6789 -0.8103 -0.5680
 4598TIP3   OH235352   1.468   2.119   1.987  0.1435  0.1201 -0.3732
 4598TIP3    H135353   1.527   2.075   2.049  1.5016  2.3203  0.0013
 4598TIP3    H235354   1.383   2.121   2.031  0.1907 -1.4954 -0.1451
 4599TIP3   OH235355   3.550   6.124   7.234  0.3953  0.4053 -0.2838
 4599TIP3    H135356   3.467   6.089   7.267  1.1466 -1.2464 -0.0511
 4599TIP3    H235357   3.563   6.080   7.150  1.2080  0.4018 -0.1609
 4600TIP3   OH235358   4.716   6.182   8.573 -0.1511  0.4449 -1.0589
 4600TIP3    H135359   4.686   6.257   8.625  0.1935  0.7399 -1.2845
 4600TIP3    H235360   4.636   6.133   8.554 -0.0216 -1.3274  2.2722
 4601TIP3   OH235361   3.464   6.561   0.423  0.0836 -0.5149  0.2878
 4601TIP3    H135362   3.425   6.489   0.373  1.1816 -0.0311 -1.3441
 4601TIP3    H235363   3.407   6.635   0.407 -0.9094 -0.9245  1.7683
 4602TIP3   OH235364   3.632   1.461   8.639  0.6031 -0.3164  0.4850
 4602TIP3    H135365   3.684   1.541   8.625 -0.0943 -0.1140 -1.0321
 4602TIP3    H235366   3.597   1.472   8.727  1.8522  0.2673  0.9464
 4603TIP3   OH235367   4.179   5.450   2.048  0.2558  0.9868 -0.2129
 4603TIP3    H135368   4.156   5.412   1.963 -1.0750  1.1939  0.0316
 4603TIP3    H235369   4.225   5.531   2.027  2.0027 -0.0794 -0.7315
 4604TIP3   OH235370   3.569   0.260   2.561  0.0889 -0.0138  0.5095
 4604TIP3    H135371   3.498   0.203   2.528 -0.2313  1.8271 -2.3133
 4604TIP3    H235372   3.525   0.321   2.619 -0.8772  1.4481 -1.6269
 4605TIP3   OH235373   0.017   3.411   7.386 -0.3188 -0.6066 -0.6778
 4605TIP3    H135374   0.082   3.444   7.448  0.1802 -1.0482 -0.9450
 4605TIP3    H235375   0.052   3.325   7.360 -0.7749 -0.6415 -1.1810
 4606TIP3   OH235376   6.418   0.898   7.817 -0.9789  0.0271  0.0456
 4606TIP3    H135377   6.332   0.908   7.776 -1.5406  1.5117  1.4414
 4606TIP3    H235378   6.474   0.960   7.771 -0.1000 -2.2247 -2.0897
 4607TIP3   OH235379   4.146   4.510   8.266  0.3161  0.2477  0.0873
 4607TIP3    H135380   4.108   4.422   8.263 -1.0903  0.8470 -0.6011
 4607TIP3    H235381   4.138   4.536   8.357 -2.8380  1.0987 -0.3067
 4608TIP3   OH235382   1.370   1.157   7.668  0.2011  0.3641 -0.3872
 4608TIP3    H135383   1.398   1.174   7.758 -0.2034  0.0566 -0.1982
 4608TIP3    H235384   1.275   1.172   7.669  0.1094 -0.1455 -0.6302
 4609TIP3   OH235385   2.943   3.695   7.094 -0.3145  0.2452 -0.1733
 4609TIP3    H135386   2.881   3.757   7.132 -0.2621  0.8730 -1.0730
 4609TIP3    H235387   2.969   3.639   7.167  0.7823  2.2085  1.0403
 4610TIP3   OH235388   4.819   1.985   0.916  0.4943 -0.0487 -0.0767
 4610TIP3    H135389   4.867   1.938   0.984  2.3170 -1.4101 -2.1692
 4610TIP3    H235390   4.884   2.043   0.877  0.3447 -1.4266 -2.5317
 4611TIP3   OH235391   4.357   4.694   6.839  0.4412  0.2660  0.4201
 4611TIP3    H135392   4.438   4.678   6.790  0.0210  0.0123 -0.1926
 4611TIP3    H235393   4.313   4.764   6.791 -1.7995 -2.4786 -1.8261
 4612TIP3   OH235394   1.392   6.259   7.632 -0.5895  0.0237  0.3678
 4612TIP3    H135395   1.462   6.196   7.617  1.0558  2.0791 -1.1656
 4612TIP3    H235396   1.318   6.227   7.579  0.7036  0.0629 -1.5757
 4613TIP3   OH235397   2.825   4.393   0.516 -0.1033  0.3084  0.0705
 4613TIP3    H135398   2.875   4.464   0.476  0.9887  0.3501  1.4161
 4613TIP3    H235399   2.891   4.335   0.553 -1.0175 -0.0767  1.1784
 4614TIP3   OH235400   0.830   0.032   1.957  0.4544 -0.1068 -0.0078
 4614TIP3    H135401   0.823   0.086   1.878 -1.1154 -0.5564 -0.2050
 4614TIP3    H235402   0.893  -0.036   1.933 -1.1651 -1.1857 -1.5030
 4615TIP3   OH235403   0.586   4.208   1.078  0.2567  0.3335  0.0415
 4615TIP3    H135404   0.495   4.218   1.049  0.2672  1.0387  0.2409
 4615TIP3    H235405   0.614   4.125   1.040 -0.0600  0.7268 -1.0809
 4616TIP3   OH235406   2.375   4.401   8.405 -0.2023  0.1299  0.3641
 4616TIP3    H135407   2.419   4.453   8.472 -0.7079  0.4245  0.4725
 4616TIP3    H235408   2.368   4.459   8.329  0.1846 -0.1352  0.1206
 4617TIP3   OH235409   2.736   1.599   0.537  0.2293  0.6064 -0.0446
 4617TIP3    H135410   2.729   1.596   0.632 -2.7643 -0.4506 -0.2127
 4617TIP3    H235411   2.781   1.517   0.515 -0.7245 -0.0416  0.3726
 4618TIP3   OH235412   4.788   3.779   7.760  0.0917 -0.1981  0.0417
 4618TIP3    H135413   4.692   3.776   7.767  0.1534 -1.9266  0.7188
 4618TIP3    H235414   4.805   3.851   7.700 -1.6329  0.2090 -0.0291
 4619TIP3   OH235415   2.024   1.245   8.638  0.0952 -0.2918 -0.2386
 4619TIP3    H135416   1.947   1.301   8.634  0.1824 -0.2585 -1.8315
 4619TIP3    H235417   2.061   1.262   8.725 -0.2491  1.6218 -0.4271
 4620TIP3   OH235418   4.945   2.132   6.904  0.0470  0.4508 -0.1476
 4620TIP3    H135419   5.000   2.111   6.828  0.4777 -1.2682  0.6085
 4620TIP3    H235420   4.857   2.106   6.877  0.4732 -1.8638  0.5406
 4621TIP3   OH235421   5.284   6.769   6.928 -0.2216  0.1927  0.0203
 4621TIP3    H135422   5.262   6.731   6.844 -0.3246 -0.5906  0.3968
 4621TIP3    H235423   5.272   6.863   6.916  1.3760  0.2761 -1.3412
 4622TIP3   OH235424   0.609   4.450   2.686 -0.3083  0.1417  0.6434
 4622TIP3    H135425   0.658   4.508   2.627 -0.8834  0.4155  0.4268
 4622TIP3    H235426   0.651   4.364   2.675 -0.6377  0.1063 -0.4409
 4623TIP3   OH235427   1.311   5.976   1.763 -0.8420 -0.6660  0.2088
 4623TIP3    H135428   1.306   5.881   1.755 -2.1683 -0.4744 -2.1787
 4623TIP3    H235429   1.226   6.008   1.734 -0.2534  1.2919  0.4508
 4624TIP3   OH235430   4.977   0.685   1.473  0.0419 -0.8902  0.2707
 4624TIP3    H135431   5.065   0.719   1.456 -0.0450 -0.3096  0.9562
 4624TIP3    H235432   4.926   0.711   1.396  0.6930 -2.0795 -0.5867
 4625TIP3   OH235433   2.059   5.852   1.036 -0.1868 -0.3451 -0.6476
 4625TIP3    H135434   2.060   5.817   1.125 -2.7027 -0.9219 -0.7778
 4625TIP3    H235435   2.145   5.893   1.025  0.0808  0.0129  2.1478
 4626TIP3   OH235436   4.570   0.554   7.052 -0.5628 -0.3485  0.2822
 4626TIP3    H135437   4.593   0.482   7.110  2.0717 -1.0291 -1.4101
 4626TIP3    H235438   4.595   0.523   6.965  1.9567  3.0410 -0.3914
 4627TIP3   OH235439   4.656   6.032   0.444 -0.3587  0.3741 -0.4106
 4627TIP3    H135440   4.631   6.069   0.359  0.3753  2.2723  0.1402
 4627TIP3    H235441   4.608   5.949   0.449  1.3881 -1.0043 -3.6686
 4628TIP3   OH235442   2.186   6.698   1.833  0.2883  0.2757  0.0970
 4628TIP3    H135443   2.224   6.745   1.907  0.7703 -0.2428  0.1846
 4628TIP3    H235444   2.107   6.658   1.867  0.9425 -0.6527  0.5636
 4629TIP3   OH235445   2.506   3.411   6.864  0.5584  0.7909 -0.0782
 4629TIP3    H135446   2.531   3.434   6.954  0.1615 -0.9690  0.5215
 4629TIP3    H235447   2.563   3.338   6.841  0.2685  0.8575 -1.0647
 4630TIP3   OH235448   3.274   2.511   7.688  0.4822 -0.0490  0.2507
 4630TIP3    H135449   3.340   2.452   7.726  0.1585 -0.0097  0.8821
 4630TIP3    H235450   3.190   2.469   7.707  0.3202 -0.2608 -0.8261
 4631TIP3   OH235451   2.167   3.651   6.501  0.1565 -0.2067 -0.2010
 4631TIP3    H135452   2.200   3.616   6.584 -1.1270 -0.5649  0.1849
 4631TIP3    H235453   2.229   3.720   6.478  1.0745 -0.7408  0.5584
 4632TIP3   OH235454   6.334   6.762   1.798  0.3308  0.8073 -0.0023
 4632TIP3    H135455   6.329   6.669   1.778  0.3902  0.1454  2.6997
 4632TIP3    H235456   6.271   6.803   1.738  0.5492 -0.8759 -1.4710
 4633TIP3   OH235457   2.218   2.499   7.155 -0.2658 -0.3144  0.6897
 4633TIP3    H135458   2.307   2.471   7.136  0.0106 -1.0799  2.8709
 4633TIP3    H235459   2.163   2.427   7.124  0.1966 -1.7342  2.9763
 4634TIP3   OH235460   3.375   3.013   6.660  0.0791  0.1841 -0.1940
 4634TIP3    H135461   3.451   3.071   6.653 -0.3352  0.7926  0.2411
 4634TIP3    H235462   3.399   2.936   6.609  1.2076  0.1349  0.3786
 4635TIP3   OH235463   0.632   1.070   8.595 -0.2389 -0.5696  0.4129
 4635TIP3    H135464   0.561   1.128   8.621 -0.8916 -1.6546  1.1088
 4635TIP3    H235465   0.594   0.982   8.596  0.9950 -1.1316  0.3813
 4636TIP3   OH235466   3.827   0.209   7.035  0.1899  0.3266  0.3346
 4636TIP3    H135467   3.868   0.282   7.080 -0.1839  1.8955 -1.6919
 4636TIP3    H235468   3.789   0.248   6.956 -0.8154 -1.9151 -0.3783
 4637TIP3   OH235469   3.912   0.470   6.846 -0.0541  0.6577 -0.0870
 4637TIP3    H135470   3.920   0.565   6.854 -4.7523  1.1408  2.0011
 4637TIP3    H235471   3.822   0.456   6.816  0.4975 -3.1884 -0.3989
 4638TIP3   OH235472   4.079   5.607   2.564  0.3816  0.2404  0.8273
 4638TIP3    H135473   4.108   5.553   2.637  0.1892 -1.6896 -0.4640
 4638TIP3    H235474   4.112   5.563   2.486  0.6705  2.2890 -0.2890
 4639TIP3   OH235475   1.543   0.979   6.813 -0.6067 -0.3320  0.2208
 4639TIP3    H135476   1.468   1.027   6.780 -2.3354 -1.7904  1.8102
 4639TIP3    H235477   1.583   0.941   6.734 -0.3477  1.9682 -0.8388
 4640TIP3   OH235478   3.206   0.897   7.372  0.1926  0.5602 -0.3613
 4640TIP3    H135479   3.297   0.900   7.342  0.8839 -0.4351  1.5128
 4640TIP3    H235480   3.173   0.812   7.341  1.1822 -0.8720  2.2662
 4641TIP3   OH235481   0.714   1.208   8.365  0.3052 -0.4463 -0.3151
 4641TIP3    H135482   0.688   1.165   8.447  1.3871 -0.2180  0.1583
 4641TIP3    H235483   0.649   1.277   8.353 -0.0263 -0.6626  0.1938
 4642TIP3   OH235484   1.547   1.939   7.266  0.0244  0.0381  0.2434
 4642TIP3    H135485   1.531   2.005   7.198 -0.7846 -1.4361 -1.0626
 4642TIP3    H235486   1.641   1.940   7.279  0.3376 -0.3309 -1.6629
 4643TIP3   OH235487   1.312   3.656   1.684 -0.3366 -0.4183 -0.0709
 4643TIP3    H135488   1.256   3.705   1.624 -2.0191  0.2557  1.9476
 4643TIP3    H235489   1.358   3.722   1.734  0.7659 -0.9711 -0.3224
 4644TIP3   OH235490   1.725   2.353   0.561 -0.2726 -0.0486  0.4120
 4644TIP3    H135491   1.716   2.332   0.468  1.0784  0.5263  0.1198
 4644TIP3    H235492   1.770   2.278   0.599  4.9008  2.0174 -0.7044
 4645TIP3   OH235493   2.125   0.011   7.909 -0.1265  0.3218 -0.3551
 4645TIP3    H135494   2.121  -0.035   7.993 -1.2733 -0.9232 -1.0475
 4645TIP3    H235495   2.034   0.033   7.889  0.2173  1.3042 -0.9193
 4646TIP3   OH235496   4.960   1.436   8.107  0.1613 -0.5207  0.5873
 4646TIP3    H135497   4.889   1.384   8.069 -0.9640  0.8175  0.7888
 4646TIP3    H235498   4.936   1.446   8.199  0.4093  0.2417  0.5790
 4647TIP3   OH235499   6.591   3.061   2.674 -0.1512 -0.1327 -0.0442
 4647TIP3    H135500   6.673   3.071   2.721 -0.3914  0.8405  0.1965
 4647TIP3    H235501   6.594   2.973   2.638  2.7004  1.0445 -3.2679
 4648TIP3   OH235502   2.076   2.614   8.382 -0.3907  0.2568 -0.4376
 4648TIP3    H135503   2.150   2.600   8.441  1.4267 -0.9905 -2.8346
 4648TIP3    H235504   2.069   2.709   8.374  0.1147  0.4119  0.8010
 4649TIP3   OH235505   4.926   1.438   1.295  0.2215 -0.4486 -0.1658
 4649TIP3    H135506   4.913   1.436   1.201 -0.5969  2.3564 -0.2180
 4649TIP3    H235507   4.838   1.443   1.332  0.4789 -2.4707  0.8496
 4650TIP3   OH235508   2.544   1.679   1.731  0.8186  0.0188 -0.9822
 4650TIP3    H135509   2.452   1.653   1.734  0.9054 -0.2141  0.5843
 4650TIP3    H235510   2.553   1.730   1.650 -0.5810 -0.3093 -1.3556
 4651TIP3   OH235511   0.518   4.024   1.862 -0.1827 -0.0438 -0.5604
 4651TIP3    H135512   0.544   4.002   1.952  3.4883  1.7392 -1.0465
 4651TIP3    H235513   0.439   4.077   1.873 -0.8621 -1.3325  1.4421
 4652TIP3   OH235514   6.008   0.571   1.624 -0.2883 -0.4112 -0.4385
 4652TIP3    H135515   5.949   0.599   1.554  1.0001  0.3220 -1.2602
 4652TIP3    H235516   5.964   0.597   1.705 -0.6970  0.9102 -1.0706
 4653TIP3   OH235517   3.475   5.013   2.416 -0.6231  0.3009 -0.0893
 4653TIP3    H135518   3.546   4.963   2.455  0.6784  1.1286 -1.3036
 4653TIP3    H235519   3.465   5.090   2.471  0.0307  0.6178 -0.4104
 4654TIP3   OH235520   6.401   4.367   2.664 -0.4585 -0.5123 -0.4072
 4654TIP3    H135521   6.337   4.307   2.627  0.1397 -2.2763  1.2489
 4654TIP3    H235522   6.473   4.311   2.692  0.5117  1.0838  0.4615
 4655TIP3   OH235523   3.366   2.710   0.971  0.5873 -0.0453 -0.1789
 4655TIP3    H135524   3.307   2.691   1.045 -0.1349  0.1678 -0.6906
 4655TIP3    H235525   3.450   2.728   1.013  0.5271 -1.2389  0.5171
 4656TIP3   OH235526   5.140   5.353   7.241  0.7124 -0.0644 -0.4961
 4656TIP3    H135527   5.061   5.351   7.187  2.0877  0.0443 -2.6234
 4656TIP3    H235528   5.189   5.429   7.209  2.6062 -1.2845 -0.6472
 4657TIP3   OH235529   5.029   1.434   0.021  0.0497  0.2751  0.1365
 4657TIP3    H135530   5.040   1.353  -0.029 -0.3374  0.2610  0.0720
 4657TIP3    H235531   5.010   1.501  -0.044 -0.6392  0.2207  0.2722
 4658TIP3   OH235532   1.527   4.406   1.499  0.4723  0.3672  0.1714
 4658TIP3    H135533   1.458   4.463   1.464 -0.4893 -0.8328  0.0131
 4658TIP3    H235534   1.483   4.355   1.567  1.0952 -0.7056 -0.2063
 4659TIP3   OH235535   6.676   1.513   7.738 -0.7239  0.7215 -0.4512
 4659TIP3    H135536   6.754   1.559   7.768 -0.6903  0.4514 -0.1103
 4659TIP3    H235537   6.606   1.542   7.797 -0.2692 -1.2453  1.1716
 4660TIP3   OH235538   2.803   6.739   7.152 -0.1664  0.0594  0.3313
 4660TIP3    H135539   2.850   6.822   7.138 -1.2183  0.7664  0.8384
 4660TIP3    H235540   2.795   6.701   7.065  1.0663  0.0631  0.1962
 4661TIP3   OH235541   0.977   3.302   8.534 -0.1399  0.2736 -0.6511
 4661TIP3    H135542   1.060   3.308   8.486 -0.0939  1.2977 -0.4691
 4661TIP3    H235543   0.985   3.365   8.605 -1.1365  0.5064 -0.7248
 4662TIP3   OH235544   2.606   1.766   7.861  0.0007 -0.0005  0.1637
 4662TIP3    H135545   2.521   1.726   7.877 -0.6158  1.0460 -0.4269
 4662TIP3    H235546   2.667   1.713   7.913 -1.1915  0.1067  1.7412
 4663TIP3   OH235547   3.319   3.269   6.537 -0.3454  0.2063 -0.0941
 4663TIP3    H135548   3.299   3.212   6.611 -0.7120 -2.9396 -2.4040
 4663TIP3    H235549   3.390   3.224   6.491 -2.0579  0.4824 -3.2098
 4664TIP3   OH235550   5.516   5.730   0.147  0.4583  0.0178  0.7090
 4664TIP3    H135551   5.451   5.682   0.198 -0.8398 -0.2010 -1.0665
 4664TIP3    H235552   5.496   5.822   0.162 -0.3920 -0.0495  0.0464
 4665TIP3   OH235553   2.193   6.374   0.130 -0.1350  0.2105  0.0524
 4665TIP3    H135554   2.105   6.341   0.111 -0.7460  1.6797  0.2202
 4665TIP3    H235555   2.241   6.297   0.160 -1.5435 -0.5074  0.5785
 4666TIP3   OH235556   0.639   1.824   1.429 -0.0939 -0.4826  0.3460
 4666TIP3    H135557   0.563   1.835   1.487 -0.4730 -0.8416 -0.0794
 4666TIP3    H235558   0.698   1.896   1.454 -1.7849  1.5898 -1.2694
 4667TIP3   OH235559   0.992   4.906   7.522 -0.5587  0.0039 -0.4407
 4667TIP3    H135560   1.026   4.995   7.531 -0.7021  0.0757 -0.5917
 4667TIP3    H235561   0.994   4.889   7.428 -0.8960 -0.0062 -0.4498
 4668TIP3   OH235562   4.121   4.396   8.722 -0.0251 -0.1748 -0.3739
 4668TIP3    H135563   4.167   4.380   8.640  0.3874 -0.1955 -0.1420
 4668TIP3    H235564   4.069   4.316   8.736  2.4835 -1.6879  1.0788
 4669TIP3   OH235565   4.127   2.307   0.294 -0.2979  0.3654  0.1296
 4669TIP3    H135566   4.037   2.273   0.296  0.0602 -0.5551  1.8490
 4669TIP3    H235567   4.127   2.367   0.219 -2.8340  1.6718  1.0158
 4670TIP3   OH235568   3.959   6.048   6.655 -0.0447  0.0078  0.6533
 4670TIP3    H135569   4.022   6.118   6.636 -0.3070  0.7832  2.4662
 4670TIP3    H235570   3.914   6.033   6.571  0.8840  1.1133 -0.0766
 4671TIP3   OH235571   3.621   0.217   7.654  0.1485  0.1310 -0.1448
 4671TIP3    H135572   3.688   0.210   7.586  0.1563 -0.1641 -0.1114
 4671TIP3    H235573   3.558   0.279   7.620 -0.5270 -0.9946 -1.0094
 4672TIP3   OH235574   1.515   4.562   8.349  0.5441  0.6219 -0.0278
 4672TIP3    H135575   1.427   4.582   8.318  0.2951  0.5885  0.6220
 4672TIP3    H235576   1.545   4.644   8.389  0.8605  0.6693 -0.3562
 4673TIP3   OH235577   3.366   5.364   2.119 -0.7103  0.7211 -0.5269
 4673TIP3    H135578   3.318   5.283   2.102  0.3090 -0.2700  1.1383
 4673TIP3    H235579   3.309   5.414   2.177  0.0696 -0.3417  1.2350
 4674TIP3   OH235580   6.678   0.064   7.479 -0.1485 -0.1474 -0.1963
 4674TIP3    H135581   6.641   0.141   7.436 -0.7689 -0.3659 -0.0639
 4674TIP3    H235582   6.611  -0.004   7.468 -0.5964 -0.0469  1.6108
 4675TIP3   OH235583   3.818   3.959   7.889  0.2084 -0.1521 -0.3397
 4675TIP3    H135584   3.896   3.969   7.834  1.4605 -0.1125  1.3575
 4675TIP3    H235585   3.812   3.865   7.904  1.5125  0.0254  1.6245
 4676TIP3   OH235586   1.519   2.218   7.916  0.3546  0.1591 -0.1230
 4676TIP3    H135587   1.596   2.246   7.867  0.6346  1.6956  1.1472
 4676TIP3    H235588   1.511   2.280   7.989 -1.0225 -1.0462  0.8300
 4677TIP3   OH235589   6.176   0.406   0.924 -0.7559 -0.1369 -0.2703
 4677TIP3    H135590   6.208   0.381   1.011 -0.8233  1.6978  0.3435
 4677TIP3    H235591   6.132   0.491   0.939 -0.4750  0.3749 -2.1478
 4678TIP3   OH235592   1.318   1.347   8.439 -0.2613  0.1130 -0.5039
 4678TIP3    H135593   1.378   1.283   8.476  0.6878  0.0712 -2.0059
 4678TIP3    H235594   1.231   1.310   8.452  0.0430 -0.0414  1.3198
 4679TIP3   OH235595   6.132   0.294   6.649  0.2164  0.1389 -0.2105
 4679TIP3    H135596   6.176   0.262   6.727 -0.2737  1.5190  0.6754
 4679TIP3    H235597   6.132   0.220   6.589 -0.4265 -1.3388  1.5300
 4680TIP3   OH235598   1.181   0.050   0.647  0.1454 -0.2308 -0.1148
 4680TIP3    H135599   1.201   0.121   0.586 -2.3460 -0.6674 -1.5928
 4680TIP3    H235600   1.254  -0.011   0.638  1.4851  1.2958 -0.0899
 4681TIP3   OH235601   3.278   0.220   8.144  0.0856 -0.6524 -0.0926
 4681TIP3    H135602   3.257   0.245   8.234 -0.8327  0.0723 -0.5011
 4681TIP3    H235603   3.250   0.129   8.137 -2.1690  0.0219 -0.3608
 4682TIP3   OH235604   3.592   1.892   8.331  0.1280 -0.3170  0.2136
 4682TIP3    H135605   3.583   1.824   8.398  1.2932 -0.2739  0.4469
 4682TIP3    H235606   3.654   1.854   8.268  1.4140  0.7917  0.7499
 4683TIP3   OH235607   5.859   5.597   7.151  0.3678 -0.4076 -0.3541
 4683TIP3    H135608   5.949   5.622   7.173 -0.0947 -0.5823  2.0093
 4683TIP3    H235609   5.866   5.507   7.120  1.0904 -0.1613 -0.9358
 4684TIP3   OH235610   6.618   3.584   6.925  0.9302 -0.5925 -0.3248
 4684TIP3    H135611   6.623   3.545   6.838  1.8231  1.0564 -1.0718
 4684TIP3    H235612   6.602   3.677   6.909  1.2917 -0.2148  1.2659
 4685TIP3   OH235613   6.095   5.325   7.061 -0.7772 -0.0684  0.4660
 4685TIP3    H135614   6.042   5.257   7.102 -1.2474  0.1381  0.2168
 4685TIP3    H235615   6.135   5.371   7.134  1.5280 -2.1146  0.6082
 4686TIP3   OH235616   0.019   3.766   2.477 -0.0814 -0.4087 -0.3050
 4686TIP3    H135617   0.066   3.695   2.521 -0.6604 -1.0371 -0.6843
 4686TIP3    H235618  -0.042   3.721   2.418  0.8079  0.4149 -1.8985
 4687TIP3   OH235619   4.598   1.641   1.802  0.2169  0.4054  0.3912
 4687TIP3    H135620   4.620   1.612   1.890 -2.3460 -3.3903 -0.0323
 4687TIP3    H235621   4.535   1.712   1.815  0.7006  0.6375  1.5689
 4688TIP3   OH235622   4.608   2.675   7.518 -0.5056  0.0702  0.1351
 4688TIP3    H135623   4.527   2.674   7.569  0.4703 -0.0061  1.7540
 4688TIP3    H235624   4.595   2.606   7.452 -1.0179 -1.3084  1.6072
 4689TIP3   OH235625   3.580   0.694   1.917  0.3365 -0.4039 -0.3774
 4689TIP3    H135626   3.558   0.772   1.969  2.2372  0.2846 -0.4928
 4689TIP3    H235627   3.676   0.691   1.920  0.3509 -1.9934 -1.4941
 4690TIP3   OH235628   5.472   2.938   6.204  0.7126  0.2684  0.2960
 4690TIP3    H135629   5.380   2.966   6.199 -0.0657 -1.7810  1.5673
 4690TIP3    H235630   5.506   2.952   6.116 -1.8658 -2.0691 -1.2411
 4691TIP3   OH235631   5.259   3.351   6.577 -0.3738 -0.1880  0.2363
 4691TIP3    H135632   5.256   3.446   6.588 -1.1289 -0.1737 -0.0482
 4691TIP3    H235633   5.350   3.327   6.598 -0.4524  0.4550  1.3647
 4692TIP3   OH235634   2.194   3.930   7.429  0.5576 -0.2192  0.2466
 4692TIP3    H135635   2.261   3.998   7.420  1.3919 -0.7408  2.0447
 4692TIP3    H235636   2.114   3.970   7.393  1.2879  1.2926  0.2412
 4693TIP3   OH235637   3.871   2.258   6.523 -0.2177  0.4691  0.2144
 4693TIP3    H135638   3.783   2.253   6.560 -0.0217 -2.0990  0.4558
 4693TIP3    H235639   3.863   2.323   6.453 -2.9326 -1.2921 -1.2991
 4694TIP3   OH235640   4.919   3.545   0.533 -0.1645  0.0301  0.4260
 4694TIP3    H135641   4.824   3.545   0.528 -0.1808  0.7296  0.5889
 4694TIP3    H235642   4.948   3.517   0.446 -0.5158 -0.4283  0.4547
 4695TIP3   OH235643   4.670   5.550   0.949 -0.0258 -0.5686  0.2609
 4695TIP3    H135644   4.608   5.567   1.020  1.9754  1.1187  1.7267
 4695TIP3    H235645   4.689   5.456   0.957 -2.3751 -1.1748 -0.3174
 4696TIP3   OH235646   1.246   4.593   0.037 -0.2301 -0.3520  0.9005
 4696TIP3    H135647   1.207   4.559   0.118  0.6474  0.0918  1.5212
 4696TIP3    H235648   1.313   4.529   0.014 -1.3820 -1.2063 -0.2655
 4697TIP3   OH235649   1.658   2.975   8.011 -0.0298  0.4142 -0.0082
 4697TIP3    H135650   1.725   2.939   8.069  0.8112 -0.8988 -1.7116
 4697TIP3    H235651   1.702   3.046   7.965  0.2848 -0.5088 -1.1950
 4698TIP3   OH235652   5.248   4.668   8.261  0.4130 -0.2362 -0.1879
 4698TIP3    H135653   5.186   4.630   8.323  1.2202 -3.1733 -1.0405
 4698TIP3    H235654   5.195   4.691   8.185  0.0995 -1.1463 -0.2544
 4699TIP3   OH235655   0.585   3.244   8.297  0.3975 -0.3201 -0.2676
 4699TIP3    H135656   0.557   3.192   8.221 -0.8052 -0.7771  0.4514
 4699TIP3    H235657   0.673   3.213   8.316 -0.2360 -2.0425  0.0489
 4700TIP3   OH235658   1.109   6.039   0.402  0.1556  0.7069 -0.6214
 4700TIP3    H135659   1.046   5.977   0.438 -1.3209  0.7931 -2.8612
 4700TIP3    H235660   1.072   6.125   0.422  0.1377  0.7810 -0.9707
 4701TIP3   OH235661   6.581   1.290   7.160  0.2641  0.0969 -0.4894
 4701TIP3    H135662   6.665   1.298   7.115 -0.2259 -0.7669 -1.6084
 4701TIP3    H235663   6.602   1.244   7.241  1.0107  0.7838 -0.2780
 4702TIP3   OH235664   5.842   3.194   8.249  0.1297 -0.2375  0.6021
 4702TIP3    H135665   5.759   3.165   8.211  1.2908 -0.7901 -1.7180
 4702TIP3    H235666   5.853   3.284   8.217  0.7104 -0.3845  0.3757
 4703TIP3   OH235667   6.680   4.911   0.081 -0.3720 -1.5599  0.2519
 4703TIP3    H135668   6.686   4.857   0.160 -0.6995  0.3261  1.6297
 4703TIP3    H235669   6.589   4.901   0.052 -1.3150  0.4605  2.2268
 4704TIP3   OH235670   2.555   3.228   7.769 -0.4753  0.0676 -0.4197
 4704TIP3    H135671   2.545   3.168   7.695 -1.6309 -0.4187  0.1099
 4704TIP3    H235672   2.598   3.176   7.837  1.5748  0.8074 -1.0511
 4705TIP3   OH235673   2.975   1.377   7.165  0.5842 -0.7982 -0.3914
 4705TIP3    H135674   3.010   1.398   7.079  0.8189 -0.2080 -0.1580
 4705TIP3    H235675   2.939   1.460   7.197 -0.4877 -1.2523 -0.3778
 4706TIP3   OH235676   0.319   2.852   0.215  0.5004 -0.4758  0.0747
 4706TIP3    H135677   0.332   2.884   0.126  2.2242 -0.7992  0.1777
 4706TIP3    H235678   0.407   2.841   0.250 -0.1451 -0.1424  1.9148
 4707TIP3   OH235679   3.950   1.715   3.778  0.1560 -0.0010 -0.5872
 4707TIP3    H135680   4.007   1.641   3.755  0.6612  0.0482  0.4787
 4707TIP3    H235681   3.891   1.723   3.703  1.5828 -0.0117 -1.7542
 4708TIP3   OH235682   0.273   4.173   8.227  0.1315 -0.6038  0.5983
 4708TIP3    H135683   0.284   4.246   8.166 -1.4729 -1.1399 -0.3840
 4708TIP3    H235684   0.345   4.184   8.290  0.1038  1.6477  0.3222
 4709TIP3   OH235685   5.026   2.139   0.807  0.3916 -0.2481 -0.2886
 4709TIP3    H135686   4.973   2.193   0.748  0.3988 -1.2496 -1.2528
 4709TIP3    H235687   5.090   2.098   0.750  1.5142  0.0832  0.7089
 4710TIP3   OH235688   2.708   2.756   7.257  0.2522 -0.0476 -0.3460
 4710TIP3    H135689   2.707   2.775   7.163 -1.4179 -0.5524 -0.4757
 4710TIP3    H235690   2.666   2.832   7.297  1.4467  0.4092  0.0647
 4711TIP3   OH235691   0.869   6.368   6.780 -0.6178 -0.2289 -0.3195
 4711TIP3    H135692   0.781   6.330   6.787 -0.2898 -0.8691  0.5666
 4711TIP3    H235693   0.928   6.292   6.787  0.0309  0.3437  0.6558
 4712TIP3   OH235694   5.290   5.987   0.016 -0.1231  0.0340  0.2560
 4712TIP3    H135695   5.361   6.026   0.067  1.5116  0.6589 -2.3355
 4712TIP3    H235696   5.253   6.060  -0.034 -2.0302 -0.4589  0.8280
 4713TIP3   OH235697   5.665   1.600   7.943 -0.4450  0.2735  0.1841
 4713TIP3    H135698   5.643   1.678   7.893 -1.1402  0.7618  1.2146
 4713TIP3    H235699   5.621   1.612   8.027  0.8747 -0.4123  1.0133
 4714TIP3   OH235700   1.239   4.158   8.669  0.3379  0.0438 -0.7850
 4714TIP3    H135701   1.262   4.183   8.580 -0.2719 -0.0915 -0.9904
 4714TIP3    H235702   1.231   4.062   8.665 -0.8967  0.1326 -0.8964
 4715TIP3   OH235703   0.742   3.666   8.310  0.2825  0.1133 -0.0637
 4715TIP3    H135704   0.658   3.647   8.267  2.2715 -1.7898 -3.6403
 4715TIP3    H235705   0.754   3.595   8.372  0.1500 -0.8685 -1.1233
 4716TIP3   OH235706   5.996   1.723   8.558  0.0173 -0.2313 -0.1898
 4716TIP3    H135707   5.954   1.808   8.547  1.5391  0.5833 -0.0959
 4716TIP3    H235708   6.058   1.717   8.486 -0.4688 -1.5381 -0.5238
 4717TIP3   OH235709   2.456   2.287   1.282  0.4574 -0.5520 -0.3700
 4717TIP3    H135710   2.527   2.351   1.277 -1.1402  1.3401 -0.4301
 4717TIP3    H235711   2.412   2.295   1.197 -1.0703 -0.0697  0.4151
 4718TIP3   OH235712   0.839   0.218   0.396  0.4037  0.1956 -0.3112
 4718TIP3    H135713   0.883   0.138   0.368  1.8977  0.0126  2.2532
 4718TIP3    H235714   0.785   0.191   0.471 -1.5127  1.0693 -1.3061
 4719TIP3   OH235715   5.480   5.404   1.861 -0.3161 -0.1297 -0.0981
 4719TIP3    H135716   5.527   5.487   1.855 -0.3731  0.0002  0.9598
 4719TIP3    H235717   5.480   5.384   1.955 -1.5518 -0.5945 -0.1747
 4720TIP3   OH235718   3.053   5.679   2.344 -0.4218  0.1946  0.4869
 4720TIP3    H135719   3.091   5.765   2.358  1.1965 -0.4951  0.5825
 4720TIP3    H235720   3.016   5.655   2.429 -1.6776  1.1348  0.2307
 4721TIP3   OH235721   5.892   1.851   7.710 -0.3208  0.3340  0.0840
 4721TIP3    H135722   5.844   1.830   7.790  0.5114 -0.3182  0.4238
 4721TIP3    H235723   5.823   1.872   7.646 -1.0407 -0.1760  0.6720
 4722TIP3   OH235724   6.372   1.403   7.344  0.1141  0.4564  0.1501
 4722TIP3    H135725   6.373   1.428   7.251 -0.0069  0.0435  0.0330
 4722TIP3    H235726   6.462   1.376   7.363 -0.3284 -1.7652 -0.5124
 4723TIP3   OH235727   2.842   1.903   6.569  0.3126  0.6297  0.4833
 4723TIP3    H135728   2.916   1.874   6.516  1.7033  1.6578  1.7578
 4723TIP3    H235729   2.854   1.860   6.654  0.8718  2.6057  1.4903
 4724TIP3   OH235730   3.892   6.241   0.164  0.2046  0.1058 -0.1767
 4724TIP3    H135731   3.826   6.310   0.175 -0.0036 -0.1591  0.2525
 4724TIP3    H235732   3.844   6.166   0.129  0.5000  0.2901 -1.0014
 4725TIP3   OH235733   6.507   1.725   8.625  0.8907 -0.2219  0.4840
 4725TIP3    H135734   6.487   1.795   8.563 -1.3930 -2.1075 -1.0808
 4725TIP3    H235735   6.589   1.688   8.592  0.7194  0.0391 -0.2625
 4726TIP3   OH235736   4.732   6.470   0.298  0.0513 -0.3418  0.2737
 4726TIP3    H135737   4.641   6.471   0.266  0.2996  1.4573 -0.4984
 4726TIP3    H235738   4.724   6.492   0.391 -0.3485 -0.8815  0.3722
 4727TIP3   OH235739   1.730   3.008   8.429 -0.2024  0.4693  0.2904
 4727TIP3    H135740   1.767   3.032   8.344  0.3487  0.6253  0.5723
 4727TIP3    H235741   1.646   2.967   8.407 -0.2937  0.9550 -0.3026
 4728TIP3   OH235742   4.869   0.001   7.206  0.1615  0.4272 -0.4965
 4728TIP3    H135743   4.942  -0.035   7.157  0.2035  0.0386 -0.1598
 4728TIP3    H235744   4.791  -0.031   7.160  0.1933 -0.5376  0.0959
 4729TIP3   OH235745   2.301   4.746   0.957 -0.6391  0.1473 -0.8631
 4729TIP3    H135746   2.269   4.663   0.992 -3.2937  1.3102 -0.3276
 4729TIP3    H235747   2.280   4.743   0.864  1.9160 -0.8832 -1.5026
 4730TIP3   OH235748   5.939   1.477   0.374 -0.4397  0.0711  0.8504
 4730TIP3    H135749   6.017   1.485   0.319 -0.5917 -0.6428  0.5159
 4730TIP3    H235750   5.867   1.466   0.311 -0.9139  1.3687  1.1212
 4731TIP3   OH235751   3.949   0.514   0.913 -0.5000  0.0870 -0.0408
 4731TIP3    H135752   3.953   0.420   0.892  0.3807  0.0510  0.2765
 4731TIP3    H235753   3.857   0.537   0.899 -0.6030 -0.6808 -0.7304
 4732TIP3   OH235754   3.671   1.064   1.859  0.1833  0.3631 -0.1413
 4732TIP3    H135755   3.728   0.987   1.858 -0.2929 -0.0013 -1.6498
 4732TIP3    H235756   3.673   1.093   1.950  0.4584 -1.3625  0.4490
 4733TIP3   OH235757   1.020   6.315   0.438  0.4652  0.2827 -0.4278
 4733TIP3    H135758   0.938   6.282   0.475  1.8200 -1.3425  1.3016
 4733TIP3    H235759   1.047   6.385   0.497  0.4164  0.7309 -0.9272
 4734TIP3   OH235760   5.980   4.664   0.024  0.5854  0.1320 -0.0409
 4734TIP3    H135761   6.034   4.587   0.008  0.0546 -0.3177  0.3061
 4734TIP3    H235762   5.950   4.691  -0.062  1.1149  0.2158 -0.2072
 4735TIP3   OH235763   0.096   2.588   2.078  0.4368  0.5373 -0.8742
 4735TIP3    H135764   0.180   2.608   2.118 -0.2256  1.2996  0.1909
 4735TIP3    H235765   0.087   2.493   2.086  0.3714  0.6576  0.7116
 4736TIP3   OH235766   1.218   3.374   1.017  0.2439  0.0240 -0.0887
 4736TIP3    H135767   1.308   3.367   1.050  1.1066  1.1981 -1.9773
 4736TIP3    H235768   1.173   3.299   1.054  1.4783  0.3856  2.4079
 4737TIP3   OH235769   3.804   2.223   7.960 -0.1864  0.1286  0.3418
 4737TIP3    H135770   3.754   2.144   7.944 -1.4643  1.0954 -0.6690
 4737TIP3    H235771   3.852   2.238   7.878 -0.3473  0.6614  0.3407
 4738TIP3   OH235772   0.243   3.137   1.329 -0.1198  0.2102 -0.1832
 4738TIP3    H135773   0.319   3.179   1.370  0.0197 -0.2618  0.0563
 4738TIP3    H235774   0.237   3.052   1.373  0.4255 -0.5952 -1.5705
 4739TIP3   OH235775   2.958   1.696   2.651  0.1530 -0.2709  0.1864
 4739TIP3    H135776   2.897   1.769   2.660 -0.0724 -0.3659 -0.4790
 4739TIP3    H235777   3.010   1.719   2.574  0.2675 -0.6749  0.1430
 4740TIP3   OH235778   6.066   4.846   1.514  0.0985  0.2338  0.2654
 4740TIP3    H135779   6.100   4.885   1.595 -0.2387  0.8973  0.0964
 4740TIP3    H235780   6.017   4.917   1.472  1.6604  0.4420 -1.3617
 4741TIP3   OH235781   3.607   1.129   8.322 -0.1600  0.1293 -0.0449
 4741TIP3    H135782   3.644   1.215   8.299 -1.6250  0.3277 -1.8910
 4741TIP3    H235783   3.543   1.149   8.390 -1.1464  0.6698 -1.1022
 4742TIP3   OH235784   1.926   1.559   1.844 -0.0740 -0.5302  0.5696
 4742TIP3    H135785   1.961   1.621   1.780  0.0266  0.9422  2.0052
 4742TIP3    H235786   2.003   1.528   1.891 -0.4564  1.7912  2.9182
 4743TIP3   OH235787   5.359   3.324   1.552 -0.1843  0.1324  0.2627
 4743TIP3    H135788   5.350   3.236   1.515  0.7760  0.0121  0.2765
 4743TIP3    H235789   5.436   3.317   1.609  2.0193  1.7869 -2.2791
 4744TIP3   OH235790   1.554   5.148   7.311 -0.3225  0.0909 -0.0440
 4744TIP3    H135791   1.637   5.139   7.263  0.3391 -1.3789  1.3006
 4744TIP3    H235792   1.536   5.242   7.310  1.5281  0.4803 -0.1008
 4745TIP3   OH235793   0.792   3.154   0.526 -0.0864 -0.0562  0.6942
 4745TIP3    H135794   0.766   3.184   0.439  1.9837  1.0433  0.3999
 4745TIP3    H235795   0.816   3.062   0.514 -0.2141 -0.0255  0.1953
 4746TIP3   OH235796   5.875   4.894   0.598  0.1401 -0.6636 -0.0390
 4746TIP3    H135797   5.870   4.809   0.641  0.9479 -1.9493 -2.3555
 4746TIP3    H235798   5.968   4.915   0.595 -0.0161  0.1078  0.1019
 4747TIP3   OH235799   6.667   3.198   7.383  0.1833 -0.1770  0.0887
 4747TIP3    H135800   6.707   3.127   7.333  0.0309 -0.1313 -0.0992
 4747TIP3    H235801   6.688   3.179   7.474 -1.1735 -1.3065  0.1961
 4748TIP3   OH235802   3.261   0.267   8.506  0.2390  0.3365 -0.6730
 4748TIP3    H135803   3.338   0.217   8.479 -0.2607 -0.3620 -0.8525
 4748TIP3    H235804   3.285   0.359   8.492  1.0218  0.1223 -0.7499
 4749TIP3   OH235805   2.703   4.079   0.915 -0.3378 -0.0977 -0.2872
 4749TIP3    H135806   2.613   4.047   0.904  0.0570 -1.6753  0.6639
 4749TIP3    H235807   2.758   4.009   0.878  0.5633 -0.5256  1.6999
 4750TIP3   OH235808   6.015   6.538   0.284  0.2229  0.2803 -0.3607
 4750TIP3    H135809   5.941   6.505   0.334 -0.9658  0.0581 -2.1551
 4750TIP3    H235810   5.981   6.616   0.240  0.9715  0.0708 -1.3606
 4751TIP3   OH235811   3.913   5.638   6.656 -0.5061 -0.1943  0.2281
 4751TIP3    H135812   3.833   5.682   6.626  0.0599  1.3469  0.8738
 4751TIP3    H235813   3.945   5.593   6.579 -1.4700 -0.0105 -0.3016
 4752TIP3   OH235814   1.626   1.603   7.187  0.2208 -0.4550  0.3546
 4752TIP3    H135815   1.552   1.563   7.141  0.3025 -0.9840  0.6808
 4752TIP3    H235816   1.688   1.532   7.200  0.4350 -0.1918  0.7981
 4753TIP3   OH235817   5.709   5.518   0.721  0.4835 -0.1595  0.3468
 4753TIP3    H135818   5.783   5.458   0.715 -1.0739 -2.0851 -1.0049
 4753TIP3    H235819   5.638   5.464   0.757 -0.0564  1.8800  2.5838
 4754TIP3   OH235820   3.031   1.724   1.355 -0.0170  0.2304  0.1020
 4754TIP3    H135821   3.027   1.711   1.260  1.1725  1.2310 -0.1093
 4754TIP3    H235822   2.989   1.809   1.369 -1.7893 -0.6994  0.7029
 4755TIP3   OH235823   4.313   1.606   1.352  0.3649  0.3390 -0.2138
 4755TIP3    H135824   4.344   1.581   1.439  0.1476 -1.2064 -0.5500
 4755TIP3    H235825   4.219   1.588   1.354  0.1378  1.4421 -0.3983
 4756TIP3   OH235826   5.076   2.993   0.635 -0.2259 -0.2963  0.2049
 4756TIP3    H135827   5.061   2.976   0.728  0.6910 -0.2125  0.3838
 4756TIP3    H235828   5.146   2.932   0.612  0.6233  0.7394 -0.0412
 4757TIP3   OH235829   3.031   2.759   1.375  0.3355 -0.1602 -0.4606
 4757TIP3    H135830   2.951   2.751   1.324  0.1118  1.0909 -0.3368
 4757TIP3    H235831   3.058   2.851   1.364  1.4461 -0.4135 -0.0537
 4758TIP3   OH235832   0.401   3.329   2.068  0.4447 -0.0955 -0.4632
 4758TIP3    H135833   0.426   3.257   2.009  1.2924  0.2516 -0.5411
 4758TIP3    H235834   0.409   3.291   2.155  0.0103 -0.3619 -0.5361
 4759TIP3   OH235835   0.187   4.933   8.431  0.1128 -0.4739  0.2959
 4759TIP3    H135836   0.179   4.905   8.522  0.5556  0.4703  0.6393
 4759TIP3    H235837   0.128   5.008   8.424 -0.4499 -0.9571 -0.3942
 4760TIP3   OH235838   6.734   4.679   6.556  0.2012  0.0629 -0.5132
 4760TIP3    H135839   6.694   4.765   6.541  0.5130  0.8335  2.3631
 4760TIP3    H235840   6.798   4.670   6.485 -0.8816  1.4958 -1.7530
 4761TIP3   OH235841   0.994   6.681   6.766 -0.5811  0.4969  0.3320
 4761TIP3    H135842   0.967   6.717   6.682  0.9383  1.3769  0.1594
 4761TIP3    H235843   0.974   6.751   6.829 -0.9007  0.2024  0.5560
 4762TIP3   OH235844   5.805   5.772   0.748  0.0145 -0.1532 -0.3532
 4762TIP3    H135845   5.760   5.688   0.749 -0.9789  0.3671  0.1467
 4762TIP3    H235846   5.887   5.757   0.795 -0.2093 -0.8095 -0.1731
 4763TIP3   OH235847   6.475   4.125   8.622 -0.5890  0.4042  0.4033
 4763TIP3    H135848   6.445   4.066   8.691 -0.4894  0.1735  0.2511
 4763TIP3    H235849   6.526   4.192   8.668 -0.4015  0.1708  0.5417
 4764TIP3   OH235850   1.021   1.290   8.426 -0.3029  0.0242  0.4095
 4764TIP3    H135851   1.011   1.232   8.351 -2.1070 -0.0243  0.6461
 4764TIP3    H235852   0.941   1.279   8.476  0.2339  1.1530  1.5779
 4765TIP3   OH235853   3.597   3.248   7.463 -0.2690 -0.3444 -0.3731
 4765TIP3    H135854   3.692   3.238   7.458 -0.2158 -0.2543  0.2775
 4765TIP3    H235855   3.569   3.176   7.520 -0.5880 -0.3520 -0.5386
 4766TIP3   OH235856   1.788   6.180   8.491  0.0362  0.0410 -0.1226
 4766TIP3    H135857   1.708   6.155   8.537 -0.3135  1.0790 -0.1480
 4766TIP3    H235858   1.858   6.132   8.536 -0.3567  0.6393  1.1870
 4767TIP3   OH235859   1.160   4.691   7.958 -0.1054 -0.0987 -0.1043
 4767TIP3    H135860   1.181   4.705   7.866 -2.1614  0.2426 -0.5682
 4767TIP3    H235861   1.221   4.748   8.005  2.8503 -2.2636 -0.9888
 4768TIP3   OH235862   1.930   3.353   0.455  0.1180  0.1705 -0.3043
 4768TIP3    H135863   2.004   3.293   0.451  0.3946  0.6013 -2.6183
 4768TIP3    H235864   1.906   3.354   0.548  2.5958 -0.4537  0.4257
 4769TIP3   OH235865   0.236   2.587   1.001  0.2359  0.6683  0.2653
 4769TIP3    H135866   0.259   2.661   1.058 -3.0934  1.8241  0.2988
 4769TIP3    H235867   0.216   2.626   0.916 -1.4852 -0.1361  0.2516
 4770TIP3   OH235868   1.570   3.649   1.457  0.7252  0.1216 -0.2644
 4770TIP3    H135869   1.586   3.702   1.535  0.9101  1.2163 -1.0249
 4770TIP3    H235870   1.488   3.682   1.421  1.0310  0.1518 -0.9542
 4771TIP3   OH235871   4.941   1.915   8.563 -0.1323  0.3099  0.6314
 4771TIP3    H135872   5.028   1.957   8.563 -0.7090  1.5591  0.1972
 4771TIP3    H235873   4.882   1.983   8.593 -1.4282  0.5772 -2.1815
 4772TIP3   OH235874   5.226   2.571   0.678 -0.7700  0.6196 -0.3850
 4772TIP3    H135875   5.246   2.535   0.765  1.2771  1.0046 -0.6462
 4772TIP3    H235876   5.131   2.558   0.668 -0.8130 -0.7335  1.2943
 4773TIP3   OH235877   6.808   2.094   0.601  0.1829 -0.0530  0.0955
 4773TIP3    H135878   6.779   2.038   0.529 -0.4700  0.0454  0.2741
 4773TIP3    H235879   6.898   2.065   0.619  0.4105  0.0404 -0.8623
 4774TIP3   OH235880   3.347   1.794   8.169 -0.1542  0.6664 -0.1657
 4774TIP3    H135881   3.275   1.856   8.155  0.5296  1.5569  0.1492
 4774TIP3    H235882   3.421   1.849   8.193  0.0058 -0.4017  1.9943
 4775TIP3   OH235883   6.046   1.770   1.571  0.5119  0.0005 -0.2513
 4775TIP3    H135884   6.086   1.832   1.510 -0.8177 -0.6998 -1.9070
 4775TIP3    H235885   6.110   1.699   1.579  1.8263  1.2627  1.2703
 4776TIP3   OH235886   4.721   5.990   7.353 -0.0115  0.3258  0.4848
 4776TIP3    H135887   4.706   5.934   7.430  0.1713 -0.8047 -0.2767
 4776TIP3    H235888   4.720   5.929   7.279  0.8864  1.2477 -0.3099
 4777TIP3   OH235889   0.737   5.419   0.372 -0.3961 -0.4806  0.0051
 4777TIP3    H135890   0.723   5.359   0.446  2.6776 -1.5601 -0.1394
 4777TIP3    H235891   0.779   5.364   0.306 -0.8310  1.0553 -1.5891
 4778TIP3   OH235892   1.588   3.935   8.367  0.1725  0.3661  0.0987
 4778TIP3    H135893   1.627   3.974   8.289 -1.0003  1.1204 -0.1376
 4778TIP3    H235894   1.654   3.945   8.435  0.3067  1.8756 -0.2129
 4779TIP3   OH235895   1.981   0.061   1.721 -0.3830 -0.4682  0.4605
 4779TIP3    H135896   1.994  -0.021   1.770  0.5506 -1.1620 -0.8765
 4779TIP3    H235897   2.069   0.098   1.713 -0.8990  1.2040  1.8542
 4780TIP3   OH235898   3.171   4.359   8.012 -0.0835  0.6662  0.0559
 4780TIP3    H135899   3.077   4.375   8.008  0.0181  2.5366  2.5211
 4780TIP3    H235900   3.180   4.264   8.000 -2.2700  0.4332 -0.1403
 4781TIP3   OH235901   0.475   6.364   2.266  0.3364  0.5380 -0.0889
 4781TIP3    H135902   0.464   6.342   2.358  0.6953  0.3027 -0.1008
 4781TIP3    H235903   0.394   6.410   2.242 -0.4334 -0.7498 -0.0537
 4782TIP3   OH235904   1.728   3.224   0.236 -0.0571 -0.2484 -0.0829
 4782TIP3    H135905   1.706   3.139   0.197 -1.1164 -0.0312  0.0097
 4782TIP3    H235906   1.682   3.224   0.320 -0.8766  0.8052 -0.5068
 4783TIP3   OH235907   1.985   0.915   6.931  0.5562 -0.0799  0.1647
 4783TIP3    H135908   1.921   0.878   6.870  0.4055  1.5337 -0.7218
 4783TIP3    H235909   1.933   0.950   7.003  0.4847  0.6620 -0.2437
 4784TIP3   OH235910   5.884   3.926   0.133 -0.8515  0.0409 -0.0431
 4784TIP3    H135911   5.838   3.843   0.116 -1.5371  0.3010  0.4779
 4784TIP3    H235912   5.835   3.991   0.083  0.2207  0.0075 -1.1713
 4785TIP3   OH235913   6.031   1.617   0.097 -0.0612 -0.0328 -0.4226
 4785TIP3    H135914   5.996   1.657   0.017  1.7006 -0.4409 -1.4516
 4785TIP3    H235915   6.106   1.672   0.120 -1.1307  0.6772  1.5766
 4786TIP3   OH235916   0.266   0.626   8.589  0.2547  0.5850  0.5645
 4786TIP3    H135917   0.242   0.709   8.632  0.8370  0.4116  1.2267
 4786TIP3    H235918   0.270   0.649   8.496  2.7239  1.8907  0.9186
 4787TIP3   OH235919   4.140   2.442   7.842  0.0338  0.6283  0.2416
 4787TIP3    H135920   4.105   2.527   7.815 -1.9678  0.1589  1.1451
 4787TIP3    H235921   4.117   2.383   7.770  1.7817  0.8855 -0.5721
 4788TIP3   OH235922   5.705   5.112   0.669  0.2768 -0.1292 -0.0396
 4788TIP3    H135923   5.735   5.038   0.617  0.3259 -0.8908  1.0235
 4788TIP3    H235924   5.743   5.097   0.756 -1.4583 -0.0154  0.7888
 4789TIP3   OH235925   4.951   5.208   7.758 -0.1565 -0.0116  0.2653
 4789TIP3    H135926   5.027   5.214   7.701  0.0815 -2.3132  0.2700
 4789TIP3    H235927   4.982   5.241   7.842  0.9411 -1.1396  0.3331
 4790TIP3   OH235928   1.329   6.679   7.922  0.6081  0.1558  0.7231
 4790TIP3    H135929   1.235   6.663   7.907  0.8075 -1.7418  1.2075
 4790TIP3    H235930   1.332   6.719   8.009  0.2793 -0.7403  1.1666
 4791TIP3   OH235931   0.556   5.739   8.609 -0.4786 -0.8315 -0.7409
 4791TIP3    H135932   0.538   5.822   8.566  1.1720  0.2985  0.6488
 4791TIP3    H235933   0.471   5.710   8.641 -1.1542  0.0579 -1.6517
 4792TIP3   OH235934   3.694   4.576   1.547 -0.1581 -0.1964 -0.3774
 4792TIP3    H135935   3.747   4.655   1.534  0.6454 -0.6007  0.3959
 4792TIP3    H235936   3.757   4.506   1.560 -0.8812 -0.7831  0.0235
 4793TIP3   OH235937   0.590   1.407   1.874 -0.2765 -0.3586  0.0798
 4793TIP3    H135938   0.611   1.399   1.967  0.4295  1.4262  0.1145
 4793TIP3    H235939   0.640   1.337   1.832 -0.5581 -1.1495  1.0339
 4794TIP3   OH235940   1.626   3.989   7.516 -0.2906 -0.7737 -0.3419
 4794TIP3    H135941   1.625   4.057   7.584 -0.1771 -0.6090 -0.5046
 4794TIP3    H235942   1.709   3.942   7.531  0.5164  0.2792 -1.3638
 4795TIP3   OH235943   5.226   1.961   1.931  0.1216  0.3409  0.4824
 4795TIP3    H135944   5.191   1.919   2.009  0.5997  0.0253  0.5300
 4795TIP3    H235945   5.320   1.968   1.947  0.6367 -2.0206 -1.0841
 4796TIP3   OH235946   1.504   4.052   6.141  0.9943  0.0136  0.0593
 4796TIP3    H135947   1.414   4.084   6.150  0.9770 -0.0060 -0.0383
 4796TIP3    H235948   1.559   4.127   6.162  0.9574 -0.1145  0.6212
 4797TIP3   OH235949   2.261   0.499   0.902 -0.0184 -0.1943  0.3312
 4797TIP3    H135950   2.184   0.549   0.930 -0.3447  0.0368 -0.9280
 4797TIP3    H235951   2.330   0.528   0.961 -0.4673  0.9309  0.3391
 4798TIP3   OH235952   3.805   0.382   1.178  0.1069 -0.1871 -0.5969
 4798TIP3    H135953   3.728   0.383   1.235  1.3041  2.0838  1.1922
 4798TIP3    H235954   3.775   0.416   1.095 -1.1992 -1.2904 -0.6089
 4799TIP3   OH235955   3.965   6.045   8.043 -0.3229 -0.1796  0.1513
 4799TIP3    H135956   3.907   6.111   8.081  0.2823  0.4092  0.0642
 4799TIP3    H235957   3.962   5.973   8.106  0.0746  0.4827  0.9402
 4800TIP3   OH235958   2.373   0.451   6.460 -0.0811 -0.1660 -0.0001
 4800TIP3    H135959   2.309   0.521   6.476 -0.1645  0.0022 -1.0015
 4800TIP3    H235960   2.457   0.497   6.453  0.3065 -0.4696  2.1463
 4801TIP3   OH235961   4.447   1.906   8.002  0.8746  0.0864 -0.1271
 4801TIP3    H135962   4.455   1.917   8.096  0.0268 -0.8376  0.0673
 4801TIP3    H235963   4.515   1.844   7.979 -0.4230 -1.5400  0.2705
 4802TIP3   OH235964   3.734   3.299   0.258  0.0216  0.1932 -0.3809
 4802TIP3    H135965   3.670   3.231   0.274 -0.1636  0.5310  0.3538
 4802TIP3    H235966   3.683   3.374   0.226  0.0770  0.3765 -0.0457
 4803TIP3   OH235967   4.880   4.098   6.153 -0.1912 -0.3583  0.6450
 4803TIP3    H135968   4.814   4.038   6.120 -0.6915  0.6046 -0.1579
 4803TIP3    H235969   4.830   4.162   6.204 -0.1559  1.3767 -1.3727
 4804TIP3   OH235970   4.404   2.852   1.830  0.3158  0.1590 -0.0563
 4804TIP3    H135971   4.402   2.912   1.905  0.6857  0.1101 -0.0059
 4804TIP3    H235972   4.337   2.787   1.850 -1.0052  1.2553 -0.7032
 4805TIP3   OH235973   6.105   5.249   6.798  0.2325 -0.2297 -0.2694
 4805TIP3    H135974   6.179   5.197   6.769  0.9658  1.4160 -1.4988
 4805TIP3    H235975   6.133   5.287   6.882  0.6159  0.0475 -0.5236
 4806TIP3   OH235976   2.640   3.662   1.635  0.3027 -0.7482 -0.1392
 4806TIP3    H135977   2.574   3.718   1.676 -0.4022 -1.1242 -0.7420
 4806TIP3    H235978   2.717   3.718   1.626 -0.6300  0.3755 -1.4549
 4807TIP3   OH235979   5.927   4.722   0.807 -0.9887 -0.1288  0.4789
 4807TIP3    H135980   5.927   4.661   0.881 -1.2065 -0.6184  0.0783
 4807TIP3    H235981   6.019   4.729   0.782 -0.8528  0.4079  1.0881
 4808TIP3   OH235982   3.900   6.634   7.312  0.2995  0.0630 -0.3002
 4808TIP3    H135983   3.913   6.727   7.294  4.3325 -0.1786  0.2686
 4808TIP3    H235984   3.966   6.614   7.379 -0.7128 -3.1228 -0.0911
 4809TIP3   OH235985   0.890   0.111   6.840 -0.6206 -0.2449  0.0200
 4809TIP3    H135986   0.837   0.148   6.911 -1.5391 -2.5468  0.6129
 4809TIP3    H235987   0.845   0.137   6.760 -1.6095 -0.6002  0.4485
 4810TIP3   OH235988   5.540   5.609   1.593 -0.0544  0.0612  0.6175
 4810TIP3    H135989   5.484   5.591   1.518  1.6006  1.8958 -1.2200
 4810TIP3    H235990   5.536   5.704   1.604  2.8932  0.3574  0.1036
 4811TIP3   OH235991   5.302   5.023   6.779 -0.7468  0.0479  0.3877
 4811TIP3    H135992   5.211   5.048   6.762  0.3906  4.1723 -0.7364
 4811TIP3    H235993   5.351   5.059   6.706  1.8649 -2.1446  0.9027
 4812TIP3   OH235994   1.026   3.308   0.511  0.2081 -0.0759 -0.5734
 4812TIP3    H135995   0.973   3.379   0.547  1.8293  1.2398 -0.6768
 4812TIP3    H235996   0.970   3.231   0.518 -1.1674  0.9725  0.6364
 4813TIP3   OH235997   3.116   0.029   7.468 -0.2042  0.2667 -0.0645
 4813TIP3    H135998   3.145  -0.046   7.416 -0.8126  0.8333 -1.2665
 4813TIP3    H235999   3.024   0.010   7.488 -0.0648  0.2076  0.5310
 4814TIP3   OH236000   6.034   2.739   1.228  0.3339 -0.1735 -0.0953
 4814TIP3    H136001   6.086   2.794   1.286  0.7528  0.4751 -1.0491
 4814TIP3    H236002   6.049   2.776   1.141  0.7576 -1.8807 -0.7996
 4815TIP3   OH236003   0.057   0.572   2.422  0.3984 -0.0102 -0.1253
 4815TIP3    H136004   0.099   0.509   2.362  0.7245 -0.4564  0.5626
 4815TIP3    H236005   0.048   0.524   2.504  0.6192  0.8402  0.4024
 4816TIP3   OH236006   1.871   0.376   0.840  0.0944 -0.2888  0.1454
 4816TIP3    H136007   1.935   0.358   0.908 -1.1052 -1.1190  1.0863
 4816TIP3    H236008   1.844   0.290   0.809 -0.5219  0.0539 -0.2826
 4817TIP3   OH236009   6.534   0.567   7.126 -0.2489  0.2969 -1.1001
 4817TIP3    H136010   6.630   0.573   7.130 -0.0547 -2.0815 -0.0304
 4817TIP3    H236011   6.517   0.523   7.043 -0.0250 -2.8602  0.3754
 4818TIP3   OH236012   3.845   5.719   1.396 -0.4257 -0.6008 -0.4684
 4818TIP3    H136013   3.769   5.770   1.369 -0.6480 -0.8004 -0.2295
 4818TIP3    H236014   3.817   5.628   1.388 -1.4231 -0.7068  2.8264
 4819TIP3   OH236015   0.112   1.923   1.608 -0.1182 -0.4008  0.0008
 4819TIP3    H136016   0.053   1.850   1.625  1.6392 -1.3611  2.8316
 4819TIP3    H236017   0.061   2.001   1.629 -1.5368 -0.8682 -1.5307
 4820TIP3   OH236018   2.221   6.369   7.473 -0.4679  0.1373  0.4018
 4820TIP3    H136019   2.294   6.311   7.494 -0.2582 -0.1408 -0.9933
 4820TIP3    H236020   2.254   6.457   7.488  0.7469  0.1193 -1.7649
 4821TIP3   OH236021   3.695   1.994   7.905  0.4544 -0.1444 -0.0309
 4821TIP3    H136022   3.634   2.011   7.977  0.8155  1.4760 -0.0736
 4821TIP3    H236023   3.640   1.984   7.828  0.1532 -0.2251  0.1951
 4822TIP3   OH236024   6.549   3.102   0.552 -0.0850 -0.3868  0.2895
 4822TIP3    H136025   6.582   3.184   0.589  1.2904 -0.1894 -1.2782
 4822TIP3    H236026   6.627   3.050   0.536 -0.4498 -0.0714 -3.1905
 4823TIP3   OH236027   2.470   4.662   8.511 -0.4753 -0.4848 -0.3876
 4823TIP3    H136028   2.508   4.641   8.596 -1.7993 -0.8817  0.1305
 4823TIP3    H236029   2.518   4.740   8.482  0.1275 -0.4619  0.6233
 4824TIP3   OH236030   4.423   0.814   1.572  0.3423  0.1212  0.3894
 4824TIP3    H136031   4.495   0.810   1.636  0.7151  0.9197  0.0387
 4824TIP3    H236032   4.377   0.895   1.593  0.0759  0.0589  0.0492
 4825TIP3   OH236033   4.138   1.796   8.690 -0.5441  0.4363  0.1724
 4825TIP3    H136034   4.144   1.741   8.611 -0.2535  0.9957 -0.2003
 4825TIP3    H236035   4.161   1.884   8.660  0.8866  0.4340  1.1179
 4826TIP3   OH236036   0.178   4.410   7.847 -0.6833 -0.1144 -0.3092
 4826TIP3    H136037   0.170   4.466   7.924  1.7281 -1.0959  0.7398
 4826TIP3    H236038   0.180   4.472   7.773 -1.1215  0.9624  0.5538
 4827TIP3   OH236039   5.537   2.540   7.383  0.0207 -0.1349  0.3696
 4827TIP3    H136040   5.514   2.631   7.364  2.8713  0.5790 -0.2114
 4827TIP3    H236041   5.478   2.488   7.328 -0.4634  1.4410 -0.6643
 4828TIP3   OH236042   4.899   1.313   7.713  0.1395  0.3889 -0.2002
 4828TIP3    H136043   4.854   1.288   7.633  0.7537 -0.0396 -0.4232
 4828TIP3    H236044   4.933   1.401   7.696 -0.6211  0.7249 -0.0200
 4829TIP3   OH236045   6.696   5.904   7.842  0.0596 -0.5876  0.1959
 4829TIP3    H136046   6.710   5.936   7.753  0.0439  0.9030  0.7068
 4829TIP3    H236047   6.775   5.855   7.863  0.1579 -0.7600 -0.5535
 4830TIP3   OH236048   6.165   3.118   6.357 -0.0211 -0.7454  0.3807
 4830TIP3    H136049   6.147   3.031   6.321 -1.8870 -0.5698  0.8256
 4830TIP3    H236050   6.086   3.142   6.404  0.9401  0.6726  1.3634
 4831TIP3   OH236051   1.227   4.210   0.411 -0.5167  0.0899  0.0176
 4831TIP3    H136052   1.153   4.149   0.413 -1.0137  0.6846  0.1978
 4831TIP3    H236053   1.303   4.157   0.435 -0.9585 -0.4232  0.3023
 4832TIP3   OH236054   0.843   1.838   1.708  0.3038 -0.3570 -0.1432
 4832TIP3    H136055   0.930   1.864   1.740 -0.7819  0.2662  2.6501
 4832TIP3    H236056   0.815   1.911   1.654  2.0720 -1.2513 -2.4140
 4833TIP3   OH236057   5.060   0.666   8.311  0.1814  0.0064 -0.0091
 4833TIP3    H136058   5.123   0.656   8.239  0.6092  1.8243  0.0634
 4833TIP3    H236059   5.067   0.584   8.360  3.1435  0.4236  0.4786
 4834TIP3   OH236060   2.726   6.731   7.988  0.6482 -0.2025 -0.6352
 4834TIP3    H136061   2.659   6.716   8.055  0.1479 -0.1092 -1.1092
 4834TIP3    H236062   2.724   6.826   7.973  0.6794 -0.2390 -0.8713
 4835TIP3   OH236063   3.852   6.714   1.486  1.1937  0.3388  0.2857
 4835TIP3    H136064   3.835   6.648   1.419  2.1415  0.2986  0.0776
 4835TIP3    H236065   3.885   6.665   1.561 -2.6807 -0.0276  1.9881
 4836TIP3   OH236066   2.015   3.790   2.274 -0.1296  0.2577  0.6793
 4836TIP3    H136067   2.067   3.869   2.291 -0.1800 -0.1069  2.7587
 4836TIP3    H236068   1.925   3.819   2.282 -0.1524  0.0453  1.2185
 4837TIP3   OH236069   4.392   1.842   7.573 -0.6724  0.3998 -0.4218
 4837TIP3    H136070   4.350   1.774   7.520 -0.7665  0.5749 -0.5725
 4837TIP3    H236071   4.331   1.915   7.572 -1.2227 -0.0187  0.9265
 4838TIP3   OH236072   0.531   4.234   8.483 -0.1204 -0.4547  0.0704
 4838TIP3    H136073   0.620   4.263   8.507 -0.6989  2.6472 -1.1308
 4838TIP3    H236074   0.543   4.186   8.401  0.5779 -1.3961  0.6981
 4839TIP3   OH236075   0.479   1.162   7.658 -0.3546 -0.9718  0.3737
 4839TIP3    H136076   0.450   1.212   7.734 -0.7091 -1.3665  0.5058
 4839TIP3    H236077   0.399   1.120   7.626 -0.8439  1.4874 -1.9857
 4840TIP3   OH236078   2.325   5.427   8.711  0.3712  0.1386  0.6368
 4840TIP3    H136079   2.277   5.355   8.751 -0.6721  0.5755  0.2074
 4840TIP3    H236080   2.416   5.410   8.733  0.0173 -0.6614  1.5554
 4841TIP3   OH236081   5.375   6.398   7.007 -0.1904 -0.0892  0.3128
 4841TIP3    H136082   5.460   6.442   7.016 -1.3351  2.2391  0.3968
 4841TIP3    H236083   5.391   6.329   6.943  1.6891  0.5166  0.0658
 4842TIP3   OH236084   6.685   4.578   7.305  0.2387  0.0286  0.2889
 4842TIP3    H136085   6.685   4.588   7.400 -0.4772 -3.1891  0.7487
 4842TIP3    H236086   6.595   4.553   7.283  0.5698 -0.0386 -1.1249
 4843TIP3   OH236087   6.609   0.030   7.766  0.8053 -0.1030 -0.0775
 4843TIP3    H136088   6.595   0.064   7.854  1.1935  1.8939 -0.7319
 4843TIP3    H236089   6.545   0.075   7.712  2.2591  0.7048 -1.2190
 4844TIP3   OH236090   2.987   6.199   6.659  0.4685 -0.1777 -0.1895
 4844TIP3    H136091   3.081   6.188   6.647  0.6835 -2.3857  2.3325
 4844TIP3    H236092   2.948   6.133   6.601  0.8324 -2.3851  1.8888
 4845TIP3   OH236093   3.137   0.041   2.278  0.3086 -0.2542  0.2909
 4845TIP3    H136094   3.083   0.118   2.260  0.9797  0.1631  0.0347
 4845TIP3    H236095   3.113  -0.022   2.209 -0.1468 -0.2303  0.4261
 4846TIP3   OH236096   5.522   6.038   2.540 -0.3818  0.7752  0.2628
 4846TIP3    H136097   5.592   5.977   2.519 -1.1601  0.3096 -1.1717
 4846TIP3    H236098   5.503   6.081   2.457 -2.0712  0.5686  0.5081
 4847TIP3   OH236099   5.575   2.578   1.467  0.5724 -0.3089 -0.4287
 4847TIP3    H136100   5.662   2.612   1.446  0.2409  1.0173  0.1953
 4847TIP3    H236101   5.575   2.488   1.435  2.3262 -0.4859 -0.0308
 4848TIP3   OH236102   3.299   3.176   7.668 -0.3829  0.2024 -0.8155
 4848TIP3    H136103   3.268   3.114   7.734 -0.4279  0.7011 -0.3612
 4848TIP3    H236104   3.387   3.147   7.647 -0.4423 -0.0770 -0.6890
 4849TIP3   OH236105   6.023   5.107   1.393 -0.2031  0.5215 -0.2495
 4849TIP3    H136106   6.012   5.198   1.366 -0.9036  0.1873 -1.1447
 4849TIP3    H236107   6.046   5.061   1.312 -3.7628 -0.7701 -0.7209
 4850TIP3   OH236108   1.711   2.068   6.633 -1.2940  0.3399  0.5435
 4850TIP3    H136109   1.751   2.019   6.560 -2.4251 -0.2724  0.3102
 4850TIP3    H236110   1.742   2.023   6.712 -3.1533 -1.4724  0.3072
 4851TIP3   OH236111   2.625   0.891   0.508 -0.3733 -0.1970 -0.2994
 4851TIP3    H136112   2.718   0.912   0.510 -0.2352 -0.5767 -1.7734
 4851TIP3    H236113   2.601   0.896   0.416 -2.4149  2.3484  0.2556
 4852TIP3   OH236114   3.936   4.481   1.634 -0.4303 -0.0632 -0.4401
 4852TIP3    H136115   3.951   4.404   1.688 -0.0118  0.8917  0.8445
 4852TIP3    H236116   4.003   4.543   1.660 -0.0145  0.3418 -2.3015
 4853TIP3   OH236117   2.301   6.011   0.914 -0.3813 -0.3107 -0.2146
 4853TIP3    H136118   2.394   6.029   0.930 -0.3611  0.1002 -0.7518
 4853TIP3    H236119   2.262   6.098   0.898 -1.1707 -0.3047  1.5394
 4854TIP3   OH236120   6.588   2.346   1.093  0.0145  0.4545  0.6395
 4854TIP3    H136121   6.539   2.379   1.168 -1.8827  1.2522 -0.8824
 4854TIP3    H236122   6.523   2.299   1.040  0.8547  1.5260 -1.4414
 4855TIP3   OH236123   3.260   6.524   8.708  0.3873 -0.3114 -0.0565
 4855TIP3    H136124   3.334   6.546   8.652  0.0706  1.3320  0.1158
 4855TIP3    H236125   3.187   6.573   8.670 -0.2731 -0.7381  0.6427
 4856TIP3   OH236126   0.202   6.070   0.724 -0.2142  0.3531 -0.2107
 4856TIP3    H136127   0.274   6.022   0.766 -0.5795 -1.0620 -1.1696
 4856TIP3    H236128   0.244   6.150   0.691  0.5625  0.3555  0.7249
 4857TIP3   OH236129   2.568   2.680   0.654 -0.3109 -0.2722  0.0745
 4857TIP3    H136130   2.571   2.675   0.750  3.3471 -0.4957  0.0855
 4857TIP3    H236131   2.586   2.772   0.634 -1.5998 -0.1138 -0.4409
 4858TIP3   OH236132   2.234   0.676   6.543 -0.3226  0.3453  0.0754
 4858TIP3    H136133   2.239   0.739   6.471  0.8919 -0.0172 -0.1812
 4858TIP3    H236134   2.303   0.703   6.603 -0.1416 -0.4264  0.2208
 4859TIP3   OH236135   4.795   5.322   7.554  0.0193  0.0663  0.1027
 4859TIP3    H136136   4.845   5.270   7.617 -0.7952 -0.1060  0.6165
 4859TIP3    H236137   4.861   5.375   7.509  0.5503  0.7237  1.6014
 4860TIP3   OH236138   5.145   6.069   7.086 -0.2763  0.7707  0.0671
 4860TIP3    H136139   5.206   6.000   7.059 -1.9155 -0.6403 -0.2017
 4860TIP3    H236140   5.167   6.144   7.031 -0.2743 -0.4584 -1.6698
 4861TIP3   OH236141   0.775   3.655   1.698  0.4945  0.6887  0.4697
 4861TIP3    H136142   0.713   3.727   1.687  0.9347  0.7271 -2.2852
 4861TIP3    H236143   0.745   3.588   1.636  2.2013 -0.0095  0.3572
 4862TIP3   OH236144   0.263   0.224   0.082  0.4645  0.5004  0.2258
 4862TIP3    H136145   0.255   0.261  -0.006  0.9572  0.6641  0.2506
 4862TIP3    H236146   0.357   0.226   0.102  0.4501 -0.3281  0.4165
 4863TIP3   OH236147   6.422   3.057   7.604 -0.1639  0.2977 -0.1727
 4863TIP3    H136148   6.426   3.145   7.640  2.0757  0.6207 -1.0288
 4863TIP3    H236149   6.446   3.000   7.677 -0.1821  0.5238  0.0107
 4864TIP3   OH236150   3.294   4.385   7.247  0.1408  0.3817 -0.1594
 4864TIP3    H136151   3.304   4.333   7.167  0.7300 -0.9801  0.7614
 4864TIP3    H236152   3.235   4.333   7.302 -0.4858  1.4373  0.1960
 4865TIP3   OH236153   6.272   5.348   6.181 -0.5852  0.1682 -0.2633
 4865TIP3    H136154   6.330   5.424   6.175  0.2520 -0.5534 -2.2962
 4865TIP3    H236155   6.193   5.375   6.135 -0.4007 -0.0627 -0.7283
 4866TIP3   OH236156   0.038   3.096   0.831 -0.0788 -0.4139  0.2184
 4866TIP3    H136157  -0.009   3.178   0.817  0.1463 -0.0344  1.5463
 4866TIP3    H236158   0.103   3.117   0.898  0.6771 -1.4250 -0.1710
 4867TIP3   OH236159   5.847   4.772   7.180 -0.1837  0.1715 -0.2293
 4867TIP3    H136160   5.929   4.738   7.216  0.3515  0.6238 -0.9918
 4867TIP3    H236161   5.862   4.775   7.086 -1.7909 -1.6242 -0.6175
 4868TIP3   OH236162   6.352   4.062   2.620 -0.6399 -0.1951 -0.1929
 4868TIP3    H136163   6.341   3.972   2.589 -0.3286 -0.6253  0.8959
 4868TIP3    H236164   6.279   4.076   2.680 -1.1438  0.5666 -0.9729
 4869TIP3   OH236165   1.966   2.506   0.922 -0.4499  0.4420 -0.6059
 4869TIP3    H136166   1.972   2.523   1.016 -0.2964 -0.0985 -0.5110
 4869TIP3    H236167   1.891   2.446   0.914 -0.5306  0.5753 -0.8408
 4870TIP3   OH236168   4.713   2.105   7.943 -0.1096  0.6258  0.3929
 4870TIP3    H136169   4.738   2.019   7.908  0.4015  0.3857  1.3017
 4870TIP3    H236170   4.670   2.149   7.870 -0.8853 -0.6077  0.0719
 4871TIP3   OH236171   3.114   6.047   7.405  0.0305  0.3016  0.0032
 4871TIP3    H136172   3.041   6.108   7.392 -0.4602 -0.2258  0.2243
 4871TIP3    H236173   3.164   6.084   7.477 -0.3365  0.3797  0.2198
 4872TIP3   OH236174   0.183   2.086   8.364 -0.1976  0.6585 -0.4688
 4872TIP3    H136175   0.139   2.011   8.403 -0.9810  0.6964 -1.2545
 4872TIP3    H236176   0.114   2.150   8.349  0.1546  0.8169 -1.4974
 4873TIP3   OH236177   4.406   4.617   8.149 -0.0411  0.1789  0.6421
 4873TIP3    H136178   4.483   4.646   8.197 -0.3862 -0.1260  1.3966
 4873TIP3    H236179   4.340   4.602   8.216  0.0301 -2.1148  0.2926
 4874TIP3   OH236180   3.454   1.242   1.112  0.1965 -0.5401 -0.3033
 4874TIP3    H136181   3.377   1.220   1.164  0.2503 -0.8848 -0.3623
 4874TIP3    H236182   3.527   1.237   1.174  0.0968  0.4827 -0.0848
 4875TIP3   OH236183   3.024   6.667   8.572 -0.1893  0.1034  0.0665
 4875TIP3    H136184   2.964   6.627   8.509  0.0802 -1.3667  0.6980
 4875TIP3    H236185   3.016   6.761   8.557 -2.5216 -0.0620  0.0575
 4876TIP3   OH236186   5.053   5.117   1.101  0.0829 -0.1800 -0.0707
 4876TIP3    H136187   4.994   5.192   1.109 -0.5942 -0.7055 -0.0426
 4876TIP3    H236188   5.024   5.072   1.022  1.1373  0.1418 -0.6530
 4877TIP3   OH236189   5.025   1.734   1.360  0.6954 -0.1008 -0.2194
 4877TIP3    H136190   4.994   1.765   1.445  0.6587  0.5949 -0.4816
 4877TIP3    H236191   5.013   1.639   1.363 -0.8930  0.0919 -0.1034
 4878TIP3   OH236192   1.588   5.110   2.291 -0.4295  0.1849  0.2400
 4878TIP3    H136193   1.566   5.033   2.343 -0.1837 -1.5535 -2.0766
 4878TIP3    H236194   1.682   5.124   2.307 -0.3387 -0.3781  0.2078
 4879TIP3   OH236195   1.140   4.409   0.253  0.4352 -0.3901  0.0730
 4879TIP3    H136196   1.078   4.434   0.322  0.9747  0.9067  0.1223
 4879TIP3    H236197   1.173   4.323   0.280 -2.2701 -1.7595 -0.6257
 4880TIP3   OH236198   0.951   4.442   0.909  0.4946  0.4013 -0.0495
 4880TIP3    H136199   1.018   4.397   0.859 -0.4240 -0.1158 -0.8406
 4880TIP3    H236200   0.979   4.534   0.909  0.7582  0.3346 -1.1017
 4881TIP3   OH236201   0.979   0.041   8.099  0.1647 -0.3128  0.6951
 4881TIP3    H136202   1.028  -0.040   8.112 -0.4284 -0.6933  0.5893
 4881TIP3    H236203   0.963   0.045   8.005 -0.6560 -0.5857  0.8092
 4882TIP3   OH236204   4.423   6.332   7.460  0.0610  0.1944 -0.2394
 4882TIP3    H136205   4.477   6.292   7.392  1.3381  0.7813  0.4046
 4882TIP3    H236206   4.402   6.418   7.425 -1.6420 -0.5137 -1.0782
 4883TIP3   OH236207   1.833   3.514   0.703  0.0766  0.6691  1.0278
 4883TIP3    H136208   1.895   3.567   0.654  0.0113 -0.6726 -0.6069
 4883TIP3    H236209   1.750   3.563   0.697  0.5107  1.4641  1.4647
 4884TIP3   OH236210   2.758   0.984   8.000 -0.0599  0.0077 -0.1527
 4884TIP3    H136211   2.669   0.951   8.011  0.2868 -1.0384 -0.3241
 4884TIP3    H236212   2.769   0.990   7.905 -0.0234  0.3428 -0.1265
 4885TIP3   OH236213   0.465   5.705   7.930  0.0680 -0.4314  0.4079
 4885TIP3    H136214   0.540   5.750   7.891 -0.1571 -0.5722 -0.2039
 4885TIP3    H236215   0.412   5.775   7.967 -0.4425 -0.1390 -0.8154
 4886TIP3   OH236216   0.086   3.680   6.426 -0.3104 -0.3391 -0.0576
 4886TIP3    H136217   0.132   3.642   6.501  0.7646 -0.9627 -0.9849
 4886TIP3    H236218   0.054   3.764   6.457  1.8383  0.3257  0.5670
 4887TIP3   OH236219   0.910   4.100   6.596 -0.8716  0.4316 -0.1324
 4887TIP3    H136220   0.843   4.080   6.530 -1.3157 -2.0977  0.9497
 4887TIP3    H236221   0.972   4.157   6.551 -1.2982 -0.9411 -2.6759
 4888TIP3   OH236222   4.333   5.223   1.217  0.4395 -0.9818  0.1961
 4888TIP3    H136223   4.398   5.266   1.272  1.1028  1.8546 -2.5940
 4888TIP3    H236224   4.261   5.204   1.277  1.3011  1.4788  2.1719
 4889TIP3   OH236225   2.791   4.150   6.888  0.5879  0.1229 -0.0591
 4889TIP3    H136226   2.810   4.244   6.895  1.4455  0.0668 -1.3954
 4889TIP3    H236227   2.871   4.107   6.917  0.6757 -0.1711 -0.7126
 4890TIP3   OH236228   1.664   0.149   6.476  0.6588  0.2685 -0.7812
 4890TIP3    H136229   1.603   0.090   6.520 -0.6682  0.9927 -1.5801
 4890TIP3    H236230   1.708   0.196   6.547 -0.2017  0.1997 -0.1919
 4891TIP3   OH236231   3.400   4.518   0.882 -0.0168 -0.3104  0.0450
 4891TIP3    H136232   3.450   4.438   0.895  0.9712  0.3182  0.2288
 4891TIP3    H236233   3.408   4.536   0.788 -3.9106 -2.7431 -1.0097
 4892TIP3   OH236234   0.118   4.873   1.292  0.2444 -0.4787  0.3259
 4892TIP3    H136235   0.190   4.907   1.345 -0.5791  0.6443  0.7571
 4892TIP3    H236236   0.132   4.910   1.205 -0.7623  1.2011  0.8429
 4893TIP3   OH236237   0.464   2.188   1.422  0.2798 -0.2018 -0.3938
 4893TIP3    H136238   0.441   2.099   1.393 -0.2626 -1.0041  2.2132
 4893TIP3    H236239   0.382   2.237   1.417 -0.0080 -0.5722  0.4992
 4894TIP3   OH236240   4.966   2.097   1.930 -0.0631  0.3967  0.0272
 4894TIP3    H136241   5.059   2.073   1.935 -0.5221 -1.1156  2.6690
 4894TIP3    H236242   4.968   2.191   1.911  1.9430  0.1384 -1.4400
 4895TIP3   OH236243   6.758   0.424   8.697  0.3358 -0.0260  0.0770
 4895TIP3    H136244   6.716   0.360   8.754  1.3220  1.3446  2.5033
 4895TIP3    H236245   6.689   0.450   8.636 -1.0094 -1.0493  1.1024
 4896TIP3   OH236246   2.954   6.378   8.068 -0.4565  0.1645 -0.1666
 4896TIP3    H136247   2.954   6.468   8.035  0.9961  0.0731 -0.4851
 4896TIP3    H236248   3.009   6.381   8.146  1.2880 -0.7843 -1.2902
 4897TIP3   OH236249   2.219   2.407   1.142  0.1219 -0.1349 -0.2631
 4897TIP3    H136250   2.230   2.502   1.142  0.5191 -0.1788 -0.7400
 4897TIP3    H236251   2.126   2.393   1.128 -0.0931  0.1939  0.7227
 4898TIP3   OH236252   2.607   0.389   6.842 -0.2102 -0.5242  0.0804
 4898TIP3    H136253   2.561   0.469   6.867  0.9995  0.0787  0.4625
 4898TIP3    H236254   2.673   0.419   6.779 -0.2773 -1.3534 -0.3964
 4899TIP3   OH236255   3.757   5.849   0.657 -0.2882  0.3618  0.3942
 4899TIP3    H136256   3.717   5.930   0.625  2.0304  1.8290  0.9541
 4899TIP3    H236257   3.849   5.871   0.666  0.4470 -2.4400  0.4209
 4900TIP3   OH236258   0.852   5.918   1.243 -0.0555  0.7479  0.4186
 4900TIP3    H136259   0.920   5.895   1.180 -0.9292 -2.9554  0.5802
 4900TIP3    H236260   0.894   5.909   1.328 -0.4744 -0.6793  0.4928
 4901TIP3   OH236261   5.645   6.015   1.209 -0.5931 -0.3832 -0.4677
 4901TIP3    H136262   5.597   6.096   1.224 -0.8819 -0.3095 -1.6753
 4901TIP3    H236263   5.589   5.964   1.151 -1.3132 -2.3129  1.7439
 4902TIP3   OH236264   3.246   4.577   8.427 -0.3583 -0.6077 -0.4561
 4902TIP3    H136265   3.334   4.574   8.465  0.2941 -1.2015 -1.9355
 4902TIP3    H236266   3.192   4.615   8.496  0.9201 -0.8495  0.7384
 4903TIP3   OH236267   0.345   5.926   8.038  0.9654  0.0704 -0.1027
 4903TIP3    H136268   0.420   5.984   8.032  0.3993  1.0620  1.6954
 4903TIP3    H236269   0.269   5.985   8.033  0.3188 -0.7792 -0.6236
 4904TIP3   OH236270   2.357   3.681   6.187  0.4779 -0.1540 -0.0250
 4904TIP3    H136271   2.398   3.741   6.125  0.0810 -0.4563 -0.5850
 4904TIP3    H236272   2.428   3.621   6.212  0.3508 -0.8155 -1.1585
 4905TIP3   OH236273   5.831   3.720   1.799 -0.3250  0.0017  0.1986
 4905TIP3    H136274   5.920   3.752   1.812 -0.3565  0.6153 -0.9363
 4905TIP3    H236275   5.841   3.630   1.767 -0.1404 -0.1908  0.8005
 4906TIP3   OH236276   4.512   2.369   1.452 -0.3248 -0.0771  0.0613
 4906TIP3    H136277   4.584   2.407   1.502 -0.9254  1.3660 -0.1082
 4906TIP3    H236278   4.539   2.280   1.434  1.6468  0.5736 -0.4242
 4907TIP3   OH236279   1.304   5.108   0.721 -0.2497 -0.0881 -0.1290
 4907TIP3    H136280   1.355   5.039   0.763 -1.1891  0.4171  1.9509
 4907TIP3    H236281   1.216   5.071   0.711 -0.1156 -0.1101 -1.5140
 4908TIP3   OH236282   0.610   5.982   0.718 -0.0681 -1.0158 -0.3252
 4908TIP3    H136283   0.613   6.004   0.625 -1.7446  0.0084 -0.1888
 4908TIP3    H236284   0.650   5.895   0.724 -1.5130 -1.8950 -2.2728
 4909TIP3   OH236285   1.898   1.811   0.435 -0.6006  0.1049 -0.0337
 4909TIP3    H136286   1.875   1.856   0.354 -1.0894  1.1899  0.6842
 4909TIP3    H236287   1.890   1.718   0.414 -0.5016  0.3645 -1.2854
 4910TIP3   OH236288   5.879   1.232   0.486 -0.3124  0.0071  0.0871
 4910TIP3    H136289   5.905   1.310   0.435 -0.6883 -0.9883 -1.7281
 4910TIP3    H236290   5.786   1.246   0.504 -0.5924 -0.3765 -0.9787
 4911TIP3   OH236291   0.691   6.068   8.681  0.3335  0.5773  0.0285
 4911TIP3    H136292   0.694   6.162   8.667 -1.0730  0.4825 -1.2179
 4911TIP3    H236293   0.662   6.032   8.597  0.1528 -0.9092  0.6839
 4912TIP3   OH236294   0.020   2.863   2.035 -0.3064  0.0341 -0.1737
 4912TIP3    H136295   0.022   2.768   2.026 -0.5489  0.1665 -2.1153
 4912TIP3    H236296  -0.070   2.883   2.062 -0.5523 -0.2295 -0.7862
 4913TIP3   OH236297   2.545   2.983   0.471 -0.3212 -0.2382  0.1978
 4913TIP3    H136298   2.622   3.040   0.465 -1.6053  1.6795  0.8051
 4913TIP3    H236299   2.540   2.940   0.386 -0.0942  1.7100 -0.8711
 4914TIP3   OH236300   5.308   0.329   7.967 -0.0673  0.6911 -0.3029
 4914TIP3    H136301   5.326   0.258   8.029 -0.2684 -1.0415 -2.1288
 4914TIP3    H236302   5.395   0.357   7.938  0.2218  3.3988  2.5941
 4915TIP3   OH236303   1.700   0.765   1.974 -0.0880 -0.2477  0.4781
 4915TIP3    H136304   1.685   0.802   1.887 -0.4423  1.4353  1.1998
 4915TIP3    H236305   1.678   0.673   1.965  0.0443 -0.1513 -1.2474
 4916TIP3   OH236306   2.584   5.305   0.996  0.2827 -0.1181  0.0541
 4916TIP3    H136307   2.664   5.255   0.980  1.4531  1.8727 -0.6807
 4916TIP3    H236308   2.517   5.261   0.943  1.6598  0.0919 -1.9743
 4917TIP3   OH236309   3.164   0.871   0.604  0.1858 -0.4404  0.0159
 4917TIP3    H136310   3.168   0.959   0.642  0.7446  0.4917 -2.0814
 4917TIP3    H236311   3.163   0.813   0.680  2.1376  1.2771  1.4886
 4918TIP3   OH236312   2.775   5.268   7.190  0.4219 -0.1286  0.1271
 4918TIP3    H136313   2.772   5.364   7.191 -0.7412 -0.1430  1.7563
 4918TIP3    H236314   2.868   5.247   7.195  0.7769  0.8764 -1.4509
 4919TIP3   OH236315   0.312   2.554   2.405 -0.3469  0.0982 -0.9608
 4919TIP3    H136316   0.306   2.468   2.363 -0.5215 -0.1502 -0.4309
 4919TIP3    H236317   0.227   2.595   2.389 -0.9396 -0.5547  0.3326
 4920TIP3   OH236318   2.174   5.924   0.373  0.5393 -0.0811 -0.4225
 4920TIP3    H136319   2.205   5.996   0.427  1.4299  0.6167 -1.7919
 4920TIP3    H236320   2.085   5.949   0.348  0.5517  0.1517 -0.2392
 4921TIP3   OH236321   4.131   1.424   1.639  0.1350 -0.2742  0.6841
 4921TIP3    H136322   4.092   1.372   1.709 -0.3831  0.2585  0.7934
 4921TIP3    H236323   4.213   1.456   1.676  0.8990 -1.7205  0.3174
 4922TIP3   OH236324   1.034   1.453   6.816 -0.3493  0.5664 -0.2983
 4922TIP3    H136325   1.027   1.472   6.910  1.6438 -0.8495  0.1800
 4922TIP3    H236326   0.992   1.528   6.774 -0.1676  1.8568  1.6893
 4923TIP3   OH236327   2.513   6.514   1.468 -0.0235 -0.9666  0.7507
 4923TIP3    H136328   2.554   6.570   1.402 -1.3909 -0.3707  0.3589
 4923TIP3    H236329   2.517   6.566   1.549 -0.1499 -0.8350  0.6736
 4924TIP3   OH236330   5.064   3.557   0.920 -0.4548  0.2843 -0.0917
 4924TIP3    H136331   5.075   3.608   1.000  0.2207 -0.5924  0.3921
 4924TIP3    H236332   5.020   3.617   0.859 -1.1879  0.8901  0.9964
 4925TIP3   OH236333   4.354   5.398   0.356  0.0751 -0.0139  0.3932
 4925TIP3    H136334   4.429   5.351   0.391 -2.0155 -2.1772  2.3608
 4925TIP3    H236335   4.292   5.401   0.429 -2.0150  1.1174 -1.3139
 4926TIP3   OH236336   5.729   0.137   6.551 -0.8745  0.1089  0.3545
 4926TIP3    H136337   5.682   0.151   6.469 -0.8199 -0.2289  0.2631
 4926TIP3    H236338   5.661   0.120   6.616 -0.8736 -0.7518  0.1485
 4927TIP3   OH236339   1.920   2.360   1.788  0.3158 -0.0688  0.2538
 4927TIP3    H136340   1.828   2.342   1.765  0.7028 -1.2419 -0.4852
 4927TIP3    H236341   1.918   2.372   1.883 -0.3544 -2.1468  0.5728
 4928TIP3   OH236342   3.380   0.524   1.235  0.2759  0.2807  0.0709
 4928TIP3    H136343   3.406   0.589   1.301  1.3975  0.0291 -0.1061
 4928TIP3    H236344   3.366   0.443   1.284 -0.7275  0.5344  0.2355
 4929TIP3   OH236345   4.724   3.608   7.140  0.3572  0.2353 -0.5556
 4929TIP3    H136346   4.740   3.540   7.074 -1.0873  0.2792 -0.9669
 4929TIP3    H236347   4.718   3.559   7.223  0.3122 -0.0250 -0.7115
 4930TIP3   OH236348   2.741   2.852   6.577  0.0528  0.1183 -0.5070
 4930TIP3    H136349   2.774   2.930   6.621  2.3943 -1.2325  0.3036
 4930TIP3    H236350   2.714   2.882   6.490  0.7120  1.8392 -0.1418
 4931TIP3   OH236351   5.694   4.666   0.361 -0.2835  0.0078 -0.0195
 4931TIP3    H136352   5.738   4.588   0.330 -0.1527 -0.4962  1.3533
 4931TIP3    H236353   5.610   4.635   0.395 -0.1619  0.4272  0.6902
 4932TIP3   OH236354   1.361   4.813   6.670 -0.5578  0.2028 -0.2395
 4932TIP3    H136355   1.414   4.893   6.672 -1.6938  0.9697  0.7130
 4932TIP3    H236356   1.377   4.776   6.583  0.2038  1.3199 -0.5987
 4933TIP3   OH236357   3.545   3.005   2.248 -0.3952  0.0452  0.2689
 4933TIP3    H136358   3.452   2.992   2.267 -0.4961 -0.2970 -0.4263
 4933TIP3    H236359   3.556   2.970   2.160 -0.0162  1.9215 -0.4541
 4934TIP3   OH236360   3.056   2.613   0.261 -0.0796 -0.1379 -0.0100
 4934TIP3    H136361   2.989   2.666   0.304 -0.1748 -0.1364 -0.1616
 4934TIP3    H236362   3.133   2.622   0.318  0.0839  0.6427 -0.3373
 4935TIP3   OH236363   2.032   3.131   6.770 -0.1940 -0.0197 -0.1033
 4935TIP3    H136364   2.074   3.162   6.689 -1.4794  0.6233 -0.5539
 4935TIP3    H236365   2.001   3.043   6.749  2.7414 -1.4209  0.9199
 4936TIP3   OH236366   1.796   0.087   6.026  0.3536  0.6290 -0.0156
 4936TIP3    H136367   1.801  -0.009   6.032  2.7557  0.7795  3.1054
 4936TIP3    H236368   1.823   0.107   5.936  0.5978 -1.5864 -0.4962
 4937TIP3   OH236369   4.433   6.152   1.631  0.1819 -0.8297 -0.6222
 4937TIP3    H136370   4.345   6.166   1.667  0.4861  0.2633 -0.2392
 4937TIP3    H236371   4.473   6.087   1.689 -0.0359 -0.5752 -0.1786
 4938TIP3   OH236372   3.082   1.128   0.030  0.2836  0.5175  0.7798
 4938TIP3    H136373   2.986   1.128   0.036 -0.1708 -0.4475 -3.4251
 4938TIP3    H236374   3.103   1.208  -0.017  1.0331 -1.1510 -1.9319
 4939TIP3   OH236375   5.612   0.183   8.300  0.2110 -0.2164 -0.0479
 4939TIP3    H136376   5.564   0.164   8.380 -0.3598  0.7839 -0.1269
 4939TIP3    H236377   5.545   0.178   8.231  0.7272 -1.2169 -0.4825
 4940TIP3   OH236378   6.548   5.417   8.324 -0.1577  0.3854 -0.2967
 4940TIP3    H136379   6.621   5.411   8.386 -0.1800  1.9314 -0.0933
 4940TIP3    H236380   6.483   5.355   8.359  0.3686  0.2410  0.4706
 4941TIP3   OH236381   5.168   4.671   1.626  0.1496  0.6014 -0.0425
 4941TIP3    H136382   5.212   4.594   1.660  2.6824  0.0780 -3.8698
 4941TIP3    H236383   5.109   4.637   1.559 -0.5208  1.8463 -0.1124
 4942TIP3   OH236384   0.672   4.975   0.580 -0.2363  0.7360  0.2715
 4942TIP3    H136385   0.686   4.884   0.605 -0.5658 -0.0076 -2.0401
 4942TIP3    H236386   0.580   4.979   0.552  0.1068  1.4568 -0.8350
 4943TIP3   OH236387   0.002   2.389   1.164 -0.4464  0.7429  0.2346
 4943TIP3    H136388  -0.083   2.365   1.129 -0.2520 -0.1428  0.3441
 4943TIP3    H236389  -0.007   2.481   1.189 -0.0160  2.1928 -4.0151
 4944TIP3   OH236390   2.656   2.282   1.524 -0.1808 -0.2840  0.2709
 4944TIP3    H136391   2.689   2.346   1.587  0.9676 -1.0619  0.4941
 4944TIP3    H236392   2.579   2.244   1.567  0.0342 -0.1331  0.7937
 4945TIP3   OH236393   1.176   0.442   6.926 -0.4663  0.9209  0.0060
 4945TIP3    H136394   1.160   0.474   6.837 -0.6928 -1.0485 -0.7262
 4945TIP3    H236395   1.261   0.479   6.950  0.9523 -0.6615 -2.1755
 4946TIP3   OH236396   5.195   2.093   0.360 -0.3684  0.3133 -0.5426
 4946TIP3    H136397   5.257   2.050   0.419 -0.2664 -2.1792 -2.2844
 4946TIP3    H236398   5.175   2.176   0.402  0.2075 -1.0103  2.6305
 4947TIP3   OH236399   1.095   2.753   1.460 -0.2061 -0.1023  0.2465
 4947TIP3    H136400   1.046   2.824   1.419 -1.6319 -1.6205 -0.7895
 4947TIP3    H236401   1.183   2.789   1.472 -0.5350  1.4090 -1.4015
 4948TIP3   OH236402   3.153   0.102   6.547 -0.0994  0.4642 -0.0051
 4948TIP3    H136403   3.086   0.101   6.616  0.9710  2.7814  1.2118
 4948TIP3    H236404   3.229   0.144   6.589  2.5724 -2.9440 -0.9678
 4949TIP3   OH236405   6.662   1.599   8.366 -0.1325  0.1986  0.1049
 4949TIP3    H136406   6.749   1.560   8.355 -0.4383 -0.2275 -0.8732
 4949TIP3    H236407   6.671   1.689   8.333 -0.6579 -0.6012 -2.4225
 4950TIP3   OH236408   3.747   2.201   8.334 -0.1493  0.2762  0.1185
 4950TIP3    H136409   3.762   2.125   8.278  1.0613 -0.4520  1.3712
 4950TIP3    H236410   3.654   2.199   8.353 -0.2790 -0.3898 -0.5401
 4951TIP3   OH236411   4.402   5.794   0.769  0.3521  0.0069 -0.6304
 4951TIP3    H136412   4.315   5.803   0.807  0.0349 -0.0459 -1.3237
 4951TIP3    H236413   4.405   5.704   0.738  0.8679 -0.1617 -0.0990
 4952TIP3   OH236414   2.599   0.596   6.458  0.4820  0.1249 -0.4343
 4952TIP3    H136415   2.612   0.674   6.512 -1.1628  0.3687 -0.3350
 4952TIP3    H236416   2.687   0.561   6.444  1.0363  0.5670  1.6307
 4953TIP3   OH236417   6.294   4.873   7.137 -0.4900 -0.1365 -0.3131
 4953TIP3    H136418   6.347   4.813   7.086 -0.5674 -0.4269 -0.0534
 4953TIP3    H236419   6.277   4.827   7.219 -0.0342  0.4766  0.1407
 4954TIP3   OH236420   5.196   0.644   1.709 -0.3156  0.0584  0.6906
 4954TIP3    H136421   5.129   0.693   1.659 -0.2840  0.4746  1.0504
 4954TIP3    H236422   5.186   0.553   1.679  0.3146  0.4311 -0.7544
 4955TIP3   OH236423   3.847   2.039   2.485  0.2066  0.5357  0.4972
 4955TIP3    H136424   3.933   2.000   2.500  1.0280  2.3610  0.7858
 4955TIP3    H236425   3.859   2.095   2.409 -0.5906  1.2306  0.8637
 4956TIP3   OH236426   1.702   1.531   7.933  0.0506 -0.1679  0.5140
 4956TIP3    H136427   1.700   1.442   7.899 -0.0088 -0.9814  2.4951
 4956TIP3    H236428   1.790   1.541   7.968 -0.1949  0.2665  1.0153
 4957TIP3   OH236429   4.275   3.625   2.075  0.5428 -0.1225  0.2218
 4957TIP3    H136430   4.313   3.546   2.113  0.5049 -0.5143 -0.5350
 4957TIP3    H236431   4.329   3.697   2.108  0.8605 -0.5114  0.5448
 4958TIP3   OH236432   5.728   0.489   8.262  0.6298  0.1656 -0.0267
 4958TIP3    H136433   5.727   0.396   8.241  1.3780  0.0749  0.3118
 4958TIP3    H236434   5.814   0.504   8.301 -1.0221  0.0452  4.2198
 4959TIP3   OH236435   6.487   3.288   0.201  0.3314  0.0627  0.3829
 4959TIP3    H136436   6.560   3.254   0.253  0.3562  0.1405  0.3986
 4959TIP3    H236437   6.508   3.264   0.111  0.7513  0.7494  0.2939
 4960TIP3   OH236438   4.791   3.569   6.629 -0.2507  0.4298 -0.4279
 4960TIP3    H136439   4.698   3.591   6.631 -0.3707  0.2480 -2.4581
 4960TIP3    H236440   4.793   3.474   6.644 -0.4058  0.4046 -0.5598
 4961TIP3   OH236441   3.531   5.146   8.659 -0.5749  0.0431 -0.0690
 4961TIP3    H136442   3.471   5.215   8.687 -2.0616 -0.4774 -1.7857
 4961TIP3    H236443   3.548   5.165   8.567  2.2047  0.3364  0.4194
 4962TIP3   OH236444   6.216   4.911   7.996 -0.0752 -0.0986  0.1585
 4962TIP3    H136445   6.136   4.961   8.013 -0.5974  0.2019 -2.7296
 4962TIP3    H236446   6.268   4.967   7.938  0.8988 -1.4937 -0.3590
 4963TIP3   OH236447   6.657   0.323   0.950 -0.4975  0.2639 -0.5675
 4963TIP3    H136448   6.711   0.394   0.914 -2.3124  0.9713 -2.0389
 4963TIP3    H236449   6.608   0.364   1.021  0.7466 -0.3402  0.6678
 4964TIP3   OH236450   6.119   3.686   8.399  0.4077 -0.1412  0.1026
 4964TIP3    H136451   6.208   3.672   8.366  0.3951  0.8412 -0.3957
 4964TIP3    H236452   6.127   3.673   8.494  0.5577 -2.4311 -0.1865
 4965TIP3   OH236453   4.247   3.935   0.066 -0.3219  0.0974 -0.1473
 4965TIP3    H136454   4.170   3.885   0.042  0.3970 -1.8787  1.3676
 4965TIP3    H236455   4.216   4.026   0.071 -2.5796 -0.6382  0.5248
 4966TIP3   OH236456   0.909   3.815   2.373  0.7603  0.0801 -1.2338
 4966TIP3    H136457   0.853   3.883   2.336 -0.8605 -0.2155  0.4959
 4966TIP3    H236458   0.874   3.733   2.336  0.3458 -0.0580 -0.5711
 4967TIP3   OH236459   5.738   5.345   7.357 -0.1825  0.0062 -0.1332
 4967TIP3    H136460   5.762   5.350   7.265 -0.7299  0.4007 -0.2621
 4967TIP3    H236461   5.655   5.394   7.363 -0.3145 -0.2829  0.5057
 4968TIP3   OH236462   6.690   2.553   1.944 -0.1304  0.3214 -0.4733
 4968TIP3    H136463   6.759   2.554   2.011  0.6788  1.0254 -1.2945
 4968TIP3    H236464   6.614   2.590   1.988 -0.0390 -0.5495  0.4792
 4969TIP3   OH236465   5.885   0.510   0.252 -0.7613 -0.3054  0.0281
 4969TIP3    H136466   5.854   0.462   0.329  0.3355  1.0355  1.3912
 4969TIP3    H236467   5.876   0.602   0.277  1.0491  0.1499 -0.8248
 4970TIP3   OH236468   4.775   4.826   0.189 -0.0088  0.1353  0.1307
 4970TIP3    H136469   4.851   4.776   0.160 -0.7779 -0.1172 -1.5984
 4970TIP3    H236470   4.789   4.913   0.153 -1.3008 -0.3582 -1.7235
 4971TIP3   OH236471   5.618   0.828   0.078 -0.0983  0.2926  0.3574
 4971TIP3    H136472   5.544   0.775   0.051  0.2280  0.4332 -0.8633
 4971TIP3    H236473   5.578   0.910   0.110 -0.4802  0.2404  0.0208
 4972TIP3   OH236474   2.211   6.204   8.301  0.2038  0.6489 -0.4951
 4972TIP3    H136475   2.148   6.145   8.342 -1.6369  1.5827 -1.8272
 4972TIP3    H236476   2.234   6.267   8.369 -0.3043  0.2992  0.0017
 4973TIP3   OH236477   4.534   6.080   7.053  0.6977 -0.6251  0.8320
 4973TIP3    H136478   4.555   6.007   6.994  2.3129 -2.1178  3.1037
 4973TIP3    H236479   4.448   6.057   7.088 -0.5836  0.6011 -1.2833
 4974TIP3   OH236480   3.446   5.761   7.367  0.2307  0.1330  0.3314
 4974TIP3    H136481   3.450   5.676   7.411  1.3501 -0.6133 -1.1130
 4974TIP3    H236482   3.476   5.824   7.433 -0.3805 -0.6173  1.3479
 4975TIP3   OH236483   6.112   3.284   2.222  0.0923  0.0603  0.0769
 4975TIP3    H136484   6.140   3.294   2.313 -0.2754  2.1065  0.0172
 4975TIP3    H236485   6.129   3.370   2.182 -0.4424 -0.5672 -1.6000
 4976TIP3   OH236486   2.835   3.531   0.731 -0.9296  0.0382  0.3184
 4976TIP3    H136487   2.873   3.514   0.645 -1.9418 -0.6722 -0.0060
 4976TIP3    H236488   2.762   3.470   0.737 -0.0228 -0.9367  2.2804
 4977TIP3   OH236489   1.510   0.471   1.429  0.5934 -0.2221  0.4446
 4977TIP3    H136490   1.538   0.495   1.341  3.4478  1.3190  1.6535
 4977TIP3    H236491   1.538   0.544   1.484 -0.1658 -1.5952  2.7902
 4978TIP3   OH236492   6.428   6.665   0.666 -0.1566  0.2740  0.4269
 4978TIP3    H136493   6.432   6.714   0.583  0.8120  0.4823  0.5796
 4978TIP3    H236494   6.454   6.576   0.642  0.2760  0.3705  0.5253
 4979TIP3   OH236495   3.929   3.990   1.550  0.3392 -0.2397  0.3109
 4979TIP3    H136496   3.881   3.911   1.575  1.9775 -0.6720  2.4786
 4979TIP3    H236497   3.939   3.984   1.455  0.2924 -2.5980  0.4005
 4980TIP3   OH236498   3.656   4.391   6.073  0.7275 -0.0447  0.7679
 4980TIP3    H136499   3.575   4.424   6.036  0.4555 -0.7298  0.7355
 4980TIP3    H236500   3.632   4.308   6.114  0.3713  1.8973  5.0848
 4981TIP3   OH236501   3.561   2.036   6.946  0.0821 -0.0595 -0.3323
 4981TIP3    H136502   3.524   1.952   6.972 -1.2113  0.5803 -0.0401
 4981TIP3    H236503   3.512   2.060   6.867  1.0233  0.0387 -0.9025
 4982TIP3   OH236504   0.925   4.680   7.011  0.8087 -0.1318 -0.2183
 4982TIP3    H136505   0.906   4.636   6.928 -0.4974  2.3813 -1.3587
 4982TIP3    H236506   1.009   4.722   6.997  0.0124  1.3449 -0.8101
 4983TIP3   OH236507   6.763   5.658   6.751  0.3751  0.0991 -0.5331
 4983TIP3    H136508   6.739   5.574   6.791 -3.4130  0.2825 -2.0285
 4983TIP3    H236509   6.821   5.635   6.679  0.9402 -1.0137  0.2483
 4984TIP3   OH236510   1.766   4.733   6.845  0.0625  0.6427  0.0232
 4984TIP3    H136511   1.844   4.745   6.897 -0.6133 -1.0581  1.5322
 4984TIP3    H236512   1.783   4.781   6.764  2.6256  0.3371  0.3225
 4985TIP3   OH236513   3.131   3.736   0.222  0.1087 -0.6981  0.1443
 4985TIP3    H136514   3.122   3.797   0.296  0.5680 -0.1683 -0.2268
 4985TIP3    H236515   3.085   3.779   0.150  0.6873 -0.6504 -0.2016
 4986TIP3   OH236516   2.655   2.424   1.194 -0.3675 -0.1841 -0.8972
 4986TIP3    H136517   2.637   2.374   1.114 -2.4491  1.5591 -1.6130
 4986TIP3    H236518   2.740   2.464   1.178 -0.4052 -0.4664 -1.9244
 4987TIP3   OH236519   2.021   0.544   1.327  0.5649  0.0898  0.3473
 4987TIP3    H136520   2.088   0.492   1.284  0.9622  0.0854  0.9575
 4987TIP3    H236521   1.941   0.526   1.278  0.1955 -2.7731  1.7724
 4988TIP3   OH236522   6.674   5.009   8.258  0.0286  0.0781 -0.2477
 4988TIP3    H136523   6.614   4.935   8.253 -0.2094  0.2738 -0.3162
 4988TIP3    H236524   6.634   5.076   8.202 -1.8215  1.6966  2.7361
 4989TIP3   OH236525   2.542   3.701   1.339  0.3684 -0.3958  0.1354
 4989TIP3    H136526   2.553   3.684   1.432 -2.1286  2.6694  1.1949
 4989TIP3    H236527   2.629   3.726   1.308  1.1582 -1.0531  1.7403
 4990TIP3   OH236528   2.445   1.806   0.036  0.5572  0.1394  0.3809
 4990TIP3    H136529   2.456   1.824  -0.057  0.0070  2.2089  0.6692
 4990TIP3    H236530   2.534   1.806   0.071  0.7651 -0.6362 -0.1376
 4991TIP3   OH236531   1.026   1.830   1.322  0.1424 -0.4403  0.0099
 4991TIP3    H136532   1.077   1.789   1.393 -0.2553 -0.2904  0.3865
 4991TIP3    H236533   0.940   1.788   1.327  0.1602 -0.5417 -0.4908
 4992TIP3   OH236534   4.134   3.099   1.375  0.1657  0.6826 -0.1759
 4992TIP3    H136535   4.134   3.015   1.419  0.9569  1.1056  0.6706
 4992TIP3    H236536   4.182   3.157   1.434  0.9272  1.3645 -1.4105
 4993TIP3   OH236537   5.526   2.944   1.874 -0.4767 -0.3622 -0.4562
 4993TIP3    H136538   5.523   2.867   1.930 -0.5968  0.9688  1.4643
 4993TIP3    H236539   5.620   2.956   1.855 -0.1502  0.5515  1.5403
 4994TIP3   OH236540   0.995   0.794   6.404 -0.3932 -0.4096  0.3356
 4994TIP3    H136541   0.912   0.813   6.448 -0.8332 -3.0450  0.8133
 4994TIP3    H236542   1.022   0.877   6.367 -1.9562  1.0994  2.3475
 4995TIP3   OH236543   0.209   5.897   7.238 -0.4899 -0.7755  0.0922
 4995TIP3    H136544   0.137   5.918   7.298  0.5914 -0.7262  1.4014
 4995TIP3    H236545   0.204   5.803   7.226 -0.4879 -0.8385  0.5641
 4996TIP3   OH236546   2.027   3.801   6.832 -0.1687  0.4924 -0.0937
 4996TIP3    H136547   2.040   3.859   6.758 -1.6924 -0.4619 -1.1731
 4996TIP3    H236548   1.933   3.781   6.831 -0.1113 -0.0591  1.7007
 4997TIP3   OH236549   3.270   1.132   1.313  0.0459  0.1105 -0.0214
 4997TIP3    H136550   3.203   1.180   1.361 -0.1242 -0.1410 -0.0077
 4997TIP3    H236551   3.323   1.090   1.381 -0.6936 -0.9238 -0.0666
 4998TIP3   OH236552   6.711   0.928   1.013  0.5451 -0.0226  0.0900
 4998TIP3    H136553   6.664   0.850   1.042  1.0805 -0.9504 -1.4353
 4998TIP3    H236554   6.775   0.945   1.082 -0.7822  0.1863  1.3210
 4999TIP3   OH236555   1.466   3.758   7.526 -0.2424  0.4495 -0.0852
 4999TIP3    H136556   1.516   3.840   7.518  0.2261  0.1436 -0.3015
 4999TIP3    H236557   1.468   3.720   7.439  0.8154 -0.5280  0.3421
 5000TIP3   OH236558   0.538   1.649   7.596 -0.3831 -0.4117  0.2580
 5000TIP3    H136559   0.456   1.695   7.612  1.0288  2.1259  0.7675
 5000TIP3    H236560   0.564   1.614   7.681  0.0171  0.5041  0.5188
 5001TIP3   OH236561   4.087   1.636   2.106 -0.2750 -0.0577 -0.6629
 5001TIP3    H136562   4.131   1.551   2.107 -2.2509 -1.1384  0.3278
 5001TIP3    H236563   4.151   1.696   2.067  1.3683 -1.8736 -0.8988
 5002TIP3   OH236564   1.231   0.627   1.975  0.0253 -0.2534 -0.0341
 5002TIP3    H136565   1.264   0.540   1.997 -0.5179 -1.0278 -2.0643
 5002TIP3    H236566   1.171   0.649   2.047  1.6438 -0.6475  1.5223
 5003TIP3   OH236567   2.378   4.639   6.258  0.1214 -0.8359 -0.4168
 5003TIP3    H136568   2.451   4.610   6.313  1.2850  1.1137 -0.8224
 5003TIP3    H236569   2.329   4.700   6.314 -0.0862 -0.6797 -0.7618
 5004TIP3   OH236570   3.978   6.287   6.936 -0.7275  0.6507  0.7546
 5004TIP3    H136571   3.963   6.231   7.012  1.0559 -0.6664  0.2358
 5004TIP3    H236572   3.905   6.268   6.877 -0.5827 -0.5703  0.9335
 5005TIP3   OH236573   1.859   5.009   2.478 -0.1419 -0.0595  0.0748
 5005TIP3    H136574   1.863   5.090   2.427 -0.7946  0.7107  1.1956
 5005TIP3    H236575   1.950   4.982   2.487  0.0683  0.4421 -0.4790
 5006TIP3   OH236576   4.903   5.529   7.398 -0.1328  0.2627 -0.0938
 5006TIP3    H136577   4.824   5.557   7.351 -0.8542 -0.3735  0.7026
 5006TIP3    H236578   4.942   5.610   7.429 -0.1892  0.6220 -0.9305
 5007TIP3   OH236579   4.817   2.275   1.137  0.7739 -0.1062  0.1495
 5007TIP3    H136580   4.839   2.299   1.227  1.0345 -2.4676  0.7896
 5007TIP3    H236581   4.871   2.198   1.120 -0.0849 -0.3428 -1.6542
 5008TIP3   OH236582   6.390   3.172   2.442  0.3324 -0.0515  0.3356
 5008TIP3    H136583   6.301   3.145   2.462  0.0937  0.1848 -0.3882
 5008TIP3    H236584   6.441   3.091   2.445 -0.3157 -0.5709 -1.4902
 5009TIP3   OH236585   4.350   6.717   6.530 -0.0308 -0.4893  0.4872
 5009TIP3    H136586   4.369   6.627   6.507  1.3819 -0.3475  0.9963
 5009TIP3    H236587   4.317   6.757   6.449  0.6010 -1.1225 -0.0876
 5010TIP3   OH236588   0.585   2.723   6.877  0.0444  0.1574  0.3810
 5010TIP3    H136589   0.654   2.658   6.894 -0.2852  0.1128  1.5823
 5010TIP3    H236590   0.543   2.737   6.961 -0.5519  1.1971 -0.0696
 5011TIP3   OH236591   3.209   6.838   1.041  0.1837  0.3392  0.1900
 5011TIP3    H136592   3.137   6.849   0.978  1.3272 -1.0737 -1.4472
 5011TIP3    H236593   3.217   6.744   1.052  1.1675  0.5136  1.1107
 5012TIP3   OH236594   6.736   4.220   0.195 -0.8140 -0.0670 -0.5093
 5012TIP3    H136595   6.803   4.161   0.228 -0.6103 -0.5212 -1.6692
 5012TIP3    H236596   6.654   4.188   0.233 -0.2422  1.5190  2.3001
 5013TIP3   OH236597   6.127   3.358   8.257  0.0003  0.1690  0.1232
 5013TIP3    H136598   6.117   3.363   8.352  1.1866  0.7807  0.2364
 5013TIP3    H236599   6.107   3.447   8.226  1.7467  0.5825  0.0569
 5014TIP3   OH236600   1.738   4.775   5.976 -0.0254 -0.0193 -0.6996
 5014TIP3    H136601   1.712   4.771   5.883  0.8732 -0.9201 -0.9298
 5014TIP3    H236602   1.709   4.861   6.005  1.0969  0.9408 -2.2510
 5015TIP3   OH236603   4.599   5.834   0.942  0.1599 -0.1609 -0.3421
 5015TIP3    H136604   4.645   5.753   0.922  1.1687  0.3381 -0.0625
 5015TIP3    H236605   4.527   5.836   0.879 -0.9112 -2.0889  0.6927
 5016TIP3   OH236606   5.234   4.883   0.105  0.0644 -0.0135 -0.1993
 5016TIP3    H136607   5.181   4.823   0.053 -0.9636 -0.4310  1.2596
 5016TIP3    H236608   5.295   4.826   0.153  0.6100  0.3152 -0.4911
 5017TIP3   OH236609   1.735   5.007   0.676  0.0876 -0.0534 -0.4234
 5017TIP3    H136610   1.689   5.050   0.604  0.2495  0.7011 -0.0871
 5017TIP3    H236611   1.702   5.051   0.755 -0.0509 -0.8300 -0.0342
 5018TIP3   OH236612   3.938   3.976   0.253  0.0698  0.5938 -0.1886
 5018TIP3    H136613   3.975   3.888   0.248  0.8772  0.9048  0.1773
 5018TIP3    H236614   3.952   4.003   0.344 -0.8553  0.8091 -0.1012
 5019TIP3   OH236615   2.605   6.528   2.093 -0.4075 -0.4421  0.2146
 5019TIP3    H136616   2.567   6.476   2.165  1.4729 -2.0937  0.1099
 5019TIP3    H236617   2.670   6.583   2.136  0.1477 -0.8357 -0.1174
 5020TIP3   OH236618   6.388   5.021   7.485 -0.1841  0.0482  0.0072
 5020TIP3    H136619   6.299   5.034   7.455  0.0497  0.5599 -0.4720
 5020TIP3    H236620   6.441   5.019   7.405  0.3295  0.5106  0.3227
 5021TIP3   OH236621   6.100   0.066   6.516 -0.2444  0.2198 -0.5708
 5021TIP3    H136622   6.130  -0.011   6.565  0.4656  0.9698  0.2214
 5021TIP3    H236623   6.007   0.048   6.498 -1.6623  1.3112  4.1458
 5022TIP3   OH236624   6.699   0.699   8.637 -0.3032 -0.0457 -0.3206
 5022TIP3    H136625   6.616   0.703   8.683 -0.8215 -0.9977 -1.1192
 5022TIP3    H236626   6.747   0.628   8.680  0.4513  1.0277  0.6621
 5023TIP3   OH236627   0.073   0.068   8.208 -0.5878  0.0368 -0.4719
 5023TIP3    H136628   0.049   0.135   8.271  0.0377 -0.4323  0.2884
 5023TIP3    H236629   0.169   0.067   8.209 -0.5393  0.4536 -1.9051
 5024TIP3   OH236630   0.575   3.030   8.133  0.4464  0.1436 -0.1342
 5024TIP3    H136631   0.524   2.967   8.183  0.3072 -1.1366 -1.7830
 5024TIP3    H236632   0.666   3.016   8.162 -0.0001  3.1125  3.5357
 5025TIP3   OH236633   6.711   4.222   1.637  0.6371  0.2779  0.1509
 5025TIP3    H136634   6.753   4.168   1.704 -0.6615 -2.2895 -0.9502
 5025TIP3    H236635   6.622   4.236   1.670  1.0009  2.0041  0.4978
 5026TIP3   OH236636   6.384   4.996   1.467 -0.3657  0.0820 -0.2797
 5026TIP3    H136637   6.309   4.937   1.460  0.0850 -0.4903 -0.3761
 5026TIP3    H236638   6.425   4.972   1.550  0.0001  0.0471 -0.4696
 5027TIP3   OH236639   2.979   4.487   1.958  0.0257  0.8564  0.1253
 5027TIP3    H136640   2.958   4.439   1.877  0.1958  2.2673 -0.7843
 5027TIP3    H236641   3.058   4.536   1.937  0.5704  0.5878  1.4450
 5028TIP3   OH236642   3.165   4.071   0.728  0.1330 -0.7579  0.3036
 5028TIP3    H136643   3.119   4.149   0.699 -0.1549 -0.9672  0.1960
 5028TIP3    H236644   3.184   4.022   0.648  1.2009 -0.3181  0.2676
 5029TIP3   OH236645   4.198   0.659   0.047  0.6820 -0.2173  0.2120
 5029TIP3    H136646   4.160   0.738   0.085 -0.0215 -0.7634  0.6625
 5029TIP3    H236647   4.185   0.669  -0.047  0.8071  0.3080  0.2463
 5030TIP3   OH236648   0.560   3.742   7.950  0.4587  0.4929 -0.0658
 5030TIP3    H136649   0.615   3.664   7.950 -0.2867 -0.0392 -0.0823
 5030TIP3    H236650   0.471   3.709   7.940  0.2832  1.4640 -2.1903
 5031TIP3   OH236651   2.091   2.254   2.018  0.2381  0.5982  0.3590
 5031TIP3    H136652   2.021   2.319   2.028  1.4215  1.9497  0.0695
 5031TIP3    H236653   2.118   2.234   2.107 -0.2093  0.3955  0.4543
 5032TIP3   OH236654   0.574   2.740   0.222 -0.2517 -0.3186 -0.2596
 5032TIP3    H136655   0.579   2.690   0.303 -1.2978 -0.2190 -0.1221
 5032TIP3    H236656   0.576   2.831   0.249 -1.9986 -0.2657 -0.2125
 5033TIP3   OH236657   1.332   5.529   7.245  0.6772 -0.1572  0.2187
 5033TIP3    H136658   1.339   5.504   7.152 -2.0593 -1.7528  0.3261
 5033TIP3    H236659   1.422   5.525   7.278  1.4806 -1.4306 -1.9250
 5034TIP3   OH236660   6.335   6.823   6.878  0.3331  0.0183  0.3928
 5034TIP3    H136661   6.352   6.738   6.918  0.9627  0.8849  2.0345
 5034TIP3    H236662   6.352   6.809   6.785  0.7705 -1.5564  0.6835
 5035TIP3   OH236663   4.878   6.102   7.129 -0.1004 -0.1522 -0.4640
 5035TIP3    H136664   4.971   6.088   7.108  0.0268  0.6294 -0.4489
 5035TIP3    H236665   4.844   6.014   7.144  0.2047 -0.6208 -2.2580
 5036TIP3   OH236666   4.766   0.111   0.308 -0.7021  0.2125 -0.5470
 5036TIP3    H136667   4.722   0.111   0.223 -0.3949  1.7316 -0.7333
 5036TIP3    H236668   4.852   0.074   0.290 -0.7108  0.3443 -0.8693
 5037TIP3   OH236669   6.325   4.594   1.019 -0.8051 -0.3734  0.7632
 5037TIP3    H136670   6.311   4.675   1.068 -1.3884 -0.0083 -0.0031
 5037TIP3    H236671   6.418   4.576   1.029 -0.3443  1.2164 -0.3049
 5038TIP3   OH236672   5.072   2.354   1.845  0.1536  0.0321 -0.3140
 5038TIP3    H136673   5.061   2.342   1.750 -1.0027  0.6264 -0.2717
 5038TIP3    H236674   5.045   2.445   1.860 -0.0751 -0.1896  0.6418
 5039TIP3   OH236675   4.888   0.374   0.055  0.0522 -0.4540  0.3905
 5039TIP3    H136676   4.943   0.295   0.053 -1.0721 -1.2521 -0.0340
 5039TIP3    H236677   4.950   0.446   0.066  1.2959 -1.2060 -1.2564
 5040TIP3   OH236678   6.022   1.184   1.331  0.5473  0.1608  0.6590
 5040TIP3    H136679   6.103   1.134   1.336  0.4912  0.0708  0.6667
 5040TIP3    H236680   6.047   1.265   1.286  0.9891  0.8603  2.1002
 5041TIP3   OH236681   0.311   4.896   6.856  0.1593 -0.6707  0.1584
 5041TIP3    H136682   0.256   4.836   6.806 -1.7805  0.0328  1.3229
 5041TIP3    H236683   0.377   4.840   6.898 -0.0503 -1.6310 -0.7589
 5042TIP3   OH236684   2.276   2.049   7.796 -0.4860 -0.1634  0.0481
 5042TIP3    H136685   2.271   2.060   7.891  1.2212  0.0602  0.1490
 5042TIP3    H236686   2.364   2.078   7.773 -0.3712 -1.5391 -1.4273
 5043TIP3   OH236687   0.772   2.965   7.197 -0.1399  0.2254 -0.0736
 5043TIP3    H136688   0.844   2.928   7.248 -0.5501  0.7878  0.9275
 5043TIP3    H236689   0.806   2.968   7.107  0.7927 -0.2498  0.2477
 5044TIP3   OH236690   4.029   4.963   7.736 -0.1509 -0.2020 -0.2565
 5044TIP3    H136691   4.092   4.992   7.801  2.3892 -0.2484 -2.5331
 5044TIP3    H236692   4.057   4.875   7.712  0.1504  0.4847 -2.6666
 5045TIP3   OH236693   6.640   3.363   0.584 -0.3154 -0.1988 -0.2117
 5045TIP3    H136694   6.595   3.423   0.524  0.9402  1.5596  0.5046
 5045TIP3    H236695   6.710   3.324   0.531 -1.8162 -1.9762 -0.9846
 5046TIP3   OH236696   6.181   1.801   7.965 -0.4902  0.2499  0.0347
 5046TIP3    H136697   6.101   1.846   7.941 -0.1218 -0.2174 -2.2262
 5046TIP3    H236698   6.183   1.723   7.909  1.7007  0.4334 -0.2166
 5047TIP3   OH236699   3.340   1.904   7.826  0.4352 -0.5022 -0.3936
 5047TIP3    H136700   3.250   1.933   7.810 -0.7838 -3.3708  0.6479
 5047TIP3    H236701   3.367   1.952   7.905 -0.5085 -0.2598 -0.2063
 5048TIP3   OH236702   0.854   3.232   7.304 -0.0044  0.1611 -0.4641
 5048TIP3    H136703   0.836   3.231   7.398  0.4395  0.8935 -0.3597
 5048TIP3    H236704   0.842   3.141   7.276 -1.0195  0.1012  0.1255
 5049TIP3   OH236705   1.044   4.331   8.724 -0.4216  0.5409 -0.5382
 5049TIP3    H136706   1.065   4.358   8.814 -1.3269  0.6114 -0.3428
 5049TIP3    H236707   1.103   4.257   8.707  0.4630  1.1680 -0.2533
 5050TIP3   OH236708   3.111   6.688   1.407 -0.0746 -0.4481 -0.0932
 5050TIP3    H136709   3.047   6.672   1.337  1.4080 -2.2421 -1.1219
 5050TIP3    H236710   3.196   6.667   1.367  1.1807  1.7114  1.2695
 5051TIP3   OH236711   2.345   3.707   7.494  0.3213 -0.4813 -0.6559
 5051TIP3    H136712   2.300   3.638   7.542  0.2068 -0.3063 -0.5097
 5051TIP3    H236713   2.277   3.771   7.474  0.7334  0.4939  0.8291
 5052TIP3   OH236714   6.669   5.349   1.003  0.9110 -0.2517  0.9018
 5052TIP3    H136715   6.579   5.353   0.971  0.9391  0.7640  0.9159
 5052TIP3    H236716   6.676   5.263   1.044  0.1649 -0.6292  0.2649
 5053TIP3   OH236717   0.419   1.631   8.377 -0.2207  0.4462 -0.2081
 5053TIP3    H136718   0.395   1.697   8.311 -0.6962  0.5356  0.0440
 5053TIP3    H236719   0.400   1.674   8.460 -1.1219 -0.2193 -0.0504
 5054TIP3   OH236720   4.000   4.513   0.232 -0.3647  0.0118  0.5113
 5054TIP3    H136721   4.006   4.601   0.196  0.9108 -0.1365  0.3181
 5054TIP3    H236722   4.031   4.456   0.162 -0.6846 -0.5513  0.8157
 5055TIP3   OH236723   5.898   6.075   0.011  0.1863  0.6128  0.4681
 5055TIP3    H136724   5.851   6.114   0.085 -1.9170 -2.2034  0.7923
 5055TIP3    H236725   5.885   5.980   0.022  2.3977 -0.0637 -1.8719
 5056TIP3   OH236726   1.642   0.693   0.960  0.0538 -0.0042 -0.0046
 5056TIP3    H136727   1.694   0.738   0.893  0.9940  0.5716  1.0872
 5056TIP3    H236728   1.637   0.602   0.928  1.5142 -0.0198 -0.2731
 5057TIP3   OH236729   6.418   6.061   7.336 -0.1496  0.2710 -0.1211
 5057TIP3    H136730   6.355   6.102   7.276 -0.4491  1.1493  0.7647
 5057TIP3    H236731   6.452   5.986   7.287  0.2510  1.4434 -1.7168
 5058TIP3   OH236732   1.935   1.696   6.422  0.3218 -0.0734 -0.0957
 5058TIP3    H136733   2.002   1.637   6.458 -0.3743 -1.7550 -1.4019
 5058TIP3    H236734   1.870   1.637   6.383 -1.4156  1.5370  0.2295
 5059TIP3   OH236735   1.266   3.102   1.168 -0.7668 -0.4640 -0.3312
 5059TIP3    H136736   1.213   3.063   1.099 -0.8290 -1.1872  0.1062
 5059TIP3    H236737   1.356   3.102   1.134 -0.6118 -1.8810  0.0053
 5060TIP3   OH236738   1.959   1.133   7.313  0.5825  0.5100 -0.2030
 5060TIP3    H136739   2.050   1.105   7.324  0.7833  1.2262  0.0768
 5060TIP3    H236740   1.928   1.150   7.402  0.3651  0.8257 -0.3357
 5061TIP3   OH236741   4.269   6.601   1.225  0.6693  0.2460  0.2351
 5061TIP3    H136742   4.322   6.597   1.145  1.2815 -2.9673  0.6867
 5061TIP3    H236743   4.183   6.629   1.195  1.1975  0.3235 -1.3383
 5062TIP3   OH236744   4.028   1.430   1.067  0.0771  0.1094  0.2792
 5062TIP3    H136745   4.044   1.425   1.161  0.8048  0.7186  0.1989
 5062TIP3    H236746   4.039   1.522   1.045  1.2885 -0.2172 -0.6172
 5063TIP3   OH236747   6.806   3.998   0.590  0.0797  0.3803  0.4238
 5063TIP3    H136748   6.718   4.027   0.617 -0.2193 -1.1592  1.2008
 5063TIP3    H236749   6.792   3.911   0.553  0.4909  2.1819 -4.7079
 5064TIP3   OH236750   1.383   6.264   1.597  0.1209  0.1940  0.1859
 5064TIP3    H136751   1.311   6.214   1.561  0.0569  0.1930  0.3159
 5064TIP3    H236752   1.342   6.342   1.635  0.0047 -0.5679  1.6815
 5065TIP3   OH236753   0.876   1.720   0.247  0.2890  0.1235  0.2278
 5065TIP3    H136754   0.912   1.685   0.166  0.0898  1.3631 -0.4095
 5065TIP3    H236755   0.920   1.670   0.316  1.3031 -0.1593 -0.6004
 5066TIP3   OH236756   1.346   1.377   1.225 -0.1917 -0.6344 -0.4448
 5066TIP3    H136757   1.372   1.400   1.314 -2.1971 -0.1998  0.0883
 5066TIP3    H236758   1.355   1.282   1.221 -1.3004 -0.8238  0.7038
 5067TIP3   OH236759   2.191   4.238   7.793  0.3573 -0.3244 -0.2135
 5067TIP3    H136760   2.216   4.330   7.783 -0.8000  0.1261  0.8429
 5067TIP3    H236761   2.271   4.190   7.772  1.3140  0.9537  0.3401
 5068TIP3   OH236762   5.799   3.352   1.177  0.6656  0.3517 -0.3325
 5068TIP3    H136763   5.746   3.430   1.159 -2.1528 -1.6084 -1.1641
 5068TIP3    H236764   5.798   3.343   1.272  2.5613  2.2079 -0.0438
 5069TIP3   OH236765   3.612   4.651   0.065 -0.2186 -0.3952 -0.2443
 5069TIP3    H136766   3.644   4.654  -0.026 -1.9029 -1.3789 -0.9290
 5069TIP3    H236767   3.663   4.717   0.111 -0.2122  1.0820 -2.2161
 5070TIP3   OH236768   2.276   3.476   0.429 -0.7533  0.3473 -0.4211
 5070TIP3    H136769   2.359   3.430   0.424 -0.0024  1.6374 -0.2886
 5070TIP3    H236770   2.223   3.423   0.489  0.9478  0.8942  1.6990
 5071TIP3   OH236771   1.421   5.445   0.596 -0.3681 -0.5676 -0.0777
 5071TIP3    H136772   1.480   5.493   0.654 -1.4361  1.4911 -0.5793
 5071TIP3    H236773   1.334   5.457   0.634 -0.9103 -0.3710 -1.3047
 5072TIP3   OH236774   6.124   2.246   6.930 -0.2219  0.5041  0.6945
 5072TIP3    H136775   6.167   2.290   6.857 -1.7133 -0.2529 -0.7087
 5072TIP3    H236776   6.174   2.165   6.942  0.5451  1.0299  1.1079
 5073TIP3   OH236777   1.675   3.750   0.915  0.3301  0.1367  0.3981
 5073TIP3    H136778   1.660   3.839   0.882  2.7791  0.1958 -0.7366
 5073TIP3    H236779   1.638   3.693   0.847  1.2276  0.2897 -0.2300
 5074TIP3   OH236780   3.815   5.161   6.651 -0.5150  0.1809 -0.2030
 5074TIP3    H136781   3.851   5.205   6.574 -0.2983  2.2076  0.9949
 5074TIP3    H236782   3.731   5.126   6.621 -0.6437  1.3291 -1.2564
 5075TIP3   OH236783   6.146   0.102   8.042  0.0381 -0.3382  0.2771
 5075TIP3    H136784   6.086   0.077   8.112 -0.6365 -0.0061 -0.1825
 5075TIP3    H236785   6.204   0.167   8.083 -0.6386  0.1932  0.4091
 5076TIP3   OH236786   2.006   6.222   0.036 -0.4370  0.6370  0.0312
 5076TIP3    H136787   1.994   6.139  -0.009  1.0594  0.1903  0.3970
 5076TIP3    H236788   1.919   6.262   0.038 -1.1482 -0.8601 -0.2527
 5077TIP3   OH236789   1.390   5.081   0.183  0.4901  0.3433 -0.5943
 5077TIP3    H136790   1.409   5.095   0.276  1.5124  1.8333 -1.0055
 5077TIP3    H236791   1.359   4.990   0.179  1.8630 -0.2530  0.9947
 5078TIP3   OH236792   3.958   5.262   1.603  0.3087  0.6813  0.3672
 5078TIP3    H136793   3.916   5.311   1.533  0.0622  0.1273  0.1282
 5078TIP3    H236794   3.886   5.225   1.654  0.4205  2.5302  1.9856
 5079TIP3   OH236795   2.873   3.836   2.256 -0.0176  0.2046  0.7867
 5079TIP3    H136796   2.906   3.748   2.276  2.3228  0.8014 -0.0364
 5079TIP3    H236797   2.940   3.895   2.293 -0.5028  1.5724 -0.4213
 5080TIP3   OH236798   6.517   6.832   7.151  0.0749  0.1110 -0.0645
 5080TIP3    H136799   6.450   6.776   7.110 -0.4955  0.2398  0.6842
 5080TIP3    H236800   6.497   6.920   7.118 -1.1216  0.4175  1.3639
 5081TIP3   OH236801   1.465   2.708   0.091  0.2335 -0.6034  0.6789
 5081TIP3    H136802   1.401   2.637   0.086 -0.5353  0.1292 -2.4235
 5081TIP3    H236803   1.414   2.783   0.122  0.3509 -0.7402  1.2048
 5082TIP3   OH236804   0.489   5.028   8.539  0.0648  0.6904 -0.3295
 5082TIP3    H136805   0.580   5.010   8.560 -0.3019  0.9366  1.7053
 5082TIP3    H236806   0.456   4.947   8.499  0.8185  0.1202  0.1826
 5083TIP3   OH236807   4.077   6.299   8.130 -0.1726 -0.2200 -0.1654
 5083TIP3    H136808   4.029   6.229   8.086  0.0143 -0.1990 -0.4094
 5083TIP3    H236809   4.115   6.350   8.058 -0.1978  0.0524  0.0133
 5084TIP3   OH236810   1.794   5.727   0.910 -0.0714  0.2653  0.0801
 5084TIP3    H136811   1.860   5.785   0.949  0.2740  0.4169 -0.7080
 5084TIP3    H236812   1.776   5.663   0.978  0.1670  0.8022  0.6642
 5085TIP3   OH236813   6.023   5.471   8.140  0.2038  0.3191  0.2705
 5085TIP3    H136814   5.992   5.560   8.154 -2.0483  0.1527 -2.6765
 5085TIP3    H236815   6.105   5.481   8.093  1.6358  0.7541  2.7157
 5086TIP3   OH236816   2.791   5.583   8.348  0.2565 -0.2313  0.7101
 5086TIP3    H136817   2.762   5.554   8.435 -2.4519 -0.9192 -0.3471
 5086TIP3    H236818   2.723   5.644   8.319  0.5207 -0.8920 -1.3925
 5087TIP3   OH236819   6.197   4.987   1.707 -0.2700 -0.0756 -0.8377
 5087TIP3    H136820   6.173   5.076   1.682  2.4504  1.3872  1.2401
 5087TIP3    H236821   6.150   4.971   1.789 -0.1682 -0.2577 -0.8134
 5088TIP3   OH236822   4.616   0.464   8.383  0.2638  0.2439  0.2544
 5088TIP3    H136823   4.559   0.425   8.316  0.5550  2.0446 -1.0947
 5088TIP3    H236824   4.567   0.452   8.465 -0.9738 -0.3367 -0.5329
 5089TIP3   OH236825   0.692   0.875   1.151 -0.1681  1.0045 -0.1149
 5089TIP3    H136826   0.698   0.969   1.133 -1.4273  1.4914  1.7418
 5089TIP3    H236827   0.770   0.856   1.202 -0.7435  1.4413  0.9596
 5090TIP3   OH236828   3.772   0.336   0.521  0.1662  0.4526 -0.0076
 5090TIP3    H136829   3.858   0.372   0.543  0.1977  1.4679 -1.6013
 5090TIP3    H236830   3.710   0.404   0.546 -0.2080 -0.2900  1.1617
 5091TIP3   OH236831   0.075   2.678   8.383  0.5201 -0.4480 -0.2680
 5091TIP3    H136832   0.005   2.619   8.413  1.0342 -0.5891  0.6859
 5091TIP3    H236833   0.125   2.698   8.462  0.0853  1.6543 -0.4581
 5092TIP3   OH236834   6.260   0.870   7.427  0.1836  0.0448 -0.0974
 5092TIP3    H136835   6.204   0.876   7.504  0.4489  0.8306  0.0352
 5092TIP3    H236836   6.215   0.808   7.369 -0.0970 -0.4248  0.6112
 5093TIP3   OH236837   5.124   5.320   1.721  0.1857 -0.3648  0.0194
 5093TIP3    H136838   5.107   5.414   1.723 -2.2666 -0.7513  0.6521
 5093TIP3    H236839   5.100   5.293   1.633  1.6369 -0.3109 -0.4119
 5094TIP3   OH236840   0.263   3.053   7.785  0.1580 -0.5343 -0.0236
 5094TIP3    H136841   0.247   2.972   7.737  0.6587 -0.3484 -0.5017
 5094TIP3    H236842   0.261   3.122   7.719 -1.0319 -0.0493  0.4740
 5095TIP3   OH236843   2.351   5.766   0.100 -0.2787 -0.0785  0.0220
 5095TIP3    H136844   2.446   5.773   0.095 -0.0475 -2.5366 -0.5181
 5095TIP3    H236845   2.332   5.763   0.194  0.0453  1.4498  0.1540
 5096TIP3   OH236846   4.501   2.307   6.802 -0.2556  0.4456  1.1880
 5096TIP3    H136847   4.579   2.266   6.839 -1.6359 -3.0952  0.5710
 5096TIP3    H236848   4.530   2.342   6.717  0.7703 -0.4581  1.1469
 5097TIP3   OH236849   3.701   0.096   1.418  0.3114  0.6099 -0.4038
 5097TIP3    H136850   3.764   0.034   1.456  0.9764  1.4020 -0.1912
 5097TIP3    H236851   3.616   0.068   1.452  0.7362  0.4709  0.5642
 5098TIP3   OH236852   0.361   4.593   8.134 -0.2866  0.2761  0.1174
 5098TIP3    H136853   0.288   4.573   8.193 -0.6977 -2.2440 -1.1125
 5098TIP3    H236854   0.419   4.518   8.140  0.3030  0.5206 -1.7000
 5099TIP3   OH236855   0.722   5.863   7.563  0.4660 -0.0863 -0.3018
 5099TIP3    H136856   0.721   5.861   7.659  1.9160 -1.3193 -0.2625
 5099TIP3    H236857   0.642   5.817   7.537  0.0216  0.3330  0.3230
 5100TIP3   OH236858   6.036   5.516   6.879  0.4243  0.4922  0.2573
 5100TIP3    H136859   6.084   5.576   6.936 -0.3273  0.0221  1.4269
 5100TIP3    H236860   6.030   5.435   6.929 -1.7040  0.5776  0.2505
 5101TIP3   OH236861   2.986   6.432   6.508 -0.2519 -0.0535 -0.6621
 5101TIP3    H136862   3.074   6.436   6.470 -0.4934 -0.0875 -1.2316
 5101TIP3    H236863   2.979   6.343   6.541 -0.6532 -0.5644 -2.0570
 5102TIP3   OH236864   0.534   0.216   6.379 -0.2175 -0.8763  0.1960
 5102TIP3    H136865   0.462   0.179   6.431 -1.2196  0.4658 -0.2044
 5102TIP3    H236866   0.499   0.223   6.290 -0.4628  1.9595  0.4360
 5103TIP3   OH236867   6.577   1.739   1.590  0.3071  0.4618  0.7033
 5103TIP3    H136868   6.493   1.722   1.633 -0.4344 -0.5531 -1.0286
 5103TIP3    H236869   6.564   1.707   1.501  2.1353  1.4788  0.0421
 5104TIP3   OH236870   5.299   6.138   0.545  0.9270 -0.2723  0.0315
 5104TIP3    H136871   5.271   6.157   0.634  0.0017  1.1530 -0.5242
 5104TIP3    H236872   5.287   6.043   0.536  0.8223 -0.3967  1.3445
 5105TIP3   OH236873   0.312   2.393   8.557  0.0223 -0.7779  0.6576
 5105TIP3    H136874   0.218   2.385   8.543  0.3053 -1.6703 -1.0360
 5105TIP3    H236875   0.322   2.477   8.602 -1.4454  0.3595 -0.9862
 5106TIP3   OH236876   3.309   6.775   8.242 -0.0338 -0.5506  0.2391
 5106TIP3    H136877   3.269   6.694   8.273 -0.3188 -0.1630  0.9086
 5106TIP3    H236878   3.402   6.766   8.264 -0.0028 -0.8478 -0.0133
 5107TIP3   OH236879   3.184   1.373   7.498  0.1549 -0.1103  0.1870
 5107TIP3    H136880   3.174   1.366   7.403 -1.6609 -1.1571  0.4047
 5107TIP3    H236881   3.217   1.288   7.525 -3.1076 -1.3148  0.8283
 5108TIP3   OH236882   1.807   2.660   0.117  0.2608  0.1948  0.2102
 5108TIP3    H136883   1.816   2.685   0.209 -0.8215 -0.1224  0.4262
 5108TIP3    H236884   1.712   2.656   0.103  0.4095  0.1408 -0.8985
 5109TIP3   OH236885   3.542   1.102   0.463  0.1869  0.0518  0.3148
 5109TIP3    H136886   3.573   1.033   0.521 -0.9562 -0.7607  0.0088
 5109TIP3    H236887   3.459   1.069   0.429  0.3705  0.9061 -1.0582
 5110TIP3   OH236888   0.046   2.203   1.642 -0.4156 -0.3151  0.3638
 5110TIP3    H136889  -0.025   2.266   1.640  1.4381  1.9713  1.4506
 5110TIP3    H236890   0.102   2.226   1.568  1.7387  1.3236  2.3227
 5111TIP3   OH236891   2.433   0.188   0.936 -0.3874  0.5285 -0.1228
 5111TIP3    H136892   2.494   0.248   0.892  1.0662 -0.6162  0.2453
 5111TIP3    H236893   2.355   0.188   0.880 -0.1173  2.0949 -0.5714
 5112TIP3   OH236894   2.578   5.436   0.177  0.3087 -0.0469 -0.0307
 5112TIP3    H136895   2.601   5.359   0.230 -1.4163 -0.5287  0.0631
 5112TIP3    H236896   2.587   5.510   0.236  0.1508 -0.3834  0.4169
 5113TIP3   OH236897   2.934   3.494   1.362 -0.3522 -0.1793  0.1416
 5113TIP3    H136898   2.971   3.493   1.274 -1.0243 -1.6587 -0.1685
 5113TIP3    H236899   2.942   3.403   1.392 -1.6378 -0.0463  0.9547
 5114TIP3   OH236900   3.567   5.101   0.227  0.2715  0.3204 -0.0998
 5114TIP3    H136901   3.559   5.170   0.161 -2.1119  1.0401  0.8144
 5114TIP3    H236902   3.476   5.081   0.251  1.0068 -1.2487  1.6093
 5115TIP3   OH236903   6.794   1.665   8.613 -0.3682  0.2928 -0.1432
 5115TIP3    H136904   6.773   1.573   8.629  1.1531 -0.1003 -0.2236
 5115TIP3    H236905   6.773   1.710   8.695 -0.0667 -0.3371  0.2885
 5116TIP3   OH236906   4.994   6.275   0.764  0.2574 -0.0849 -0.0484
 5116TIP3    H136907   4.988   6.201   0.703 -1.8954  0.1980 -0.2675
 5116TIP3    H236908   4.986   6.352   0.708  3.5156  0.4593  0.0499
 5117TIP3   OH236909   3.155   0.742   1.495  0.0239 -0.0634  0.4584
 5117TIP3    H136910   3.223   0.717   1.557  1.9495 -0.0680 -1.5149
 5117TIP3    H236911   3.078   0.762   1.549  1.4157 -0.5926  2.7446
 5118TIP3   OH236912   3.652   0.576   0.603  0.4110  0.7863 -0.1072
 5118TIP3    H136913   3.697   0.618   0.530 -0.5125  0.1422 -1.0705
 5118TIP3    H236914   3.559   0.586   0.584  0.1144 -1.9921 -0.6011
 5119TIP3   OH236915   5.919   6.733   7.300  0.8021 -0.4867  0.3213
 5119TIP3    H136916   5.863   6.700   7.370  0.6268 -1.6448 -0.3482
 5119TIP3    H236917   5.887   6.822   7.284 -0.2886 -0.8322  0.5156
 5120TIP3   OH236918   3.452   3.705   7.046 -0.1189  0.0228 -0.0060
 5120TIP3    H136919   3.413   3.679   6.963  0.6110 -1.3341  0.0338
 5120TIP3    H236920   3.485   3.793   7.031 -1.5773  0.5012 -0.5805
 5121TIP3   OH236921   5.332   0.178   8.207 -0.6014  0.2645  0.3212
 5121TIP3    H136922   5.300   0.185   8.297  0.1930 -1.2407  0.7602
 5121TIP3    H236923   5.322   0.085   8.185  1.1576  0.1975 -0.3677
 5122TIP3   OH236924   6.184   5.624   7.086  0.4733 -0.3685  0.1976
 5122TIP3    H136925   6.177   5.676   7.166  2.2697 -0.3166  0.3796
 5122TIP3    H236926   6.275   5.637   7.057  0.2516 -1.4595 -1.1079
 5123TIP3   OH236927   2.665   0.984   7.360 -0.6507  0.1785 -0.5515
 5123TIP3    H136928   2.757   0.978   7.386 -0.2584 -0.1903 -1.9689
 5123TIP3    H236929   2.660   1.062   7.305 -1.1094 -0.0529 -0.8455
 5124TIP3   OH236930   4.172   3.376   0.831  0.7098  0.0453  0.1062
 5124TIP3    H136931   4.241   3.312   0.846  0.1991 -0.3461  0.8133
 5124TIP3    H236932   4.198   3.421   0.750  2.5705  0.9375  1.1462
 5125TIP3   OH236933   4.170   3.709   1.697 -0.8823 -0.2157  0.3576
 5125TIP3    H136934   4.127   3.779   1.747 -1.0069 -0.3023  0.3727
 5125TIP3    H236935   4.105   3.639   1.693  0.0067 -1.2198  2.2327
 5126TIP3   OH236936   6.063   4.672   6.505  0.3463  0.0566 -0.3009
 5126TIP3    H136937   6.030   4.584   6.521  0.1123 -0.1201 -1.6542
 5126TIP3    H236938   6.138   4.659   6.446 -0.1940  0.8101 -1.1743
 5127TIP3   OH236939   2.837   1.841   8.470 -0.3005  0.0047 -0.4614
 5127TIP3    H136940   2.815   1.793   8.549  0.0044 -1.4787 -1.2465
 5127TIP3    H236941   2.846   1.774   8.402 -0.1967  1.1954 -1.6809
 5128TIP3   OH236942   5.951   4.176   0.379  0.6176  0.0959  0.5359
 5128TIP3    H136943   5.970   4.138   0.465 -1.7799 -0.1700  1.0125
 5128TIP3    H236944   5.909   4.105   0.331  1.8361  0.2791 -0.8439
 5129TIP3   OH236945   4.138   6.232   1.078  0.1181  0.7113 -0.1301
 5129TIP3    H136946   4.168   6.275   1.158 -2.2738  0.9554  0.7272
 5129TIP3    H236947   4.217   6.194   1.040  1.0919 -1.4627  3.5686
 5130TIP3   OH236948   5.871   4.099   0.756  0.2470  0.0041  0.1548
 5130TIP3    H136949   5.960   4.100   0.721  0.5296 -1.7989  0.7285
 5130TIP3    H236950   5.862   4.183   0.801  1.0876  0.8743 -1.2351
 5131TIP3   OH236951   4.008   2.917   6.587  0.2155  0.2692  0.5059
 5131TIP3    H136952   4.075   2.953   6.529 -0.4207 -0.1811 -0.5458
 5131TIP3    H236953   3.939   2.983   6.590  0.0186  0.0763  0.3229
 5132TIP3   OH236954   2.056   2.689   0.522 -0.3808 -0.1807  0.0326
 5132TIP3    H136955   2.083   2.658   0.435 -0.5156 -0.4647  0.0910
 5132TIP3    H236956   2.095   2.628   0.583 -1.3772 -0.7706  0.1050
 5133TIP3   OH236957   5.114   0.444   7.797 -0.1668 -0.0308  0.1191
 5133TIP3    H136958   5.189   0.392   7.826 -0.0917  1.0553  2.0412
 5133TIP3    H236959   5.045   0.381   7.781  0.1647 -0.8140  1.5978
 5134TIP3   OH236960   1.686   4.167   1.500 -0.0610  0.4776 -0.9506
 5134TIP3    H136961   1.637   4.086   1.484 -1.0958  1.0217 -0.6781
 5134TIP3    H236962   1.629   4.236   1.467  0.2928  1.1730 -0.1582
 5135TIP3   OH236963   4.789   0.459   0.807  0.5232  0.2788 -0.4791
 5135TIP3    H136964   4.703   0.491   0.832  1.3129  0.7515  1.9231
 5135TIP3    H236965   4.818   0.519   0.738 -0.3049  1.2656 -0.0007
 5136TIP3   OH236966   2.032   5.792   7.803 -0.2423  0.1381  0.4376
 5136TIP3    H136967   1.956   5.764   7.855 -1.1263 -0.1601 -0.9611
 5136TIP3    H236968   2.048   5.882   7.831 -0.3987 -0.1656  1.5556
 5137TIP3   OH236969   5.584   1.108   0.166 -0.2016  0.0790  0.3414
 5137TIP3    H136970   5.611   1.156   0.088  0.2095  0.9510  1.0168
 5137TIP3    H236971   5.665   1.087   0.211 -0.5272  1.5944  1.7136
 5138TIP3   OH236972   5.193   2.570   8.652 -0.1512  0.3796  0.2003
 5138TIP3    H136973   5.227   2.518   8.725 -0.2276  0.2222  0.1255
 5138TIP3    H236974   5.247   2.545   8.577  1.0871  1.8328  0.5605
 5139TIP3   OH236975   2.775   3.728   0.923 -0.2074  0.2689 -0.4582
 5139TIP3    H136976   2.817   3.811   0.899 -0.9740  0.4256 -1.3285
 5139TIP3    H236977   2.816   3.663   0.867  1.1395 -0.1513  0.9540
 5140TIP3   OH236978   1.877   4.869   7.853  0.3320 -0.1586 -0.0526
 5140TIP3    H136979   1.957   4.818   7.838 -0.2131 -0.5905 -1.6520
 5140TIP3    H236980   1.815   4.806   7.889  0.5438  0.0665  0.7273
 5141TIP3   OH236981   1.824   0.272   8.178 -0.2056  0.1068 -0.3810
 5141TIP3    H136982   1.917   0.276   8.199 -0.5653  1.3033  1.2420
 5141TIP3    H236983   1.805   0.179   8.164  1.3279 -0.0873 -1.3921
 5142TIP3   OH236984   6.666   4.969   0.617  0.1855 -0.1647 -0.1034
 5142TIP3    H136985   6.700   4.980   0.706  1.7160  2.6506 -0.9203
 5142TIP3    H236986   6.730   4.911   0.575 -0.4906 -1.4251  0.5383
 5143TIP3   OH236987   5.660   2.514   6.494 -0.0051 -0.1322 -0.2550
 5143TIP3    H136988   5.728   2.550   6.437 -0.8132  1.8966 -0.0052
 5143TIP3    H236989   5.601   2.468   6.435  0.8760 -0.8471 -0.6171
 5144TIP3   OH236990   2.189   3.034   8.618 -0.0634 -0.1576  0.3481
 5144TIP3    H136991   2.164   2.987   8.698 -0.2881  1.2086  1.1230
 5144TIP3    H236992   2.257   3.095   8.647  1.5919 -1.2526 -1.0013
 5145TIP3   OH236993   0.857   3.121   8.345 -0.3834  0.4416 -0.3592
 5145TIP3    H136994   0.878   3.029   8.331  2.6252  1.2071 -1.8737
 5145TIP3    H236995   0.913   3.147   8.418 -0.1778  1.3390 -0.8178
 5146TIP3   OH236996   4.523   5.530   0.613 -0.7555 -0.3099 -0.3593
 5146TIP3    H136997   4.587   5.497   0.676  1.1872  1.3702 -1.3271
 5146TIP3    H236998   4.443   5.481   0.632  0.9118 -2.8738  0.5966
 5147TIP3   OH236999   4.739   6.075   0.778 -0.1015  0.2718 -0.4221
 5147TIP3    H137000   4.683   6.134   0.829 -0.5753  0.4507 -1.1382
 5147TIP3    H237001   4.776   6.131   0.710  0.3739 -0.0099 -0.3991
 5148TIP3   OH237002   0.240   3.288   8.029 -0.2732  0.2686 -0.5924
 5148TIP3    H137003   0.291   3.365   8.054 -1.2133  0.5907  0.4227
 5148TIP3    H237004   0.194   3.315   7.949  0.3894  0.3019 -0.9690
 5149TIP3   OH237005   5.589   3.816   1.688  0.3002 -0.2066  0.4173
 5149TIP3    H137006   5.537   3.737   1.701 -1.0465  0.5309 -0.1630
 5149TIP3    H237007   5.679   3.789   1.704 -0.1745 -1.7252  0.7234
 5150TIP3   OH237008   0.753   2.381   7.412 -0.6547  0.4954  0.6793
 5150TIP3    H137009   0.797   2.465   7.400 -0.6684  0.4568  0.3650
 5150TIP3    H237010   0.737   2.349   7.323 -1.5188  0.6145  0.7884
 5151TIP3   OH237011   2.166   4.832   0.439 -0.3872 -0.0155 -0.4798
 5151TIP3    H137012   2.152   4.787   0.355  0.3736  1.1219 -1.2485
 5151TIP3    H237013   2.082   4.825   0.484 -0.5494 -1.4162 -0.9478
 5152TIP3   OH237014   1.833   1.871   1.426 -0.0037  0.1413  0.3118
 5152TIP3    H137015   1.868   1.908   1.507 -0.0699  0.0480  0.3832
 5152TIP3    H237016   1.762   1.931   1.402 -0.0490  0.1143  0.3763
 5153TIP3   OH237017   3.524   2.189   0.623 -0.6059 -0.0238  0.2408
 5153TIP3    H137018   3.536   2.159   0.713  0.0427 -0.9488 -0.1351
 5153TIP3    H237019   3.585   2.261   0.612 -2.4816  1.8251  1.2888
 5154TIP3   OH237020   4.380   0.367   1.328  0.5858 -0.9136 -0.0654
 5154TIP3    H137021   4.439   0.338   1.258 -0.8191 -1.4177 -1.0787
 5154TIP3    H237022   4.419   0.449   1.360  0.9485 -0.3512 -1.8437
 5155TIP3   OH237023   5.309   1.123   7.332  0.4171 -0.3144  0.7242
 5155TIP3    H137024   5.256   1.051   7.366  2.7814 -1.4434  2.2928
 5155TIP3    H237025   5.281   1.199   7.383 -0.0240 -0.7844  1.1997
 5156TIP3   OH237026   4.582   2.578   6.397  0.4812  0.6047 -0.7091
 5156TIP3    H137027   4.628   2.541   6.322  2.3090  0.4169  0.4311
 5156TIP3    H237028   4.560   2.502   6.452 -0.6254  0.7612 -0.9065
 5157TIP3   OH237029   3.261   5.646   0.826  1.0748 -0.1777 -0.2893
 5157TIP3    H137030   3.166   5.643   0.840  0.9772 -0.7559 -0.9910
 5157TIP3    H237031   3.298   5.596   0.898  0.6937 -1.8123 -1.1777
 5158TIP3   OH237032   5.143   6.081   2.342 -0.4967  0.2708  0.1814
 5158TIP3    H137033   5.102   6.162   2.313 -0.4986  0.2790  0.2071
 5158TIP3    H237034   5.115   6.072   2.433  0.8123  1.0902  0.7019
 5159TIP3   OH237035   4.295   3.511   0.631  0.4987 -0.0877 -0.1346
 5159TIP3    H137036   4.382   3.517   0.671  1.4193 -1.7323 -1.7335
 5159TIP3    H237037   4.266   3.602   0.621  2.0329  0.4889  0.4167
 5160TIP3   OH237038   3.306   6.799   0.314 -0.5309  0.0364  0.2644
 5160TIP3    H137039   3.222   6.754   0.313 -1.3798  1.4258  2.1835
 5160TIP3    H237040   3.289   6.882   0.269  0.2321 -0.3049 -0.6737
 5161TIP3   OH237041   4.834   6.197   0.553 -0.3116  0.9624 -0.1360
 5161TIP3    H137042   4.767   6.135   0.524  2.1033 -1.0744 -1.9529
 5161TIP3    H237043   4.867   6.236   0.472  0.2572  2.3751  0.7452
 5162TIP3   OH237044   6.306   5.190   8.695  0.2054  0.3731 -0.5018
 5162TIP3    H137045   6.343   5.236   8.619  3.5589 -1.3155 -0.0734
 5162TIP3    H237046   6.312   5.097   8.672 -1.7702 -0.0935  0.6241
 5163TIP3   OH237047   0.088   6.533   6.688 -0.0080 -0.0347 -0.1654
 5163TIP3    H137048   0.052   6.612   6.727 -0.8488 -0.8435  0.7408
 5163TIP3    H237049   0.103   6.556   6.596 -3.1302  0.2694 -0.6849
 5164TIP3   OH237050   0.069   0.641   0.595 -0.5633  0.5894  0.4201
 5164TIP3    H137051   0.028   0.728   0.593  0.2904  1.0556 -2.9379
 5164TIP3    H237052   0.157   0.655   0.562  0.0263 -1.4240  0.9789
 5165TIP3   OH237053   4.641   2.626   0.826  0.4746 -0.6458  0.1784
 5165TIP3    H137054   4.602   2.676   0.755 -1.4424 -1.8833  0.2771
 5165TIP3    H237055   4.606   2.668   0.906  1.9039  0.1831  0.3973
 5166TIP3   OH237056   6.054   0.337   0.442  0.4451  0.5031 -0.0657
 5166TIP3    H137057   6.036   0.419   0.488  0.8264  0.6048 -0.0893
 5166TIP3    H237058   6.122   0.296   0.495  2.0686  1.3727 -1.3804
 5167TIP3   OH237059   1.601   3.017   1.254  0.1455  0.3870  0.2686
 5167TIP3    H137060   1.584   3.054   1.167  0.5509  1.5049  0.6374
 5167TIP3    H237061   1.685   2.973   1.246  0.4415  0.9536  0.2206
 5168TIP3   OH237062   5.271   4.464   7.998 -0.1015  0.3746  0.7774
 5168TIP3    H137063   5.354   4.446   8.042  0.5038  2.4231  0.5672
 5168TIP3    H237064   5.278   4.418   7.914  0.2405 -0.5670  1.3069
 5169TIP3   OH237065   4.021   6.110   0.846  0.4922  0.1106  0.1276
 5169TIP3    H137066   3.958   6.179   0.826  0.3234 -0.3969 -1.2097
 5169TIP3    H237067   4.082   6.151   0.907 -1.8746  0.1960  2.6105
 5170TIP3   OH237068   0.550   6.751   0.827  0.1908  0.0514  0.0255
 5170TIP3    H137069   0.523   6.670   0.782 -0.3481  0.7056 -0.8666
 5170TIP3    H237070   0.480   6.813   0.808 -0.3053  0.2289  2.2194
 5171TIP3   OH237071   2.517   3.875   7.626  0.2869 -0.0231 -0.0155
 5171TIP3    H137072   2.455   3.837   7.564 -0.4944  0.1699  0.6345
 5171TIP3    H237073   2.504   3.826   7.707 -0.8010  1.6205  0.8729
 5172TIP3   OH237074   5.763   5.199   8.379  0.5597  0.8539 -0.4279
 5172TIP3    H137075   5.685   5.237   8.420  0.5684  0.6037 -0.1794
 5172TIP3    H237076   5.818   5.172   8.452  0.6641  0.5937 -0.6017
 5173TIP3   OH237077   5.506   2.550   2.130 -0.1261 -0.3633 -0.1334
 5173TIP3    H137078   5.510   2.632   2.179  1.3882 -0.7603  0.4946
 5173TIP3    H237079   5.472   2.574   2.044  1.2095  1.1196 -0.2964
 5174TIP3   OH237080   4.743   4.235   0.420  0.3311  0.0457  0.1683
 5174TIP3    H137081   4.786   4.267   0.499 -1.9447  1.8918  0.7830
 5174TIP3    H237082   4.813   4.229   0.355  1.7746  1.2773  1.5374
 5175TIP3   OH237083   2.593   1.601   1.196 -0.5410 -0.6905  0.1986
 5175TIP3    H137084   2.527   1.609   1.265 -1.0771 -2.4519 -0.0538
 5175TIP3    H237085   2.543   1.583   1.117  0.0638  1.3690 -0.7193
 5176TIP3   OH237086   1.452   1.975   2.358 -0.0569 -0.3945 -0.1119
 5176TIP3    H137087   1.513   2.015   2.296 -0.6298  1.0853  0.2304
 5176TIP3    H237088   1.507   1.949   2.432  0.3666 -0.4764 -0.4515
 5177TIP3   OH237089   1.650   0.407   7.999 -0.0893 -0.2720  0.0169
 5177TIP3    H137090   1.688   0.407   7.911 -1.9047 -1.9816 -0.8630
 5177TIP3    H237091   1.695   0.337   8.045  0.7649  0.5326  0.4340
 5178TIP3   OH237092   5.775   6.534   0.383 -0.0245 -0.4378  0.1484
 5178TIP3    H137093   5.723   6.501   0.457  1.6060  0.6954  1.8789
 5178TIP3    H237094   5.721   6.604   0.346 -0.1470  0.1276  1.3499
 5179TIP3   OH237095   1.881   3.527   7.871  0.5955 -0.1086 -0.0324
 5179TIP3    H137096   1.912   3.452   7.920  3.1148  0.2315 -0.9413
 5179TIP3    H237097   1.947   3.595   7.887 -1.1330  1.6529  0.0554
 5180TIP3   OH237098   6.406   6.735   8.166  0.2539  0.0778 -0.5554
 5180TIP3    H137099   6.393   6.743   8.261 -0.1543 -0.0781 -0.5941
 5180TIP3    H237100   6.319   6.750   8.129  0.4113  0.1402 -0.9075
 5181TIP3   OH237101   1.186   4.771   7.000  0.5168 -0.3827 -0.3878
 5181TIP3    H137102   1.259   4.831   7.017 -0.3443  0.7247 -0.4443
 5181TIP3    H237103   1.213   4.721   6.923  0.7290  0.8724 -1.1568
 5182TIP3   OH237104   5.691   1.287   7.388 -0.3387 -0.3782  0.3604
 5182TIP3    H137105   5.645   1.345   7.449 -0.6445 -0.7824  0.5139
 5182TIP3    H237106   5.625   1.261   7.325  0.1107  0.5186 -0.5095
 5183TIP3   OH237107   6.821   2.461   7.719  0.0871 -0.0081 -0.0816
 5183TIP3    H137108   6.844   2.551   7.695  2.1365 -0.2238  0.8102
 5183TIP3    H237109   6.888   2.436   7.783 -2.2685 -1.1046  2.1226
 5184TIP3   OH237110   5.185   6.215   8.647  0.3197  0.2166  0.2474
 5184TIP3    H137111   5.093   6.190   8.655 -0.0163  1.0348 -0.8272
 5184TIP3    H237112   5.188   6.307   8.674  0.9353  0.0482  0.8079
 5185TIP3   OH237113   5.080   5.773   1.560  0.3925 -0.8217 -0.4875
 5185TIP3    H137114   4.986   5.790   1.554  0.4032 -1.0060 -1.3068
 5185TIP3    H237115   5.120   5.854   1.527  0.4671 -1.7251 -2.7766
 5186TIP3   OH237116   5.028   3.232   1.181  0.5781  0.2161 -0.0908
 5186TIP3    H137117   5.053   3.142   1.159  0.7228  0.5016 -1.1340
 5186TIP3    H237118   5.077   3.287   1.120 -0.4113  0.9427 -0.2599
 5187TIP3   OH237119   3.361   6.450   2.490 -0.3066  0.7828 -0.2116
 5187TIP3    H137120   3.440   6.499   2.514 -0.0066 -0.4044  1.4025
 5187TIP3    H237121   3.358   6.378   2.553 -2.1622  0.2454 -0.8667
 5188TIP3   OH237122   0.816   1.102   6.674  0.4515  0.0873 -0.4805
 5188TIP3    H137123   0.754   1.049   6.624 -0.0917  1.1323 -0.9674
 5188TIP3    H237124   0.835   1.176   6.616  2.1128 -0.1730 -0.3107
 5189TIP3   OH237125   2.574   1.838   1.494  0.6383  0.3127 -0.4069
 5189TIP3    H137126   2.518   1.910   1.465  0.2535  0.8044  1.3921
 5189TIP3    H237127   2.546   1.762   1.443 -1.8364  0.5051  0.5416
 5190TIP3   OH237128   2.250   0.893   1.159 -0.5846  0.0115  0.1110
 5190TIP3    H137129   2.286   0.819   1.110 -1.7589 -1.1102  0.8569
 5190TIP3    H237130   2.248   0.965   1.097  0.4080 -0.6333 -0.7005
 5191TIP3   OH237131   0.444   3.998   6.512 -0.1377 -0.1398 -0.2926
 5191TIP3    H137132   0.360   4.001   6.557  0.2609  0.6440  0.4312
 5191TIP3    H237133   0.436   3.924   6.451 -0.1152 -2.3712  2.2252
 5192TIP3   OH237134   0.819   3.473   7.665 -0.2753 -0.0823  0.1548
 5192TIP3    H137135   0.843   3.530   7.592  1.1572  0.7816  1.2351
 5192TIP3    H237136   0.856   3.388   7.643 -0.7457 -0.0971 -0.5884
 5193TIP3   OH237137   2.558   1.908   2.179  0.7304 -0.7432 -0.4178
 5193TIP3    H137138   2.473   1.936   2.212  0.9936  0.0614 -0.4047
 5193TIP3    H237139   2.597   1.987   2.142  2.1571 -0.7266  1.0304
 5194TIP3   OH237140   3.864   4.194   7.238  0.1255  0.8251  0.0238
 5194TIP3    H137141   3.861   4.180   7.143 -0.1632 -2.2594  0.3863
 5194TIP3    H237142   3.773   4.214   7.262 -0.0210  0.4534 -0.2129
 5195TIP3   OH237143   2.679   1.469   6.895  0.2095  0.4676 -0.6616
 5195TIP3    H137144   2.626   1.545   6.917  0.6993  0.6418 -0.0558
 5195TIP3    H237145   2.768   1.503   6.888  0.2969  0.1163 -1.3188
 5196TIP3   OH237146   5.685   1.285   8.682  0.2312 -0.1421  0.2920
 5196TIP3    H137147   5.697   1.331   8.765  2.0742 -1.2731  0.6995
 5196TIP3    H237148   5.736   1.335   8.619 -0.9681  0.5748 -0.1346
 5197TIP3   OH237149   5.783   6.635   0.746  0.2004  0.4405 -0.5198
 5197TIP3    H137150   5.878   6.628   0.758 -0.0115 -0.2334  1.0160
 5197TIP3    H237151   5.761   6.720   0.782  0.1828  0.4814 -0.6270
 5198TIP3   OH237152   0.769   1.402   1.585  0.2927  0.2353  0.1004
 5198TIP3    H137153   0.771   1.317   1.628  0.5964 -0.2433 -0.8259
 5198TIP3    H237154   0.700   1.394   1.519  0.4950  0.6182 -0.1650
 5199TIP3   OH237155   2.278   1.418   0.680  0.9096  0.6006  0.4350
 5199TIP3    H137156   2.247   1.362   0.751 -1.8180  0.8706 -0.4019
 5199TIP3    H237157   2.266   1.507   0.713  0.8434  0.7140  0.1088
 5200TIP3   OH237158   3.804   4.294   6.349  0.3725  0.3107  0.3886
 5200TIP3    H137159   3.754   4.237   6.290  0.3039  0.5136  0.2508
 5200TIP3    H237160   3.848   4.233   6.409  0.1727  0.1192  0.3424
 5201TIP3   OH237161   2.195   4.675   8.428 -0.2002  0.1739  0.1950
 5201TIP3    H137162   2.285   4.702   8.446 -1.0321  0.9550  3.9853
 5201TIP3    H237163   2.169   4.728   8.352  2.4938 -0.1815 -1.0956
 5202TIP3   OH237164   3.183   4.130   1.554  0.2094 -0.2824  0.1637
 5202TIP3    H137165   3.184   4.222   1.528  0.6340 -0.5139 -0.7052
 5202TIP3    H237166   3.216   4.129   1.644  0.6295  0.3696  0.0211
 5203TIP3   OH237167   5.321   4.817   1.198  0.1833 -0.1884  0.0353
 5203TIP3    H137168   5.278   4.891   1.241 -0.8317 -0.0363 -1.1983
 5203TIP3    H237169   5.323   4.748   1.264  2.8705  1.4710  1.8942
 5204TIP3   OH237170   3.139   3.640   1.912  0.2342 -0.1676  0.2264
 5204TIP3    H137171   3.153   3.652   2.006  1.5927 -0.0239  0.0295
 5204TIP3    H237172   3.078   3.567   1.906  1.9122 -1.7571  1.2069
 5205TIP3   OH237173   1.232   2.991   0.889  0.1943 -0.0293  0.0630
 5205TIP3    H137174   1.241   2.896   0.902  1.5540 -0.3290 -2.3306
 5205TIP3    H237175   1.142   3.002   0.861  0.0030 -0.6195  0.4213
 5206TIP3   OH237176   3.793   6.415   7.588  0.0830  0.3794 -0.8392
 5206TIP3    H137177   3.757   6.381   7.507 -0.0764 -0.3553 -0.4682
 5206TIP3    H237178   3.828   6.338   7.633 -1.6920  0.4325  0.7472
 5207TIP3   OH237179   0.732   1.539   7.405  0.3352  0.6261 -0.4034
 5207TIP3    H137180   0.677   1.579   7.472  2.2337 -0.3079  1.8556
 5207TIP3    H237181   0.694   1.451   7.393  1.8177 -0.4501  1.9916
 5208TIP3   OH237182   0.977   1.540   7.063  0.2817 -0.3404 -0.5767
 5208TIP3    H137183   0.924   1.619   7.061  1.1596  0.2631 -0.4967
 5208TIP3    H237184   0.933   1.484   7.127  0.1649  0.4521  0.0530
 5209TIP3   OH237185   0.940   4.006   8.427 -0.4909  0.0640 -0.7662
 5209TIP3    H137186   0.941   4.074   8.360 -2.0820 -0.2219 -1.1288
 5209TIP3    H237187   0.882   3.938   8.391  0.0340 -0.8988  0.1459
 5210TIP3   OH237188   5.277   2.362   7.219  0.0438 -0.6923 -0.4296
 5210TIP3    H137189   5.329   2.291   7.182  0.0887 -0.5811 -0.5798
 5210TIP3    H237190   5.249   2.329   7.305  1.8367 -0.0779  0.4497
 5211TIP3   OH237191   2.745   2.472   8.543  0.3581 -0.3472 -0.3169
 5211TIP3    H137192   2.655   2.492   8.516 -0.1659 -0.6723  1.0880
 5211TIP3    H237193   2.766   2.540   8.607  1.0458 -0.4018 -0.4766
 5212TIP3   OH237194   4.589   2.941   7.634  0.4476  0.3548 -0.1119
 5212TIP3    H137195   4.596   2.970   7.543 -1.4565  1.3157  0.0071
 5212TIP3    H237196   4.524   2.871   7.632  1.8134 -0.9881  0.2678
 5213TIP3   OH237197   3.379   0.799   8.561 -0.4654  0.4020 -0.0219
 5213TIP3    H137198   3.371   0.853   8.483 -0.0211  0.0680 -0.3032
 5213TIP3    H237199   3.297   0.813   8.609 -0.0671  1.8947  0.2808
 5214TIP3   OH237200   5.829   3.141   7.911  0.2418 -0.2145  0.4192
 5214TIP3    H137201   5.838   3.146   7.816  0.7725 -3.5398  0.1991
 5214TIP3    H237202   5.902   3.193   7.945  0.2696  0.6963 -0.9476
 5215TIP3   OH237203   2.251   0.126   6.811 -0.1396 -0.0022  0.5737
 5215TIP3    H137204   2.324   0.066   6.819 -0.3164 -0.1121  1.3829
 5215TIP3    H237205   2.207   0.100   6.730  1.1259  0.5308 -0.3084
 5216TIP3   OH237206   3.365   3.588   1.391 -0.4030 -0.4140  0.2070
 5216TIP3    H137207   3.294   3.625   1.339  0.3796 -1.0409 -1.4149
 5216TIP3    H237208   3.350   3.619   1.480 -0.6350  2.4724 -0.7557
 5217TIP3   OH237209   5.692   5.370   2.509 -0.5024 -0.0871 -0.3964
 5217TIP3    H137210   5.606   5.381   2.468  0.0479 -0.6210 -1.7212
 5217TIP3    H237211   5.690   5.282   2.545 -1.0077  0.4024  0.8500
 5218TIP3   OH237212   6.003   5.917   0.936  0.2409 -0.5407  0.0381
 5218TIP3    H137213   6.032   5.867   0.859  0.4978  0.2447 -0.3930
 5218TIP3    H237214   6.039   5.869   1.010  0.5903 -0.9323 -0.3737
 5219TIP3   OH237215   5.447   0.616   0.009 -0.3075  0.4689  0.3886
 5219TIP3    H137216   5.517   0.626  -0.056 -0.1636  0.6315  0.5638
 5219TIP3    H237217   5.481   0.551   0.071 -1.0608 -0.7938 -0.5051
 5220TIP3   OH237218   5.594   3.239   6.986 -0.3273  0.1536  0.4316
 5220TIP3    H137219   5.658   3.214   6.920 -1.7718  1.5035 -1.5841
 5220TIP3    H237220   5.513   3.197   6.958 -0.9848  0.7566  1.3538
 5221TIP3   OH237221   3.010   2.770   6.793 -0.1864 -0.4754  0.1321
 5221TIP3    H137222   3.031   2.785   6.701 -0.5184  0.2886  0.1704
 5221TIP3    H237223   3.037   2.850   6.837 -1.6630 -0.1117  0.4255
 5222TIP3   OH237224   4.410   3.644   1.023 -0.2728 -0.0780  0.1496
 5222TIP3    H137225   4.342   3.690   1.073  0.5046  0.4164  0.7850
 5222TIP3    H237226   4.433   3.569   1.077 -0.9745 -0.7765 -0.5127
 5223TIP3   OH237227   5.188   1.093   6.929 -0.0987 -0.1536  0.4204
 5223TIP3    H137228   5.163   1.003   6.951 -0.4068 -0.5417 -1.4055
 5223TIP3    H237229   5.113   1.128   6.881  0.6456  0.5322 -0.2774
 5224TIP3   OH237230   3.759   1.138   8.599  0.5560  0.1733  0.5980
 5224TIP3    H137231   3.693   1.095   8.545  0.5415  0.3042  0.5114
 5224TIP3    H237232   3.760   1.228   8.568  1.7390 -0.1369 -0.3126
 5225TIP3   OH237233   1.467   5.430   0.315  0.9312 -0.5435  0.0334
 5225TIP3    H137234   1.451   5.432   0.409 -1.5128  0.2953 -0.3287
 5225TIP3    H237235   1.554   5.469   0.304  0.9988 -0.0939  1.8923
 5226TIP3   OH237236   6.512   6.472   7.437 -0.7656  0.0093  0.4302
 5226TIP3    H137237   6.482   6.563   7.448 -2.6383 -0.4692 -0.3477
 5226TIP3    H237238   6.480   6.427   7.515 -0.5508 -0.1583  0.4213
 5227TIP3   OH237239   3.247   3.497   0.168 -0.2847 -0.2875  0.1753
 5227TIP3    H137240   3.208   3.584   0.181 -2.2005 -0.7956 -1.5441
 5227TIP3    H237241   3.332   3.515   0.128 -1.1144  0.8580 -1.2058
 5228TIP3   OH237242   4.688   4.123   1.246  0.0135 -0.4484 -0.6150
 5228TIP3    H137243   4.611   4.093   1.197 -0.0707 -0.6642 -0.3562
 5228TIP3    H237244   4.705   4.052   1.308  2.2635 -1.8429 -2.6542
 5229TIP3   OH237245   2.546   4.447   1.100  0.7129 -0.2278  0.3462
 5229TIP3    H137246   2.603   4.422   1.027 -0.5465  0.5146 -0.9442
 5229TIP3    H237247   2.600   4.507   1.152  0.9524  0.9674 -1.1958
 5230TIP3   OH237248   5.761   3.688   0.060 -0.2157 -0.1043  0.0708
 5230TIP3    H137249   5.818   3.612   0.046  0.2265  0.5645 -2.2207
 5230TIP3    H237250   5.689   3.675  -0.001 -1.2600  0.3061  1.1799
 5231TIP3   OH237251   2.672   5.781   0.876 -0.0456 -0.3000 -0.1537
 5231TIP3    H137252   2.765   5.757   0.877  0.1953  0.5025  1.4463
 5231TIP3    H237253   2.638   5.743   0.796  2.0469  0.8098 -1.6810
 5232TIP3   OH237254   6.313   1.091   0.353  0.1500  0.3183  0.0374
 5232TIP3    H137255   6.347   1.152   0.418  0.8702 -0.2917  0.2496
 5232TIP3    H237256   6.351   1.120   0.271  0.3833  0.2369  0.1163
 5233TIP3   OH237257   1.874   5.725   7.589 -0.3837  0.1871 -0.0848
 5233TIP3    H137258   1.867   5.645   7.641 -0.7206  0.4194  0.2339
 5233TIP3    H237259   1.930   5.782   7.640 -0.4294  0.2845 -0.1436
 5234TIP3   OH237260   6.121   5.890   8.041 -0.2447  0.7438 -0.6064
 5234TIP3    H137261   6.195   5.848   7.997  0.5507  1.3782  0.0928
 5234TIP3    H237262   6.082   5.820   8.094  0.6999  0.7223  0.0834
 5235TIP3   OH237263   3.733   4.082   8.123  0.0734 -0.1225 -0.0846
 5235TIP3    H137264   3.769   4.028   8.053 -0.6297  0.2616 -0.7543
 5235TIP3    H237265   3.655   4.036   8.152 -1.1553  1.0287 -1.4066
 5236TIP3   OH237266   1.234   5.121   1.605 -0.1932 -0.2011  0.2106
 5236TIP3    H137267   1.182   5.201   1.611  2.1239  1.3553  0.5868
 5236TIP3    H237268   1.204   5.078   1.525 -1.9430  0.6664  0.3619
 5237TIP3   OH237269   3.040   1.366   0.334  0.1457 -0.8386  0.6019
 5237TIP3    H137270   3.082   1.447   0.363  1.2225 -1.0183 -0.3869
 5237TIP3    H237271   2.962   1.358   0.389 -0.6318  1.4854 -0.0636
 5238TIP3   OH237272   2.775   5.809   1.230 -0.1550  0.4198 -0.2779
 5238TIP3    H137273   2.780   5.778   1.321  0.3931  0.0659 -0.4237
 5238TIP3    H237274   2.702   5.760   1.192  0.6172 -0.6366 -0.4688
 5239TIP3   OH237275   6.016   4.456   7.870 -0.0012  0.2550 -0.4685
 5239TIP3    H137276   6.100   4.496   7.889 -1.0340  1.6867  1.5173
 5239TIP3    H237277   5.980   4.509   7.798  0.5196  0.0370 -0.8934
 5240TIP3   OH237278   5.163   1.480   7.090 -0.0376 -0.1311  0.6671
 5240TIP3    H137279   5.096   1.443   7.147  0.1845 -0.5326  0.6742
 5240TIP3    H237280   5.238   1.494   7.148  0.7173 -1.9468  0.2173
 5241TIP3   OH237281   0.639   5.462   2.618  0.4984 -0.0032  0.0188
 5241TIP3    H137282   0.667   5.439   2.530 -0.0388 -1.2904  0.1533
 5241TIP3    H237283   0.678   5.548   2.635 -0.3476  0.7989 -1.8866
 5242TIP3   OH237284   0.435   3.284   1.463 -0.4104  0.2115 -0.2550
 5242TIP3    H137285   0.508   3.298   1.402  0.5962  0.0947  0.8753
 5242TIP3    H237286   0.477   3.279   1.549 -1.3050 -3.2214  0.1416
 5243TIP3   OH237287   0.272   1.909   1.969 -0.0613  0.3900  0.5748
 5243TIP3    H137288   0.314   1.963   2.037  0.2188  2.0083 -0.8196
 5243TIP3    H237289   0.191   1.955   1.949  1.2096  1.6443 -2.2058
 5244TIP3   OH237290   5.097   3.660   1.185  0.1016  0.4951 -0.2858
 5244TIP3    H137291   5.039   3.628   1.254 -0.0614  0.8224 -0.2697
 5244TIP3    H237292   5.185   3.652   1.222 -0.1251  3.3767  1.1219
 5245TIP3   OH237293   1.551   6.428   8.216 -0.0788 -0.1412 -0.0463
 5245TIP3    H137294   1.553   6.397   8.125  0.3630 -1.3060  0.3441
 5245TIP3    H237295   1.641   6.419   8.247 -0.3893 -0.5944  0.7648
 5246TIP3   OH237296   3.974   2.832   0.506  0.6591 -0.4078  0.4088
 5246TIP3    H137297   3.915   2.860   0.437 -0.1396  0.0622  1.2663
 5246TIP3    H237298   4.034   2.771   0.463  0.3984  0.1406 -0.7673
 5247TIP3   OH237299   3.610   0.952   0.063  0.1658 -0.0788 -0.4468
 5247TIP3    H137300   3.532   1.006   0.074 -0.1634 -0.6121 -0.0701
 5247TIP3    H237301   3.673   1.008   0.018 -0.7359  0.0844 -1.5466
 5248TIP3   OH237302   0.417   0.955   1.846  0.0326 -0.5755 -0.4298
 5248TIP3    H137303   0.339   0.913   1.883 -0.4429 -1.2694 -2.0991
 5248TIP3    H237304   0.408   1.047   1.868  0.4149 -1.0876  2.1795
 5249TIP3   OH237305   1.450   3.448   7.598  0.5815 -0.0765  0.0683
 5249TIP3    H137306   1.434   3.514   7.665 -1.2398  0.2193 -0.5777
 5249TIP3    H237307   1.372   3.392   7.601  0.6948 -0.3704 -1.4006
 5250TIP3   OH237308   2.574   2.393   0.926  0.1207 -0.1765 -0.0207
 5250TIP3    H137309   2.604   2.480   0.953 -1.0737 -0.3376  2.0317
 5250TIP3    H237310   2.490   2.410   0.882  0.0859 -0.2554  0.0163
 5251TIP3   OH237311   0.113   3.580   2.129 -0.6203 -0.0927  0.1477
 5251TIP3    H137312   0.174   3.638   2.176  0.1073 -0.5066 -0.2639
 5251TIP3    H237313   0.034   3.579   2.183 -1.3800  2.7481 -0.7404
 5252TIP3   OH237314   2.565   5.676   1.089  0.0293 -0.3196 -0.0322
 5252TIP3    H137315   2.475   5.656   1.064  0.3304 -0.9401 -0.6486
 5252TIP3    H237316   2.607   5.703   1.007  0.7667 -1.3883 -0.0317
 5253TIP3   OH237317   3.020   6.526   7.582 -0.6166 -0.3824 -0.1919
 5253TIP3    H137318   3.046   6.605   7.630  1.9260 -0.6007 -1.0761
 5253TIP3    H237319   3.026   6.551   7.490  1.3371 -1.8276 -0.5332
 5254TIP3   OH237320   2.161   3.513   1.102  0.8657  0.0806  0.5362
 5254TIP3    H137321   2.091   3.463   1.145  1.1170 -0.0334  0.8140
 5254TIP3    H237322   2.114   3.579   1.051  0.5781  1.3294  2.3159
 5255TIP3   OH237323   4.074   5.921   7.279 -0.0902 -0.0787  0.3986
 5255TIP3    H137324   4.136   5.960   7.218 -1.3185 -0.3897 -1.1072
 5255TIP3    H237325   4.114   5.838   7.304  0.0872 -0.2899 -0.5686
 5256TIP3   OH237326   3.072   4.345   6.816 -0.3886  0.0456 -0.0489
 5256TIP3    H137327   3.064   4.344   6.721  1.6908 -0.7394 -0.2649
 5256TIP3    H237328   2.984   4.367   6.847 -1.0792  0.4709 -2.1349
 5257TIP3   OH237329   5.699   2.353   2.183 -0.0385  0.2737  0.1181
 5257TIP3    H137330   5.627   2.415   2.173  0.8542  1.4677  0.8585
 5257TIP3    H237331   5.666   2.272   2.143 -1.3235  1.1324 -0.6536
 5258TIP3   OH237332   6.389   2.142   7.203  0.5292 -0.3653 -0.2234
 5258TIP3    H137333   6.363   2.062   7.249 -0.3558 -0.4712 -0.8991
 5258TIP3    H237334   6.396   2.116   7.112 -0.4462  0.4897 -0.5534
 5259TIP3   OH237335   2.478   6.523   7.689  0.2264  0.1688 -0.3280
 5259TIP3    H137336   2.490   6.431   7.711  0.2233 -0.2104 -1.7887
 5259TIP3    H237337   2.564   6.563   7.704  0.4713 -0.2670 -0.5541
 5260TIP3   OH237338   3.214   6.180   1.548  0.5871 -0.7408 -0.2065
 5260TIP3    H137339   3.306   6.205   1.558  0.1827  0.8170 -0.2142
 5260TIP3    H237340   3.217   6.084   1.543  2.2285 -0.7168 -0.4872
 5261TIP3   OH237341   1.748   6.705   6.346  0.0079  0.2722  1.0863
 5261TIP3    H137342   1.817   6.759   6.307 -0.2253 -0.0087  0.2697
 5261TIP3    H237343   1.667   6.750   6.322 -0.3286 -1.4511 -1.3336
 5262TIP3   OH237344   3.003   2.557   8.721 -0.1715 -0.3043  0.2960
 5262TIP3    H137345   2.914   2.523   8.718 -0.3577  0.2605 -0.7347
 5262TIP3    H237346   3.012   2.593   8.810 -1.2561  0.4226  0.1172
 5263TIP3   OH237347   3.126   5.314   1.019 -0.6245  0.4733 -0.8798
 5263TIP3    H137348   3.206   5.349   1.056  0.2740 -0.6359 -1.6728
 5263TIP3    H237349   3.132   5.332   0.925 -0.5331 -0.9698 -1.1851
 5264TIP3   OH237350   0.491   2.351   0.076 -0.0139 -0.0371 -0.1808
 5264TIP3    H137351   0.421   2.300   0.117  0.8473  0.5533  2.1711
 5264TIP3    H237352   0.551   2.284   0.042  0.5979 -0.7056  1.9868
 5265TIP3   OH237353   0.213   4.040   1.600 -0.3270  0.5095 -0.5581
 5265TIP3    H137354   0.245   4.021   1.512 -3.1602 -1.6881 -1.2277
 5265TIP3    H237355   0.148   4.109   1.588 -0.7473  0.1783 -0.1894
 5266TIP3   OH237356   2.882   5.171   0.690  0.9148 -0.8019 -0.3376
 5266TIP3    H137357   2.854   5.083   0.716 -0.2693 -0.4205 -0.2502
 5266TIP3    H237358   2.823   5.195   0.620  1.0521  0.0323 -0.1737
 5267TIP3   OH237359   0.298   2.777   7.685 -0.0750 -0.2423 -0.8586
 5267TIP3    H137360   0.322   2.739   7.600 -1.3496 -1.4822 -0.7078
 5267TIP3    H237361   0.204   2.757   7.693  0.4792 -2.1552  1.8575
 5268TIP3   OH237362   5.931   3.905   2.625 -0.2764 -0.2718  0.2745
 5268TIP3    H137363   5.850   3.860   2.648 -0.5578 -0.0440 -0.2351
 5268TIP3    H237364   5.972   3.850   2.559 -0.5423  0.1239 -0.2333
 5269TIP3   OH237365   6.519   0.429   6.891 -0.0890 -0.5025  0.6257
 5269TIP3    H137366   6.573   0.486   6.837 -1.9972  1.5657  0.7185
 5269TIP3    H237367   6.468   0.378   6.828  0.3893 -0.8472  0.5173
 5270TIP3   OH237368   0.548   5.695   1.981  0.2157  0.2744 -0.2347
 5270TIP3    H137369   0.630   5.646   1.993 -0.5898 -1.2338 -0.5925
 5270TIP3    H237370   0.561   5.745   1.901  1.4465  1.5274  0.6933
 5271TIP3   OH237371   5.665   6.463   1.536 -0.4816  0.2577  0.0470
 5271TIP3    H137372   5.592   6.434   1.592 -0.5117  1.4726  0.6670
 5271TIP3    H237373   5.728   6.391   1.542 -0.6619  0.1717  1.3311
 5272TIP3   OH237374   4.962   1.859   7.074 -0.3298  0.1716  0.4003
 5272TIP3    H137375   5.042   1.910   7.068  0.5694 -0.9717  1.7075
 5272TIP3    H237376   4.936   1.843   6.984  0.4460  1.2805 -0.0337
 5273TIP3   OH237377   5.751   2.615   0.921  0.1257 -0.3833  0.2545
 5273TIP3    H137378   5.718   2.602   1.010 -0.7035  0.5272  0.0899
 5273TIP3    H237379   5.726   2.535   0.875 -1.0296 -0.1126  0.3829
 5274TIP3   OH237380   5.595   3.948   0.967 -0.4905  0.6845 -0.6086
 5274TIP3    H137381   5.659   3.890   1.007 -0.3159  1.2327 -0.0624
 5274TIP3    H237382   5.637   4.034   0.967 -1.2985  1.0996 -0.0143
 5275TIP3   OH237383   3.219   1.382   6.471 -0.1097 -0.0497 -0.4815
 5275TIP3    H137384   3.239   1.293   6.500 -2.2706  0.2508  2.3336
 5275TIP3    H237385   3.137   1.374   6.422  0.2393  0.2979 -1.1442
 5276TIP3   OH237386   5.546   3.472   8.699  0.8266  0.4832  0.3891
 5276TIP3    H137387   5.537   3.525   8.778  2.9432  0.3235  0.8109
 5276TIP3    H237388   5.473   3.410   8.703  0.0368  1.4430  1.4285
 5277TIP3   OH237389   6.042   6.758   1.116 -0.5005  0.2716  0.1604
 5277TIP3    H137390   5.951   6.783   1.102 -0.8666 -1.0422  0.0357
 5277TIP3    H237391   6.067   6.713   1.035  1.0115  2.5843 -0.7584
 5278TIP3   OH237392   0.961   6.369   6.470 -0.1800  0.0722 -0.0816
 5278TIP3    H137393   0.918   6.339   6.390  2.2148  0.3531 -1.5547
 5278TIP3    H237394   0.981   6.461   6.455  1.1464 -0.1040  0.4051
 5279TIP3   OH237395   1.844   0.580   2.196 -0.2451  0.2037  0.2884
 5279TIP3    H137396   1.851   0.490   2.165  0.3723  0.5842 -0.7105
 5279TIP3    H237397   1.770   0.617   2.147 -0.1696  0.3915  0.3171
 5280TIP3   OH237398   4.587   2.985   0.533  0.5709  0.0315 -0.3213
 5280TIP3    H137399   4.499   3.021   0.519  0.8657  0.8166 -0.2153
 5280TIP3    H237400   4.646   3.051   0.497  1.1303 -0.3752 -0.1642
 5281TIP3   OH237401   0.645   4.513   1.172 -0.3028 -0.5420 -0.1017
 5281TIP3    H137402   0.730   4.553   1.152 -0.5112  0.1131  0.2743
 5281TIP3    H237403   0.647   4.428   1.128  0.8707 -0.8890  0.5812
 5282TIP3   OH237404   0.408   4.812   8.347  0.0071 -0.5282 -0.0686
 5282TIP3    H137405   0.324   4.858   8.334 -0.1758 -0.7043  0.4604
 5282TIP3    H237406   0.393   4.725   8.311  0.5164 -0.0321 -1.5397
 5283TIP3   OH237407   1.123   2.546   7.871 -0.1898  0.1309  0.2385
 5283TIP3    H137408   1.145   2.462   7.831  0.5675  0.5376 -0.2187
 5283TIP3    H237409   1.082   2.596   7.801  1.0660  0.8154 -0.0386
 5284TIP3   OH237410   1.423   5.370   8.286 -0.4026 -0.0322  0.3541
 5284TIP3    H137411   1.395   5.330   8.203 -2.8627  1.4070  0.4136
 5284TIP3    H237412   1.376   5.321   8.353  0.9962 -0.6861  0.9065
 5285TIP3   OH237413   0.011   6.637   7.938  0.1610  0.1575 -0.4251
 5285TIP3    H137414  -0.052   6.676   7.998  0.2080 -1.0064  0.4182
 5285TIP3    H237415   0.026   6.704   7.872 -0.4633  1.1874  0.4461
 5286TIP3   OH237416   5.521   4.626   7.907  0.2598 -0.1988  0.0172
 5286TIP3    H137417   5.473   4.707   7.892  0.1815 -0.1380  0.5551
 5286TIP3    H237418   5.486   4.593   7.990 -0.4638 -1.3372 -0.7131
 5287TIP3   OH237419   2.331   2.641   7.917  0.9427 -0.2133  0.0893
 5287TIP3    H137420   2.403   2.627   7.979  1.2949 -2.3439 -0.7168
 5287TIP3    H237421   2.311   2.554   7.884 -2.3831  0.2389  0.6134
 5288TIP3   OH237422   0.775   1.751   0.882 -0.1000 -0.0868  0.0408
 5288TIP3    H137423   0.860   1.707   0.883 -0.2366 -0.3469  0.2390
 5288TIP3    H237424   0.756   1.767   0.975 -1.6245 -2.6623  0.2625
 5289TIP3   OH237425   5.941   3.225   6.488 -0.0046  0.1246 -0.3731
 5289TIP3    H137426   5.848   3.233   6.510  0.0862  1.4306 -0.3684
 5289TIP3    H237427   5.971   3.316   6.480  0.4500 -0.1848 -3.8575
 5290TIP3   OH237428   5.098   4.807   8.471 -0.2147  0.3520 -0.6867
 5290TIP3    H137429   5.140   4.726   8.503 -0.3434  0.5249 -0.0730
 5290TIP3    H237430   5.167   4.873   8.476 -0.8262  0.9075  1.4139
 5291TIP3   OH237431   4.371   1.603   7.179 -0.0190 -0.0506 -0.4031
 5291TIP3    H137432   4.300   1.668   7.174 -0.4423 -0.5374 -0.7797
 5291TIP3    H237433   4.441   1.648   7.227 -0.9929  0.0585  0.9500
 5292TIP3   OH237434   1.832   0.811   0.229  0.3238 -0.0329  0.1565
 5292TIP3    H137435   1.854   0.823   0.321 -0.6191  2.6474  0.1231
 5292TIP3    H237436   1.774   0.735   0.228  0.1287  0.0550  1.8210
 5293TIP3   OH237437   1.052   1.683   8.087 -0.4912 -0.4816  0.0999
 5293TIP3    H137438   1.074   1.685   8.180  0.8029  0.4358 -0.1895
 5293TIP3    H237439   1.125   1.727   8.044  0.1129 -2.8716 -1.5882
 5294TIP3   OH237440   6.337   0.926   8.406 -0.3605 -0.6220  0.2147
 5294TIP3    H137441   6.342   0.926   8.310 -1.3268 -1.0973  0.1567
 5294TIP3    H237442   6.426   0.903   8.434  0.2111  0.5354 -0.5333
 5295TIP3   OH237443   4.723   1.044   7.671  0.7085 -0.1062  0.5159
 5295TIP3    H137444   4.799   1.052   7.614 -0.1340 -0.5175 -0.7026
 5295TIP3    H237445   4.714   0.950   7.687  0.8216 -0.0122  1.1950
 5296TIP3   OH237446   0.433   6.175   0.097 -0.3364  0.3837  0.3252
 5296TIP3    H137447   0.444   6.125   0.016 -0.7901 -0.7886  0.9640
 5296TIP3    H237448   0.387   6.254   0.070  1.3225  1.0080 -0.8862
 5297TIP3   OH237449   4.980   5.687   0.630 -0.5203  0.7050  0.1482
 5297TIP3    H137450   4.972   5.592   0.618 -1.7506  0.9428 -1.2165
 5297TIP3    H237451   4.892   5.715   0.656  0.2035  1.3123  2.1331
 5298TIP3   OH237452   4.127   6.273   6.629  0.0659 -0.0232  0.4826
 5298TIP3    H137453   4.086   6.347   6.585  0.4291 -1.0165 -1.6436
 5298TIP3    H237454   4.183   6.312   6.695  1.3391  1.7148 -1.5116
 5299TIP3   OH237455   5.529   2.889   6.473 -0.5393  0.8481 -0.3538
 5299TIP3    H137456   5.525   2.961   6.536 -1.1529  0.1096  0.4666
 5299TIP3    H237457   5.495   2.927   6.392 -1.5513  1.2887  0.2571
 5300TIP3   OH237458   0.298   3.655   2.304  0.4079 -0.4123  0.5922
 5300TIP3    H137459   0.316   3.711   2.379  1.3835  0.8397 -0.5171
 5300TIP3    H237460   0.299   3.566   2.339 -2.1605  0.2583  2.5932
 5301TIP3   OH237461   3.745   1.302   1.717 -0.1671  0.3444 -0.2857
 5301TIP3    H137462   3.718   1.215   1.749  0.8096 -1.4631 -3.8245
 5301TIP3    H237463   3.668   1.357   1.732 -1.5409 -1.6096  0.3719
 5302TIP3   OH237464   0.604   6.099   1.815  0.1818  0.1427  0.0634
 5302TIP3    H137465   0.611   6.182   1.767  1.3003 -0.0272 -0.1111
 5302TIP3    H237466   0.617   6.123   1.906  0.4990  0.1749  0.0134
 5303TIP3   OH237467   5.472   1.377   6.511 -0.5378 -0.0476 -0.4801
 5303TIP3    H137468   5.511   1.295   6.480 -0.6660 -0.2528 -0.1121
 5303TIP3    H237469   5.378   1.362   6.503 -0.5563  0.1605 -0.6506
 5304TIP3   OH237470   1.341   5.202   2.322 -0.2352  0.4946 -0.2304
 5304TIP3    H137471   1.431   5.170   2.325 -0.3327  0.2858  0.8515
 5304TIP3    H237472   1.349   5.297   2.313  0.0725  0.4096 -0.9732
 5305TIP3   OH237473   2.773   2.851   7.002  0.4378 -0.0315  0.1091
 5305TIP3    H137474   2.791   2.945   6.996 -0.4425  0.3423  2.3300
 5305TIP3    H237475   2.860   2.810   7.001  0.8400  0.7885 -0.7242
 5306TIP3   OH237476   4.199   2.379   1.113 -0.2374  0.6053 -0.2003
 5306TIP3    H137477   4.107   2.400   1.127 -0.8162 -1.1638 -1.0332
 5306TIP3    H237478   4.221   2.318   1.184  0.2718  0.9411 -0.0626
 5307TIP3   OH237479   1.823   2.404   6.082  0.0531  1.0402  0.0142
 5307TIP3    H137480   1.831   2.310   6.070  0.5188  0.9316  1.0842
 5307TIP3    H237481   1.913   2.437   6.073 -0.4791  1.9242 -4.2708
 5308TIP3   OH237482   5.307   6.460   0.720 -0.0338  0.0598  0.4610
 5308TIP3    H137483   5.311   6.460   0.816  0.5397 -0.1453  0.4378
 5308TIP3    H237484   5.217   6.433   0.701 -0.0152 -0.3715  0.9411
 5309TIP3   OH237485   5.289   4.547   0.986  0.4899 -0.2453 -0.2891
 5309TIP3    H137486   5.304   4.631   1.029  0.2760  0.4301 -1.4766
 5309TIP3    H237487   5.270   4.486   1.058 -1.4308  1.1662  0.5115
 5310TIP3   OH237488   4.161   2.650   1.834 -0.4122  0.1590 -0.4631
 5310TIP3    H137489   4.146   2.726   1.778 -4.5252 -0.3068 -0.3227
 5310TIP3    H237490   4.103   2.583   1.798  0.6977 -1.8743  1.3307
 5311TIP3   OH237491   6.465   0.621   7.369 -0.6545 -0.2514  0.0072
 5311TIP3    H137492   6.483   0.577   7.286 -0.5942  0.3234 -0.2852
 5311TIP3    H237493   6.370   0.615   7.379 -0.6154 -0.7512  0.1463
 5312TIP3   OH237494   0.849   3.531   7.406  0.4029 -0.2960  0.2302
 5312TIP3    H137495   0.921   3.495   7.354 -0.2761  0.6451 -1.4420
 5312TIP3    H237496   0.772   3.483   7.377 -0.1401  0.8965 -0.3952
 5313TIP3   OH237497   5.469   3.883   0.103  0.3731  0.3771  0.0724
 5313TIP3    H137498   5.375   3.901   0.097  0.2249 -0.5923 -0.7066
 5313TIP3    H237499   5.497   3.870   0.012  1.1989  0.3200  0.3251
 5314TIP3   OH237500   1.275   2.927   1.821  0.8370  0.5689  0.3701
 5314TIP3    H137501   1.254   2.975   1.901  1.1910 -0.2792  0.9914
 5314TIP3    H237502   1.301   2.840   1.852  0.5780  0.1016 -0.6993
 5315TIP3   OH237503   5.399   4.726   7.481 -0.2993 -0.2499  0.1751
 5315TIP3    H137504   5.419   4.817   7.456 -0.2303  0.2327  1.8568
 5315TIP3    H237505   5.360   4.688   7.402  0.8032  0.8613 -0.9552
 5316TIP3   OH237506   4.854   2.843   7.584 -0.3559 -0.2399  0.0668
 5316TIP3    H137507   4.860   2.852   7.489  0.5171  0.9533  0.2084
 5316TIP3    H237508   4.761   2.837   7.602 -0.4948 -1.5371 -0.9373
 5317TIP3   OH237509   6.331   2.735   0.445 -0.6850  0.9873 -0.2646
 5317TIP3    H137510   6.327   2.824   0.412 -0.3549  0.7293 -1.0234
 5317TIP3    H237511   6.406   2.734   0.505 -0.5931  1.1712 -0.3793
 5318TIP3   OH237512   5.206   0.829   1.426  0.0848 -0.1405 -0.1810
 5318TIP3    H137513   5.181   0.914   1.390 -0.3751  0.1351  0.7562
 5318TIP3    H237514   5.290   0.845   1.469  0.6108 -0.4594 -1.0508
 5319TIP3   OH237515   2.112   2.724   7.013 -0.3963  0.3566 -0.4787
 5319TIP3    H137516   2.062   2.671   6.950 -1.2265 -0.3138  0.7020
 5319TIP3    H237517   2.166   2.661   7.060 -1.0096  0.6126  0.5951
 5320TIP3   OH237518   4.040   0.378   8.193 -0.3441 -0.3455  0.3327
 5320TIP3    H137519   4.086   0.294   8.200 -0.8464 -0.6911 -0.3522
 5320TIP3    H237520   4.108   0.444   8.200 -0.1307 -0.7323  2.8038
 5321TIP3   OH237521   5.829   4.405   0.003 -0.4220 -0.5538 -0.3502
 5321TIP3    H137522   5.814   4.456  -0.077 -0.5242 -2.4795 -1.6225
 5321TIP3    H237523   5.924   4.397   0.009 -0.2980  1.1937  0.8428
 5322TIP3   OH237524   3.726   5.158   7.520 -0.6015  0.6597  0.7334
 5322TIP3    H137525   3.645   5.159   7.470  0.0560  0.9195 -0.3680
 5322TIP3    H237526   3.795   5.166   7.454  0.2478  3.0153  1.7808
 5323TIP3   OH237527   0.503   5.446   8.052  0.2649 -0.6095  0.1517
 5323TIP3    H137528   0.507   5.533   8.011  1.8057 -1.4678 -1.6242
 5323TIP3    H237529   0.573   5.448   8.117 -0.6889 -0.0492  1.2111
 5324TIP3   OH237530   2.768   3.107   0.751  0.7651 -0.1436 -0.0644
 5324TIP3    H137531   2.823   3.123   0.674 -0.3806 -0.9766 -1.0972
 5324TIP3    H237532   2.705   3.178   0.751 -0.0815 -0.8786 -0.7015
 5325TIP3   OH237533   3.632   5.405   7.627  0.0436 -0.2518 -0.5300
 5325TIP3    H137534   3.643   5.433   7.718  0.6436 -1.8107 -0.0914
 5325TIP3    H237535   3.683   5.325   7.620 -1.1771 -0.9658 -1.8518
 5326TIP3   OH237536   4.903   4.424   2.096  0.3299  0.0055  0.2667
 5326TIP3    H137537   4.982   4.440   2.148  0.8474  0.6070 -0.6712
 5326TIP3    H237538   4.836   4.479   2.137  0.5658  0.0089  0.6602
 5327TIP3   OH237539   5.307   1.909   6.838 -0.0514 -0.1240  0.3199
 5327TIP3    H137540   5.279   1.936   6.750 -1.6053 -0.5073  0.6716
 5327TIP3    H237541   5.401   1.927   6.839  0.0035 -0.0977 -1.4138
 5328TIP3   OH237542   3.788   0.295   8.109  0.0694 -0.1997 -0.3691
 5328TIP3    H137543   3.809   0.222   8.167  1.6475  1.5206  1.3701
 5328TIP3    H237544   3.835   0.370   8.146 -1.8648  1.8505 -1.7475
 5329TIP3   OH237545   6.134   5.431   8.395 -0.0260 -0.3776  0.4209
 5329TIP3    H137546   6.074   5.416   8.322 -0.7649  0.7659  0.7654
 5329TIP3    H237547   6.077   5.441   8.471  0.5686  0.9610  0.7157
 5330TIP3   OH237548   4.828   0.563   1.928  0.3853  0.4904 -0.0004
 5330TIP3    H137549   4.755   0.505   1.950  2.1721 -2.0277 -0.2743
 5330TIP3    H237550   4.828   0.629   1.998 -1.2885 -0.2421  0.7574
 5331TIP3   OH237551   4.701   2.090   8.212 -0.3171 -0.1700  0.2215
 5331TIP3    H137552   4.717   2.000   8.240 -0.8032 -0.1375  0.6381
 5331TIP3    H237553   4.721   2.091   8.119  1.2599 -0.3115  0.5309
 5332TIP3   OH237554   6.408   4.345   0.881 -0.0062 -0.1358  0.1086
 5332TIP3    H137555   6.387   4.386   0.965 -0.5972 -0.9042  0.3459
 5332TIP3    H237556   6.466   4.408   0.837  1.0444 -0.1217  1.4598
 5333TIP3   OH237557   5.996   2.604   8.101  0.7211  0.2574  0.1374
 5333TIP3    H137558   5.923   2.573   8.048  1.5825 -0.6195 -0.5717
 5333TIP3    H237559   6.032   2.679   8.053 -0.3856  1.4390  1.0644
 5334TIP3   OH237560   1.536   2.853   0.850  0.4777  0.0378 -0.0767
 5334TIP3    H137561   1.479   2.912   0.898 -0.0547 -0.3995 -0.1610
 5334TIP3    H237562   1.488   2.833   0.769  0.5382 -0.6971  0.0561
 5335TIP3   OH237563   4.155   6.706   8.066  0.0646  0.6287 -0.0236
 5335TIP3    H137564   4.181   6.733   7.978  2.9885 -1.8185 -0.1213
 5335TIP3    H237565   4.238   6.698   8.113 -1.2271 -0.3630  2.2433
 5336TIP3   OH237566   2.357   4.859   8.248 -0.1605  0.1530  0.4652
 5336TIP3    H137567   2.398   4.943   8.229  0.9855 -0.6012 -0.5172
 5336TIP3    H237568   2.430   4.797   8.256 -1.0549 -1.1441 -0.8902
 5337TIP3   OH237569   4.662   3.152   7.156  0.3846  0.0586 -0.0165
 5337TIP3    H137570   4.755   3.174   7.146  0.9829 -1.7220  1.0512
 5337TIP3    H237571   4.641   3.103   7.076  0.8102 -0.7988  0.3747
 5338TIP3   OH237572   5.827   6.686   7.881  0.0764 -0.0505  0.1629
 5338TIP3    H137573   5.783   6.740   7.815 -2.2057 -0.0835  1.5331
 5338TIP3    H237574   5.875   6.621   7.831 -2.9554 -1.1894 -1.5569
 5339TIP3   OH237575   5.482   5.887   8.274 -0.4488  0.4892 -0.2733
 5339TIP3    H137576   5.395   5.876   8.311  0.5288 -0.7974  1.8902
 5339TIP3    H237577   5.503   5.802   8.235  0.3351  0.3298  0.4559
 5340TIP3   OH237578   2.130   0.689   1.746  0.4186 -0.4305 -0.6036
 5340TIP3    H137579   2.159   0.662   1.833  2.4012 -0.2904 -1.1710
 5340TIP3    H237580   2.059   0.751   1.762  0.2975 -0.9250  0.8862
 5341TIP3   OH237581   2.226   6.252   0.796 -0.5041 -0.1228  0.9375
 5341TIP3    H137582   2.260   6.303   0.723  0.9110 -1.2076  0.7803
 5341TIP3    H237583   2.194   6.317   0.858 -3.0511  0.8089 -1.1780
 5342TIP3   OH237584   0.389   3.888   0.356  0.5113  0.1301 -0.1060
 5342TIP3    H137585   0.376   3.798   0.386 -0.7871 -0.2065 -1.5634
 5342TIP3    H237586   0.464   3.882   0.295  0.0590 -0.0901 -0.6515
 5343TIP3   OH237587   1.725   1.034   8.484  0.6895 -0.7985  0.0484
 5343TIP3    H137588   1.710   0.958   8.540  0.9178 -0.7065  0.2344
 5343TIP3    H237589   1.809   1.018   8.443 -0.5383 -2.0292 -2.1555
 5344TIP3   OH237590   3.042   5.628   1.261 -0.3924  0.2273 -0.3791
 5344TIP3    H137591   3.120   5.674   1.230  0.8666 -1.7184 -0.3360
 5344TIP3    H237592   2.969   5.680   1.230  0.9214  2.0409 -0.5836
 5345TIP3   OH237593   1.580   4.358   6.816 -0.2834  0.0326  0.3255
 5345TIP3    H137594   1.645   4.289   6.803 -1.1814 -0.7945  0.1173
 5345TIP3    H237595   1.603   4.425   6.751 -0.2890 -0.7368 -0.4853
 5346TIP3   OH237596   6.087   0.322   0.176 -0.0638  0.2973  0.1117
 5346TIP3    H137597   6.079   0.357   0.265  1.0445 -1.7299  1.0904
 5346TIP3    H237598   5.998   0.301   0.150 -0.3130 -0.1550  1.2509
 5347TIP3   OH237599   2.297   2.632   0.398 -0.8633  0.3635  0.1376
 5347TIP3    H137600   2.310   2.707   0.456 -1.8520  2.4104 -2.0852
 5347TIP3    H237601   2.384   2.597   0.384 -0.3696  1.0829  1.2710
 5348TIP3   OH237602   2.904   2.454   2.485  0.1899 -0.0019 -0.0480
 5348TIP3    H137603   2.813   2.475   2.463  0.3479  1.3808  0.5029
 5348TIP3    H237604   2.903   2.437   2.579  0.4759 -0.1616 -0.0730
 5349TIP3   OH237605   1.461   0.338   6.888 -0.1161  0.3083  0.0376
 5349TIP3    H137606   1.480   0.358   6.980  0.0655 -2.0574  0.5808
 5349TIP3    H237607   1.534   0.375   6.839 -0.3381  1.8088  0.8007
 5350TIP3   OH237608   4.524   0.591   1.398  0.2936  0.4823 -0.5332
 5350TIP3    H137609   4.479   0.662   1.444 -1.4029 -1.2714  0.6922
 5350TIP3    H237610   4.549   0.529   1.467 -0.0763 -1.0346 -1.6913
 5351TIP3   OH237611   2.457   1.314   1.019  0.5476  0.0049  0.2876
 5351TIP3    H137612   2.402   1.389   1.043 -2.0995 -1.6913 -0.1776
 5351TIP3    H237613   2.527   1.352   0.966  0.3360  2.3541  1.5563
 5352TIP3   OH237614   6.399   6.058   7.022 -0.3905  0.0273 -0.0754
 5352TIP3    H137615   6.415   5.991   6.956 -0.7544  2.3604 -2.7232
 5352TIP3    H237616   6.315   6.097   6.996 -0.7605  0.7569  2.0613
 5353TIP3   OH237617   1.824   4.513   7.137  0.4444 -0.8934  0.3504
 5353TIP3    H137618   1.881   4.586   7.163  1.3754 -1.1396 -0.9441
 5353TIP3    H237619   1.757   4.554   7.082  1.1864 -1.0389 -0.6930
 5354TIP3   OH237620   0.129   5.298   8.196 -0.8691  0.2780 -0.7383
 5354TIP3    H137621   0.084   5.235   8.140  1.8162  0.0291 -2.7694
 5354TIP3    H237622   0.216   5.260   8.211 -0.5379  1.6586  1.3612
 5355TIP3   OH237623   2.861   4.024   0.584  0.2043  0.3929  0.1600
 5355TIP3    H137624   2.835   3.933   0.572  0.2090 -0.0118  2.6514
 5355TIP3    H237625   2.778   4.073   0.587  0.0503  0.1079  1.0497
 5356TIP3   OH237626   4.711   1.179   8.411 -0.0414 -0.8665  0.3914
 5356TIP3    H137627   4.743   1.139   8.331 -1.3240 -1.3920  0.1048
 5356TIP3    H237628   4.725   1.273   8.399 -1.6605 -0.7721 -1.1665
 5357TIP3   OH237629   4.658   3.788   1.061 -0.2109 -0.5188  0.7715
 5357TIP3    H137630   4.597   3.716   1.040  0.4281 -0.9017  0.2029
 5357TIP3    H237631   4.601   3.857   1.096 -1.0950 -0.5507 -0.5220
 5358TIP3   OH237632   1.712   5.146   1.359 -0.1735  0.0092 -0.2571
 5358TIP3    H137633   1.650   5.190   1.418  0.9566 -0.5756  1.4287
 5358TIP3    H237634   1.791   5.134   1.411  0.4849 -1.5970 -1.5307
 5359TIP3   OH237635   4.116   3.633   8.310 -0.3068 -0.6001 -0.4177
 5359TIP3    H137636   4.210   3.633   8.329 -0.2954 -0.2098 -0.4547
 5359TIP3    H237637   4.097   3.544   8.281 -0.2957 -1.1793  1.2401
 5360TIP3   OH237638   0.808   1.363   0.445 -0.4313  0.6164  0.2973
 5360TIP3    H137639   0.754   1.440   0.426 -1.2373  1.0516  3.6262
 5360TIP3    H237640   0.763   1.291   0.401  0.3384  1.9430 -2.8882
 5361TIP3   OH237641   4.591   4.880   1.573 -0.2445 -0.5752  0.4595
 5361TIP3    H137642   4.520   4.820   1.551 -0.0761 -0.4107 -0.5813
 5361TIP3    H237643   4.656   4.825   1.616 -1.2662 -0.6050  2.0295
 5362TIP3   OH237644   5.351   3.885   0.490 -0.0003  0.1333  0.2168
 5362TIP3    H137645   5.347   3.892   0.586 -2.5482  2.7175  0.0583
 5362TIP3    H237646   5.419   3.947   0.465  1.5728 -1.4794  0.3484
 5363TIP3   OH237647   5.067   4.557   7.570  0.5745 -0.2180  0.2504
 5363TIP3    H137648   5.045   4.631   7.513 -0.7225 -1.1412 -0.4967
 5363TIP3    H237649   5.004   4.563   7.641  1.5502  0.3431  1.0990
 5364TIP3   OH237650   1.139   1.063   0.046 -0.1702  0.4923  0.0136
 5364TIP3    H137651   1.054   1.098   0.018  0.4968  2.1977  0.0149
 5364TIP3    H237652   1.176   1.023  -0.032  0.3619  2.5305 -0.8197
 5365TIP3   OH237653   4.518   1.499   7.422  0.1834 -0.0620 -0.1118
 5365TIP3    H137654   4.555   1.580   7.386  3.7660 -1.6912 -0.5277
 5365TIP3    H237655   4.594   1.450   7.453 -1.6777 -3.7892 -0.9129
 5366TIP3   OH237656   3.587   3.251   2.141  0.0680  0.0944 -0.1994
 5366TIP3    H137657   3.561   3.164   2.171  0.4146  0.0070 -0.1484
 5366TIP3    H237658   3.536   3.265   2.061 -1.5570  0.7032  0.8889
 5367TIP3   OH237659   0.914   4.657   0.127  0.1798  0.1140 -0.0562
 5367TIP3    H137660   0.887   4.671   0.037  1.1537  0.1282 -0.3598
 5367TIP3    H237661   0.880   4.571   0.150  0.5350 -0.1954 -0.6812
 5368TIP3   OH237662   5.046   2.692   0.998 -0.0986 -0.3464 -0.2382
 5368TIP3    H137663   5.119   2.661   1.051  0.6388 -2.0056 -2.1211
 5368TIP3    H237664   4.968   2.659   1.044  0.5691 -3.0816 -0.8851
 5369TIP3   OH237665   5.744   2.566   8.492 -0.1985  0.4903 -0.1085
 5369TIP3    H137666   5.692   2.584   8.414  0.0619  2.3852  0.1144
 5369TIP3    H237667   5.832   2.599   8.470 -0.0322  0.7132  0.8402
 5370TIP3   OH237668   5.211   1.579   7.631 -0.0486 -0.5951 -0.5865
 5370TIP3    H137669   5.191   1.508   7.692  0.2132 -1.0803 -1.0583
 5370TIP3    H237670   5.171   1.657   7.671 -1.4843 -1.2460 -0.7119
 5371TIP3   OH237671   2.872   1.640   7.197 -0.3196  0.1814  0.7633
 5371TIP3    H137672   2.787   1.683   7.185 -0.9256 -1.0770  0.2975
 5371TIP3    H237673   2.880   1.629   7.292  0.1279  1.7937  0.9477
 5372TIP3   OH237674   3.484   2.141   8.302 -0.1747 -0.1416 -0.2017
 5372TIP3    H137675   3.516   2.052   8.316  0.1284  0.1780  1.2261
 5372TIP3    H237676   3.402   2.145   8.352 -0.4170  0.2607 -0.6244
 5373TIP3   OH237677   1.023   5.451   0.929  0.1290 -0.3934  0.2068
 5373TIP3    H137678   0.969   5.464   0.851 -2.4534 -0.4736  1.8636
 5373TIP3    H237679   1.045   5.358   0.927  2.3511  0.0976 -1.7192
 5374TIP3   OH237680   0.854   2.812   8.051 -0.4489 -0.0329  0.0925
 5374TIP3    H137681   0.770   2.789   8.091 -0.0282  0.2546  1.2028
 5374TIP3    H237682   0.920   2.771   8.108  0.1903  0.7212 -0.0769
 5375TIP3   OH237683   2.847   1.640   1.092 -0.0043 -0.5506  0.0263
 5375TIP3    H137684   2.763   1.625   1.137  1.5704  0.1017  3.4698
 5375TIP3    H237685   2.837   1.725   1.050 -1.3413 -0.8785 -0.3720
 5376TIP3   OH237686   4.120   2.265   8.166 -0.3668  0.6528  0.2053
 5376TIP3    H137687   4.082   2.209   8.098 -1.4077 -1.1291  2.1454
 5376TIP3    H237688   4.202   2.223   8.190 -0.2612  0.9806  0.4313
 5377TIP3   OH237689   1.902   6.192   2.404 -0.0956  0.6341 -0.0878
 5377TIP3    H137690   1.857   6.248   2.468  0.0377  0.7792 -0.1182
 5377TIP3    H237691   1.978   6.244   2.378  0.1800  0.3241  0.0910
 5378TIP3   OH237692   3.713   2.547   1.421 -0.2003  0.0374 -0.2039
 5378TIP3    H137693   3.736   2.620   1.364  0.8891  0.6045  0.9225
 5378TIP3    H237694   3.724   2.581   1.510 -0.8067 -1.1507  0.3496
 5379TIP3   OH237695   1.985   3.290   7.983 -0.4687 -0.4031  0.5589
 5379TIP3    H137696   1.994   3.238   8.063  1.0578  1.0162  1.3807
 5379TIP3    H237697   2.064   3.344   7.980 -1.2721  0.7940 -1.0287
 5380TIP3   OH237698   1.287   6.583   6.406  0.2826  0.2656 -0.0097
 5380TIP3    H137699   1.300   6.619   6.318 -0.8111  0.7519  0.0114
 5380TIP3    H237700   1.198   6.548   6.405 -1.0331  3.1575  1.8395
 5381TIP3   OH237701   2.087   3.875   1.322 -0.0673  0.1358 -0.0803
 5381TIP3    H137702   2.160   3.842   1.269 -0.2797  0.0330 -0.3084
 5381TIP3    H237703   2.123   3.952   1.366 -0.0146  0.4790 -0.7125
 5382TIP3   OH237704   0.572   0.358   8.403 -0.2226 -0.0777 -0.1958
 5382TIP3    H137705   0.611   0.312   8.328  1.2750 -0.0034  0.4962
 5382TIP3    H237706   0.485   0.320   8.412  1.2325 -3.5801  0.9328
 5383TIP3   OH237707   3.991   4.264   2.560 -0.3223  0.1848  0.0468
 5383TIP3    H137708   3.964   4.342   2.608 -0.2460  1.1745 -1.4560
 5383TIP3    H237709   4.085   4.277   2.544 -0.9688  1.6965 -3.4171
 5384TIP3   OH237710   2.930   0.815   6.751 -0.2737 -0.0090  0.2577
 5384TIP3    H137711   3.006   0.819   6.693 -1.8959 -0.3022 -2.0104
 5384TIP3    H237712   2.920   0.905   6.783 -2.2756  1.5818 -4.0788
 5385TIP3   OH237713   2.537   4.143   7.276 -0.0142 -0.3216  0.0357
 5385TIP3    H137714   2.482   4.075   7.236 -1.2636  0.0310  1.0860
 5385TIP3    H237715   2.478   4.189   7.335  1.5605 -0.2697  1.6321
 5386TIP3   OH237716   5.643   2.945   2.520  0.1782  0.5086 -0.0651
 5386TIP3    H137717   5.554   2.947   2.486  0.8999  0.6504 -2.0782
 5386TIP3    H237718   5.683   2.870   2.477  0.8840  0.0588  1.3042
 5387TIP3   OH237719   0.796   2.197   0.062 -0.5350  0.0755  0.7505
 5387TIP3    H137720   0.721   2.140   0.046 -0.3033 -0.1284  0.3705
 5387TIP3    H237721   0.867   2.136   0.084 -0.1900  0.1863 -0.0277
 5388TIP3   OH237722   6.722   6.450   0.975  0.1307 -0.2922 -0.3440
 5388TIP3    H137723   6.702   6.432   1.067  1.2338 -1.1756 -0.2522
 5388TIP3    H237724   6.786   6.521   0.978 -1.4856  1.2334 -0.5535
 5389TIP3   OH237725   5.356   3.271   8.587  0.4999  0.2232  0.3562
 5389TIP3    H137726   5.321   3.185   8.612 -3.4472  1.4615 -0.1366
 5389TIP3    H237727   5.423   3.252   8.522 -3.5566 -2.6151 -3.5683
 5390TIP3   OH237728   2.037   4.261   2.592 -0.0129 -0.0738  0.4878
 5390TIP3    H137729   2.065   4.346   2.559 -0.4801 -0.8766 -2.2641
 5390TIP3    H237730   2.116   4.206   2.587  0.1273 -0.0026  1.6323
 5391TIP3   OH237731   5.612   4.084   0.276 -0.1394  0.4751 -0.1191
 5391TIP3    H137732   5.645   4.139   0.204 -2.3228  1.6436 -0.3037
 5391TIP3    H237733   5.558   4.018   0.233 -0.5418  0.4850  0.3621
 5392TIP3   OH237734   3.239   6.456   7.297 -0.3342  0.0983 -0.5214
 5392TIP3    H137735   3.307   6.523   7.290 -0.4187  0.1948 -0.4142
 5392TIP3    H237736   3.249   6.420   7.385 -0.5468  0.2453 -0.4363
 5393TIP3   OH237737   5.930   3.492   7.934 -0.4801 -0.2969 -0.0177
 5393TIP3    H137738   5.972   3.421   7.885  1.2808  0.8350 -0.2308
 5393TIP3    H237739   5.870   3.533   7.871  1.3420  0.7783 -1.1413
 5394TIP3   OH237740   0.546   1.402   8.444  0.0976  0.0071 -0.0099
 5394TIP3    H137741   0.489   1.472   8.414  0.7058  0.8062  0.6636
 5394TIP3    H237742   0.499   1.360   8.516 -2.1662 -3.0358 -2.9291
 5395TIP3   OH237743   3.448   5.464   1.887  0.1151  0.1312  0.1008
 5395TIP3    H137744   3.381   5.532   1.880  0.4550  0.4211 -0.4821
 5395TIP3    H237745   3.433   5.423   1.972 -0.4905  0.5178  0.1833
 5396TIP3   OH237746   4.569   2.855   2.206 -0.1626  0.4753  0.5715
 5396TIP3    H137747   4.624   2.889   2.136 -1.8079  1.5461 -0.2658
 5396TIP3    H237748   4.605   2.894   2.286 -0.2573  1.9327 -0.0636
 5397TIP3   OH237749   1.309   5.842   6.753 -0.3213  0.8978 -0.2488
 5397TIP3    H137750   1.291   5.776   6.686 -0.1368  0.9384 -0.3374
 5397TIP3    H237751   1.404   5.841   6.763 -0.4343 -0.0141  0.9304
 5398TIP3   OH237752   3.443   0.994   1.520 -0.0576 -0.2769 -0.2073
 5398TIP3    H137753   3.518   1.053   1.521 -1.5199  1.7144 -1.0826
 5398TIP3    H237754   3.416   0.988   1.612 -0.5104  1.3237 -0.2075
 5399TIP3   OH237755   1.775   5.489   6.222  0.4649  0.0627 -0.0585
 5399TIP3    H137756   1.770   5.583   6.207  1.3918 -0.1320 -1.7541
 5399TIP3    H237757   1.867   5.473   6.244  0.4607 -0.5281 -0.4441
 5400TIP3   OH237758   4.012   2.207   7.348  0.0567  0.4790  0.8411
 5400TIP3    H137759   3.940   2.258   7.311  0.1839 -1.5048 -2.5149
 5400TIP3    H237760   3.971   2.125   7.375  0.5915  0.5363  1.8603
 5401TIP3   OH237761   2.115   5.393   1.023 -0.4437 -0.3648  0.2166
 5401TIP3    H137762   2.047   5.386   0.956  1.3865 -3.1118 -1.5623
 5401TIP3    H237763   2.069   5.429   1.100 -2.6563  2.8593 -2.3490
 5402TIP3   OH237764   3.532   4.345   8.010  0.1104 -0.1886  0.4701
 5402TIP3    H137765   3.563   4.266   8.055 -0.9801 -0.8365  0.1279
 5402TIP3    H237766   3.462   4.379   8.066 -1.0691 -0.8474 -0.5376
 5403TIP3   OH237767   1.473   5.799   2.121  0.7055 -0.2254  0.6560
 5403TIP3    H137768   1.548   5.852   2.149  0.6651 -0.4365  1.1749
 5403TIP3    H237769   1.397   5.855   2.139  0.6472 -0.5279  1.4035
 5404TIP3   OH237770   4.532   4.430   7.674  0.4166  0.6453 -0.1581
 5404TIP3    H137771   4.534   4.523   7.700  2.9499  0.7625 -0.5397
 5404TIP3    H237772   4.540   4.382   7.757 -0.2331  0.7661 -0.0188
 5405TIP3   OH237773   4.914   1.119   2.246 -0.1905  0.1737  0.2114
 5405TIP3    H137774   4.871   1.193   2.204 -0.6322  1.0082  2.0394
 5405TIP3    H237775   4.843   1.071   2.288  0.2698 -0.4110  0.3304
 5406TIP3   OH237776   4.165   0.299   0.582  0.0656  0.1909 -0.2936
 5406TIP3    H137777   4.171   0.253   0.498  0.3707 -0.5734  0.1399
 5406TIP3    H237778   4.170   0.230   0.648 -0.4190  0.7626  0.3544
 5407TIP3   OH237779   5.027   5.297   1.467 -0.8458  0.1559  0.8832
 5407TIP3    H137780   4.987   5.363   1.411  0.2763 -0.9506 -1.3981
 5407TIP3    H237781   5.107   5.272   1.420  0.3269 -0.6530  3.1781
 5408TIP3   OH237782   3.309   2.467   0.129 -0.6197 -0.4385 -0.7964
 5408TIP3    H137783   3.334   2.529   0.197  0.9167 -0.9562 -0.8435
 5408TIP3    H237784   3.221   2.493   0.103 -0.4607  0.9827  0.0018
 5409TIP3   OH237785   6.399   0.954   8.107 -0.1653  0.2804 -0.2062
 5409TIP3    H137786   6.370   0.919   8.022  0.1578  0.4599 -0.3925
 5409TIP3    H237787   6.478   1.004   8.086 -0.1311  0.3904  0.1912
 5410TIP3   OH237788   3.123   5.459   2.205  0.4791  0.5505 -0.0424
 5410TIP3    H137789   3.074   5.534   2.239  0.1520  1.0207 -1.4762
 5410TIP3    H237790   3.062   5.385   2.210  0.7986  0.3475  1.3664
 5411TIP3   OH237791   6.567   6.074   8.003  0.0969  0.3419 -0.3851
 5411TIP3    H137792   6.585   6.027   8.084  1.0253  0.1249 -0.7067
 5411TIP3    H237793   6.624   6.032   7.938  0.3128  1.3580 -0.8631
 5412TIP3   OH237794   3.632   2.005   1.330  0.1235  0.1282  0.3140
 5412TIP3    H137795   3.666   1.941   1.391  2.1957  1.1889  0.3477
 5412TIP3    H237796   3.537   1.991   1.330  0.2642 -1.1013  2.3466
 5413TIP3   OH237797   0.867   1.118   7.788 -0.1730  0.2418 -0.0198
 5413TIP3    H137798   0.962   1.104   7.782 -0.1784 -0.8302  1.6246
 5413TIP3    H237799   0.851   1.196   7.735  1.7059  0.7487  0.0714
 5414TIP3   OH237800   4.414   5.219   7.656  0.1416  0.1428  0.0673
 5414TIP3    H137801   4.342   5.186   7.602  0.9139 -1.0112 -0.2983
 5414TIP3    H237802   4.421   5.312   7.632  1.0452 -0.4948 -2.5701
 5415TIP3   OH237803   0.853   3.916   1.062 -0.4305 -0.3173  0.6034
 5415TIP3    H137804   0.874   3.953   1.147  0.6751 -0.2273  0.3111
 5415TIP3    H237805   0.855   3.991   1.002  0.3755 -0.5978  0.2531
 5416TIP3   OH237806   6.246   6.481   7.861  0.5514 -0.2939 -0.4646
 5416TIP3    H137807   6.278   6.402   7.905 -0.3551  0.1922  1.1534
 5416TIP3    H237808   6.319   6.543   7.868  0.1165  0.0786  1.2284
 5417TIP3   OH237809   1.872   0.797   7.681 -0.4933 -0.0045  0.6121
 5417TIP3    H137810   1.859   0.737   7.608  0.6917 -1.6009  1.6640
 5417TIP3    H237811   1.962   0.782   7.710 -0.2168  2.1312  1.0774
 5418TIP3   OH237812   1.976   5.440   1.304 -0.4771 -0.1488  0.2998
 5418TIP3    H137813   2.060   5.403   1.329 -0.8681 -0.8719  0.5690
 5418TIP3    H237814   1.922   5.434   1.383 -1.1978 -0.9110 -0.2366
 5419TIP3   OH237815   0.941   4.743   0.743 -0.6096 -0.1392  0.1651
 5419TIP3    H137816   0.989   4.684   0.685  1.1477 -0.3318  1.6807
 5419TIP3    H237817   0.977   4.724   0.830 -3.3949 -0.1685  1.4223
 5420TIP3   OH237818   0.464   1.289   1.027 -0.3100 -0.6249  0.4059
 5420TIP3    H137819   0.440   1.301   0.935  2.2206 -2.6180 -0.6370
 5420TIP3    H237820   0.500   1.373   1.054 -1.3182  0.0636 -0.3260
 5421TIP3   OH237821   1.704   0.090   7.664  0.6909  0.1016  0.3327
 5421TIP3    H137822   1.775   0.026   7.667 -0.2725 -1.0903 -0.9363
 5421TIP3    H237823   1.747   0.175   7.660  2.0193 -0.3628  2.7765
 5422TIP3   OH237824   0.825   6.664   1.109 -0.6531  0.2725 -0.2576
 5422TIP3    H137825   0.767   6.588   1.117 -0.3684  0.1981  1.9433
 5422TIP3    H237826   0.771   6.738   1.136 -0.3744  0.5498 -0.4578
 5423TIP3   OH237827   4.229   1.714   7.996  0.5240  0.1292  0.1641
 5423TIP3    H137828   4.234   1.646   7.929  0.9640  0.9381 -0.6575
 5423TIP3    H237829   4.288   1.782   7.964 -0.0898  0.9961  0.8364
 5424TIP3   OH237830   6.740   2.043   6.769  0.1759 -0.3865 -0.3091
 5424TIP3    H137831   6.772   2.096   6.842 -1.4177 -1.0891  0.9476
 5424TIP3    H237832   6.723   2.107   6.699  1.5553  0.3120 -0.0395
 5425TIP3   OH237833   3.509   4.453   0.239 -0.5663  0.3271 -0.4106
 5425TIP3    H137834   3.541   4.534   0.199  0.5598  0.0360 -0.1169
 5425TIP3    H237835   3.556   4.383   0.194  0.4622 -0.0265  1.1351
 5426TIP3   OH237836   5.202   6.230   6.770  0.2786 -0.1325 -0.4831
 5426TIP3    H137837   5.297   6.240   6.777  0.2242  0.6041 -0.7331
 5426TIP3    H237838   5.178   6.281   6.693 -0.3986  0.1983 -0.0635
 5427TIP3   OH237839   0.267   0.928   8.434 -0.1747  0.0577 -0.2102
 5427TIP3    H137840   0.324   1.004   8.440  0.7556 -0.4960 -1.6369
 5427TIP3    H237841   0.241   0.923   8.342  1.5589 -2.5612 -0.6741
 5428TIP3   OH237842   3.725   6.117   6.818 -0.0186  0.0090 -0.1940
 5428TIP3    H137843   3.796   6.093   6.758  0.2387  0.2515  0.0105
 5428TIP3    H237844   3.764   6.110   6.905  0.0925  1.2084 -0.1197
 5429TIP3   OH237845   5.184   2.615   7.105  0.4122 -0.0240  0.0227
 5429TIP3    H137846   5.232   2.647   7.028  3.2770 -0.8707  1.2980
 5429TIP3    H237847   5.235   2.539   7.135 -1.4839 -0.6657  1.8562
 5430TIP3   OH237848   4.960   2.026   7.299  0.9164 -0.0040  0.0203
 5430TIP3    H137849   4.937   2.103   7.247  1.7296 -0.6920 -1.4402
 5430TIP3    H237850   4.925   1.952   7.249  1.5515 -0.6878  0.5577
 5431TIP3   OH237851   2.690   4.016   2.147  0.2493 -0.0878  0.7616
 5431TIP3    H137852   2.741   3.960   2.206 -0.4485 -0.3964  1.0795
 5431TIP3    H237853   2.689   3.968   2.064  1.2145  0.3361  0.4944
 5432TIP3   OH237854   2.288   1.258   7.458  0.1638  0.1759 -0.3506
 5432TIP3    H137855   2.247   1.173   7.472 -0.6630  0.8271  1.4878
 5432TIP3    H237856   2.378   1.238   7.435 -0.2665 -1.2130 -0.9470
 5433TIP3   OH237857   3.306   2.446   0.800  0.0019  0.0273  0.5731
 5433TIP3    H137858   3.369   2.514   0.823  0.7506 -0.4960  0.0921
 5433TIP3    H237859   3.221   2.484   0.824  0.3376  1.4018 -0.2880
 5434TIP3   OH237860   6.159   0.640   0.353 -0.4657  0.4107  1.1311
 5434TIP3    H137861   6.104   0.703   0.399  2.1182  3.4566  0.4526
 5434TIP3    H237862   6.237   0.631   0.408 -0.4402 -1.7136  0.8315
 5435TIP3   OH237863   6.714   5.976   0.417 -0.5302 -0.5762  0.3494
 5435TIP3    H137864   6.684   6.062   0.387 -3.9896 -1.4634  0.8609
 5435TIP3    H237865   6.701   5.918   0.342 -0.3889 -1.0987  0.7219
 5436TIP3   OH237866   6.437   0.114   1.542 -0.1344 -0.4333  0.0644
 5436TIP3    H137867   6.467   0.023   1.531 -0.3894 -0.8240  2.0768
 5436TIP3    H237868   6.466   0.137   1.630 -2.4396  0.4706  0.6584
 5437TIP3   OH237869   4.340   6.713   8.531 -0.3128  0.2126 -0.7857
 5437TIP3    H137870   4.420   6.678   8.492  0.0829  0.4777 -0.2271
 5437TIP3    H237871   4.299   6.637   8.573 -0.0709  0.1797 -0.6047
 5438TIP3   OH237872   3.128   1.993   1.531 -0.3805  0.2775 -0.2712
 5438TIP3    H137873   3.051   1.981   1.475  0.0249  0.7760 -0.9464
 5438TIP3    H237874   3.182   2.057   1.485 -0.0564  0.7382  0.7204
 5439TIP3   OH237875   4.321   3.390   6.986  0.2125  0.3826  0.0029
 5439TIP3    H137876   4.245   3.332   6.982 -0.7067  1.5993 -1.0782
 5439TIP3    H237877   4.323   3.421   7.076 -0.0987 -0.2757  0.2421
 5440TIP3   OH237878   3.083   0.188   1.535 -0.0378  0.3409 -0.4120
 5440TIP3    H137879   3.005   0.205   1.587 -0.1668  1.2577 -0.8875
 5440TIP3    H237880   3.050   0.180   1.445  0.3931  0.6077 -0.5957
 5441TIP3   OH237881   1.565   0.371   0.937  0.4672  0.3103 -0.2060
 5441TIP3    H137882   1.613   0.313   0.996  0.6475  1.7508  1.1262
 5441TIP3    H237883   1.493   0.317   0.904  3.2307 -2.1799 -2.8545
 5442TIP3   OH237884   1.418   0.812   8.197 -0.6076 -0.1944  0.9827
 5442TIP3    H137885   1.366   0.752   8.250 -1.4311 -1.6325 -1.2912
 5442TIP3    H237886   1.508   0.801   8.228 -1.3283  1.1384  3.8950
 5443TIP3   OH237887   6.090   5.740   0.750  0.3768 -0.1827 -0.2556
 5443TIP3    H137888   6.174   5.713   0.787  1.1130  1.1205 -0.9096
 5443TIP3    H237889   6.061   5.664   0.698  0.4112 -1.1822  1.1172
 5444TIP3   OH237890   3.748   1.770   8.122 -0.5204  0.4092  0.0035
 5444TIP3    H137891   3.816   1.716   8.082 -0.7829 -0.2251  0.3797
 5444TIP3    H237892   3.667   1.740   8.081 -0.8818 -0.7561  1.4723
 5445TIP3   OH237893   5.412   2.103   8.006  0.1567  0.0996  0.0334
 5445TIP3    H137894   5.377   2.188   8.032  0.0199  0.0291  0.0777
 5445TIP3    H237895   5.358   2.039   8.052 -0.7987 -0.0650 -1.2862
 5446TIP3   OH237896   0.490   3.996   0.708 -0.3078 -0.0866 -0.2619
 5446TIP3    H137897   0.504   4.020   0.800  2.7314  2.6583 -1.2268
 5446TIP3    H237898   0.454   4.076   0.668  0.1358 -0.6104 -1.7697
 5447TIP3   OH237899   2.396   4.708   1.639 -0.3606 -0.4691  0.2434
 5447TIP3    H137900   2.386   4.687   1.546  1.1468  2.4095 -0.7020
 5447TIP3    H237901   2.314   4.681   1.680 -1.7748 -0.2128 -2.2598
 5448TIP3   OH237902   0.538   4.033   7.951 -0.0478 -0.4847 -0.3972
 5448TIP3    H137903   0.556   3.940   7.938  0.4544 -0.1009 -2.9852
 5448TIP3    H237904   0.612   4.078   7.911  0.9036  1.1044  2.8207
 5449TIP3   OH237905   5.112   0.690   7.976 -0.3992 -0.0013  0.1058
 5449TIP3    H137906   5.137   0.649   8.058  1.5025  0.6360 -0.1005
 5449TIP3    H237907   5.112   0.619   7.912  1.0631 -0.0473  0.1128
 5450TIP3   OH237908   0.568   3.837   1.675 -0.3881 -0.2511  0.2801
 5450TIP3    H137909   0.481   3.804   1.653 -0.2747 -1.2707  1.2860
 5450TIP3    H237910   0.552   3.905   1.740 -0.4077 -0.7438  0.7919
 5451TIP3   OH237911   3.794   2.815   2.272 -0.0265 -0.5285  0.6108
 5451TIP3    H137912   3.855   2.882   2.304  1.3497 -0.0663 -2.5857
 5451TIP3    H237913   3.709   2.858   2.273  0.8769  1.6147 -1.7636
 5452TIP3   OH237914   6.087   4.989   6.967  0.2577  0.1799  0.1983
 5452TIP3    H137915   6.135   4.952   7.041 -1.2013 -0.7997  0.6880
 5452TIP3    H237916   6.153   5.039   6.919  1.5320 -0.2707  1.4049
 5453TIP3   OH237917   0.713   2.223   7.894 -0.0620 -0.5797 -0.3491
 5453TIP3    H137918   0.722   2.289   7.826 -1.8394  0.4157  0.3030
 5453TIP3    H237919   0.802   2.195   7.913  0.6674  1.0118 -1.2415
 5454TIP3   OH237920   2.126   4.595   1.602  0.4912  0.3082 -0.2054
 5454TIP3    H137921   2.067   4.546   1.659 -0.0209  0.0633 -0.9406
 5454TIP3    H237922   2.079   4.603   1.519  0.5012  2.1537 -0.0787
 5455TIP3   OH237923   0.864   2.827   6.312  0.1763 -0.1324 -0.3450
 5455TIP3    H137924   0.869   2.922   6.318 -2.5207  0.0640 -0.0261
 5455TIP3    H237925   0.870   2.809   6.218 -0.5335  0.4821 -0.5210
 5456TIP3   OH237926   4.381   0.898   0.192 -0.2114 -0.3088 -0.5597
 5456TIP3    H137927   4.386   0.818   0.245 -0.2820  0.5269  0.7579
 5456TIP3    H237928   4.293   0.897   0.155 -0.8501  0.0353  0.9082
 5457TIP3   OH237929   6.618   2.521   0.845  0.4082  0.2453  0.5558
 5457TIP3    H137930   6.624   2.439   0.796  0.5820  0.4325  0.2594
 5457TIP3    H237931   6.707   2.556   0.842  0.6549 -0.2161  1.8408
 5458TIP3   OH237932   3.458   4.954   1.568 -0.0918 -0.4412  0.2572
 5458TIP3    H137933   3.385   5.011   1.593  0.0191 -0.3742  0.4328
 5458TIP3    H237934   3.485   4.985   1.482 -1.8734 -2.0429 -0.9548
 5459TIP3   OH237935   4.371   2.160   8.170  0.1226  0.1192 -0.0380
 5459TIP3    H137936   4.457   2.118   8.178  0.3206  0.6615  0.9518
 5459TIP3    H237937   4.374   2.204   8.085 -0.1208 -1.8706 -1.1385
 5460TIP3   OH237938   3.589   4.197   7.406  0.1808 -0.2336 -0.3737
 5460TIP3    H137939   3.549   4.114   7.379 -0.4075  0.1046 -0.5537
 5460TIP3    H237940   3.525   4.236   7.466 -0.5207  1.0671 -1.9151
 5461TIP3   OH237941   4.772   0.402   0.304  0.1383  0.0281  0.3829
 5461TIP3    H137942   4.713   0.327   0.297 -0.9915  0.9481 -0.3947
 5461TIP3    H237943   4.821   0.402   0.222 -0.1294  0.3209  0.2145
 5462TIP3   OH237944   1.116   1.152   0.369 -0.2928 -0.2218 -0.3935
 5462TIP3    H137945   1.087   1.243   0.378  2.2089  0.6420 -0.4732
 5462TIP3    H237946   1.166   1.151   0.288  0.5719 -1.4261  0.1293
 5463TIP3   OH237947   4.582   2.544   7.265  0.4250 -0.6054  0.8076
 5463TIP3    H137948   4.561   2.537   7.172  3.1115  2.2550 -0.1724
 5463TIP3    H237949   4.605   2.454   7.291 -2.1561 -1.7967 -0.7105
 5464TIP3   OH237950   4.225   2.544   8.374 -0.0266 -0.3966  0.0311
 5464TIP3    H137951   4.195   2.526   8.285  0.1405  0.8090 -0.2827
 5464TIP3    H237952   4.216   2.460   8.420 -2.8785 -0.3548 -0.3235
 5465TIP3   OH237953   2.543   1.318   0.577  0.2864  0.1113  0.2501
 5465TIP3    H137954   2.489   1.239   0.577  0.7580 -0.2332  1.1435
 5465TIP3    H237955   2.483   1.389   0.598 -0.4452  0.2469 -2.0692
 5466TIP3   OH237956   6.359   3.125   1.301 -0.5957  0.5326  0.3603
 5466TIP3    H137957   6.338   3.217   1.283  1.2522  0.7994 -0.6182
 5466TIP3    H237958   6.407   3.096   1.224  0.1601 -0.8193  1.3023
 5467TIP3   OH237959   5.260   3.386   1.042 -0.3721 -0.2944 -0.3760
 5467TIP3    H137960   5.194   3.437   0.994  1.5756  1.5718 -1.2441
 5467TIP3    H237961   5.325   3.451   1.070  1.6986 -2.1554 -0.5757
 5468TIP3   OH237962   4.225   1.833   6.180  0.1277 -0.4436 -0.6890
 5468TIP3    H137963   4.198   1.905   6.123  0.8170  1.6122  1.4381
 5468TIP3    H237964   4.264   1.768   6.120  0.1211  1.2390 -2.6212
 5469TIP3   OH237965   1.478   1.978   7.654  0.3987  0.0844 -0.6490
 5469TIP3    H137966   1.529   1.912   7.701  0.0819 -1.5561 -2.4818
 5469TIP3    H237967   1.544   2.033   7.611  0.6933  1.6221  1.5961
 5470TIP3   OH237968   6.597   0.853   8.434 -0.3229  0.0043  0.0164
 5470TIP3    H137969   6.588   0.779   8.374 -1.1257 -0.6381  0.9002
 5470TIP3    H237970   6.662   0.825   8.498  1.1534  1.0095 -0.9856
 5471TIP3   OH237971   3.626   3.046   1.217  0.5737  0.0348 -0.7675
 5471TIP3    H137972   3.716   3.077   1.233 -0.2960  1.7571  1.2394
 5471TIP3    H237973   3.607   2.989   1.292 -1.2226  2.6741  0.9305
 5472TIP3   OH237974   4.904   0.263   7.629 -0.4513  0.3768 -0.5196
 5472TIP3    H137975   4.925   0.205   7.555 -1.2904 -0.4221 -0.1639
 5472TIP3    H237976   4.828   0.313   7.599 -1.2988 -0.5242  0.0667
 5473TIP3   OH237977   1.082   3.599   2.412 -0.1543 -0.0271  0.0203
 5473TIP3    H137978   1.006   3.657   2.422 -0.7610 -0.8107  0.0459
 5473TIP3    H237979   1.149   3.637   2.468 -1.5499 -1.0544  2.5389
 5474TIP3   OH237980   2.646   1.423   0.855  0.1983  0.5111  0.5424
 5474TIP3    H137981   2.701   1.399   0.780 -2.0802 -0.1655 -1.0376
 5474TIP3    H237982   2.660   1.517   0.867 -0.4670  0.9529 -1.7357
 5475TIP3   OH237983   6.262   0.602   1.354  0.2295  0.7918 -0.1722
 5475TIP3    H137984   6.195   0.660   1.317 -2.9058 -1.1217  2.0603
 5475TIP3    H237985   6.292   0.647   1.433  0.9469  1.2094 -0.6663
 5476TIP3   OH237986   1.618   6.516   1.153 -0.0474  0.0574 -0.7326
 5476TIP3    H137987   1.570   6.464   1.088  0.2905 -0.4215 -0.6073
 5476TIP3    H237988   1.599   6.474   1.237  0.1672  0.1826 -0.6190
 5477TIP3   OH237989   5.034   3.405   7.011  0.3883  0.1657  0.1628
 5477TIP3    H137990   5.079   3.489   6.999 -0.2689  0.5182  0.1161
 5477TIP3    H237991   5.099   3.339   6.987  0.3156  0.7258 -1.7345
 5478TIP3   OH237992   0.839   5.094   6.747  0.3159 -0.7286 -0.4779
 5478TIP3    H137993   0.898   5.150   6.798 -1.5537  1.2773 -0.3208
 5478TIP3    H237994   0.838   5.133   6.660 -1.3624 -0.1608 -0.2492
 5479TIP3   OH237995   6.840   0.343   2.130  0.1006  0.0435 -0.1511
 5479TIP3    H137996   6.860   0.267   2.076 -1.1015 -0.2702 -0.1801
 5479TIP3    H237997   6.924   0.367   2.170  0.6582 -0.7698 -0.8061
 5480TIP3   OH237998   2.662   4.774   0.520 -0.4227  0.0170 -0.0585
 5480TIP3    H137999   2.627   4.709   0.580 -0.6476 -0.0933 -0.3071
 5480TIP3    H238000   2.622   4.754   0.435 -1.5055  1.2574  0.1187
 5481TIP3   OH238001   6.135   4.378   1.457  0.2452  0.4032 -0.4920
 5481TIP3    H138002   6.166   4.325   1.383  0.2973 -2.3343  1.3165
 5481TIP3    H238003   6.051   4.413   1.428  0.9877  0.7150 -2.3843
 5482TIP3   OH238004   0.983   3.498   0.946  0.5020 -0.2330 -0.0907
 5482TIP3    H138005   0.964   3.510   0.853 -0.5197 -1.4909 -0.0602
 5482TIP3    H238006   1.069   3.455   0.948 -0.4472 -2.2529 -0.5730
 5483TIP3   OH238007   3.747   0.724   1.628 -1.1647  0.5921 -0.3164
 5483TIP3    H138008   3.761   0.760   1.716 -1.0868  1.1759 -0.5644
 5483TIP3    H238009   3.738   0.630   1.642  0.7023  0.4466  0.1190
 5484TIP3   OH238010   4.806   6.573   0.903 -0.6941  0.3775  0.1239
 5484TIP3    H138011   4.851   6.610   0.979  0.1206 -0.0915 -0.1175
 5484TIP3    H238012   4.804   6.644   0.839  3.1610 -0.5884 -1.3348
 5485TIP3   OH238013   5.921   2.410   2.380 -0.1272  0.4172 -0.3697
 5485TIP3    H138014   5.842   2.391   2.331 -0.9234  2.1641  0.1640
 5485TIP3    H238015   5.959   2.324   2.400 -0.2178 -0.3777 -3.2348
 5486TIP3   OH238016   4.938   5.391   0.618  0.5958  0.0966  0.2731
 5486TIP3    H138017   4.960   5.384   0.525  1.2636 -0.1802  0.4438
 5486TIP3    H238018   4.993   5.325   0.661 -0.6721 -0.6976  0.7264
 5487TIP3   OH238019   0.101   1.824   7.278 -0.0542  0.3622 -0.5552
 5487TIP3    H138020   0.049   1.799   7.354 -0.7236  1.6059 -0.5874
 5487TIP3    H238021   0.192   1.823   7.309 -0.1686 -0.8443 -0.2305
 5488TIP3   OH238022   1.037   6.097   7.315  0.0234  0.3176 -0.4086
 5488TIP3    H138023   1.055   6.067   7.405 -0.7936  1.8886  0.3076
 5488TIP3    H238024   0.969   6.037   7.283  0.3602 -0.2883 -0.0046
 5489TIP3   OH238025   3.333   6.774   2.595 -0.0087 -0.1502 -0.5437
 5489TIP3    H138026   3.395   6.762   2.666 -1.9712  0.8690  1.4914
 5489TIP3    H238027   3.382   6.821   2.528  1.6013 -0.0608  0.6334
 5490TIP3   OH238028   4.404   2.344   7.941 -0.3235 -0.6521  0.4109
 5490TIP3    H138029   4.447   2.408   7.998 -0.3792 -0.1633 -0.0859
 5490TIP3    H238030   4.343   2.396   7.888  0.4778 -0.9120 -0.8320
 5491TIP3   OH238031   3.135   5.380   7.016 -0.8876  0.0806  0.0547
 5491TIP3    H138032   3.125   5.387   6.921 -0.4852 -0.8193 -0.0723
 5491TIP3    H238033   3.089   5.456   7.052 -0.4548  0.7961 -0.8881
 5492TIP3   OH238034   2.773   5.681   7.460  0.1545 -0.0468  0.2410
 5492TIP3    H138035   2.679   5.665   7.472  0.4670 -1.7668  0.7098
 5492TIP3    H238036   2.791   5.757   7.516 -0.9119  0.1760  0.3102
 5493TIP3   OH238037   6.370   6.471   6.690 -0.6319  0.2837 -0.2997
 5493TIP3    H138038   6.394   6.462   6.782 -0.0768 -1.2018 -0.5596
 5493TIP3    H238039   6.435   6.419   6.643 -0.6890  1.3108 -1.5735
 5494TIP3   OH238040   5.372   2.333   8.122  0.3914  0.1917 -0.3593
 5494TIP3    H138041   5.339   2.404   8.176  2.8346  1.0001  0.2081
 5494TIP3    H238042   5.392   2.374   8.037 -1.4160 -0.6104 -1.2158
 5495TIP3   OH238043   0.531   6.020   7.263  1.4179  0.3021 -0.0968
 5495TIP3    H138044   0.521   5.925   7.267 -0.7981  0.5229  0.6779
 5495TIP3    H238045   0.527   6.050   7.354  0.7683  1.2401 -0.4157
 5496TIP3   OH238046   6.232   1.953   1.059  0.3179  0.0488 -0.3454
 5496TIP3    H138047   6.263   1.864   1.074 -1.4056 -0.5853 -0.3590
 5496TIP3    H238048   6.137   1.949   1.073  0.1507  1.8075 -0.6764
 5497TIP3   OH238049   4.176   4.702   1.026 -0.0485  0.0831 -0.0887
 5497TIP3    H138050   4.235   4.771   0.997  0.4000  0.2797  1.2181
 5497TIP3    H238051   4.224   4.621   1.011  0.1500  0.1757  0.0512
 5498TIP3   OH238052   4.006   2.836   6.833  0.5978 -0.2355  0.3074
 5498TIP3    H138053   4.012   2.876   6.747 -0.6545  1.4182  0.9256
 5498TIP3    H238054   3.918   2.797   6.835  1.5809 -2.6402 -0.0735
 5499TIP3   OH238055   6.371   4.549   7.571 -0.0804  0.7229 -0.2238
 5499TIP3    H138056   6.338   4.556   7.482 -1.0518  2.2143  0.2136
 5499TIP3    H238057   6.294   4.558   7.626  0.3013 -1.5675  0.7956
 5500TIP3   OH238058   4.778   2.745   7.232 -0.5948 -0.1893 -0.3942
 5500TIP3    H138059   4.769   2.808   7.160  1.6698 -0.9941 -1.4495
 5500TIP3    H238060   4.708   2.681   7.217 -1.2209  0.5843 -0.8523
 5501TIP3   OH238061   2.575   4.281   6.688  0.5155  0.3277  0.2484
 5501TIP3    H138062   2.554   4.279   6.594  1.8002  1.6946 -0.1141
 5501TIP3    H238063   2.579   4.189   6.714  0.0772 -0.0769 -1.0173
 5502TIP3   OH238064   1.833   4.869   0.201  0.4572  0.6012  0.2373
 5502TIP3    H138065   1.921   4.834   0.220  1.3308 -0.8659 -5.0195
 5502TIP3    H238066   1.773   4.799   0.227  1.4028 -0.7209 -0.9559
 5503TIP3   OH238067   6.303   3.694   1.008 -0.0249  0.0273 -0.5405
 5503TIP3    H138068   6.350   3.613   1.026  1.1293  0.4019 -1.7471
 5503TIP3    H238069   6.225   3.689   1.063  1.1337 -0.8596  1.1057
 5504TIP3   OH238070   5.450   3.517   7.703 -0.3064  0.0771 -0.1093
 5504TIP3    H138071   5.366   3.560   7.688  0.2583  1.0180 -0.6373
 5504TIP3    H238072   5.427   3.425   7.717 -1.4208  0.3232 -0.2117
 5505TIP3   OH238073   4.519   1.528   8.443 -0.4753  1.0334  0.2543
 5505TIP3    H138074   4.492   1.482   8.523 -1.0756  0.5183 -0.2349
 5505TIP3    H238075   4.450   1.508   8.380  0.8876 -0.1191 -0.9518
 5506TIP3   OH238076   0.737   5.387   2.342 -0.1597 -0.2047 -0.6523
 5506TIP3    H138077   0.831   5.373   2.355 -0.4659 -2.9052 -0.7972
 5506TIP3    H238078   0.717   5.345   2.258 -1.3140  1.3719 -1.2081
 5507TIP3   OH238079   2.967   0.141   7.781 -0.6113  0.6904 -0.4294
 5507TIP3    H138080   3.009   0.215   7.824 -0.4409  0.4318 -0.1501
 5507TIP3    H238081   2.902   0.110   7.844  2.0808 -2.0075  1.2786
 5508TIP3   OH238082   1.385   2.972   8.655 -0.0527  0.3858 -0.4181
 5508TIP3    H138083   1.296   2.937   8.658  0.2255 -0.2712  0.6550
 5508TIP3    H238084   1.388   3.035   8.726  0.9169 -1.0695  0.8884
 5509TIP3   OH238085   6.282   5.424   1.339  0.0212  0.1768  0.2045
 5509TIP3    H138086   6.202   5.406   1.388  0.4896  0.8512  1.2768
 5509TIP3    H238087   6.318   5.503   1.381  0.2630  1.0130 -1.4794
 5510TIP3   OH238088   6.457   0.898   1.548 -0.2831 -0.3302 -0.0029
 5510TIP3    H138089   6.486   0.941   1.629 -0.8042  1.9109 -0.9358
 5510TIP3    H238090   6.441   0.807   1.574  1.5200 -0.1830  1.9259
 5511TIP3   OH238091   1.873   0.949   2.075  0.5797  0.0601  0.4263
 5511TIP3    H138092   1.813   0.882   2.043 -0.9972  1.7119 -0.2770
 5511TIP3    H238093   1.849   0.961   2.167  0.5660 -0.0412  0.4356
 5512TIP3   OH238094   1.529   3.014   2.014 -0.3021 -0.2371 -0.0223
 5512TIP3    H138095   1.497   3.101   1.992  0.0953 -0.1251 -0.1722
 5512TIP3    H238096   1.501   3.000   2.105 -3.0568 -1.2051 -0.9111
 5513TIP3   OH238097   1.693   4.916   7.181 -0.3178 -0.2250  0.2408
 5513TIP3    H138098   1.753   4.989   7.193  0.8270 -1.1729  0.4214
 5513TIP3    H238099   1.643   4.939   7.102 -1.2224  1.5479  1.2532
 5514TIP3   OH238100   5.624   3.814   7.319 -0.2726 -0.9283  0.3489
 5514TIP3    H138101   5.546   3.867   7.335  0.1476  0.0685 -0.7550
 5514TIP3    H238102   5.610   3.777   7.232  1.4585  1.1717 -0.9455
 5515TIP3   OH238103   6.002   3.300   1.623  0.1674 -0.1134  0.3891
 5515TIP3    H138104   5.965   3.331   1.705 -0.3751 -1.2723  0.5966
 5515TIP3    H238105   5.927   3.296   1.563  0.2740 -0.7780  0.2979
 5516TIP3   OH238106   3.194   0.231   0.487  0.3060 -0.3813 -0.1957
 5516TIP3    H138107   3.282   0.239   0.522  0.2088  0.7777 -0.1551
 5516TIP3    H238108   3.169   0.140   0.502  0.8472 -0.2967  1.3705
 5517TIP3   OH238109   3.956   4.273   1.842  0.6197  0.3477 -0.1115
 5517TIP3    H138110   3.896   4.222   1.897 -0.0027  2.2131  1.0308
 5517TIP3    H238111   4.004   4.208   1.792 -0.4992 -1.3237  0.8974
 5518TIP3   OH238112   4.305   1.045   1.669  0.1937 -0.2600 -0.4349
 5518TIP3    H138113   4.225   0.993   1.664  1.6818 -2.6153 -1.7294
 5518TIP3    H238114   4.321   1.054   1.763 -0.8961 -0.8946 -0.1664
 5519TIP3   OH238115   3.232   0.593   0.789  0.5610 -0.1217 -0.1415
 5519TIP3    H138116   3.258   0.548   0.870  1.4201  1.8636  0.7600
 5519TIP3    H238117   3.217   0.684   0.816 -2.0590 -0.0103 -1.6922
 5520TIP3   OH238118   3.448   1.897   6.724 -0.4856  0.2955  0.2395
 5520TIP3    H138119   3.362   1.859   6.709 -0.4992  0.8294 -1.1863
 5520TIP3    H238120   3.500   1.824   6.759 -0.7091 -0.9101 -1.7361
 5521TIP3   OH238121   2.853   0.214   8.695 -0.4798  0.3915 -0.0575
 5521TIP3    H138122   2.792   0.286   8.681 -0.0396  0.9363  0.7162
 5521TIP3    H238123   2.829   0.177   8.780  0.1150  0.4807  0.1611
 5522TIP3   OH238124   3.330   1.602   6.530 -0.4214 -0.0713 -0.3409
 5522TIP3    H138125   3.287   1.612   6.615  1.3665 -0.5450  0.6590
 5522TIP3    H238126   3.298   1.518   6.498 -2.2614  0.7754 -0.8852
 5523TIP3   OH238127   3.155   4.785   7.864  0.0066 -0.3012 -0.2844
 5523TIP3    H138128   3.116   4.803   7.950 -0.3210  0.2851 -0.5480
 5523TIP3    H238129   3.231   4.731   7.883  0.4041  0.4916  0.4564
 5524TIP3   OH238130   4.864   1.553   0.407 -0.3085 -0.6658  0.3971
 5524TIP3    H138131   4.902   1.603   0.479  0.2135 -1.6460  0.8260
 5524TIP3    H238132   4.827   1.619   0.349 -0.3989  0.1648  1.3667
 5525TIP3   OH238133   3.939   0.728   8.221  0.3458  0.0737 -0.1325
 5525TIP3    H138134   4.030   0.750   8.199 -0.4708  1.0422 -3.0775
 5525TIP3    H238135   3.912   0.668   8.151 -1.1837 -0.5239  0.9240
 5526TIP3   OH238136   0.961   2.991   1.389  0.2578 -0.5235 -0.3628
 5526TIP3    H138137   0.973   2.969   1.297  0.1358 -0.1478 -0.4694
 5526TIP3    H238138   1.023   3.062   1.406  0.6173 -0.9071 -0.0316
 5527TIP3   OH238139   1.553   4.070   2.072  0.4232  0.3308  0.3457
 5527TIP3    H138140   1.511   3.989   2.044  1.2656  0.2800 -0.8666
 5527TIP3    H238141   1.481   4.129   2.095 -0.1931 -0.7207  1.1390
 5528TIP3   OH238142   5.885   5.205   2.781  0.3227  0.3358 -0.1373
 5528TIP3    H138143   5.849   5.174   2.698  0.8535  1.6983 -0.9065
 5528TIP3    H238144   5.811   5.204   2.842 -0.6874  1.6050 -1.2760
 5529TIP3   OH238145   0.017   4.611   8.060  0.0458  0.5595  0.1259
 5529TIP3    H138146   0.055   4.664   8.131  0.0627  1.5970 -0.6297
 5529TIP3    H238147  -0.070   4.650   8.047  0.1682  0.5819 -0.6338
 5530TIP3   OH238148   2.960   5.665   8.151  0.5282 -0.2031 -0.7122
 5530TIP3    H138149   2.949   5.753   8.116  2.0409 -0.3896 -1.7347
 5530TIP3    H238150   2.908   5.664   8.231  1.6247  2.0649  0.0955
 5531TIP3   OH238151   5.481   6.793   1.230  0.3622  0.0545  0.2645
 5531TIP3    H138152   5.408   6.825   1.176 -0.0540 -0.8491  0.2844
 5531TIP3    H238153   5.559   6.820   1.182 -0.0002 -0.3806 -0.5943
 5532TIP3   OH238154   1.440   6.546   2.320 -0.2715  0.1436  0.3399
 5532TIP3    H138155   1.361   6.560   2.268 -0.6093  1.7542  1.2252
 5532TIP3    H238156   1.510   6.585   2.268 -0.1635 -0.6317 -0.1092
 5533TIP3   OH238157   0.247   6.439   7.458  0.0989 -0.2633 -0.5293
 5533TIP3    H138158   0.292   6.523   7.451  0.6058  0.1427  4.1449
 5533TIP3    H238159   0.154   6.461   7.454  0.2253  0.6291  0.9231
 5534TIP3   OH238160   0.981   5.776   7.597 -0.1030 -0.2606  0.3516
 5534TIP3    H138161   0.886   5.786   7.610 -0.1373 -2.4194  2.4119
 5534TIP3    H238162   0.990   5.760   7.504 -1.8223 -0.5189  0.1899
 5535TIP3   OH238163   4.429   3.128   6.230 -0.3588 -0.4706  0.1333
 5535TIP3    H138164   4.514   3.098   6.263  0.8953  1.3959 -1.2243
 5535TIP3    H238165   4.388   3.171   6.305  1.3136  1.4056  0.0585
 5536TIP3   OH238166   6.849   0.345   6.301 -0.1923 -0.6637  0.4878
 5536TIP3    H138167   6.762   0.316   6.276 -1.0176  1.1431  1.0355
 5536TIP3    H238168   6.872   0.410   6.235 -0.8918  1.5471  2.2628
 5537TIP3   OH238169   1.760   2.437   7.788 -0.5573  0.2860  0.5419
 5537TIP3    H138170   1.738   2.491   7.864 -0.4807 -0.0149  0.7791
 5537TIP3    H238171   1.819   2.491   7.737  0.4600 -0.0075  1.3718
 5538TIP3   OH238172   2.203   3.449   8.155  0.9340  0.6118 -0.2669
 5538TIP3    H138173   2.223   3.493   8.072  0.3166  0.0894 -0.7069
 5538TIP3    H238174   2.287   3.412   8.183  0.9888  0.0313 -1.1343
 5539TIP3   OH238175   5.886   2.684   7.407 -0.1995 -0.4890 -0.0104
 5539TIP3    H138176   5.799   2.648   7.396 -2.0853  3.4766  0.0670
 5539TIP3    H238177   5.903   2.730   7.324  1.9197 -1.2917 -0.0752
 5540TIP3   OH238178   1.109   5.750   7.942 -0.1552 -0.1017  0.3331
 5540TIP3    H138179   1.171   5.810   7.899 -0.1260 -0.2146  0.2156
 5540TIP3    H238180   1.140   5.744   8.032  0.1330 -0.3230  0.2238
 5541TIP3   OH238181   6.006   0.087   7.593  0.0911  0.1711 -0.5439
 5541TIP3    H138182   5.935   0.026   7.576  1.3156 -0.9739 -1.8217
 5541TIP3    H238183   6.076   0.034   7.630  0.7974  0.9960 -0.6448
 5542TIP3   OH238184   3.384   0.063   6.935 -0.0643  0.1806  0.2483
 5542TIP3    H138185   3.369   0.095   7.024 -0.3665 -0.2309  0.3544
 5542TIP3    H238186   3.388  -0.033   6.945  2.8454  0.2313  0.2459
 5543TIP3   OH238187   1.663   1.467   1.345  0.0722  0.3846  0.0055
 5543TIP3    H138188   1.667   1.372   1.332  0.9559  0.3602  0.3300
 5543TIP3    H238189   1.594   1.480   1.410  0.3558 -0.1000  0.4122
 5544TIP3   OH238190   3.234   2.424   1.752  0.0556 -0.1693 -0.1273
 5544TIP3    H138191   3.269   2.438   1.664 -2.2299 -0.0677 -1.1086
 5544TIP3    H238192   3.311   2.412   1.807  1.5838  0.2210 -2.0507
 5545TIP3   OH238193   2.180   5.750   1.286  0.4844  0.0588  0.3016
 5545TIP3    H138194   2.145   5.699   1.359 -0.4791 -0.0555 -0.2266
 5545TIP3    H238195   2.275   5.743   1.295  0.3678 -0.7897  0.9629
 5546TIP3   OH238196   4.661   0.007   0.070  0.4588  0.1250 -0.2905
 5546TIP3    H138197   4.598  -0.066   0.071  0.4846  0.1071  0.1222
 5546TIP3    H238198   4.741  -0.032   0.034  0.0520  0.3036 -1.4117
 5547TIP3   OH238199   3.339   5.080   0.940 -1.1865  0.1145 -0.0467
 5547TIP3    H138200   3.378   5.152   0.892 -0.0743 -0.1385  0.4370
 5547TIP3    H238201   3.279   5.122   1.002  0.3109  0.7390  1.0377
 5548TIP3   OH238202   5.937   5.722   8.222  0.4803  0.2592  0.6323
 5548TIP3    H138203   5.925   5.723   8.317 -0.8422 -0.1772  0.4988
 5548TIP3    H238204   5.892   5.802   8.192  1.5912  0.8288  0.4249
 5549TIP3   OH238205   2.927   1.232   7.497 -0.1994 -0.1079 -0.2235
 5549TIP3    H138206   3.011   1.257   7.535 -0.0297 -1.2957  0.2264
 5549TIP3    H238207   2.934   1.137   7.483 -1.2640 -0.1317 -0.6873
 5550TIP3   OH238208   1.113   2.266   8.418  0.4541  0.1824  0.2680
 5550TIP3    H138209   1.074   2.178   8.414 -2.1186  1.2633 -0.0565
 5550TIP3    H238210   1.130   2.279   8.512  0.0185 -0.3231  0.4264
 5551TIP3   OH238211   0.854   3.806   6.841  0.3707  0.2760  0.4877
 5551TIP3    H138212   0.937   3.759   6.853  0.0362  0.0138  1.9663
 5551TIP3    H238213   0.789   3.749   6.881 -0.6237  0.2842 -1.0250
 5552TIP3   OH238214   1.700   6.660   6.800  0.0367 -0.2229 -0.2036
 5552TIP3    H138215   1.773   6.668   6.739  0.0862 -2.8476 -0.6280
 5552TIP3    H238216   1.732   6.699   6.881  2.7238 -2.8934  0.1954
 5553TIP3   OH238217   4.876   0.807   1.254  0.5498 -0.3270 -0.3675
 5553TIP3    H138218   4.906   0.739   1.194 -1.1303 -0.1878 -1.4432
 5553TIP3    H238219   4.916   0.888   1.221 -0.6216 -0.2005 -1.5477
 5554TIP3   OH238220   4.600   6.410   8.655  0.4358 -0.2611  0.0177
 5554TIP3    H138221   4.510   6.384   8.634  0.2545  1.0249 -0.9991
 5554TIP3    H238222   4.590   6.479   8.721  0.6356  0.1768 -0.4017
 5555TIP3   OH238223   0.394   4.585   1.818  0.1653 -0.3005 -0.4394
 5555TIP3    H138224   0.315   4.598   1.767  1.0172 -1.1265 -2.0598
 5555TIP3    H238225   0.465   4.586   1.753  1.4105 -0.2719  0.8734
 5556TIP3   OH238226   3.646   2.123   0.886 -0.6458  0.2300  0.6488
 5556TIP3    H138227   3.636   2.217   0.898  0.4015  0.4211  0.1357
 5556TIP3    H238228   3.697   2.094   0.962  1.3696  0.5508 -0.5300
 5557TIP3   OH238229   6.294   2.328   6.632  0.1570  0.6589  0.4997
 5557TIP3    H138230   6.251   2.401   6.588 -0.4265  1.0528  1.6582
 5557TIP3    H238231   6.233   2.255   6.623  1.7689 -0.4594 -2.7302
 5558TIP3   OH238232   6.012   6.202   7.400  0.5460 -0.3254  0.1066
 5558TIP3    H138233   5.969   6.281   7.367  1.5793  0.2303  0.0283
 5558TIP3    H238234   5.973   6.130   7.351  0.6880  0.2955 -0.9586
 5559TIP3   OH238235   1.758   6.648   1.476 -0.0333  0.2718  0.1282
 5559TIP3    H138236   1.808   6.588   1.422 -0.7489 -0.1733 -0.0501
 5559TIP3    H238237   1.795   6.735   1.456  1.5481 -0.1708  0.9983
 5560TIP3   OH238238   1.455   6.791   0.969 -0.0830 -0.4903 -0.1436
 5560TIP3    H138239   1.520   6.739   0.922 -0.6862 -0.3680 -1.1524
 5560TIP3    H238240   1.475   6.881   0.944 -0.5945 -0.4484 -0.4302
 5561TIP3   OH238241   1.459   4.270   1.739 -0.2304 -0.1186 -0.2781
 5561TIP3    H138242   1.418   4.188   1.765  1.6486 -1.4375 -1.1960
 5561TIP3    H238243   1.552   4.259   1.762  0.2138  1.4145 -1.1610
 5562TIP3   OH238244   6.742   3.577   1.506  0.8197 -0.6909  0.2612
 5562TIP3    H138245   6.737   3.634   1.429 -1.9236 -0.9769  0.1283
 5562TIP3    H238246   6.711   3.492   1.475 -2.5997 -0.2823  1.9982
 5563TIP3   OH238247   5.994   2.415   8.687 -0.4286  0.0235  0.4185
 5563TIP3    H138248   5.945   2.368   8.755  1.6168 -1.6023  0.8626
 5563TIP3    H238249   6.060   2.464   8.736  0.0671  0.0811 -0.3024
 5564TIP3   OH238250   5.686   6.453   0.039 -0.2137 -0.3354 -0.2742
 5564TIP3    H138251   5.745   6.477   0.110  0.5514 -0.3000 -0.9126
 5564TIP3    H238252   5.679   6.358   0.044 -0.1286 -0.3364 -0.1783
 5565TIP3   OH238253   1.584   1.293   6.349  0.4212 -0.6020 -0.0225
 5565TIP3    H138254   1.539   1.211   6.371  0.2273 -0.2684  0.8649
 5565TIP3    H238255   1.673   1.266   6.326  0.9420 -0.9194  2.1410
 5566TIP3   OH238256   3.956   3.459   1.567  0.2695 -0.2538 -0.0826
 5566TIP3    H138257   4.010   3.470   1.489 -0.6999  0.3736 -0.6938
 5566TIP3    H238258   3.928   3.367   1.564 -1.4899  0.2770 -1.6815
 5567TIP3   OH238259   1.873   4.872   6.211 -0.1894  0.0916 -0.1599
 5567TIP3    H138260   1.934   4.901   6.143 -0.4148 -0.9260 -0.8057
 5567TIP3    H238261   1.923   4.812   6.266  0.4118  1.9450  1.4568
 5568TIP3   OH238262   3.752   4.990   7.742  0.6993  0.3292 -0.7759
 5568TIP3    H138263   3.749   5.045   7.663 -0.4598  0.2938 -0.7706
 5568TIP3    H238264   3.837   4.947   7.737  0.2230 -0.5311 -2.6122
 5569TIP3   OH238265   6.065   3.099   0.032 -0.0533 -0.1621  0.1661
 5569TIP3    H138266   6.093   3.030   0.092 -0.4075 -2.0493 -1.7219
 5569TIP3    H238267   6.142   3.115  -0.023 -0.2926  0.2037 -0.0634
 5570TIP3   OH238268   4.560   3.859   6.987 -0.1028  0.5790  0.4738
 5570TIP3    H138269   4.624   3.788   6.979  1.2156  1.8839 -1.5154
 5570TIP3    H238270   4.559   3.879   7.081  1.7717 -0.0820  0.6825
 5571TIP3   OH238271   1.279   6.434   8.270  0.2587 -0.0017  0.3201
 5571TIP3    H138272   1.256   6.358   8.216  0.2944 -1.1092  1.7924
 5571TIP3    H238273   1.373   6.425   8.284 -0.0466 -0.8722  2.1512
 5572TIP3   OH238274   3.526   6.747   0.156 -0.7285  0.1961 -0.9310
 5572TIP3    H138275   3.560   6.742   0.246 -0.2105  0.2002 -1.1281
 5572TIP3    H238276   3.456   6.681   0.154  0.1355 -0.7439 -0.9100
 5573TIP3   OH238277   4.361   5.924   8.153  0.2346  0.2298 -0.0782
 5573TIP3    H138278   4.347   5.840   8.197 -2.3396  0.6539  0.0467
 5573TIP3    H238279   4.315   5.915   8.070 -0.6371  1.7129  0.2087
 5574TIP3   OH238280   0.418   5.112   1.064  0.5725 -0.4162  0.9357
 5574TIP3    H138281   0.468   5.038   1.028  1.7929  0.5219  0.6311
 5574TIP3    H238282   0.421   5.179   0.996 -0.0162  0.1303  1.4369
 5575TIP3   OH238283   1.684   6.093   7.777 -0.1899  0.5285  0.2292
 5575TIP3    H138284   1.768   6.056   7.802  0.4005  0.8029 -1.2564
 5575TIP3    H238285   1.681   6.085   7.682 -2.0804  0.0511  0.2899
 5576TIP3   OH238286   3.934   6.666   7.717 -0.5452 -0.1917 -0.3228
 5576TIP3    H138287   3.915   6.597   7.654 -0.4150  0.6683 -1.3270
 5576TIP3    H238288   3.900   6.633   7.800 -2.9625 -0.3378 -1.2784
 5577TIP3   OH238289   6.742   3.312   0.825  1.1335  0.3408 -0.4690
 5577TIP3    H138290   6.698   3.342   0.745  0.4593 -0.0790 -0.2583
 5577TIP3    H238291   6.787   3.390   0.858  1.9577  0.3801 -1.5918
 5578TIP3   OH238292   2.008   0.643   7.061  0.0095 -0.6428 -0.1748
 5578TIP3    H138293   2.009   0.737   7.046  1.9910 -0.8376 -1.5210
 5578TIP3    H238294   1.991   0.605   6.975 -1.8314 -1.5510  0.5237
 5579TIP3   OH238295   3.243   5.534   8.586 -0.2805  0.5263  0.1694
 5579TIP3    H138296   3.169   5.507   8.531  0.1611  0.3435 -0.3413
 5579TIP3    H238297   3.302   5.579   8.526 -1.1720  3.0547  1.0588
 5580TIP3   OH238298   1.662   6.129   0.610  0.0209 -0.2157 -0.1186
 5580TIP3    H138299   1.669   6.034   0.610  0.3145 -0.2158 -1.4573
 5580TIP3    H238300   1.578   6.148   0.651  2.1755 -0.7506  5.4975
 5581TIP3   OH238301   3.074   1.212   1.714  0.5264  0.2106 -0.6059
 5581TIP3    H138302   3.156   1.261   1.708  0.1357  1.1831  1.1760
 5581TIP3    H238303   3.011   1.275   1.751 -0.6990 -0.8718 -0.7764
 5582TIP3   OH238304   5.142   4.131   1.791 -0.2599 -0.6562  0.6364
 5582TIP3    H138305   5.069   4.193   1.802  0.4135  0.1347  0.7355
 5582TIP3    H238306   5.166   4.107   1.880  0.5246  0.2007  0.6711
 5583TIP3   OH238307   5.160   3.426   0.374 -0.0050  0.0028 -0.3669
 5583TIP3    H138308   5.187   3.334   0.373  1.1489  0.2938  0.8139
 5583TIP3    H238309   5.226   3.470   0.427 -0.5962  1.5086 -0.8165
 5584TIP3   OH238310   0.666   4.790   8.270 -0.1550 -0.6787 -0.3424
 5584TIP3    H138311   0.586   4.811   8.318  0.3799  0.7195  0.0072
 5584TIP3    H238312   0.685   4.699   8.293  0.3141  0.0471  2.5064
 5585TIP3   OH238313   6.543   6.104   8.470 -0.1715 -0.4367  0.7894
 5585TIP3    H138314   6.483   6.111   8.395 -1.2170 -0.5871  1.5789
 5585TIP3    H238315   6.564   6.011   8.474 -1.5859 -0.7511  1.7501
 5586TIP3   OH238316   6.464   0.418   1.478  0.0396 -0.1876  0.1758
 5586TIP3    H138317   6.461   0.370   1.560 -1.2271 -0.9570 -0.2952
 5586TIP3    H238318   6.374   0.443   1.460  0.3275  0.1943 -0.8506
 5587TIP3   OH238319   3.167   6.459   0.686 -0.2787  0.1353  0.3793
 5587TIP3    H138320   3.175   6.456   0.591  2.7141 -1.7002  0.5690
 5587TIP3    H238321   3.213   6.540   0.711  2.1601 -1.1626  0.3741
 5588TIP3   OH238322   2.045   5.675   0.099 -0.3466 -0.5584 -0.1422
 5588TIP3    H138323   2.132   5.652   0.066  0.0349 -0.1855  0.5782
 5588TIP3    H238324   1.995   5.593   0.091  0.5760 -1.2774  1.0409
 5589TIP3   OH238325   5.969   3.309   8.521 -1.0047  0.1808 -0.5137
 5589TIP3    H138326   5.882   3.342   8.497 -2.1843 -2.2342  0.1015
 5589TIP3    H238327   5.974   3.223   8.480 -0.8024 -1.6669  3.0501
 5590TIP3   OH238328   4.115   5.887   0.226 -0.5281 -0.1940  0.5258
 5590TIP3    H138329   4.033   5.877   0.178  0.4099 -0.7807 -1.0187
 5590TIP3    H238330   4.151   5.798   0.230  1.6862  0.4642 -1.9437
 5591TIP3   OH238331   3.178   3.031   7.314 -0.1050  0.2464 -0.0459
 5591TIP3    H138332   3.125   3.098   7.358  2.0457  1.3822  0.9812
 5591TIP3    H238333   3.249   3.080   7.273 -1.1152 -0.9459 -3.5549
 5592TIP3   OH238334   1.498   4.404   0.391 -0.0067  0.9902 -0.0338
 5592TIP3    H138335   1.440   4.477   0.410  0.8202  1.8164 -0.6227
 5592TIP3    H238336   1.447   4.347   0.333 -0.1454  1.8101 -0.7193
 5593TIP3   OH238337   4.520   0.557   0.940 -0.3983  0.1440 -0.2080
 5593TIP3    H138338   4.524   0.653   0.940  0.3734  0.1255  0.4145
 5593TIP3    H238339   4.439   0.536   0.895 -0.1639  1.0816 -1.1012
 5594TIP3   OH238340   1.023   1.148   7.321 -0.3753  0.1275  0.4662
 5594TIP3    H138341   1.006   1.240   7.338 -0.0058 -0.2766  3.6778
 5594TIP3    H238342   0.941   1.104   7.343  0.8745 -0.6899  4.2568
 5595TIP3   OH238343   1.331   1.440   6.615  0.2073  0.2999  0.8287
 5595TIP3    H138344   1.377   1.450   6.698  1.3950  1.3331  0.0852
 5595TIP3    H238345   1.260   1.503   6.619  0.7680  0.9543  0.7534
 5596TIP3   OH238346   0.660   6.090   0.462  0.0536 -0.0739  0.2789
 5596TIP3    H138347   0.601   6.163   0.445 -0.6034 -0.4604  0.8933
 5596TIP3    H238348   0.678   6.054   0.375 -0.6585  0.0060  0.0918
 5597TIP3   OH238349   0.395   5.251   8.254 -0.1587 -0.2342  0.0249
 5597TIP3    H138350   0.433   5.165   8.234  0.5544  0.4026 -1.5372
 5597TIP3    H238351   0.429   5.309   8.186 -1.6241  1.0225  0.2964
 5598TIP3   OH238352   4.788   4.822   6.381 -0.0723 -0.2618  0.2383
 5598TIP3    H138353   4.820   4.779   6.302 -1.2576 -0.1911 -0.2868
 5598TIP3    H238354   4.867   4.835   6.434  1.2146  2.1614 -2.0756
 5599TIP3   OH238355   5.746   2.182   1.645  0.6963 -0.1867 -0.2352
 5599TIP3    H138356   5.748   2.151   1.554  2.7515 -0.4527 -0.1514
 5599TIP3    H238357   5.795   2.115   1.693 -0.2712  0.0103  1.0748
 5600TIP3   OH238358   3.515   1.906   7.291  0.2549 -0.3871 -0.0649
 5600TIP3    H138359   3.561   1.845   7.348  0.1840 -1.2568 -0.9022
 5600TIP3    H238360   3.504   1.858   7.208 -1.1714  0.1840 -0.2479
 5601TIP3   OH238361   1.774   3.971   2.235 -0.0489 -0.3597  0.8098
 5601TIP3    H138362   1.749   3.886   2.273 -1.8356 -0.6039 -0.7613
 5601TIP3    H238363   1.699   3.997   2.183  1.5054  0.9133 -0.9322
 5602TIP3   OH238364   6.722   0.458   1.429 -0.2987  0.4859  0.0055
 5602TIP3    H138365   6.632   0.452   1.461 -0.6296  0.3752 -0.9182
 5602TIP3    H238366   6.757   0.538   1.470 -0.6301  0.2374  0.7939
 5603TIP3   OH238367   5.714   5.726   7.977  0.5419  0.0090 -0.2432
 5603TIP3    H138368   5.764   5.808   7.976 -0.5339  0.6933 -1.6790
 5603TIP3    H238369   5.720   5.693   7.887  3.6514 -3.2683  0.9008
 5604TIP3   OH238370   6.270   2.457   1.075  0.5682  0.1025  0.1911
 5604TIP3    H138371   6.211   2.438   1.148  0.6348 -0.6869  0.0452
 5604TIP3    H238372   6.215   2.505   1.013  0.5304  0.8550  0.7788
 5605TIP3   OH238373   4.010   3.373   6.508 -0.4571 -0.2067 -0.2542
 5605TIP3    H138374   3.919   3.348   6.490 -1.0252  2.1443 -0.9199
 5605TIP3    H238375   4.008   3.468   6.515  2.0461 -0.0592 -0.7340
 5606TIP3   OH238376   3.368   6.203   1.234  0.0189 -0.0532  0.7031
 5606TIP3    H138377   3.346   6.201   1.141  1.4828  1.0793  0.2926
 5606TIP3    H238378   3.339   6.119   1.268  1.1588 -1.2846 -1.2065
 5607TIP3   OH238379   1.612   1.529   0.085 -0.9078 -0.3254 -0.1960
 5607TIP3    H138380   1.560   1.449   0.086  2.1438 -2.4743 -0.4995
 5607TIP3    H238381   1.589   1.574   0.166 -2.6370 -1.5187  0.0249
 5608TIP3   OH238382   6.045   5.418   7.332  0.1295 -0.0666  0.0675
 5608TIP3    H138383   6.117   5.412   7.394  0.1325 -2.3664 -0.0600
 5608TIP3    H238384   5.968   5.390   7.381 -0.0479 -0.9398 -0.6841
 5609TIP3   OH238385   1.556   6.842   0.056  0.5323 -0.2959 -0.5985
 5609TIP3    H138386   1.570   6.904  -0.016 -0.8594 -0.7563 -1.2994
 5609TIP3    H238387   1.477   6.874   0.100  1.2969 -0.0896  0.6787
 5610TIP3   OH238388   0.086   2.103   1.892 -0.1671 -0.0138 -0.0429
 5610TIP3    H138389   0.079   2.143   1.806 -1.5521 -2.3209 -1.0996
 5610TIP3    H238390  -0.004   2.083   1.918  0.3287 -0.8286  1.1739
 5611TIP3   OH238391   6.126   4.193   7.284 -0.1085  0.2038  0.4749
 5611TIP3    H138392   6.125   4.279   7.242 -1.7073  0.2952  0.6636
 5611TIP3    H238393   6.219   4.171   7.290  0.2701  1.2963 -0.8332
 5612TIP3   OH238394   3.884   5.702   0.281 -0.2303  0.4959 -0.0538
 5612TIP3    H138395   3.955   5.672   0.338 -0.0141  0.1137 -0.5210
 5612TIP3    H238396   3.862   5.626   0.228 -0.2027  0.9454 -0.7176
 5613TIP3   OH238397   6.760   3.016   8.186 -1.3504 -0.1808  0.0813
 5613TIP3    H138398   6.777   2.955   8.114  0.6669  0.4640 -0.0508
 5613TIP3    H238399   6.673   2.991   8.219 -1.1200 -2.2838 -0.7648
 5614TIP3   OH238400   5.931   0.751   0.524 -0.3045 -0.1394 -0.2293
 5614TIP3    H138401   5.888   0.758   0.438  1.0573  2.0069 -0.8148
 5614TIP3    H238402   5.926   0.839   0.560  3.0761  0.1511 -0.1383
 5615TIP3   OH238403   1.428   5.990   7.473  0.0876 -0.8616  0.3377
 5615TIP3    H138404   1.377   6.049   7.417 -1.7016 -0.9437  1.7851
 5615TIP3    H238405   1.430   5.908   7.424  1.6898  0.0199 -1.2101
 5616TIP3   OH238406   6.467   0.639   0.785  0.4131 -0.6385 -0.4688
 5616TIP3    H138407   6.494   0.691   0.860 -0.8415  1.5265 -1.4127
 5616TIP3    H238408   6.400   0.580   0.819 -1.9171  1.9670 -0.1856
 5617TIP3   OH238409   6.370   1.946   8.103  0.0911 -0.3219  0.2934
 5617TIP3    H138410   6.406   2.031   8.080 -0.6123  0.2475  1.1990
 5617TIP3    H238411   6.346   1.906   8.019  1.4448 -0.1133 -0.2098
 5618TIP3   OH238412   2.443   3.819   6.933 -0.0885  0.5365  0.0527
 5618TIP3    H138413   2.423   3.730   6.907  1.2823  0.4511 -0.8054
 5618TIP3    H238414   2.429   3.871   6.854  2.0583  0.5890 -0.3647
 5619TIP3   OH238415   3.700   4.175   1.537  0.2402 -0.0089  0.1796
 5619TIP3    H138416   3.636   4.111   1.508  2.1731 -1.4127 -1.2881
 5619TIP3    H238417   3.775   4.123   1.566  2.0334  1.4940 -1.4105
 5620TIP3   OH238418   4.082   5.973   0.507  0.3882 -0.8277 -0.6023
 5620TIP3    H138419   4.091   5.927   0.423  0.7848 -0.6843 -0.6411
 5620TIP3    H238420   4.050   6.060   0.484 -2.1705 -1.6238 -0.3994
 5621TIP3   OH238421   1.401   3.183   2.230 -0.3896 -0.2105 -0.4252
 5621TIP3    H138422   1.337   3.253   2.238  0.0633  0.2311 -0.6489
 5621TIP3    H238423   1.457   3.193   2.307 -1.3723 -1.4139  0.4925
 5622TIP3   OH238424   3.879   5.977   2.573 -0.4023 -0.5831  0.0260
 5622TIP3    H138425   3.842   6.055   2.613  2.5390  0.6904  0.5231
 5622TIP3    H238426   3.887   5.914   2.644 -0.3007 -0.3540  0.2159
 5623TIP3   OH238427   6.781   0.241   1.700  0.3719  0.1098  0.3651
 5623TIP3    H138428   6.802   0.261   1.609 -1.4426 -3.4252 -1.0111
 5623TIP3    H238429   6.749   0.324   1.736 -0.1512  1.3377 -2.6290
 5624TIP3   OH238430   3.969   0.181   1.103  0.7026  0.1923  0.0727
 5624TIP3    H138431   3.907   0.251   1.123  0.3665  0.1009 -0.6344
 5624TIP3    H238432   3.962   0.169   1.008  1.4255 -0.1728  0.0634
 5625TIP3   OH238433   0.025   1.449   8.271 -0.0863 -0.4513  0.3234
 5625TIP3    H138434   0.087   1.439   8.343  1.2149  2.0821 -0.3231
 5625TIP3    H238435   0.079   1.479   8.197 -1.7724 -0.2741 -0.8820
 5626TIP3   OH238436   1.738   2.878   1.047 -0.2649  0.3122 -0.4907
 5626TIP3    H138437   1.673   2.814   1.077 -1.1446  1.9846  1.3719
 5626TIP3    H238438   1.696   2.920   0.972  0.4524 -1.4204 -1.9440
 5627TIP3   OH238439   1.008   5.379   7.828  0.3961 -0.2577  0.3408
 5627TIP3    H138440   0.998   5.288   7.854 -0.0861 -1.3724 -3.2408
 5627TIP3    H238441   0.918   5.412   7.819  0.2818 -1.0765 -3.0269
 5628TIP3   OH238442   0.946   5.855   1.778 -0.0219  0.5195 -0.5403
 5628TIP3    H138443   0.931   5.844   1.872  2.1014 -2.4732 -0.4067
 5628TIP3    H238444   0.978   5.945   1.769  0.3433  0.6732  1.7123
 5629TIP3   OH238445   5.754   1.988   7.511  0.2422 -0.4711  0.0081
 5629TIP3    H138446   5.770   2.063   7.455  0.9483 -1.0013 -0.5165
 5629TIP3    H238447   5.670   1.952   7.479  1.1707 -1.4198 -1.4826
 5630TIP3   OH238448   0.264   2.973   1.620  0.0857  0.5695 -0.0298
 5630TIP3    H138449   0.258   2.890   1.572  1.1511 -0.5812  1.6834
 5630TIP3    H238450   0.256   2.947   1.712  0.8413  2.3300  0.5750
 5631TIP3   OH238451   0.917   1.513   1.899  0.0188  0.0417  0.3311
 5631TIP3    H138452   0.924   1.418   1.902  1.4956 -0.1780 -3.8542
 5631TIP3    H238453   0.830   1.530   1.865 -0.3765  0.2896  1.4009
 5632TIP3   OH238454   0.323   3.552   1.429  0.0926 -0.0277  0.0539
 5632TIP3    H138455   0.359   3.587   1.348  0.8685 -0.9450 -0.0141
 5632TIP3    H238456   0.365   3.466   1.439 -0.6912 -0.3281  0.9393
 5633TIP3   OH238457   0.133   5.091   7.405  0.1181  0.3158 -0.1794
 5633TIP3    H138458   0.051   5.063   7.364 -0.1059  0.6965  0.0059
 5633TIP3    H238459   0.162   5.014   7.455  0.0663  0.0612 -0.5410
 5634TIP3   OH238460   5.455   0.648   0.339 -0.0099 -0.2793  0.5209
 5634TIP3    H138461   5.388   0.581   0.326  0.3455 -0.9658  1.9343
 5634TIP3    H238462   5.429   0.720   0.282 -1.6590 -0.7384  0.6282
 5635TIP3   OH238463   4.729   6.388   7.492 -0.2293 -0.0590 -0.0759
 5635TIP3    H138464   4.670   6.353   7.426 -2.0314 -0.4290  1.6483
 5635TIP3    H238465   4.805   6.330   7.491 -0.5933 -0.5255 -1.2340
 5636TIP3   OH238466   0.205   3.810   1.904 -0.0132 -0.7681 -0.1571
 5636TIP3    H138467   0.227   3.789   1.813  0.4468  0.1249 -0.2678
 5636TIP3    H238468   0.109   3.808   1.907 -0.2818  2.5893 -1.5847
 5637TIP3   OH238469   0.416   4.881   0.461 -0.1629 -0.7083 -0.4196
 5637TIP3    H138470   0.449   4.810   0.406  1.5714  1.0691 -1.7523
 5637TIP3    H238471   0.410   4.957   0.404  0.7960  0.9868  1.5977
 5638TIP3   OH238472   5.197   5.449   8.593 -0.9845 -0.1273 -0.2239
 5638TIP3    H138473   5.166   5.439   8.503 -1.0770 -1.0586 -0.0982
 5638TIP3    H238474   5.228   5.539   8.598 -1.0688 -0.0380 -1.1606
 5639TIP3   OH238475   5.760   2.767   1.776  0.4542  0.3022 -0.1473
 5639TIP3    H138476   5.819   2.745   1.704  2.0451 -1.2548  1.5053
 5639TIP3    H238477   5.789   2.853   1.805  1.4724 -0.1240  0.1605
 5640TIP3   OH238478   6.754   2.953   0.410 -0.1879 -0.0506 -0.0208
 5640TIP3    H138479   6.795   2.869   0.430  0.6949  0.9438  2.9867
 5640TIP3    H238480   6.823   3.002   0.365  0.0988 -0.1841  0.2652
 5641TIP3   OH238481   2.745   6.838   0.776  0.4562  0.1564 -0.3072
 5641TIP3    H138482   2.697   6.921   0.778  0.1985 -0.0066  0.5238
 5641TIP3    H238483   2.781   6.833   0.687 -0.4723  0.6127 -0.7163
 5642TIP3   OH238484   3.591   4.151   0.179 -0.6038 -0.2072  0.8942
 5642TIP3    H138485   3.636   4.175   0.261 -0.1795 -1.0839  0.9369
 5642TIP3    H238486   3.599   4.055   0.175 -0.0151 -0.1198 -0.5174
 5643TIP3   OH238487   0.724   6.386   8.512  0.0752  0.0147 -0.1044
 5643TIP3    H138488   0.749   6.431   8.593  0.5041 -0.7563  0.2050
 5643TIP3    H238489   0.807   6.368   8.468 -0.1960  1.0745 -1.0847
 5644TIP3   OH238490   2.037   0.458   6.465  0.0624 -0.5111 -0.0431
 5644TIP3    H138491   2.047   0.542   6.420  1.0023 -0.6947 -0.2138
 5644TIP3    H238492   2.084   0.470   6.547  3.2708 -1.9010 -1.5058
 5645TIP3   OH238493   6.262   1.657   0.960  0.3088 -0.0400  0.2411
 5645TIP3    H138494   6.270   1.662   0.865  0.1120  1.6489  0.2903
 5645TIP3    H238495   6.176   1.617   0.975 -0.3396  1.1160 -0.3053
 5646TIP3   OH238496   0.410   2.729   7.085  0.3361  0.0962  0.0366
 5646TIP3    H138497   0.325   2.734   7.129  0.2000  0.0231 -0.2148
 5646TIP3    H238498   0.474   2.725   7.156  0.1704  0.8001  0.2362
 5647TIP3   OH238499   0.825   6.265   7.851 -0.0855  0.3998  0.0622
 5647TIP3    H138500   0.854   6.199   7.914 -0.7592  0.7387  0.7430
 5647TIP3    H238501   0.802   6.341   7.904 -2.2901  0.1188 -0.4035
 5648TIP3   OH238502   5.347   2.391   0.118  0.3498  0.5122  0.2262
 5648TIP3    H138503   5.392   2.413   0.200  0.0987  1.2922  0.1636
 5648TIP3    H238504   5.417   2.362   0.060  0.4590 -0.6216  0.8955
 5649TIP3   OH238505   3.323   6.679   0.755  0.6556  0.9063 -0.1936
 5649TIP3    H138506   3.415   6.651   0.762  0.1789 -0.5128  0.8142
 5649TIP3    H238507   3.318   6.756   0.811  0.9664  0.2384  0.7808
 5650TIP3   OH238508   2.632   2.841   1.895  0.3669 -0.4781 -0.0173
 5650TIP3    H138509   2.717   2.851   1.939 -0.9886 -0.6429  2.7883
 5650TIP3    H238510   2.648   2.773   1.830  2.4044 -0.4282  0.3418
 5651TIP3   OH238511   3.376   1.637   7.877 -0.4229 -0.0294  0.3172
 5651TIP3    H138512   3.354   1.727   7.851 -0.3223  0.1966  0.9966
 5651TIP3    H238513   3.366   1.586   7.796  2.9342  1.1634 -1.0285
 5652TIP3   OH238514   3.236   4.810   6.741 -0.2499  0.1820 -0.0932
 5652TIP3    H138515   3.285   4.832   6.662 -0.8873 -3.6099 -1.7709
 5652TIP3    H238516   3.145   4.803   6.711 -0.4206 -1.8565  0.7857
 5653TIP3   OH238517   2.614   6.455   8.721  0.3711 -0.1142  0.7048
 5653TIP3    H138518   2.691   6.497   8.683  0.3252 -0.6645 -0.0254
 5653TIP3    H238519   2.624   6.362   8.700 -1.3918  0.0248 -1.0444
 5654TIP3   OH238520   1.105   2.893   0.017  0.4034  0.5578  0.0603
 5654TIP3    H138521   1.013   2.873   0.032  0.8578 -1.1654  0.8547
 5654TIP3    H238522   1.150   2.859   0.095  2.0643 -1.7431 -1.7444
 5655TIP3   OH238523   3.981   2.793   2.562 -0.4704 -0.4755 -0.1671
 5655TIP3    H138524   4.032   2.720   2.594  2.0947  0.6883 -1.3353
 5655TIP3    H238525   4.043   2.845   2.511 -2.7451  1.2735 -1.3194
 5656TIP3   OH238526   5.763   4.140   0.027  0.1444 -0.2027  0.6779
 5656TIP3    H138527   5.767   4.109  -0.063 -2.0282  2.1114 -0.3276
 5656TIP3    H238528   5.810   4.223   0.027  1.4122 -0.8647  2.0875
 5657TIP3   OH238529   6.685   2.664   7.326 -0.6074 -0.0152 -0.3944
 5657TIP3    H138530   6.607   2.639   7.377 -1.0138  0.0972 -0.9472
 5657TIP3    H238531   6.658   2.652   7.235  0.6951 -2.0239 -0.5812
 5658TIP3   OH238532   1.124   1.463   7.939 -0.5656  0.3608  0.7569
 5658TIP3    H138533   1.166   1.397   7.994 -1.2935 -0.5385  0.2712
 5658TIP3    H238534   1.074   1.517   8.000  1.6380  1.7915  1.4185
 5659TIP3   OH238535   6.023   4.265   8.526  0.5346  0.1044 -0.3941
 5659TIP3    H138536   5.958   4.287   8.459  0.0603  1.7659  0.5564
 5659TIP3    H238537   6.107   4.280   8.483  0.2329  1.1882 -0.6451
 5660TIP3   OH238538   1.418   1.420   0.964 -0.1983  0.1039  0.0000
 5660TIP3    H138539   1.395   1.393   1.053 -0.0936  2.0236  0.6613
 5660TIP3    H238540   1.344   1.474   0.936  1.0391  1.9208  0.0827
 5661TIP3   OH238541   2.225   4.509   0.256 -0.3474  0.1355 -0.5168
 5661TIP3    H138542   2.172   4.589   0.261 -1.2126 -0.4072 -0.7620
 5661TIP3    H238543   2.200   4.470   0.172 -0.3148 -0.6511 -0.1640
 5662TIP3   OH238544   4.331   2.981   2.071  0.5404 -0.2400 -0.2889
 5662TIP3    H138545   4.336   3.076   2.066  0.1545 -0.2473 -0.8248
 5662TIP3    H238546   4.368   2.960   2.157  0.9000  0.3698 -0.2905
 5663TIP3   OH238547   4.057   1.923   7.098  0.0998  0.3576  0.7215
 5663TIP3    H138548   4.041   1.919   7.004  0.2067  1.2736  0.6529
 5663TIP3    H238549   3.998   1.991   7.130  0.2693  0.2520  1.2705
 5664TIP3   OH238550   2.246   2.715   1.647 -0.0102 -0.0938  0.2990
 5664TIP3    H138551   2.198   2.649   1.697  0.5665 -0.1600  0.7719
 5664TIP3    H238552   2.218   2.701   1.557  0.4720 -1.3344  0.3068
 5665TIP3   OH238553   0.664   2.060   0.871 -0.4467  0.5402  0.0502
 5665TIP3    H138554   0.691   2.102   0.953  0.8047 -2.2709  1.2372
 5665TIP3    H238555   0.576   2.027   0.888 -0.8730  1.4045 -0.3926
 5666TIP3   OH238556   3.529   3.957   1.415 -0.2030  0.3894  0.2409
 5666TIP3    H138557   3.583   3.901   1.359  3.1432  1.5005  2.0561
 5666TIP3    H238558   3.479   4.011   1.354  0.3594 -1.0370 -1.5818
 5667TIP3   OH238559   3.785   4.122   0.711  0.1698  0.7805  0.3064
 5667TIP3    H138560   3.692   4.104   0.700  0.5905 -1.4389 -0.1462
 5667TIP3    H238561   3.789   4.202   0.763 -1.9824  0.4095  1.1130
 5668TIP3   OH238562   3.454   2.805   1.746  0.0567  0.7548 -0.0328
 5668TIP3    H138563   3.544   2.772   1.750 -0.6462 -1.4365 -0.8078
 5668TIP3    H238564   3.409   2.759   1.817 -0.9393  0.1637 -1.0271
 5669TIP3   OH238565   6.449   2.667   0.976  0.3086 -0.2895  0.6029
 5669TIP3    H138566   6.425   2.607   1.047 -0.2635 -1.9473 -0.9416
 5669TIP3    H238567   6.492   2.612   0.911 -0.4336  0.9192 -0.9721
 5670TIP3   OH238568   5.817   2.631   1.343 -0.0786  0.0622  0.0487
 5670TIP3    H138569   5.771   2.570   1.285  2.7437 -1.4000 -0.8132
 5670TIP3    H238570   5.889   2.666   1.290 -0.2020  2.3922  1.2748
 5671TIP3   OH238571   4.942   1.021   6.165 -0.0861 -0.4827  0.1640
 5671TIP3    H138572   4.879   0.974   6.111 -0.4389  0.7297 -0.5187
 5671TIP3    H238573   4.909   1.111   6.168  1.1137 -0.0299  0.5578
 5672TIP3   OH238574   4.411   3.972   0.345 -0.0124 -0.4183 -0.1097
 5672TIP3    H138575   4.491   3.920   0.336  0.4783  0.5298 -1.5491
 5672TIP3    H238576   4.348   3.928   0.288 -0.5176 -1.1426  0.9944
 5673TIP3   OH238577   4.468   5.515   8.253  0.3517  0.5210 -0.1834
 5673TIP3    H138578   4.392   5.571   8.271  0.6692  0.5096  1.3109
 5673TIP3    H238579   4.520   5.519   8.333  1.1395 -0.7273 -0.6123
 5674TIP3   OH238580   5.391   5.195   1.702 -0.2613 -0.7250 -0.0517
 5674TIP3    H138581   5.435   5.262   1.754 -0.8131 -0.8141  0.5469
 5674TIP3    H238582   5.297   5.211   1.717 -0.4085 -1.2835 -0.3444
 5675TIP3   OH238583   2.562   2.560   1.445  0.0359 -0.9283  0.0984
 5675TIP3    H138584   2.543   2.588   1.355  0.5810  1.1929  0.6089
 5675TIP3    H238585   2.565   2.464   1.439  0.4253 -0.8358 -2.2082
 5676TIP3   OH238586   5.752   5.112   8.131  0.4701 -0.4358 -0.1721
 5676TIP3    H138587   5.753   5.133   8.224 -1.1385 -1.5337  0.1438
 5676TIP3    H238588   5.694   5.178   8.092  0.7043 -0.3053 -0.3001
 5677TIP3   OH238589   2.256   1.299   0.443 -0.5914 -0.2810 -0.3043
 5677TIP3    H138590   2.287   1.211   0.466 -1.2176 -0.9244 -1.8053
 5677TIP3    H238591   2.264   1.349   0.524  3.4337 -0.6116 -0.2752
 5678TIP3   OH238592   4.489   1.869   8.299  0.2632  0.3467  0.0145
 5678TIP3    H138593   4.502   1.884   8.392  1.7708 -0.0789 -0.0906
 5678TIP3    H238594   4.561   1.810   8.274 -0.4308  0.0078 -1.2991
 5679TIP3   OH238595   2.361   5.012   8.614  0.3784 -0.0866 -0.0547
 5679TIP3    H138596   2.281   4.959   8.615  0.1645  0.2129 -0.8670
 5679TIP3    H238597   2.425   4.957   8.568 -0.4642  1.2012 -2.9225
 5680TIP3   OH238598   4.235   6.140   1.340 -0.3312 -0.1819 -0.0753
 5680TIP3    H138599   4.142   6.122   1.357 -0.2640 -0.4526  0.0157
 5680TIP3    H238600   4.263   6.193   1.415 -0.8867  1.5527 -1.0488
 5681TIP3   OH238601   0.830   3.495   1.184 -0.1018  0.0149  0.5548
 5681TIP3    H138602   0.895   3.522   1.249  0.2802 -0.5193  0.3960
 5681TIP3    H238603   0.877   3.496   1.101  0.6770 -3.5293  0.8186
 5682TIP3   OH238604   0.902   5.055   0.009  0.2245  0.2886  0.0642
 5682TIP3    H138605   0.953   4.974   0.015 -1.3386 -1.0437 -2.7825
 5682TIP3    H238606   0.816   5.027  -0.023 -0.8706  2.9413  0.4272
 5683TIP3   OH238607   4.616   1.015   0.331  0.5078 -0.1552 -0.7530
 5683TIP3    H138608   4.557   0.978   0.265  0.0628 -0.7794 -0.0346
 5683TIP3    H238609   4.679   0.945   0.348 -0.8802 -1.0306  1.2828
 5684TIP3   OH238610   5.608   2.511   7.025  0.2876  0.0107  0.2948
 5684TIP3    H138611   5.627   2.604   7.040 -0.4020  0.1695  0.1998
 5684TIP3    H238612   5.627   2.469   7.109  0.1255  0.3131  0.4860
 5685TIP3   OH238613   6.403   2.660   6.319  0.8647  0.0010 -0.0350
 5685TIP3    H138614   6.430   2.569   6.309  0.7534 -0.1403  0.8630
 5685TIP3    H238615   6.313   2.662   6.285  0.6326 -0.3772  0.5282
 5686TIP3   OH238616   4.949   3.256   7.799 -0.5967 -0.3193  0.2023
 5686TIP3    H138617   5.007   3.264   7.723 -1.2626  0.2460 -0.2481
 5686TIP3    H238618   5.007   3.270   7.874 -0.0186 -0.4348 -0.2133
 5687TIP3   OH238619   2.884   3.138   7.327  0.2617 -0.5865  0.3220
 5687TIP3    H138620   2.811   3.200   7.325 -1.6228 -2.6691  0.6916
 5687TIP3    H238621   2.844   3.055   7.354  2.2783 -2.4484 -1.9805
 5688TIP3   OH238622   3.772   0.421   7.827  0.1322 -0.3006  0.0494
 5688TIP3    H138623   3.708   0.488   7.801  0.6612  1.3894  2.7363
 5688TIP3    H238624   3.848   0.438   7.771 -0.7258 -0.5016 -1.2087
 5689TIP3   OH238625   6.351   3.477   7.930 -0.0145  0.5100  0.0797
 5689TIP3    H138626   6.381   3.565   7.906  0.0990  0.6435  0.6856
 5689TIP3    H238627   6.281   3.492   7.993 -0.1841  0.1677 -0.0270
 5690TIP3   OH238628   2.026   2.921   8.394  0.5188 -0.1454  0.7406
 5690TIP3    H138629   2.021   2.946   8.486 -0.9123  0.7573  0.4602
 5690TIP3    H238630   1.974   2.988   8.349  0.3578 -1.1355 -0.5986
 5691TIP3   OH238631   6.358   1.299   1.430  0.2365  0.0673  0.3622
 5691TIP3    H138632   6.326   1.218   1.391  0.9089 -0.4147  0.7843
 5691TIP3    H238633   6.279   1.345   1.459 -0.1580 -0.3778  0.0001
 5692TIP3   OH238634   2.861   2.775   0.345 -0.1496  0.7788  0.0992
 5692TIP3    H138635   2.865   2.756   0.439  0.3985 -0.0785 -0.0865
 5692TIP3    H238636   2.770   2.754   0.321 -0.2125  0.7129  0.3812
 5693TIP3   OH238637   5.409   3.575   1.139 -0.3122  0.1783 -0.6712
 5693TIP3    H138638   5.499   3.580   1.173 -0.2918 -0.9138 -0.5229
 5693TIP3    H238639   5.398   3.656   1.089  0.7792  0.3054 -0.7431
 5694TIP3   OH238640   0.801   5.573   7.338 -0.2193 -0.3883  0.4652
 5694TIP3    H138641   0.881   5.537   7.377 -0.7657 -1.2495  0.8251
 5694TIP3    H238642   0.769   5.504   7.280 -0.1916  0.3281 -0.4362
 5695TIP3   OH238643   4.669   2.989   2.418 -0.8539 -0.2377  0.0309
 5695TIP3    H138644   4.717   3.063   2.379  0.8409  0.2893  2.7824
 5695TIP3    H238645   4.595   3.030   2.462 -0.5611 -0.3008  0.5914
 5696TIP3   OH238646   0.854   3.050   6.927 -0.3215 -0.0654 -0.3019
 5696TIP3    H138647   0.888   2.992   6.859 -1.0696 -0.0871 -0.6700
 5696TIP3    H238648   0.835   3.132   6.882  0.9558  0.5707  0.2605
 5697TIP3   OH238649   2.073   4.784   6.763  0.0371 -0.5555  0.2315
 5697TIP3    H138650   2.091   4.843   6.689  0.1234 -0.6744  0.1564
 5697TIP3    H238651   2.072   4.841   6.839 -0.4832 -0.3664  0.0875
 5698TIP3   OH238652   3.876   3.346   1.120 -0.5262 -1.0351 -0.2387
 5698TIP3    H138653   3.925   3.270   1.089  0.2594 -0.1338 -1.3085
 5698TIP3    H238654   3.884   3.409   1.048 -1.6280 -0.1541  0.3965
 5699TIP3   OH238655   2.145   1.846   7.352 -0.7764 -0.1228 -0.5166
 5699TIP3    H138656   2.160   1.784   7.424 -0.7320 -1.1858 -1.4167
 5699TIP3    H238657   2.083   1.801   7.295 -0.6526  0.6224 -1.2443
 5700TIP3   OH238658   1.274   1.079   1.349  0.4394 -0.4600  0.0935
 5700TIP3    H138659   1.343   1.107   1.410  0.5298 -0.9885  0.2414
 5700TIP3    H238660   1.319   1.023   1.286  0.9063  2.3084 -2.1822
 5701TIP3   OH238661   0.786   4.985   6.117 -0.3037  0.3864 -0.4053
 5701TIP3    H138662   0.829   4.903   6.092 -0.6030 -0.5055  1.7098
 5701TIP3    H238663   0.733   4.961   6.193 -2.7307  1.9415 -1.5051
 5702TIP3   OH238664   1.120   5.657   8.213 -0.3093 -0.3999  0.2550
 5702TIP3    H138665   1.196   5.701   8.250  0.2246  0.0493 -1.3040
 5702TIP3    H238666   1.142   5.564   8.216  0.6203 -0.2296 -0.8323
 5703TIP3   OH238667   5.161   4.266   0.549  0.4569 -0.2415  0.3892
 5703TIP3    H138668   5.229   4.268   0.482 -0.3316  0.2314 -0.4166
 5703TIP3    H238669   5.191   4.328   0.616  0.1022  1.1382 -0.6850
 5704TIP3   OH238670   1.959   4.499   0.128  0.1361  0.4238  0.0277
 5704TIP3    H138671   1.891   4.500   0.195  0.6668  0.0112  0.5804
 5704TIP3    H238672   1.974   4.406   0.111  0.1389  0.5231 -0.5301
 5705TIP3   OH238673   5.859   1.504   1.346  0.0656 -0.1539 -0.6160
 5705TIP3    H138674   5.926   1.447   1.308  0.7049  0.2821 -0.1701
 5705TIP3    H238675   5.783   1.447   1.358  0.9415 -1.1191  0.5597
 5706TIP3   OH238676   0.700   1.334   7.944  0.0643 -0.8278  0.1907
 5706TIP3    H138677   0.679   1.315   7.853  0.1825  1.0008 -0.2562
 5706TIP3    H238678   0.790   1.366   7.941 -0.5559  1.0849  0.6351
 5707TIP3   OH238679   2.713   1.868   6.826  0.6904  0.5914  0.4938
 5707TIP3    H138680   2.659   1.817   6.886 -0.4451  0.2172 -0.8109
 5707TIP3    H238681   2.657   1.941   6.800  1.5999  1.4172  0.7928
 5708TIP3   OH238682   6.263   6.808   1.267  0.3210  0.4174  0.7597
 5708TIP3    H138683   6.174   6.779   1.250  0.8088 -1.6282  1.4014
 5708TIP3    H238684   6.254   6.897   1.301 -1.4974  0.0319  1.3747
 5709TIP3   OH238685   0.274   1.815   8.226  0.7355 -0.6119  0.3697
 5709TIP3    H138686   0.270   1.848   8.136  1.9708 -0.2750  0.4239
 5709TIP3    H238687   0.289   1.892   8.280 -2.1281 -0.4693  1.1571
 5710TIP3   OH238688   3.151   5.179   7.501 -0.1506 -0.0037  0.3231
 5710TIP3    H138689   3.069   5.144   7.535 -1.1807  3.6913  2.2207
 5710TIP3    H238690   3.125   5.231   7.425  0.9852 -1.3906 -1.0813
 5711TIP3   OH238691   0.205   0.722   7.915 -0.1260 -0.0780  0.5050
 5711TIP3    H138692   0.271   0.746   7.981  0.3766 -1.1345  0.3981
 5711TIP3    H238693   0.135   0.785   7.929 -0.4029 -0.7539  2.5977
 5712TIP3   OH238694   2.788   6.593   6.923 -0.6566 -0.5715  0.6249
 5712TIP3    H138695   2.803   6.499   6.931  1.9947 -0.1488  1.8202
 5712TIP3    H238696   2.844   6.621   6.850  0.0899  0.3166  1.5018
 5713TIP3   OH238697   5.985   5.501   8.594  0.2823  0.1351  0.3076
 5713TIP3    H138698   6.036   5.434   8.640  1.9839 -0.4092 -2.1967
 5713TIP3    H238699   5.895   5.484   8.621  0.9447 -1.5658  1.6568
 5714TIP3   OH238700   5.220   5.561   7.086  0.6053 -0.6671 -0.4362
 5714TIP3    H138701   5.309   5.562   7.050  0.8766 -1.4693  0.1746
 5714TIP3    H238702   5.164   5.588   7.012  1.2290 -1.4268 -1.2099
 5715TIP3   OH238703   0.030   2.817   1.403 -0.1355  0.2200  0.6024
 5715TIP3    H138704  -0.034   2.777   1.344 -0.7248  0.2685  1.1985
 5715TIP3    H238705   0.092   2.746   1.423 -1.8378 -0.7870  2.5975
 5716TIP3   OH238706   2.502   2.577   7.075  0.8005 -0.0807  0.4526
 5716TIP3    H138707   2.548   2.494   7.085  1.1536  0.0800  0.2121
 5716TIP3    H238708   2.496   2.612   7.164  1.9275  0.3003  0.3939
 5717TIP3   OH238709   0.003   4.133   7.056  0.0238 -0.0596 -0.3670
 5717TIP3    H138710   0.096   4.122   7.076 -0.4860 -2.3544  1.1770
 5717TIP3    H238711  -0.038   4.147   7.141 -1.0901  0.6606 -1.0073
 5718TIP3   OH238712   2.996   0.865   6.457  0.0374 -0.3166  0.0394
 5718TIP3    H138713   2.935   0.939   6.456 -0.9101 -1.0790 -0.4657
 5718TIP3    H238714   3.083   0.905   6.455 -0.4533  0.7809 -0.0527
 5719TIP3   OH238715   5.361   4.196   1.485  0.3124 -0.6964 -0.1166
 5719TIP3    H138716   5.422   4.162   1.550  0.1735  0.0850  0.4249
 5719TIP3    H238717   5.310   4.119   1.457 -1.3264 -0.6741  2.4862
 5720TIP3   OH238718   2.249   5.206   8.394  0.1297  0.1626  0.1286
 5720TIP3    H138719   2.327   5.154   8.416  0.0784  0.3661  0.8220
 5720TIP3    H238720   2.241   5.198   8.299  0.8592 -0.0588  0.0774
 5721TIP3   OH238721   5.089   0.054   1.684  0.0291  0.2074  0.4432
 5721TIP3    H138722   4.994   0.044   1.681 -0.0352  0.5247  1.2532
 5721TIP3    H238723   5.110   0.107   1.607 -0.5731  1.0474  0.8507
 5722TIP3   OH238724   3.700   5.488   1.755  0.2638 -0.2410 -0.5141
 5722TIP3    H138725   3.744   5.551   1.812 -0.1945  0.3942 -0.8571
 5722TIP3    H238726   3.607   5.505   1.768  0.1461 -0.4952 -1.0075
 5723TIP3   OH238727   1.573   1.120   7.927  0.3068  0.2867  0.1797
 5723TIP3    H138728   1.660   1.132   7.891  0.5098 -0.5431  0.3808
 5723TIP3    H238729   1.577   1.036   7.974 -0.8513 -0.2253 -0.5884
 5724TIP3   OH238730   4.983   2.705   7.821 -0.0551 -0.0631 -0.0015
 5724TIP3    H138731   4.951   2.702   7.731  0.3977  1.5367 -0.2602
 5724TIP3    H238732   5.023   2.792   7.829 -0.5985  0.0688  1.9206
 5725TIP3   OH238733   4.069   1.946   1.047  0.5013  0.6960  0.1633
 5725TIP3    H138734   4.128   1.961   0.974 -0.4394 -0.2281 -0.8194
 5725TIP3    H238735   4.005   2.018   1.042  1.2529  1.4597  0.9808
 5726TIP3   OH238736   3.688   2.272   8.642 -0.1777  0.4923  0.6839
 5726TIP3    H138737   3.697   2.221   8.723  0.1614  2.5369  2.0323
 5726TIP3    H238738   3.596   2.295   8.639 -0.6034 -1.1835 -0.6225
 5727TIP3   OH238739   5.997   1.186   7.516  0.0354 -0.4444 -0.0279
 5727TIP3    H138740   5.968   1.239   7.442 -1.6007 -0.3310  0.6643
 5727TIP3    H238741   5.932   1.117   7.525  0.9743 -1.3087  0.4405
 5728TIP3   OH238742   0.805   5.229   7.401  0.6752 -0.0623 -0.9294
 5728TIP3    H138743   0.826   5.258   7.312 -1.5600 -0.5180 -1.6660
 5728TIP3    H238744   0.763   5.144   7.389 -1.2267  0.6409  0.3728
 5729TIP3   OH238745   4.221   5.028   7.321 -0.5012 -0.0554 -0.1089
 5729TIP3    H138746   4.156   5.076   7.372 -0.5563 -1.2043  0.9317
 5729TIP3    H238747   4.265   4.971   7.384  1.8514  1.0077 -0.7059
 5730TIP3   OH238748   1.313   2.534   1.319  0.2369 -0.4323 -0.0953
 5730TIP3    H138749   1.303   2.619   1.277 -1.9077 -0.2518  0.6592
 5730TIP3    H238750   1.386   2.545   1.379  1.0558  0.3494 -1.2007
 5731TIP3   OH238751   2.698   6.373   2.384  0.6277 -0.1703 -0.4734
 5731TIP3    H138752   2.677   6.465   2.400 -1.2198 -0.1772 -2.3495
 5731TIP3    H238753   2.613   6.332   2.367  1.6417 -1.4188 -3.2007
 5732TIP3   OH238754   0.990   0.024   7.472 -0.4195  0.1022  0.5446
 5732TIP3    H138755   1.073  -0.009   7.505 -0.8003 -2.1004 -0.5040
 5732TIP3    H238756   1.001   0.027   7.377 -0.9818  1.4889  0.4996
 5733TIP3   OH238757   1.598   0.861   7.197 -0.4185 -0.1070 -0.0925
 5733TIP3    H138758   1.592   0.768   7.173 -2.7557 -0.5738  1.9006
 5733TIP3    H238759   1.658   0.862   7.271  0.4883  0.1650 -0.8173
 5734TIP3   OH238760   1.993   3.692   0.989  0.1154 -0.2853  0.4171
 5734TIP3    H138761   1.899   3.696   0.974  0.2397 -1.4420 -0.8297
 5734TIP3    H238762   2.032   3.690   0.901  1.4172  1.6790  0.8557
 5735TIP3   OH238763   0.477   6.642   0.271 -0.4820 -0.2142 -0.0158
 5735TIP3    H138764   0.529   6.601   0.201 -0.2208  0.2846 -0.1199
 5735TIP3    H238765   0.514   6.730   0.279 -0.0291 -0.5001  1.2479
 5736TIP3   OH238766   1.586   5.316   6.117 -0.5171 -0.1912 -0.4705
 5736TIP3    H138767   1.661   5.373   6.137 -0.0911 -0.8968 -0.0297
 5736TIP3    H238768   1.524   5.333   6.187 -0.1668 -0.6584 -0.0455
 5737TIP3   OH238769   0.451   4.530   0.757 -0.0426 -0.3870 -0.6180
 5737TIP3    H138770   0.462   4.435   0.746 -2.7897 -0.7168 -1.1749
 5737TIP3    H238771   0.423   4.540   0.848  1.4523  0.0610 -0.1829
 5738TIP3   OH238772   5.685   6.494   8.024 -0.2111 -0.3184  0.3394
 5738TIP3    H138773   5.748   6.422   8.013  0.2816  0.2116 -0.4147
 5738TIP3    H238774   5.732   6.571   7.993 -1.4673 -0.0169 -0.8953
 5739TIP3   OH238775   6.703   4.371   0.502  0.4402  0.3253  0.6144
 5739TIP3    H138776   6.768   4.329   0.445  0.8649  0.5376  0.9386
 5739TIP3    H238777   6.661   4.436   0.446 -0.9076 -1.1710 -0.1799
 5740TIP3   OH238778   0.697   4.254   7.787  0.3276  0.2014  0.0284
 5740TIP3    H138779   0.609   4.290   7.794  0.1907 -0.2149  0.4538
 5740TIP3    H238780   0.707   4.232   7.694  0.4085  1.3048 -0.2388
 5741TIP3   OH238781   1.881   3.753   7.314  0.0755  0.6463 -0.4926
 5741TIP3    H138782   1.929   3.675   7.342 -1.6643  0.0161  0.9800
 5741TIP3    H238783   1.880   3.809   7.392  0.1101  1.5305 -1.1119
 5742TIP3   OH238784   1.674   6.218   6.748 -0.0064  0.3163 -0.4708
 5742TIP3    H138785   1.662   6.142   6.691  1.6987 -2.6293  2.6693
 5742TIP3    H238786   1.765   6.214   6.776 -0.6872  1.5057  2.3753
 5743TIP3   OH238787   1.218   0.269   0.927  0.1974  0.2822  0.4993
 5743TIP3    H138788   1.201   0.200   0.992 -2.8293  2.0233  1.7456
 5743TIP3    H238789   1.184   0.234   0.845  1.6086 -0.8719  0.3523
 5744TIP3   OH238790   0.543   0.014   7.537  0.2547  0.4400  0.0852
 5744TIP3    H138791   0.547   0.103   7.503  1.1666  0.7028  0.8605
 5744TIP3    H238792   0.602   0.013   7.612  0.4424 -0.8811 -0.0457
 5745TIP3   OH238793   2.264   1.951   1.982  0.7043 -0.4876  0.5180
 5745TIP3    H138794   2.354   1.921   1.972  0.4236 -2.0682  2.2873
 5745TIP3    H238795   2.253   1.964   2.076 -1.2933 -1.6257  0.5009
 5746TIP3   OH238796   1.372   5.312   6.314 -0.0440  0.4601 -0.3495
 5746TIP3    H138797   1.284   5.349   6.311 -1.3285 -2.0921  1.4329
 5746TIP3    H238798   1.359   5.218   6.296  1.6951 -0.7365  3.5564
 5747TIP3   OH238799   5.875   5.338   1.366  0.0700 -0.1241  0.1254
 5747TIP3    H138800   5.867   5.361   1.274  0.4953  1.0745  0.3713
 5747TIP3    H238801   5.788   5.358   1.403 -0.5978 -2.0509 -0.2841
 5748TIP3   OH238802   3.585   3.863   0.228 -0.0108  0.3253  0.1281
 5748TIP3    H138803   3.611   3.817   0.149 -0.4463  0.0364  0.1485
 5748TIP3    H238804   3.519   3.806   0.268  0.4631  0.2936  0.8846
 5749TIP3   OH238805   3.907   1.988   6.471  0.0887  0.1747  0.5677
 5749TIP3    H138806   3.819   1.952   6.475 -0.4155  1.1722 -0.9597
 5749TIP3    H238807   3.897   2.080   6.498  1.4010 -0.6873  4.7254
 5750TIP3   OH238808   0.521   2.818   8.318 -0.3071  0.3606 -0.4387
 5750TIP3    H138809   0.555   2.741   8.363 -1.6463 -0.0049  0.0206
 5750TIP3    H238810   0.443   2.786   8.272 -0.4669  1.2864 -0.8397
 5751TIP3   OH238811   1.464   4.953   0.900  0.4827  0.2548  0.1318
 5751TIP3    H138812   1.526   4.983   0.967  0.1324 -0.5510  0.8234
 5751TIP3    H238813   1.386   4.928   0.948  0.1885 -0.2625 -0.5909
 5752TIP3   OH238814   5.624   5.508   1.066  0.1170  0.1534  0.0799
 5752TIP3    H138815   5.670   5.581   1.024 -1.2128  0.9852 -0.0066
 5752TIP3    H238816   5.549   5.492   1.009 -0.4500 -0.2492  0.9178
 5753TIP3   OH238817   3.546   3.464   0.128  0.0954  0.2932  0.1297
 5753TIP3    H138818   3.564   3.557   0.142 -0.2295  0.4385 -0.3811
 5753TIP3    H238819   3.569   3.448   0.037  1.1537 -0.3844  0.4945
 5754TIP3   OH238820   3.903   4.727   1.205 -0.1133 -0.1286  0.4796
 5754TIP3    H138821   3.960   4.800   1.184  1.3574 -1.1088  0.8925
 5754TIP3    H238822   3.846   4.761   1.274 -1.7241  1.5988 -1.5657
 5755TIP3   OH238823   3.821   5.351   0.578  0.3780 -0.6587  0.1463
 5755TIP3    H138824   3.740   5.315   0.542 -1.1487  0.6703  2.0639
 5755TIP3    H238825   3.799   5.441   0.603  3.0287  0.4803 -1.1313
 5756TIP3   OH238826   3.218   4.449   1.503 -0.5778  0.1078 -0.7266
 5756TIP3    H138827   3.181   4.531   1.535 -1.9411 -0.2675 -1.3048
 5756TIP3    H238828   3.311   4.454   1.527 -0.6349  1.8167 -0.7876
 5757TIP3   OH238829   0.758   1.052   0.664 -0.3485 -0.1817  0.3576
 5757TIP3    H138830   0.743   0.958   0.673 -1.8870  0.1702  1.8692
 5757TIP3    H238831   0.815   1.059   0.587 -0.4684 -2.3072  0.0003
 5758TIP3   OH238832   5.971   0.250   8.621 -0.6602  0.1107 -0.0771
 5758TIP3    H138833   5.906   0.211   8.679 -1.6353  1.4278 -0.2491
 5758TIP3    H238834   5.958   0.203   8.538  1.0057 -2.0541  0.7681
 5759TIP3   OH238835   4.973   5.019   0.867 -0.6530  1.0276  0.5058
 5759TIP3    H138836   4.993   4.926   0.880 -0.9314  0.7181 -1.0866
 5759TIP3    H238837   4.878   5.023   0.861 -0.5580  0.9788 -2.0808
 5760TIP3   OH238838   2.940   3.452   7.552 -0.0367 -0.4555 -0.0528
 5760TIP3    H138839   2.980   3.530   7.591 -0.8951  0.0529 -0.1700
 5760TIP3    H238840   2.854   3.481   7.521 -0.8822 -1.7140  0.9663
 5761TIP3   OH238841   5.215   5.813   7.738 -0.2356  0.3393  0.0421
 5761TIP3    H138842   5.144   5.843   7.681 -0.6381  0.0283  0.3739
 5761TIP3    H238843   5.231   5.723   7.710  0.0965  0.4392 -0.0948
 5762TIP3   OH238844   1.537   4.039   8.080 -0.7140  0.0378  0.3703
 5762TIP3    H138845   1.610   4.100   8.069  0.7728 -1.6444  0.4268
 5762TIP3    H238846   1.500   4.030   7.992 -0.0788 -0.0033  0.0995
 5763TIP3   OH238847   3.437   6.216   1.948  0.4892  0.5489  0.5599
 5763TIP3    H138848   3.369   6.261   1.898 -0.6059 -0.9823  0.6277
 5763TIP3    H238849   3.409   6.222   2.039  1.0453  0.8992  0.7143
 5764TIP3   OH238850   4.381   0.169   6.844  0.2535  0.2498 -0.7082
 5764TIP3    H138851   4.405   0.198   6.756  1.9914  3.7675  0.7113
 5764TIP3    H238852   4.311   0.229   6.870  0.1586 -0.3694  0.5259
 5765TIP3   OH238853   0.351   4.305   6.860  0.4627 -0.3878 -0.7078
 5765TIP3    H138854   0.426   4.343   6.814  1.5607 -0.8946  0.5847
 5765TIP3    H238855   0.354   4.212   6.837  1.5903 -0.8416  0.9987
 5766TIP3   OH238856   2.934   6.080   7.752  0.3805 -0.6582  0.3740
 5766TIP3    H138857   2.910   6.169   7.725  2.7259 -0.6413 -2.2099
 5766TIP3    H238858   3.010   6.092   7.809 -0.0257 -0.9989  0.9989
 5767TIP3   OH238859   2.328   1.777   0.560  0.7648  0.0617 -0.1242
 5767TIP3    H138860   2.340   1.870   0.580 -0.8747  0.3436 -0.2850
 5767TIP3    H238861   2.341   1.771   0.465  2.9900 -0.2843  0.1602
 5768TIP3   OH238862   2.376   5.117   0.403 -0.1210  0.1102 -0.0387
 5768TIP3    H138863   2.290   5.133   0.364 -0.4663  0.5359  0.8620
 5768TIP3    H238864   2.412   5.205   0.417  0.8792 -0.0787 -1.2732
 5769TIP3   OH238865   0.091   3.579   7.634 -0.6619  0.2913 -0.0057
 5769TIP3    H138866  -0.003   3.590   7.622 -0.5361  1.0530 -0.3454
 5769TIP3    H238867   0.112   3.633   7.709 -0.9646 -2.2160  2.0111
 5770TIP3   OH238868   3.027   2.839   1.097 -0.8392 -0.2592 -0.2688
 5770TIP3    H138869   3.093   2.883   1.151 -0.4878  2.0802 -2.3730
 5770TIP3    H238870   2.971   2.911   1.066 -2.9618 -1.8986 -0.4459
 5771TIP3   OH238871   1.219   0.690   8.345 -0.0169 -0.6633  0.1998
 5771TIP3    H138872   1.135   0.685   8.391 -0.5921 -3.4733 -0.9349
 5771TIP3    H238873   1.233   0.602   8.312  3.2113 -0.1667 -0.0529
 5772TIP3   OH238874   5.879   4.510   1.443 -0.3189 -0.3318 -0.4255
 5772TIP3    H138875   5.838   4.424   1.436 -0.2820 -0.3688 -0.2065
 5772TIP3    H238876   5.813   4.565   1.484 -0.5202 -0.1283 -1.0134
 5773TIP3   OH238877   4.915   4.033   8.241  0.1099 -0.0620  0.1688
 5773TIP3    H138878   4.942   3.941   8.247 -0.4195 -0.3370 -1.2322
 5773TIP3    H238879   4.994   4.083   8.260  1.5170 -0.8242 -2.9429
 5774TIP3   OH238880   6.030   5.309   0.042 -0.6506 -0.1524  0.3877
 5774TIP3    H138881   6.088   5.234   0.025 -1.5447 -0.9929  0.9264
 5774TIP3    H238882   6.074   5.359   0.111  0.0673 -0.0487 -0.1387
 5775TIP3   OH238883   1.263   6.764   6.687 -0.0537 -0.2620  0.3278
 5775TIP3    H138884   1.281   6.813   6.767 -1.7904  1.4390 -0.2196
 5775TIP3    H238885   1.184   6.714   6.707 -0.9131  0.7157 -0.4728
 5776TIP3   OH238886   0.404   3.214   0.553 -0.1061  0.4035  0.0066
 5776TIP3    H138887   0.480   3.248   0.600 -0.6231 -0.4159  1.5416
 5776TIP3    H238888   0.341   3.285   0.555  0.5573  1.0548 -1.1951
 5777TIP3   OH238889   4.293   0.573   7.236 -0.0301  0.0960 -0.0873
 5777TIP3    H138890   4.255   0.602   7.153  2.7006 -2.4823 -2.4884
 5777TIP3    H238891   4.320   0.654   7.280 -0.0817  1.5369 -2.5231
 5778TIP3   OH238892   4.619   0.645   0.215 -0.2967 -0.1270 -0.6322
 5778TIP3    H138893   4.674   0.574   0.249 -0.8020  0.1682  0.8756
 5778TIP3    H238894   4.536   0.635   0.261 -1.4681 -0.4208 -2.7005
 5779TIP3   OH238895   2.544   2.971   7.346 -0.0035  0.1702  0.2273
 5779TIP3    H138896   2.510   3.044   7.399 -1.2841  0.9026 -1.5196
 5779TIP3    H238897   2.484   2.899   7.364 -0.9686  0.6787 -0.8384
 5780TIP3   OH238898   1.581   0.334   6.164  0.1560 -0.4544  0.1394
 5780TIP3    H138899   1.576   0.418   6.209 -1.9084 -1.4573  1.9525
 5780TIP3    H238900   1.498   0.326   6.118  1.1931 -0.6133 -1.7976
 5781TIP3   OH238901   6.841   1.212   1.453 -0.0033  0.0080 -0.3051
 5781TIP3    H138902   6.748   1.199   1.439  0.4905 -1.1277 -3.1725
 5781TIP3    H238903   6.875   1.125   1.472  0.4607  0.4882  1.2684
 5782TIP3   OH238904   4.184   2.710   8.587 -0.4841 -0.0946  0.0652
 5782TIP3    H138905   4.171   2.656   8.508  0.5227  0.8551 -0.7727
 5782TIP3    H238906   4.274   2.740   8.581 -0.6922  0.7844  1.1039
 5783TIP3   OH238907   4.646   2.285   7.761 -0.0549  0.1396 -0.3236
 5783TIP3    H138908   4.623   2.278   7.668 -0.9676 -2.0707  0.0126
 5783TIP3    H238909   4.578   2.342   7.798 -0.7772 -0.4838 -0.6707
 5784TIP3   OH238910   3.665   0.536   0.909 -0.0454 -0.5949  0.0486
 5784TIP3    H138911   3.622   0.605   0.959  0.0210 -0.3842 -0.1877
 5784TIP3    H238912   3.656   0.563   0.818 -0.3315 -1.0729 -0.0690
 5785TIP3   OH238913   6.674   5.472   7.727  0.1403 -0.0229  0.3773
 5785TIP3    H138914   6.639   5.448   7.813  1.0274 -0.5795  0.5979
 5785TIP3    H238915   6.639   5.560   7.711  0.5706  0.4140  1.6634
 5786TIP3   OH238916   6.160   3.939   1.724 -0.3260 -0.0555  0.0054
 5786TIP3    H138917   6.182   3.894   1.806  0.7477  1.1155  0.4106
 5786TIP3    H238918   6.244   3.950   1.679 -1.0467 -1.7205 -1.8561
 5787TIP3   OH238919   6.023   2.086   7.592  0.5215  0.4315  0.5873
 5787TIP3    H138920   6.031   2.093   7.687 -1.5884  3.1167  0.6668
 5787TIP3    H238921   5.933   2.057   7.577  1.1290 -0.9744 -0.6360
 5788TIP3   OH238922   6.667   6.229   7.770  0.0940 -0.1833  0.3638
 5788TIP3    H138923   6.624   6.228   7.856 -0.0826  1.8207  0.3312
 5788TIP3    H238924   6.598   6.249   7.708  0.7804  1.8232  0.1737
 5789TIP3   OH238925   1.548   5.491   7.634  0.2306  0.1344 -0.2232
 5789TIP3    H138926   1.516   5.577   7.660 -0.1346  0.0768 -0.4613
 5789TIP3    H238927   1.632   5.481   7.677 -0.5600 -0.1429  1.3073
 5790TIP3   OH238928   6.345   3.764   7.809  0.4643  0.3395  1.3772
 5790TIP3    H138929   6.379   3.821   7.739  0.5122 -0.1698  0.9790
 5790TIP3    H238930   6.250   3.774   7.804  0.3278 -1.2985 -0.1698
 5791TIP3   OH238931   0.433   0.663   0.747 -0.5722 -0.3162 -0.1125
 5791TIP3    H138932   0.422   0.594   0.682  0.1504 -2.4238  1.8433
 5791TIP3    H238933   0.420   0.619   0.831  3.1990  1.0869  1.4637
 5792TIP3   OH238934   0.539   6.103   8.052  0.1215 -0.1934 -0.4502
 5792TIP3    H138935   0.557   6.158   7.975  0.5262  2.8371  1.5972
 5792TIP3    H238936   0.618   6.112   8.106 -0.3602 -1.7787  0.5852
 5793TIP3   OH238937   1.370   2.633   7.843  0.1744 -0.3279 -0.2054
 5793TIP3    H138938   1.287   2.606   7.880  1.0809  0.5162  2.7328
 5793TIP3    H238939   1.366   2.607   7.751 -2.4697 -2.1639  0.3404
 5794TIP3   OH238940   0.630   1.913   0.527  0.1121  0.2948  0.5493
 5794TIP3    H138941   0.594   1.917   0.438  2.1043  0.2180 -0.3326
 5794TIP3    H238942   0.563   1.868   0.578  0.4733 -3.3795 -1.8314
 5795TIP3   OH238943   0.820   3.338   8.107 -0.0404  0.2885 -0.6210
 5795TIP3    H138944   0.781   3.377   8.186  1.3199  0.9869 -0.2760
 5795TIP3    H238945   0.894   3.287   8.140  0.0612 -0.0656 -1.3879
 5796TIP3   OH238946   5.807   5.309   0.494  0.6464  0.1020 -0.0433
 5796TIP3    H138947   5.849   5.375   0.549  0.8792 -1.0244  1.1727
 5796TIP3    H238948   5.808   5.229   0.547 -1.6610 -0.3372 -0.5714
 5797TIP3   OH238949   2.596   6.393   6.666  0.4485  0.0420  0.0717
 5797TIP3    H138950   2.658   6.409   6.737  1.1475 -0.9320 -0.2877
 5797TIP3    H238951   2.576   6.480   6.631  0.3260  0.5070  1.2468
 5798TIP3   OH238952   0.111   0.353   7.934 -0.2841  0.0396 -0.0710
 5798TIP3    H138953   0.173   0.407   7.884 -0.9870  0.8721 -0.0697
 5798TIP3    H238954   0.026   0.393   7.917 -0.6500 -0.2309  1.0646
 5799TIP3   OH238955   1.453   4.013   7.777 -0.1126 -0.3051  0.2468
 5799TIP3    H138956   1.479   3.940   7.721 -0.7450  0.6209 -1.3277
 5799TIP3    H238957   1.363   3.993   7.803 -0.0943 -0.3566  0.2700
 5800TIP3   OH238958   1.505   6.525   0.447 -0.2460  0.6853 -0.0743
 5800TIP3    H138959   1.587   6.476   0.440 -0.8350 -0.5233  1.1851
 5800TIP3    H238960   1.496   6.568   0.362  1.2130  0.0876 -0.5616
 5801TIP3   OH238961   2.859   4.565   8.618 -0.2005 -0.0209 -0.4926
 5801TIP3    H138962   2.915   4.632   8.580  0.5947 -0.2076  0.3294
 5801TIP3    H238963   2.856   4.585   8.711  0.0531 -1.1056 -0.2302
 5802TIP3   OH238964   4.835   0.285   2.212  0.8630  0.1025  0.4314
 5802TIP3    H138965   4.746   0.248   2.213  0.6493  0.5668  2.3705
 5802TIP3    H238966   4.870   0.259   2.127 -1.0390 -0.3042 -0.2986
 5803TIP3   OH238967   4.527   0.667   6.740  0.3629  0.1484 -0.2377
 5803TIP3    H138968   4.432   0.676   6.754  0.4818  0.3502  0.4973
 5803TIP3    H238969   4.559   0.757   6.738  0.7899  0.0831  1.4975
 5804TIP3   OH238970   4.925   2.528   8.633 -0.3451  0.1831 -0.2991
 5804TIP3    H138971   5.020   2.529   8.624 -0.4654 -0.4270 -1.8473
 5804TIP3    H238972   4.904   2.440   8.665 -0.4265  0.1375 -0.4760
 5805TIP3   OH238973   3.919   5.821   7.063 -0.3189  0.0074 -0.2833
 5805TIP3    H138974   3.965   5.803   6.981 -0.9449 -0.7930 -0.4725
 5805TIP3    H238975   3.988   5.836   7.127  0.1767  0.4884 -0.9141
 5806TIP3   OH238976   0.846   5.708   8.011  0.0527 -0.4458  0.0450
 5806TIP3    H138977   0.937   5.726   7.986  0.3211  0.6070  1.6534
 5806TIP3    H238978   0.848   5.618   8.043  1.0542  0.2804  2.1934
 5807TIP3   OH238979   3.241   3.755   1.207 -0.3468 -0.3411  0.6351
 5807TIP3    H138980   3.224   3.797   1.291 -0.9615 -0.5703  0.6294
 5807TIP3    H238981   3.257   3.827   1.146  1.8211 -0.2019  1.2912
 5808TIP3   OH238982   6.557   0.223   0.710  0.3934  0.2165 -0.0511
 5808TIP3    H138983   6.601   0.303   0.680 -3.1452  3.1655  1.7876
 5808TIP3    H238984   6.556   0.230   0.805 -0.7852 -1.5738  0.1166
 5809TIP3   OH238985   3.375   0.555   0.553 -0.3222 -0.0211  0.4935
 5809TIP3    H138986   3.334   0.544   0.638  0.8967 -3.3774  0.7792
 5809TIP3    H238987   3.375   0.468   0.514  3.4358  0.3649 -0.8653
 5810TIP3   OH238988   3.799   3.710   8.068 -0.0181 -0.4606  0.2274
 5810TIP3    H138989   3.712   3.671   8.068  0.2375 -1.0328  0.7378
 5810TIP3    H238990   3.843   3.670   7.993  0.9896 -2.8800  1.9987
 5811TIP3   OH238991   4.320   3.065   8.481 -0.1602  0.2706  0.3765
 5811TIP3    H138992   4.225   3.056   8.483 -0.0628 -1.1880 -0.2094
 5811TIP3    H238993   4.351   3.010   8.553  0.2757 -0.0048 -0.0161
 5812TIP3   OH238994   3.575   5.291   0.493  0.0092 -0.1893 -0.1900
 5812TIP3    H138995   3.552   5.289   0.400 -0.1814 -1.5104 -0.1348
 5812TIP3    H238996   3.491   5.299   0.538  0.0263 -0.3932 -0.1183
 5813TIP3   OH238997   4.779   4.643   2.186  0.1423  0.4385 -0.1924
 5813TIP3    H138998   4.692   4.679   2.199 -0.6358 -1.8011  1.3128
 5813TIP3    H238999   4.838   4.719   2.191 -1.3839  1.5483  2.6564
 5814TIP3   OH239000   1.446   4.939   7.491 -0.0048  0.0110 -0.3761
 5814TIP3    H139001   1.494   4.954   7.409 -0.3099 -0.0336 -0.5655
 5814TIP3    H239002   1.466   5.016   7.545 -0.4977  0.4617 -0.8291
 5815TIP3   OH239003   3.855   3.694   0.839 -0.0529  0.1750  0.0510
 5815TIP3    H139004   3.871   3.601   0.853 -0.3995  0.0406 -0.4001
 5815TIP3    H239005   3.780   3.697   0.780 -1.7623  0.7868  2.1271
 5816TIP3   OH239006   0.626   4.913   6.363 -0.6399 -0.0476 -0.2788
 5816TIP3    H139007   0.617   4.818   6.351 -0.2491 -0.2773  1.0383
 5816TIP3    H239008   0.575   4.931   6.442  0.7317  0.5452  0.4968
 5817TIP3   OH239009   4.758   4.602   8.045  0.1550  0.1151  0.1951
 5817TIP3    H139010   4.768   4.507   8.051  0.0292  0.1529  1.2006
 5817TIP3    H239011   4.666   4.615   8.024  0.3003  0.0080 -0.5424
 5818TIP3   OH239012   4.052   4.462   1.242  0.3989 -0.0489 -0.4007
 5818TIP3    H139013   4.024   4.553   1.228  0.2119 -0.2793 -1.6970
 5818TIP3    H239014   3.971   4.412   1.240  0.5672 -0.3199 -0.4432
 5819TIP3   OH239015   1.901   3.716   8.457  0.1978 -0.4523  0.2042
 5819TIP3    H139016   1.989   3.731   8.493  0.2084  0.2318 -0.0935
 5819TIP3    H239017   1.852   3.795   8.480  0.0012 -0.3143 -0.6653
 5820TIP3   OH239018   6.351   6.154   1.424  0.0700  0.3195  0.0357
 5820TIP3    H139019   6.333   6.202   1.505  0.7630 -0.3175  0.5771
 5820TIP3    H239020   6.425   6.200   1.385  0.6663 -0.2429  0.5009
 5821TIP3   OH239021   3.743   4.922   8.533 -0.1792  0.3695  0.3730
 5821TIP3    H139022   3.699   4.838   8.521 -1.1420  0.8581  0.4102
 5821TIP3    H239023   3.679   4.977   8.578 -1.4357  2.6274 -3.7001
 5822TIP3   OH239024   2.179   6.098   7.758 -0.0723  0.1155 -0.4158
 5822TIP3    H139025   2.265   6.119   7.722  0.1169  1.0199  0.5121
 5822TIP3    H239026   2.127   6.069   7.682  0.7258  0.5939 -1.1625
 5823TIP3   OH239027   6.778   0.599   7.459 -0.2034  0.0885  0.5390
 5823TIP3    H139028   6.805   0.515   7.423  2.2389  0.6048  0.9816
 5823TIP3    H239029   6.760   0.654   7.382  0.0308 -0.2764  0.2220
 5824TIP3   OH239030   6.265   0.230   8.564  0.3518  0.5259 -0.0391
 5824TIP3    H139031   6.180   0.266   8.587  0.0175  0.0339 -0.4833
 5824TIP3    H239032   6.262   0.217   8.469  0.2338 -1.1699  0.1610
 5825TIP3   OH239033   1.304   6.299   2.125 -0.5749  0.1098  0.3016
 5825TIP3    H139034   1.383   6.293   2.178  0.9071 -1.1854 -1.9213
 5825TIP3    H239035   1.267   6.385   2.147  1.5081  0.8159  1.2772
 5826TIP3   OH239036   6.579   3.702   8.664 -0.1254 -0.0417  0.0868
 5826TIP3    H139037   6.608   3.619   8.627 -0.2074 -0.3847  0.7700
 5826TIP3    H239038   6.649   3.726   8.725 -1.1564 -0.7837  1.6110
 5827TIP3   OH239039   5.522   4.642   8.633  0.3852 -0.0233 -0.4636
 5827TIP3    H139040   5.608   4.611   8.604  2.2354  2.8608  1.5191
 5827TIP3    H239041   5.516   4.731   8.599 -1.6536 -0.0071 -0.1476
 5828TIP3   OH239042   0.936   2.260   0.348 -0.3580  0.6817 -0.2623
 5828TIP3    H139043   0.922   2.166   0.358 -1.4738  0.9503  1.0251
 5828TIP3    H239044   0.855   2.292   0.308 -0.5618  1.2728  0.5845
 5829TIP3   OH239045   3.158   5.141   8.571 -0.2951  0.4629 -0.1349
 5829TIP3    H139046   3.086   5.168   8.628  0.8973  2.2945  0.5879
 5829TIP3    H239047   3.129   5.164   8.483 -0.1891  2.3020  0.2586
 5830TIP3   OH239048   3.183   5.528   7.532  0.8742 -0.3763  0.3710
 5830TIP3    H139049   3.262   5.515   7.479  0.1946 -0.0790 -0.7446
 5830TIP3    H239050   3.174   5.623   7.539  0.5788 -0.4074  0.4332
 5831TIP3   OH239051   1.371   5.536   6.826  0.0022  0.1504 -0.2405
 5831TIP3    H139052   1.448   5.581   6.859 -0.3277 -0.2960  1.2562
 5831TIP3    H239053   1.405   5.458   6.782  0.4768  0.9080 -1.2360
 5832TIP3   OH239054   5.452   6.457   7.291 -0.3873  0.2744 -0.5291
 5832TIP3    H139055   5.419   6.415   7.371 -1.0191  0.9262 -0.4394
 5832TIP3    H239056   5.543   6.481   7.312 -0.9767  1.7320  0.5219
 5833TIP3   OH239057   4.610   3.660   1.560 -0.9926 -0.1169  0.1038
 5833TIP3    H139058   4.584   3.711   1.637 -1.6047  0.8561 -0.7276
 5833TIP3    H239059   4.576   3.709   1.486  2.3335  0.7065 -1.0391
 5834TIP3   OH239060   5.145   2.995   7.460 -0.1660  0.0696 -0.2116
 5834TIP3    H139061   5.191   3.079   7.466 -1.1883  0.6930 -0.8049
 5834TIP3    H239062   5.053   3.019   7.446 -0.7125 -1.1396  1.0601
 5835TIP3   OH239063   0.564   4.649   0.392 -0.1530 -0.0965  0.3932
 5835TIP3    H139064   0.641   4.685   0.349 -0.7145  1.3776  0.5637
 5835TIP3    H239065   0.585   4.650   0.485 -0.5359  0.7678  0.4825
 5836TIP3   OH239066   6.316   0.408   0.635  0.4891  0.5357  0.8688
 5836TIP3    H139067   6.396   0.359   0.654  0.1832 -0.0799  0.5958
 5836TIP3    H239068   6.253   0.376   0.699 -0.7064 -1.9323 -1.3702
 5837TIP3   OH239069   6.632   0.349   8.176  0.6191  0.3025  0.5225
 5837TIP3    H139070   6.707   0.316   8.226 -1.0626 -2.3672  1.5213
 5837TIP3    H239071   6.584   0.404   8.238  1.1823  1.1638  0.2063
 5838TIP3   OH239072   3.161   6.124   0.942  0.2159 -0.6698  0.1411
 5838TIP3    H139073   3.182   6.037   0.975 -1.4837 -0.9213  0.6265
 5838TIP3    H239074   3.073   6.142   0.975 -0.7097 -0.0381 -2.3964
 5839TIP3   OH239075   2.126   5.568   1.506 -0.0997 -0.1075 -0.1870
 5839TIP3    H139076   2.039   5.539   1.534 -0.3967 -0.8013 -1.7640
 5839TIP3    H239077   2.176   5.487   1.497  0.6882  0.2790  0.5672
 5840TIP3   OH239078   0.210   6.609   0.747  0.0766  0.4731  0.6481
 5840TIP3    H139079   0.167   6.525   0.735  1.5846 -0.5667  2.1315
 5840TIP3    H239080   0.232   6.612   0.840  3.1449  0.9080  0.0193
 5841TIP3   OH239081   2.251   5.375   0.283  0.4394 -0.0205 -0.4492
 5841TIP3    H139082   2.214   5.341   0.202 -1.5804 -1.2330  0.8919
 5841TIP3    H239083   2.218   5.465   0.288  2.0901  0.6964 -1.8223
 5842TIP3   OH239084   0.509   5.560   0.550 -0.2192  0.3513  0.7501
 5842TIP3    H139085   0.505   5.629   0.484 -2.7362  1.5246  1.9976
 5842TIP3    H239086   0.518   5.606   0.633  0.1936 -0.9481  1.4576
 5843TIP3   OH239087   5.062   0.560   0.139 -0.0962  0.7419  0.3990
 5843TIP3    H139088   5.010   0.622   0.191 -1.4697  1.2812 -1.4856
 5843TIP3    H239089   5.126   0.615   0.093  0.6487  0.3600  0.9593
 5844TIP3   OH239090   1.580   2.728   7.480 -0.3248 -0.7116 -0.1617
 5844TIP3    H139091   1.613   2.644   7.513 -0.3877 -1.0291 -0.8754
 5844TIP3    H239092   1.558   2.778   7.558 -0.6769 -1.5242  0.2719
 5845TIP3   OH239093   1.214   1.663   1.519  0.0458  0.0883 -0.3017
 5845TIP3    H139094   1.287   1.705   1.564 -0.5550  0.9926 -0.1259
 5845TIP3    H239095   1.184   1.595   1.580  1.6095 -1.2814 -0.9832
 5846TIP3   OH239096   3.725   4.344   2.758  0.4196  0.3032 -0.2079
 5846TIP3    H139097   3.678   4.313   2.680 -0.0357  1.7955 -0.5584
 5846TIP3    H239098   3.786   4.410   2.725  0.9426  0.2307  0.5803
 5847TIP3   OH239099   2.734   3.756   0.552  0.1003  0.0165  0.7122
 5847TIP3    H139100   2.744   3.689   0.620  0.4853  0.1255  0.7653
 5847TIP3    H239101   2.670   3.719   0.491  2.4230 -1.7445 -0.8557
 5848TIP3   OH239102   2.139   6.822   8.180 -0.1965  0.2238  0.5354
 5848TIP3    H139103   2.154   6.763   8.254 -0.7433 -0.7520 -0.1199
 5848TIP3    H239104   2.159   6.909   8.215  0.1585 -0.2861  1.6504
 5849TIP3   OH239105   5.018   2.358   7.679  0.1418  0.6624 -0.2287
 5849TIP3    H139106   5.034   2.322   7.592  1.5811 -0.5176  0.4815
 5849TIP3    H239107   4.945   2.419   7.666 -0.3878 -0.2611 -2.0513
 5850TIP3   OH239108   3.330   2.654   1.953 -0.1704  0.2280 -0.3071
 5850TIP3    H139109   3.236   2.652   1.941 -0.5400  0.5743  2.0073
 5850TIP3    H239110   3.351   2.571   1.996  0.2612  0.8958  0.8336
 5851TIP3   OH239111   0.445   1.869   8.008  0.2939 -0.2407 -0.5186
 5851TIP3    H139112   0.496   1.945   8.038  0.3220  0.4754 -2.2405
 5851TIP3    H239113   0.504   1.823   7.948 -0.6073 -0.1612 -1.4975
 5852TIP3   OH239114   0.320   5.029   0.023 -0.2813 -0.0940 -0.0425
 5852TIP3    H139115   0.377   5.040  -0.052 -0.2012 -1.1759 -0.1600
 5852TIP3    H239116   0.245   4.979  -0.010 -1.1981  1.1068  0.1587
 5853TIP3   OH239117   5.513   3.608   0.196  0.0834 -0.4928  0.0290
 5853TIP3    H139118   5.485   3.591   0.286 -1.0559 -2.1854 -0.6040
 5853TIP3    H239119   5.508   3.703   0.187 -1.2318 -0.4037  1.3096
 5854TIP3   OH239120   4.077   4.233   8.205 -0.4555 -0.5139  0.0658
 5854TIP3    H139121   3.982   4.244   8.211 -0.6596 -1.1764 -1.3921
 5854TIP3    H239122   4.088   4.166   8.137  1.0927  0.6727 -0.9257
 5855TIP3   OH239123   4.499   1.939   1.054 -0.5088  0.1026 -0.1085
 5855TIP3    H139124   4.495   1.874   1.125  1.1455  0.5147  0.4104
 5855TIP3    H239125   4.591   1.967   1.053 -0.2995 -0.4222 -2.9004
 5856TIP3   OH239126   3.026   2.499   0.804 -0.3909  0.7692  0.4847
 5856TIP3    H139127   2.981   2.492   0.720 -0.0068 -0.6015  0.3699
 5856TIP3    H239128   2.967   2.552   0.858 -1.0341  0.9655 -0.3840
 5857TIP3   OH239129   6.499   5.341   6.978 -0.3131  0.6226 -0.4735
 5857TIP3    H139130   6.441   5.401   7.025 -1.7023 -0.4337 -0.7401
 5857TIP3    H239131   6.465   5.340   6.888  1.0791  1.1166 -1.0313
 5858TIP3   OH239132   0.529   2.620   1.623  0.1687 -0.9055  1.0806
 5858TIP3    H139133   0.463   2.568   1.578 -1.1392  0.7222  1.0420
 5858TIP3    H239134   0.503   2.618   1.715  1.5405 -2.3217  1.4934
 5859TIP3   OH239135   2.692   2.769   7.955 -0.8214 -0.1926  0.5106
 5859TIP3    H139136   2.621   2.710   7.979 -1.2023  0.8735  2.1919
 5859TIP3    H239137   2.772   2.721   7.978 -0.9452 -1.3723 -1.3292
 5860TIP3   OH239138   5.192   2.828   0.072  0.1692  0.3475  0.4803
 5860TIP3    H139139   5.104   2.791   0.083  0.0338  0.6216  0.3366
 5860TIP3    H239140   5.228   2.781  -0.003  0.3372 -0.1178  0.8474
 5861TIP3   OH239141   0.743   4.649   1.462 -0.4875  0.6162 -0.1817
 5861TIP3    H139142   0.717   4.624   1.373  2.0216  1.0514 -1.1064
 5861TIP3    H239143   0.710   4.738   1.473 -0.3432  0.7608 -0.8869
 5862TIP3   OH239144   6.812   4.493   1.344 -0.2397  0.3691  0.6026
 5862TIP3    H139145   6.778   4.521   1.429 -0.4972  0.0110  0.6232
 5862TIP3    H239146   6.741   4.511   1.282  0.6660  2.4891  0.1029
 5863TIP3   OH239147   1.105   2.706   8.106  0.1727 -0.2494  0.1557
 5863TIP3    H139148   1.087   2.638   8.042  1.3333 -0.8745  0.4621
 5863TIP3    H239149   1.195   2.690   8.133  0.4040  1.2917  0.3893
 5864TIP3   OH239150   1.390   4.629   6.461  0.2862  0.1883 -0.1659
 5864TIP3    H139151   1.325   4.559   6.469  0.4621  0.0238 -0.1805
 5864TIP3    H239152   1.357   4.684   6.390 -1.0629  1.4198  1.3167
 5865TIP3   OH239153   1.110   4.138   7.525  0.4118 -0.7235 -0.2244
 5865TIP3    H139154   1.175   4.202   7.497 -0.7321  0.5679 -0.0341
 5865TIP3    H239155   1.122   4.064   7.465  1.1685  0.0297 -1.0332
 5866TIP3   OH239156   2.395   1.613   8.094 -0.1116 -0.1202 -0.3613
 5866TIP3    H139157   2.358   1.701   8.102  0.9021  0.3054 -0.1986
 5866TIP3    H239158   2.319   1.555   8.089 -0.7909  0.7768 -0.6062
 5867TIP3   OH239159   3.010   2.558   8.390 -0.2551 -0.0948 -0.5060
 5867TIP3    H139160   2.991   2.630   8.449  0.0231 -0.1527 -0.3391
 5867TIP3    H239161   3.106   2.554   8.387 -0.2149 -1.8422  1.2216
 5868TIP3   OH239162   2.431   4.847   1.338 -0.3756 -0.2841 -0.3983
 5868TIP3    H139163   2.339   4.846   1.310 -0.9631 -0.5696  1.4114
 5868TIP3    H239164   2.449   4.757   1.363  0.0279  0.0007  0.3518
 5869TIP3   OH239165   5.366   3.816   1.002  0.0777  0.2572  0.1285
 5869TIP3    H139166   5.317   3.874   1.062  0.6713  2.1844 -1.1778
 5869TIP3    H239167   5.450   3.860   0.989  0.9898 -1.4732 -0.0848
 5870TIP3   OH239168   4.549   0.129   7.708  0.0815 -0.0810 -0.8096
 5870TIP3    H139169   4.489   0.126   7.782  0.5869 -0.6821 -0.4129
 5870TIP3    H239170   4.547   0.040   7.672  0.1879  0.0856 -1.2321
 5871TIP3   OH239171   2.891   5.270   8.645 -0.3214  0.2926 -0.2951
 5871TIP3    H139172   2.799   5.277   8.620 -0.8454 -0.0120  1.3847
 5871TIP3    H239173   2.905   5.344   8.704  0.4506  0.2134 -0.3742
 5872TIP3   OH239174   0.705   3.039   1.524  0.0861 -0.4123  0.3638
 5872TIP3    H139175   0.744   3.097   1.590  0.0398 -0.1844  0.1915
 5872TIP3    H239176   0.773   3.031   1.456  0.0878 -0.5508  0.3809
 5873TIP3   OH239177   2.003   0.631   0.827 -0.3429  0.1428  0.1252
 5873TIP3    H139178   1.950   0.552   0.834 -1.1692  0.5384 -1.1988
 5873TIP3    H239179   1.940   0.702   0.822  0.4025  0.9758  1.9103
 5874TIP3   OH239180   5.144   4.483   2.265 -0.0763 -0.0855 -0.7093
 5874TIP3    H139181   5.109   4.569   2.289 -0.2006  0.2674 -2.0799
 5874TIP3    H239182   5.236   4.486   2.290 -0.5488 -0.3386  1.1955
 5875TIP3   OH239183   0.181   3.648   0.111  0.3986  0.0151  0.1416
 5875TIP3    H139184   0.206   3.593   0.037 -1.5564 -1.9091  0.8327
 5875TIP3    H239185   0.262   3.658   0.161  1.1560 -0.8448 -0.8543
 5876TIP3   OH239186   5.753   3.692   2.669  0.9801 -0.7315  0.2377
 5876TIP3    H139187   5.691   3.621   2.653  0.8759 -0.6674  0.3539
 5876TIP3    H239188   5.736   3.719   2.759  1.5571 -1.0808  0.4555
 5877TIP3   OH239189   0.612   0.192   0.557  0.5444 -0.3312  0.1937
 5877TIP3    H139190   0.551   0.158   0.622 -0.2933  0.0144 -0.4012
 5877TIP3    H239191   0.628   0.282   0.584 -1.0301  0.3202 -0.9218
 5878TIP3   OH239192   4.421   3.074   2.503  0.1313 -0.5130  0.4255
 5878TIP3    H139193   4.409   3.165   2.474 -0.3690 -0.0901  1.8577
 5878TIP3    H239194   4.335   3.034   2.492 -0.0277 -0.3873  1.1414
 5879TIP3   OH239195   6.605   2.905   2.058 -0.4393 -0.1394  0.0145
 5879TIP3    H139196   6.532   2.949   2.015  0.5273  0.8681 -0.6797
 5879TIP3    H239197   6.577   2.814   2.069 -1.5595  0.1046 -0.7411
 5880TIP3   OH239198   1.896   3.470   0.020 -0.4323 -0.1409  0.3898
 5880TIP3    H139199   1.989   3.454   0.009 -0.2738  0.4247  0.8382
 5880TIP3    H239200   1.862   3.474  -0.070 -0.0617 -0.5147  0.2290
 5881TIP3   OH239201   2.570   2.359   1.941  0.1559 -0.0922 -0.1726
 5881TIP3    H139202   2.617   2.406   1.872 -0.0428 -1.1015 -1.0170
 5881TIP3    H239203   2.507   2.305   1.895 -0.6253 -0.1024  0.8628
 5882TIP3   OH239204   3.505   5.899   7.585  0.3475 -0.1855 -0.1290
 5882TIP3    H139205   3.494   5.840   7.660  1.5649  1.7228  1.6811
 5882TIP3    H239206   3.436   5.965   7.596  1.0147  0.5445 -0.1838
 5883TIP3   OH239207   1.974   4.567   6.622 -0.2617  0.1745 -0.1928
 5883TIP3    H139208   1.879   4.554   6.621 -0.3949  1.1092 -0.4238
 5883TIP3    H239209   1.987   4.641   6.682  0.4324 -0.7275  0.8096
 5884TIP3   OH239210   6.736   4.222   7.302  0.2493  0.4250  0.8470
 5884TIP3    H139211   6.738   4.131   7.334  2.6468 -0.3450 -1.1342
 5884TIP3    H239212   6.796   4.269   7.360  1.4788 -0.0500  0.0110
 5885TIP3   OH239213   3.053   4.350   6.517  0.4592 -0.4934  0.5275
 5885TIP3    H139214   3.021   4.262   6.537  0.0820 -0.4249  0.2358
 5885TIP3    H239215   2.986   4.409   6.550 -1.0961 -0.4152 -2.4286
 5886TIP3   OH239216   4.462   4.726   7.082  0.2425 -0.5304  0.1202
 5886TIP3    H139217   4.415   4.726   6.998 -1.7817  0.2178  1.2037
 5886TIP3    H239218   4.525   4.797   7.074 -2.5882  2.2315  0.5439
 5887TIP3   OH239219   2.301   1.972   2.255  1.1198  0.1890 -0.3090
 5887TIP3    H139220   2.281   1.928   2.338  1.9055  0.2147 -0.0892
 5887TIP3    H239221   2.302   2.066   2.277  1.7338  0.1726 -0.2472
 5888TIP3   OH239222   6.003   6.840   6.932 -0.3948 -0.2355 -0.4354
 5888TIP3    H139223   6.028   6.768   6.990 -1.1565 -0.6855 -0.6439
 5888TIP3    H239224   5.972   6.796   6.853  1.5984  0.3847 -1.6116
 5889TIP3   OH239225   5.846   0.643   0.860  0.3399 -0.7479 -0.3266
 5889TIP3    H139226   5.903   0.701   0.809  0.2385  0.7396  1.1301
 5889TIP3    H239227   5.766   0.694   0.873  0.0541 -1.3982  0.5745
 5890TIP3   OH239228   4.707   3.938   8.076  0.1196 -0.3547 -0.2469
 5890TIP3    H139229   4.774   3.975   8.134 -0.8273 -0.6850  1.1121
 5890TIP3    H239230   4.742   3.852   8.051  0.3266 -0.4156  0.2429
 5891TIP3   OH239231   2.505   6.244   7.539 -0.0065 -0.4591  0.0470
 5891TIP3    H139232   2.570   6.310   7.514  0.1044 -0.8549 -0.7456
 5891TIP3    H239233   2.521   6.229   7.632  2.2299 -1.8328 -0.4812
 5892TIP3   OH239234   1.623   1.735   8.472  0.6341  0.4818  0.3333
 5892TIP3    H139235   1.607   1.641   8.477  0.6687  0.4819  0.4399
 5892TIP3    H239236   1.619   1.755   8.378 -0.4741  0.5768  0.3924
 5893TIP3   OH239237   3.610   0.370   1.362  0.0174  0.2712  0.1839
 5893TIP3    H139238   3.516   0.355   1.361 -0.0804  0.6757  1.3052
 5893TIP3    H239239   3.643   0.313   1.431  0.7490 -0.5978 -0.8516
 5894TIP3   OH239240   4.344   1.709   0.815  0.2968  0.0644 -0.1705
 5894TIP3    H139241   4.405   1.708   0.742 -0.2296  2.7311 -0.7416
 5894TIP3    H239242   4.397   1.734   0.891  0.2351  0.5849 -0.3008
 5895TIP3   OH239243   3.565   1.464   8.349  0.4061 -0.0755  0.4382
 5895TIP3    H139244   3.652   1.425   8.344  0.0546 -0.9874  1.1057
 5895TIP3    H239245   3.566   1.514   8.431  1.0263  1.8153 -0.6671
 5896TIP3   OH239246   1.062   0.010   7.176 -0.0030  0.1960 -0.3074
 5896TIP3    H139247   1.024   0.088   7.135 -2.0066 -0.2237  0.6392
 5896TIP3    H239248   1.156   0.016   7.157 -0.0613  2.9589 -0.0448
 5897TIP3   OH239249   0.505   1.454   7.185 -0.0646 -0.6896  0.5836
 5897TIP3    H139250   0.589   1.415   7.208  0.5721 -0.3149 -0.9727
 5897TIP3    H239251   0.511   1.544   7.216  0.0273 -0.7190  0.6518
 5898TIP3   OH239252   0.881   2.457   8.122 -0.1122  0.2962 -0.1011
 5898TIP3    H139253   0.787   2.439   8.121 -0.0888  0.0837 -1.5715
 5898TIP3    H239254   0.895   2.514   8.198 -1.5528  0.9609 -0.3137
 5899TIP3   OH239255   0.961   4.375   0.507  0.5229 -0.5713  0.2009
 5899TIP3    H139256   1.018   4.358   0.581  0.9427  0.4758  0.1365
 5899TIP3    H239257   0.962   4.470   0.496 -0.5878 -0.5930 -0.3160
 5900TIP3   OH239258   2.072   1.461   7.411  0.0277  0.1940  0.1947
 5900TIP3    H139259   2.069   1.529   7.479 -1.2086  1.4251 -1.0260
 5900TIP3    H239260   2.146   1.406   7.436  1.5006  2.3500  0.9075
 5901TIP3   OH239261   1.314   5.322   0.867  0.1709  0.1204  0.0426
 5901TIP3    H139262   1.310   5.244   0.812 -0.8130 -0.4846  0.9231
 5901TIP3    H239263   1.235   5.371   0.845  0.5230  0.6084 -0.1356
 5902TIP3   OH239264   2.132   4.014   2.401  0.5482 -0.2387 -0.1540
 5902TIP3    H139265   2.225   4.033   2.392  0.0990  3.9058  1.6023
 5902TIP3    H239266   2.125   3.971   2.486  0.8995 -1.9142 -0.9271
 5903TIP3   OH239267   6.796   0.668   1.616 -0.4533  0.3922  0.1590
 5903TIP3    H139268   6.845   0.602   1.665 -2.6581 -0.6872  1.0725
 5903TIP3    H239269   6.770   0.732   1.682 -0.2639  0.9785 -0.3207
 5904TIP3   OH239270   2.215   5.376   7.918 -0.1530 -0.3324 -0.0512
 5904TIP3    H139271   2.212   5.432   7.841 -1.4469 -0.8668 -0.4127
 5904TIP3    H239272   2.297   5.399   7.961  0.9133 -0.4589 -1.9059
 5905TIP3   OH239273   5.046   0.370   0.779  0.3273  0.0749  0.0622
 5905TIP3    H139274   4.968   0.392   0.829  1.5269  1.2339  1.4862
 5905TIP3    H239275   5.013   0.319   0.705 -1.7793  0.6330  0.5570
 5906TIP3   OH239276   6.390   4.794   1.816  0.1632 -0.1013 -0.3031
 5906TIP3    H139277   6.396   4.816   1.909  0.0485  1.7119 -0.6816
 5906TIP3    H239278   6.393   4.879   1.771 -1.4307 -0.8094 -1.8737
 5907TIP3   OH239279   3.732   0.229   6.696 -0.0321  0.2048  0.0279
 5907TIP3    H139280   3.735   0.276   6.612  2.3199  1.2784  0.6333
 5907TIP3    H239281   3.723   0.137   6.671 -1.2847  0.6318 -1.3057
 5908TIP3   OH239282   2.528   5.442   0.714  0.5712  1.0778 -0.0130
 5908TIP3    H139283   2.491   5.365   0.758  0.6539 -0.0013 -1.7087
 5908TIP3    H239284   2.623   5.434   0.729  0.6506  0.4219 -0.7572
 5909TIP3   OH239285   2.536   1.064   1.649 -0.3792  0.0781  0.5407
 5909TIP3    H139286   2.579   1.131   1.597  0.3073 -0.4481  0.4113
 5909TIP3    H239287   2.447   1.061   1.616  0.2217 -0.7431 -1.1379
 5910TIP3   OH239288   1.173   3.402   7.578  0.0621 -0.1363 -0.2331
 5910TIP3    H139289   1.153   3.413   7.485  0.4886  0.8081 -0.2197
 5910TIP3    H239290   1.114   3.332   7.606 -0.4557 -0.0662 -1.0870
 5911TIP3   OH239291   0.831   2.024   0.670 -0.1223  0.3233 -0.1495
 5911TIP3    H139292   0.753   1.996   0.621 -1.8403  1.9463  1.4979
 5911TIP3    H239293   0.800   2.033   0.760  2.4392 -0.6007  0.9123
 5912TIP3   OH239294   0.858   4.814   8.108  0.5287 -0.5045  0.1213
 5912TIP3    H139295   0.805   4.740   8.137  0.5784 -1.0412 -1.0911
 5912TIP3    H239296   0.807   4.891   8.132  0.1101 -0.9446  0.6940
 5913TIP3   OH239297   6.480   2.970   0.266 -0.4122  0.2451 -0.5914
 5913TIP3    H139298   6.549   2.976   0.333 -0.3438 -2.8499 -0.2317
 5913TIP3    H239299   6.528   2.970   0.183  0.3391 -3.3463 -0.3093
 5914TIP3   OH239300   1.940   2.348   7.185  0.6814 -0.5371  0.3098
 5914TIP3    H139301   1.988   2.281   7.233  0.4353 -1.2866 -0.4555
 5914TIP3    H239302   1.992   2.364   7.107 -0.0633 -1.0218 -0.3013
 5915TIP3   OH239303   5.132   3.651   6.973 -0.7866  0.2933  0.2412
 5915TIP3    H139304   5.165   3.706   7.043  0.1407 -1.3828  1.1700
 5915TIP3    H239305   5.188   3.671   6.898  0.0773  0.0590  0.8070
 5916TIP3   OH239306   5.772   4.414   0.283 -0.1053 -0.4173 -0.4187
 5916TIP3    H139307   5.791   4.337   0.337 -0.0387  0.3322  0.6705
 5916TIP3    H239308   5.817   4.397   0.200  0.6812 -1.1456  0.1365
 5917TIP3   OH239309   3.744   5.454   0.128 -0.5647  0.3843 -0.1138
 5917TIP3    H139310   3.651   5.446   0.147 -0.3964  0.2508  0.7247
 5917TIP3    H239311   3.787   5.408   0.200  0.1378 -0.0481 -0.7877
 5918TIP3   OH239312   6.110   2.481   1.284  0.1460 -0.1884 -0.0539
 5918TIP3    H139313   6.070   2.556   1.241  1.1892 -0.2015 -1.1166
 5918TIP3    H239314   6.115   2.505   1.376  1.6979  1.6709 -0.5526
 5919TIP3   OH239315   6.336   5.102   0.364  0.3974 -0.3816 -0.6805
 5919TIP3    H139316   6.254   5.133   0.404  0.8566 -0.5697  0.4394
 5919TIP3    H239317   6.398   5.099   0.436  1.7646  0.9507 -1.7326
 5920TIP3   OH239318   6.707   3.974   8.263 -0.1307 -0.1476 -0.5570
 5920TIP3    H139319   6.643   4.003   8.197  0.1612  1.9367  0.0216
 5920TIP3    H239320   6.653   3.947   8.338 -0.3879  1.0818 -0.2760
 5921TIP3   OH239321   1.649   4.607   7.504 -0.2761  0.1649 -0.0033
 5921TIP3    H139322   1.636   4.528   7.452 -0.0445 -0.0797  0.3037
 5921TIP3    H239323   1.742   4.626   7.495 -0.5607  1.1281 -1.0929
 5922TIP3   OH239324   2.958   2.025   1.286  0.1700 -0.0744  0.2776
 5922TIP3    H139325   2.941   2.116   1.309 -0.0816 -0.2959  1.0154
 5922TIP3    H239326   3.019   2.029   1.212  0.3490  0.6854  0.4598
 5923TIP3   OH239327   3.170   3.717   0.779 -0.4292 -0.0094 -0.2189
 5923TIP3    H139328   3.219   3.649   0.823 -0.1285  0.6086  0.4193
 5923TIP3    H239329   3.218   3.798   0.798 -1.1264  0.4692 -0.4365
 5924TIP3   OH239330   4.955   2.547   0.645 -0.1503  0.2057 -0.2851
 5924TIP3    H139331   4.900   2.622   0.622 -0.6630 -0.2755 -0.6451
 5924TIP3    H239332   4.914   2.509   0.722  1.0698  1.2861  0.9582
 5925TIP3   OH239333   3.571   0.670   0.293  0.0802  0.5166 -0.9490
 5925TIP3    H139334   3.625   0.720   0.231 -0.3911  0.7919 -1.1402
 5925TIP3    H239335   3.491   0.650   0.245  0.4855 -0.9186 -1.0676
 5926TIP3   OH239336   5.024   5.292   2.165 -0.5095 -0.1257  0.2505
 5926TIP3    H139337   5.096   5.349   2.138 -0.4648  0.2870  1.1721
 5926TIP3    H239338   5.059   5.243   2.240 -1.4923  0.8717  1.4089
 5927TIP3   OH239339   4.919   1.195   6.823 -0.6465 -0.5120  1.0462
 5927TIP3    H139340   4.918   1.137   6.899 -1.4897 -1.4907  0.3240
 5927TIP3    H239341   4.884   1.141   6.751 -0.3625  0.5395  0.0826
 5928TIP3   OH239342   1.898   5.942   7.177 -0.1945  0.1314 -0.6217
 5928TIP3    H139343   1.943   5.860   7.197 -0.5133 -0.4474 -2.2076
 5928TIP3    H239344   1.961   6.010   7.203  1.7164 -0.6484 -2.8783
 5929TIP3   OH239345   1.426   5.705   1.729 -0.4323 -0.2090 -0.2786
 5929TIP3    H139346   1.458   5.701   1.819 -2.3630 -2.0275  0.3928
 5929TIP3    H239347   1.495   5.661   1.678  1.5870  2.4798 -0.0930
 5930TIP3   OH239348   4.382   5.575   1.779 -0.2616 -0.0179 -0.4068
 5930TIP3    H139349   4.329   5.607   1.852 -0.0249 -0.1947 -0.1573
 5930TIP3    H239350   4.399   5.652   1.725  2.1411  0.7268  1.3082
 5931TIP3   OH239351   1.886   2.903   6.709 -0.3586  0.2818  0.9942
 5931TIP3    H139352   1.880   2.824   6.655 -0.4341  1.3721 -0.6709
 5931TIP3    H239353   1.795   2.930   6.722 -0.3151  0.3812  1.0906
 5932TIP3   OH239354   4.377   5.987   1.179 -0.3624 -0.3114  0.8224
 5932TIP3    H139355   4.314   6.022   1.241 -0.5909  0.0229  0.3998
 5932TIP3    H239356   4.325   5.932   1.120 -0.1893 -0.4084  0.7598
 5933TIP3   OH239357   3.246   5.057   8.133 -0.0336  0.3041  0.4408
 5933TIP3    H139358   3.180   5.125   8.144 -0.8332 -0.5512  1.0977
 5933TIP3    H239359   3.319   5.101   8.091 -0.4862  1.5891  0.9542
 5934TIP3   OH239360   6.845   2.669   0.831  0.5787 -0.1634  0.0308
 5934TIP3    H139361   6.814   2.759   0.830 -0.4647 -0.5007 -1.1646
 5934TIP3    H239362   6.926   2.670   0.780  0.3074  0.0220 -0.4015
 5935TIP3   OH239363   1.740   1.253   0.164  0.8006 -0.1229 -0.1112
 5935TIP3    H139364   1.719   1.170   0.121 -0.1866  0.0683 -0.0348
 5935TIP3    H239365   1.767   1.311   0.093  1.3804 -0.4666 -0.1790
 5936TIP3   OH239366   2.331   6.793   8.638 -0.2903 -0.5400 -0.4669
 5936TIP3    H139367   2.410   6.841   8.613  0.0226 -0.9320 -0.2457
 5936TIP3    H239368   2.362   6.705   8.662 -0.6490 -0.3868  0.6549
 5937TIP3   OH239369   6.570   2.474   7.850  0.2004  0.2957  0.4973
 5937TIP3    H139370   6.496   2.453   7.795 -0.9174  1.0787  1.6420
 5937TIP3    H239371   6.638   2.504   7.789 -0.8048  0.6115 -0.4897
 5938TIP3   OH239372   2.189   2.203   1.375 -0.1632 -1.2123  0.2420
 5938TIP3    H139373   2.273   2.237   1.342 -0.7431 -0.7338 -0.7769
 5938TIP3    H239374   2.145   2.279   1.412 -0.6233 -1.2344 -0.2511
 5939TIP3   OH239375   6.600   1.919   6.256  0.3741  0.0124  0.2192
 5939TIP3    H139376   6.627   2.001   6.296 -1.0296 -1.1096  3.9231
 5939TIP3    H239377   6.520   1.941   6.208 -0.2855  0.8223  1.6053
 5940TIP3   OH239378   3.275   2.044   7.560  0.3925  0.0732 -0.6132
 5940TIP3    H139379   3.228   2.022   7.640 -1.1572  1.2782 -1.1533
 5940TIP3    H239380   3.279   1.961   7.512  0.6004 -0.4726  0.3134
 5941TIP3   OH239381   6.681   3.331   1.954 -0.3460  1.1411  0.4111
 5941TIP3    H139382   6.612   3.307   2.016  0.4687  0.0823  0.9577
 5941TIP3    H239383   6.680   3.261   1.888 -0.5929  1.7677 -0.2568
 5942TIP3   OH239384   0.808   6.050   8.095  0.0050  0.0479 -0.5697
 5942TIP3    H139385   0.897   6.053   8.130 -0.6332 -2.5625  1.6501
 5942TIP3    H239386   0.759   5.995   8.157 -2.8838  0.4093 -2.3074
 5943TIP3   OH239387   5.252   6.745   0.639 -0.0655 -0.6598 -0.9284
 5943TIP3    H139388   5.186   6.772   0.702  0.5010 -0.7095 -0.3036
 5943TIP3    H239389   5.292   6.666   0.677 -2.0262 -2.7964 -2.9396
 5944TIP3   OH239390   3.148   3.066   7.881  0.1292  0.7702  0.0050
 5944TIP3    H139391   3.152   2.987   7.934  0.6512  1.3453  0.8301
 5944TIP3    H239392   3.099   3.129   7.934  0.2867  1.2127 -0.3623
 5945TIP3   OH239393   3.582   5.848   6.866 -0.0341 -0.0883 -0.2029
 5945TIP3    H139394   3.665   5.827   6.909 -0.4943  2.2469  2.0402
 5945TIP3    H239395   3.524   5.874   6.936 -2.3350 -0.4255 -1.8593
 5946TIP3   OH239396   3.028   0.016   0.835  0.6431  0.2410 -0.0407
 5946TIP3    H139397   2.936   0.043   0.835 -0.0516 -1.9647 -0.7328
 5946TIP3    H239398   3.055   0.028   0.744  0.3827 -1.1446 -0.3111
 5947TIP3   OH239399   5.948   6.728   0.012  0.2871  0.2115 -0.0497
 5947TIP3    H139400   5.880   6.783  -0.027 -0.0465  0.5320  0.9606
 5947TIP3    H239401   6.002   6.788   0.062 -0.1507 -0.3783  1.1703
 5948TIP3   OH239402   0.137   6.257   7.852  0.2121 -0.3395 -0.1865
 5948TIP3    H139403   0.205   6.299   7.798 -2.1430  1.2882 -2.1084
 5948TIP3    H239404   0.072   6.227   7.789 -2.2479  0.8095  1.6556
 5949TIP3   OH239405   6.514   4.912   7.941 -0.2343  0.0150  0.4434
 5949TIP3    H139406   6.533   4.958   7.859 -1.3754  1.1544  0.7853
 5949TIP3    H239407   6.567   4.833   7.937  1.3848  1.0910 -0.4297
 5950TIP3   OH239408   0.861   0.951   8.302  0.2369  0.3814  0.9430
 5950TIP3    H139409   0.850   0.937   8.208  0.3220 -1.2231  1.1404
 5950TIP3    H239410   0.839   1.043   8.316  0.7967  0.7928 -0.7264
 5951TIP3   OH239411   5.621   6.287   0.803  0.3118 -0.2535 -0.3795
 5951TIP3    H139412   5.582   6.201   0.789 -1.3039  0.8541 -3.4651
 5951TIP3    H239413   5.550   6.339   0.841  0.1374  0.5719 -1.7652
 5952TIP3   OH239414   4.257   1.948   6.495  0.1718 -0.2452  0.1932
 5952TIP3    H139415   4.266   1.947   6.590  0.8847  0.0372  0.1361
 5952TIP3    H239416   4.325   2.009   6.465 -1.9389  2.0595 -0.2803
 5953TIP3   OH239417   1.928   2.556   7.577 -0.2511 -0.2510  0.1150
 5953TIP3    H139418   1.926   2.581   7.485 -1.5459  0.8598  0.4101
 5953TIP3    H239419   1.960   2.466   7.577 -2.6215 -1.1856 -1.6556
 5954TIP3   OH239420   3.677   5.775   6.622  1.1987 -0.2048  0.6202
 5954TIP3    H139421   3.598   5.776   6.568  2.1556  3.6606 -1.1384
 5954TIP3    H239422   3.652   5.819   6.703  1.4630  0.9900  0.0761
 5955TIP3   OH239423   0.276   6.398   6.350 -0.4967  0.5198  0.3003
 5955TIP3    H139424   0.333   6.349   6.291 -2.2514 -1.0198 -0.2346
 5955TIP3    H239425   0.318   6.483   6.360  2.1010 -0.6764  0.3336
 5956TIP3   OH239426   5.007   1.100   0.255  0.1874 -0.1636  0.1615
 5956TIP3    H139427   4.987   1.188   0.288 -1.1891 -1.0082  1.7527
 5956TIP3    H239428   5.096   1.083   0.287  0.9191  1.0249 -1.1099
 5957TIP3   OH239429   5.334   3.488   0.734 -0.6578 -0.7856  0.0797
 5957TIP3    H139430   5.293   3.447   0.811  1.1239 -0.6877  1.1355
 5957TIP3    H239431   5.260   3.525   0.685 -1.7655  0.6289  2.6131
 5958TIP3   OH239432   1.651   3.236   8.601 -0.3626  0.2188 -0.6139
 5958TIP3    H139433   1.677   3.328   8.602  0.6825 -0.0568 -0.4263
 5958TIP3    H239434   1.608   3.224   8.517  2.3104  0.1794 -2.0986
 5959TIP3   OH239435   1.749   2.581   1.285 -0.1161 -0.3256  0.3371
 5959TIP3    H139436   1.761   2.634   1.364  1.5180 -0.8733  0.4742
 5959TIP3    H239437   1.677   2.625   1.238 -0.0526  0.9142  1.3493
 5960TIP3   OH239438   1.258   2.834   7.017 -0.2925 -0.2877  0.0196
 5960TIP3    H139439   1.252   2.889   7.095  1.3293 -0.6701  0.4445
 5960TIP3    H239440   1.302   2.889   6.952 -0.7417 -0.3087 -0.3065
 5961TIP3   OH239441   2.261   5.570   2.087  0.8504  0.7236 -0.3064
 5961TIP3    H139442   2.221   5.651   2.057  0.3048  0.4033 -0.4708
 5961TIP3    H239443   2.203   5.539   2.156  0.0990 -0.3688 -1.3658
 5962TIP3   OH239444   5.645   0.449   0.129 -0.0582  0.1132  0.4730
 5962TIP3    H139445   5.655   0.357   0.108  0.6281  0.2683  0.1079
 5962TIP3    H239446   5.724   0.471   0.178  0.4989  0.8587 -0.7104
 5963TIP3   OH239447   1.527   6.378   1.358  0.3045  0.1339  0.3455
 5963TIP3    H139448   1.482   6.360   1.441  0.2537 -1.2563  0.0393
 5963TIP3    H239449   1.552   6.292   1.325 -0.7854  0.5460 -1.7166
 5964TIP3   OH239450   2.109   2.305   0.149  0.2582 -0.2110  0.0011
 5964TIP3    H139451   2.093   2.317   0.243 -0.0762 -0.9428  0.0462
 5964TIP3    H239452   2.204   2.313   0.140  0.3395 -0.5449  0.4763
 5965TIP3   OH239453   0.328   2.087   7.296  0.2552  0.2162  0.3667
 5965TIP3    H139454   0.338   2.015   7.359 -1.2689 -1.2683 -0.9871
 5965TIP3    H239455   0.367   2.054   7.215 -0.1893  1.0265 -0.1978
 5966TIP3   OH239456   1.225   1.639   8.606 -0.1395 -0.1497  0.1150
 5966TIP3    H139457   1.165   1.603   8.541  1.1532 -1.4345 -0.4276
 5966TIP3    H239458   1.232   1.570   8.673  1.0149 -0.2021 -0.0373
 5967TIP3   OH239459   6.284   5.030   6.765 -0.4423 -0.2818  0.1576
 5967TIP3    H139460   6.341   5.104   6.743 -2.1727  1.1126  0.0371
 5967TIP3    H239461   6.334   4.952   6.743  2.0169  0.7828  1.5630
 5968TIP3   OH239462   3.538   1.193   7.492 -0.7784 -0.6832  0.1109
 5968TIP3    H139463   3.541   1.243   7.573 -0.0986 -2.1955  1.0749
 5968TIP3    H239464   3.458   1.141   7.498  0.8072 -3.1645  1.3796
 5969TIP3   OH239465   0.397   6.000   1.429 -0.5606 -0.0636  0.3938
 5969TIP3    H139466   0.335   5.932   1.403 -0.4781 -0.1288  0.3674
 5969TIP3    H239467   0.469   5.994   1.366 -0.1620 -0.4994  0.8765
 5970TIP3   OH239468   2.309   2.946   1.213 -0.3809 -0.2373  0.1872
 5970TIP3    H139469   2.297   3.013   1.280 -2.9312 -2.1628  1.8407
 5970TIP3    H239470   2.223   2.937   1.172  0.5943 -0.6189 -1.9442
 5971TIP3   OH239471   4.150   4.478   7.220  0.2842  0.6356  0.4439
 5971TIP3    H139472   4.120   4.517   7.137 -0.8450 -1.8234 -0.4131
 5971TIP3    H239473   4.081   4.501   7.283  0.2344  1.0228  0.2514
 5972TIP3   OH239474   6.070   6.210   6.517 -0.0836 -0.2530  0.6824
 5972TIP3    H139475   6.096   6.122   6.544  0.9829 -0.8620 -2.0373
 5972TIP3    H239476   6.028   6.198   6.432  1.4481  1.9837 -0.4883
 5973TIP3   OH239477   6.516   5.929   1.461  0.1422 -0.1701  0.4306
 5973TIP3    H139478   6.457   6.003   1.457 -1.2578 -1.2760 -0.3090
 5973TIP3    H239479   6.592   5.961   1.510  0.1400  2.0940 -0.9112
 5974TIP3   OH239480   6.740   3.583   2.267  0.2657  0.0216 -0.0591
 5974TIP3    H139481   6.694   3.645   2.211 -0.6348 -0.0709  0.5592
 5974TIP3    H239482   6.689   3.503   2.262  1.1478 -0.5320 -0.4617
 5975TIP3   OH239483   5.816   3.018   1.888  0.8005  0.2565  0.2858
 5975TIP3    H139484   5.765   3.099   1.893  1.2045  0.5608 -0.3912
 5975TIP3    H239485   5.872   3.020   1.965  1.5655  1.1482 -0.2828
 5976TIP3   OH239486   2.194   5.915   8.401  0.4165  0.4991 -0.6603
 5976TIP3    H139487   2.154   5.872   8.325  0.0211 -0.0245 -0.1604
 5976TIP3    H239488   2.215   5.843   8.461  0.1727  0.9613 -0.0126
 5977TIP3   OH239489   0.771   5.522   8.582 -0.0104  0.1905 -0.3675
 5977TIP3    H139490   0.707   5.590   8.562  0.2931  0.4865 -0.3372
 5977TIP3    H239491   0.848   5.569   8.612  0.1750 -0.1702 -0.2679
 5978TIP3   OH239492   4.723   6.230   8.222  0.3648  0.3373 -0.1390
 5978TIP3    H139493   4.639   6.233   8.176  0.9444  2.2331 -1.1821
 5978TIP3    H239494   4.718   6.151   8.275 -1.9108  0.1766 -0.4806
 5979TIP3   OH239495   3.950   1.064   1.252 -0.6023 -0.1663 -0.4490
 5979TIP3    H139496   3.989   0.997   1.196  1.1848 -0.1178  0.6633
 5979TIP3    H239497   3.937   1.139   1.193 -1.6285 -1.0929 -1.4605
 5980TIP3   OH239498   3.566   4.642   7.153 -0.0006 -0.0442 -0.3574
 5980TIP3    H139499   3.508   4.706   7.111  2.5457  1.4750 -1.8407
 5980TIP3    H239500   3.611   4.599   7.080 -0.0595 -2.0035  0.6980
 5981TIP3   OH239501   0.992   2.225   7.547 -0.0083 -0.0604 -0.1709
 5981TIP3    H139502   0.914   2.256   7.501  0.4844  0.5001 -0.6327
 5981TIP3    H239503   0.965   2.141   7.585 -1.2816  0.7951  0.8970
 5982TIP3   OH239504   0.483   1.001   7.317  0.0403 -0.2801  0.0015
 5982TIP3    H139505   0.432   1.063   7.368  1.6188  0.3354  0.8989
 5982TIP3    H239506   0.454   0.915   7.348  0.6873  0.0725  1.7284
 5983TIP3   OH239507   1.391   0.619   6.513 -0.3230 -0.8329  0.3986
 5983TIP3    H139508   1.345   0.689   6.467  3.3423  1.3342 -0.4090
 5983TIP3    H239509   1.339   0.605   6.593 -1.8659  1.9698  0.0233
 5984TIP3   OH239510   4.139   1.536   6.680 -0.1921 -0.5097 -0.1344
 5984TIP3    H139511   4.175   1.513   6.766  0.8686 -0.2415 -0.5001
 5984TIP3    H239512   4.057   1.581   6.700  0.9218  1.2141  0.8348
 5985TIP3   OH239513   2.441   3.164   8.454 -0.0640 -0.0954 -0.2959
 5985TIP3    H139514   2.437   3.199   8.543 -0.5133 -0.4154 -0.1840
 5985TIP3    H239515   2.413   3.236   8.398 -1.1260 -0.2977 -0.0559
 5986TIP3   OH239516   4.511   1.277   7.693 -0.1638 -0.6249  0.1935
 5986TIP3    H139517   4.592   1.228   7.707 -0.0493 -0.9137 -1.2707
 5986TIP3    H239518   4.528   1.363   7.730  0.9569 -0.5652 -0.4255
 5987TIP3   OH239519   2.244   4.702   0.683  0.0051 -0.1379 -0.0195
 5987TIP3    H139520   2.307   4.630   0.682 -0.4467 -0.5369 -0.3984
 5987TIP3    H239521   2.258   4.747   0.600  1.1169  0.9696  0.7201
 5988TIP3   OH239522   2.986   4.127   0.315 -0.3577  0.4698  0.0022
 5988TIP3    H139523   3.023   4.070   0.383 -2.3711  1.3175  1.9673
 5988TIP3    H239524   3.004   4.082   0.233 -0.4357 -2.1838  1.3321
 5989TIP3   OH239525   0.696   6.320   7.281  0.4136 -0.2028 -0.1288
 5989TIP3    H139526   0.704   6.248   7.344  1.0728 -0.9151 -0.9902
 5989TIP3    H239527   0.679   6.276   7.198 -0.5127  0.7265 -0.4456
 5990TIP3   OH239528   4.437   5.041   6.911 -0.2831 -0.1449 -0.2364
 5990TIP3    H139529   4.363   5.098   6.933 -0.0483  0.7506 -1.6028
 5990TIP3    H239530   4.430   5.030   6.816  0.7681 -0.8797 -0.2392
 5991TIP3   OH239531   5.897   1.001   0.672 -0.0665  0.6260  0.4080
 5991TIP3    H139532   5.855   1.068   0.617  0.0982  0.3117 -0.1131
 5991TIP3    H239533   5.986   1.033   0.685  0.0456  0.4676  0.0684
 5992TIP3   OH239534   2.792   2.230   8.456 -0.3567 -0.1863 -0.3490
 5992TIP3    H139535   2.773   2.314   8.498 -0.2183  0.2543 -1.1534
 5992TIP3    H239536   2.727   2.170   8.492 -1.5693  0.6633 -1.0304
 5993TIP3   OH239537   4.176   5.600   7.369 -0.3949 -0.3140  0.2171
 5993TIP3    H139538   4.257   5.633   7.331 -0.3213 -1.3655 -0.5888
 5993TIP3    H239539   4.188   5.505   7.372 -1.1028 -0.3822  1.2627
 5994TIP3   OH239540   3.109   4.742   1.309 -0.0412 -0.0214 -0.4684
 5994TIP3    H139541   3.025   4.782   1.333  1.2185  3.2079 -1.0061
 5994TIP3    H239542   3.173   4.787   1.364  1.4538 -2.0013 -0.4973
 5995TIP3   OH239543   5.203   4.041   8.624 -0.3663  0.1041 -0.8154
 5995TIP3    H139544   5.182   3.996   8.706 -0.3902  0.6167 -0.5386
 5995TIP3    H239545   5.233   3.971   8.566 -2.9349 -0.6857 -1.2919
 5996TIP3   OH239546   1.992   0.639   8.418 -0.1941 -0.0676 -0.2094
 5996TIP3    H139547   2.009   0.672   8.507  0.8518  1.2845 -0.8700
 5996TIP3    H239548   2.005   0.716   8.362  3.7028 -1.7591 -2.0246
 5997TIP3   OH239549   3.014   5.136   6.453 -0.1388 -0.3045  0.0975
 5997TIP3    H139550   3.041   5.060   6.402 -0.6693 -1.1879  1.0649
 5997TIP3    H239551   2.992   5.203   6.389 -1.5741 -1.6440 -0.8799
 5998TIP3   OH239552   3.468   5.192   7.385 -0.2888 -0.0569  0.5417
 5998TIP3    H139553   3.403   5.180   7.316 -0.2586  1.8152  0.1381
 5998TIP3    H239554   3.535   5.248   7.346 -0.1048  0.7827  1.9726
 5999TIP3   OH239555   3.332   3.323   0.685 -0.7522  0.4399  1.0465
 5999TIP3    H139556   3.427   3.313   0.689 -0.6980  1.2172  2.3851
 5999TIP3    H239557   3.309   3.301   0.595  0.6645 -0.0023  0.7730
 6000TIP3   OH239558   3.626   6.231   0.330 -0.0758 -0.0640 -0.1444
 6000TIP3    H139559   3.637   6.319   0.295  2.1675 -0.4231 -0.4781
 6000TIP3    H239560   3.563   6.189   0.271 -0.3702  0.9738 -0.5896
 6001TIP3   OH239561   3.146   4.071   7.973 -0.1145  0.3618  0.7489
 6001TIP3    H139562   3.071   4.011   7.972 -0.3762  0.6852  0.0497
 6001TIP3    H239563   3.211   4.028   7.916  0.0374  0.3199  0.9542
 6002TIP3   OH239564   6.294   3.583   6.863  0.1490 -0.1496 -0.2665
 6002TIP3    H139565   6.235   3.617   6.930  1.1353  0.4380  0.3269
 6002TIP3    H239566   6.376   3.629   6.878  0.6504 -0.6672 -1.3242
 6003TIP3   OH239567   0.043   2.115   0.048 -0.2348  0.7657  0.7576
 6003TIP3    H139568   0.116   2.108  -0.013  0.5898  1.1319  1.6769
 6003TIP3    H239569   0.078   2.084   0.131 -1.4839 -0.1959  0.9532
 6004TIP3   OH239570   1.546   4.067   1.239  0.0102  0.3279 -0.0612
 6004TIP3    H139571   1.494   4.109   1.308 -0.3997 -1.1778  0.5818
 6004TIP3    H239572   1.637   4.079   1.267 -0.1550 -0.3004  0.7816
 6005TIP3   OH239573   0.492   2.555   7.462 -0.3293  0.1053  0.0620
 6005TIP3    H139574   0.407   2.533   7.425  0.3736 -1.5489 -0.6547
 6005TIP3    H239575   0.533   2.611   7.395 -0.6627  0.5344  0.2105
 6006TIP3   OH239576   1.142   3.015   8.510  0.0919 -0.1931 -0.0249
 6006TIP3    H139577   1.142   3.111   8.514 -3.0225  0.0562 -2.0356
 6006TIP3    H239578   1.079   2.988   8.577  0.2745 -0.7815 -0.0797
 6007TIP3   OH239579   4.330   4.712   1.268  0.2753 -0.3133 -0.1430
 6007TIP3    H139580   4.302   4.671   1.350  0.6683 -0.4698 -0.0842
 6007TIP3    H239581   4.253   4.709   1.212  0.1633 -0.6985  0.0306
 6008TIP3   OH239582   0.485   3.421   1.780  0.0217  0.7762  0.6415
 6008TIP3    H139583   0.558   3.422   1.718  0.5694  2.1178  1.2645
 6008TIP3    H239584   0.469   3.329   1.798  0.3817  0.3977 -0.8667
 6009TIP3   OH239585   6.707   3.728   0.897  0.3427 -0.0504 -0.1176
 6009TIP3    H139586   6.789   3.746   0.852 -0.1668 -1.1545 -1.5936
 6009TIP3    H239587   6.714   3.638   0.926  0.0326  0.1618  0.6503
 6010TIP3   OH239588   4.807   2.964   1.570  0.0713 -0.2721 -0.2065
 6010TIP3    H139589   4.879   2.916   1.610  0.0201 -0.7123 -0.6309
 6010TIP3    H239590   4.838   2.984   1.481 -0.4836 -0.8469 -0.5441
 6011TIP3   OH239591   4.332   0.877   2.135 -0.6497  0.3308 -0.8561
 6011TIP3    H139592   4.327   0.967   2.102  1.8428  0.6128 -0.6293
 6011TIP3    H239593   4.401   0.836   2.084  0.3597 -0.5161  1.0736
 6012TIP3   OH239594   1.820   4.071   0.693 -0.0379  0.2475  0.5879
 6012TIP3    H139595   1.776   4.137   0.639  0.2633 -0.0432 -0.0193
 6012TIP3    H239596   1.757   4.049   0.761 -0.4364  0.5843  0.3279
 6013TIP3   OH239597   5.926   4.085   1.228  0.4415 -0.3458  0.2265
 6013TIP3    H139598   5.994   4.070   1.293 -0.8332  0.2911  1.7559
 6013TIP3    H239599   5.958   4.160   1.177  1.2379 -0.5701  0.3779
 6014TIP3   OH239600   2.742   5.289   0.477 -0.3535 -0.2077 -0.0804
 6014TIP3    H139601   2.655   5.302   0.439 -0.2715 -0.3533 -0.3151
 6014TIP3    H239602   2.773   5.378   0.495 -0.6379 -0.1602  0.2065
 6015TIP3   OH239603   4.876   5.560   8.403  0.5240 -0.2106 -0.1497
 6015TIP3    H139604   4.970   5.574   8.402  0.6241 -0.6562 -2.2811
 6015TIP3    H239605   4.865   5.467   8.420  0.5070 -0.3088 -0.6924
 6016TIP3   OH239606   6.742   1.891   0.433  0.4149 -0.0119  0.1976
 6016TIP3    H139607   6.811   1.854   0.377  1.6553  1.0541  0.9573
 6016TIP3    H239608   6.729   1.824   0.501  1.2908  0.1097  0.5017
 6017TIP3   OH239609   4.632   3.602   8.714 -0.0773  0.3304  0.1127
 6017TIP3    H139610   4.574   3.526   8.718  0.1343  0.1273 -0.5907
 6017TIP3    H239611   4.720   3.564   8.705  0.1103  0.6479  0.5477
 6018TIP3   OH239612   3.626   5.014   1.986 -0.3752  0.2170  0.0492
 6018TIP3    H139613   3.542   5.014   2.031  0.3680  1.3887  1.5133
 6018TIP3    H239614   3.691   5.027   2.056  0.9164  0.8312 -1.2176
 6019TIP3   OH239615   2.664   5.548   7.185 -0.3996 -0.5298 -0.1699
 6019TIP3    H139616   2.592   5.566   7.246  1.1371  0.0688  1.5497
 6019TIP3    H239617   2.620   5.515   7.106 -2.5322 -0.4222  0.8854
 6020TIP3   OH239618   6.697   3.708   7.521 -0.9379  0.3132 -0.3137
 6020TIP3    H139619   6.711   3.749   7.436 -0.6403  2.4230  0.6835
 6020TIP3    H239620   6.656   3.776   7.574 -0.6892 -0.7934  1.3811
 6021TIP3   OH239621   2.017   6.764   1.229 -0.1242 -0.0573  0.1877
 6021TIP3    H139622   2.095   6.790   1.180 -0.0845 -0.2777  0.1329
 6021TIP3    H239623   2.051   6.731   1.312 -0.1326 -0.5153  0.0110
 6022TIP3   OH239624   0.069   3.887   8.587 -0.9369 -0.0198 -0.0834
 6022TIP3    H139625   0.162   3.863   8.591 -0.8508 -0.0809 -1.6475
 6022TIP3    H239626   0.066   3.958   8.523 -1.9423  0.1548  0.1378
 6023TIP3   OH239627   1.774   0.127   0.746  0.3788  0.0233  0.0218
 6023TIP3    H139628   1.789   0.046   0.697  1.9359  0.8463 -0.9625
 6023TIP3    H239629   1.687   0.156   0.719 -0.0741 -1.1557  0.1602
 6024TIP3   OH239630   0.984   5.052   8.427  0.1636  0.4430 -0.3773
 6024TIP3    H139631   0.949   5.070   8.514 -1.8824  0.2184 -1.1081
 6024TIP3    H239632   0.945   5.119   8.371 -0.0323 -0.5206 -1.4345
 6025TIP3   OH239633   0.206   2.823   2.238 -0.1096  0.4328  0.2146
 6025TIP3    H139634   0.264   2.899   2.241 -1.0524  1.1896 -0.0260
 6025TIP3    H239635   0.146   2.842   2.166  0.2105 -0.9867 -0.4612
 6026TIP3   OH239636   4.576   4.280   7.957  0.5567 -0.2359 -0.1238
 6026TIP3    H139637   4.489   4.304   7.989 -0.0475  1.1611 -2.5668
 6026TIP3    H239638   4.635   4.300   8.030 -1.0918 -0.9660  1.4992
 6027TIP3   OH239639   1.820   5.512   7.766  0.1029  0.2677  0.7957
 6027TIP3    H139640   1.873   5.435   7.746  1.0134  0.9579  0.4704
 6027TIP3    H239641   1.791   5.499   7.856  0.0186 -0.5771  0.6502
 6028TIP3   OH239642   6.326   3.072   8.016  0.0602 -0.5036  0.1108
 6028TIP3    H139643   6.375   3.003   7.971 -1.9446 -0.4825 -2.3169
 6028TIP3    H239644   6.383   3.149   8.008  0.6327 -0.9820 -0.6159
 6029TIP3   OH239645   3.141   6.821   0.590 -0.3227 -0.2815  0.9645
 6029TIP3    H139646   3.060   6.775   0.568 -0.0984 -0.3656  0.3099
 6029TIP3    H239647   3.198   6.753   0.627  0.2197 -0.6827 -0.5230
 6030TIP3   OH239648   3.882   5.761   8.399 -0.5344 -0.2774 -0.1113
 6030TIP3    H139649   3.814   5.700   8.428 -0.3859 -0.2997  0.1996
 6030TIP3    H239650   3.833   5.833   8.359 -0.8431  0.3941  1.3948
 6031TIP3   OH239651   4.930   2.736   0.086  0.0975 -0.1060 -0.2668
 6031TIP3    H139652   4.893   2.813   0.042  1.5995  1.4339  1.0343
 6031TIP3    H239653   4.917   2.664   0.024 -0.6228  1.3440 -1.8751
 6032TIP3   OH239654   0.969   3.876   2.080  0.5539  0.1352  0.3302
 6032TIP3    H139655   0.938   3.786   2.083 -1.4877  0.7299 -0.7570
 6032TIP3    H239656   0.896   3.927   2.115  1.7801  1.3731  1.2162
 6033TIP3   OH239657   4.111   0.868   1.123  0.2059 -0.0983  0.8404
 6033TIP3    H139658   4.181   0.926   1.153  0.5390 -1.1349  2.1794
 6033TIP3    H239659   4.126   0.786   1.170 -1.5294 -0.5598  0.6671
 6034TIP3   OH239660   3.000   3.257   8.043 -0.3081  0.1445 -0.0813
 6034TIP3    H139661   2.962   3.191   8.101 -1.0081  1.9077  1.5877
 6034TIP3    H239662   2.929   3.280   7.983  0.1942 -1.1641 -1.2212
 6035TIP3   OH239663   1.613   2.036   1.429  0.2172 -0.3714  0.2101
 6035TIP3    H139664   1.597   2.052   1.522  0.5175 -1.0822  0.3921
 6035TIP3    H239665   1.526   2.031   1.390  0.0770 -0.5550  0.5426
 6036TIP3   OH239666   3.676   2.591   0.334  0.0343  0.1238  0.2025
 6036TIP3    H139667   3.711   2.671   0.294 -3.4447  0.8629 -1.7889
 6036TIP3    H239668   3.668   2.612   0.427  3.5766  0.2419  0.6056
 6037TIP3   OH239669   6.652   6.154   7.121 -0.0260  0.0839  0.1045
 6037TIP3    H139670   6.682   6.190   7.037  0.3768 -2.2576 -0.8299
 6037TIP3    H239671   6.575   6.102   7.098  1.2286 -2.2141  0.7997
 6038TIP3   OH239672   4.675   0.441   6.843  0.5495  0.1045 -0.1789
 6038TIP3    H139673   4.634   0.505   6.784  0.6833  0.6102  0.2641
 6038TIP3    H239674   4.669   0.358   6.797  0.4506  0.4557 -0.8112
 6039TIP3   OH239675   2.037   2.276   7.568  0.0042  0.3695 -0.4336
 6039TIP3    H139676   2.032   2.200   7.626  0.6090  1.0902  0.5973
 6039TIP3    H239677   2.003   2.244   7.484  0.6565 -1.1546 -0.1612
 6040TIP3   OH239678   2.508   4.553   1.935  0.6553  0.4398  0.5547
 6040TIP3    H139679   2.569   4.515   1.999 -0.2468 -0.5288  0.8758
 6040TIP3    H239680   2.465   4.624   1.982  0.8922  0.5473  0.6119
 6041TIP3   OH239681   6.758   1.840   8.261  0.1211 -0.4611 -0.0490
 6041TIP3    H139682   6.732   1.819   8.171 -0.8028 -0.0832  0.1298
 6041TIP3    H239683   6.709   1.918   8.284 -0.2830 -1.0151  1.0751
 6042TIP3   OH239684   5.669   0.251   7.038 -0.1961 -0.8049  0.0908
 6042TIP3    H139685   5.728   0.235   6.964  0.6118 -1.8896  0.9261
 6042TIP3    H239686   5.605   0.313   7.005  1.8316  1.0168 -0.6471
 6043TIP3   OH239687   3.854   1.755   8.547  0.0840  0.5477 -0.0599
 6043TIP3    H139688   3.859   1.851   8.539  1.8050  0.4069 -1.0414
 6043TIP3    H239689   3.908   1.735   8.624 -1.4808  0.4287  1.0761
 6044TIP3   OH239690   1.332   6.181   7.284  0.1380  0.2371  0.0133
 6044TIP3    H139691   1.255   6.233   7.262 -1.1398 -0.8190  1.7816
 6044TIP3    H239692   1.404   6.227   7.240 -0.9841  3.2102  1.0225
 6045TIP3   OH239693   3.548   2.561   7.173 -0.1524 -0.2245 -0.1081
 6045TIP3    H139694   3.605   2.498   7.216 -0.4809 -0.5779 -0.1893
 6045TIP3    H239695   3.567   2.552   7.079  1.1889  1.1472 -0.0084
 6046TIP3   OH239696   5.239   4.571   8.574 -0.5754  0.0195 -0.5543
 6046TIP3    H139697   5.332   4.566   8.597 -0.4632  1.1892 -0.7220
 6046TIP3    H239698   5.200   4.495   8.618  0.8366 -1.9196 -2.4063
 6047TIP3   OH239699   3.384   2.347   6.865 -0.1372 -0.2930 -0.2535
 6047TIP3    H139700   3.426   2.431   6.886  0.7479 -0.3288 -1.7520
 6047TIP3    H239701   3.291   2.367   6.863  0.0667  0.6696 -0.6335
 6048TIP3   OH239702   4.601   1.724   7.251  0.8970 -0.3655  0.2220
 6048TIP3    H139703   4.629   1.811   7.282  0.0456  0.2135 -0.5789
 6048TIP3    H239704   4.610   1.729   7.156  0.0920 -0.8858  0.1172
 6049TIP3   OH239705   6.769   1.356   0.700 -0.1284  0.1148 -0.6411
 6049TIP3    H139706   6.764   1.303   0.780  0.3126  0.3456 -0.4575
 6049TIP3    H239707   6.825   1.306   0.641  0.5454  0.5224 -0.3510
 6050TIP3   OH239708   1.925   6.566   7.089  0.5524  0.1900  0.5134
 6050TIP3    H139709   1.856   6.523   7.141 -1.6994  0.4012 -2.0764
 6050TIP3    H239710   1.941   6.649   7.135 -0.3695 -0.1961  1.5859
 6051TIP3   OH239711   2.580   6.411   0.306  0.0919 -0.1626  0.0426
 6051TIP3    H139712   2.597   6.430   0.214 -0.3542 -1.4226 -0.3255
 6051TIP3    H239713   2.660   6.370   0.338 -0.3366 -1.2875 -0.2690
 6052TIP3   OH239714   6.108   5.449   0.270 -0.3939  0.4290  0.2087
 6052TIP3    H139715   6.140   5.539   0.275 -0.7563  0.5702  0.0218
 6052TIP3    H239716   6.124   5.413   0.358 -1.2868  1.0365  0.6291
 6053TIP3   OH239717   5.615   3.142   0.197 -0.3352  0.1445 -0.3052
 6053TIP3    H139718   5.541   3.088   0.226 -0.0079 -0.2753 -0.2318
 6053TIP3    H239719   5.621   3.211   0.263 -0.7229  0.2379 -0.3655
 6054TIP3   OH239720   5.394   4.029   2.316 -0.4062 -0.6170 -0.2492
 6054TIP3    H139721   5.391   3.948   2.264 -1.2120  0.1944 -1.4948
 6054TIP3    H239722   5.305   4.062   2.315  0.4882  2.1990 -2.9061
 6055TIP3   OH239723   5.142   1.544   6.179  0.3897 -0.1853 -0.4525
 6055TIP3    H139724   5.189   1.621   6.211  0.1288 -0.2587  0.1368
 6055TIP3    H239725   5.094   1.574   6.103 -0.8707  0.6237  0.6134
 6056TIP3   OH239726   0.046   4.189   7.905 -0.7997  0.0355 -1.3845
 6056TIP3    H139727   0.115   4.123   7.899 -1.1104 -0.3244 -1.0163
 6056TIP3    H239728   0.084   4.267   7.863  1.4697  1.2439  2.3735
 6057TIP3   OH239729   6.737   4.420   1.862 -0.2122 -0.1939  0.0289
 6057TIP3    H139730   6.664   4.458   1.812 -0.2659 -0.1084  0.1731
 6057TIP3    H239731   6.815   4.457   1.822 -0.1907 -1.1947 -0.9046
 6058TIP3   OH239732   4.740   0.495   1.268 -0.4839  0.1871  0.3060
 6058TIP3    H139733   4.665   0.524   1.319 -1.6530 -0.2742 -1.0808
 6058TIP3    H239734   4.792   0.574   1.254 -1.5961  0.8628 -0.1375
 6059TIP3   OH239735   5.687   4.206   0.958  0.0445  0.4173 -0.2008
 6059TIP3    H139736   5.613   4.261   0.930  0.7364  1.1939 -0.5324
 6059TIP3    H239737   5.764   4.248   0.921  1.0679  1.6315  2.9780
 6060TIP3   OH239738   0.550   3.011   0.388 -0.7801  0.3469  0.0996
 6060TIP3    H139739   0.579   3.051   0.306 -0.1511 -1.1276 -0.4368
 6060TIP3    H239740   0.490   3.074   0.426  0.2924  1.8515 -0.6188
 6061TIP3   OH239741   2.866   6.550   8.398 -0.0958  0.2018  0.3234
 6061TIP3    H139742   2.828   6.462   8.406  1.1546 -0.3083  1.1332
 6061TIP3    H239743   2.910   6.550   8.313  0.0949 -0.0582  0.4170
 6062TIP3   OH239744   2.591   0.785   2.182 -0.5441 -0.6816  0.1958
 6062TIP3    H139745   2.547   0.868   2.164  2.4136  0.4370 -2.9567
 6062TIP3    H239746   2.572   0.732   2.104  0.9863 -1.3538  0.2571
 6063TIP3   OH239747   5.127   6.583   6.521  0.2055  0.4923  0.0237
 6063TIP3    H139748   5.162   6.494   6.520 -1.3563 -0.1814  1.2488
 6063TIP3    H239749   5.032   6.572   6.522 -0.0880  2.2165 -1.4820
 6064TIP3   OH239750   5.865   3.653   8.322 -0.2825 -0.1465 -0.3269
 6064TIP3    H139751   5.802   3.664   8.393 -2.3416  4.5596 -2.4390
 6064TIP3    H239752   5.948   3.684   8.359 -0.5454 -0.7405  0.8155
 6065TIP3   OH239753   4.236   3.952   8.437 -0.2294  0.0245 -0.2573
 6065TIP3    H139754   4.194   3.953   8.351 -0.5396  1.0157 -0.1131
 6065TIP3    H239755   4.163   3.940   8.499 -0.1487  0.4601 -0.0739
 6066TIP3   OH239756   0.756   6.120   7.456  0.3296 -0.1728 -0.7706
 6066TIP3    H139757   0.777   6.052   7.391  0.8109 -0.8591  0.0690
 6066TIP3    H239758   0.738   6.071   7.536  1.6548  0.7179  0.1170
 6067TIP3   OH239759   1.210   6.316   1.863 -0.0772  0.3010 -0.0024
 6067TIP3    H139760   1.221   6.273   1.948 -0.9879 -0.8285 -0.4282
 6067TIP3    H239761   1.210   6.410   1.883 -2.5529  0.0529  1.5835
 6068TIP3   OH239762   2.018   2.802   1.850  0.2215  0.0777  0.4094
 6068TIP3    H139763   2.045   2.856   1.924 -1.7998 -2.1723  3.0128
 6068TIP3    H239764   2.068   2.721   1.860  1.4240  0.4283 -1.9898
 6069TIP3   OH239765   5.502   6.245   1.611 -0.3473 -0.1597  0.1029
 6069TIP3    H139766   5.414   6.264   1.645 -0.5669  1.0476 -1.0393
 6069TIP3    H239767   5.538   6.181   1.672 -2.0093 -0.6702  0.6170
 6070TIP3   OH239768   3.916   1.522   0.704  1.1394 -0.2185 -0.7851
 6070TIP3    H139769   3.998   1.564   0.678  1.4359  0.8552  1.6098
 6070TIP3    H239770   3.919   1.436   0.662  2.0984  0.8399 -3.0954
 6071TIP3   OH239771   5.154   3.379   0.064 -0.1976  0.5319  0.2614
 6071TIP3    H139772   5.202   3.363  -0.018  0.8435  1.2716  0.6987
 6071TIP3    H239773   5.197   3.322   0.128 -0.0850  0.9838  0.5952
 6072TIP3   OH239774   4.008   1.283   1.838  0.2542  0.5262  0.0245
 6072TIP3    H139775   4.016   1.259   1.930  0.0334  0.5356  0.0454
 6072TIP3    H239776   3.914   1.284   1.821  0.3370 -1.7176 -0.8004
 6073TIP3   OH239777   2.062   0.423   2.302  0.3562 -0.0608 -0.1977
 6073TIP3    H139778   2.011   0.347   2.273 -0.1400  0.5136 -0.8565
 6073TIP3    H239779   2.004   0.497   2.289  1.1141  0.5300 -0.2842
 6074TIP3   OH239780   3.746   5.853   1.689  0.2397 -0.1501 -0.1715
 6074TIP3    H139781   3.703   5.922   1.738  2.1175  1.0365 -0.0902
 6074TIP3    H239782   3.788   5.798   1.756  1.4089  0.5048 -0.3472
 6075TIP3   OH239783   2.981   2.545   1.971  0.0252 -0.1763  0.5383
 6075TIP3    H139784   2.975   2.452   1.992  0.9832 -0.2506  0.5112
 6075TIP3    H239785   2.983   2.588   2.056  3.7107 -0.4653  0.7541
 6076TIP3   OH239786   6.567   2.839   1.196  0.1139  0.4888  0.0222
 6076TIP3    H139787   6.533   2.924   1.167  0.3386  0.8821  0.8506
 6076TIP3    H239788   6.582   2.790   1.116  0.4603  1.4287 -0.5071
 6077TIP3   OH239789   6.100   6.038   1.565  0.2067  0.2884  0.2738
 6077TIP3    H139790   6.091   6.085   1.482 -1.3225 -1.0108 -0.3502
 6077TIP3    H239791   6.149   6.098   1.622 -0.0158  1.8161 -1.0825
 6078TIP3   OH239792   0.728   4.547   7.886  0.5592 -0.6752  0.4778
 6078TIP3    H139793   0.729   4.463   7.841 -0.5542 -0.6898  0.4509
 6078TIP3    H239794   0.646   4.588   7.858  1.0881  0.4252  0.4877
 6079TIP3   OH239795   3.647   0.117   1.125 -0.5143 -0.6939  0.2762
 6079TIP3    H139796   3.667   0.130   1.218  0.7331  0.1093 -0.0658
 6079TIP3    H239797   3.726   0.075   1.090 -0.8103 -0.6186 -0.4951
 6080TIP3   OH239798   4.936   1.982   7.612  0.2036 -0.1600 -0.3081
 6080TIP3    H139799   4.975   2.020   7.533 -0.0979 -0.8711 -0.8083
 6080TIP3    H239800   4.844   1.969   7.589  0.0625 -0.1673  0.2416
 6081TIP3   OH239801   0.596   5.211   0.100  0.2267 -1.2133 -0.2216
 6081TIP3    H139802   0.679   5.254   0.120 -1.4201  1.6313  1.1226
 6081TIP3    H239803   0.570   5.171   0.184 -0.2224 -1.2429 -0.3739
 6082TIP3   OH239804   4.456   4.888   1.985  0.0060 -0.3336  0.5972
 6082TIP3    H139805   4.369   4.850   1.977  0.2514 -0.7947 -0.0336
 6082TIP3    H239806   4.449   4.952   2.055 -0.9664 -0.0063  0.2049
 6083TIP3   OH239807   0.954   5.548   1.189 -0.1862 -0.0373  0.3298
 6083TIP3    H139808   0.924   5.460   1.208 -2.0634 -0.1727 -2.5826
 6083TIP3    H239809   0.991   5.542   1.101  1.3306  1.7720  0.7673
 6084TIP3   OH239810   0.044   4.510   2.194 -0.2275 -0.1513  0.1823
 6084TIP3    H139811   0.001   4.574   2.250 -2.9043 -0.4001 -1.4027
 6084TIP3    H239812  -0.007   4.430   2.204 -0.0070 -0.5721 -1.5725
 6085TIP3   OH239813   4.357   5.126   0.169  0.2875  0.2342  0.4343
 6085TIP3    H139814   4.399   5.211   0.156 -1.5759  1.0062 -1.0756
 6085TIP3    H239815   4.275   5.145   0.215 -0.5785 -0.5787 -0.6772
 6086TIP3   OH239816   4.745   2.721   8.010 -0.6749  0.0852  0.2924
 6086TIP3    H139817   4.785   2.750   8.092 -1.5943 -2.0026  1.5594
 6086TIP3    H239818   4.820   2.699   7.954 -0.0287  2.1439  0.2795
 6087TIP3   OH239819   5.174   1.178   0.740  0.0241  0.3688 -0.0849
 6087TIP3    H139820   5.121   1.106   0.707  0.3758 -0.0400  0.2380
 6087TIP3    H239821   5.112   1.250   0.752 -0.8344 -0.6258  1.9856
 6088TIP3   OH239822   6.711   2.686   0.428 -0.1225  0.1988  0.6391
 6088TIP3    H139823   6.779   2.623   0.452 -0.7819  0.0514  2.2384
 6088TIP3    H239824   6.648   2.681   0.500 -1.3874  0.9570 -0.3910
 6089TIP3   OH239825   5.940   1.358   7.290 -0.6946  0.2839  0.6477
 6089TIP3    H139826   5.855   1.323   7.316 -1.5084  1.0341 -0.9023
 6089TIP3    H239827   5.943   1.446   7.328 -1.7231  1.2336 -1.3549
 6090TIP3   OH239828   3.264   5.184   0.249 -0.8086  0.2416  0.5344
 6090TIP3    H139829   3.298   5.195   0.161  0.7362 -0.3207  1.0292
 6090TIP3    H239830   3.262   5.090   0.263  0.3558  0.3367  1.5834
 6091TIP3   OH239831   0.634   6.490   6.536  0.0112  0.2508 -0.0373
 6091TIP3    H139832   0.554   6.443   6.558 -0.7459  0.8022 -1.5032
 6091TIP3    H239833   0.612   6.540   6.458  1.6433  0.8207 -0.1697
 6092TIP3   OH239834   3.808   2.015   8.597  0.3298 -0.6683 -0.2540
 6092TIP3    H139835   3.768   2.098   8.622  1.4242 -0.5721  1.3545
 6092TIP3    H239836   3.838   2.029   8.507 -2.3900 -0.4804 -1.2036
 6093TIP3   OH239837   5.320   0.412   0.597  0.2944  0.1319  0.4861
 6093TIP3    H139838   5.311   0.397   0.503  1.8317 -0.0411  0.3398
 6093TIP3    H239839   5.297   0.328   0.637  0.5191 -0.0608  0.2095
 6094TIP3   OH239840   3.537   5.156   8.370 -0.5067 -0.0456  0.1887
 6094TIP3    H139841   3.477   5.219   8.330  0.1939 -0.9615 -2.5871
 6094TIP3    H239842   3.622   5.200   8.371 -0.9949  1.0517  3.6104
 6095TIP3   OH239843   5.797   3.041   8.676 -0.0298 -0.0637  0.3762
 6095TIP3    H139844   5.776   3.116   8.731 -0.1450 -1.0338  1.6996
 6095TIP3    H239845   5.892   3.032   8.684 -0.0345 -0.1418  0.3414
 6096TIP3   OH239846   3.516   2.544   7.968  0.4892  0.3672 -0.1329
 6096TIP3    H139847   3.578   2.514   8.035 -0.6620  0.0950  0.8386
 6096TIP3    H239848   3.564   2.534   7.885  2.4410  1.9442  0.6973
 6097TIP3   OH239849   4.523   6.451   7.760 -0.0366  0.5320 -0.4564
 6097TIP3    H139850   4.558   6.416   7.678 -0.6856  0.4006 -0.6849
 6097TIP3    H239851   4.435   6.413   7.766  0.0863  0.3688  0.4088
 6098TIP3   OH239852   0.513   0.027   6.878  0.4210  0.2328  0.0130
 6098TIP3    H139853   0.450  -0.034   6.838  0.3153 -0.3266  0.9982
 6098TIP3    H239854   0.509   0.008   6.971 -0.0831  2.2067  0.4418
 6099TIP3   OH239855   0.039   6.836   0.075  0.0046  0.8267 -0.0347
 6099TIP3    H139856   0.088   6.773   0.126 -1.2780 -0.0451  0.1720
 6099TIP3    H239857   0.096   6.913   0.069  0.3752  0.8029  2.3438
 6100TIP3   OH239858   5.863   0.231   6.821 -0.2105  0.2253  0.0932
 6100TIP3    H139859   5.928   0.173   6.862 -0.4183  1.1739  1.8656
 6100TIP3    H239860   5.829   0.180   6.747  0.4878 -1.4225  0.8475
 6101TIP3   OH239861   2.470   4.999   6.843 -0.1427 -0.0464 -0.0286
 6101TIP3    H139862   2.495   5.073   6.900  0.2244  0.5824 -0.9830
 6101TIP3    H239863   2.432   4.935   6.903 -1.6305  1.4190  0.6705
 6102TIP3   OH239864   4.885   3.128   0.809 -1.0168 -0.7832 -0.4813
 6102TIP3    H139865   4.931   3.208   0.784 -1.2685  0.0523  1.5154
 6102TIP3    H239866   4.955   3.064   0.824 -0.6290 -0.1598  0.4389
 6103TIP3   OH239867   2.233   0.720   8.106  0.8196  0.0965  0.0266
 6103TIP3    H139868   2.149   0.765   8.094  1.0662  0.6112  0.1817
 6103TIP3    H239869   2.298   0.789   8.094  1.1934 -0.1384  0.6661
 6104TIP3   OH239870   5.977   4.424   8.119  0.1301  0.3444 -0.2863
 6104TIP3    H139871   6.045   4.490   8.130 -0.6355  1.0585  0.2987
 6104TIP3    H239872   5.946   4.436   8.030 -2.6026  3.4144  0.8912
 6105TIP3   OH239873   1.205   0.511   7.510 -0.4443 -0.1885  0.0501
 6105TIP3    H139874   1.223   0.558   7.592 -1.1198 -0.2285  0.2263
 6105TIP3    H239875   1.111   0.492   7.513 -0.7530  0.9889 -1.3778
 6106TIP3   OH239876   6.525   0.382   8.554  0.0264 -0.0334  0.2027
 6106TIP3    H139877   6.464   0.313   8.578 -0.6771  0.4749 -0.0980
 6106TIP3    H239878   6.494   0.413   8.468 -0.6586  1.7407  1.0446
 6107TIP3   OH239879   2.224   5.074   6.697 -0.0227 -0.2046  0.3527
 6107TIP3    H139880   2.223   5.168   6.714  0.5495 -0.0840 -0.2158
 6107TIP3    H239881   2.265   5.036   6.775 -0.5666 -0.0214  0.7322
 6108TIP3   OH239882   6.263   5.025   7.770 -0.0441  0.0152  0.0978
 6108TIP3    H139883   6.311   5.033   7.688 -2.2598  1.7432 -1.1489
 6108TIP3    H239884   6.179   4.988   7.745 -1.3555  2.0042  1.2416
 6109TIP3   OH239885   2.591   3.489   7.643  0.2506  0.0863  0.4287
 6109TIP3    H139886   2.643   3.414   7.672  2.5337  1.1850 -0.5210
 6109TIP3    H239887   2.510   3.451   7.610  0.9641 -1.8598  0.7607
 6110TIP3   OH239888   1.814   4.081   0.323 -0.9051  0.2344  0.7852
 6110TIP3    H139889   1.855   4.122   0.247  1.4299 -1.6680  0.9338
 6110TIP3    H239890   1.797   4.154   0.383 -0.3626  1.4187 -0.4504
 6111TIP3   OH239891   5.177   6.307   7.263  0.4431  0.3545 -0.0443
 6111TIP3    H139892   5.259   6.326   7.218  0.9837 -0.4277  0.5980
 6111TIP3    H239893   5.202   6.293   7.355 -0.1696 -1.4860 -0.1207
 6112TIP3   OH239894   3.016   6.659   7.309  0.0456 -0.3505 -0.3610
 6112TIP3    H139895   2.952   6.678   7.241  2.2663  0.5060 -2.3369
 6112TIP3    H239896   3.096   6.638   7.262  1.6053 -0.1123  1.9893
 6113TIP3   OH239897   3.241   5.510   1.425  0.2442 -0.1196  0.9907
 6113TIP3    H139898   3.165   5.521   1.368  1.2002  0.5544 -0.1718
 6113TIP3    H239899   3.203   5.486   1.510 -1.2706  0.3072  0.4635
 6114TIP3   OH239900   5.402   2.781   1.526 -0.0876 -0.5894  0.3999
 6114TIP3    H139901   5.470   2.715   1.514 -1.8632 -2.9614  2.2594
 6114TIP3    H239902   5.320   2.732   1.518 -1.5911  1.9057 -0.5378
 6115TIP3   OH239903   4.770   2.998   0.147  0.0634  0.2601  0.1755
 6115TIP3    H139904   4.706   3.065   0.172 -0.7410 -0.7615  0.9490
 6115TIP3    H239905   4.826   2.987   0.224 -0.8216 -1.0709  0.6744
 6116TIP3   OH239906   3.078   1.542   6.921  0.2555  0.0931  0.1344
 6116TIP3    H139907   3.086   1.453   6.886 -0.3412 -0.8539  2.2237
 6116TIP3    H239908   3.025   1.588   6.857  0.8614 -0.9373 -1.1676
 6117TIP3   OH239909   1.064   5.749   7.338 -0.5042  0.2076 -0.9005
 6117TIP3    H139910   1.133   5.811   7.315 -0.9275  0.6580 -0.9686
 6117TIP3    H239911   1.074   5.678   7.275  0.9685 -0.5608  0.1293
 6118TIP3   OH239912   2.768   4.898   1.058  0.1951 -0.2045 -0.0382
 6118TIP3    H139913   2.764   4.930   1.148 -1.2373  0.4316 -0.3046
 6118TIP3    H239914   2.688   4.930   1.017  1.0475 -0.0719 -1.6935
 6119TIP3   OH239915   2.893   2.594   1.097  0.1488 -0.7699  0.0877
 6119TIP3    H139916   2.922   2.685   1.086  0.4514 -0.8957 -0.1989
 6119TIP3    H239917   2.973   2.542   1.085 -0.4790 -1.2456 -2.5166
 6120TIP3   OH239918   4.496   1.770   0.583  0.1644  0.0584 -0.0152
 6120TIP3    H139919   4.539   1.847   0.546 -0.9598  0.3377 -0.7879
 6120TIP3    H239920   4.416   1.761   0.532 -2.1621  1.2387  3.0900
 6121TIP3   OH239921   5.254   0.535   8.167  0.0208  0.2972  0.2695
 6121TIP3    H139922   5.335   0.571   8.203 -0.0296  0.8150 -0.1213
 6121TIP3    H239923   5.277   0.448   8.137  0.2858  0.2118  0.7066
 6122TIP3   OH239924   2.529   2.151   7.440 -0.1718  0.2221 -0.1842
 6122TIP3    H139925   2.547   2.058   7.450 -3.7290 -0.9907 -3.0319
 6122TIP3    H239926   2.552   2.170   7.349 -2.3000  1.2618 -0.5699
 6123TIP3   OH239927   6.134   5.752   1.163 -0.3416 -0.2248  0.5812
 6123TIP3    H139928   6.104   5.741   1.253 -1.2593  0.6966  0.4143
 6123TIP3    H239929   6.179   5.670   1.142 -1.0203 -0.8620  1.5312
 6124TIP3   OH239930   6.762   3.930   1.760  0.5101  0.0147 -0.2965
 6124TIP3    H139931   6.724   3.972   1.837 -1.3779 -1.7257 -0.1993
 6124TIP3    H239932   6.783   3.841   1.789  0.5378 -0.4126 -1.5764
 6125TIP3   OH239933   4.873   6.832   1.025 -0.5713 -0.3801 -0.2925
 6125TIP3    H139934   4.915   6.849   1.109 -1.1842  2.9415 -0.5020
 6125TIP3    H239935   4.779   6.841   1.042 -0.8313 -1.5376 -0.9972
 6126TIP3   OH239936   2.807   1.679   0.058 -0.4706  0.3684 -0.4326
 6126TIP3    H139937   2.864   1.710   0.128 -0.2016  0.6699 -0.7836
 6126TIP3    H239938   2.817   1.584   0.058 -0.2354  0.3943 -0.2668
 6127TIP3   OH239939   4.846   5.182   1.603  0.0339 -0.1151 -0.3619
 6127TIP3    H139940   4.810   5.130   1.532  1.2930 -1.9176  0.2656
 6127TIP3    H239941   4.916   5.234   1.563 -1.9497  2.1002 -1.2228
 6128TIP3   OH239942   1.256   1.776   7.958 -0.1763 -0.2748 -0.0178
 6128TIP3    H139943   1.304   1.858   7.966  0.3633 -0.5175 -0.6915
 6128TIP3    H239944   1.317   1.710   7.990 -0.4840 -0.4601  0.1947
 6129TIP3   OH239945   1.408   2.670   7.288 -0.0293 -0.3837  0.1300
 6129TIP3    H139946   1.430   2.699   7.377  1.1679 -0.1756 -0.2053
 6129TIP3    H239947   1.390   2.576   7.297  0.1533 -0.3777  0.5829
 6130TIP3   OH239948   3.121   5.215   6.690 -0.3978 -0.1944 -0.3187
 6130TIP3    H139949   3.059   5.277   6.651 -0.2907 -0.7003 -1.3151
 6130TIP3    H239950   3.143   5.154   6.619  1.2187 -0.0428 -0.0042
 6131TIP3   OH239951   2.190   4.100   0.461 -0.3484  0.3418  0.5373
 6131TIP3    H139952   2.238   4.061   0.389 -0.3255 -1.0046  1.2571
 6131TIP3    H239953   2.252   4.100   0.534 -0.8116  0.4012  0.9341
 6132TIP3   OH239954   1.245   3.537   7.816  0.1220 -0.0744  0.3420
 6132TIP3    H139955   1.235   3.579   7.731  0.4562  2.2725  1.3969
 6132TIP3    H239956   1.202   3.451   7.806  0.9865 -0.2521 -2.4251
 6133TIP3   OH239957   6.785   0.234   8.382  0.3273 -0.6859  0.1850
 6133TIP3    H139958   6.824   0.308   8.428  1.1968 -1.0125 -0.0013
 6133TIP3    H239959   6.739   0.185   8.450  0.3978 -0.3912  0.4456
 6134TIP3   OH239960   3.048   4.328   0.955  0.0384  0.0021  0.1954
 6134TIP3    H139961   3.086   4.413   0.978  1.2054 -0.2604 -0.6755
 6134TIP3    H239962   3.023   4.290   1.039  3.3014 -0.5223  1.0769
 6135TIP3   OH239963   1.970   2.012   8.093 -0.0751 -0.0877  0.1903
 6135TIP3    H139964   1.918   1.987   8.016  1.7237 -1.4690 -0.6429
 6135TIP3    H239965   1.983   2.106   8.083 -2.0778  0.2377  0.2497
 6136TIP3   OH239966   6.445   2.116   6.533 -0.7736  0.3978  0.3936
 6136TIP3    H139967   6.360   2.159   6.535 -1.4083 -0.6304 -1.7800
 6136TIP3    H239968   6.437   2.046   6.598 -0.5501  1.9737  2.2190
 6137TIP3   OH239969   3.053   1.126   7.236 -0.4938 -0.1757  0.0809
 6137TIP3    H139970   3.023   1.212   7.205  0.2353 -0.2497 -0.9002
 6137TIP3    H239971   3.147   1.127   7.220 -0.5441 -1.3235 -0.3531
 6138TIP3   OH239972   2.096   5.424   8.509 -0.2204 -0.1690  0.3580
 6138TIP3    H139973   2.143   5.343   8.490  2.0412  1.1767 -0.1752
 6138TIP3    H239974   2.061   5.411   8.598 -0.6047 -1.9746 -0.0083
 6139TIP3   OH239975   0.269   0.626   8.308  0.1547 -0.3589 -0.8716
 6139TIP3    H139976   0.178   0.653   8.299 -0.4383 -1.8871  0.1282
 6139TIP3    H239977   0.271   0.536   8.275  0.6595 -1.3409  1.5823
 6140TIP3   OH239978   4.087   4.697   6.629  0.6032 -0.7282  0.2555
 6140TIP3    H139979   4.046   4.636   6.690  1.4280 -1.7117 -0.1442
 6140TIP3    H239980   4.180   4.676   6.633  0.6636 -1.0214 -1.5121
 6141TIP3   OH239981   6.469   0.719   0.077 -0.5233  0.7492  0.0571
 6141TIP3    H139982   6.415   0.770   0.138  0.0655  0.2981  0.9783
 6141TIP3    H239983   6.409   0.652   0.043 -0.7876  0.8242  0.3677
 6142TIP3   OH239984   5.444   1.235   1.881 -0.0116  0.0608  0.3521
 6142TIP3    H139985   5.422   1.217   1.973 -2.1257 -0.3703 -0.1901
 6142TIP3    H239986   5.495   1.159   1.854 -0.1921 -0.2709  0.9215
 6143TIP3   OH239987   6.264   1.610   1.339  0.3334 -0.4150  0.4453
 6143TIP3    H139988   6.356   1.636   1.332 -0.0243  1.7289  2.6678
 6143TIP3    H239989   6.255   1.578   1.428 -1.0572 -0.7855  0.1881
 6144TIP3   OH239990   2.386   4.114   8.670 -0.3719  0.1339  0.7161
 6144TIP3    H139991   2.364   4.022   8.680  2.5780 -0.7457  0.1382
 6144TIP3    H239992   2.390   4.128   8.575  1.2560  0.2178  0.7608
 6145TIP3   OH239993   2.279   3.315   0.886  0.0855 -0.5572  0.4385
 6145TIP3    H139994   2.371   3.321   0.863 -0.0213  0.2807  0.1984
 6145TIP3    H239995   2.266   3.381   0.955 -0.2995 -0.7607  0.5663
 6146TIP3   OH239996   5.538   4.204   1.179  0.0240  0.5882 -0.0573
 6146TIP3    H139997   5.486   4.206   1.098  0.8256  1.6476 -0.5685
 6146TIP3    H239998   5.628   4.219   1.150  0.2819  1.3047  1.0519
 6147TIP3   OH239999   5.445   4.215   0.438  0.3627  0.6928 -0.2311
 6147TIP3    H140000   5.451   4.181   0.527 -2.9800 -0.7811 -0.4243
 6147TIP3    H240001   5.514   4.169   0.390  0.6039 -0.3810  1.0853
 6148TIP3   OH240002   2.144   3.671   8.591 -0.0523 -0.1330  0.5828
 6148TIP3    H140003   2.185   3.587   8.610 -0.2650 -0.1900  0.8027
 6148TIP3    H240004   2.175   3.694   8.504 -2.0223 -1.7006 -0.6240
 6149TIP3   OH240005   1.006   3.157   1.981  0.1980 -0.2930 -0.4163
 6149TIP3    H140006   1.063   3.107   2.040  0.8754 -0.3257 -1.0722
 6149TIP3    H240007   0.932   3.184   2.035  0.6383 -0.6059  0.3575
 6150TIP3   OH240008   5.433   4.972   7.380  0.0164 -0.2489 -0.3635
 6150TIP3    H140009   5.380   5.048   7.401 -0.0224 -0.4261  0.2036
 6150TIP3    H240010   5.517   5.008   7.350  0.0515  0.0111  0.0469
 6151TIP3   OH240011   5.853   5.793   0.053 -0.0249  0.1582  0.1210
 6151TIP3    H140012   5.914   5.722   0.077  0.5901  0.2470 -1.0824
 6151TIP3    H240013   5.767   5.751   0.052  0.2838 -0.4935 -0.2041
 6152TIP3   OH240014   2.397   5.113   1.310 -0.4728  0.4206 -0.6819
 6152TIP3    H140015   2.312   5.119   1.266 -0.8149  1.6174  0.0780
 6152TIP3    H240016   2.417   5.020   1.310 -1.5197  0.1722 -1.3863
 6153TIP3   OH240017   3.128   0.862   8.707  0.1900  0.5888 -0.6211
 6153TIP3    H140018   3.123   0.807   8.784  2.9084 -2.7064 -2.5088
 6153TIP3    H240019   3.128   0.952   8.741  1.1299 -0.6709  3.1766
 6154TIP3   OH240020   5.429   2.002   0.120  0.1066  0.3097  0.3177
 6154TIP3    H140021   5.460   2.061   0.051  0.1658  2.8168  2.3175
 6154TIP3    H240022   5.489   2.017   0.193 -0.3171 -1.7803  1.1462
 6155TIP3   OH240023   4.388   6.608   7.405  0.6006  0.0500  0.2476
 6155TIP3    H140024   4.411   6.654   7.485 -1.0467  0.9652  0.2487
 6155TIP3    H240025   4.426   6.662   7.335  1.1856 -0.2102  0.3580
 6156TIP3   OH240026   1.606   2.865   1.760  0.1501  0.5370 -0.2395
 6156TIP3    H140027   1.575   2.894   1.846 -0.0646  0.6760 -0.3618
 6156TIP3    H240028   1.627   2.773   1.771 -0.0719  0.5057 -0.0913
 6157TIP3   OH240029   3.421   4.138   6.603 -0.4287 -0.2248  0.6943
 6157TIP3    H140030   3.344   4.087   6.629 -0.7138  1.0075  2.4128
 6157TIP3    H240031   3.481   4.073   6.566 -1.7590 -1.4067  0.5275
 6158TIP3   OH240032   3.589   6.439   1.433 -0.2898  0.3851 -0.0963
 6158TIP3    H140033   3.517   6.501   1.422 -2.4966 -2.0829 -0.2964
 6158TIP3    H240034   3.557   6.374   1.494  2.2587 -0.2062  0.7550
 6159TIP3   OH240035   4.596   1.508   7.823  0.5734  0.5662 -0.0814
 6159TIP3    H140036   4.643   1.588   7.849 -1.6223  1.6470  0.8059
 6159TIP3    H240037   4.624   1.442   7.885 -1.0989  1.9251  2.2800
 6160TIP3   OH240038   6.708   0.069   8.611 -0.2535 -0.4274 -0.5213
 6160TIP3    H140039   6.759   0.032   8.682  3.3797  3.8702 -0.4628
 6160TIP3    H240040   6.629   0.103   8.653  2.5766  3.6538  2.2747
 6161TIP3   OH240041   2.973   6.783   2.063 -0.7435 -0.1277  0.1049
 6161TIP3    H140042   2.914   6.738   2.123  0.1990 -0.9203  0.4744
 6161TIP3    H240043   2.996   6.717   1.998 -0.4318  0.2278 -0.1499
 6162TIP3   OH240044   6.284   0.234   7.211 -0.0151  0.0447 -0.6119
 6162TIP3    H140045   6.196   0.248   7.244  0.9440  2.1204  1.3384
 6162TIP3    H240046   6.276   0.241   7.116 -2.2855 -2.3698 -0.7043
 6163TIP3   OH240047   2.207   2.097   8.343 -0.0039  0.1718  0.2761
 6163TIP3    H140048   2.231   2.174   8.291  0.2426 -0.3173 -0.3469
 6163TIP3    H240049   2.113   2.108   8.361  0.1431  0.8685  0.6286
 6164TIP3   OH240050   3.629   0.510   6.826 -0.2321 -0.2152  0.1857
 6164TIP3    H140051   3.616   0.472   6.739  0.9054 -0.1002 -0.0554
 6164TIP3    H240052   3.547   0.493   6.873 -1.0633  0.2060 -1.0824
 6165TIP3   OH240053   6.720   3.530   7.867  0.3262 -0.1904  0.2838
 6165TIP3    H140054   6.756   3.506   7.952  0.9788  0.1945  0.1243
 6165TIP3    H240055   6.701   3.623   7.874 -1.8387 -0.6263  0.7758
 6166TIP3   OH240056   1.135   3.411   0.274 -0.1983  0.0057 -0.0251
 6166TIP3    H140057   1.106   3.381   0.361 -1.7383 -0.4378 -0.6448
 6166TIP3    H240058   1.114   3.338   0.216 -0.2863  0.7449 -0.9463
 6167TIP3   OH240059   4.005   2.733   8.113 -0.0711  0.2866  0.3730
 6167TIP3    H140060   3.962   2.716   8.197 -0.3253 -1.4124 -0.0742
 6167TIP3    H240061   4.051   2.652   8.093 -0.6658  0.3863 -1.5339
 6168TIP3   OH240062   5.319   4.837   7.146  0.2454  0.1741 -0.0793
 6168TIP3    H140063   5.389   4.882   7.192 -0.3974  0.9320  0.1765
 6168TIP3    H240064   5.297   4.763   7.201  3.0642 -2.0813 -1.6992
 6169TIP3   OH240065   5.146   0.469   8.546 -0.2949 -0.0187 -0.0497
 6169TIP3    H140066   5.150   0.550   8.596 -3.0616  0.0155  0.2772
 6169TIP3    H240067   5.052   0.455   8.531  0.2226 -2.1708 -1.7237
 6170TIP3   OH240068   5.686   2.882   1.295  0.2000  0.2631  0.5016
 6170TIP3    H140069   5.735   2.953   1.253  1.1880 -0.3683  0.5747
 6170TIP3    H240070   5.751   2.815   1.312 -1.0027 -1.4336 -1.1617
 6171TIP3   OH240071   2.727   6.195   6.513  0.3233  0.1955  0.2417
 6171TIP3    H140072   2.698   6.249   6.586  2.2051 -0.1498  1.2890
 6171TIP3    H240073   2.646   6.175   6.465 -0.7117  1.9396  1.1617
 6172TIP3   OH240074   2.606   1.449   1.935 -0.0207 -0.3065  0.1935
 6172TIP3    H140075   2.523   1.422   1.895  0.3984 -1.5339  0.1120
 6172TIP3    H240076   2.604   1.412   2.023  0.2108  0.1266  0.3840
 6173TIP3   OH240077   0.400   3.699   7.660  0.2236  0.8636 -0.1314
 6173TIP3    H140078   0.357   3.785   7.655  1.6948  1.7851  1.7059
 6173TIP3    H240079   0.328   3.636   7.653 -0.9162  2.2091 -1.3466
 6174TIP3   OH240080   6.062   3.800   7.707 -0.3395  0.1166  0.1930
 6174TIP3    H140081   5.975   3.834   7.732  0.5720  2.6920  0.1747
 6174TIP3    H240082   6.044   3.712   7.674 -3.0232  0.7207 -0.2593
 6175TIP3   OH240083   0.053   3.658   6.922 -0.0761 -0.1973 -0.7704
 6175TIP3    H140084   0.037   3.628   6.833 -0.7000 -0.4395 -0.5805
 6175TIP3    H240085  -0.034   3.680   6.956 -0.1507 -2.3083  0.5565
 6176TIP3   OH240086   5.274   0.434   0.327  0.9751 -0.0900  0.3730
 6176TIP3    H140087   5.197   0.445   0.271 -0.4618 -1.4222  2.0053
 6176TIP3    H240088   5.320   0.358   0.290  0.7526 -0.1526  0.2238
 6177TIP3   OH240089   5.181   0.698   0.546 -0.2414  1.3876 -0.1792
 6177TIP3    H140090   5.243   0.626   0.558  1.0765  2.6313  0.6268
 6177TIP3    H240091   5.194   0.726   0.456 -1.7837 -0.2624 -0.9827
 6178TIP3   OH240092   2.028   3.675   7.087  0.2447 -0.2152  0.2458
 6178TIP3    H140093   2.030   3.738   7.015  0.6026 -1.0911 -0.5349
 6178TIP3    H240094   1.991   3.724   7.161  0.8048  0.9886 -0.2421
 6179TIP3   OH240095   4.842   1.865   8.317  0.1159  0.4537 -0.1599
 6179TIP3    H140096   4.873   1.918   8.391  0.6513  0.3991 -0.3373
 6179TIP3    H240097   4.837   1.776   8.353 -1.5382  0.7293  0.3569
 6180TIP3   OH240098   5.634   6.795   8.090  0.2597 -0.6169 -0.0794
 6180TIP3    H140099   5.614   6.777   7.998 -0.9759  0.1641  0.0021
 6180TIP3    H240100   5.728   6.779   8.099  0.4105 -0.6138 -1.4949
 6181TIP3   OH240101   5.192   5.189   8.372 -0.8944  0.2206  0.1408
 6181TIP3    H140102   5.258   5.122   8.353  0.9877  1.8276  0.6894
 6181TIP3    H240103   5.162   5.168   8.461 -0.3441  0.0574  0.2966
 6182TIP3   OH240104   0.593   2.682   1.131 -0.0848 -0.1836  0.0681
 6182TIP3    H140105   0.630   2.652   1.214 -0.2557 -1.3558 -0.2595
 6182TIP3    H240106   0.663   2.673   1.067 -0.6525 -1.6198 -0.3872
 6183TIP3   OH240107   0.478   1.345   1.316 -0.1324 -0.0129  0.6619
 6183TIP3    H140108   0.552   1.399   1.290 -0.0610 -1.2380 -2.0181
 6183TIP3    H240109   0.515   1.258   1.330 -0.8787 -0.3954  0.3484
 6184TIP3   OH240110   4.116   4.142   7.011 -0.4987 -0.1865 -0.5878
 6184TIP3    H140111   4.165   4.067   7.044 -0.4784  0.1643  0.2092
 6184TIP3    H240112   4.163   4.218   7.046 -0.2278  0.2181 -1.7900
 6185TIP3   OH240113   4.653   2.140   1.405 -0.0253 -0.5032  0.1176
 6185TIP3    H140114   4.742   2.174   1.403  0.4624 -1.5614  1.7388
 6185TIP3    H240115   4.663   2.048   1.428 -1.5664 -0.5070  0.8987
 6186TIP3   OH240116   4.581   6.171   7.658  0.5397 -0.5220  0.0151
 6186TIP3    H140117   4.525   6.169   7.736  2.3068  0.3091  1.4072
 6186TIP3    H240118   4.523   6.197   7.587 -0.8877  0.0473  1.3264
 6187TIP3   OH240119   4.374   2.984   0.334 -0.3876  0.2683  0.9679
 6187TIP3    H140120   4.323   2.931   0.395  1.0099 -0.7244  1.2919
 6187TIP3    H240121   4.320   2.987   0.254 -1.1801 -0.3204  1.4689
 6188TIP3   OH240122   4.907   3.065   7.381  0.0471 -0.1807  0.6087
 6188TIP3    H140123   4.910   3.155   7.349 -1.7924 -0.4123 -0.3490
 6188TIP3    H240124   4.815   3.040   7.373  0.8408 -2.9014 -1.3080
 6189TIP3   OH240125   1.588   0.893   1.351  0.3210 -0.1534 -0.4570
 6189TIP3    H140126   1.530   0.836   1.402 -0.7398  2.0036  0.9076
 6189TIP3    H240127   1.640   0.939   1.417 -0.4214  2.0335 -1.2948
 6190TIP3   OH240128   2.517   6.520   8.459 -0.5008  0.3234  0.8034
 6190TIP3    H140129   2.552   6.601   8.496 -0.7826  0.1750  1.4140
 6190TIP3    H240130   2.482   6.473   8.535  0.5116 -0.8081  0.5855
 6191TIP3   OH240131   2.044   4.448   8.544  0.0085  0.4287  0.3719
 6191TIP3    H140132   2.101   4.416   8.614  0.2835 -1.5876 -0.6847
 6191TIP3    H240133   2.089   4.523   8.507  0.7337  0.4019  1.1808
 6192TIP3   OH240134   4.980   2.964   0.376 -0.1520 -0.2284 -0.1934
 6192TIP3    H140135   4.992   2.870   0.364 -0.8506 -0.2564 -0.6857
 6192TIP3    H240136   4.984   2.976   0.471  0.1769 -0.7132 -0.1375
 6193TIP3   OH240137   0.118   6.047   6.954 -0.6586  0.2917 -0.2715
 6193TIP3    H140138   0.028   6.056   6.987 -0.9347  2.1834 -1.3589
 6193TIP3    H240139   0.122   6.109   6.881  1.4428 -0.0111 -0.4561
 6194TIP3   OH240140   4.342   4.673   7.323 -0.0722  0.2859  0.3960
 6194TIP3    H140141   4.281   4.602   7.306  2.7695 -2.0574 -1.0053
 6194TIP3    H240142   4.365   4.706   7.236  1.1667  0.6168  0.8309
 6195TIP3   OH240143   2.789   1.390   8.304  0.4755  0.0758 -0.2354
 6195TIP3    H140144   2.790   1.300   8.335  0.5801 -0.3672 -1.4758
 6195TIP3    H240145   2.697   1.409   8.286  0.4106  0.3434  0.3571
 6196TIP3   OH240146   4.429   1.253   8.325  0.2825  0.2980  0.0895
 6196TIP3    H140147   4.392   1.186   8.382  0.6341 -1.3380 -1.5072
 6196TIP3    H240148   4.476   1.204   8.258  0.0173  2.1203 -1.5244
 6197TIP3   OH240149   4.063   1.384   1.325  0.3360  0.3032  0.1747
 6197TIP3    H140150   4.007   1.351   1.396 -0.3399  0.3114 -0.3494
 6197TIP3    H240151   4.057   1.479   1.333 -1.1088  0.3414 -0.9215
 6198TIP3   OH240152   4.943   4.616   0.479  0.2786  0.0105  0.3007
 6198TIP3    H140153   4.860   4.659   0.463  1.3948  2.2307  0.1433
 6198TIP3    H240154   4.921   4.539   0.532 -1.8580  0.4318  0.0831
 6199TIP3   OH240155   2.109   2.622   1.433 -0.2588  0.2896 -0.0213
 6199TIP3    H140156   2.093   2.623   1.338 -0.7541  0.4947  0.0633
 6199TIP3    H240157   2.113   2.529   1.456 -0.5052  0.2364 -0.1849
 6200TIP3   OH240158   5.633   0.936   8.518 -0.1422  0.3387 -0.8612
 6200TIP3    H140159   5.551   0.971   8.554 -0.0197 -0.1234 -0.0983
 6200TIP3    H240160   5.644   0.852   8.563 -0.0593 -0.3500 -2.1265
 6201TIP3   OH240161   4.444   2.868   6.102 -0.2685 -0.8089  0.3890
 6201TIP3    H140162   4.427   2.945   6.156 -0.8962 -1.5376  1.2808
 6201TIP3    H240163   4.539   2.864   6.095  0.0558 -2.0369  3.5896
 6202TIP3   OH240164   5.515   4.320   7.561  0.0391 -0.0589  0.0755
 6202TIP3    H140165   5.595   4.372   7.552  1.1862 -1.4522  1.5692
 6202TIP3    H240166   5.460   4.371   7.621  0.9669 -0.3097  1.1826
 6203TIP3   OH240167   2.233   1.048   1.867 -0.6287 -0.1937  0.1299
 6203TIP3    H140168   2.316   1.096   1.875  0.3081 -1.8002  0.4081
 6203TIP3    H240169   2.201   1.040   1.956 -2.2038  2.2096 -0.1303
 6204TIP3   OH240170   3.341   2.180   1.495 -0.1263  0.0614  0.3893
 6204TIP3    H140171   3.355   2.275   1.495  0.6972 -0.0460  0.8244
 6204TIP3    H240172   3.411   2.146   1.551 -0.2709 -0.8214  0.0497
 6205TIP3   OH240173   1.445   5.785   0.222  0.1789  0.4640  0.3250
 6205TIP3    H140174   1.530   5.743   0.210 -1.0793 -1.8241 -1.3106
 6205TIP3    H240175   1.447   5.817   0.312  2.5520 -0.0130  0.5039
 6206TIP3   OH240176   6.838   6.772   6.819  0.2040  0.0704 -0.0540
 6206TIP3    H140177   6.751   6.810   6.808 -0.5601 -0.8740  2.2445
 6206TIP3    H240178   6.898   6.839   6.784 -1.3582  1.1669 -0.7531
 6207TIP3   OH240179   2.823   5.539   0.542  0.0613  0.1624 -0.5330
 6207TIP3    H140180   2.915   5.540   0.569 -0.1064 -2.8204  0.5000
 6207TIP3    H240181   2.774   5.529   0.623 -1.1339  0.8741 -1.1403
 6208TIP3   OH240182   5.929   5.064   0.337 -0.4219  0.6117 -0.2395
 6208TIP3    H140183   5.963   5.101   0.418  0.7979 -0.2673 -0.3264
 6208TIP3    H240184   5.932   5.136   0.275  2.9611  0.2391 -0.7091
 6209TIP3   OH240185   5.929   0.587   1.903  0.1032 -0.1506  0.3027
 6209TIP3    H140186   5.980   0.639   1.965  0.0004  0.1469  0.1341
 6209TIP3    H240187   5.869   0.537   1.958  1.3293 -1.3707  0.6122
 6210TIP3   OH240188   5.096   3.214   2.191 -0.4775 -0.3109  0.0387
 6210TIP3    H140189   5.000   3.206   2.187 -0.5784  1.0235 -0.6733
 6210TIP3    H240190   5.113   3.246   2.279 -0.9154  1.8148 -0.6010
 6211TIP3   OH240191   3.153   1.151   0.589 -0.0401 -0.1546  0.7359
 6211TIP3    H140192   3.227   1.201   0.625 -0.2481 -0.4835  1.6647
 6211TIP3    H240193   3.096   1.217   0.550 -0.5970  0.4485  2.4530
 6212TIP3   OH240194   2.075   5.286   6.983 -0.2522 -0.6920  0.0171
 6212TIP3    H140195   2.112   5.290   6.894  0.3248 -0.9149  0.2424
 6212TIP3    H240196   2.006   5.352   6.983  0.2875 -0.1079 -0.3548
 6213TIP3   OH240197   2.571   6.305   7.190 -0.0396 -0.0741  0.8094
 6213TIP3    H140198   2.579   6.210   7.185 -0.0674 -0.0243 -0.4192
 6213TIP3    H240199   2.616   6.329   7.271  1.4068 -0.9675  0.2925
 6214TIP3   OH240200   3.268   1.611   1.393  0.4432  0.4637  0.7513
 6214TIP3    H140201   3.257   1.516   1.401  0.0534  0.3716 -0.5881
 6214TIP3    H240202   3.178   1.644   1.380  0.7275  0.7978 -0.5588
 6215TIP3   OH240203   6.643   2.250   0.358  0.7484  0.3506  0.5900
 6215TIP3    H140204   6.580   2.305   0.405 -0.6060 -0.0747 -0.6385
 6215TIP3    H240205   6.600   2.164   0.353  0.9942  0.2931 -1.0503
 6216TIP3   OH240206   4.717   5.797   0.669  0.6651 -0.2290 -0.2983
 6216TIP3    H140207   4.638   5.791   0.615  2.4730  2.8049 -3.7152
 6216TIP3    H240208   4.701   5.870   0.728  0.7277  0.1135 -0.7004
 6217TIP3   OH240209   1.681   2.626   2.481  0.3351  0.3073  0.1938
 6217TIP3    H140210   1.665   2.700   2.423 -0.2308  0.1948  0.2003
 6217TIP3    H240211   1.648   2.654   2.566 -0.8144 -0.3166 -0.0337
 6218TIP3   OH240212   3.189   4.429   0.052 -0.0204  0.2002 -0.2308
 6218TIP3    H140213   3.184   4.387   0.138  0.5494 -0.6457 -0.5931
 6218TIP3    H240214   3.179   4.522   0.070 -1.8544 -0.1049  0.5444
 6219TIP3   OH240215   6.215   5.700   0.337  0.3669 -0.2978 -0.0168
 6219TIP3    H140216   6.290   5.759   0.345 -0.2928  0.3930  1.6798
 6219TIP3    H240217   6.140   5.758   0.325 -0.5519 -0.5115  3.4490
 6220TIP3   OH240218   3.508   6.504   8.066 -0.1241  0.2972  0.5090
 6220TIP3    H140219   3.579   6.453   8.028 -0.0707 -0.2436  1.2956
 6220TIP3    H240220   3.497   6.578   8.007  2.7038  1.7190  1.5557
 6221TIP3   OH240221   2.136   2.816   7.532 -0.1199 -0.4802 -0.2785
 6221TIP3    H140222   2.068   2.752   7.555 -1.2132  1.0543  0.9124
 6221TIP3    H240223   2.182   2.832   7.614  0.4859 -0.1353 -0.6859
 6222TIP3   OH240224   3.187   3.374   7.823  0.2815  0.2062  0.5364
 6222TIP3    H140225   3.143   3.325   7.892 -2.1842  1.6736  0.1272
 6222TIP3    H240226   3.214   3.308   7.760 -1.5856 -0.7819  0.7151
 6223TIP3   OH240227   6.556   4.601   2.061  0.4118 -0.1336  0.0795
 6223TIP3    H140228   6.612   4.526   2.039  0.7059  0.0880  0.0716
 6223TIP3    H240229   6.583   4.625   2.150 -1.1516 -1.3777  0.9449
 6224TIP3   OH240230   0.320   2.788   1.163  1.0112  0.0342 -0.2660
 6224TIP3    H140231   0.293   2.859   1.104  1.2150 -0.9810 -1.6347
 6224TIP3    H240232   0.413   2.776   1.144  0.8676 -0.9094 -0.4066
 6225TIP3   OH240233   1.963   4.695   1.186  0.5796 -0.5850 -0.3353
 6225TIP3    H140234   1.941   4.625   1.125 -0.0705  0.1119 -0.9205
 6225TIP3    H240235   1.887   4.701   1.244  0.3542  0.0678 -0.6967
 6226TIP3   OH240236   2.893   4.810   1.474 -0.2078  0.3477 -0.1263
 6226TIP3    H140237   2.909   4.902   1.495  0.5259  0.5492 -1.4314
 6226TIP3    H240238   2.853   4.813   1.387 -1.8563 -0.4939  0.5570
 6227TIP3   OH240239   4.484   1.113   0.532 -0.3960 -0.6101  0.3946
 6227TIP3    H140240   4.441   1.178   0.476 -1.1544 -1.1047  0.3837
 6227TIP3    H240241   4.535   1.059   0.472  1.2051  0.6798  0.5307
 6228TIP3   OH240242   0.657   5.415   6.633  0.3035  0.2127  0.0600
 6228TIP3    H140243   0.707   5.339   6.604 -1.0351  0.2321 -2.6064
 6228TIP3    H240244   0.696   5.489   6.588  1.5219  1.1977  2.5487
 6229TIP3   OH240245   2.379   2.970   1.817 -0.0614  0.2929  0.0874
 6229TIP3    H140246   2.461   2.950   1.861  1.2464  2.3603 -1.2838
 6229TIP3    H240247   2.369   2.901   1.751 -0.1931 -0.7585  1.1726
 6230TIP3   OH240248   4.501   3.637   0.779  0.0854  0.1933 -0.7656
 6230TIP3    H140249   4.511   3.732   0.790 -1.0399  0.2088  0.2574
 6230TIP3    H240250   4.461   3.607   0.860 -0.7573 -0.9797 -1.5846
 6231TIP3   OH240251   1.177   6.267   7.803 -0.0050 -0.6228  0.3445
 6231TIP3    H140252   1.164   6.179   7.767 -1.2852  0.2509 -1.5261
 6231TIP3    H240253   1.257   6.298   7.761 -0.9780  0.0331 -1.1326
 6232TIP3   OH240254   1.136   1.929   1.792 -0.1959  0.4049 -0.0731
 6232TIP3    H140255   1.173   1.902   1.876 -1.3795  1.5394  0.8690
 6232TIP3    H240256   1.196   1.894   1.726  1.4131  0.4898  1.2843
 6233TIP3   OH240257   3.616   0.539   8.611  0.0093  0.2115  0.0539
 6233TIP3    H140258   3.669   0.552   8.532 -1.1596  4.2803 -0.2930
 6233TIP3    H240259   3.650   0.603   8.674 -0.7832 -1.1304  1.9368
 6234TIP3   OH240260   3.306   4.952   1.855  0.0575  0.3344  0.4451
 6234TIP3    H140261   3.358   4.942   1.934  0.9739 -0.4011 -0.2301
 6234TIP3    H240262   3.262   4.868   1.843 -1.3868  0.9623  1.0412
 6235TIP3   OH240263   0.170   4.283   0.802  0.2922  0.3652  0.2063
 6235TIP3    H140264   0.176   4.217   0.733 -0.9081  2.1260 -1.6863
 6235TIP3    H240265   0.077   4.306   0.806  0.9474  3.9748 -1.2963
 6236TIP3   OH240266   5.064   5.594   1.772  0.5168 -0.2911  0.1678
 6236TIP3    H140267   5.129   5.634   1.829  1.2165 -0.6282 -0.3831
 6236TIP3    H240268   5.069   5.644   1.691  0.4868 -0.6764 -0.0724
 6237TIP3   OH240269   2.267   0.443   8.082 -0.6963  0.2693  0.1133
 6237TIP3    H140270   2.257   0.538   8.082 -0.7960  0.2611 -0.2396
 6237TIP3    H240271   2.248   0.417   7.992  0.8134  0.0769 -0.1795
 6238TIP3   OH240272   0.204   1.657   7.605 -0.2438 -0.0015 -0.1066
 6238TIP3    H140273   0.139   1.718   7.639 -0.8073 -0.0335 -1.0803
 6238TIP3    H240274   0.170   1.570   7.628  0.2339  0.0191  0.7143
 6239TIP3   OH240275   3.461   1.656   0.974  0.1401  0.2006 -0.0436
 6239TIP3    H140276   3.545   1.615   0.953  0.1935 -0.3760  1.1878
 6239TIP3    H240277   3.468   1.745   0.941  0.6293 -0.2972 -1.3610
 6240TIP3   OH240278   4.217   4.055   7.267 -0.2657  0.2879  0.4332
 6240TIP3    H140279   4.243   3.985   7.207 -0.6677  0.4279  0.0919
 6240TIP3    H240280   4.288   4.119   7.262  0.1460 -0.1276  0.8092
 6241TIP3   OH240281   3.588   3.769   7.293 -0.3459 -0.0402 -0.1003
 6241TIP3    H140282   3.511   3.788   7.346 -1.3685 -0.2636 -1.4415
 6241TIP3    H240283   3.555   3.765   7.203  1.1770 -0.4664 -0.6792
 6242TIP3   OH240284   5.185   3.168   0.297 -0.3067  0.1781  0.7449
 6242TIP3    H140285   5.115   3.104   0.304  0.6904 -0.8464  1.7552
 6242TIP3    H240286   5.265   3.116   0.288  0.5218  1.2730  1.4770
 6243TIP3   OH240287   4.348   1.030   7.142  0.0958  0.4664 -0.2272
 6243TIP3    H140288   4.400   0.949   7.134  2.0944  1.5402  1.1420
 6243TIP3    H240289   4.304   1.022   7.226  0.7568  1.0294  0.1814
 6244TIP3   OH240290   4.908   3.503   0.217  0.1515 -0.0617  0.2703
 6244TIP3    H140291   4.976   3.453   0.262  0.2902 -0.5423 -0.4561
 6244TIP3    H240292   4.928   3.492   0.124  0.8239  2.2503  0.0855
 6245TIP3   OH240293   6.116   0.639   8.242  0.0946 -0.0708 -0.7302
 6245TIP3    H140294   6.046   0.574   8.249 -1.3824  1.6293  1.8098
 6245TIP3    H240295   6.161   0.635   8.327  0.2421  1.8715 -0.6697
 6246TIP3   OH240296   5.865   3.278   7.678 -0.0338 -0.1550  0.5887
 6246TIP3    H140297   5.926   3.262   7.606 -0.0482  2.5618 -0.1356
 6246TIP3    H240298   5.779   3.286   7.636 -0.3087 -0.1749  1.1312
 6247TIP3   OH240299   1.289   2.297   1.720  0.0118  0.2042  0.0851
 6247TIP3    H140300   1.252   2.289   1.632  3.0428 -0.8046 -1.2261
 6247TIP3    H240301   1.247   2.227   1.769  0.6176 -1.3840 -1.5401
 6248TIP3   OH240302   5.964   5.555   0.964  0.3064 -0.5018 -0.6695
 6248TIP3    H140303   5.917   5.630   1.000 -1.2036 -2.5532  1.9401
 6248TIP3    H240304   6.050   5.558   1.006 -0.1574 -0.8644  0.3108
 6249TIP3   OH240305   3.631   6.443   0.613 -0.4551 -0.2066  0.0205
 6249TIP3    H140306   3.584   6.484   0.540 -0.6181 -0.5847 -0.0882
 6249TIP3    H240307   3.705   6.501   0.629 -0.0577 -0.4481 -0.8668
 6250TIP3   OH240308   2.428   0.617   7.216 -0.3983  0.4790 -0.4561
 6250TIP3    H140309   2.402   0.584   7.130  0.2476  0.0888 -0.5103
 6250TIP3    H240310   2.503   0.674   7.198  1.1126 -1.2755  0.0379
 6251TIP3   OH240311   1.681   0.464   0.388 -0.3877  0.4254 -0.5697
 6251TIP3    H140312   1.656   0.445   0.479 -1.6261  0.0303 -0.9734
 6251TIP3    H240313   1.699   0.378   0.350 -2.4354  0.3011 -1.3925
 6252TIP3   OH240314   5.859   0.317   7.640  0.0421  0.4073 -0.0930
 6252TIP3    H140315   5.781   0.286   7.593  0.2735  0.1843 -0.3341
 6252TIP3    H240316   5.921   0.244   7.634  0.7079  1.0101 -0.9255
 6253TIP3   OH240317   1.158   4.848   8.365 -0.8780 -0.2969 -0.1446
 6253TIP3    H140318   1.091   4.913   8.383 -0.4405  0.2179 -0.3678
 6253TIP3    H240319   1.171   4.803   8.449  0.5596  1.5284  0.6537
 6254TIP3   OH240320   4.230   6.686   2.299  0.3349  0.5929  0.6148
 6254TIP3    H140321   4.171   6.702   2.373 -1.0755  0.7560 -0.4920
 6254TIP3    H240322   4.267   6.599   2.316 -0.1400  0.5282  1.3902
 6255TIP3   OH240323   0.710   0.612   1.523 -0.4430 -0.2864  0.4220
 6255TIP3    H140324   0.788   0.561   1.502 -0.4812 -0.4194  0.5954
 6255TIP3    H240325   0.714   0.622   1.619  0.0204  0.7714  0.3075
 6256TIP3   OH240326   4.351   2.357   7.562  0.0015  0.1305  0.8379
 6256TIP3    H140327   4.292   2.428   7.535 -0.8820 -0.8647  0.0892
 6256TIP3    H240328   4.315   2.326   7.645  0.7206  0.9099  1.4603
 6257TIP3   OH240329   3.317   5.364   7.725 -0.5152  0.2159 -0.0079
 6257TIP3    H140330   3.257   5.427   7.684  0.2771  0.5004 -0.7555
 6257TIP3    H240331   3.402   5.407   7.722 -0.5117  0.5413  2.5591
 6258TIP3   OH240332   5.082   6.694   7.087  0.0715 -0.7717 -0.0166
 6258TIP3    H140333   5.153   6.748   7.052  0.3633 -0.9024  0.3606
 6258TIP3    H240334   5.059   6.635   7.015 -0.2911 -0.1146 -0.4525
 6259TIP3   OH240335   6.764   2.970   7.219 -0.1415 -0.0465  0.1843
 6259TIP3    H140336   6.738   2.943   7.131  1.9931 -2.5502  0.2054
 6259TIP3    H240337   6.706   2.921   7.277 -1.0601  1.0472  0.2238
 6260TIP3   OH240338   4.532   3.350   0.838 -0.0375 -0.2198 -0.0771
 6260TIP3    H140339   4.561   3.357   0.929  0.1897 -0.5907 -0.1208
 6260TIP3    H240340   4.546   3.438   0.802  2.9279 -0.8274 -0.6436
 6261TIP3   OH240341   3.241   6.259   6.963 -0.0343  0.0803 -0.3252
 6261TIP3    H140342   3.237   6.171   6.926 -0.8294 -0.3016  0.6244
 6261TIP3    H240343   3.309   6.254   7.030  0.3892  0.3826 -0.7214
 6262TIP3   OH240344   2.760   1.574   7.960  0.7315 -0.5523  0.5528
 6262TIP3    H140345   2.746   1.484   7.931 -0.1141  0.4908 -2.6729
 6262TIP3    H240346   2.841   1.571   8.011  0.0883 -3.2860  1.5358
 6263TIP3   OH240347   2.726   2.669   8.725 -0.3698 -0.1442 -0.0141
 6263TIP3    H140348   2.635   2.692   8.707 -0.3806  0.8763  1.1604
 6263TIP3    H240349   2.759   2.742   8.777  0.5823 -1.3216  1.1266
 6264TIP3   OH240350   5.025   3.863   0.416 -0.5618  0.3493 -0.2258
 6264TIP3    H140351   5.119   3.850   0.428 -0.2965 -0.2101 -2.4166
 6264TIP3    H240352   5.006   3.943   0.464  0.5513 -0.6820  2.1052
 6265TIP3   OH240353   6.486   0.217   7.019  0.0781 -0.4299  0.0818
 6265TIP3    H140354   6.467   0.149   6.955  2.1767  0.9785 -2.1764
 6265TIP3    H240355   6.484   0.299   6.969  2.4165  0.6819  1.6410
 6266TIP3   OH240356   5.450   3.783   1.369  0.0603 -0.0831 -0.3928
 6266TIP3    H140357   5.536   3.791   1.330 -0.6013  0.7921 -1.7466
 6266TIP3    H240358   5.442   3.690   1.392  1.4349 -0.1211  0.0085
 6267TIP3   OH240359   2.951   5.310   6.231  0.5872 -0.0583 -0.0485
 6267TIP3    H140360   2.915   5.336   6.147 -0.5049 -2.3472 -0.3467
 6267TIP3    H240361   2.986   5.391   6.268 -1.7498  1.6349 -1.2918
 6268TIP3   OH240362   3.770   4.973   0.908 -0.0357  0.5511  0.3328
 6268TIP3    H140363   3.837   4.905   0.901  1.0443  1.3962  1.8236
 6268TIP3    H240364   3.809   5.049   0.866 -0.6270  0.6839  0.0140
 6269TIP3   OH240365   1.200   5.406   8.060 -0.3026  0.4966  0.5159
 6269TIP3    H140366   1.150   5.413   7.979  0.6242 -0.5784 -0.1912
 6269TIP3    H240367   1.173   5.322   8.097  1.3531 -0.4042 -0.1988
 6270TIP3   OH240368   6.838   5.798   7.433 -0.1914 -0.2254  0.5247
 6270TIP3    H140369   6.760   5.818   7.485 -0.8111  0.5526 -0.6420
 6270TIP3    H240370   6.822   5.710   7.399 -2.6090  1.3072 -2.9957
 6271TIP3   OH240371   1.682   2.998   7.582 -0.5270  0.2704  0.2468
 6271TIP3    H140372   1.709   3.075   7.632 -0.5637 -0.7978  1.9825
 6271TIP3    H240373   1.654   2.934   7.648  1.3326 -1.9712 -0.9683
 6272TIP3   OH240374   5.673   4.687   1.832  0.2237 -0.3991  0.3512
 6272TIP3    H140375   5.760   4.721   1.816 -0.3592  1.4066  0.7715
 6272TIP3    H240376   5.657   4.626   1.760  1.3432  0.1952 -0.4311
 6273TIP3   OH240377   3.023   4.001   2.413 -0.0219  0.3008  0.0212
 6273TIP3    H140378   3.058   4.013   2.501 -0.9854  2.8234  0.1391
 6273TIP3    H240379   2.937   4.043   2.416 -0.5772 -0.5971 -1.8315
 6274TIP3   OH240380   0.734   6.670   0.121  0.0877 -0.2007 -0.3637
 6274TIP3    H140381   0.736   6.617   0.200 -1.5015  0.3386  0.0626
 6274TIP3    H240382   0.748   6.607   0.050  0.4678 -0.8441  0.2677
 6275TIP3   OH240383   0.985   3.233   2.326 -0.3616 -0.0606 -0.5514
 6275TIP3    H140384   0.918   3.282   2.278 -1.5315  0.8544  1.8674
 6275TIP3    H240385   0.950   3.144   2.332 -1.0529  0.2514  0.1191
 6276TIP3   OH240386   2.806   0.923   2.351  0.2563 -0.5864  0.2097
 6276TIP3    H140387   2.868   0.856   2.379  0.1993 -0.1338  1.5209
 6276TIP3    H240388   2.731   0.875   2.316  0.3794 -1.2026  0.7842
 6277TIP3   OH240389   5.837   0.796   0.258 -0.2434 -0.0805  0.1908
 6277TIP3    H140390   5.841   0.889   0.282 -0.7579  0.4787 -1.6714
 6277TIP3    H240391   5.761   0.790   0.200  0.0041 -1.6011 -0.0217
 6278TIP3   OH240392   0.721   4.296   8.066 -0.1948 -0.0487  0.0582
 6278TIP3    H140393   0.730   4.264   7.976 -1.0060  1.5244 -0.6131
 6278TIP3    H240394   0.796   4.257   8.112  1.2711  0.5061 -1.7111
 6279TIP3   OH240395   2.823   4.434   1.308  0.2713 -0.5094  0.5127
 6279TIP3    H140396   2.918   4.423   1.298  0.2746 -0.0822 -0.0021
 6279TIP3    H240397   2.803   4.512   1.255  0.0686  1.1189  2.8258
 6280TIP3   OH240398   0.454   2.590   2.136  0.6183  0.1129  0.2806
 6280TIP3    H140399   0.419   2.591   2.225  1.7211 -0.2104  0.7405
 6280TIP3    H240400   0.513   2.514   2.134 -0.8099 -1.0278 -1.3169
 6281TIP3   OH240401   4.692   5.324   0.707 -0.3304  0.1968  0.5691
 6281TIP3    H140402   4.677   5.316   0.613  0.9742  0.2246  0.3311
 6281TIP3    H240403   4.782   5.355   0.714 -0.6124  0.7940  1.8202
 6282TIP3   OH240404   4.699   2.932   0.781 -0.3693  0.2867 -0.0015
 6282TIP3    H140405   4.652   2.954   0.701  1.4853 -0.3822 -1.3410
 6282TIP3    H240406   4.774   2.991   0.782  1.7640 -2.2529 -0.8708
 6283TIP3   OH240407   4.589   5.668   7.339 -0.2974 -0.1168 -0.0419
 6283TIP3    H140408   4.508   5.718   7.332 -0.3742 -0.1966  0.2915
 6283TIP3    H240409   4.627   5.695   7.422 -0.6317 -1.0454  0.4196
 6284TIP3   OH240410   2.142   6.226   6.640 -0.2415  0.4572  0.3413
 6284TIP3    H140411   2.189   6.215   6.557  0.4999 -0.3455  0.8426
 6284TIP3    H240412   2.056   6.187   6.625 -0.1502  0.4237 -0.0902
 6285TIP3   OH240413   4.912   5.959   0.229 -0.1779 -0.7960  0.7116
 6285TIP3    H140414   4.919   6.039   0.281  2.4624 -1.1940  1.1252
 6285TIP3    H240415   4.919   5.989   0.138 -0.2539 -0.4877  0.8038
 6286TIP3   OH240416   5.521   2.327   6.845  0.1775 -0.0726 -0.3626
 6286TIP3    H140417   5.559   2.383   6.912 -1.5892  0.1064  0.5540
 6286TIP3    H240418   5.428   2.348   6.846 -0.4509 -2.4952 -0.4635
 6287TIP3   OH240419   5.558   3.339   0.634 -0.3310  0.8811 -0.1244
 6287TIP3    H140420   5.508   3.258   0.626  0.3866  0.4799 -0.7743
 6287TIP3    H240421   5.493   3.408   0.648 -1.0196  0.3148 -0.5114
 6288TIP3   OH240422   3.889   1.822   7.340 -0.1978 -0.2172  0.0570
 6288TIP3    H140423   3.978   1.786   7.341 -0.4185 -0.7822 -0.0752
 6288TIP3    H240424   3.883   1.870   7.257 -0.2508 -0.7993 -0.2808
 6289TIP3   OH240425   1.759   2.003   6.903 -0.4794 -0.1679 -0.5745
 6289TIP3    H140426   1.840   1.973   6.945  0.1880  1.8791 -0.3047
 6289TIP3    H240427   1.722   2.067   6.963 -1.7355 -0.2514 -1.2174
 6290TIP3   OH240428   3.663   3.899   6.764 -0.0216  0.5869  0.1049
 6290TIP3    H140429   3.616   3.900   6.681 -1.0917 -1.2087  0.6449
 6290TIP3    H240430   3.746   3.943   6.745 -0.6192  1.0411 -1.6537
 6291TIP3   OH240431   5.321   4.626   1.384  0.1971 -0.6925  0.1508
 6291TIP3    H140432   5.393   4.566   1.362  2.0721  1.6982 -0.7745
 6291TIP3    H240433   5.318   4.625   1.479  2.7348  0.3843  0.3383
 6292TIP3   OH240434   4.199   6.602   7.155  0.1239  0.3216 -0.4428
 6292TIP3    H140435   4.281   6.553   7.143 -0.3060 -0.8618  1.0866
 6292TIP3    H240436   4.219   6.691   7.125  1.5887 -0.2587 -1.2563
 6293TIP3   OH240437   6.082   4.328   2.006 -0.3370 -0.3854  0.0117
 6293TIP3    H140438   6.161   4.382   2.016  0.0345 -0.9609  0.2826
 6293TIP3    H240439   6.106   4.244   2.045 -0.2224 -1.4256 -2.1532
 6294TIP3   OH240440   2.535   0.941   0.254  0.1131 -0.4247  0.7242
 6294TIP3    H140441   2.521   1.035   0.252  4.2047  0.3598 -0.4179
 6294TIP3    H240442   2.527   0.914   0.162  1.6764 -0.6003  0.6143
 6295TIP3   OH240443   5.628   2.993   7.532  0.4959  0.0625  0.6584
 6295TIP3    H140444   5.570   3.036   7.595 -2.4912 -0.7825 -1.2892
 6295TIP3    H240445   5.694   2.949   7.586 -2.4699 -1.4800  3.3772
 6296TIP3   OH240446   2.920   6.605   1.240 -0.0530  0.5121 -0.2490
 6296TIP3    H140447   2.893   6.523   1.282  2.6602 -0.0951  0.5093
 6296TIP3    H240448   2.874   6.605   1.156  0.6457 -2.3556 -0.7363
 6297TIP3   OH240449   4.571   2.080   0.100 -0.3606  0.0477  0.0470
 6297TIP3    H140450   4.483   2.116   0.095 -0.8187 -0.9915  0.4373
 6297TIP3    H240451   4.607   2.094   0.012 -0.8215  0.6844 -0.0477
 6298TIP3   OH240452   0.761   5.638   6.507  0.3671 -0.7233 -0.0450
 6298TIP3    H140453   0.736   5.702   6.440 -2.0484 -0.0733  1.3404
 6298TIP3    H240454   0.806   5.689   6.574 -0.0112 -0.7653  0.2494
 6299TIP3   OH240455   6.788   6.712   1.047  0.6187  0.1537  0.3045
 6299TIP3    H140456   6.737   6.772   1.101 -1.9302  0.9527 -2.6371
 6299TIP3    H240457   6.769   6.740   0.957  0.7238 -3.8847 -1.1786
 6300TIP3   OH240458   5.600   0.278   8.599  0.1118  0.1832  0.0582
 6300TIP3    H140459   5.504   0.281   8.606  0.0960 -0.3647  0.1345
 6300TIP3    H240460   5.628   0.368   8.615 -0.4893  0.6837 -1.5057
 6301TIP3   OH240461   6.631   1.058   7.718 -0.3589  0.4533 -0.0672
 6301TIP3    H140462   6.719   1.094   7.713  0.3047 -1.1300 -0.3736
 6301TIP3    H240463   6.643   0.963   7.711 -2.0503  0.1709  0.3592
 6302TIP3   OH240464   3.853   6.098   7.096 -0.4904 -0.1669 -0.1632
 6302TIP3    H140465   3.888   6.139   7.175 -1.1393  1.0712 -0.4935
 6302TIP3    H240466   3.858   6.004   7.113 -0.8880  0.0887  1.4529
 6303TIP3   OH240467   4.096   5.117   0.979  0.4176  0.1488  0.7693
 6303TIP3    H140468   4.040   5.140   0.906  1.2737  2.1030  0.6574
 6303TIP3    H240469   4.157   5.191   0.987  2.6828 -1.6524  1.1567
 6304TIP3   OH240470   0.421   3.425   7.419 -0.0295 -0.0591 -0.0406
 6304TIP3    H140471   0.501   3.429   7.367  0.5412 -1.0460  0.7464
 6304TIP3    H240472   0.351   3.415   7.354  0.3542  1.6574 -0.7944
 6305TIP3   OH240473   2.735   4.113   1.210 -0.4613 -0.0551  0.1933
 6305TIP3    H140474   2.711   4.098   1.118 -0.2948  0.0039  0.1405
 6305TIP3    H240475   2.831   4.119   1.209 -0.5274  1.1710  0.1986
 6306TIP3   OH240476   6.375   4.535   1.355  0.1033  0.1233 -0.0173
 6306TIP3    H140477   6.317   4.606   1.328 -0.4153 -0.1428  0.3754
 6306TIP3    H240478   6.458   4.553   1.311  0.1477  1.2683  0.5059
 6307TIP3   OH240479   0.670   3.380   1.589 -0.3102 -0.8759 -0.7380
 6307TIP3    H140480   0.751   3.337   1.616  0.6861  1.5238  0.4374
 6307TIP3    H240481   0.675   3.384   1.494  1.6617  0.3855 -0.6431
 6308TIP3   OH240482   1.672   2.674   7.127  0.0814  0.4166  0.0563
 6308TIP3    H140483   1.749   2.651   7.180 -0.2388 -0.1110  0.3058
 6308TIP3    H240484   1.601   2.683   7.190 -0.2723 -0.0681 -0.2582
 6309TIP3   OH240485   2.061   6.008   7.521 -0.1959  0.4217 -0.2776
 6309TIP3    H140486   2.087   6.019   7.430 -0.0177 -2.4814 -0.6750
 6309TIP3    H240487   1.966   6.022   7.521 -0.0349  1.5601 -0.6678
 6310TIP3   OH240488   5.226   3.031   1.122 -0.1488 -0.5950 -0.2113
 6310TIP3    H140489   5.297   2.986   1.168 -0.2992 -0.9035 -0.2784
 6310TIP3    H240490   5.268   3.105   1.079  0.2659 -1.1994 -0.8643
 6311TIP3   OH240491   6.784   0.868   7.296  0.5264  0.1525  0.3151
 6311TIP3    H140492   6.732   0.895   7.372  2.1957 -0.0416  1.5934
 6311TIP3    H240493   6.860   0.926   7.297 -0.0047  1.0033 -2.0097
 6312TIP3   OH240494   5.420   2.949   7.798  0.6792 -0.2714  0.1254
 6312TIP3    H140495   5.372   2.920   7.721 -0.3239  1.7560 -0.0824
 6312TIP3    H240496   5.500   2.897   7.798  0.5766 -0.5124 -2.1237
 6313TIP3   OH240497   4.492   3.916   8.675  0.2266 -0.1523  0.0291
 6313TIP3    H140498   4.417   3.873   8.717 -0.3245  2.3631  1.8183
 6313TIP3    H240499   4.456   3.996   8.637  1.6066 -0.0783 -1.2204
 6314TIP3   OH240500   2.097   1.832   8.625 -0.0725 -0.0690 -0.1274
 6314TIP3    H140501   2.175   1.850   8.572  0.0630  2.1885  0.7384
 6314TIP3    H240502   2.113   1.746   8.663  1.4383 -0.1744 -0.9237
 6315TIP3   OH240503   1.866   4.006   6.514 -0.5573 -0.1368  0.1517
 6315TIP3    H140504   1.956   3.993   6.544 -1.2478 -0.6195  2.2302
 6315TIP3    H240505   1.853   3.940   6.447  0.7432  0.2030 -0.4658
 6316TIP3   OH240506   3.861   0.895   6.902 -1.0379 -0.3128 -0.3418
 6316TIP3    H140507   3.927   0.839   6.861 -0.1328 -1.2185  2.1782
 6316TIP3    H240508   3.902   0.982   6.903  0.3683 -0.9277  1.5198
 6317TIP3   OH240509   4.090   5.825   1.367  0.1024 -0.4970 -0.2075
 6317TIP3    H140510   4.007   5.780   1.382 -0.0274 -1.0116 -2.1784
 6317TIP3    H240511   4.142   5.806   1.445 -0.2924 -3.2731 -0.5166
 6318TIP3   OH240512   4.097   4.128   1.266  0.2029 -0.0403  0.5531
 6318TIP3    H140513   4.111   4.168   1.352 -0.6338  0.8148  0.3035
 6318TIP3    H240514   4.072   4.200   1.209  0.2345 -0.6784 -0.2949
 6319TIP3   OH240515   0.458   4.526   8.659  0.0086  0.2478 -0.1404
 6319TIP3    H140516   0.423   4.498   8.575 -0.3860  1.9216 -0.5790
 6319TIP3    H240517   0.439   4.453   8.718 -2.2317  0.1284 -0.8814
 6320TIP3   OH240518   2.453   6.214   8.616  0.7992  0.3967  0.2453
 6320TIP3    H140519   2.398   6.187   8.689  1.1524  2.8268  1.5081
 6320TIP3    H240520   2.542   6.193   8.643  0.7619 -1.5433 -0.8917
 6321TIP3   OH240521   4.410   3.312   0.448 -0.0623 -0.0124  0.1419
 6321TIP3    H140522   4.379   3.221   0.439  0.6256 -0.1346 -1.2613
 6321TIP3    H240523   4.370   3.343   0.529 -0.8809 -1.3430  0.2765
 6322TIP3   OH240524   0.635   2.729   7.651  0.5075 -0.5766  0.4834
 6322TIP3    H140525   0.607   2.651   7.604  0.4540 -0.6786  0.6828
 6322TIP3    H240526   0.618   2.709   7.744 -1.0412  0.2804  0.4283
 6323TIP3   OH240527   0.685   1.334   0.693 -0.2777  0.2490 -0.3643
 6323TIP3    H140528   0.705   1.370   0.607 -0.8230  1.0764 -0.1546
 6323TIP3    H240529   0.706   1.241   0.686  1.3257  0.6119 -0.8783
 6324TIP3   OH240530   4.770   5.668   8.177 -0.1415 -0.1564  0.7651
 6324TIP3    H140531   4.779   5.760   8.201 -1.5841 -0.1257  1.2598
 6324TIP3    H240532   4.789   5.621   8.258  0.9362 -0.3346  0.4305
 6325TIP3   OH240533   2.850   2.801   0.665  0.2216  0.4142  0.1870
 6325TIP3    H140534   2.941   2.801   0.636  0.3914 -0.4889  0.7162
 6325TIP3    H240535   2.834   2.891   0.692  0.7907  0.7034 -0.4028
 6326TIP3   OH240536   4.152   1.260   0.877  0.2729  0.3822  0.2237
 6326TIP3    H140537   4.088   1.319   0.916 -1.3962 -1.9577  1.2857
 6326TIP3    H240538   4.236   1.303   0.892 -0.7212  1.7754  2.2760
 6327TIP3   OH240539   2.524   1.177   1.929  0.3769 -0.9646 -0.6111
 6327TIP3    H140540   2.514   1.229   1.849 -0.7316  2.2136  1.4075
 6327TIP3    H240541   2.607   1.206   1.966 -0.5560 -0.0215  0.8694
 6328TIP3   OH240542   4.417   3.164   8.241 -0.0286 -0.7775 -0.3959
 6328TIP3    H140543   4.393   3.107   8.168  0.4611 -1.4241 -0.0670
 6328TIP3    H240544   4.391   3.115   8.319 -0.4138 -0.1570 -0.1237
 6329TIP3   OH240545   4.946   3.821   1.014 -0.1249  0.0128 -0.6161
 6329TIP3    H140546   4.984   3.762   1.079 -0.4380  1.1772  0.6900
 6329TIP3    H240547   4.853   3.825   1.038  0.1602  2.3050  0.4614
 6330TIP3   OH240548   0.391   6.335   6.602  0.0889 -0.0491  0.3117
 6330TIP3    H140549   0.337   6.281   6.543  0.7169  1.2078 -1.5155
 6330TIP3    H240550   0.339   6.414   6.616  1.2296  1.0153 -1.1746
 6331TIP3   OH240551   2.094   3.711   0.694  0.3735 -0.0139  0.0065
 6331TIP3    H140552   2.103   3.802   0.721 -0.1247 -0.5208  2.0864
 6331TIP3    H240553   2.105   3.713   0.599  1.5326  2.0318  0.1262
 6332TIP3   OH240554   0.683   0.752   7.943  0.3988  0.0480  0.3260
 6332TIP3    H140555   0.761   0.726   7.894  0.7210  0.6210  0.5295
 6332TIP3    H240556   0.652   0.671   7.983  0.4701 -0.3187 -0.3381
 6333TIP3   OH240557   2.561   4.921   6.576  0.3343 -0.9492  0.2177
 6333TIP3    H140558   2.610   4.839   6.568  0.7514 -0.6381 -0.4906
 6333TIP3    H240559   2.514   4.912   6.659  2.1113 -0.9691  1.2782
 6334TIP3   OH240560   4.510   4.622   0.118  0.0513  0.2340  0.2392
 6334TIP3    H140561   4.603   4.602   0.118  0.5101  2.1722 -0.1519
 6334TIP3    H240562   4.480   4.600   0.206  0.1957 -3.0172 -0.4019
 6335TIP3   OH240563   5.102   3.570   7.400  0.2223  0.2738  0.1758
 6335TIP3    H140564   5.009   3.590   7.399  0.4198  1.5900  2.0026
 6335TIP3    H240565   5.141   3.632   7.338 -0.2553 -1.5107 -2.0126
 6336TIP3   OH240566   1.352   4.360   6.959  0.0159 -0.4624  0.1337
 6336TIP3    H140567   1.324   4.449   6.936 -0.9842 -0.6726  0.4924
 6336TIP3    H240568   1.436   4.349   6.914 -0.1194  0.4561 -0.3717
 6337TIP3   OH240569   6.462   4.800   0.561 -1.0017  0.3032  0.0352
 6337TIP3    H140570   6.406   4.868   0.599  0.5984  1.6344  0.1056
 6337TIP3    H240571   6.551   4.828   0.581 -0.2604 -1.3186 -0.8165
 6338TIP3   OH240572   4.574   4.689   7.769  0.2609 -0.1517 -0.6011
 6338TIP3    H140573   4.646   4.689   7.706  0.0101 -0.7443 -0.9017
 6338TIP3    H240574   4.532   4.774   7.757  0.3417 -0.1760 -1.0926
 6339TIP3   OH240575   2.236   0.355   0.457 -0.6182 -0.6247  0.4847
 6339TIP3    H140576   2.238   0.271   0.410  0.7444 -1.3681  1.8145
 6339TIP3    H240577   2.270   0.418   0.394 -0.7757 -1.2236 -0.2197
 6340TIP3   OH240578   3.859   4.020   2.571  0.4998  0.0782  0.3193
 6340TIP3    H140579   3.897   4.105   2.594  0.7191 -0.4998  2.2990
 6340TIP3    H240580   3.868   3.968   2.651 -0.5149 -1.4955 -0.5505
 6341TIP3   OH240581   3.975   3.245   6.992 -0.2298 -0.7775 -0.3630
 6341TIP3    H140582   4.046   3.194   7.032  0.2263 -1.9525 -2.5495
 6341TIP3    H240583   3.995   3.244   6.899 -1.6673  1.2248 -0.7496
 6342TIP3   OH240584   4.717   1.774   7.959 -0.4014  0.1640  0.1387
 6342TIP3    H140585   4.783   1.806   8.021 -0.5242  1.1539 -0.2251
 6342TIP3    H240586   4.768   1.745   7.883 -0.3530  0.4913  0.0443
 6343TIP3   OH240587   5.868   0.004   0.548 -0.3153 -0.0023  0.4517
 6343TIP3    H140588   5.956  -0.032   0.560 -0.6420 -1.1103 -0.2327
 6343TIP3    H240589   5.811  -0.073   0.544 -1.4002  0.7144  1.4143
 6344TIP3   OH240590   2.277   4.434   8.709 -0.1149 -0.6338 -0.0094
 6344TIP3    H140591   2.333   4.511   8.702  0.4483 -1.1204 -1.3213
 6344TIP3    H240592   2.331   4.362   8.676 -1.9511 -0.8765 -2.8874
 6345TIP3   OH240593   5.980   4.750   0.284  0.5483 -0.3746  0.4663
 6345TIP3    H140594   5.962   4.671   0.334 -0.0508 -0.8721 -0.5222
 6345TIP3    H240595   5.979   4.722   0.192 -1.9045  1.1517 -0.0741
 6346TIP3   OH240596   1.341   5.699   7.460 -0.1809 -0.2782  0.3622
 6346TIP3    H140597   1.252   5.715   7.491  0.1382  0.0338  1.1489
 6346TIP3    H240598   1.334   5.620   7.407 -0.8953 -0.3555  0.5621
 6347TIP3   OH240599   1.791   3.156   7.864  0.0944 -0.0064 -0.2749
 6347TIP3    H140600   1.723   3.215   7.897 -0.8171 -2.4585  2.6151
 6347TIP3    H240601   1.872   3.191   7.901  0.1120  1.4004 -1.5424
 6348TIP3   OH240602   2.447   2.206   1.669  0.3289 -0.2204  0.0860
 6348TIP3    H140603   2.481   2.134   1.722  0.6876 -0.1055  0.0148
 6348TIP3    H240604   2.361   2.226   1.707 -0.5506 -1.8109 -0.9412
 6349TIP3   OH240605   3.219   0.423   6.726  0.2129  0.1174 -0.1166
 6349TIP3    H140606   3.298   0.393   6.682  1.5766  1.8769  0.9898
 6349TIP3    H240607   3.186   0.494   6.671  0.1842  0.3166  0.1587
 6350TIP3   OH240608   3.366   3.283   1.398 -0.2536 -0.0671 -0.4435
 6350TIP3    H140609   3.291   3.257   1.345 -1.9852  0.6266  1.5421
 6350TIP3    H240610   3.340   3.367   1.437  1.0836 -0.3624  1.2012
 6351TIP3   OH240611   3.023   5.288   1.369 -0.0258 -0.8424  0.3338
 6351TIP3    H140612   3.099   5.289   1.311  0.3225 -2.5276  0.6904
 6351TIP3    H240613   3.058   5.303   1.456 -0.5961  2.0668  0.1423
 6352TIP3   OH240614   0.821   2.947   0.017 -0.5036  0.1099 -0.1961
 6352TIP3    H140615   0.769   2.945  -0.063 -1.4919  0.4199  0.4172
 6352TIP3    H240616   0.800   3.032   0.057  0.7840  0.4124 -0.1307
 6353TIP3   OH240617   4.289   2.691   0.671 -0.3790  0.1883  0.4493
 6353TIP3    H140618   4.372   2.647   0.659 -0.0707  0.6986  0.6612
 6353TIP3    H240619   4.241   2.675   0.590  0.2042  0.4800  0.0396
 6354TIP3   OH240620   2.539   2.082   0.429  0.3719 -0.6136  0.5209
 6354TIP3    H140621   2.554   1.989   0.414 -0.2075 -0.8206  1.1564
 6354TIP3    H240622   2.493   2.086   0.513 -1.6848  0.0563 -0.5553
 6355TIP3   OH240623   5.371   6.038   7.308 -0.1869 -0.1105 -0.7918
 6355TIP3    H140624   5.373   6.009   7.216 -2.5784 -0.7954 -0.7053
 6355TIP3    H240625   5.318   5.971   7.352  0.6391  0.3941  1.0285
 6356TIP3   OH240626   3.221   1.932   0.289 -0.2702 -0.2862 -0.1715
 6356TIP3    H140627   3.182   1.991   0.353 -1.9128 -1.7460  0.2443
 6356TIP3    H240628   3.287   1.883   0.338  1.0157  1.0451 -0.4913
 6357TIP3   OH240629   6.414   1.519   7.109 -0.4842 -0.0378 -0.0715
 6357TIP3    H140630   6.418   1.601   7.157 -1.5754  0.2771 -0.4838
 6357TIP3    H240631   6.503   1.483   7.114 -0.3581  0.4213  1.3927
 6358TIP3   OH240632   4.369   4.246   6.807  0.1184  0.1192 -0.1022
 6358TIP3    H140633   4.343   4.289   6.888  0.7257  1.0289 -0.3711
 6358TIP3    H240634   4.448   4.197   6.830 -0.1404 -0.2396  0.0275
 6359TIP3   OH240635   0.410   1.146   8.330  0.3277 -0.3812  0.0222
 6359TIP3    H140636   0.432   1.236   8.352 -1.2487 -0.4257  2.1518
 6359TIP3    H240637   0.330   1.153   8.278  0.8380 -0.5252 -0.7950
 6360TIP3   OH240638   4.955   0.359   1.777  0.2740  0.1989  0.3943
 6360TIP3    H140639   5.039   0.372   1.734  1.1422 -2.2457  1.1904
 6360TIP3    H240640   4.952   0.427   1.844  1.0272  1.0778 -0.4174
 6361TIP3   OH240641   6.552   2.120   7.725 -0.5548 -0.1780  0.1331
 6361TIP3    H140642   6.538   2.030   7.697 -2.2921  0.2105 -0.4112
 6361TIP3    H240643   6.617   2.156   7.665  0.4452 -1.1693  0.6069
 6362TIP3   OH240644   0.340   5.363   0.515  0.0002 -0.5146  0.2813
 6362TIP3    H140645   0.387   5.446   0.518 -1.0019  0.1708 -1.2895
 6362TIP3    H240646   0.307   5.351   0.604  0.6310  0.4929  0.6680
 6363TIP3   OH240647   1.741   3.678   7.711  0.7349 -0.2384  0.2539
 6363TIP3    H140648   1.788   3.623   7.774  0.8873 -0.9507 -0.4490
 6363TIP3    H240649   1.652   3.683   7.745  1.5018  1.9836  2.1519
 6364TIP3   OH240650   3.114   4.427   1.259 -0.6560  0.5808 -0.1779
 6364TIP3    H140651   3.143   4.506   1.213  0.8088  1.5076  2.1768
 6364TIP3    H240652   3.160   4.429   1.343 -0.4871 -2.8715 -0.0441
 6365TIP3   OH240653   1.080   3.394   7.327 -0.5047 -0.6150  0.7005
 6365TIP3    H140654   1.152   3.387   7.265 -0.4989 -0.2360  0.6586
 6365TIP3    H240655   1.020   3.324   7.303  0.6958 -2.1122  1.8839
 6366TIP3   OH240656   2.496   0.175   7.490  0.5733  0.8173  0.3599
 6366TIP3    H140657   2.529   0.254   7.446 -0.3627  0.7655 -0.4754
 6366TIP3    H240658   2.402   0.174   7.469  1.0694 -2.3774 -2.7381
 6367TIP3   OH240659   5.900   1.074   8.534 -0.8357  0.4824 -0.2725
 6367TIP3    H140660   5.823   1.127   8.513 -0.3300  1.1777 -0.3997
 6367TIP3    H240661   5.894   0.999   8.476 -1.1074  0.8311 -0.7029
 6368TIP3   OH240662   1.012   0.435   1.372 -0.0002  0.5306  0.1639
 6368TIP3    H140663   0.953   0.417   1.445  0.6422  2.6394  1.2830
 6368TIP3    H240664   1.088   0.380   1.388 -0.6055 -0.3449  0.0788
 6369TIP3   OH240665   3.420   3.578   7.788  0.7667 -0.2757 -0.6846
 6369TIP3    H140666   3.351   3.514   7.772  0.1000  0.0110  0.8395
 6369TIP3    H240667   3.469   3.582   7.706 -0.2750 -1.3914 -1.3936
 6370TIP3   OH240668   0.137   1.701   0.722  0.6683  0.4274  0.6519
 6370TIP3    H140669   0.157   1.624   0.775  2.8786  1.1081  0.8938
 6370TIP3    H240670   0.041   1.701   0.715  0.6057 -2.3290  0.5952
 6371TIP3   OH240671   2.412   6.620   0.871  0.4402 -0.5417 -0.2876
 6371TIP3    H140672   2.483   6.580   0.820 -0.7830 -2.7185 -0.4055
 6371TIP3    H240673   2.374   6.685   0.812  1.6857 -0.0398 -0.5743
 6372TIP3   OH240674   3.909   6.576   1.711 -0.4587  0.3852  0.4682
 6372TIP3    H140675   3.883   6.484   1.700  0.3213  0.2815 -0.6361
 6372TIP3    H240676   3.830   6.620   1.742 -0.9982 -0.5439  0.4393
 6373TIP3   OH240677   0.071   4.105   8.407  0.2209 -0.3707 -0.2840
 6373TIP3    H140678  -0.015   4.087   8.370  0.3000 -0.6571 -0.3320
 6373TIP3    H240679   0.117   4.155   8.339 -0.5857  1.5506  0.4953
 6374TIP3   OH240680   3.661   2.160   7.423  0.4698  0.7611 -0.3377
 6374TIP3    H140681   3.610   2.113   7.488  1.4074  0.3141  0.0912
 6374TIP3    H240682   3.709   2.092   7.375 -0.0898  1.0918 -1.4150
 6375TIP3   OH240683   4.548   2.375   0.758  0.0482 -0.1117  0.2178
 6375TIP3    H140684   4.549   2.331   0.843  2.1148  0.1835  0.4041
 6375TIP3    H240685   4.576   2.465   0.777 -0.1630  0.1567 -0.6759
 6376TIP3   OH240686   2.589   1.930   0.765  0.1493 -0.3545  0.7294
 6376TIP3    H140687   2.632   2.012   0.787 -0.3605 -0.6102  2.9950
 6376TIP3    H240688   2.499   1.955   0.743  0.0052 -0.2719  1.3770
 6377TIP3   OH240689   6.467   5.783   2.347 -0.3143 -0.4566  0.6473
 6377TIP3    H140690   6.551   5.752   2.312 -0.7270 -0.5410 -0.2857
 6377TIP3    H240691   6.479   5.878   2.356 -0.1428 -0.4575  0.4395
 6378TIP3   OH240692   1.668   2.043   0.467 -0.5830  0.6109  0.4597
 6378TIP3    H140693   1.587   2.079   0.430 -0.8711 -0.3560  0.1267
 6378TIP3    H240694   1.720   2.016   0.392 -1.4618 -1.9931  0.6998
 6379TIP3   OH240695   6.407   2.969   1.919  0.3664 -0.3846 -0.0511
 6379TIP3    H140696   6.364   3.047   1.953 -0.0766 -0.4072 -0.5566
 6379TIP3    H240697   6.341   2.900   1.924  1.0373 -0.9715  1.2766
 6380TIP3   OH240698   6.432   2.422   1.301  0.1899  0.6631 -0.9965
 6380TIP3    H140699   6.432   2.462   1.388 -0.5207 -0.6443 -0.3598
 6380TIP3    H240700   6.341   2.431   1.271  0.0711 -0.2161 -0.9364
 6381TIP3   OH240701   5.980   4.604   6.792  0.4037  0.2069  0.2805
 6381TIP3    H140702   5.968   4.535   6.726  2.4771  1.0781 -1.1284
 6381TIP3    H240703   6.055   4.654   6.760 -0.8237  2.9561  1.4209
 6382TIP3   OH240704   5.265   1.933   8.141  0.3527  0.9767 -0.1478
 6382TIP3    H140705   5.230   1.850   8.107  1.2749 -0.1990  1.5993
 6382TIP3    H240706   5.190   1.993   8.139 -0.6879 -0.2675 -0.2774
 6383TIP3   OH240707   1.924   0.996   1.322 -0.2377  0.1866 -0.5013
 6383TIP3    H140708   1.868   0.937   1.272  0.8868 -0.7543 -0.6997
 6383TIP3    H240709   1.989   0.939   1.363  1.0493  1.3096 -0.8976
 6384TIP3   OH240710   4.635   5.970   8.147 -0.1735  0.3508 -0.2671
 6384TIP3    H140711   4.645   5.965   8.052 -0.2944 -0.2224 -0.2498
 6384TIP3    H240712   4.540   5.975   8.161 -0.3518 -2.4377 -0.0596
 6385TIP3   OH240713   2.356   0.690   7.846  0.2085 -0.3964 -0.7827
 6385TIP3    H140714   2.316   0.603   7.843  0.1789 -0.4824  1.0316
 6385TIP3    H240715   2.447   0.674   7.820  0.1346 -0.9133 -0.7475
 6386TIP3   OH240716   4.869   0.856   0.929 -0.1526 -0.6531  0.0162
 6386TIP3    H140717   4.925   0.907   0.988  0.0278 -0.9194  0.0807
 6386TIP3    H240718   4.850   0.776   0.978 -1.3328 -0.1799  0.3469
 6387TIP3   OH240719   2.698   5.352   8.214  0.1004  0.8723 -0.5563
 6387TIP3    H140720   2.746   5.433   8.233 -0.1175  0.6702  1.0241
 6387TIP3    H240721   2.757   5.303   8.156  1.9133  0.5973  1.3938
 6388TIP3   OH240722   3.988   6.530   0.930 -0.3842 -0.4524 -0.0294
 6388TIP3    H140723   3.932   6.478   0.873  0.2476 -1.1633 -0.0177
 6388TIP3    H240724   3.982   6.488   1.016 -0.5623  0.0245  0.1979
 6389TIP3   OH240725   0.238   3.531   1.817  0.1495 -0.0185 -0.1907
 6389TIP3    H140726   0.322   3.491   1.792  0.1454 -0.9576  1.1876
 6389TIP3    H240727   0.180   3.512   1.744  0.7088 -0.8055 -0.4451
 6390TIP3   OH240728   1.172   2.371   1.094 -0.0181  0.6075 -0.3741
 6390TIP3    H140729   1.190   2.441   1.157 -2.2703  0.1701  0.8855
 6390TIP3    H240730   1.232   2.300   1.120 -0.1965  0.8083  0.6565
 6391TIP3   OH240731   5.120   0.919   8.402  0.3201  0.0054 -0.0162
 6391TIP3    H140732   5.039   0.951   8.441  1.4586  1.3793  1.3944
 6391TIP3    H240733   5.099   0.832   8.367 -2.2166  1.0986 -1.4625
 6392TIP3   OH240734   1.558   3.783   1.163 -0.1807 -0.6492 -0.2014
 6392TIP3    H140735   1.544   3.877   1.171 -2.2777 -0.7970 -1.4695
 6392TIP3    H240736   1.621   3.775   1.090 -0.7795 -0.2403 -0.7783
 6393TIP3   OH240737   1.244   0.228   1.952  0.0048 -0.2800 -0.8041
 6393TIP3    H140738   1.166   0.254   1.903  0.4184 -0.9724 -1.8661
 6393TIP3    H240739   1.224   0.139   1.982  0.6645 -0.7671 -1.7484
 6394TIP3   OH240740   0.998   6.124   8.708  0.1977  0.0367  0.6391
 6394TIP3    H140741   0.978   6.128   8.614  0.1375  0.8227  0.6756
 6394TIP3    H240742   1.079   6.174   8.718 -0.2765  0.7392  1.1208
 6395TIP3   OH240743   2.535   0.227   0.040  0.3421 -0.2461  0.6613
 6395TIP3    H140744   2.581   0.293  -0.012  0.1526  0.1653  1.0035
 6395TIP3    H240745   2.605   0.172   0.076  0.4507 -0.7450 -0.3038
 6396TIP3   OH240746   2.585   2.471   0.128 -0.0308 -0.1285 -0.0419
 6396TIP3    H140747   2.667   2.426   0.111  0.2340 -0.0568  0.9882
 6396TIP3    H240748   2.530   2.407   0.173 -0.3271 -0.0035 -0.2233
 6397TIP3   OH240749   5.554   0.647   7.108 -0.2601  0.3948  0.6306
 6397TIP3    H140750   5.649   0.636   7.103 -0.0685  2.2004 -0.5743
 6397TIP3    H240751   5.527   0.664   7.018 -1.4401  1.8390  1.2210
 6398TIP3   OH240752   6.118   5.280   1.966 -0.0977  0.0521 -0.3759
 6398TIP3    H140753   6.071   5.342   1.910  1.8142 -0.5164 -2.7753
 6398TIP3    H240754   6.182   5.333   2.012 -0.0388  0.1781 -0.6031
 6399TIP3   OH240755   5.318   1.061   0.264 -0.0146  0.1251 -0.4270
 6399TIP3    H140756   5.307   1.099   0.352 -1.4824  3.4142 -1.8365
 6399TIP3    H240757   5.405   1.088   0.237  0.2306 -0.4336 -0.2153
 6400TIP3   OH240758   1.175   3.433   6.765  0.2115 -0.1889  0.0452
 6400TIP3    H140759   1.185   3.388   6.681  2.0940  0.3432 -0.0448
 6400TIP3    H240760   1.232   3.510   6.759 -0.3960  0.4206  1.4497
 6401TIP3   OH240761   3.513   5.113   7.779 -0.2142 -0.7667  0.5248
 6401TIP3    H140762   3.466   5.113   7.863  0.9617 -0.9320  1.2092
 6401TIP3    H240763   3.604   5.095   7.803  0.1805 -0.5844 -0.7748
 6402TIP3   OH240764   5.341   1.394   0.796 -0.1732 -0.3972  0.1270
 6402TIP3    H140765   5.252   1.427   0.785 -0.0653  0.0409  0.5276
 6402TIP3    H240766   5.331   1.299   0.803 -0.6389 -0.3230  0.5075
 6403TIP3   OH240767   2.337   2.082   0.001  0.0367  0.9089  0.3582
 6403TIP3    H140768   2.430   2.103   0.002  0.0771  0.9417  2.7259
 6403TIP3    H240769   2.334   1.990  -0.024  0.4725  1.4968 -2.0789
 6404TIP3   OH240770   0.389   0.753   1.682  0.2584  0.1980 -0.4589
 6404TIP3    H140771   0.406   0.810   1.757 -0.8861 -0.3538  0.2425
 6404TIP3    H240772   0.348   0.810   1.617 -1.1624  0.1388  0.3535
 6405TIP3   OH240773   3.893   3.073   8.021  0.1024  0.1665 -0.3833
 6405TIP3    H140774   3.840   3.063   8.100  0.0425  0.0863 -0.4337
 6405TIP3    H240775   3.918   3.165   8.021  1.5212 -0.1860  0.6444
 6406TIP3   OH240776   0.643   6.324   1.669  0.3776 -0.4708 -0.0639
 6406TIP3    H140777   0.737   6.309   1.657  0.5361  0.6393 -0.4067
 6406TIP3    H240778   0.611   6.344   1.581 -0.2194 -0.9916  0.0253
 6407TIP3   OH240779   3.580   0.693   8.265  0.5665  0.3803 -0.1242
 6407TIP3    H140780   3.659   0.663   8.310  0.2684 -0.2766 -0.0246
 6407TIP3    H240781   3.527   0.614   8.255 -0.0345  0.7968 -0.2822
 6408TIP3   OH240782   5.012   5.754   7.529  0.6079 -0.2510 -0.0479
 6408TIP3    H140783   4.982   5.838   7.494 -0.6129 -1.1338 -1.2293
 6408TIP3    H240784   4.969   5.746   7.614  3.2176  1.6932  1.6369
 6409TIP3   OH240785   1.831   5.164   8.663 -0.4186 -0.1646 -0.5559
 6409TIP3    H140786   1.900   5.178   8.598 -0.1617  1.3093  0.0071
 6409TIP3    H240787   1.812   5.070   8.657  0.9830 -0.4300 -1.3548
 6410TIP3   OH240788   0.776   1.026   7.318  0.2369 -0.4966 -0.1358
 6410TIP3    H140789   0.682   1.014   7.305 -0.3279  1.9203  1.2159
 6410TIP3    H240790   0.793   0.987   7.403  0.3800 -0.5411 -0.1851
 6411TIP3   OH240791   6.189   1.387   7.595  0.2744  0.2862  0.1420
 6411TIP3    H140792   6.117   1.327   7.576  0.4999  0.1582 -0.3314
 6411TIP3    H240793   6.246   1.380   7.519  0.9734  0.1154  0.6786
 6412TIP3   OH240794   1.664   0.221   0.253  0.1989  0.0634 -0.1375
 6412TIP3    H140795   1.750   0.205   0.214 -0.2062 -0.5581 -0.7982
 6412TIP3    H240796   1.624   0.135   0.261 -0.3014  0.3273  0.3318
 6413TIP3   OH240797   5.711   2.768   7.117 -0.2572  0.5299  0.0764
 6413TIP3    H140798   5.794   2.792   7.157 -0.9594 -0.4555  2.2765
 6413TIP3    H240799   5.651   2.838   7.144 -1.0612 -0.8291  2.0513
 6414TIP3   OH240800   0.039   4.175   2.477 -0.2235  0.1436  0.3628
 6414TIP3    H140801   0.080   4.126   2.405 -0.6306  1.7165 -0.9968
 6414TIP3    H240802   0.066   4.265   2.463 -0.4505  0.5250  2.1277
 6415TIP3   OH240803   4.135   0.320   6.884 -0.2154 -0.3217  0.6362
 6415TIP3    H140804   4.054   0.367   6.866  0.0958 -0.6502 -2.1994
 6415TIP3    H240805   4.196   0.388   6.915 -0.5943  0.6397 -0.6178
 6416TIP3   OH240806   5.501   5.487   7.350  0.0483 -0.7709 -0.1733
 6416TIP3    H140807   5.409   5.485   7.377 -0.6360  0.4677 -2.2391
 6416TIP3    H240808   5.520   5.579   7.332  1.7012 -1.0080  0.1262
 6417TIP3   OH240809   0.263   4.648   1.557  0.0843  0.2809  0.2279
 6417TIP3    H140810   0.278   4.707   1.483 -0.1562 -2.4212 -2.1534
 6417TIP3    H240811   0.169   4.650   1.571 -0.4503 -1.9930 -2.2404
 6418TIP3   OH240812   5.539   5.763   8.602  0.0665 -0.5958  0.1770
 6418TIP3    H140813   5.572   5.849   8.631  1.5472 -1.5396  1.4596
 6418TIP3    H240814   5.451   5.757   8.640 -0.1041  0.3870 -0.0249
 6419TIP3   OH240815   1.440   3.283   7.394  0.3674  0.3996  0.7304
 6419TIP3    H140816   1.466   3.199   7.431  0.3701  0.2858  0.4724
 6419TIP3    H240817   1.492   3.347   7.441  0.7690  0.2126  0.5435
 6420TIP3   OH240818   4.273   4.844   0.646 -0.6307 -0.3360  0.4197
 6420TIP3    H140819   4.308   4.859   0.733  0.9002 -0.4432 -0.1477
 6420TIP3    H240820   4.277   4.930   0.603  1.4714 -0.8189 -0.4936
 6421TIP3   OH240821   3.288   4.796   1.113  0.3117  0.2632 -0.8697
 6421TIP3    H140822   3.368   4.842   1.136  0.3835 -0.9047  1.6085
 6421TIP3    H240823   3.232   4.805   1.190 -0.9907 -0.9437 -1.6214
 6422TIP3   OH240824   5.042   4.801   8.068 -0.1370 -0.1138  0.0255
 6422TIP3    H140825   5.075   4.890   8.062 -1.0795  0.1935 -0.8746
 6422TIP3    H240826   4.958   4.809   8.113 -0.8624 -0.3584 -1.2451
 6423TIP3   OH240827   5.740   0.452   0.489 -0.7242  0.7063 -0.5771
 6423TIP3    H140828   5.666   0.505   0.519 -1.5120  0.1127 -1.4032
 6423TIP3    H240829   5.799   0.448   0.564 -0.1056  3.6383 -0.8205
 6424TIP3   OH240830   0.558   0.828   1.406 -0.3913 -0.1442 -0.1292
 6424TIP3    H140831   0.609   0.836   1.486  0.2725  1.5996 -0.6942
 6424TIP3    H240832   0.596   0.753   1.360 -1.0102 -1.3946  1.2992
 6425TIP3   OH240833   5.384   1.388   6.852  0.1587  0.2237  0.5678
 6425TIP3    H140834   5.327   1.428   6.917 -1.2669  0.3127 -0.6702
 6425TIP3    H240835   5.324   1.350   6.788  1.4427  1.7079 -1.6472
 6426TIP3   OH240836   0.897   3.616   0.435 -0.3177 -0.3421 -0.2221
 6426TIP3    H140837   0.870   3.577   0.351 -2.1327 -0.7271  0.4919
 6426TIP3    H240838   0.819   3.664   0.464  0.7449  0.9375  0.5946
 6427TIP3   OH240839   3.771   1.637   0.439  0.1383 -0.0201  0.4199
 6427TIP3    H140840   3.857   1.599   0.460  0.0931 -1.3431 -1.5520
 6427TIP3    H240841   3.712   1.601   0.506  0.6624 -1.1649  0.2922
 6428TIP3   OH240842   0.593   1.333   0.138  0.3541  0.2953  0.3891
 6428TIP3    H140843   0.538   1.316   0.215 -0.4070 -1.7297 -0.5326
 6428TIP3    H240844   0.584   1.427   0.124 -3.0052  0.0783  0.2676
 6429TIP3   OH240845   5.108   5.871   0.930  0.1413 -0.0918 -0.0110
 6429TIP3    H140846   5.031   5.814   0.929  0.3398 -0.3675  0.2557
 6429TIP3    H240847   5.075   5.954   0.966 -0.3992  0.3458 -1.4411
 6430TIP3   OH240848   5.277   4.148   7.445 -0.3439 -0.5312 -0.7252
 6430TIP3    H140849   5.347   4.184   7.500 -1.6360  0.7643  0.1518
 6430TIP3    H240850   5.226   4.225   7.418 -1.8690 -1.4938 -0.7031
 6431TIP3   OH240851   0.125   5.563   0.395  0.3609 -0.1464 -0.3067
 6431TIP3    H140852   0.146   5.473   0.419 -2.5648 -0.9642 -0.4444
 6431TIP3    H240853   0.063   5.554   0.322  0.0384  1.9892 -0.3462
 6432TIP3   OH240854   5.136   5.037   1.351 -0.3768  0.6432  0.4009
 6432TIP3    H140855   5.111   5.062   1.262 -1.1255 -1.1383  0.0750
 6432TIP3    H240856   5.061   5.063   1.405 -0.2386  1.0252  0.4194
 6433TIP3   OH240857   3.814   6.132   6.416  0.4399 -0.2295 -0.1754
 6433TIP3    H140858   3.725   6.098   6.421  0.2109  0.3852  0.0378
 6433TIP3    H240859   3.804   6.227   6.423  1.2268 -0.2346  1.6684
 6434TIP3   OH240860   0.885   1.772   7.437  0.5335  0.5171  0.4399
 6434TIP3    H140861   0.920   1.817   7.360  1.8119 -2.3069 -0.7807
 6434TIP3    H240862   0.834   1.699   7.401 -2.0684  1.2450  2.3017
 6435TIP3   OH240863   5.692   4.886   1.590  0.7043  0.5624  0.6560
 6435TIP3    H140864   5.676   4.805   1.637 -0.5832  0.2621 -0.2479
 6435TIP3    H240865   5.763   4.865   1.529 -1.0570 -0.5473 -1.0867
 6436TIP3   OH240866   4.924   0.772   0.301  0.0332 -0.5694  0.0612
 6436TIP3    H140867   4.877   0.846   0.263  1.3683  0.0928 -0.3949
 6436TIP3    H240868   4.864   0.736   0.366 -0.9341  0.4667 -0.2191
 6437TIP3   OH240869   3.884   2.828   7.584 -0.0839 -0.3140  0.0085
 6437TIP3    H140870   3.860   2.909   7.629 -0.5571 -0.4265 -0.0360
 6437TIP3    H240871   3.801   2.782   7.570 -0.0945  0.1760 -1.8726
 6438TIP3   OH240872   3.664   4.504   7.820 -0.4070  0.2148  0.0157
 6438TIP3    H140873   3.674   4.588   7.864 -0.1833 -0.2538  0.8717
 6438TIP3    H240874   3.612   4.451   7.880  1.1112 -0.9207  0.3924
 6439TIP3   OH240875   1.479   2.003   8.068  0.4235 -0.4891  0.5401
 6439TIP3    H140876   1.528   2.063   8.013 -0.6050 -0.0777  0.0437
 6439TIP3    H240877   1.408   2.056   8.104 -0.6223 -1.4261 -0.0731
 6440TIP3   OH240878   5.712   4.798   8.235 -0.1167  0.6219  0.2883
 6440TIP3    H140879   5.718   4.893   8.246 -0.7621  0.4576  2.5154
 6440TIP3    H240880   5.795   4.764   8.268  0.9081  0.4382 -2.2169
 6441TIP3   OH240881   5.241   0.580   7.600 -1.0911  0.4782  0.3727
 6441TIP3    H140882   5.284   0.498   7.576 -1.6523  0.1984  0.2994
 6441TIP3    H240883   5.193   0.559   7.680  1.3409  1.5815  2.2435
 6442TIP3   OH240884   1.307   2.081   2.601 -0.4016  0.5017 -0.4291
 6442TIP3    H140885   1.355   2.021   2.544 -1.2595 -0.6453  0.0071
 6442TIP3    H240886   1.234   2.028   2.635 -0.4331  1.4190  1.0092
 6443TIP3   OH240887   4.272   6.319   0.773  0.5262 -0.1456 -0.4487
 6443TIP3    H140888   4.300   6.232   0.744  0.0292 -0.3952 -0.2040
 6443TIP3    H240889   4.278   6.316   0.868 -1.0678 -0.4898 -0.3307
 6444TIP3   OH240890   5.462   0.140   7.778  0.3620  0.1023 -0.0956
 6444TIP3    H140891   5.496   0.229   7.774 -0.4781  0.8789  4.4043
 6444TIP3    H240892   5.371   0.148   7.749  1.5667 -0.5697 -4.9125
 6445TIP3   OH240893   4.075   5.886   8.259 -0.3379 -0.4686 -0.3610
 6445TIP3    H140894   3.999   5.834   8.286  0.4290 -1.4640 -0.0509
 6445TIP3    H240895   4.151   5.835   8.288  0.4631  1.1197  0.4715
 6446TIP3   OH240896   6.626   5.712   8.123  0.0313 -0.7371  0.0187
 6446TIP3    H140897   6.677   5.792   8.140 -0.9726  0.6935 -2.9630
 6446TIP3    H240898   6.691   5.650   8.089  0.2208  0.4530 -2.0010
 6447TIP3   OH240899   3.984   5.436   1.308  0.3179  0.0438 -0.0070
 6447TIP3    H140900   3.905   5.429   1.361  1.2647 -2.2769  1.2227
 6447TIP3    H240901   4.002   5.347   1.279  2.3779  0.5418 -0.4360
 6448TIP3   OH240902   4.212   3.182   6.092  0.2445 -0.2687  0.0753
 6448TIP3    H140903   4.302   3.183   6.126 -0.3569 -2.7486  2.0459
 6448TIP3    H240904   4.209   3.105   6.035 -0.3885  0.4039 -0.8274
 6449TIP3   OH240905   1.289   5.033   1.942  0.2570 -0.1110  0.3353
 6449TIP3    H140906   1.260   5.022   2.032 -1.0506  1.3817  0.1447
 6449TIP3    H240907   1.209   5.048   1.892  0.9517 -0.8768 -1.0953
 6450TIP3   OH240908   5.380   3.120   0.619 -0.5991 -0.4684  0.3099
 6450TIP3    H140909   5.292   3.117   0.657 -0.0190 -0.0250  1.7208
 6450TIP3    H240910   5.400   3.029   0.598 -1.5859 -0.5174 -0.5064
 6451TIP3   OH240911   4.454   6.057   0.133 -0.1293  0.5234  0.3000
 6451TIP3    H140912   4.364   6.085   0.148 -0.4581 -1.7138  3.3890
 6451TIP3    H240913   4.447   5.971   0.093  0.5816  0.0365  1.1777
 6452TIP3   OH240914   4.323   1.883   7.136 -0.1105 -0.6905  0.0638
 6452TIP3    H140915   4.240   1.903   7.094  0.3978 -2.6698 -2.1068
 6452TIP3    H240916   4.358   1.968   7.163 -2.7718  0.1863  1.0161
 6453TIP3   OH240917   1.722   6.500   7.287  0.4980 -0.6516  0.6829
 6453TIP3    H140918   1.648   6.468   7.235 -1.0046 -0.6787  2.7071
 6453TIP3    H240919   1.714   6.596   7.281 -0.8265 -0.6185  2.2929
 6454TIP3   OH240920   1.310   5.569   6.004  0.1362 -0.0891  0.4871
 6454TIP3    H140921   1.332   5.552   5.912  1.8914  0.6492  0.7372
 6454TIP3    H240922   1.276   5.485   6.036  2.8614 -1.4709  0.0807
 6455TIP3   OH240923   0.334   1.244   1.893 -0.6337  0.6283  0.3185
 6455TIP3    H140924   0.256   1.232   1.946 -2.4487  1.2376 -2.0319
 6455TIP3    H240925   0.326   1.333   1.858  1.8856  1.2487  1.0972
 6456TIP3   OH240926   6.041   6.136   0.780  0.2933 -0.2573  0.0036
 6456TIP3    H140927   5.969   6.195   0.805 -0.9195 -0.3769 -2.8750
 6456TIP3    H240928   6.030   6.060   0.838 -1.5005  0.0151  0.0714
 6457TIP3   OH240929   3.488   0.734   1.427  0.2631 -0.5547  0.0417
 6457TIP3    H140930   3.459   0.699   1.511  0.2105  1.3848  0.8763
 6457TIP3    H240931   3.468   0.828   1.431 -0.7943 -0.5740 -2.5959
 6458TIP3   OH240932   6.676   1.742   2.012  0.0082  0.1628 -0.2683
 6458TIP3    H140933   6.583   1.747   2.033  0.1298 -0.7954  0.6599
 6458TIP3    H240934   6.716   1.814   2.061 -0.3258  1.0689 -1.3026
 6459TIP3   OH240935   4.447   0.265   8.483 -0.3855 -0.0170 -0.0952
 6459TIP3    H140936   4.535   0.236   8.508 -0.7578 -1.2765 -0.1845
 6459TIP3    H240937   4.446   0.259   8.388 -0.4537  0.3648 -0.1203
 6460TIP3   OH240938   3.635   0.273   0.845  0.9172  0.3403  0.2032
 6460TIP3    H140939   3.618   0.368   0.847  3.5109  0.8778 -0.0061
 6460TIP3    H240940   3.636   0.247   0.936  1.4857  0.7934  0.3335
 6461TIP3   OH240941   4.466   2.138   0.663  0.0721 -0.4097  0.2712
 6461TIP3    H140942   4.502   2.225   0.675  1.0594 -0.8017  0.2868
 6461TIP3    H240943   4.407   2.146   0.589  0.2028  0.2618  0.2388
 6462TIP3   OH240944   0.987   2.036   7.841  0.3360 -0.1390 -0.3142
 6462TIP3    H140945   1.054   1.968   7.846 -1.2131 -1.7184 -0.0100
 6462TIP3    H240946   1.028   2.113   7.880  1.4744 -1.4731  1.2816
 6463TIP3   OH240947   2.563   3.693   7.839  0.1162  0.4706 -0.2106
 6463TIP3    H140948   2.573   3.617   7.782 -1.5734 -0.8314  1.1280
 6463TIP3    H240949   2.632   3.682   7.904 -0.0630  0.1181 -0.0760
 6464TIP3   OH240950   1.929   3.035   0.191 -0.7016 -0.5298 -0.6504
 6464TIP3    H140951   2.024   3.028   0.199 -0.6827 -0.0174 -0.3601
 6464TIP3    H240952   1.895   2.975   0.258 -0.5561  1.2936  1.1704
 6465TIP3   OH240953   6.389   5.368   1.794  0.0661  0.2338  0.4971
 6465TIP3    H140954   6.396   5.461   1.771 -0.6272 -0.2309 -1.8997
 6465TIP3    H240955   6.387   5.323   1.710  0.6385 -1.9976  1.6107
 6466TIP3   OH240956   0.926   6.291   1.613 -0.4329 -0.2592  0.1369
 6466TIP3    H140957   0.903   6.382   1.632 -0.5674 -0.4525  0.9155
 6466TIP3    H240958   0.942   6.291   1.519  1.5575  0.9883  0.4233
 6467TIP3   OH240959   3.784   1.468   7.125  0.0094  0.0293 -0.2539
 6467TIP3    H140960   3.727   1.395   7.103  1.9351 -0.6375 -3.6359
 6467TIP3    H240961   3.804   1.455   7.218 -0.0976 -3.5313 -0.5773
 6468TIP3   OH240962   0.690   2.676   1.398 -0.4572  0.0539  0.4178
 6468TIP3    H140963   0.774   2.632   1.408  0.7360  2.3372  1.1200
 6468TIP3    H240964   0.653   2.678   1.487  0.4495  2.1442  0.7971
 6469TIP3   OH240965   5.650   1.336   6.802 -0.1972  0.0781 -0.5529
 6469TIP3    H140966   5.555   1.334   6.802 -0.2480 -2.7169  1.1452
 6469TIP3    H240967   5.677   1.253   6.762  1.4668  0.2481  0.1014
 6470TIP3   OH240968   0.015   5.542   0.124 -1.1772 -0.4738 -0.0691
 6470TIP3    H140969  -0.057   5.505   0.072 -1.6289 -2.0270  1.5540
 6470TIP3    H240970   0.093   5.498   0.092 -0.6901  1.9444 -2.5347
 6471TIP3   OH240971   3.691   6.455   0.212 -0.6216 -0.8472  0.3100
 6471TIP3    H140972   3.732   6.504   0.140  0.7315  0.3129  1.7894
 6471TIP3    H240973   3.676   6.521   0.280 -1.2718 -2.0207  1.3392
 6472TIP3   OH240974   5.190   0.942   1.713 -0.0119  0.5685 -0.3143
 6472TIP3    H140975   5.241   0.864   1.690 -0.6908 -0.2723  0.9035
 6472TIP3    H240976   5.105   0.927   1.671 -1.0366 -0.6618  2.0047
 6473TIP3   OH240977   6.573   4.296   7.089  0.3639  0.4218 -0.3982
 6473TIP3    H140978   6.626   4.284   7.168  1.4657  1.0299 -1.0127
 6473TIP3    H240979   6.500   4.351   7.117 -2.0101 -3.2474  1.2950
 6474TIP3   OH240980   0.610   5.365   7.577 -0.0291  0.0005  0.2164
 6474TIP3    H140981   0.689   5.338   7.531  1.3485  0.9328  1.8908
 6474TIP3    H240982   0.576   5.284   7.616  1.3943 -0.1287  1.3003
 6475TIP3   OH240983   3.231   5.352   8.008  0.5822 -0.1631 -0.0073
 6475TIP3    H140984   3.280   5.379   7.930  0.6915 -0.1018  0.0815
 6475TIP3    H240985   3.140   5.347   7.979  0.7075 -0.7826 -0.3067
 6476TIP3   OH240986   5.814   2.088   0.496  0.3698  0.5516  0.5131
 6476TIP3    H140987   5.857   2.170   0.520  0.0784  0.0481  3.1092
 6476TIP3    H240988   5.875   2.020   0.526  1.0275 -0.2666 -2.4044
 6477TIP3   OH240989   0.522   3.097   7.238 -0.6465  0.2367  0.5208
 6477TIP3    H140990   0.600   3.047   7.217 -2.3104 -2.4289  0.2608
 6477TIP3    H240991   0.503   3.076   7.329 -2.2912 -1.0060 -0.0697
 6478TIP3   OH240992   1.946   3.779   6.363  0.0626 -1.4185  0.7504
 6478TIP3    H140993   1.968   3.716   6.295  0.6153 -0.5034  0.0570
 6478TIP3    H240994   2.022   3.780   6.421 -0.0779 -1.6095  0.9418
 6479TIP3   OH240995   0.586   6.110   0.961 -0.2124 -0.3927 -0.5988
 6479TIP3    H140996   0.652   6.177   0.980 -1.4486  0.8644 -0.6492
 6479TIP3    H240997   0.603   6.085   0.870  0.4829 -0.4282 -0.4661
 6480TIP3   OH240998   0.290   0.145   1.924 -0.2217  0.0119 -0.4779
 6480TIP3    H140999   0.297   0.052   1.903 -0.9313 -0.6289  1.8552
 6480TIP3    H241000   0.331   0.153   2.010 -1.4129  1.5976 -0.0308
 6481TIP3   OH241001   0.423   2.207   8.190  0.0509  0.2150  0.2205
 6481TIP3    H141002   0.351   2.205   8.254  0.4754  0.0883  0.6969
 6481TIP3    H241003   0.465   2.121   8.200  0.7897  0.6130  0.5365
 6482TIP3   OH241004   0.439   4.907   0.729  0.0588 -0.2691 -0.0802
 6482TIP3    H141005   0.353   4.891   0.767 -0.2896  2.5173  0.5194
 6482TIP3    H241006   0.429   4.885   0.637 -0.8354 -1.3694  0.2526
 6483TIP3   OH241007   1.831   1.542   2.096 -0.5533  0.1175  0.2403
 6483TIP3    H141008   1.853   1.546   2.003  1.9535  0.7877  0.7776
 6483TIP3    H241009   1.869   1.459   2.127 -0.2345  0.5001  0.9046
 6484TIP3   OH241010   2.124   6.053   1.758 -0.0919 -0.7408  0.1090
 6484TIP3    H141011   2.157   6.113   1.691 -2.1223  1.1739  0.6926
 6484TIP3    H241012   2.143   6.096   1.841 -0.3974 -1.5814  0.6334
 6485TIP3   OH241013   4.215   1.844   8.255  0.0641 -0.1272 -0.1074
 6485TIP3    H141014   4.309   1.848   8.272  0.3252  1.9190 -1.6639
 6485TIP3    H241015   4.207   1.788   8.177 -0.1079 -0.9259  0.4717
 6486TIP3   OH241016   0.142   6.604   8.284  0.0789  0.6152 -0.2100
 6486TIP3    H141017   0.116   6.657   8.360  1.0978  1.5117 -0.4680
 6486TIP3    H241018   0.100   6.646   8.210 -0.0854  0.3417 -0.2742
 6487TIP3   OH241019   5.266   3.490   1.921  0.0262 -0.0252  0.5205
 6487TIP3    H141020   5.282   3.576   1.882  0.8591  0.0843  1.0745
 6487TIP3    H241021   5.170   3.483   1.925 -0.0577  1.0628  0.8614
 6488TIP3   OH241022   6.843   0.743   0.186 -0.5146 -0.9653 -0.3812
 6488TIP3    H141023   6.896   0.816   0.156 -1.2548  0.8313  2.2649
 6488TIP3    H241024   6.904   0.670   0.193  0.6420 -0.1401 -1.4735
 6489TIP3   OH241025   6.375   3.742   8.287 -0.2517  0.1093  0.0339
 6489TIP3    H141026   6.416   3.805   8.346 -0.1612  0.8839 -0.8297
 6489TIP3    H241027   6.339   3.796   8.216 -0.6114 -0.7740 -0.4662
 6490TIP3   OH241028   4.521   5.197   0.918 -0.2275 -0.2753 -0.0903
 6490TIP3    H141029   4.540   5.119   0.970 -0.1677 -0.6791 -0.7022
 6490TIP3    H241030   4.564   5.180   0.834 -0.3029  0.3731 -0.2651
 6491TIP3   OH241031   4.415   6.173   0.986  0.1174  0.4580 -0.2340
 6491TIP3    H141032   4.502   6.213   0.986 -0.5710  2.0544  0.6457
 6491TIP3    H241033   4.422   6.100   1.047  1.1534 -0.2217 -1.1370
 6492TIP3   OH241034   2.983   4.579   0.400  0.3594  0.2397  0.0237
 6492TIP3    H141035   3.013   4.657   0.354  0.9992 -0.5829 -1.0217
 6492TIP3    H241036   2.999   4.507   0.338  1.2815 -0.9278  1.5393
 6493TIP3   OH241037   4.317   1.444   2.009  0.0839  0.1958  0.0006
 6493TIP3    H141038   4.269   1.369   2.045  0.0709  0.6155  0.8853
 6493TIP3    H241039   4.391   1.455   2.069 -1.9445  3.2545  2.2628
 6494TIP3   OH241040   0.805   5.235   0.564  0.0257 -0.5185  0.0033
 6494TIP3    H141041   0.777   5.149   0.594  1.9437 -0.7239  1.3591
 6494TIP3    H241042   0.895   5.223   0.535  0.6283  1.1796  1.0400
 6495TIP3   OH241043   6.351   2.154   0.150 -0.5302 -0.0744 -0.5757
 6495TIP3    H141044   6.281   2.123   0.094 -0.0074 -1.5428 -0.4569
 6495TIP3    H241045   6.428   2.106   0.121 -0.2908 -1.0556  1.5344
 6496TIP3   OH241046   1.141   1.926   8.317 -0.8336 -0.6901  0.2267
 6496TIP3    H141047   1.191   1.846   8.302  0.5653  0.1569  0.1768
 6496TIP3    H241048   1.191   1.995   8.273 -2.2364  0.1611 -0.1238
 6497TIP3   OH241049   1.292   0.665   7.783  0.3388 -0.2176  0.0866
 6497TIP3    H141050   1.289   0.579   7.826  0.4881 -1.2822 -1.9336
 6497TIP3    H241051   1.381   0.672   7.750  0.7806  1.4156  1.4913
 6498TIP3   OH241052   4.731   0.118   6.850  0.2368 -0.3408 -0.3839
 6498TIP3    H141053   4.716   0.170   6.771  1.4787 -0.3828 -0.6647
 6498TIP3    H241054   4.678   0.162   6.917  0.1769  0.4585 -0.9352
 6499TIP3   OH241055   4.831   2.069   0.269  0.0771  0.9212  0.2241
 6499TIP3    H141056   4.737   2.083   0.259 -0.8607 -0.8099  4.6221
 6499TIP3    H241057   4.865   2.156   0.292 -0.1990  1.7105 -2.0834
 6500TIP3   OH241058   6.050   2.557   0.241 -0.3713 -0.8191 -0.1779
 6500TIP3    H141059   6.080   2.474   0.278  1.1498  0.0863  0.7421
 6500TIP3    H241060   5.957   2.562   0.265  0.3970 -0.4978  3.2969
 6501TIP3   OH241061   0.641   4.478   8.246 -0.1022  0.4063  0.1809
 6501TIP3    H141062   0.642   4.430   8.163  1.9581 -0.5392  0.6668
 6501TIP3    H241063   0.617   4.411   8.311  1.1441  0.4044  0.6637
 6502TIP3   OH241064   1.413   2.516   0.947 -0.2305 -0.6412 -0.2084
 6502TIP3    H141065   1.322   2.487   0.956 -0.3371 -0.5919 -1.0326
 6502TIP3    H241066   1.464   2.435   0.940 -0.4568 -0.6849 -1.8484
 6503TIP3   OH241067   0.078   3.805   7.805 -0.1245  0.9636 -0.0986
 6503TIP3    H141068   0.149   3.866   7.827 -1.6541  2.0141  2.3615
 6503TIP3    H241069   0.014   3.858   7.759 -0.2006  0.5078 -0.5223
 6504TIP3   OH241070   0.789   6.515   0.768 -0.3392  0.5252  0.1192
 6504TIP3    H141071   0.759   6.576   0.701 -1.7500  1.6431  1.6938
 6504TIP3    H241072   0.855   6.564   0.817  0.5635 -0.2292 -0.3057
 6505TIP3   OH241073   5.026   1.371   0.270  0.2850 -0.3381  0.1620
 6505TIP3    H141074   4.950   1.415   0.309  0.5962  2.6967 -2.2051
 6505TIP3    H241075   5.020   1.393   0.177  3.8882 -0.2327 -0.1780
 6506TIP3   OH241076   5.809   6.214   1.550  0.4950 -0.4283  0.6876
 6506TIP3    H141077   5.773   6.159   1.620 -0.9736  2.2318  2.2166
 6506TIP3    H241078   5.806   6.159   1.472  1.3601 -3.2514  2.4691
 6507TIP3   OH241079   1.875   3.880   7.573  0.4824 -0.0704 -0.2082
 6507TIP3    H141080   1.815   3.822   7.621  0.6542  0.2223  0.3799
 6507TIP3    H241081   1.950   3.889   7.632  0.2729  1.0927 -0.0906
 6508TIP3   OH241082   6.527   4.888   6.663 -0.1828 -0.0516 -0.2721
 6508TIP3    H141083   6.578   4.866   6.742 -1.3039  0.5385  0.6533
 6508TIP3    H241084   6.586   4.943   6.612  0.0187  0.9006  0.9274
 6509TIP3   OH241085   3.313   6.754   7.252  0.0509  0.1619  0.0975
 6509TIP3    H141086   3.314   6.849   7.260  0.0525  0.1404  0.3755
 6509TIP3    H241087   3.399   6.726   7.283  0.9109  0.2118 -2.0619
 6510TIP3   OH241088   0.702   3.166   6.541  0.1469  0.4087 -0.2348
 6510TIP3    H141089   0.720   3.204   6.627 -2.2950  0.4997  0.3205
 6510TIP3    H241090   0.747   3.224   6.479  0.0069  1.7300  0.8529
 6511TIP3   OH241091   2.702   4.608   7.828 -0.5371 -0.0479 -0.1203
 6511TIP3    H141092   2.641   4.534   7.829 -2.0334  1.1293  0.7734
 6511TIP3    H241093   2.757   4.595   7.905 -1.7686  0.4922  0.8932
 6512TIP3   OH241094   0.339   3.736   6.911  0.0498 -0.0629 -0.4055
 6512TIP3    H141095   0.244   3.723   6.916  0.0367  0.0352 -0.4048
 6512TIP3    H241096   0.373   3.679   6.980 -0.1024  0.9160  0.4957
 6513TIP3   OH241097   3.506   1.899   1.652  0.5235  0.2365 -0.1693
 6513TIP3    H141098   3.568   1.827   1.637  0.8756  0.2934  0.9247
 6513TIP3    H241099   3.420   1.861   1.633  0.5944 -0.8383  1.4720
 6514TIP3   OH241100   1.572   1.109   1.079 -0.2700  0.0131  0.2250
 6514TIP3    H141101   1.489   1.075   1.048 -0.4183  0.9017 -0.3994
 6514TIP3    H241102   1.601   1.170   1.010  1.5342 -1.2325 -0.2077
 6515TIP3   OH241103   1.365   0.857   0.686 -0.5034 -0.6294  0.1893
 6515TIP3    H141104   1.315   0.892   0.612 -0.4301 -1.3939 -0.2278
 6515TIP3    H241105   1.442   0.817   0.645 -0.0216 -0.2906  0.7507
 6516TIP3   OH241106   0.131   5.602   6.287 -0.1206 -0.4219 -0.0089
 6516TIP3    H141107   0.101   5.515   6.264 -1.3680  0.0883 -0.3634
 6516TIP3    H241108   0.195   5.624   6.220 -1.9100  0.0646 -1.6405
 6517TIP3   OH241109   1.623   4.580   2.049  0.4502 -0.1077  0.3670
 6517TIP3    H141110   1.563   4.550   2.117  1.0706 -0.1294  0.9097
 6517TIP3    H241111   1.708   4.545   2.075  0.7806  0.2909 -0.1615
 6518TIP3   OH241112   0.826   4.374   2.157  0.2280 -0.6301  0.3289
 6518TIP3    H141113   0.812   4.467   2.171  1.2251 -0.5532  0.8947
 6518TIP3    H241114   0.741   4.334   2.173 -1.2449  0.4985 -3.4728
 6519TIP3   OH241115   1.186   5.909   1.424  0.0468 -0.3695 -0.0095
 6519TIP3    H141116   1.124   5.840   1.448 -0.2823  0.0085  0.2391
 6519TIP3    H241117   1.228   5.876   1.345 -0.4263 -0.6602 -0.1458
 6520TIP3   OH241118   2.746   0.261   0.693  0.4586  0.3721 -0.3071
 6520TIP3    H141119   2.834   0.297   0.687  0.6416 -0.1005 -0.5313
 6520TIP3    H241120   2.697   0.326   0.744  1.0150  0.4888  0.0933
 6521TIP3   OH241121   6.268   0.542   2.097  0.5084 -0.3037 -0.2721
 6521TIP3    H141122   6.279   0.457   2.139  2.6588  0.6962  1.4011
 6521TIP3    H241123   6.355   0.583   2.103  0.9937  0.1064 -5.4768
 6522TIP3   OH241124   2.300   4.964   7.832 -0.0522  0.0588 -0.0771
 6522TIP3    H141125   2.363   4.923   7.773  0.5460 -0.5383  0.9620
 6522TIP3    H241126   2.353   5.003   7.901 -0.8196 -0.6295  0.9290
 6523TIP3   OH241127   2.933   1.436   0.079 -0.4227  0.1168 -0.0761
 6523TIP3    H141128   2.989   1.417   0.004  0.8093  2.1974  0.2415
 6523TIP3    H241129   2.977   1.393   0.153 -1.7415 -2.1024 -0.4908
 6524TIP3   OH241130   3.872   4.561   7.628  0.0605  0.4344 -0.5689
 6524TIP3    H141131   3.799   4.584   7.685  0.3518 -0.7883  0.3497
 6524TIP3    H241132   3.845   4.479   7.586  1.2543 -0.6073  0.5641
 6525TIP3   OH241133   5.942   5.267   7.850 -0.2229 -1.3005 -0.3777
 6525TIP3    H141134   5.854   5.228   7.853 -0.5851 -0.5121 -0.6363
 6525TIP3    H241135   5.987   5.232   7.927 -1.6648  0.4302  1.3360
 6526TIP3   OH241136   4.145   4.096   1.726  0.1975  0.6594  0.4519
 6526TIP3    H141137   4.072   4.034   1.717 -0.0758  1.0799 -0.3593
 6526TIP3    H241138   4.197   4.061   1.798 -1.8974  1.4113  2.4710
 6527TIP3   OH241139   3.889   1.000   1.654  0.6951 -0.3241 -0.1874
 6527TIP3    H141140   3.859   0.956   1.734 -0.2208  3.1756  1.5829
 6527TIP3    H241141   3.974   0.961   1.636  0.7588 -1.5015  2.2673
 6528TIP3   OH241142   5.367   2.200   1.093 -0.4935 -0.0500  0.1632
 6528TIP3    H141143   5.337   2.110   1.109 -0.1796 -0.0085  0.9914
 6528TIP3    H241144   5.393   2.200   1.001 -0.9929 -0.6641  0.0142
 6529TIP3   OH241145   3.123   0.636   7.834 -0.3592 -0.1267  0.1492
 6529TIP3    H141146   3.057   0.601   7.773  0.9074 -0.1971 -1.2306
 6529TIP3    H241147   3.072   0.683   7.900 -1.7684  0.4875 -1.3132
 6530TIP3   OH241148   4.928   4.279   7.613  0.0743 -0.4975 -0.4736
 6530TIP3    H141149   5.002   4.304   7.668 -0.6779  3.1337 -0.8860
 6530TIP3    H241150   4.879   4.215   7.665  1.2940  0.1176  1.5201
 6531TIP3   OH241151   2.140   5.833   2.119  0.2259 -0.4044  0.1860
 6531TIP3    H141152   2.236   5.833   2.130  0.3607  0.3924 -0.9353
 6531TIP3    H241153   2.111   5.913   2.163  0.1492 -0.2553 -0.1400
 6532TIP3   OH241154   0.679   1.592   6.776 -0.0534  0.2506  0.1651
 6532TIP3    H141155   0.739   1.622   6.707  1.9676 -1.0474  1.2436
 6532TIP3    H241156   0.698   1.650   6.850  1.7386 -1.6389  1.2955
 6533TIP3   OH241157   4.631   3.628   0.531  0.1721  0.2136 -0.6938
 6533TIP3    H141158   4.587   3.617   0.615  1.3712 -1.6720 -0.2499
 6533TIP3    H241159   4.637   3.722   0.519 -0.2275  0.5204  1.2352
 6534TIP3   OH241160   3.967   3.051   1.036  0.6252 -0.6369  0.2049
 6534TIP3    H141161   4.011   3.057   0.951  0.2200  0.5361  0.0595
 6534TIP3    H241162   3.885   3.006   1.017 -0.0432  0.7274 -0.2893
 6535TIP3   OH241163   2.603   0.008   8.386 -0.4694 -0.1505 -0.3926
 6535TIP3    H141164   2.610   0.103   8.399 -1.2605 -0.3279  1.7714
 6535TIP3    H241165   2.601  -0.003   8.291  2.8209  1.6949 -0.8156
 6536TIP3   OH241166   0.602   4.024   7.408 -0.2298 -0.1994 -0.5007
 6536TIP3    H141167   0.623   3.956   7.472 -1.2436 -0.8575 -0.8424
 6536TIP3    H241168   0.681   4.032   7.355  0.4214 -0.0468  0.4667
 6537TIP3   OH241169   2.155   4.921   1.300  0.0606 -0.2387 -0.2532
 6537TIP3    H141170   2.180   4.969   1.221  1.4032 -1.2214 -0.4647
 6537TIP3    H241171   2.093   4.855   1.269 -0.0717 -0.0702 -0.3453
 6538TIP3   OH241172   0.647   2.988   8.524  0.0174  0.1103  0.1767
 6538TIP3    H141173   0.612   3.066   8.568 -1.2101 -1.4197  2.1078
 6538TIP3    H241174   0.573   2.955   8.473  0.4098 -0.0041 -0.3177
 6539TIP3   OH241175   1.284   5.997   2.147  0.1909  0.6216 -0.1792
 6539TIP3    H141176   1.190   6.008   2.134  0.2476  1.2834 -0.0465
 6539TIP3    H241177   1.324   6.073   2.105  0.6886  0.1975 -0.4913
 6540TIP3   OH241178   1.147   0.526   6.661 -0.1574  0.4213 -0.1603
 6540TIP3    H141179   1.055   0.499   6.665  0.0325 -0.0993  2.0784
 6540TIP3    H241180   1.143   0.622   6.656 -0.7980  0.3155 -2.8136
 6541TIP3   OH241181   6.677   1.889   1.188  0.1963 -0.1249  0.1264
 6541TIP3    H141182   6.705   1.945   1.260 -1.4321 -1.0324  1.5454
 6541TIP3    H241183   6.656   1.950   1.117 -0.3464  0.9749  1.1981
 6542TIP3   OH241184   4.845   2.814   8.255 -0.2736 -0.0376 -0.5433
 6542TIP3    H141185   4.938   2.809   8.277 -0.3420  2.1361  0.4979
 6542TIP3    H241186   4.802   2.839   8.336 -1.6146  0.2227 -1.2990
 6543TIP3   OH241187   5.503   4.902   8.533 -0.1411 -0.5912  0.3200
 6543TIP3    H141188   5.418   4.944   8.551  0.0066 -0.7721  1.5553
 6543TIP3    H241189   5.538   4.950   8.458 -0.8187  0.2665  0.5287
 6544TIP3   OH241190   4.882   0.754   2.088  0.6758 -0.1934 -0.6272
 6544TIP3    H141191   4.874   0.787   2.178  2.2485 -0.4906 -0.3387
 6544TIP3    H241192   4.920   0.826   2.039  1.7659 -0.6893 -0.5556
 6545TIP3   OH241193   2.982   3.381   0.237  0.4492 -0.0093  0.4538
 6545TIP3    H141194   3.068   3.418   0.219  0.6596 -0.9364 -0.5072
 6545TIP3    H241195   2.977   3.302   0.184 -1.5659  0.7766 -0.6547
 6546TIP3   OH241196   2.530   2.801   8.564  0.0682 -0.3292 -0.6573
 6546TIP3    H141197   2.442   2.832   8.586 -0.1448 -0.7008 -0.9657
 6546TIP3    H241198   2.515   2.726   8.507  0.5949  0.7374 -2.2568
 6547TIP3   OH241199   2.136   1.000   7.960  0.5480 -0.3647 -0.4911
 6547TIP3    H141200   2.070   1.030   8.023  0.4471 -1.0549 -0.2547
 6547TIP3    H241201   2.180   1.080   7.931 -0.4316  0.1227 -0.6976
 6548TIP3   OH241202   2.307   2.153   8.062  0.0602 -0.2255  0.0323
 6548TIP3    H141203   2.244   2.224   8.057  1.7247  1.2231 -2.4029
 6548TIP3    H241204   2.383   2.191   8.107  0.6060 -0.7441 -0.4309
 6549TIP3   OH241205   1.699   3.691   6.511  0.9817 -0.1999  0.2660
 6549TIP3    H141206   1.731   3.713   6.599  1.3718 -1.6658  0.5053
 6549TIP3    H241207   1.762   3.733   6.452 -0.0076  1.9243  0.6128
 6550TIP3   OH241208   5.727   2.733   0.485  0.0235 -0.6351 -0.5509
 6550TIP3    H141209   5.674   2.738   0.564 -0.3574 -1.1803 -0.7694
 6550TIP3    H241210   5.709   2.815   0.439  0.5761 -0.1162  0.1179
 6551TIP3   OH241211   4.455   6.137   0.665  0.1808 -0.1219 -0.1168
 6551TIP3    H141212   4.428   6.082   0.739 -0.9072  1.5641  0.8013
 6551TIP3    H241213   4.540   6.101   0.639  1.2136 -0.0313  2.7605
 6552TIP3   OH241214   0.966   3.848   0.025 -0.0920 -0.1581 -0.1180
 6552TIP3    H141215   1.029   3.801   0.081 -0.5397 -0.9483 -0.2570
 6552TIP3    H241216   1.018   3.881  -0.048  0.5121  0.9376  0.7835
 6553TIP3   OH241217   0.103   1.209   2.028  0.2837 -0.0595 -0.2433
 6553TIP3    H141218   0.073   1.249   2.109 -1.8336 -0.9253 -0.5306
 6553TIP3    H241219   0.025   1.165   1.993  1.3850 -0.5212 -2.2478
 6554TIP3   OH241220   3.578   3.043   0.274 -0.2102 -1.1102 -0.6434
 6554TIP3    H141221   3.512   2.996   0.325 -0.3779  0.3987  0.5838
 6554TIP3    H241222   3.652   2.981   0.268 -0.0852 -1.2775  1.6578
 6555TIP3   OH241223   2.111   3.444   0.222 -0.0059  0.4206  0.4702
 6555TIP3    H141224   2.166   3.456   0.144  0.1184 -1.0705  0.3091
 6555TIP3    H241225   2.171   3.461   0.295  0.9008 -1.7306  0.3149
 6556TIP3   OH241226   2.444   5.739   1.327  0.6856 -0.5287 -0.1104
 6556TIP3    H141227   2.465   5.709   1.239 -0.6962 -0.8419 -0.3582
 6556TIP3    H241228   2.497   5.684   1.384  2.4575  0.4403 -0.7640
 6557TIP3   OH241229   1.386   6.523   7.512 -0.2749  0.6137  0.0716
 6557TIP3    H141230   1.473   6.550   7.544 -0.9813  1.9346  0.9516
 6557TIP3    H241231   1.381   6.430   7.533  0.9234  0.5125  0.0095
 6558TIP3   OH241232   2.541   5.897   7.736 -0.4796  0.3641 -0.9616
 6558TIP3    H141233   2.607   5.926   7.799 -0.8042  1.7746 -1.2307
 6558TIP3    H241234   2.473   5.857   7.790 -0.1683  0.4073 -0.5322
 6559TIP3   OH241235   1.745   1.905   1.144  0.1518  0.5264 -0.0728
 6559TIP3    H141236   1.810   1.843   1.178 -0.0921  0.5408  0.4313
 6559TIP3    H241237   1.668   1.852   1.126 -0.0535  0.6740  0.3489
 6560TIP3   OH241238   2.573   5.080   6.133 -0.0835 -0.3639 -0.1711
 6560TIP3    H141239   2.508   5.140   6.096 -0.2614 -1.2667 -1.3971
 6560TIP3    H241240   2.650   5.092   6.077 -0.3448 -1.7335 -0.8740
 6561TIP3   OH241241   4.823   3.153   2.175  0.3410 -0.7573  0.2341
 6561TIP3    H141242   4.747   3.209   2.190  0.4972 -0.1051 -1.2289
 6561TIP3    H241243   4.787   3.072   2.139  0.2592 -0.8998  0.6315
 6562TIP3   OH241244   3.084   2.333   7.793  0.1212  0.2734 -0.3007
 6562TIP3    H141245   3.025   2.342   7.869  0.9495 -0.2277  0.4149
 6562TIP3    H241246   3.034   2.282   7.730  0.0972 -0.9243  0.6548
 6563TIP3   OH241247   2.488   3.718   0.997 -0.2258  0.0478 -0.2813
 6563TIP3    H141248   2.458   3.699   0.909  0.7725  3.5454 -1.5674
 6563TIP3    H241249   2.584   3.718   0.991 -0.1465  1.1417  0.5525
 6564TIP3   OH241250   4.761   3.963   8.719 -0.2274 -0.2836  0.3906
 6564TIP3    H141251   4.680   3.924   8.688 -0.5628  0.6328  0.0714
 6564TIP3    H241252   4.803   3.895   8.772 -0.0695 -1.5617 -1.3196
 6565TIP3   OH241253   1.957   0.082   8.443 -0.3836  0.1262  0.4677
 6565TIP3    H141254   1.876   0.031   8.436 -0.8308  1.0215 -2.0136
 6565TIP3    H241255   1.929   0.172   8.427  1.2489  0.2709 -2.0817
 6566TIP3   OH241256   1.582   5.397   1.705  0.0873  0.5502  0.1794
 6566TIP3    H141257   1.667   5.383   1.745 -1.2318 -0.0880  2.9771
 6566TIP3    H241258   1.558   5.312   1.668  0.8551  0.8799 -1.1526
 6567TIP3   OH241259   1.205   6.799   7.622  0.2919  0.2507 -0.0461
 6567TIP3    H141260   1.215   6.706   7.599 -0.3760 -0.1594  1.1993
 6567TIP3    H241261   1.291   6.825   7.652  0.1182 -0.4516  1.1450
 6568TIP3   OH241262   1.576   5.418   7.373  0.2947 -0.0262  0.4883
 6568TIP3    H141263   1.655   5.445   7.326  0.4249 -1.3126 -0.0975
 6568TIP3    H241264   1.586   5.455   7.460  2.0137 -0.8929  0.7052
 6569TIP3   OH241265   2.777   0.919   1.434  0.4428  0.1755  0.3657
 6569TIP3    H141266   2.831   0.900   1.511  1.8361  1.9040 -0.1236
 6569TIP3    H241267   2.747   1.009   1.447  2.2058  1.1893 -1.8835
 6570TIP3   OH241268   1.626   2.165   8.332 -0.9342 -0.2509  0.3218
 6570TIP3    H141269   1.614   2.106   8.257 -1.7414 -0.4979  0.6243
 6570TIP3    H241270   1.619   2.253   8.295  3.8897 -0.0496 -0.8124
 6571TIP3   OH241271   2.040   1.803   0.687 -0.5707  0.5212  0.1233
 6571TIP3    H141272   1.984   1.808   0.609  0.2749 -0.2545 -0.5519
 6571TIP3    H241273   2.129   1.801   0.652 -0.2133 -1.0031  1.0293
 6572TIP3   OH241274   5.202   6.324   1.537 -0.3021 -0.4224 -0.6795
 6572TIP3    H141275   5.268   6.393   1.545 -0.2171 -0.3070 -2.0133
 6572TIP3    H241276   5.196   6.286   1.624  0.4557  0.5408 -0.1820
 6573TIP3   OH241277   4.666   1.831   7.585 -0.2514  0.0634 -1.0510
 6573TIP3    H141278   4.577   1.803   7.565 -1.3155  1.3945  1.3732
 6573TIP3    H241279   4.704   1.757   7.633 -1.1845  0.5931  0.6005
 6574TIP3   OH241280   0.574   0.917   8.249  0.4538 -0.2464  0.0176
 6574TIP3    H141281   0.522   0.979   8.300 -0.3635 -0.9302  0.0585
 6574TIP3    H241282   0.646   0.893   8.306  2.4430  2.7427 -1.0067
 6575TIP3   OH241283   6.197   1.509   1.573 -0.3874  0.0189  0.0573
 6575TIP3    H141284   6.109   1.474   1.584  0.3072 -1.8968  0.0162
 6575TIP3    H241285   6.245   1.476   1.650  0.4307  0.5574 -0.2101
 6576TIP3   OH241286   2.748   0.912   1.834 -0.0292 -0.1453 -0.8001
 6576TIP3    H141287   2.729   0.825   1.870  0.0078  0.5040  0.8731
 6576TIP3    H241288   2.662   0.946   1.808 -0.1004 -0.5039 -1.0382
 6577TIP3   OH241289   3.814   5.966   0.297  0.0544  0.8484 -0.9149
 6577TIP3    H141290   3.808   5.951   0.392 -1.0670  1.3026 -0.9022
 6577TIP3    H241291   3.841   5.881   0.262 -0.9012  0.2713 -0.3098
 6578TIP3   OH241292   2.653   3.982   7.032  0.0571  0.3565  0.0463
 6578TIP3    H141293   2.573   3.939   7.002  1.0195 -0.1993 -1.8686
 6578TIP3    H241294   2.673   4.045   6.963  1.5721  0.0731  0.2018
 6579TIP3   OH241295   0.760   6.036   2.204 -0.7677  0.5376 -0.1705
 6579TIP3    H141296   0.803   6.101   2.259 -0.0073 -0.4918  0.4979
 6579TIP3    H241297   0.826   5.967   2.193 -0.6295  1.0146 -2.9690
 6580TIP3   OH241298   3.597   2.866   1.444  0.2485  0.4828 -0.1281
 6580TIP3    H141299   3.649   2.822   1.512  0.0119  0.7259  0.2102
 6580TIP3    H241300   3.507   2.863   1.476  0.0701  0.1955 -0.6470
 6581TIP3   OH241301   6.669   0.770   0.663 -0.2558  0.1327 -0.1663
 6581TIP3    H141302   6.603   0.706   0.688 -0.5275  0.7037  0.6396
 6581TIP3    H241303   6.640   0.802   0.577 -0.0932 -0.8359 -0.5901
 6582TIP3   OH241304   2.485   1.735   8.323 -0.0753 -0.2198 -0.3578
 6582TIP3    H141305   2.470   1.690   8.240 -1.8846  1.0846 -0.8035
 6582TIP3    H241306   2.440   1.681   8.388 -1.9813  0.6964 -0.8470
 6583TIP3   OH241307   6.523   1.753   6.461  0.0486  0.3333 -0.0822
 6583TIP3    H141308   6.540   1.818   6.394  1.2790 -0.0641 -0.1795
 6583TIP3    H241309   6.596   1.762   6.523  0.4610 -1.1840 -0.3004
 6584TIP3   OH241310   4.797   5.316   8.512  0.3866 -0.2274 -0.6297
 6584TIP3    H141311   4.870   5.304   8.573 -1.2127 -0.3046  1.3863
 6584TIP3    H241312   4.753   5.231   8.510 -1.9696  0.7905  1.5019
 6585TIP3   OH241313   0.030   2.318   8.392  0.0552  0.0271 -0.0639
 6585TIP3    H141314   0.026   2.369   8.473 -0.1547 -0.6871  0.3886
 6585TIP3    H241315  -0.054   2.335   8.349 -0.7565 -1.2390  0.9208
 6586TIP3   OH241316   4.732   5.009   7.780 -0.3178  0.7972 -0.2042
 6586TIP3    H141317   4.762   4.923   7.752 -0.0791  1.0960 -0.8778
 6586TIP3    H241318   4.798   5.070   7.747 -0.2597  1.2077  0.6243
 6587TIP3   OH241319   0.097   6.024   1.445  0.3374  0.0711 -0.1600
 6587TIP3    H141320   0.083   5.937   1.409 -2.0229  1.1998 -2.3640
 6587TIP3    H241321   0.035   6.030   1.518 -1.1943  0.5290 -1.4125
 6588TIP3   OH241322   3.386   3.828   7.515  0.0956 -0.1274  0.2652
 6588TIP3    H141323   3.351   3.905   7.471  0.2884  0.1826  0.6536
 6588TIP3    H241324   3.308   3.782   7.547 -0.1410 -0.9929 -1.3992
 6589TIP3   OH241325   2.320   0.813   0.835  0.1369 -0.7882 -0.4323
 6589TIP3    H141326   2.245   0.862   0.800 -0.1911 -0.7933  0.2615
 6589TIP3    H241327   2.311   0.725   0.798 -2.9694 -2.3314  3.3215
 6590TIP3   OH241328   1.822   2.130   0.676 -0.1836  0.0237  0.5889
 6590TIP3    H141329   1.790   2.077   0.603 -0.3452  1.0930 -0.1330
 6590TIP3    H241330   1.794   2.083   0.754  0.2353 -1.2882 -0.0190
 6591TIP3   OH241331   4.087   6.542   7.491 -0.0769 -0.0053  0.8333
 6591TIP3    H141332   4.095   6.461   7.541  0.5790 -1.3312 -1.2758
 6591TIP3    H241333   4.163   6.541   7.433 -0.2950  1.9260  0.4671
 6592TIP3   OH241334   6.733   2.902   0.686 -0.7258 -0.1336 -0.0605
 6592TIP3    H141335   6.737   2.890   0.591 -1.6727 -0.5966 -0.0494
 6592TIP3    H241336   6.778   2.985   0.701 -2.5257  1.1330 -1.1759
 6593TIP3   OH241337   6.249   0.549   0.059  0.5614 -0.4526 -0.3401
 6593TIP3    H141338   6.248   0.592   0.145 -1.1518  0.6139 -0.8395
 6593TIP3    H241339   6.207   0.464   0.074  1.2467 -0.7280  0.0699
 6594TIP3   OH241340   2.772   2.409   7.631 -0.1722 -0.1525  0.8278
 6594TIP3    H141341   2.839   2.344   7.614 -0.1621  0.0008  0.2618
 6594TIP3    H241342   2.743   2.392   7.720 -0.2502 -0.9976  0.6422
 6595TIP3   OH241343   2.921   4.944   7.305  0.4719  0.2426 -0.1332
 6595TIP3    H141344   2.961   4.945   7.392  1.6016  0.4342 -0.6305
 6595TIP3    H241345   2.837   4.901   7.317  0.3175  0.8621  1.1737
 6596TIP3   OH241346   2.755   4.368   2.107 -0.6618 -0.3928  0.0364
 6596TIP3    H141347   2.797   4.283   2.116 -1.8938 -1.0677 -0.5095
 6596TIP3    H241348   2.820   4.422   2.062  0.2081 -0.9549  0.5886
 6597TIP3   OH241349   6.648   0.923   0.158  0.3785  0.5525  0.0171
 6597TIP3    H141350   6.696   0.841   0.154  1.3655  1.1143  0.0944
 6597TIP3    H241351   6.563   0.903   0.120 -0.8943 -1.5160  3.4659
 6598TIP3   OH241352   1.664   2.282   7.261  0.3477  0.1448  0.1571
 6598TIP3    H141353   1.753   2.303   7.232  0.0507  0.3797 -0.6346
 6598TIP3    H241354   1.625   2.236   7.186  0.0080 -0.5274  0.7380
 6599TIP3   OH241355   0.938   1.582   1.424  0.0898  0.5602 -0.1306
 6599TIP3    H141356   0.897   1.516   1.480  0.0015 -1.4242 -2.3629
 6599TIP3    H241357   1.032   1.562   1.429  0.0266 -0.0441 -1.1338
 6600TIP3   OH241358   4.564   2.590   1.279 -0.3008 -0.4159  0.5506
 6600TIP3    H141359   4.560   2.509   1.330  1.0002 -1.7790 -1.3531
 6600TIP3    H241360   4.507   2.574   1.204 -1.4324  1.1737  1.0222
 6601TIP3   OH241361   1.143   6.469   1.601 -0.1414 -0.0179 -0.3960
 6601TIP3    H141362   1.083   6.414   1.550 -0.1857 -0.1702 -0.1816
 6601TIP3    H241363   1.135   6.436   1.690  0.8409 -0.5507 -0.4970
 6602TIP3   OH241364   3.909   3.400   7.580 -0.5919 -0.7780 -1.1295
 6602TIP3    H141365   3.866   3.480   7.550  0.7070  0.5004  0.2474
 6602TIP3    H241366   3.866   3.380   7.663 -0.4326 -1.1175 -1.1290
 6603TIP3   OH241367   2.866   1.209   0.973 -0.6452  0.3236  0.2394
 6603TIP3    H141368   2.944   1.156   0.986 -0.8594 -0.1859 -0.4641
 6603TIP3    H241369   2.897   1.299   0.981 -0.2682  0.1021  1.3960
 6604TIP3   OH241370   5.185   2.976   6.205  0.5244  0.5194 -0.0261
 6604TIP3    H141371   5.127   2.942   6.138 -0.2051 -0.4547  1.0630
 6604TIP3    H241372   5.137   2.965   6.287  1.5495  1.2912  0.7190
 6605TIP3   OH241373   0.122   3.108   7.102  0.0546 -0.2666 -0.0710
 6605TIP3    H141374   0.039   3.074   7.135  0.4187  0.6745  1.9523
 6605TIP3    H241375   0.100   3.148   7.018 -1.7631  0.8295  0.8597
 6606TIP3   OH241376   1.797   0.891   6.345  0.3420  0.2161  0.4824
 6606TIP3    H141377   1.877   0.892   6.397  0.9005  1.3941 -0.3585
 6606TIP3    H241378   1.826   0.909   6.255 -0.5838 -1.7584 -0.2760
 6607TIP3   OH241379   6.121   3.722   7.049  0.0377  0.3652 -0.5845
 6607TIP3    H141380   6.157   3.695   7.133 -0.0169  0.2494 -0.5970
 6607TIP3    H241381   6.056   3.789   7.071 -1.8434 -1.4482 -0.2791
 6608TIP3   OH241382   1.027   5.185   7.542  0.4170  0.8602  0.0480
 6608TIP3    H141383   0.957   5.206   7.481  0.8381  2.3480  0.0316
 6608TIP3    H241384   1.099   5.243   7.517  0.7046  1.3108  1.7464
 6609TIP3   OH241385   1.150   0.047   1.123 -0.4180 -0.3357 -0.3730
 6609TIP3    H141386   1.193  -0.038   1.114  0.1236 -0.2639  1.2179
 6609TIP3    H241387   1.103   0.042   1.206 -1.0236  0.6436 -0.6377
 6610TIP3   OH241388   3.601   6.743   7.247  0.4353  0.1004 -0.2943
 6610TIP3    H141389   3.579   6.837   7.248  0.4272  0.2064 -2.7050
 6610TIP3    H241390   3.685   6.738   7.292  0.9067  1.4384 -0.9504
 6611TIP3   OH241391   6.015   2.125   7.866  0.0978  0.0937 -0.1543
 6611TIP3    H141392   5.943   2.077   7.906  0.0348  0.8308  0.6746
 6611TIP3    H241393   6.058   2.168   7.940  1.2280 -0.1184 -0.6639
 6612TIP3   OH241394   5.866   2.611   2.591  0.1009 -0.2063  0.3246
 6612TIP3    H141395   5.770   2.606   2.595  0.1815 -2.1339  1.9473
 6612TIP3    H241396   5.890   2.548   2.523  0.2273 -0.4047  0.5509
 6613TIP3   OH241397   1.785   5.542   1.128  0.4318  0.5402  0.0658
 6613TIP3    H141398   1.744   5.459   1.103  0.2643  1.0425 -1.4511
 6613TIP3    H241399   1.859   5.516   1.182  0.3743 -0.6106 -0.3627
 6614TIP3   OH241400   2.372   1.310   6.791  0.3603  0.7040 -0.2120
 6614TIP3    H141401   2.305   1.366   6.829 -1.7671 -1.0736 -1.0876
 6614TIP3    H241402   2.402   1.254   6.863  0.6174  1.2150  0.0835
 6615TIP3   OH241403   0.024   0.087   2.016  0.2440 -0.0614  0.6969
 6615TIP3    H141404   0.044  -0.002   2.047 -0.6084  0.1833  2.0347
 6615TIP3    H241405   0.100   0.111   1.964  1.2873 -0.9355  1.7372
 6616TIP3   OH241406   4.087   6.351   1.950  0.3843  0.1869 -0.3152
 6616TIP3    H141407   4.115   6.345   1.859 -0.2144  0.4147 -0.5178
 6616TIP3    H241408   4.132   6.279   1.994 -0.2173 -0.6353 -1.0223
 6617TIP3   OH241409   6.409   1.565   0.085  0.0395  0.3312 -0.0993
 6617TIP3    H141410   6.423   1.636   0.024 -0.3852  1.1588  0.7400
 6617TIP3    H241411   6.421   1.605   0.172 -1.2742 -0.3597  0.4248
 6618TIP3   OH241412   6.566   1.325   0.275  0.5874 -0.1863  0.1448
 6618TIP3    H141413   6.540   1.291   0.361 -0.4175  0.5443  0.1429
 6618TIP3    H241414   6.507   1.282   0.213 -1.2978  2.1299  0.2230
 6619TIP3   OH241415   0.081   6.211   7.550  0.3693 -0.3605  0.4242
 6619TIP3    H141416  -0.001   6.244   7.586  0.2687  0.4475 -0.4876
 6619TIP3    H241417   0.102   6.272   7.479  2.7662  0.6026  1.8386
 6620TIP3   OH241418   5.222   3.060   8.683  0.3193  0.4053  0.2444
 6620TIP3    H141419   5.212   2.970   8.716  0.7092  0.3885  0.3268
 6620TIP3    H241420   5.133   3.095   8.682  0.1816  0.0694  0.3603
 6621TIP3   OH241421   1.905   5.319   8.147  0.1910  0.8268 -0.0694
 6621TIP3    H141422   1.856   5.370   8.083 -1.2077 -0.3211  0.0432
 6621TIP3    H241423   1.852   5.322   8.227  1.5182  1.5680  0.8256
 6622TIP3   OH241424   4.571   0.469   1.648 -0.5459  0.0312  0.8181
 6622TIP3    H141425   4.504   0.459   1.715 -0.1692  0.7525  1.3207
 6622TIP3    H241426   4.622   0.546   1.676 -1.5064  1.5149 -1.2390
 6623TIP3   OH241427   4.810   6.815   1.691 -0.0834  0.0488 -0.3666
 6623TIP3    H141428   4.874   6.755   1.729  0.1360  0.0131 -0.7834
 6623TIP3    H241429   4.790   6.877   1.761  1.4488  0.9090 -0.6362
 6624TIP3   OH241430   3.904   2.029   7.532  0.0827 -0.9697  0.5030
 6624TIP3    H141431   3.921   2.002   7.622  1.3400 -0.9595  0.2767
 6624TIP3    H241432   3.928   1.953   7.479  0.5703 -0.5354  0.0914
 6625TIP3   OH241433   5.181   2.339   0.500 -0.3768  0.0511 -0.4909
 6625TIP3    H141434   5.097   2.337   0.454 -0.2705 -0.4135 -0.6591
 6625TIP3    H241435   5.188   2.430   0.531 -1.1872 -0.0261 -0.0227
 6626TIP3   OH241436   4.597   2.960   8.068  0.3466 -0.1028  0.3546
 6626TIP3    H141437   4.617   2.867   8.065 -0.6014 -0.3492  1.0172
 6626TIP3    H241438   4.605   2.990   7.978 -1.1523 -1.2475 -0.2110
 6627TIP3   OH241439   2.047   4.347   8.170 -0.1887 -0.2412  0.3097
 6627TIP3    H141440   2.114   4.359   8.237  1.8658 -0.6152 -1.5518
 6627TIP3    H241441   2.043   4.431   8.124 -0.7011 -0.3488  0.1510
 6628TIP3   OH241442   5.519   1.639   2.428  0.6716  0.0899  0.0922
 6628TIP3    H141443   5.607   1.676   2.422  0.6295  0.1692 -0.0457
 6628TIP3    H241444   5.461   1.713   2.411  0.5411  0.2916  1.3518
 6629TIP3   OH241445   6.236   6.022   0.178 -0.1820  0.2116  0.5821
 6629TIP3    H141446   6.164   6.023   0.241  1.2118  3.1084  2.3216
 6629TIP3    H241447   6.220   6.097   0.121 -0.1817 -1.0202 -1.1491
 6630TIP3   OH241448   0.381   0.102   0.680 -0.0135 -0.2124 -0.8742
 6630TIP3    H141449   0.289   0.127   0.677 -0.3021 -0.7871  1.5935
 6630TIP3    H241450   0.385   0.016   0.637 -0.9106 -0.8990  0.3847
 6631TIP3   OH241451   1.129   5.520   6.487  0.5647  0.3448 -0.4326
 6631TIP3    H141452   1.123   5.563   6.402 -1.0049 -1.6232 -1.3915
 6631TIP3    H241453   1.093   5.432   6.473  0.9299 -0.3012  2.0987
 6632TIP3   OH241454   0.415   0.027   7.176  0.1107 -0.4588 -0.2436
 6632TIP3    H141455   0.500   0.046   7.216 -0.8245  2.8208  0.5047
 6632TIP3    H241456   0.382   0.112   7.148 -2.7600 -1.6579 -0.8898
 6633TIP3   OH241457   6.472   5.703   7.748 -0.7327  0.1235 -0.8877
 6633TIP3    H141458   6.527   5.765   7.699 -1.3337  1.2458 -0.1895
 6633TIP3    H241459   6.456   5.632   7.686  1.9076 -0.5296 -0.9688
 6634TIP3   OH241460   0.521   1.890   0.259  0.1645  0.0831  0.1625
 6634TIP3    H141461   0.426   1.899   0.246  0.1956  0.5595  0.2715
 6634TIP3    H241462   0.559   1.927   0.179  0.2982  1.2562  0.7479
 6635TIP3   OH241463   0.388   2.998   2.116 -0.2369 -0.3174  0.3031
 6635TIP3    H141464   0.361   3.064   2.180 -0.6309  0.2731 -0.4479
 6635TIP3    H241465   0.484   3.003   2.116 -0.2733  1.0683 -0.5305
 6636TIP3   OH241466   5.069   2.945   0.906 -0.0610  0.4454  0.1730
 6636TIP3    H141467   5.117   2.975   0.984  0.6293  0.4227 -0.2332
 6636TIP3    H241468   5.045   2.855   0.927 -0.2437  0.5753  0.5290
 6637TIP3   OH241469   1.017   4.177   2.224 -0.4113 -1.0102 -0.1789
 6637TIP3    H141470   0.959   4.242   2.185  0.3737 -0.3378 -0.2553
 6637TIP3    H241471   0.959   4.108   2.254 -1.2379 -0.4082 -0.3626
 6638TIP3   OH241472   4.894   6.718   7.729  0.4624 -0.3580  0.1053
 6638TIP3    H141473   4.851   6.714   7.644  0.3958  0.3740  0.0972
 6638TIP3    H241474   4.927   6.630   7.743  1.8540 -0.1214 -1.3924
 6639TIP3   OH241475   5.046   5.330   7.964  0.1903  0.3225 -0.3297
 6639TIP3    H141476   5.052   5.259   8.028  1.9240  0.7799  0.0693
 6639TIP3    H241477   5.014   5.405   8.015  0.1200  0.2963 -0.3357
 6640TIP3   OH241478   2.511   3.178   1.222  0.8115  0.6448  0.1040
 6640TIP3    H141479   2.458   3.112   1.179  2.1608 -0.6187  0.3018
 6640TIP3    H241480   2.538   3.237   1.151 -1.2374  1.6193  0.0871
 6641TIP3   OH241481   4.279   5.913   1.681  0.3689 -0.1757  0.5343
 6641TIP3    H141482   4.330   5.857   1.622  0.5142 -0.0558  0.5456
 6641TIP3    H241483   4.322   5.903   1.766  0.8893  0.5781  0.3649
 6642TIP3   OH241484   1.984   6.451   1.413  0.4565  0.1467 -0.6932
 6642TIP3    H141485   1.931   6.379   1.380 -0.6721  0.6742 -0.0942
 6642TIP3    H241486   2.068   6.442   1.368  1.8535 -3.9057  2.1238
 6643TIP3   OH241487   0.054   0.956   1.540 -0.0539 -0.2738  0.1183
 6643TIP3    H141488   0.101   0.881   1.505 -0.7668 -0.4896 -0.3935
 6643TIP3    H241489   0.033   0.932   1.630 -0.6137 -0.8526 -0.1614
 6644TIP3   OH241490   6.338   2.469   0.054  0.1626  0.1657 -0.1187
 6644TIP3    H141491   6.411   2.438   0.000 -1.5155 -1.6113 -1.5390
 6644TIP3    H241492   6.313   2.393   0.107 -0.3968  0.8749  0.6704
 6645TIP3   OH241493   4.473   5.555   1.193  0.0719 -0.0584 -0.2477
 6645TIP3    H141494   4.523   5.624   1.238 -2.4520  1.1190  0.9351
 6645TIP3    H241495   4.475   5.482   1.255  5.2760 -2.4961 -2.6823
 6646TIP3   OH241496   2.354   2.332   0.581 -0.2606  0.4527  0.6224
 6646TIP3    H141497   2.387   2.385   0.653  0.9648  1.9844 -0.9769
 6646TIP3    H241498   2.259   2.345   0.582 -0.2143  0.7711  1.6919
 6647TIP3   OH241499   5.290   6.782   6.650 -0.2506 -0.6153  0.3689
 6647TIP3    H141500   5.231   6.847   6.613  0.4518 -0.6419 -0.8541
 6647TIP3    H241501   5.258   6.698   6.615  1.5589 -0.4698 -1.8841
 6648TIP3   OH241502   2.064   3.063   0.428  0.4533 -0.2837  0.2204
 6648TIP3    H141503   2.115   3.002   0.481  1.2795  0.6328  0.5335
 6648TIP3    H241504   2.126   3.095   0.362  0.2841  0.7830  0.5506
 6649TIP3   OH241505   2.508   4.928   0.928 -0.0601 -0.1316  0.2786
 6649TIP3    H141506   2.488   4.961   0.841  0.8020 -1.2386 -0.3695
 6649TIP3    H241507   2.445   4.856   0.942 -0.4726  0.3141  0.7534
 6650TIP3   OH241508   1.502   2.743   2.650  0.1068  0.6847  0.1533
 6650TIP3    H141509   1.423   2.746   2.705 -0.4002 -1.6689 -0.3207
 6650TIP3    H241510   1.468   2.724   2.562  1.1882 -0.2956 -0.0699
 6651TIP3   OH241511   3.129   3.932   1.872  0.9638 -0.2971 -0.0417
 6651TIP3    H141512   3.054   3.977   1.834  1.2958  0.3528  0.0538
 6651TIP3    H241513   3.108   3.839   1.865  0.1714 -0.1219 -0.0506
 6652TIP3   OH241514   1.316   5.720   1.153  0.2852 -0.4121 -0.4342
 6652TIP3    H141515   1.361   5.748   1.233 -0.2070  0.1155 -0.3305
 6652TIP3    H241516   1.355   5.636   1.132  0.2059 -0.7096  0.5487
 6653TIP3   OH241517   5.500   1.945   7.100  0.4405 -0.7794  0.3539
 6653TIP3    H141518   5.412   1.983   7.096  0.4884 -0.5206  1.4803
 6653TIP3    H241519   5.518   1.919   7.010 -1.1719 -1.6941  0.2455
 6654TIP3   OH241520   4.276   3.075   0.591 -0.4075 -0.1488 -0.4572
 6654TIP3    H141521   4.181   3.088   0.592 -0.3308  0.4647 -0.5605
 6654TIP3    H241522   4.304   3.095   0.680 -0.3336  0.0529 -0.5237
 6655TIP3   OH241523   6.838   6.042   8.239  0.6477 -0.0145  0.4770
 6655TIP3    H141524   6.861   5.952   8.262  2.2060  0.9065  2.9339
 6655TIP3    H241525   6.907   6.070   8.178  0.1809 -0.4434 -0.2613
 6656TIP3   OH241526   3.777   0.629   2.619 -0.0717  0.4692  0.4892
 6656TIP3    H141527   3.729   0.668   2.546  1.4792  1.7568  0.1122
 6656TIP3    H241528   3.789   0.700   2.681  0.2280 -0.1628  1.1691
 6657TIP3   OH241529   4.797   0.969   6.951 -0.0431 -0.2325 -0.2328
 6657TIP3    H141530   4.825   0.893   7.002  1.9258  0.6974  0.1815
 6657TIP3    H241531   4.737   0.933   6.885 -0.5371 -1.8535  1.0264
 6658TIP3   OH241532   2.847   4.116   8.483  0.4148 -0.4431 -0.3902
 6658TIP3    H141533   2.907   4.150   8.549  0.9950 -0.1933 -1.0267
 6658TIP3    H241534   2.789   4.189   8.462 -0.4188 -0.8132  0.5422
 6659TIP3   OH241535   1.566   1.170   7.280  0.5080  0.0619  0.2977
 6659TIP3    H141536   1.500   1.105   7.305 -1.5518  1.5437 -0.9365
 6659TIP3    H241537   1.622   1.178   7.357 -2.0195  0.2267  2.2701
 6660TIP3   OH241538   4.273   3.317   6.375 -0.0547  0.0180 -0.3739
 6660TIP3    H141539   4.192   3.331   6.424  0.1611 -1.1235  0.3384
 6660TIP3    H241540   4.333   3.384   6.407  0.0943 -0.7278  0.9784
 6661TIP3   OH241541   0.307   2.719   1.465  0.2146  0.5086  0.2685
 6661TIP3    H141542   0.397   2.743   1.487  0.5374 -0.6909  0.3093
 6661TIP3    H241543   0.310   2.699   1.371  0.3867 -1.1528  0.5940
 6662TIP3   OH241544   2.389   6.056   7.361  1.0138 -0.3849  0.1882
 6662TIP3    H141545   2.296   6.078   7.353  1.3711  0.7606 -1.1599
 6662TIP3    H241546   2.430   6.137   7.391  1.9216 -0.0209 -1.8485
 6663TIP3   OH241547   2.800   4.995   8.687  0.5045 -0.3144 -0.3103
 6663TIP3    H141548   2.738   4.962   8.622  0.5364  0.5132 -0.7836
 6663TIP3    H241549   2.822   5.083   8.656  2.8641 -1.0246 -0.8511
 6664TIP3   OH241550   4.855   3.482   8.074 -0.2681 -0.5650  0.0728
 6664TIP3    H141551   4.905   3.401   8.085  1.8737  0.2808 -2.4910
 6664TIP3    H241552   4.868   3.529   8.156  1.2211 -1.3967  0.3385
 6665TIP3   OH241553   1.908   6.260   0.705  0.0943 -0.0116 -0.6079
 6665TIP3    H141554   1.822   6.218   0.712  0.3809 -0.3850  0.9124
 6665TIP3    H241555   1.935   6.276   0.795  2.4948 -1.7204 -0.9302
 6666TIP3   OH241556   2.431   0.747   6.728 -0.6284 -0.3960 -0.1745
 6666TIP3    H141557   2.422   0.826   6.782  0.7344 -1.9582  2.5789
 6666TIP3    H241558   2.516   0.757   6.686 -0.7351 -0.1275 -0.3300
 6667TIP3   OH241559   1.235   0.907   1.120  0.3017  0.4546  0.0673
 6667TIP3    H141560   1.167   0.964   1.084  0.0425  0.0566 -0.0788
 6667TIP3    H241561   1.277   0.869   1.043 -0.0671 -0.1830  0.1813
 6668TIP3   OH241562   4.199   4.958   8.352 -0.1478 -0.2450  0.1171
 6668TIP3    H141563   4.237   5.015   8.286  1.2208 -1.1694  0.0837
 6668TIP3    H241564   4.168   4.881   8.303 -0.5712 -0.2365  0.3608
 6669TIP3   OH241565   3.235   4.272   7.010 -0.0223 -0.1351  0.9363
 6669TIP3    H141566   3.182   4.289   6.932  1.9186  1.0184 -0.1977
 6669TIP3    H241567   3.269   4.184   6.996  0.4552  0.1322  0.3834
 6670TIP3   OH241568   2.963   3.486   1.714 -0.3429 -0.2274 -0.7585
 6670TIP3    H141569   3.023   3.429   1.666  0.8334  0.5662 -0.2783
 6670TIP3    H241570   2.955   3.444   1.800 -0.9696 -0.6541 -1.0190
 6671TIP3   OH241571   1.361   1.129   6.720 -0.0021  0.3539 -0.1851
 6671TIP3    H141572   1.369   1.127   6.625  0.9044 -2.5345 -0.1555
 6671TIP3    H241573   1.277   1.088   6.738  1.2138 -2.1703  0.2271
 6672TIP3   OH241574   2.254   5.729   0.822  0.1853 -0.4324 -0.1778
 6672TIP3    H141575   2.294   5.673   0.889 -0.7519  0.6962  1.4036
 6672TIP3    H241576   2.279   5.818   0.848 -2.0452  0.1941  0.0276
 6673TIP3   OH241577   1.383   2.694   1.925 -0.5589  0.2817  0.1826
 6673TIP3    H141578   1.342   2.696   2.012  1.2572  1.1846  1.0712
 6673TIP3    H241579   1.445   2.622   1.930  0.7554  1.3853  0.2392
 6674TIP3   OH241580   6.517   5.648   0.143  0.0176  0.3785  0.1959
 6674TIP3    H141581   6.498   5.735   0.180 -1.8244  0.1274 -0.0717
 6674TIP3    H241582   6.518   5.590   0.219 -2.6714  0.0426  0.0693
 6675TIP3   OH241583   2.147   2.576   1.887 -0.3216 -0.8694 -0.3049
 6675TIP3    H141584   2.215   2.519   1.922  0.1291  0.0142  0.2799
 6675TIP3    H241585   2.065   2.530   1.907  0.0410 -1.4327 -0.0818
 6676TIP3   OH241586   1.821   1.076   0.601  0.4925  0.2035  0.7258
 6676TIP3    H141587   1.874   1.053   0.524 -0.5168 -0.5195  0.2142
 6676TIP3    H241588   1.782   1.160   0.579 -1.0683 -0.7273 -0.2935
 6677TIP3   OH241589   4.419   1.137   0.020  0.5366 -0.0361 -0.5429
 6677TIP3    H141590   4.448   1.083   0.094  1.1640  0.8002 -0.1603
 6677TIP3    H241591   4.500   1.170  -0.018  0.1713  0.4295 -0.9270
 6678TIP3   OH241592   3.646   2.489   7.735  0.1439 -0.2027 -0.3621
 6678TIP3    H141593   3.734   2.462   7.710  0.7303  0.3662  0.9767
 6678TIP3    H241594   3.593   2.410   7.724  0.6468 -0.3463 -1.9184
 6679TIP3   OH241595   4.171   1.609   8.468  0.2843  0.2459 -0.2635
 6679TIP3    H141596   4.092   1.620   8.415 -1.1690 -0.0783  1.7048
 6679TIP3    H241597   4.239   1.586   8.406 -1.2808  0.0411 -1.9841
 6680TIP3   OH241598   5.366   3.243   7.217 -0.4432  0.3857 -0.5107
 6680TIP3    H141599   5.296   3.204   7.165 -0.4799  0.1046 -0.2509
 6680TIP3    H241600   5.397   3.317   7.164 -0.7051  0.3040 -0.7787
 6681TIP3   OH241601   0.484   1.450   8.078  0.3993 -0.2397  0.1912
 6681TIP3    H141602   0.568   1.407   8.060  0.6343  0.4840 -0.5454
 6681TIP3    H241603   0.508   1.540   8.098 -0.2622  0.3361 -1.4155
 6682TIP3   OH241604   6.546   1.298   7.618  0.2017  0.6835 -0.1865
 6682TIP3    H141605   6.571   1.218   7.664 -0.9796  0.4054 -0.0051
 6682TIP3    H241606   6.588   1.369   7.668 -1.5307  0.4365  1.7162
 6683TIP3   OH241607   1.021   0.305   7.340  0.0846  0.1389 -0.4268
 6683TIP3    H141608   1.011   0.249   7.417  0.8730 -0.7589 -0.9549
 6683TIP3    H241609   0.940   0.355   7.336 -0.2305 -0.2662  0.6189
 6684TIP3   OH241610   1.254   2.760   1.162  0.3351 -0.0313 -0.6629
 6684TIP3    H141611   1.294   2.847   1.156 -0.7098  0.5510  0.3520
 6684TIP3    H241612   1.161   2.778   1.175  0.2610 -1.2900  0.7328
 6685TIP3   OH241613   6.631   1.056   0.701 -0.3916  0.5684 -0.1239
 6685TIP3    H141614   6.601   1.056   0.792 -0.5856  2.1255 -0.1712
 6685TIP3    H241615   6.644   0.963   0.681 -2.2952  0.0239  0.8592
 6686TIP3   OH241616   5.733   4.543   0.655 -0.2191 -0.2975  0.3032
 6686TIP3    H141617   5.653   4.564   0.606 -0.0969 -0.0772  0.1953
 6686TIP3    H241618   5.783   4.625   0.654 -0.4396 -0.1391  1.2315
 6687TIP3   OH241619   1.224   4.998   2.197  0.1034 -0.1280  0.1921
 6687TIP3    H141620   1.288   4.930   2.217  0.7231  0.3910 -0.0265
 6687TIP3    H241621   1.248   5.071   2.254 -0.3755  0.0252  0.2018
 6688TIP3   OH241622   4.107   3.814   7.398  0.0064  0.0095  0.2595
 6688TIP3    H141623   4.058   3.736   7.371 -0.8682 -0.0823  1.9887
 6688TIP3    H241624   4.192   3.780   7.426  0.5308 -0.0105 -1.2498
 6689TIP3   OH241625   1.912   6.320   8.079  0.3879  0.1249 -0.7011
 6689TIP3    H141626   1.998   6.278   8.075  1.1424  1.5844 -0.4993
 6689TIP3    H241627   1.925   6.406   8.039 -0.7423  0.7327  0.1637
 6690TIP3   OH241628   6.669   0.870   7.965  0.2823 -0.3560 -0.2240
 6690TIP3    H141629   6.690   0.957   7.999 -0.7248 -0.1203 -0.1679
 6690TIP3    H241630   6.592   0.883   7.910  0.9847 -0.9796 -1.4207
 6691TIP3   OH241631   6.845   3.975   1.173  0.3616  0.5368  0.2159
 6691TIP3    H141632   6.836   4.071   1.179 -0.1353  0.4893  0.2431
 6691TIP3    H241633   6.797   3.942   1.249 -1.3701  0.1736 -0.9836
 6692TIP3   OH241634   0.999   1.453   7.405 -0.6534  0.0077 -0.5567
 6692TIP3    H141635   1.028   1.544   7.418 -0.5533 -0.0458 -0.3929
 6692TIP3    H241636   0.913   1.461   7.365 -1.5473  0.2067  1.3096
 6693TIP3   OH241637   5.915   6.293   8.549  0.1856  0.0158 -0.1496
 6693TIP3    H141638   5.958   6.370   8.586 -0.3999  0.5261 -0.5104
 6693TIP3    H241639   5.898   6.237   8.624  1.1669 -0.0385  0.0414
 6694TIP3   OH241640   3.093   1.301   6.787 -0.0546  0.5611 -0.0821
 6694TIP3    H141641   3.175   1.280   6.743  0.9093 -0.4591  2.0265
 6694TIP3    H241642   3.025   1.270   6.727  1.2049 -2.3029 -0.2021
 6695TIP3   OH241643   0.595   1.560   1.063  0.0308 -0.0470  0.8440
 6695TIP3    H141644   0.513   1.599   1.034  0.5148 -0.3114 -0.9861
 6695TIP3    H241645   0.611   1.599   1.149 -1.0690  1.4049  0.4267
 6696TIP3   OH241646   6.672   1.571   2.404 -0.3385 -0.6151 -0.5672
 6696TIP3    H141647   6.652   1.477   2.394  0.7664 -1.1830  1.9388
 6696TIP3    H241648   6.610   1.602   2.469 -0.4013  0.3195 -1.0534
 6697TIP3   OH241649   4.949   6.612   2.162 -0.3623 -0.7165  0.0353
 6697TIP3    H141650   4.911   6.526   2.181  0.8955 -1.9144 -2.4111
 6697TIP3    H241651   4.883   6.657   2.110 -0.5069 -0.7230  0.2131
 6698TIP3   OH241652   2.065   0.804   1.429  0.5477 -0.1521 -0.0727
 6698TIP3    H141653   2.047   0.718   1.390  1.3817 -1.1379  1.6045
 6698TIP3    H241654   2.035   0.796   1.520 -1.3980  2.0922 -0.4058
 6699TIP3   OH241655   0.815   1.717   0.526 -0.0318  0.1901  0.1343
 6699TIP3    H141656   0.751   1.788   0.519 -0.7983 -0.4705  0.1630
 6699TIP3    H241657   0.763   1.638   0.510  0.8184 -0.3539  0.0262
 6700TIP3   OH241658   1.803   4.449   7.761 -0.2068 -0.1073  0.5719
 6700TIP3    H141659   1.728   4.391   7.745 -0.0723 -0.7500  2.1334
 6700TIP3    H241660   1.791   4.481   7.850  0.3502  1.3786  0.1515
 6701TIP3   OH241661   6.371   3.785   6.407 -0.6238  0.2554  0.0373
 6701TIP3    H141662   6.382   3.692   6.424 -2.1902  0.0523  0.0864
 6701TIP3    H241663   6.450   3.826   6.442 -0.1670 -0.9879  0.4995
 6702TIP3   OH241664   1.206   3.106   7.505 -0.0593 -0.0230  0.3870
 6702TIP3    H141665   1.248   3.051   7.572 -0.2552  1.4428  1.7797
 6702TIP3    H241666   1.276   3.166   7.477 -0.5347  0.7912  0.8999
 6703TIP3   OH241667   6.233   6.846   7.788 -0.5535  0.2863  0.2225
 6703TIP3    H141668   6.171   6.888   7.848  0.0094  0.2604  0.8451
 6703TIP3    H241669   6.291   6.917   7.761 -0.2852  0.1296  0.3879
 6704TIP3   OH241670   4.007   3.171   0.588  0.2151 -0.7113  0.1091
 6704TIP3    H141671   4.048   3.256   0.600 -2.7657  0.7739  0.7490
 6704TIP3    H241672   3.980   3.170   0.496  2.0844 -1.9455 -0.4819
 6705TIP3   OH241673   6.651   3.597   7.216  0.2491 -0.0799 -0.6072
 6705TIP3    H141674   6.683   3.685   7.232  1.8224 -0.3809 -1.8472
 6705TIP3    H241675   6.661   3.585   7.121 -1.4781 -1.0164 -0.7038
 6706TIP3   OH241676   6.203   4.182   6.913 -0.8330  0.4086  0.3679
 6706TIP3    H141677   6.228   4.238   6.839 -0.9114 -1.0182 -0.7675
 6706TIP3    H241678   6.158   4.242   6.973  2.6702  2.5286  1.2115
 6707TIP3   OH241679   0.664   0.577   8.542 -0.0912 -0.0802 -0.0339
 6707TIP3    H141680   0.602   0.650   8.537  1.8417  1.5957 -0.7813
 6707TIP3    H241681   0.636   0.517   8.472 -0.1228  1.3132 -1.2781
 6708TIP3   OH241682   3.276   6.392   7.597  0.6212 -0.6515 -0.2841
 6708TIP3    H141683   3.302   6.383   7.689 -1.5780  0.2265  0.4947
 6708TIP3    H241684   3.187   6.429   7.601  0.3635 -0.8532 -2.7637
 6709TIP3   OH241685   0.056   2.349   0.784  0.0894 -0.4846  0.0726
 6709TIP3    H141686   0.137   2.304   0.808  0.8566  0.1049 -1.2988
 6709TIP3    H241687   0.045   2.416   0.852  0.4049 -0.9763  0.6128
 6710TIP3   OH241688   2.378   2.389   6.852 -0.0454  0.5893  0.6354
 6710TIP3    H141689   2.314   2.374   6.783 -1.2429 -1.4466  2.1019
 6710TIP3    H241690   2.336   2.451   6.912  0.8435  2.0575 -0.1918
 6711TIP3   OH241691   2.932   5.405   6.566 -0.0376  0.0690 -0.2684
 6711TIP3    H141692   2.907   5.464   6.494 -0.0803  0.0379 -0.2793
 6711TIP3    H241693   2.975   5.462   6.630  2.2860 -0.2861 -1.4083
 6712TIP3   OH241694   1.885   1.523   0.417 -0.0290 -0.1992 -0.3997
 6712TIP3    H141695   1.965   1.510   0.366  0.3153 -1.5490  0.4469
 6712TIP3    H241696   1.914   1.530   0.507 -0.9519 -2.4374  0.1310
 6713TIP3   OH241697   3.312   0.367   7.246 -0.1560 -0.4060 -0.0337
 6713TIP3    H141698   3.254   0.291   7.246  0.1198 -0.6161 -0.4562
 6713TIP3    H241699   3.314   0.396   7.155 -1.1423  0.7892  0.2920
 6714TIP3   OH241700   2.397   6.010   0.602 -0.4733  0.8486 -0.0168
 6714TIP3    H141701   2.378   6.039   0.692 -0.2713  2.0086 -0.3403
 6714TIP3    H241702   2.389   6.089   0.549  2.9843  0.9968 -0.5139
 6715TIP3   OH241703   5.369   2.317   6.532  0.1465 -0.1000  0.1871
 6715TIP3    H141704   5.437   2.253   6.512 -1.2848 -1.3746 -0.8759
 6715TIP3    H241705   5.378   2.334   6.625  2.5962  0.6227 -0.1278
 6716TIP3   OH241706   6.656   4.753   1.553  0.0021 -0.3678 -0.3759
 6716TIP3    H141707   6.741   4.792   1.573  1.3579 -2.8442 -1.0143
 6716TIP3    H241708   6.616   4.815   1.490  1.2598  0.8589 -0.0185
 6717TIP3   OH241709   6.619   0.060   1.082 -0.4704  0.0391 -0.3428
 6717TIP3    H141710   6.657   0.133   1.033  1.0460 -0.7450 -0.3942
 6717TIP3    H241711   6.643   0.078   1.173  0.1481 -0.5193 -0.3886
 6718TIP3   OH241712   2.098   0.943   0.695 -0.4485  0.0333  0.4619
 6718TIP3    H141713   2.033   0.930   0.626  0.4116 -2.1773 -0.0321
 6718TIP3    H241714   2.054   0.917   0.775  0.4467 -4.3795 -0.1954
 6719TIP3   OH241715   5.078   4.625   1.237 -0.4139  0.1157  1.0270
 6719TIP3    H141716   5.155   4.633   1.293  3.0772 -0.6108 -3.0886
 6719TIP3    H241717   5.054   4.533   1.244  3.9267 -1.7163 -2.6374
 6720TIP3   OH241718   3.305   2.429   8.375  0.1053 -0.6734  0.4237
 6720TIP3    H141719   3.274   2.339   8.381  1.4836 -1.2067  0.0767
 6720TIP3    H241720   3.355   2.442   8.456  1.8759 -1.0543 -0.5569
 6721TIP3   OH241721   4.511   5.022   1.104 -0.7234 -0.2863  0.5800
 6721TIP3    H141722   4.540   4.955   1.166 -0.7966  1.2876  2.4353
 6721TIP3    H241723   4.439   5.067   1.149  0.3653  2.0538  0.1385
 6722TIP3   OH241724   2.963   5.924   1.057 -0.1017  0.1372  0.1590
 6722TIP3    H141725   2.945   6.017   1.073  0.1668  0.2872 -0.3863
 6722TIP3    H241726   2.898   5.878   1.109 -0.9210  0.6481 -0.3873
 6723TIP3   OH241727   4.010   1.411   7.879 -0.0084 -0.4801  0.1161
 6723TIP3    H141728   4.011   1.357   7.801  0.4287  0.1684 -0.3381
 6723TIP3    H241729   4.098   1.401   7.917  0.8375  1.5525 -1.1517
 6724TIP3   OH241730   0.492   2.004   8.357  0.4087 -0.1250  0.1333
 6724TIP3    H141731   0.550   1.928   8.364  0.6939  0.1249  0.5627
 6724TIP3    H241732   0.466   2.023   8.447  1.4489  1.1239  0.2081
 6725TIP3   OH241733   0.150   6.256   6.768  0.7702  0.1682 -0.6007
 6725TIP3    H141734   0.086   6.212   6.713  0.6568 -0.1023 -0.2500
 6725TIP3    H241735   0.130   6.349   6.757 -0.8785  0.0413  0.9382
 6726TIP3   OH241736   6.846   5.500   1.377 -0.2016  0.2508  0.3493
 6726TIP3    H141737   6.889   5.496   1.292 -0.8147 -1.1808  0.0629
 6726TIP3    H241738   6.780   5.430   1.374  0.0677 -0.1478  2.1660
 6727TIP3   OH241739   4.390   2.631   6.221  0.2818  0.1742 -0.2401
 6727TIP3    H141740   4.414   2.712   6.176  1.0897 -1.2055 -2.4750
 6727TIP3    H241741   4.464   2.612   6.279  0.4435  0.6283 -0.2948
 6728TIP3   OH241742   0.752   2.066   1.527 -0.4179 -0.3887 -0.6701
 6728TIP3    H141743   0.694   2.137   1.500  0.2215  1.4483  2.3844
 6728TIP3    H241744   0.840   2.105   1.526  0.1995 -1.7054 -0.6849
 6729TIP3   OH241745   0.347   5.963   0.956  0.5806  0.0929 -0.6989
 6729TIP3    H141746   0.422   6.022   0.964  0.5235  0.3613 -1.9466
 6729TIP3    H241747   0.282   5.999   1.016  1.1233  0.3735 -0.2692
 6730TIP3   OH241748   6.465   4.876   0.964  0.4972 -0.2109  0.3740
 6730TIP3    H141749   6.552   4.902   0.932  1.6861 -2.8632  1.2197
 6730TIP3    H241750   6.480   4.846   1.053 -1.7609  1.4607  1.4029
 6731TIP3   OH241751   0.736   4.195   1.822 -0.5109  0.1980  0.5052
 6731TIP3    H141752   0.710   4.241   1.742  1.1502  0.7756  0.2440
 6731TIP3    H241753   0.660   4.143   1.847 -0.4904 -1.5807 -2.5949
 6732TIP3   OH241754   4.437   0.840   7.879 -0.2798 -0.2579  0.0453
 6732TIP3    H141755   4.531   0.831   7.896 -0.1092  1.5463  0.2166
 6732TIP3    H241756   4.429   0.830   7.784  0.1647  0.0287 -0.0270
 6733TIP3   OH241757   2.999   0.817   1.287  0.3063  0.8189  0.1620
 6733TIP3    H141758   2.923   0.852   1.334 -0.3342  0.1963 -0.3752
 6733TIP3    H241759   3.061   0.792   1.355 -0.1838  0.8722  0.6364
 6734TIP3   OH241760   2.539   2.869   7.739 -0.1598  0.9209 -0.3602
 6734TIP3    H141761   2.553   2.792   7.682 -1.7540  0.7745 -0.5936
 6734TIP3    H241762   2.576   2.843   7.823 -2.0279 -0.7600  0.0240
 6735TIP3   OH241763   4.726   1.933   1.811 -0.4524 -0.3767  0.0225
 6735TIP3    H141764   4.780   1.974   1.878 -1.8937  2.2435 -0.2539
 6735TIP3    H241765   4.659   1.886   1.860 -0.6067  0.2492  0.4297
 6736TIP3   OH241766   2.521   2.765   2.152  0.8574  0.1766  0.0847
 6736TIP3    H141767   2.428   2.748   2.141  1.2868 -1.5426 -1.4085
 6736TIP3    H241768   2.552   2.786   2.064  1.9987  0.0227  0.4251
 6737TIP3   OH241769   3.217   0.866   6.985 -0.0619 -0.0865  0.5117
 6737TIP3    H141770   3.146   0.864   6.921 -0.0516  0.3005  0.4858
 6737TIP3    H241771   3.221   0.957   7.014  2.7331  0.8684 -2.1567
 6738TIP3   OH241772   6.293   1.094   1.803  0.1666 -0.2978 -0.1023
 6738TIP3    H141773   6.367   1.034   1.786  0.8341  0.4475  0.1169
 6738TIP3    H241774   6.301   1.116   1.895  0.9672  1.4531 -0.5393
 6739TIP3   OH241775   4.143   2.095   6.154 -0.6517  0.4356 -0.0837
 6739TIP3    H141776   4.103   2.181   6.137 -0.1696  0.7050  0.1155
 6739TIP3    H241777   4.224   2.095   6.103  0.7455  1.2038  1.9635
 6740TIP3   OH241778   1.201   0.430   0.114 -0.2320  0.2549 -0.3288
 6740TIP3    H141779   1.129   0.483   0.146  0.0003  0.5019 -0.2135
 6740TIP3    H241780   1.253   0.408   0.192  0.6671  1.3583 -0.5865
 6741TIP3   OH241781   6.449   4.109   1.133  0.0369  0.0110  0.0945
 6741TIP3    H141782   6.461   4.015   1.144  0.4514  0.1108  0.5060
 6741TIP3    H241783   6.525   4.137   1.082  0.5656  0.3239  1.0364
 6742TIP3   OH241784   5.929   1.864   2.092  0.1243 -0.4116 -0.0132
 6742TIP3    H141785   5.916   1.773   2.117 -0.2348 -0.6071 -0.8742
 6742TIP3    H241786   5.850   1.909   2.123  0.1208 -0.4666  0.0590
 6743TIP3   OH241787   0.501   1.004   0.444 -0.1659 -0.4807 -0.1120
 6743TIP3    H141788   0.417   1.030   0.405  0.2044  1.4927  0.3220
 6743TIP3    H241789   0.488   1.011   0.538  0.6234  0.3223 -0.0524
 6744TIP3   OH241790   3.828   2.309   1.397  0.0821 -0.7328  0.0767
 6744TIP3    H141791   3.788   2.390   1.429 -0.8511 -1.8040  1.8242
 6744TIP3    H241792   3.875   2.335   1.318  1.1406  1.8304  1.4074
 6745TIP3   OH241793   2.718   1.144   8.404 -0.2409 -0.4418  0.3043
 6745TIP3    H141794   2.799   1.099   8.429  1.4365  1.4827 -1.2402
 6745TIP3    H241795   2.660   1.075   8.373  1.5632 -1.7286 -0.3727
 6746TIP3   OH241796   5.242   1.227   6.436 -0.4471 -0.2411 -0.6225
 6746TIP3    H141797   5.164   1.256   6.389 -0.5862 -2.1828 -1.6855
 6746TIP3    H241798   5.276   1.154   6.384  0.7634 -0.9349  1.0439
 6747TIP3   OH241799   2.979   1.843   7.396  0.5195 -0.1495  0.1568
 6747TIP3    H141800   2.937   1.885   7.472 -1.2091 -1.5963  0.0828
 6747TIP3    H241801   2.953   1.897   7.322  1.1868  0.5827  0.4543
 6748TIP3   OH241802   4.920   6.295   0.284 -0.3600  0.3157 -0.2537
 6748TIP3    H141803   4.857   6.366   0.298 -0.5047  0.2145 -0.3866
 6748TIP3    H241804   4.967   6.321   0.205 -0.5937  0.1343 -0.4531
 6749TIP3   OH241805   3.088   1.911   8.552 -0.0807 -0.0743 -0.2349
 6749TIP3    H141806   3.119   1.965   8.624 -1.1376  1.6689 -1.0239
 6749TIP3    H241807   2.993   1.920   8.554 -0.4303 -2.8726  0.2889
 6750TIP3   OH241808   5.536   0.856   6.475  0.3286 -0.7908 -0.0971
 6750TIP3    H141809   5.518   0.923   6.409 -0.5979 -0.3495  0.5716
 6750TIP3    H241810   5.629   0.838   6.466  0.7556  1.0757  0.1201
 6751TIP3   OH241811   2.242   0.874   0.351  0.3568  0.1016  0.1638
 6751TIP3    H141812   2.283   0.842   0.271  0.5262  1.2766 -0.2513
 6751TIP3    H241813   2.214   0.796   0.397  0.2198 -0.6019 -1.0621
 6752TIP3   OH241814   5.143   6.226   8.060 -0.1338  0.2784  0.1083
 6752TIP3    H141815   5.216   6.179   8.101  1.2690  1.9024 -0.4021
 6752TIP3    H241816   5.135   6.188   7.973  0.9581  0.8960 -0.2834
 6753TIP3   OH241817   0.396   3.999   1.392  0.3271  0.2288 -0.0610
 6753TIP3    H141818   0.453   4.067   1.357  0.8631  0.9734  2.1353
 6753TIP3    H241819   0.451   3.920   1.394  0.3790  0.2472 -0.5699
 6754TIP3   OH241820   5.771   5.888   1.468  0.1897 -0.4395 -0.1542
 6754TIP3    H141821   5.811   5.949   1.406  0.3282 -0.0017  0.3571
 6754TIP3    H241822   5.702   5.939   1.511 -0.2971 -0.9112 -0.3597
 6755TIP3   OH241823   5.132   0.881   0.773 -0.2442  0.6530  0.0759
 6755TIP3    H141824   5.168   0.839   0.695  0.0960 -0.5371  0.8327
 6755TIP3    H241825   5.048   0.838   0.787  1.1580 -1.6977  2.2470
 6756TIP3   OH241826   5.333   1.397   8.259  0.4650  0.4904  0.1005
 6756TIP3    H141827   5.248   1.407   8.303 -0.2407 -0.5777 -0.9695
 6756TIP3    H241828   5.396   1.385   8.331 -0.3964  0.5785  0.8814
 6757TIP3   OH241829   1.927   1.535   8.148  0.4433 -0.3555  0.0516
 6757TIP3    H141830   1.931   1.452   8.195 -1.4018 -1.1635 -1.1171
 6757TIP3    H241831   1.883   1.595   8.208 -0.3378 -0.9016  0.0373
 6758TIP3   OH241832   1.904   6.754   7.600  0.0353  0.4950 -0.2294
 6758TIP3    H141833   1.979   6.805   7.569  0.0602  0.7887  0.2921
 6758TIP3    H241834   1.943   6.675   7.638  0.1303  0.9049  0.5465
 6759TIP3   OH241835   5.487   3.073   8.346  0.1285 -0.9448  0.1512
 6759TIP3    H141836   5.562   3.028   8.385 -0.4993 -1.7239  0.4950
 6759TIP3    H241837   5.471   3.027   8.264  1.0249  0.2628 -0.7295
 6760TIP3   OH241838   1.999   3.454   8.358  0.4570  0.6626 -0.0983
 6760TIP3    H141839   1.962   3.536   8.390 -0.7112  0.2930 -0.4526
 6760TIP3    H241840   2.064   3.480   8.293 -1.4978  1.3012 -1.9022
 6761TIP3   OH241841   3.843   2.144   6.936  0.3830  0.4318  0.1941
 6761TIP3    H141842   3.763   2.108   6.896  0.9933 -0.6473 -0.0985
 6761TIP3    H241843   3.894   2.176   6.862  1.6469 -1.8306 -0.0169
 6762TIP3   OH241844   0.647   4.393   7.304  0.5246  0.3782  0.1314
 6762TIP3    H141845   0.700   4.375   7.381 -0.0202 -1.3544  0.1291
 6762TIP3    H241846   0.710   4.423   7.238  1.2783 -0.1122  0.6216
 6763TIP3   OH241847   0.350   0.797   8.123  0.6259  0.1522  0.0387
 6763TIP3    H141848   0.436   0.832   8.147  1.7675 -2.1578 -0.4512
 6763TIP3    H241849   0.326   0.740   8.195 -0.0102 -0.0563 -0.3285
 6764TIP3   OH241850   3.748   2.169   0.175  0.5683 -0.1486  0.0258
 6764TIP3    H141851   3.679   2.110   0.204  1.1630 -1.4077 -0.9800
 6764TIP3    H241852   3.828   2.133   0.214  0.9290  0.0137 -0.5561
 6765TIP3   OH241853   1.470   0.145   0.720  0.1263 -0.3109 -0.1334
 6765TIP3    H141854   1.414   0.199   0.665 -0.0338 -1.1199 -0.7887
 6765TIP3    H241855   1.460   0.056   0.685  0.4278 -0.7591  0.8761
 6766TIP3   OH241856   3.104   5.396   8.388  0.1128  0.2725  0.1832
 6766TIP3    H141857   3.118   5.412   8.295 -1.6472  1.6295  0.1060
 6766TIP3    H241858   3.011   5.412   8.402 -0.0653 -1.7781  1.8414
 6767TIP3   OH241859   1.982   4.475   1.820  0.9137  0.0930 -0.0387
 6767TIP3    H141860   1.912   4.425   1.779  0.0945  1.8853 -0.9460
 6767TIP3    H241861   1.955   4.483   1.912  0.9736 -0.9505  0.0764
 6768TIP3   OH241862   0.513   5.028   8.154 -0.3425 -0.4545  0.3342
 6768TIP3    H141863   0.515   4.952   8.213  0.2687  0.2754  1.2758
 6768TIP3    H241864   0.544   4.994   8.070 -2.1762 -1.7517  0.1137
 6769TIP3   OH241865   2.020   5.751   7.340  0.5402 -0.5896 -0.0298
 6769TIP3    H141866   1.981   5.772   7.425 -0.4207  0.3029 -0.6591
 6769TIP3    H241867   2.102   5.707   7.361 -0.5557 -2.1203  1.3626
 6770TIP3   OH241868   0.302   1.659   1.090 -0.4221  0.2074 -0.6501
 6770TIP3    H141869   0.292   1.582   1.034  1.5300  1.2231 -2.5475
 6770TIP3    H241870   0.239   1.722   1.056 -1.8727 -0.4016  0.7708
 6771TIP3   OH241871   6.213   0.114   0.847  0.4325  0.1665 -0.3607
 6771TIP3    H141872   6.209   0.204   0.881 -0.8695 -0.1042  0.2642
 6771TIP3    H241873   6.278   0.071   0.902  0.9466  0.6776 -0.5596
 6772TIP3   OH241874   3.166   6.223   2.428 -0.6422  0.1703  0.4073
 6772TIP3    H141875   3.188   6.244   2.519 -0.6315 -0.4288  0.5443
 6772TIP3    H241876   3.085   6.271   2.411 -0.8433 -0.0089  0.8513
 6773TIP3   OH241877   2.184   4.468   7.416 -0.1169 -0.0148  0.5110
 6773TIP3    H141878   2.239   4.483   7.493 -0.3154  0.8800  0.4892
 6773TIP3    H241879   2.105   4.426   7.451 -0.2835  0.5539  0.8197
 6774TIP3   OH241880   1.745   0.354   8.690 -0.4282  0.0637 -0.0741
 6774TIP3    H141881   1.786   0.356   8.604 -2.4056 -0.7846 -1.1129
 6774TIP3    H241882   1.804   0.304   8.745  0.7606  0.4282 -0.9854
 6775TIP3   OH241883   3.684   0.102   1.834  0.0615  0.1605  0.5782
 6775TIP3    H141884   3.601   0.148   1.847 -0.6973 -1.2016  0.7260
 6775TIP3    H241885   3.747   0.149   1.890 -0.4214  1.6137 -0.0337
 6776TIP3   OH241886   2.094   1.631   7.652  0.4325  0.1920 -0.5057
 6776TIP3    H141887   2.185   1.645   7.678  0.4587  1.0548 -1.0369
 6776TIP3    H241888   2.044   1.651   7.731  0.7127 -0.6125 -0.1095
 6777TIP3   OH241889   5.454   4.313   8.200  0.1370  0.2497 -0.0961
 6777TIP3    H141890   5.512   4.389   8.197  0.6950  0.0770  2.8727
 6777TIP3    H241891   5.512   4.238   8.187  0.1752  0.2048  0.3046
 6778TIP3   OH241892   1.824   4.290   7.280 -0.1570  0.5056  0.2436
 6778TIP3    H141893   1.818   4.361   7.216 -2.7056  2.4768  2.3672
 6778TIP3    H241894   1.733   4.277   7.309  0.7513 -0.8226  2.8115
 6779TIP3   OH241895   1.458   1.593   8.037 -0.0916  0.7036  0.6333
 6779TIP3    H141896   1.432   1.501   8.044 -0.1152  0.4992 -1.6606
 6779TIP3    H241897   1.537   1.592   7.984 -1.2171  2.1373 -1.1803
 6780TIP3   OH241898   0.906   2.419   0.592 -0.6742  1.2039  0.2653
 6780TIP3    H141899   0.811   2.416   0.589 -0.7751  1.6407  1.8345
 6780TIP3    H241900   0.935   2.377   0.511 -2.1727 -0.4459  0.5377
 6781TIP3   OH241901   2.957   5.747   0.861  0.1660  0.5904 -0.1006
 6781TIP3    H141902   2.972   5.815   0.927  0.3547 -0.4020  0.9247
 6781TIP3    H241903   2.932   5.670   0.912  0.4443 -0.2454 -1.1941
 6782TIP3   OH241904   5.521   4.323   8.671 -0.1909  0.6903 -0.2348
 6782TIP3    H141905   5.572   4.242   8.661 -1.1312  0.1795 -1.1372
 6782TIP3    H241906   5.587   4.392   8.673  0.6389 -0.0837  0.6103
 6783TIP3   OH241907   5.920   1.517   7.916 -0.9966 -0.2168 -0.0265
 6783TIP3    H141908   5.837   1.564   7.911 -1.6771 -1.4094 -0.4279
 6783TIP3    H241909   5.947   1.526   8.007 -1.3427  0.5291  0.0119
 6784TIP3   OH241910   1.935   1.426   1.309 -0.0409 -0.7874  0.0350
 6784TIP3    H141911   1.959   1.506   1.356  1.6676 -0.8338 -0.6794
 6784TIP3    H241912   1.841   1.417   1.324  0.0127  0.5050  1.4069
 6785TIP3   OH241913   0.674   0.592   0.949  0.1332  0.6683 -0.0244
 6785TIP3    H141914   0.601   0.533   0.930 -0.0331  0.6164  0.7731
 6785TIP3    H241915   0.637   0.660   1.005  0.5980  0.8765  0.0384
 6786TIP3   OH241916   6.749   3.188   1.178 -0.2159  0.4331 -0.3206
 6786TIP3    H141917   6.820   3.124   1.189 -0.0906  0.5921 -0.2007
 6786TIP3    H241918   6.784   3.269   1.214  0.4807  1.1658 -2.4703
 6787TIP3   OH241919   2.688   2.481   1.732 -0.6174 -0.0503  0.1199
 6787TIP3    H141920   2.652   2.543   1.669 -0.4084 -1.7291 -1.7431
 6787TIP3    H241921   2.780   2.505   1.740 -0.8820  0.8461  0.6796
 6788TIP3   OH241922   3.268   6.636   6.636  0.2124  0.0417  0.1312
 6788TIP3    H141923   3.350   6.685   6.638 -0.2354  0.7772  1.0472
 6788TIP3    H241924   3.290   6.552   6.678  1.0406 -0.6982 -1.6770
 6789TIP3   OH241925   6.205   6.112   6.814 -0.8217  0.4097  0.2645
 6789TIP3    H141926   6.142   6.182   6.833 -1.9763  0.1852 -2.3522
 6789TIP3    H241927   6.175   6.074   6.732  2.2832 -0.2686 -0.7002
 6790TIP3   OH241928   2.090   5.965   6.814  0.3799 -0.5131  0.2727
 6790TIP3    H141929   1.999   5.938   6.800  0.2804  0.3813 -0.9845
 6790TIP3    H241930   2.135   5.883   6.834 -0.7600 -0.9137  1.3268
 6791TIP3   OH241931   6.675   3.850   7.301 -0.0602  0.3177  0.5177
 6791TIP3    H141932   6.600   3.910   7.297 -1.4306 -1.3983 -1.8019
 6791TIP3    H241933   6.724   3.868   7.221  0.1045 -0.8822  0.3354
 6792TIP3   OH241934   6.129   3.993   8.399 -0.2419 -0.0318 -0.8212
 6792TIP3    H141935   6.178   3.955   8.472  1.4319  1.0072 -1.3441
 6792TIP3    H241936   6.134   4.088   8.414  0.7098  0.2297 -2.6131
 6793TIP3   OH241937   2.805   0.011   7.542 -0.5138 -0.2548 -0.1247
 6793TIP3    H141938   2.715   0.002   7.575  0.2031 -2.3596  1.4731
 6793TIP3    H241939   2.858   0.026   7.620  0.5817  0.8292 -1.0362
 6794TIP3   OH241940   5.569   1.622   7.043 -0.0627  0.4984  0.5054
 6794TIP3    H141941   5.628   1.667   6.983 -0.0068 -1.7935 -1.3215
 6794TIP3    H241942   5.626   1.567   7.097 -0.2763  0.9952  1.2487
 6795TIP3   OH241943   2.930   3.861   0.083 -0.2195 -0.6918 -0.4802
 6795TIP3    H141944   2.878   3.885   0.006  1.1755  1.7092 -0.8016
 6795TIP3    H241945   2.873   3.880   0.158 -0.7423 -0.6975 -0.8757
 6796TIP3   OH241946   4.262   1.372   7.939 -0.1050 -0.9923 -0.2283
 6796TIP3    H141947   4.323   1.302   7.962 -1.8403 -2.5199 -0.0536
 6796TIP3    H241948   4.312   1.428   7.880  1.5535 -2.0035  0.1368
 6797TIP3   OH241949   2.886   6.303   1.334 -0.0970  0.4434 -0.0930
 6797TIP3    H141950   2.850   6.228   1.382 -2.3999  2.3454  1.3690
 6797TIP3    H241951   2.932   6.354   1.401 -2.1078  2.3961 -0.0926
 6798TIP3   OH241952   2.249   5.436   7.142  0.8961  0.2920  0.1240
 6798TIP3    H141953   2.213   5.441   7.231 -1.0997  1.0211 -0.6497
 6798TIP3    H241954   2.199   5.366   7.100  1.6687  0.0987 -0.4924
 6799TIP3   OH241955   3.618   3.990   0.507  0.4290  0.5455 -0.1472
 6799TIP3    H141956   3.672   4.054   0.460  0.3330  0.0323 -0.9817
 6799TIP3    H241957   3.583   3.933   0.438  0.2263 -0.1903  0.5462
 6800TIP3   OH241958   3.702   5.961   7.415  0.0632  0.1151 -0.2056
 6800TIP3    H141959   3.627   5.922   7.460 -0.4369  2.0769  0.7456
 6800TIP3    H241960   3.667   5.995   7.333 -0.1047  1.0065  0.2258
 6801TIP3   OH241961   5.372   2.956   0.252 -0.6516 -0.0029  0.1629
 6801TIP3    H141962   5.423   2.881   0.285 -0.0946  0.1733 -0.2800
 6801TIP3    H241963   5.309   2.917   0.192 -1.7183 -0.3341  1.4530
 6802TIP3   OH241964   3.374   4.710   0.163  0.3414 -0.4535 -0.1701
 6802TIP3    H141965   3.383   4.769   0.088 -0.6889 -0.2364 -0.1490
 6802TIP3    H241966   3.409   4.626   0.133  4.2531  0.7259  0.6192
 6803TIP3   OH241967   4.072   6.475   8.556  0.3089 -0.1786  0.0676
 6803TIP3    H141968   4.003   6.509   8.614  0.4856 -0.2335  0.3137
 6803TIP3    H241969   4.034   6.398   8.515  0.1328 -0.0578  0.0024
 6804TIP3   OH241970   4.097   2.181   6.658  0.6616  0.4156  0.0537
 6804TIP3    H141971   4.166   2.202   6.594  0.7922 -2.2162 -0.7660
 6804TIP3    H241972   4.026   2.145   6.606  0.3605 -0.8267  1.2650
 6805TIP3   OH241973   3.092   2.001   7.774 -0.0508 -0.0721  0.4943
 6805TIP3    H141974   3.036   2.061   7.725  0.9646  0.0085 -0.6040
 6805TIP3    H241975   3.079   2.024   7.865 -1.1166  0.5416  0.1962
 6806TIP3   OH241976   1.257   6.841   0.188  0.3032 -0.3254 -0.3669
 6806TIP3    H141977   1.200   6.798   0.252  1.0963 -0.2177  0.4349
 6806TIP3    H241978   1.197   6.884   0.127 -0.4825  0.1962  0.7366
 6807TIP3   OH241979   3.293   1.375   7.121  0.4407 -0.0848 -0.5926
 6807TIP3    H141980   3.235   1.444   7.089  1.3935  1.2376  0.4162
 6807TIP3    H241981   3.343   1.416   7.192  1.6069 -1.5823 -0.4861
 6808TIP3   OH241982   1.198   2.321   7.709 -0.3680  0.2527  0.0115
 6808TIP3    H141983   1.213   2.251   7.773  0.9333  0.8332  0.3833
 6808TIP3    H241984   1.137   2.284   7.647  0.5311 -1.3477  0.0196
 6809TIP3   OH241985   2.816   5.947   6.250 -0.3206 -0.0612  0.1494
 6809TIP3    H141986   2.763   5.940   6.170 -0.8800 -0.0069  0.5111
 6809TIP3    H241987   2.752   5.949   6.321  0.1765 -4.3916  0.9978
 6810TIP3   OH241988   4.971   5.315   0.326 -0.1066  0.3639  0.6635
 6810TIP3    H141989   4.983   5.347   0.236  1.0751  0.7956  0.9558
 6810TIP3    H241990   5.031   5.242   0.334 -0.6351 -0.0478  0.9293
 6811TIP3   OH241991   1.652   5.309   1.051 -0.4173 -0.4246  0.5947
 6811TIP3    H141992   1.656   5.226   1.100  1.1577 -0.2527  0.8372
 6811TIP3    H241993   1.624   5.284   0.963 -0.2359 -1.1805  0.7435
 6812TIP3   OH241994   3.415   1.807   7.018  0.5518  0.2846  0.0492
 6812TIP3    H141995   3.490   1.747   7.024  0.4473  0.2667  2.3148
 6812TIP3    H241996   3.339   1.752   7.032  0.2779  0.6107 -0.1383
 6813TIP3   OH241997   1.673   0.976   7.659 -0.1662  0.4719 -0.2173
 6813TIP3    H141998   1.721   0.893   7.657  0.1027  0.6374 -0.9780
 6813TIP3    H241999   1.585   0.952   7.688 -0.5867 -0.3539 -2.0341
 6814TIP3   OH242000   4.060   2.696   0.868 -0.0852  0.1690 -0.0935
 6814TIP3    H142001   4.098   2.765   0.814  0.8187  0.0682  0.3945
 6814TIP3    H242002   4.126   2.679   0.936 -0.3657 -1.0472 -0.0999
 6815TIP3   OH242003   5.894   6.752   8.170  0.2517  0.2618 -0.1678
 6815TIP3    H142004   5.953   6.710   8.108  0.1758  0.0254 -0.0799
 6815TIP3    H242005   5.909   6.706   8.253  1.0116  1.1619  0.2162
 6816TIP3   OH242006   0.354   3.189   7.545  1.0165  0.0950  0.4943
 6816TIP3    H142007   0.405   3.262   7.512  0.0051  0.8693  0.6119
 6816TIP3    H242008   0.302   3.159   7.471 -0.3017  1.0131  1.0182
 6817TIP3   OH242009   4.677   5.946   1.517 -0.8265  0.5292  0.3753
 6817TIP3    H142010   4.611   5.963   1.585 -1.7239  0.3225 -0.4167
 6817TIP3    H242011   4.756   5.991   1.548 -0.7159 -0.8819  2.3340
 6818TIP3   OH242012   4.394   5.075   8.109 -0.5450 -0.2009 -0.1138
 6818TIP3    H142013   4.455   5.097   8.179 -2.5540  1.7739  1.1629
 6818TIP3    H242014   4.434   5.112   8.030  0.3602  0.1856  0.5022
 6819TIP3   OH242015   5.104   4.363   7.379 -0.1099 -0.5524  0.4137
 6819TIP3    H142016   5.027   4.305   7.385 -0.7029  0.1268 -0.3810
 6819TIP3    H242017   5.092   4.427   7.449  0.7625 -1.6034  1.5692
 6820TIP3   OH242018   2.637   0.162   1.302 -0.0876 -0.4869  0.8399
 6820TIP3    H142019   2.731   0.159   1.321 -0.0170  0.0126  0.6020
 6820TIP3    H242020   2.620   0.083   1.250  0.5805  0.3244 -0.6969
 6821TIP3   OH242021   5.107   6.482   8.128  0.5099  0.1656 -0.2983
 6821TIP3    H142022   5.129   6.390   8.116  0.7661  0.0908  0.6392
 6821TIP3    H242023   5.126   6.499   8.220 -1.3423  0.6572  0.0432
 6822TIP3   OH242024   5.849   2.228   6.967  0.3337 -0.2278  0.7192
 6822TIP3    H142025   5.945   2.229   6.967  0.3557 -0.4763 -0.5543
 6822TIP3    H242026   5.824   2.314   6.934  0.1446 -0.3892  0.4301
 6823TIP3   OH242027   0.127   1.394   7.704 -0.3212  0.0708  0.4561
 6823TIP3    H142028   0.209   1.347   7.715  0.2011  0.8897  0.1240
 6823TIP3    H242029   0.060   1.333   7.734  0.4900 -0.2048  1.7524
 6824TIP3   OH242030   2.895   3.711   1.555  0.4546  0.0299 -0.1577
 6824TIP3    H142031   2.902   3.657   1.477  0.9871  1.1476 -0.9038
 6824TIP3    H242032   2.904   3.649   1.628  1.2584 -0.8634 -0.9917
 6825TIP3   OH242033   5.504   0.658   8.268  0.4156 -0.2184 -0.2305
 6825TIP3    H142034   5.572   0.726   8.273  1.0017 -0.8489  0.5874
 6825TIP3    H242035   5.552   0.578   8.246  0.1105 -0.9038  1.4686
 6826TIP3   OH242036   4.992   6.650   1.816 -0.5070  0.4313  0.2956
 6826TIP3    H142037   5.026   6.564   1.790  1.5479  0.8649  1.3343
 6826TIP3    H242038   4.997   6.650   1.912  3.5501  3.0651  0.3467
 6827TIP3   OH242039   5.425   0.238   0.127 -0.3923 -0.6000  0.3193
 6827TIP3    H142040   5.427   0.279   0.041 -0.4595  0.8011  0.9498
 6827TIP3    H242041   5.413   0.145   0.110  0.8392 -0.5182 -1.2220
 6828TIP3   OH242042   3.877   1.996   8.180  0.2715  0.2950 -0.0240
 6828TIP3    H142043   3.910   2.018   8.093  1.6951 -0.7133  0.2351
 6828TIP3    H242044   3.826   1.916   8.167  2.5210 -1.2889  0.3944
 6829TIP3   OH242045   4.891   0.902   1.725  0.4472  0.6821  0.3873
 6829TIP3    H142046   4.863   0.816   1.693 -0.8545  1.0030  0.6272
 6829TIP3    H242047   4.865   0.903   1.817 -0.3565  1.6721  0.1592
 6830TIP3   OH242048   1.049   1.502   0.455  0.8334  0.1858  0.2945
 6830TIP3    H142049   1.033   1.547   0.538 -1.7348 -1.8126  1.0023
 6830TIP3    H242050   0.965   1.462   0.432  2.5790 -3.2180 -0.8616
 6831TIP3   OH242051   1.549   3.015   0.511  0.4457  0.3184  0.3123
 6831TIP3    H142052   1.518   3.098   0.474  0.8940 -0.1382 -1.1379
 6831TIP3    H242053   1.644   3.022   0.509  0.6745 -1.6869 -3.4962
 6832TIP3   OH242054   2.083   0.049   8.712 -0.5128 -0.4614  0.0277
 6832TIP3    H142055   2.155  -0.013   8.702 -1.0307 -1.0916  0.1711
 6832TIP3    H242056   2.045   0.056   8.625 -0.4411 -0.3204  0.0069
 6833TIP3   OH242057   2.106   4.867   8.667 -0.0997  0.4275 -0.2836
 6833TIP3    H142058   2.038   4.825   8.615 -0.7907  1.0234  0.1207
 6833TIP3    H242059   2.090   4.961   8.658  1.1570  0.6074 -0.8136
 6834TIP3   OH242060   1.931   2.834   8.049 -0.0997 -0.7572 -0.5635
 6834TIP3    H142061   1.920   2.847   7.955 -1.2417 -0.4224 -0.3941
 6834TIP3    H242062   2.021   2.803   8.058 -0.1200 -1.2387 -1.8088
 6835TIP3   OH242063   2.894   3.056   7.739 -0.0095 -0.1853 -0.3056
 6835TIP3    H142064   2.983   3.024   7.729  0.7763  2.4130 -2.9243
 6835TIP3    H242065   2.857   3.053   7.651 -1.7713  0.7910  0.3389
 6836TIP3   OH242066   2.329   4.204   7.463  0.0509  0.8575  0.3549
 6836TIP3    H142067   2.364   4.159   7.540  1.1282  0.7756 -0.1581
 6836TIP3    H242068   2.279   4.277   7.499  0.1284  0.5362  1.1422
 6837TIP3   OH242069   1.811   0.496   7.773  0.5036  0.0795  0.1800
 6837TIP3    H142070   1.880   0.476   7.709  2.8195 -0.9223  2.7464
 6837TIP3    H242071   1.852   0.559   7.832 -0.4038 -1.1966  2.2977
 6838TIP3   OH242072   5.062   0.156   0.313  0.0786  0.0230  0.0340
 6838TIP3    H142073   5.066   0.161   0.217 -0.9260 -1.2548 -0.0950
 6838TIP3    H242074   5.124   0.088   0.337 -1.9645 -1.9611 -0.0078
 6839TIP3   OH242075   0.668   3.692   7.064 -0.2030 -0.2524 -0.1854
 6839TIP3    H142076   0.689   3.600   7.050 -0.0379  0.0126 -2.0076
 6839TIP3    H242077   0.573   3.698   7.054 -0.4752 -0.4832  1.8473
 6840TIP3   OH242078   6.356   5.598   8.300 -0.5375 -0.3008 -0.1922
 6840TIP3    H142079   6.429   5.537   8.291 -0.4774 -0.1880 -0.4605
 6840TIP3    H242080   6.279   5.542   8.310 -0.3719 -0.4196  0.4447
 6841TIP3   OH242081   1.191   6.498   0.210 -0.3687 -0.2352  0.6479
 6841TIP3    H142082   1.162   6.517   0.121  2.6621  2.5896  0.0655
 6841TIP3    H242083   1.217   6.406   0.207  3.8228  0.6875 -2.9757
 6842TIP3   OH242084   4.984   5.341   0.009  0.7464 -0.1587 -0.4048
 6842TIP3    H142085   4.941   5.424   0.027 -1.8038 -1.2528 -0.9722
 6842TIP3    H242086   5.068   5.365  -0.030  0.0174  2.1348 -0.6917
 6843TIP3   OH242087   5.252   0.982   6.235 -0.1151  0.2694  0.0710
 6843TIP3    H142088   5.330   1.038   6.235  0.4998 -0.5746 -0.2501
 6843TIP3    H242089   5.202   1.011   6.159  0.4981 -0.0014 -0.4490
 6844TIP3   OH242090   2.018   5.966   1.342 -0.1106  0.4967  0.0275
 6844TIP3    H142091   2.087   6.022   1.305 -0.5750 -0.6593 -2.8782
 6844TIP3    H242092   2.053   5.878   1.335 -1.4411 -0.0119 -0.4386
 6845TIP3   OH242093   4.192   6.757   7.800 -0.0214 -0.0372 -0.4804
 6845TIP3    H142094   4.114   6.745   7.746  0.4862  1.8130 -1.7248
 6845TIP3    H242095   4.226   6.843   7.775  2.2882 -0.6690  0.1733
 6846TIP3   OH242096   6.473   3.233   2.099  0.3611  0.0281 -0.1559
 6846TIP3    H142097   6.384   3.197   2.106  0.2676  0.2876  0.0227
 6846TIP3    H242098   6.489   3.271   2.185  0.9448 -0.7025  0.0680
 6847TIP3   OH242099   0.218   6.774   7.371 -0.7103  0.5192 -0.3156
 6847TIP3    H142100   0.292   6.754   7.315 -0.8956  1.7228 -1.0154
 6847TIP3    H242101   0.148   6.716   7.340  0.0480 -1.0426  0.7244
 6848TIP3   OH242102   6.283   4.086   0.879  0.2214  0.2783 -0.3430
 6848TIP3    H142103   6.319   4.032   0.949  0.6569  0.4576 -0.4265
 6848TIP3    H242104   6.317   4.174   0.896  0.6721  0.2392 -1.0132
 6849TIP3   OH242105   1.558   6.677   8.344  0.4314 -0.4442 -0.4404
 6849TIP3    H142106   1.541   6.595   8.299 -0.2537 -0.7444  0.3494
 6849TIP3    H242107   1.476   6.726   8.336  0.0686 -0.7734  1.0290
 6850TIP3   OH242108   0.427   1.301   0.316  0.7333 -0.1376  0.1987
 6850TIP3    H142109   0.366   1.231   0.338  0.3343 -0.3951 -1.6287
 6850TIP3    H242110   0.395   1.376   0.366 -0.9255 -0.3478 -0.4716
 6851TIP3   OH242111   4.962   1.335   0.987  0.2575 -0.2148  0.2881
 6851TIP3    H142112   4.876   1.300   0.962  0.7902 -0.8873 -0.6744
 6851TIP3    H242113   4.995   1.376   0.907  1.1706 -0.6837  0.4122
 6852TIP3   OH242114   6.535   6.400   8.502  0.0072 -0.3966  0.2775
 6852TIP3    H142115   6.524   6.305   8.501  3.4134 -0.9747  2.3689
 6852TIP3    H242116   6.571   6.420   8.416 -2.1765 -0.6434 -0.7805
 6853TIP3   OH242117   3.494   0.132   7.278  0.3371 -0.4723  0.5030
 6853TIP3    H142118   3.515   0.215   7.234  1.0390 -1.1708 -0.5218
 6853TIP3    H242119   3.451   0.159   7.359  1.1680  0.9248  0.5305
 6854TIP3   OH242120   4.784   4.731   1.248 -0.3955 -0.2658 -0.1742
 6854TIP3    H142121   4.851   4.666   1.225  1.6578  2.7290 -3.7135
 6854TIP3    H242122   4.721   4.727   1.176 -1.0481  0.6528  0.3318
 6855TIP3   OH242123   5.094   4.959   7.316  0.2406  0.1511  0.2060
 6855TIP3    H142124   5.077   5.049   7.346  1.8666  0.5751 -0.0340
 6855TIP3    H242125   5.136   4.970   7.231  1.7909 -0.7589  0.8185
 6856TIP3   OH242126   4.858   1.663   7.745 -0.0305 -0.0034 -0.0459
 6856TIP3    H142127   4.939   1.714   7.753  0.2668 -0.7118  2.0647
 6856TIP3    H242128   4.873   1.608   7.668  0.8581  0.9543 -0.5943
 6857TIP3   OH242129   4.536   4.692   1.110 -0.3893 -1.3277 -0.2012
 6857TIP3    H142130   4.472   4.678   1.039 -1.1615 -0.3546  0.2773
 6857TIP3    H242131   4.487   4.741   1.176  1.3005  0.9235 -0.5176
 6858TIP3   OH242132   4.556   2.787   1.534 -0.2203 -0.1640  0.1027
 6858TIP3    H142133   4.628   2.800   1.596  0.2436  2.8849 -0.8841
 6858TIP3    H242134   4.585   2.715   1.478  1.4398  0.0710  0.5967
 6859TIP3   OH242135   1.778   3.829   0.106  0.1606  0.3170  0.2952
 6859TIP3    H142136   1.871   3.809   0.106  0.2421  0.5703 -1.2483
 6859TIP3    H242137   1.744   3.785   0.184  1.1111 -2.0385 -0.5222
 6860TIP3   OH242138   0.000   2.491   8.638 -0.1850 -0.3111 -0.1004
 6860TIP3    H142139  -0.037   2.458   8.720 -2.0594  0.0612 -0.7412
 6860TIP3    H242140  -0.016   2.585   8.640 -0.0518 -0.2683 -0.7863
 6861TIP3   OH242141   4.919   6.030   8.697  0.4139  0.2078 -0.4923
 6861TIP3    H142142   4.833   6.069   8.682 -0.2696 -0.7406  0.7553
 6861TIP3    H242143   4.928   5.965   8.627 -0.0277  0.1113 -0.4660
 6862TIP3   OH242144   2.925   6.818   0.202  0.1996  0.7649  0.5983
 6862TIP3    H142145   2.997   6.880   0.191  0.8674 -0.3852 -2.7467
 6862TIP3    H242146   2.958   6.736   0.166 -2.6471  0.1195 -0.8152
 6863TIP3   OH242147   0.595   2.959   1.217  0.2300  0.5186  0.2236
 6863TIP3    H142148   0.542   2.959   1.297  1.6014  0.5169  1.1694
 6863TIP3    H242149   0.603   2.866   1.194 -1.8551  0.5982 -1.1420
 6864TIP3   OH242150   0.542   2.617   0.479  0.0131 -0.0702  0.1119
 6864TIP3    H142151   0.575   2.620   0.569 -0.2067  0.9580  0.1705
 6864TIP3    H242152   0.463   2.563   0.485 -0.5860  0.8523  0.7410
 6865TIP3   OH242153   0.618   0.572   7.522  0.0364 -0.1118 -0.6280
 6865TIP3    H142154   0.672   0.522   7.583 -0.4212 -0.8003 -0.7702
 6865TIP3    H242155   0.528   0.554   7.549 -0.2205 -1.1003 -1.9776
 6866TIP3   OH242156   0.935   6.841   0.268  0.0421  0.1019  0.3795
 6866TIP3    H142157   0.857   6.803   0.228  1.1531  0.7446 -2.7755
 6866TIP3    H242158   0.979   6.767   0.310 -1.4049 -0.5866  0.7468
 6867TIP3   OH242159   6.187   2.856   7.070 -0.5747  0.4063  0.3440
 6867TIP3    H142160   6.261   2.905   7.107 -0.4320  0.5418 -0.1153
 6867TIP3    H242161   6.171   2.898   6.985  0.6827 -1.4283 -0.8596
 6868TIP3   OH242162   6.794   3.816   0.095  0.6446 -0.4890  0.3184
 6868TIP3    H142163   6.780   3.872   0.018  2.5699  0.3437  0.5051
 6868TIP3    H242164   6.878   3.773   0.078 -0.0799 -2.1992  0.8789
 6869TIP3   OH242165   3.640   3.206   0.003 -0.5456 -0.2963  0.3257
 6869TIP3    H142166   3.606   3.117   0.006  1.6101 -1.1575  0.9057
 6869TIP3    H242167   3.697   3.213   0.079  0.0049  1.2884 -0.1799
 6870TIP3   OH242168   6.564   2.622   0.180  0.2227  0.2750  0.2363
 6870TIP3    H142169   6.578   2.639   0.273 -0.2455  0.2223  0.3214
 6870TIP3    H242170   6.501   2.549   0.179  1.0081 -0.4222 -0.1173
 6871TIP3   OH242171   0.171   1.850   6.788  0.0237  0.0066 -0.2803
 6871TIP3    H142172   0.141   1.820   6.702  1.2619  0.0750 -0.7538
 6871TIP3    H242173   0.254   1.894   6.770  1.4115 -1.8676  1.2267
 6872TIP3   OH242174   0.477   0.460   0.308 -0.5282 -0.0319  0.2477
 6872TIP3    H142175   0.570   0.437   0.304 -0.8069 -1.1078 -0.7819
 6872TIP3    H242176   0.456   0.489   0.219 -1.0393  0.8608  0.6392
 6873TIP3   OH242177   5.769   2.516   7.979  1.0069  0.3110  0.3921
 6873TIP3    H142178   5.774   2.507   7.884  0.6978  1.5640  0.2390
 6873TIP3    H242179   5.736   2.432   8.009 -1.3767  0.7237 -0.8586
 6874TIP3   OH242180   2.994   4.119   8.222 -0.1082  0.6404  0.0904
 6874TIP3    H142181   3.043   4.121   8.140  0.7474 -2.4429  0.4090
 6874TIP3    H242182   3.017   4.201   8.266  1.1429  1.3369 -1.7504
 6875TIP3   OH242183   1.697   1.024   1.561 -0.2366 -0.0760  0.2783
 6875TIP3    H142184   1.692   0.942   1.611 -0.5408 -0.4079 -0.2818
 6875TIP3    H242185   1.671   1.092   1.623  1.6149 -0.1868  1.2367
 6876TIP3   OH242186   4.935   3.469   8.665  0.0835 -0.3113  0.1937
 6876TIP3    H142187   5.028   3.479   8.681  0.2061  1.6237 -1.2990
 6876TIP3    H242188   4.930   3.411   8.589  0.0589 -0.6186  0.4297
 6877TIP3   OH242189   2.408   6.778   0.254 -0.4819  0.0662 -0.6145
 6877TIP3    H142190   2.503   6.771   0.259 -0.5325 -0.3357 -0.1297
 6877TIP3    H242191   2.386   6.741   0.168 -0.4184 -2.6329  0.4209
 6878TIP3   OH242192   1.773   5.094   1.719  0.2062 -0.2279  0.4036
 6878TIP3    H142193   1.858   5.098   1.674  1.1196 -2.7866  1.7362
 6878TIP3    H242194   1.756   5.185   1.745  2.7691  0.3032  0.5090
 6879TIP3   OH242195   2.617   2.700   0.303 -0.6236 -0.3827 -0.0625
 6879TIP3    H142196   2.612   2.639   0.230  4.9175  0.0034 -1.2284
 6879TIP3    H242197   2.588   2.784   0.267  0.2085 -0.5914 -1.2589
 6880TIP3   OH242198   3.978   4.491   6.260 -0.2780  0.4358 -0.3363
 6880TIP3    H142199   3.937   4.527   6.181  0.2767  0.4769 -0.6075
 6880TIP3    H242200   3.910   4.436   6.299 -2.1156  3.6301  1.4508
 6881TIP3   OH242201   1.876   6.571   7.944  0.5236  0.1755 -0.5459
 6881TIP3    H142202   1.805   6.535   7.892  0.0357  2.0173 -1.2431
 6881TIP3    H242203   1.952   6.573   7.885  1.1218 -1.4962  0.1019
 6882TIP3   OH242204   0.680   1.308   6.855  0.2420  0.2640  0.4909
 6882TIP3    H142205   0.715   1.379   6.802 -1.0874  0.1666 -0.5820
 6882TIP3    H242206   0.716   1.228   6.816 -0.4957  0.2093 -0.0967
 6883TIP3   OH242207   4.578   0.435   2.014 -0.1995 -0.5909  0.1278
 6883TIP3    H142208   4.525   0.397   1.945  1.1534 -0.6661 -0.9071
 6883TIP3    H242209   4.560   0.380   2.091 -0.6718 -1.3515 -0.5172
 6884TIP3   OH242210   4.048   5.517   0.477  0.3979  0.0532 -0.5125
 6884TIP3    H142211   4.026   5.517   0.570  1.4680  1.1069 -0.2255
 6884TIP3    H242212   3.983   5.460   0.436 -3.3787  3.3909  0.1350
 6885TIP3   OH242213   1.579   1.793   8.186 -0.0277  0.0577 -0.3374
 6885TIP3    H142214   1.549   1.870   8.138  1.2411 -0.3092 -1.8479
 6885TIP3    H242215   1.541   1.719   8.137  0.4533 -0.3097 -0.1590
 6886TIP3   OH242216   0.925   0.819   1.306 -0.5650 -0.4027  0.4573
 6886TIP3    H142217   0.959   0.774   1.384 -0.0334  1.2834  1.2462
 6886TIP3    H242218   0.993   0.883   1.285 -0.3233 -1.3427 -1.9079
 6887TIP3   OH242219   5.190   3.330   2.433  0.2707 -0.5717 -0.3864
 6887TIP3    H142220   5.152   3.363   2.514  0.5922 -1.2266  0.0409
 6887TIP3    H242221   5.276   3.371   2.429 -0.0483  0.0692 -0.8015
 6888TIP3   OH242222   0.987   2.410   0.101 -0.3346 -0.0832  0.4738
 6888TIP3    H142223   0.946   2.495   0.117 -0.2328 -0.1584  1.1723
 6888TIP3    H242224   0.917   2.355   0.067 -0.3769  0.3079 -0.0760
 6889TIP3   OH242225   2.758   0.772   0.800 -0.1108 -0.3556 -0.1804
 6889TIP3    H142226   2.817   0.820   0.742  0.9358  0.0806  1.2225
 6889TIP3    H242227   2.811   0.749   0.876 -0.8148 -2.9652 -0.3667
 6890TIP3   OH242228   3.289   1.432   0.959 -0.2448 -0.1242 -0.3849
 6890TIP3    H142229   3.328   1.384   1.032 -0.0992 -0.1542 -0.4844
 6890TIP3    H242230   3.329   1.519   0.964 -0.2911 -0.1026 -0.3848
 6891TIP3   OH242231   2.213   2.751   6.682  0.5565  0.1961 -0.2041
 6891TIP3    H142232   2.171   2.780   6.763  0.0530  0.7733 -0.6634
 6891TIP3    H242233   2.165   2.672   6.658  1.9923 -1.1310  1.1000
 6892TIP3   OH242234   4.481   4.258   7.284 -0.1153 -0.2470  0.1705
 6892TIP3    H142235   4.421   4.279   7.356  0.6279  0.6613  0.5444
 6892TIP3    H242236   4.550   4.324   7.290 -0.7832  0.7743 -2.3110
 6893TIP3   OH242237   4.315   0.934   1.301  0.4585  0.9017 -0.0490
 6893TIP3    H142238   4.392   0.916   1.353 -1.6204 -0.9279  2.6441
 6893TIP3    H242239   4.309   1.030   1.299  2.4538  1.0634  0.0996
 6894TIP3   OH242240   0.116   1.760   6.537 -0.7251 -0.6244  0.0702
 6894TIP3    H142241   0.117   1.844   6.491  2.1816 -0.5889  0.0146
 6894TIP3    H242242   0.039   1.715   6.503 -1.6072  1.4819 -0.8868
 6895TIP3   OH242243   0.509   0.467   8.087  0.0986  0.4241  0.7230
 6895TIP3    H142244   0.565   0.408   8.137 -0.1241  0.8257  1.4689
 6895TIP3    H242245   0.423   0.461   8.130  0.1468  1.4978  0.9853
 6896TIP3   OH242246   1.630   4.843   1.571 -0.3613  0.7018  0.0020
 6896TIP3    H142247   1.675   4.910   1.622  0.3891  1.1792 -1.2531
 6896TIP3    H242248   1.603   4.778   1.636  1.7997  0.5762  0.8583
 6897TIP3   OH242249   1.796   2.672   6.241 -0.4581  0.5867  0.0954
 6897TIP3    H142250   1.710   2.708   6.220 -0.5585  0.3779  0.1509
 6897TIP3    H242251   1.805   2.595   6.184 -0.0663  0.9346 -0.3324
 6898TIP3   OH242252   5.486   5.703   0.684 -0.3590 -0.3400  1.0923
 6898TIP3    H142253   5.434   5.691   0.764  0.3191  1.6429  1.8948
 6898TIP3    H242254   5.568   5.657   0.702 -0.2418  0.0254  1.5195
 6899TIP3   OH242255   3.698   2.232   2.304  0.4250  0.0333 -0.3212
 6899TIP3    H142256   3.790   2.215   2.286  1.1360  2.3043  0.7444
 6899TIP3    H242257   3.660   2.146   2.320  2.8824 -0.8369  1.4490
 6900TIP3   OH242258   5.517   0.128   6.724  0.0976  0.2887  0.3274
 6900TIP3    H142259   5.492   0.218   6.744 -1.5845  0.1920 -1.0559
 6900TIP3    H242260   5.439   0.076   6.744 -0.3947 -0.2795 -2.5265
 6901TIP3   OH242261   2.511   5.534   7.653 -0.6028 -0.6471 -0.1571
 6901TIP3    H142262   2.558   5.506   7.732 -2.0418 -2.4351  0.1236
 6901TIP3    H242263   2.424   5.557   7.684 -0.1652  2.1825 -0.7400
 6902TIP3   OH242264   4.610   3.423   1.377 -0.0655  0.2492 -0.1150
 6902TIP3    H142265   4.690   3.371   1.385  0.0349  0.5020  0.6881
 6902TIP3    H242266   4.613   3.482   1.453 -0.6725  0.7298 -0.4576
 6903TIP3   OH242267   4.245   3.093   7.069  0.0215 -0.3587 -0.3020
 6903TIP3    H142268   4.279   3.046   6.993 -0.8486  0.4211 -1.1985
 6903TIP3    H242269   4.323   3.109   7.124  0.7655 -0.3747 -1.3296
 6904TIP3   OH242270   1.354   6.254   6.233 -0.2824  0.3391  0.1028
 6904TIP3    H142271   1.400   6.208   6.303 -1.3714 -0.6615  0.1846
 6904TIP3    H242272   1.332   6.186   6.170 -1.0334  0.9092 -0.2679
 6905TIP3   OH242273   5.133   3.704   1.502 -0.7781  0.6985  0.0136
 6905TIP3    H142274   5.202   3.638   1.508 -0.0778  1.2909 -1.1902
 6905TIP3    H242275   5.177   3.787   1.524 -1.5133  0.8578  0.9342
 6906TIP3   OH242276   1.584   2.004   1.723  0.3527 -0.5814  0.4565
 6906TIP3    H142277   1.550   2.079   1.772  2.5394  1.4066 -0.8666
 6906TIP3    H242278   1.573   1.930   1.783 -1.6131  0.7996  1.9440
 6907TIP3   OH242279   0.533   2.679   6.610 -0.2243  0.2932 -0.2853
 6907TIP3    H142280   0.551   2.705   6.700 -2.7672  2.6602 -0.3102
 6907TIP3    H242281   0.445   2.641   6.614 -0.0334 -0.3337 -1.6486
 6908TIP3   OH242282   6.134   4.973   0.599  0.6426  0.0348 -0.6112
 6908TIP3    H142283   6.149   5.039   0.667  0.8393 -0.0401 -0.5800
 6908TIP3    H242284   6.220   4.957   0.561  0.4522  0.4361 -1.2157
 6909TIP3   OH242285   2.056   3.570   7.438 -0.4860  0.5597 -0.1418
 6909TIP3    H142286   2.109   3.541   7.512  0.0808  1.9916  0.0341
 6909TIP3    H242287   2.040   3.490   7.388  0.7922 -0.1085  0.4683
 6910TIP3   OH242288   3.000   2.191   8.236  0.5754  0.5750  0.8297
 6910TIP3    H142289   2.968   2.229   8.318  1.4434  0.7767  1.0828
 6910TIP3    H242290   3.028   2.103   8.260 -1.3505 -0.2425  0.2630
 6911TIP3   OH242291   1.671   5.731   6.591  0.6856 -0.2030  0.4205
 6911TIP3    H142292   1.633   5.661   6.538  0.1396 -0.8220  1.6018
 6911TIP3    H242293   1.619   5.808   6.570 -0.6646 -0.8371  1.3295
 6912TIP3   OH242294   2.444   6.707   8.084 -0.0645  0.2719 -0.9556
 6912TIP3    H142295   2.357   6.723   8.120 -0.1026  2.2571 -1.7859
 6912TIP3    H242296   2.445   6.614   8.062 -0.8404 -0.4903  1.8911
 6913TIP3   OH242297   6.114   3.284   7.008 -0.3885 -0.6310  0.1578
 6913TIP3    H142298   6.108   3.336   7.088 -0.3280 -0.0629 -0.2018
 6913TIP3    H242299   6.027   3.289   6.969 -0.0973  0.0943 -0.4207
 6914TIP3   OH242300   0.488   2.769   0.884  0.4927 -0.7213 -0.0254
 6914TIP3    H142301   0.400   2.806   0.892  0.4398 -0.5785 -1.0539
 6914TIP3    H242302   0.497   2.711   0.959 -0.4203 -0.6114  0.1827
 6915TIP3   OH242303   1.467   1.553   6.832  0.2680  0.4172  1.0707
 6915TIP3    H142304   1.521   1.622   6.870 -0.4713  0.1843  2.6166
 6915TIP3    H242305   1.465   1.485   6.900  1.2329 -1.2811 -0.5230
 6916TIP3   OH242306   1.521   1.564   6.478 -0.3632 -0.2687 -0.5521
 6916TIP3    H142307   1.453   1.542   6.542 -1.3280 -1.2545 -1.8765
 6916TIP3    H242308   1.543   1.481   6.436  2.0318 -0.0601  0.1564
 6917TIP3   OH242309   0.135   5.063   0.608 -0.3302  0.2441 -0.1922
 6917TIP3    H142310   0.173   5.037   0.524 -0.6682 -0.2944 -0.1881
 6917TIP3    H242311   0.086   5.143   0.589  1.3250  1.3428 -0.0588
 6918TIP3   OH242312   0.053   1.928   7.558 -0.3223 -0.1415  0.2522
 6918TIP3    H142313  -0.007   1.962   7.492  0.1183 -2.4116 -1.4377
 6918TIP3    H242314   0.121   1.995   7.566 -0.6168  0.3834 -1.2965
 6919TIP3   OH242315   2.496   6.285   7.834  0.0268 -0.4764 -0.0403
 6919TIP3    H142316   2.578   6.297   7.882  0.6532 -1.0022 -0.9592
 6919TIP3    H242317   2.439   6.240   7.896  0.2473  0.3245  0.7770
 6920TIP3   OH242318   0.322   2.426   0.508  0.2138 -0.8612  0.2369
 6920TIP3    H142319   0.363   2.341   0.526 -0.6084 -0.8762  2.2268
 6920TIP3    H242320   0.246   2.404   0.453  0.3466 -1.3257  0.2342
 6921TIP3   OH242321   5.354   5.182   7.993  0.6562  0.5763  0.4470
 6921TIP3    H142322   5.266   5.219   7.998  1.4595  2.9158 -0.9098
 6921TIP3    H242323   5.402   5.225   8.064  1.1375  0.7463  0.0279
 6922TIP3   OH242324   1.227   3.923   0.354  0.4347  0.7622  0.7036
 6922TIP3    H142325   1.149   3.913   0.408  0.2768  0.4070  0.4075
 6922TIP3    H242326   1.221   3.854   0.288  0.0897  1.8437 -0.4335
 6923TIP3   OH242327   4.048   4.128   0.024  0.4881 -0.0034  0.1235
 6923TIP3    H142328   3.992   4.114   0.100  0.8652 -0.4087  0.3374
 6923TIP3    H242329   3.998   4.094  -0.050  0.6054 -0.7357  0.3691
 6924TIP3   OH242330   1.702   5.575   0.695 -0.1491  0.1418 -0.4243
 6924TIP3    H142331   1.773   5.612   0.747  0.1986 -2.1182  0.8693
 6924TIP3    H242332   1.625   5.581   0.752 -0.2458 -0.3590 -0.4931
 6925TIP3   OH242333   2.481   4.857   7.661  0.0306 -0.4454  0.2593
 6925TIP3    H142334   2.480   4.771   7.618 -0.8611  0.0548 -0.7841
 6925TIP3    H242335   2.534   4.911   7.603  1.9022 -0.6401  1.7043
 6926TIP3   OH242336   0.455   6.587   7.170 -0.5602 -0.3734  0.3677
 6926TIP3    H142337   0.518   6.586   7.243  2.2569 -1.7155 -1.8781
 6926TIP3    H242338   0.442   6.680   7.152  1.7374 -0.0026  0.2514
 6927TIP3   OH242339   3.673   6.289   2.123 -0.4043 -0.0145 -0.5684
 6927TIP3    H142340   3.751   6.342   2.104 -0.2340 -0.4553 -1.1357
 6927TIP3    H242341   3.612   6.311   2.052 -1.0157  0.7374  0.1720
 6928TIP3   OH242342   5.809   3.671   1.460  0.4601  0.2616 -0.5396
 6928TIP3    H142343   5.819   3.583   1.496 -0.5950  0.2828 -0.1656
 6928TIP3    H242344   5.879   3.721   1.501 -0.7130  0.2817  1.5566
 6929TIP3   OH242345   0.036   4.862   1.646  0.0017  0.4287  0.0652
 6929TIP3    H142346   0.076   4.930   1.592 -0.7765  1.6647  0.9713
 6929TIP3    H242347   0.048   4.893   1.736  0.2089 -0.9735  0.5361
 6930TIP3   OH242348   2.496   0.695   0.624  0.3639 -0.1142  0.0770
 6930TIP3    H142349   2.538   0.768   0.578  2.5448 -1.4895 -0.2770
 6930TIP3    H242350   2.503   0.718   0.717 -0.5119  0.8715 -0.0826
 6931TIP3   OH242351   2.109   4.103   8.037  0.3266  0.5744  0.7048
 6931TIP3    H142352   2.118   4.146   7.952 -1.8367  0.4764  0.3660
 6931TIP3    H242353   2.083   4.174   8.097 -0.5233  0.2424  0.7442
 6932TIP3   OH242354   6.642   4.908   1.934  0.8474  0.3381 -0.3753
 6932TIP3    H142355   6.646   4.935   2.026 -0.0491 -0.6466 -0.0330
 6932TIP3    H242356   6.670   4.816   1.934 -0.4334 -0.0760 -0.8856
 6933TIP3   OH242357   1.046   6.513   0.629 -0.6624  0.5539 -0.6622
 6933TIP3    H142358   0.981   6.494   0.697  0.8327  1.8460  1.2433
 6933TIP3    H242359   1.115   6.561   0.675  0.5160  1.3386 -3.0849
 6934TIP3   OH242360   1.207   3.772   7.563 -0.5093  0.0181  0.4208
 6934TIP3    H142361   1.302   3.771   7.554 -0.4972 -1.8246  0.3507
 6934TIP3    H242362   1.177   3.835   7.497  0.6505  0.7118  0.5279
 6935TIP3   OH242363   2.945   5.409   8.077  0.2058  0.1888 -0.3923
 6935TIP3    H142364   2.885   5.420   8.002 -1.7876  1.6210  1.2850
 6935TIP3    H242365   2.946   5.495   8.119  3.1202  0.0468 -0.0265
 6936TIP3   OH242366   5.312   2.600   2.539 -0.1658  0.0662 -0.4609
 6936TIP3    H142367   5.301   2.679   2.591  0.5095 -0.9834  1.3959
 6936TIP3    H242368   5.247   2.607   2.470 -0.2568  2.1184 -0.2202
 6937TIP3   OH242369   0.279   0.547   7.179  0.3031 -0.0694 -0.2497
 6937TIP3    H142370   0.282   0.617   7.115 -0.0405  0.1665 -0.0114
 6937TIP3    H242371   0.186   0.526   7.188  0.4979 -1.8671 -1.7210
 6938TIP3   OH242372   3.754   0.996   2.630  0.1685 -0.2808  0.5161
 6938TIP3    H142373   3.706   0.935   2.687  1.5233 -1.0027  0.9453
 6938TIP3    H242374   3.808   1.047   2.691  1.5027 -0.9425 -0.0665
 6939TIP3   OH242375   4.193   0.890   0.487 -0.3082  0.1325  0.4170
 6939TIP3    H142376   4.234   0.803   0.487 -0.4258  0.0540 -0.8328
 6939TIP3    H242377   4.188   0.914   0.579 -0.0362 -1.0804  0.7719
 6940TIP3   OH242378   4.421   5.488   7.543 -0.0959 -0.0557  0.0602
 6940TIP3    H142379   4.375   5.548   7.602 -0.0618  1.2149 -1.1439
 6940TIP3    H242380   4.510   5.522   7.539 -0.0556 -0.2322 -0.5829
 6941TIP3   OH242381   4.005   3.695   7.020  0.2160  0.5516  0.4555
 6941TIP3    H142382   4.035   3.632   6.955  0.2979  1.7583 -0.7209
 6941TIP3    H242383   3.952   3.644   7.080 -0.1855 -0.5405 -0.7856
 6942TIP3   OH242384   1.684   6.361   0.019 -0.9437 -0.1340  0.2267
 6942TIP3    H142385   1.692   6.404   0.104 -2.6224 -0.3692  0.5306
 6942TIP3    H242386   1.655   6.272   0.039 -0.4501 -0.4817 -0.5570
 6943TIP3   OH242387   0.077   1.873   8.468  0.4609 -0.4489  0.3495
 6943TIP3    H142388   0.007   1.888   8.404  0.8470  0.7647  0.1894
 6943TIP3    H242389   0.054   1.789   8.509 -0.2201 -0.8641 -0.8123
 6944TIP3   OH242390   2.824   0.557   1.538  0.2704 -0.2777  0.0378
 6944TIP3    H142391   2.835   0.651   1.551  0.5473 -0.2280 -0.5513
 6944TIP3    H242392   2.778   0.527   1.617 -1.2247  0.6027 -0.4659
 6945TIP3   OH242393   5.475   2.683   6.655 -0.3160 -0.0592  0.7490
 6945TIP3    H142394   5.494   2.770   6.620 -3.0165  0.2642 -0.1068
 6945TIP3    H242395   5.540   2.626   6.614 -0.1336  1.1561 -0.7198
 6946TIP3   OH242396   2.230   0.953   7.520  0.6044  0.0244 -0.6697
 6946TIP3    H142397   2.199   0.889   7.584  1.7540 -0.2554 -0.3618
 6946TIP3    H242398   2.306   0.911   7.480  0.9184  0.8969 -1.0003
 6947TIP3   OH242399   1.369   0.164   7.966  0.2620 -1.0725  0.1866
 6947TIP3    H142400   1.431   0.114   8.019 -0.2440 -1.2027  0.6692
 6947TIP3    H242401   1.351   0.109   7.890  1.1172 -0.8163 -0.2100
 6948TIP3   OH242402   6.443   2.568   7.443 -0.3363 -0.5348 -0.1724
 6948TIP3    H142403   6.363   2.579   7.392 -0.9129 -0.0315  0.7979
 6948TIP3    H242404   6.470   2.478   7.427 -0.2921 -0.2830 -1.6218
 6949TIP3   OH242405   6.602   4.359   7.893  0.0969 -0.2068 -0.1486
 6949TIP3    H142406   6.530   4.295   7.897  0.5139 -1.0370 -3.1840
 6949TIP3    H242407   6.649   4.347   7.975 -3.1188  0.3432  1.9607
 6950TIP3   OH242408   5.136   5.092   0.410  0.0116  0.4335 -0.4972
 6950TIP3    H142409   5.144   5.075   0.504  0.4505  2.7089 -0.0582
 6950TIP3    H242410   5.121   5.006   0.371  1.7366 -0.8338  1.4389
 6951TIP3   OH242411   1.643   5.682   8.216 -0.6915 -0.1854 -0.2517
 6951TIP3    H142412   1.707   5.752   8.228  0.3740 -0.9477 -1.3113
 6951TIP3    H242413   1.587   5.688   8.293  0.3004  0.8683  0.4221
 6952TIP3   OH242414   5.834   2.040   7.218 -0.2833 -0.0159 -0.2719
 6952TIP3    H142415   5.929   2.046   7.218 -0.2663 -0.2859 -0.5359
 6952TIP3    H242416   5.806   2.097   7.145 -0.2027 -1.7440 -1.7129
 6953TIP3   OH242417   3.292   4.012   6.956 -0.2927  0.4105 -0.2682
 6953TIP3    H142418   3.302   3.955   6.880 -1.4353 -0.6245  0.3313
 6953TIP3    H242419   3.376   4.007   7.001 -0.6649 -1.5399  0.2644
 6954TIP3   OH242420   1.838   3.702   8.165  0.0220  0.3526  0.0982
 6954TIP3    H142421   1.914   3.734   8.116  1.1590 -0.8061  1.0152
 6954TIP3    H242422   1.871   3.689   8.254 -0.1006 -3.8183 -0.2644
 6955TIP3   OH242423   4.088   0.929   1.491  0.1307  0.6578 -0.0698
 6955TIP3    H142424   4.021   0.967   1.434 -2.9173 -1.5044  1.7318
 6955TIP3    H242425   4.144   0.879   1.433  1.1187  3.5404 -1.8136
 6956TIP3   OH242426   2.613   3.284   8.131 -0.5231  0.6385  0.2696
 6956TIP3    H142427   2.643   3.211   8.076 -0.1204  2.2657 -1.7632
 6956TIP3    H242428   2.519   3.269   8.141 -0.2440 -0.8419  1.0127
 6957TIP3   OH242429   1.463   5.761   1.386  0.4686  0.2229  0.2482
 6957TIP3    H142430   1.462   5.671   1.419 -0.4514  0.3893  0.6973
 6957TIP3    H242431   1.467   5.816   1.464  1.4183  0.5851 -0.0344
 6958TIP3   OH242432   2.295   1.020   1.420 -0.7185  0.1210  0.0056
 6958TIP3    H142433   2.319   1.105   1.383 -0.0229  0.0394  0.2554
 6958TIP3    H242434   2.293   0.961   1.344  1.1899 -0.1513  0.1158
 6959TIP3   OH242435   0.943   0.087   0.756 -0.5882  0.0276 -0.3625
 6959TIP3    H142436   1.024   0.097   0.707 -0.3665 -1.3209 -0.3263
 6959TIP3    H242437   0.915   0.176   0.775 -0.6275  0.6059 -2.8238
 6960TIP3   OH242438   2.883   0.491   6.691  0.0349  0.0561  0.3908
 6960TIP3    H142439   2.975   0.469   6.703  0.1156  0.7543  1.1107
 6960TIP3    H242440   2.876   0.515   6.599  0.1981 -1.6888 -0.1106
 6961TIP3   OH242441   5.563   5.406   1.332 -0.3633  0.4141  0.6114
 6961TIP3    H142442   5.572   5.438   1.242 -1.7741 -1.1400 -0.1377
 6961TIP3    H242443   5.613   5.469   1.385  0.1653  1.5940 -1.1915
 6962TIP3   OH242444   3.878   1.250   1.496 -0.0623  0.5032 -0.0241
 6962TIP3    H142445   3.943   1.190   1.533  0.7150  0.7868 -0.8858
 6962TIP3    H242446   3.834   1.288   1.571  1.4262  1.0263  0.6047
 6963TIP3   OH242447   4.945   6.315   2.208 -0.6887 -0.5788  0.0496
 6963TIP3    H142448   4.890   6.300   2.131 -0.5391  0.0856 -0.1944
 6963TIP3    H242449   4.896   6.278   2.281 -0.3330 -2.2447 -0.5138
 6964TIP3   OH242450   5.869   1.698   1.814  0.6638 -0.2077  0.2816
 6964TIP3    H142451   5.872   1.699   1.718  0.6357 -2.7769  0.1983
 6964TIP3    H242452   5.961   1.707   1.840  1.2212 -3.4818 -0.1776
 6965TIP3   OH242453   4.267   2.715   6.920 -0.1173  0.3319 -0.1125
 6965TIP3    H142454   4.316   2.748   6.995 -0.9196  0.0303  0.5639
 6965TIP3    H242455   4.208   2.787   6.896 -1.5336 -0.3900  1.0660
 6966TIP3   OH242456   3.380   0.967   2.079 -0.5560  0.1914 -0.5452
 6966TIP3    H142457   3.455   0.936   2.131  0.1588  2.0239 -0.3966
 6966TIP3    H242458   3.311   0.902   2.095  0.6362 -0.9586  0.1948
 6967TIP3   OH242459   6.351   0.131   6.415 -0.6136 -0.3258 -0.3131
 6967TIP3    H142460   6.261   0.109   6.437 -0.5407  1.3305  1.9726
 6967TIP3    H242461   6.403   0.059   6.450 -0.7541  0.8890  2.6877
 6968TIP3   OH242462   5.610   5.056   7.752 -0.4597  0.5606 -0.1900
 6968TIP3    H142463   5.548   5.121   7.721 -1.9072  1.3722  3.8103
 6968TIP3    H242464   5.556   4.989   7.794  1.2644 -0.1723  0.9810
 6969TIP3   OH242465   2.204   4.872   6.502  0.6584 -0.5314 -0.1119
 6969TIP3    H142466   2.192   4.945   6.563 -0.4719 -1.1353  0.4104
 6969TIP3    H242467   2.253   4.910   6.429 -0.1862  0.8452 -0.0042
 6970TIP3   OH242468   2.080   2.133   0.549 -0.7911 -0.4980 -0.1499
 6970TIP3    H142469   2.047   2.183   0.475 -1.1416 -0.8461 -0.2255
 6970TIP3    H242470   2.002   2.105   0.597 -0.5702  1.1656  1.3164
 6971TIP3   OH242471   5.267   5.625   0.268 -0.8923 -0.5187  0.5455
 6971TIP3    H142472   5.306   5.546   0.305  0.3678 -0.6889 -0.9797
 6971TIP3    H242473   5.197   5.649   0.328 -0.8993 -2.4384  1.3719
 6972TIP3   OH242474   1.858   2.426   2.436 -0.3881 -0.9271 -0.2348
 6972TIP3    H142475   1.825   2.392   2.353  1.0989 -0.6725 -0.9773
 6972TIP3    H242476   1.793   2.491   2.463  0.4218  1.0891 -2.7054
 6973TIP3   OH242477   5.472   2.282   6.007 -0.4160  0.0005  0.1023
 6973TIP3    H142478   5.384   2.249   5.988  0.0899 -1.1290 -0.3762
 6973TIP3    H242479   5.526   2.249   5.935  0.5109  0.1822  0.6960
 6974TIP3   OH242480   6.523   4.285   6.191 -0.2463 -0.5626 -0.0276
 6974TIP3    H142481   6.574   4.291   6.110 -0.9336  0.3479 -0.4094
 6974TIP3    H242482   6.457   4.219   6.173  0.5430 -1.4766  0.3405
 6975TIP3   OH242483   5.440   6.710   0.845  0.2115 -0.2360  0.1655
 6975TIP3    H142484   5.385   6.760   0.906 -1.1314 -0.4975 -0.7703
 6975TIP3    H242485   5.447   6.624   0.884  1.0478  0.1631  0.9187
 6976TIP3   OH242486   1.711   3.486   1.058 -0.0156  0.5315  0.3130
 6976TIP3    H142487   1.695   3.525   0.972  1.0965  2.5092  0.9283
 6976TIP3    H242488   1.799   3.449   1.051 -0.7273 -1.1657  0.0063
 6977TIP3   OH242489   4.172   0.744   7.053  0.0917  0.6770 -0.4873
 6977TIP3    H142490   4.229   0.821   7.057  0.5141  0.3812 -0.8342
 6977TIP3    H242491   4.182   0.711   6.964  1.4464 -0.9569  0.2351
 6978TIP3   OH242492   5.414   5.092   6.550  0.3263  0.0653 -0.1755
 6978TIP3    H142493   5.488   5.126   6.500 -0.1059  0.9984 -0.2025
 6978TIP3    H242494   5.369   5.033   6.489  0.0789  0.8228 -0.7478
 6979TIP3   OH242495   1.699   0.495   1.701 -0.1156  0.4907 -0.4289
 6979TIP3    H142496   1.772   0.453   1.657 -0.8604 -0.5789 -0.6740
 6979TIP3    H242497   1.667   0.560   1.638 -0.7530 -0.5656 -1.2199
 6980TIP3   OH242498   6.350   1.263   6.635 -0.2698 -0.3773 -0.2548
 6980TIP3    H142499   6.307   1.183   6.665 -0.8537  0.1580  0.3646
 6980TIP3    H242500   6.299   1.292   6.560 -1.0442  0.2786  0.5032
 6981TIP3   OH242501   3.425   4.674   7.623  0.8191 -0.6930 -0.1557
 6981TIP3    H142502   3.399   4.613   7.692  1.9668  0.6478  1.5360
 6981TIP3    H242503   3.430   4.619   7.544 -2.3901 -1.8969  0.3360
 6982TIP3   OH242504   6.312   4.322   0.550  0.4543  0.4226 -0.3795
 6982TIP3    H142505   6.346   4.361   0.470  1.1433 -0.5000 -0.5454
 6982TIP3    H242506   6.322   4.390   0.616  3.8073 -0.1731 -0.1243
 6983TIP3   OH242507   6.642   3.132   6.961  0.2597 -0.0494 -0.8968
 6983TIP3    H142508   6.715   3.195   6.958  0.0134  0.3839  1.0710
 6983TIP3    H242509   6.565   3.184   6.937  0.2630  0.0786 -0.6385
 6984TIP3   OH242510   6.431   3.476   0.420  0.0534 -0.0997 -0.2865
 6984TIP3    H142511   6.432   3.407   0.354  0.0252 -0.8045  0.4305
 6984TIP3    H242512   6.347   3.465   0.464  1.2471 -1.5622  1.8151
 6985TIP3   OH242513   1.386   0.409   2.083  0.1381  0.4104  0.5353
 6985TIP3    H142514   1.458   0.389   2.142  1.0220  0.8167 -0.3831
 6985TIP3    H242515   1.361   0.324   2.046  1.9961  0.5679 -1.2098
 6986TIP3   OH242516   5.404   4.931   7.892 -0.3040  0.7196  0.0288
 6986TIP3    H142517   5.327   4.917   7.837  0.7943  0.5967 -1.5470
 6986TIP3    H242518   5.396   5.021   7.922 -1.3837  0.5002  0.4167
 6987TIP3   OH242519   5.898   2.865   2.269  0.2198  0.1385 -0.5454
 6987TIP3    H142520   5.813   2.820   2.269  0.4175 -0.2528 -1.7099
 6987TIP3    H242521   5.924   2.864   2.361 -0.8335 -0.1237 -0.2284
 6988TIP3   OH242522   1.856   1.554   8.447 -0.4155 -0.1567 -0.2816
 6988TIP3    H142523   1.761   1.545   8.457 -0.4191 -2.5629 -1.6798
 6988TIP3    H242524   1.867   1.640   8.405 -1.9556  0.2223  0.0110
 6989TIP3   OH242525   3.974   5.523   8.715  0.1163  0.2400  0.3543
 6989TIP3    H142526   4.037   5.461   8.752  0.0532 -0.8196 -1.2384
 6989TIP3    H242527   3.889   5.491   8.744  0.2307  1.8414  2.7599
 6990TIP3   OH242528   2.133   4.987   6.977  0.1504 -0.3014  0.3600
 6990TIP3    H142529   2.194   5.001   7.049  0.4332  1.3217 -0.1455
 6990TIP3    H242530   2.087   5.070   6.968  0.0584 -0.4893 -1.2626
 6991TIP3   OH242531   3.660   2.398   0.879  0.0844 -0.1939  0.7086
 6991TIP3    H142532   3.626   2.443   0.956 -1.0821 -0.7864  0.5657
 6991TIP3    H242533   3.738   2.448   0.854 -0.7897  1.3344  0.9263
 6992TIP3   OH242534   6.640   6.727   0.305 -0.2562 -0.1831  0.2946
 6992TIP3    H142535   6.682   6.686   0.230 -0.5227 -1.6363  0.8955
 6992TIP3    H242536   6.712   6.765   0.355  0.1287 -0.7804  0.2059
 6993TIP3   OH242537   2.658   0.446   7.118  0.4930  0.2581  0.2439
 6993TIP3    H142538   2.583   0.389   7.102 -0.7890  1.9278  0.0534
 6993TIP3    H242539   2.700   0.455   7.032 -0.7015  1.4570 -0.2484
 6994TIP3   OH242540   5.826   1.063   0.300  0.4241 -0.4021 -0.0696
 6994TIP3    H142541   5.868   1.106   0.375 -0.0697  0.9752 -0.5557
 6994TIP3    H242542   5.890   1.070   0.229 -0.4181  1.3987 -0.7162
 6995TIP3   OH242543   4.035   0.056   6.850  0.2453 -0.2874 -0.4862
 6995TIP3    H142544   4.098   0.127   6.857 -0.4170  0.2410  0.2765
 6995TIP3    H242545   3.986   0.059   6.932 -0.0532 -1.3760 -0.6089
 6996TIP3   OH242546   6.377   5.783   7.988 -0.8339  0.7271 -0.0507
 6996TIP3    H142547   6.415   5.799   7.901 -1.5104 -0.2874 -0.5570
 6996TIP3    H242548   6.452   5.766   8.044 -0.3177  2.4129 -0.1873
 6997TIP3   OH242549   6.702   1.725   0.646 -0.0823  0.3916 -0.4769
 6997TIP3    H142550   6.661   1.804   0.681 -1.9400 -0.4482 -0.6413
 6997TIP3    H242551   6.654   1.652   0.686  0.3339 -0.6316 -1.7410
 6998TIP3   OH242552   2.709   3.051   7.946  0.3883  0.0146  0.2357
 6998TIP3    H142553   2.698   2.956   7.941 -1.2881  0.2333 -3.6911
 6998TIP3    H242554   2.786   3.069   7.893 -0.0440  0.9219 -0.1045
 6999TIP3   OH242555   1.791   1.906   6.416 -0.1746  0.4429 -0.9729
 6999TIP3    H142556   1.852   1.832   6.418 -1.6356 -0.8051  0.0206
 6999TIP3    H242557   1.786   1.930   6.324 -0.0574 -1.0394 -1.3870
 7000TIP3   OH242558   3.478   1.249   8.542  0.4585 -0.2040  0.0374
 7000TIP3    H142559   3.393   1.293   8.535  0.5740  0.2435  1.1499
 7000TIP3    H242560   3.534   1.313   8.586  1.3380 -0.5444 -0.5712
 7001TIP3   OH242561   1.832   0.308   1.254  0.3399 -0.1407  0.4520
 7001TIP3    H142562   1.764   0.255   1.211  0.4514 -1.1929  1.5105
 7001TIP3    H242563   1.798   0.397   1.251 -1.7859 -0.7981  2.1395
 7002TIP3   OH242564   2.198   0.341   7.139 -0.2433  0.2398 -0.5743
 7002TIP3    H142565   2.132   0.410   7.134 -0.7067 -0.2438 -1.5215
 7002TIP3    H242566   2.159   0.267   7.092  0.9704 -0.0520 -1.1885
 7003TIP3   OH242567   5.625   6.073   7.389 -0.2502 -0.1560  0.8401
 7003TIP3    H142568   5.622   6.163   7.421 -0.3762 -1.0698  3.6507
 7003TIP3    H242569   5.533   6.052   7.370 -0.1182  0.5536 -0.7468
 7004TIP3   OH242570   5.773   2.996   0.401 -0.1240 -0.2853  0.0464
 7004TIP3    H142571   5.751   3.055   0.330 -2.0889  0.7631  1.4200
 7004TIP3    H242572   5.861   3.022   0.429  0.6436 -0.6766 -1.8727
 7005TIP3   OH242573   4.354   6.058   7.354 -0.0282 -0.1326  0.1775
 7005TIP3    H142574   4.368   5.992   7.286 -0.6347  0.1234 -0.2084
 7005TIP3    H242575   4.314   6.132   7.308  0.1156  0.2838  0.7048
 7006TIP3   OH242576   0.810   2.830   8.367  0.0913  0.1069  0.1076
 7006TIP3    H142577   0.868   2.798   8.436  0.3657  1.2922  0.4520
 7006TIP3    H242578   0.727   2.847   8.412  0.4890  1.5930  0.3381
 7007TIP3   OH242579   4.898   3.557   8.348  0.0235 -0.0588 -0.1641
 7007TIP3    H142580   4.849   3.479   8.372  0.7672 -0.1819  1.0123
 7007TIP3    H242581   4.989   3.537   8.369  0.4092  0.6602 -1.0530
 7008TIP3   OH242582   1.040   4.824   1.373 -1.0028 -0.2427  0.2300
 7008TIP3    H142583   0.992   4.743   1.357 -1.3546 -0.3451  1.6582
 7008TIP3    H242584   1.024   4.844   1.465 -1.9148  2.1178 -0.3680
 7009TIP3   OH242585   1.209   6.357   1.167 -0.9255  0.2584 -0.1973
 7009TIP3    H142586   1.249   6.344   1.253 -0.4286 -0.0465 -0.4682
 7009TIP3    H242587   1.248   6.289   1.112  0.0876  1.5271 -1.1071
 7010TIP3   OH242588   5.541   4.460   1.318  0.1455 -1.0086 -0.8704
 7010TIP3    H142589   5.592   4.495   1.245  1.3100 -1.4201 -0.2905
 7010TIP3    H242590   5.537   4.366   1.300 -0.0693 -1.0308 -0.7053
 7011TIP3   OH242591   3.684   6.042   1.493  0.1241  0.1961 -0.1509
 7011TIP3    H142592   3.735   6.000   1.563 -1.1397  0.6672  1.1166
 7011TIP3    H242593   3.663   5.971   1.433  0.0373 -0.5344  0.7104
 7012TIP3   OH242594   0.256   4.022   7.868 -0.2409 -0.1690  0.0516
 7012TIP3    H142595   0.335   3.991   7.915 -0.4463  0.3008  0.7181
 7012TIP3    H242596   0.287   4.041   7.779  0.7049  1.2767  0.6523
 7013TIP3   OH242597   6.109   3.930   7.412  0.7464  0.0594 -0.1200
 7013TIP3    H142598   6.090   4.014   7.371  0.5800 -0.0576 -0.2846
 7013TIP3    H242599   6.061   3.932   7.495  0.3078 -0.0855 -0.3668
 7014TIP3   OH242600   1.436   2.955   8.388  0.1838  0.3122  0.1575
 7014TIP3    H142601   1.414   2.958   8.481  0.6385  0.2851  0.2659
 7014TIP3    H242602   1.395   2.874   8.357  0.1179  0.2705  0.3522
 7015TIP3   OH242603   5.388   0.796   7.574  0.3592  0.1456 -0.6045
 7015TIP3    H142604   5.338   0.719   7.602  0.3223  0.2163 -0.4727
 7015TIP3    H242605   5.354   0.868   7.628  2.0866 -0.2059  1.0687
 7016TIP3   OH242606   0.771   6.501   1.388  0.5982  0.2521  0.3604
 7016TIP3    H142607   0.818   6.577   1.422  0.0054  1.0393 -0.5074
 7016TIP3    H242608   0.707   6.479   1.456  1.3022  0.0253  0.9548
 7017TIP3   OH242609   0.322   6.432   7.751 -0.7161 -0.0286  0.3874
 7017TIP3    H142610   0.415   6.456   7.748 -0.4121 -0.9095  1.8299
 7017TIP3    H242611   0.295   6.431   7.659  0.6513  0.4105 -0.0520
 7018TIP3   OH242612   5.497   4.030   2.570  0.1227  0.2337  0.5189
 7018TIP3    H142613   5.558   4.103   2.579 -1.0541  1.0717  2.3301
 7018TIP3    H242614   5.455   4.045   2.485  2.0188 -0.0709 -0.5122
 7019TIP3   OH242615   5.396   5.871   0.504  0.3924  0.2936  0.3849
 7019TIP3    H142616   5.314   5.836   0.469 -0.3592  1.8439  0.5013
 7019TIP3    H242617   5.428   5.804   0.564  0.2882 -1.2269 -1.1927
 7020TIP3   OH242618   1.232   4.440   2.026 -0.5563 -0.1844  0.1697
 7020TIP3    H142619   1.316   4.480   2.048 -0.5516  0.5406 -1.0833
 7020TIP3    H242620   1.245   4.346   2.041  0.6475 -0.1468 -0.5536
 7021TIP3   OH242621   6.805   5.116   0.219 -0.2633  0.5749  0.1868
 7021TIP3    H142622   6.718   5.090   0.188  0.2287 -2.3004  0.9303
 7021TIP3    H242623   6.856   5.129   0.139 -0.5950 -0.7944 -0.2827
 7022TIP3   OH242624   6.010   2.194   1.244 -0.0093  0.1394  0.4212
 7022TIP3    H142625   6.024   2.280   1.283  1.1177 -1.3244  3.6809
 7022TIP3    H242626   6.089   2.144   1.268 -0.8882 -1.9780 -0.8015
 7023TIP3   OH242627   3.714   6.341   7.335 -0.6019  0.1710 -0.0152
 7023TIP3    H142628   3.683   6.253   7.313  0.2189  0.3023 -1.8267
 7023TIP3    H242629   3.800   6.348   7.293  0.9963  0.5971  3.0757
 7024TIP3   OH242630   4.018   4.456   6.723 -0.4343  0.2991  0.3624
 7024TIP3    H142631   3.955   4.385   6.721 -0.1136  0.0269 -0.0371
 7024TIP3    H242632   4.068   4.448   6.642  1.2541 -0.5270  1.4287
 7025TIP3   OH242633   5.672   3.030   8.128 -0.3795 -0.7043 -0.0790
 7025TIP3    H142634   5.705   3.066   8.046 -0.4839  1.3810  0.7512
 7025TIP3    H242635   5.607   2.965   8.101 -0.8750  0.3985 -1.6395
 7026TIP3   OH242636   6.352   0.923   0.631 -0.2649  0.1334 -0.1035
 7026TIP3    H142637   6.375   0.840   0.591  2.3478 -0.0793  1.5811
 7026TIP3    H242638   6.318   0.900   0.718  2.4768  0.7418  1.2571
 7027TIP3   OH242639   3.078   6.736   7.725 -0.0145  0.5538 -0.0989
 7027TIP3    H142640   3.162   6.732   7.681 -0.1212  1.2986 -0.3916
 7027TIP3    H242641   3.062   6.830   7.737 -1.4942  0.4985 -1.3790
 7028TIP3   OH242642   1.652   3.167   1.759 -0.1790 -0.1744  0.1091
 7028TIP3    H142643   1.565   3.206   1.767  0.2973  1.1322 -0.7651
 7028TIP3    H242644   1.636   3.073   1.758 -1.8888  0.0402 -2.8510
 7029TIP3   OH242645   4.078   0.160   7.904 -0.8292 -0.2090 -0.7302
 7029TIP3    H142646   4.133   0.235   7.884 -1.1958 -0.2817 -2.0816
 7029TIP3    H242647   4.059   0.168   7.997  1.8809 -0.4710 -0.0724
 7030TIP3   OH242648   4.650   0.839   0.727 -0.0998  0.1574 -0.1507
 7030TIP3    H142649   4.727   0.859   0.780 -1.2370  2.0406  0.8788
 7030TIP3    H242650   4.578   0.831   0.790 -0.8633 -1.0825 -1.1265
 7031TIP3   OH242651   1.453   4.711   7.661  0.5996 -0.3443  0.1341
 7031TIP3    H142652   1.514   4.666   7.604 -1.5161 -1.4667 -1.3904
 7031TIP3    H242653   1.444   4.798   7.623  2.6314  0.5548  1.5140
 7032TIP3   OH242654   6.387   6.055   6.110 -0.4754  0.3689  0.0095
 7032TIP3    H142655   6.478   6.025   6.119  0.3032  1.8687 -2.0355
 7032TIP3    H242656   6.372   6.110   6.186  0.4598  0.4022  0.1782
 7033TIP3   OH242657   5.658   4.306   1.688 -0.2121  0.4647  0.5627
 7033TIP3    H142658   5.607   4.228   1.708 -0.0761  0.0573 -0.5573
 7033TIP3    H242659   5.738   4.296   1.740  0.1558 -0.5751 -0.1384
 7034TIP3   OH242660   0.637   0.462   0.622 -0.6315 -0.5629 -0.1064
 7034TIP3    H142661   0.555   0.464   0.574 -0.8641  0.5754  0.3144
 7034TIP3    H242662   0.701   0.504   0.565 -0.4884 -0.8592 -0.1668
 7035TIP3   OH242663   1.746   3.019   2.384  0.0793 -0.4125 -0.3392
 7035TIP3    H142664   1.727   3.012   2.477  2.2293 -0.7711  0.1318
 7035TIP3    H242665   1.688   2.956   2.342  1.0020 -2.2761  1.0727
 7036TIP3   OH242666   4.693   4.861   7.466 -0.2840 -0.6739 -1.0396
 7036TIP3    H142667   4.657   4.773   7.458 -0.7067 -0.5754 -0.2808
 7036TIP3    H242668   4.647   4.900   7.540 -1.2853  0.7701 -2.3473
 7037TIP3   OH242669   5.263   6.843   8.413 -0.5646  0.4117  0.0995
 7037TIP3    H142670   5.322   6.769   8.423 -0.4593  0.6482  1.4133
 7037TIP3    H242671   5.185   6.807   8.370 -0.2652 -0.3199  0.1679
 7038TIP3   OH242672   3.424   4.131   2.267 -0.0692 -0.0722 -0.1306
 7038TIP3    H142673   3.470   4.139   2.350  0.1586  0.6935 -0.3165
 7038TIP3    H242674   3.333   4.151   2.288  0.0950  0.7492 -0.1662
 7039TIP3   OH242675   0.812   0.170   8.467 -0.0110 -0.4613 -0.2803
 7039TIP3    H142676   0.828   0.108   8.396 -0.5940  0.8047 -1.5879
 7039TIP3    H242677   0.739   0.132   8.516 -0.0194 -1.0488 -0.7359
 7040TIP3   OH242678   3.131   3.120   0.700  0.0199 -0.8528  1.0326
 7040TIP3    H142679   3.189   3.062   0.748  1.3609  0.4903  1.1183
 7040TIP3    H242680   3.183   3.199   0.684 -2.0490  0.7827  1.8601
 7041TIP3   OH242681   6.500   2.928   7.363 -0.2401  0.4104 -0.0162
 7041TIP3    H142682   6.471   2.849   7.409 -2.7437  1.4732  0.3894
 7041TIP3    H242683   6.462   3.000   7.413  0.2758  1.8058 -1.5414
 7042TIP3   OH242684   1.673   5.051   6.089 -0.6072  0.0184  0.1418
 7042TIP3    H142685   1.729   4.990   6.138  0.9630 -0.2731 -1.8647
 7042TIP3    H242686   1.681   5.134   6.135  3.7260  0.7256 -1.3982
 7043TIP3   OH242687   0.817   5.283   8.493  0.5650  0.7499 -0.1506
 7043TIP3    H142688   0.825   5.377   8.510  1.0039  0.5306  0.9573
 7043TIP3    H242689   0.735   5.258   8.535  0.0879  0.7524 -1.0523
 7044TIP3   OH242690   6.505   3.301   8.102 -0.1072  0.1680  0.1767
 7044TIP3    H142691   6.504   3.379   8.046 -1.3768 -1.6004 -2.4525
 7044TIP3    H242692   6.576   3.247   8.068 -0.7488 -0.8513  0.4016
 7045TIP3   OH242693   2.862   4.634   8.056 -0.2361 -0.1460  0.3346
 7045TIP3    H142694   2.936   4.695   8.062  0.1724 -0.7559  2.0780
 7045TIP3    H242695   2.805   4.658   8.129 -1.5213 -0.0271 -0.6768
 7046TIP3   OH242696   1.595   1.770   6.942  0.3288  0.0369 -0.5694
 7046TIP3    H142697   1.650   1.843   6.914 -0.2797  0.7826  0.1019
 7046TIP3    H242698   1.630   1.746   7.028 -0.0787  0.1908 -0.3575
 7047TIP3   OH242699   3.798   2.030   1.114  0.0343  0.0216  0.2360
 7047TIP3    H142700   3.734   2.035   1.185  0.3227 -0.0465  0.5050
 7047TIP3    H242701   3.874   1.985   1.153  0.1994 -0.0074 -0.1108
 7048TIP3   OH242702   0.847   1.987   7.605 -0.0952  0.2941  0.0433
 7048TIP3    H142703   0.863   1.908   7.554  0.5633  0.4231  0.0403
 7048TIP3    H242704   0.901   1.977   7.684 -1.0180  0.1443  0.6743
 7049TIP3   OH242705   3.862   2.901   8.428 -0.1538 -0.4014  0.1111
 7049TIP3    H142706   3.907   2.898   8.513  0.1817 -0.1696 -0.0561
 7049TIP3    H242707   3.857   2.809   8.400 -2.2485 -0.7427  1.3999
 7050TIP3   OH242708   5.884   3.004   1.162  0.3945  0.1217  0.1594
 7050TIP3    H142709   5.856   3.093   1.141  0.7781  0.3997  0.8055
 7050TIP3    H242710   5.980   3.010   1.168  0.3947 -0.2465  0.5689
 7051TIP3   OH242711   5.624   0.727   1.132  0.0913  0.4421 -0.2065
 7051TIP3    H142712   5.707   0.773   1.135  0.6639 -0.4926 -0.9562
 7051TIP3    H242713   5.586   0.752   1.048 -0.1821  0.5184 -0.0626
 7052TIP3   OH242714   4.774   3.834   7.282  0.0745  0.8204 -0.0168
 7052TIP3    H142715   4.756   3.761   7.223 -1.8278  0.0022  1.4648
 7052TIP3    H242716   4.855   3.872   7.249 -0.5162 -0.0373 -2.6794
 7053TIP3   OH242717   2.080   1.963   0.151  0.1207  0.2694  0.6886
 7053TIP3    H142718   2.079   1.915   0.068 -3.2830  1.2532 -0.0250
 7053TIP3    H242719   2.119   2.048   0.129  2.4767 -0.6711  1.0152
 7054TIP3   OH242720   2.352   3.857   8.709 -0.1321 -0.2373  0.3198
 7054TIP3    H142721   2.343   3.784   8.770  0.2109 -0.2988  0.2984
 7054TIP3    H242722   2.336   3.818   8.623 -0.1830 -0.2381  0.3300
 7055TIP3   OH242723   5.496   0.679   7.868 -0.2971  0.3043  0.1851
 7055TIP3    H142724   5.490   0.753   7.929  0.8319  1.2247 -0.7850
 7055TIP3    H242725   5.535   0.716   7.789  0.0927 -1.2897 -0.3982
 7056TIP3   OH242726   1.583   4.892   2.496  0.3887 -0.7431  0.5012
 7056TIP3    H142727   1.675   4.914   2.505  0.9315 -1.4882 -2.1758
 7056TIP3    H242728   1.564   4.836   2.572  2.3414 -1.1666  0.7370
 7057TIP3   OH242729   4.099   5.231   8.091 -0.3508  0.5407 -0.2704
 7057TIP3    H142730   4.128   5.320   8.108  0.6880 -0.0616  1.2455
 7057TIP3    H242731   4.178   5.183   8.067 -0.6832 -0.2503  0.1519
 7058TIP3   OH242732   6.680   0.415   7.907  0.3937  0.1066  0.7037
 7058TIP3    H142733   6.647   0.383   7.991  0.8732 -1.2688  0.3975
 7058TIP3    H242734   6.607   0.464   7.870 -0.4187 -0.7124  1.1702
 7059TIP3   OH242735   5.526   2.429   6.247  0.1283  0.3738 -0.4241
 7059TIP3    H142736   5.505   2.397   6.159 -0.3456 -1.3468  0.2590
 7059TIP3    H242737   5.610   2.472   6.238  1.8310 -2.7714 -1.1900
 7060TIP3   OH242738   4.241   4.662   8.710 -0.3679  0.1688  0.2104
 7060TIP3    H142739   4.202   4.576   8.694 -0.6062  0.1366  0.9362
 7060TIP3    H242740   4.301   4.648   8.783 -1.6511  0.9454  1.4704
 7061TIP3   OH242741   5.875   5.829   8.472  0.9204 -0.4197 -0.2939
 7061TIP3    H142742   5.801   5.889   8.485  0.6507 -0.3057 -2.1149
 7061TIP3    H242743   5.842   5.744   8.500  0.6108 -0.0867  0.3612
 7062TIP3   OH242744   2.044   4.228   0.112 -0.3153 -0.3592  0.0220
 7062TIP3    H142745   2.132   4.219   0.148 -0.1798  1.1031  0.0984
 7062TIP3    H242746   2.050   4.188   0.025  0.1585 -1.1273  0.3934
 7063TIP3   OH242747   0.644   3.406   7.257 -0.3279  0.5051 -0.1123
 7063TIP3    H142748   0.698   3.400   7.178  0.4842  0.0097  0.4657
 7063TIP3    H242749   0.659   3.323   7.302 -2.2514 -0.0262 -0.3522
 7064TIP3   OH242750   0.126   1.181   8.212  0.1877  0.4433 -0.4200
 7064TIP3    H142751   0.080   1.265   8.222  1.2604  0.8340  1.7959
 7064TIP3    H242752   0.065   1.116   8.247  0.4765  0.7025  0.6022
 7065TIP3   OH242753   6.438   4.080   6.958 -0.2727  0.0161 -0.0236
 7065TIP3    H142754   6.505   4.147   6.973  1.8746 -2.2915  1.4528
 7065TIP3    H242755   6.356   4.129   6.948  1.0573  2.8067  1.7083
 7066TIP3   OH242756   5.687   6.035   8.560  0.4800 -0.0686 -0.0194
 7066TIP3    H142757   5.730   6.071   8.638  0.4747  0.0369 -0.0648
 7066TIP3    H242758   5.671   6.111   8.504 -0.0108 -0.0675  0.1177
 7067TIP3   OH242759   1.989   1.665   1.415 -0.4103 -0.9420  0.0966
 7067TIP3    H142760   1.924   1.731   1.393  1.1835  0.4705 -0.6490
 7067TIP3    H242761   2.048   1.710   1.476  1.7481 -0.9823 -1.8161
 7068TIP3   OH242762   4.214   0.990   0.778  0.0102  0.0649 -0.1985
 7068TIP3    H142763   4.144   0.936   0.816  0.0544 -0.1429 -0.4111
 7068TIP3    H242764   4.195   1.078   0.809  0.1818 -0.1392  0.5061
 7069TIP3   OH242765   6.364   2.469   0.599  0.0086  0.3871  0.3513
 7069TIP3    H142766   6.340   2.451   0.508 -0.0057  1.5228  0.1132
 7069TIP3    H242767   6.459   2.458   0.601  0.0066  0.3431  0.1974
 7070TIP3   OH242768   2.163   4.830   7.569 -0.3282  0.6422 -0.0245
 7070TIP3    H142769   2.233   4.765   7.566  0.1916  1.1892  0.0523
 7070TIP3    H242770   2.100   4.794   7.631 -0.5630 -0.2931 -0.7828
 7071TIP3   OH242771   5.298   5.663   0.916 -0.4132  0.5365  0.2837
 7071TIP3    H142772   5.260   5.599   0.977 -0.5224  0.3777  0.0519
 7071TIP3    H242773   5.235   5.734   0.913 -1.0684 -0.0574 -0.6686
 7072LIG      O42774   1.317   5.455   5.746  0.3301  0.1293  0.2834
 7072LIG     C142775   1.332   5.537   5.638  0.3258 -0.0088 -0.0043
 7072LIG     C242776   1.365   5.679   5.685 -0.3420  0.3260 -0.2333
 7072LIG     C342777   1.437   5.472   5.547  0.1558  0.5908  0.1484
 7072LIG     H142778   1.236   5.539   5.581  1.0235 -1.3607 -1.2912
 7072LIG     H242779   1.464   5.678   5.735 -1.1165  0.7372  1.3818
 7072LIG     H342780   1.299   5.723   5.763  2.0582 -1.8231  3.3174
 7072LIG     H442781   1.381   5.736   5.591  0.7524  0.3274 -0.0623
 7072LIG     H542782   1.463   5.541   5.464  0.2598  0.0514 -0.2788
 7072LIG     H642783   1.390   5.382   5.501  1.9064  0.5794 -1.7514
 7072LIG     H742784   1.533   5.452   5.599 -0.1149  0.7652  0.7192
 7072LIG     H842785   1.410   5.443   5.767  0.3706  1.2920  0.8332
   6.84921   6.84921   8.72683
